          AutoDock 4.2 Release 4.2.6   
         (C) 1989-2012 The Scripps Research Institute
        AutoDock comes with ABSOLUTELY NO WARRANTY.
        AutoDock is free software, and you are welcome
        to redistribute it under certain conditions;
        for details type 'autodock4 -C'

                     main.cc  $Revision: 1.213 $

                   Compiled on Jul 18 2014 at 15:34:58


This file was created at:			6:17 05" p.m., 10/04/2025
                   on host:		"ACER"
Current Working Directory = "D:\Protein_go_brrr\autodock\final\mut_N102T\heme"

      ________________________________________________________________

                   SETTING UP DEFAULT PARAMETER LIBRARY
      ________________________________________________________________


Random number generator was seeded with values 179360, 1759594625.
Docking parameter file (DPF) used for this docking:		D:/Protein_go_brrr/autodock/final/mut_N102T/heme/dock.dpf
DPF> autodock_parameter_version 4.2       # used by autodock to validate parameter set

	Autodock parameter version 4.2.
DPF> outlev 1                             # diagnostic output level

Output Level = 1  ADT-COMPATIBLE OUTPUT DURING DOCKING.
DPF> intelec                              # calculate internal electrostatics

Electrostatic energies will be calculated for all non-bonds between moving atoms.
DPF> seed pid time                        # seeds for random generator

Random number generator was seeded with values 179360, 1759594625.
DPF> ligand_types A C NA OA N HD          # atoms types in ligand

DPF> fld mut_N102T_m0.maps.fld            # grid_data_file

Opening Grid Map Dimensions file:		mut_N102T_m0.maps.fld
Grid Point Spacing =				0.447 Angstroms

Even Number of User-specified Grid Points =	126 x-points
						126 y-points
						126 z-points

Coordinates of Central Grid Point of Maps =	(1.333, -0.428, -0.352)
Macromolecule file used to create Grid Maps =	mut_N102T_m0.pdbqt
Grid Parameter file used to create Grid Maps =	D:/Protein_go_brrr/autodock/final/mut_N102T/heme/grid.gpf
Minimum coordinates in grid = (-26.828, -28.589, -28.513)
Maximum coordinates in grid = (29.494, 27.733, 27.809)

DPF> map mut_N102T_m0.A.map               # atom-specific affinity map

DPF> map mut_N102T_m0.C.map               # atom-specific affinity map

DPF> map mut_N102T_m0.NA.map              # atom-specific affinity map

DPF> map mut_N102T_m0.OA.map              # atom-specific affinity map

DPF> map mut_N102T_m0.N.map               # atom-specific affinity map

DPF> map mut_N102T_m0.HD.map              # atom-specific affinity map

DPF> elecmap mut_N102T_m0.e.map           # electrostatics map

DPF> desolvmap mut_N102T_m0.d.map         # desolvation map

DPF> move heme_opt.pdbqt                  # small molecule

1,4-interactions will be _ignored_ in the non-bonded internal energy calculation.

Ligand PDBQT file = "heme_opt.pdbqt"

INPUT LIGAND PDBQT FILE:
________________________

INPUT-LIGAND-PDBQT: REMARK  13 active torsions:
INPUT-LIGAND-PDBQT: REMARK  status: ('A' for Active; 'I' for Inactive)
INPUT-LIGAND-PDBQT: REMARK    1  A    between atoms: O_3  and  C_38 
INPUT-LIGAND-PDBQT: REMARK    2  A    between atoms: O_4  and  C_40 
INPUT-LIGAND-PDBQT: REMARK    3  A    between atoms: O_7  and  C_46 
INPUT-LIGAND-PDBQT: REMARK    4  A    between atoms: O_9  and  C_48 
INPUT-LIGAND-PDBQT: REMARK    5  A    between atoms: C_15  and  C_20 
INPUT-LIGAND-PDBQT: REMARK    6  A    between atoms: C_16  and  C_23 
INPUT-LIGAND-PDBQT: REMARK    7  A    between atoms: C_20  and  C_38 
INPUT-LIGAND-PDBQT: REMARK    8  A    between atoms: C_23  and  C_40 
INPUT-LIGAND-PDBQT: REMARK    9  A    between atoms: C_32  and  C_41 
INPUT-LIGAND-PDBQT: REMARK   10  A    between atoms: C_37  and  C_45 
INPUT-LIGAND-PDBQT: REMARK   11  A    between atoms: C_41  and  C_44 
INPUT-LIGAND-PDBQT: REMARK   12  A    between atoms: C_44  and  C_46 
INPUT-LIGAND-PDBQT: REMARK   13  A    between atoms: C_47  and  C_48 
INPUT-LIGAND-PDBQT: ROOT
INPUT-LIGAND-PDBQT: ATOM      1  O   UNL d   1      -5.458   1.707   0.620  0.00  0.00    -0.289 OA
INPUT-LIGAND-PDBQT: ATOM      2  O   UNL d   1      -2.504  -4.828  -1.607  0.00  0.00    -0.289 OA
INPUT-LIGAND-PDBQT: ATOM      3  N   UNL d   1      -2.063   1.218   0.259  0.00  0.00    -0.247 NA
INPUT-LIGAND-PDBQT: ATOM      4  N   UNL d   1      -1.851  -1.684  -0.343  0.00  0.00    -0.247 NA
INPUT-LIGAND-PDBQT: ATOM      5  N   UNL d   1       0.972  -1.489   0.166  0.00  0.00    -0.354 N 
INPUT-LIGAND-PDBQT: ATOM      6  N   UNL d   1       0.740   1.517   0.808  0.00  0.00    -0.354 N 
INPUT-LIGAND-PDBQT: ATOM      7  C   UNL d   1      -3.467   3.037   1.112  0.00  0.00     0.084 A 
INPUT-LIGAND-PDBQT: ATOM      8  C   UNL d   1      -3.784  -2.753  -1.388  0.00  0.00     0.084 A 
INPUT-LIGAND-PDBQT: ATOM      9  C   UNL d   1      -3.156  -1.511  -0.747  0.00  0.00     0.058 A 
INPUT-LIGAND-PDBQT: ATOM     10  C   UNL d   1      -2.069   2.485   0.818  0.00  0.00     0.058 A 
INPUT-LIGAND-PDBQT: ATOM     11  C   UNL d   1      -4.251   1.865   0.603  0.00  0.00     0.193 A 
INPUT-LIGAND-PDBQT: ATOM     12  C   UNL d   1      -3.288   0.840   0.089  0.00  0.00     0.109 A 
INPUT-LIGAND-PDBQT: ATOM     13  C   UNL d   1      -2.606  -3.674  -1.239  0.00  0.00     0.193 A 
INPUT-LIGAND-PDBQT: ATOM     14  C   UNL d   1      -3.721   3.188   2.614  0.00  0.00     0.026 C 
INPUT-LIGAND-PDBQT: ATOM     15  C   UNL d   1      -3.838  -0.372  -0.551  0.00  0.00     0.055 C 
INPUT-LIGAND-PDBQT: ATOM     16  C   UNL d   1      -4.060  -2.544  -2.880  0.00  0.00     0.026 C 
INPUT-LIGAND-PDBQT: ATOM     17  C   UNL d   1      -1.503  -2.907  -0.585  0.00  0.00     0.109 A 
INPUT-LIGAND-PDBQT: ATOM     18  C   UNL d   1      -0.964   3.229   1.013  0.00  0.00     0.050 C 
INPUT-LIGAND-PDBQT: ATOM     19  C   UNL d   1       0.360   2.835   0.692  0.00  0.00     0.045 A 
INPUT-LIGAND-PDBQT: ATOM     20  C   UNL d   1       0.841  -2.851   0.084  0.00  0.00     0.045 A 
INPUT-LIGAND-PDBQT: ATOM     21  C   UNL d   1      -0.229  -3.570  -0.270  0.00  0.00     0.057 C 
INPUT-LIGAND-PDBQT: ATOM     22  C   UNL d   1       2.967  -2.353   0.755  0.00  0.00    -0.019 A 
INPUT-LIGAND-PDBQT: ATOM     23  C   UNL d   1       2.221  -1.093   0.564  0.00  0.00     0.045 A 
INPUT-LIGAND-PDBQT: ATOM     24  C   UNL d   1       2.145  -3.390   0.468  0.00  0.00    -0.022 A 
INPUT-LIGAND-PDBQT: ATOM     25  C   UNL d   1       2.081   1.375   0.536  0.00  0.00     0.049 A 
INPUT-LIGAND-PDBQT: ATOM     26  C   UNL d   1       1.473   3.562   0.299  0.00  0.00    -0.018 A 
INPUT-LIGAND-PDBQT: ATOM     27  C   UNL d   1       2.552   2.632   0.183  0.00  0.00     0.003 A 
INPUT-LIGAND-PDBQT: ATOM     28  C   UNL d   1       2.739   0.132   0.742  0.00  0.00     0.052 C 
INPUT-LIGAND-PDBQT: ATOM     29  C   UNL d   1       2.440  -4.851   0.501  0.00  0.00     0.046 C 
INPUT-LIGAND-PDBQT: ATOM     30  C   UNL d   1       1.533   5.030   0.044  0.00  0.00     0.046 C 
INPUT-LIGAND-PDBQT: ATOM     31  H   UNL d   1       0.223  -0.870  -0.125  0.00  0.00     0.166 HD
INPUT-LIGAND-PDBQT: ATOM     32  H   UNL d   1       0.112   0.776   1.096  0.00  0.00     0.166 HD
INPUT-LIGAND-PDBQT: ENDROOT
INPUT-LIGAND-PDBQT: BRANCH   7  33
INPUT-LIGAND-PDBQT: ATOM     33  C   UNL d   1      -3.845   4.310   0.347  0.00  0.00     0.141 C 
INPUT-LIGAND-PDBQT: BRANCH  33  34
INPUT-LIGAND-PDBQT: ATOM     34  C   UNL d   1      -3.538   4.215  -1.123  0.00  0.00     0.306 C 
INPUT-LIGAND-PDBQT: ATOM     35  O   UNL d   1      -3.917   3.340  -1.883  0.00  0.00    -0.251 OA
INPUT-LIGAND-PDBQT: BRANCH  34  36
INPUT-LIGAND-PDBQT: ATOM     36  O   UNL d   1      -2.771   5.230  -1.559  0.00  0.00    -0.481 OA
INPUT-LIGAND-PDBQT: ATOM     37  H   UNL d   1      -2.612   5.030  -2.506  0.00  0.00     0.295 HD
INPUT-LIGAND-PDBQT: ENDBRANCH  34  36
INPUT-LIGAND-PDBQT: ENDBRANCH  33  34
INPUT-LIGAND-PDBQT: ENDBRANCH   7  33
INPUT-LIGAND-PDBQT: BRANCH  27  38
INPUT-LIGAND-PDBQT: ATOM     38  C   UNL d   1       3.894   2.967  -0.187  0.00  0.00     0.017 C 
INPUT-LIGAND-PDBQT: ATOM     39  C   UNL d   1       4.701   2.208  -0.944  0.00  0.00     0.092 C 
INPUT-LIGAND-PDBQT: BRANCH  39  40
INPUT-LIGAND-PDBQT: ATOM     40  C   UNL d   1       6.052   2.675  -1.266  0.00  0.00     0.330 C 
INPUT-LIGAND-PDBQT: ATOM     41  O   UNL d   1       6.568   3.731  -0.953  0.00  0.00    -0.246 OA
INPUT-LIGAND-PDBQT: BRANCH  40  42
INPUT-LIGAND-PDBQT: ATOM     42  O   UNL d   1       6.703   1.746  -1.983  0.00  0.00    -0.477 OA
INPUT-LIGAND-PDBQT: ATOM     43  H   UNL d   1       7.581   2.148  -2.146  0.00  0.00     0.295 HD
INPUT-LIGAND-PDBQT: ENDBRANCH  40  42
INPUT-LIGAND-PDBQT: ENDBRANCH  39  40
INPUT-LIGAND-PDBQT: ENDBRANCH  27  38
INPUT-LIGAND-PDBQT: BRANCH   8  44
INPUT-LIGAND-PDBQT: ATOM     44  C   UNL d   1      -5.015  -3.316  -0.670  0.00  0.00     0.141 C 
INPUT-LIGAND-PDBQT: BRANCH  44  45
INPUT-LIGAND-PDBQT: ATOM     45  C   UNL d   1      -4.806  -3.504   0.809  0.00  0.00     0.306 C 
INPUT-LIGAND-PDBQT: ATOM     46  O   UNL d   1      -3.825  -3.985   1.349  0.00  0.00    -0.251 OA
INPUT-LIGAND-PDBQT: BRANCH  45  47
INPUT-LIGAND-PDBQT: ATOM     47  O   UNL d   1      -5.864  -3.098   1.534  0.00  0.00    -0.481 OA
INPUT-LIGAND-PDBQT: ATOM     48  H   UNL d   1      -5.613  -3.283   2.464  0.00  0.00     0.295 HD
INPUT-LIGAND-PDBQT: ENDBRANCH  45  47
INPUT-LIGAND-PDBQT: ENDBRANCH  44  45
INPUT-LIGAND-PDBQT: ENDBRANCH   8  44
INPUT-LIGAND-PDBQT: BRANCH  22  49
INPUT-LIGAND-PDBQT: ATOM     49  C   UNL d   1       4.395  -2.426   1.210  0.00  0.00     0.048 C 
INPUT-LIGAND-PDBQT: BRANCH  49  50
INPUT-LIGAND-PDBQT: ATOM     50  C   UNL d   1       5.372  -2.242   0.049  0.00  0.00     0.125 C 
INPUT-LIGAND-PDBQT: BRANCH  50  51
INPUT-LIGAND-PDBQT: ATOM     51  C   UNL d   1       6.794  -2.339   0.524  0.00  0.00     0.305 C 
INPUT-LIGAND-PDBQT: ATOM     52  O   UNL d   1       7.189  -2.431   1.673  0.00  0.00    -0.251 OA
INPUT-LIGAND-PDBQT: BRANCH  51  53
INPUT-LIGAND-PDBQT: ATOM     53  O   UNL d   1       7.671  -2.302  -0.499  0.00  0.00    -0.481 OA
INPUT-LIGAND-PDBQT: ATOM     54  H   UNL d   1       8.547  -2.365  -0.064  0.00  0.00     0.295 HD
INPUT-LIGAND-PDBQT: ENDBRANCH  51  53
INPUT-LIGAND-PDBQT: ENDBRANCH  50  51
INPUT-LIGAND-PDBQT: ENDBRANCH  49  50
INPUT-LIGAND-PDBQT: ENDBRANCH  22  49
INPUT-LIGAND-PDBQT: TORSDOF 13
________________________________________________________________________________

Total charge on ligand                               =	-0.002 e
REMARK  13 active torsions:
REMARK  status: ('A' for Active; 'I' for Inactive)
REMARK    1  A    between atoms: O_3  and  C_38 
REMARK    2  A    between atoms: O_4  and  C_40 
REMARK    3  A    between atoms: O_7  and  C_46 
REMARK    4  A    between atoms: O_9  and  C_48 
REMARK    5  A    between atoms: C_15  and  C_20 
REMARK    6  A    between atoms: C_16  and  C_23 
REMARK    7  A    between atoms: C_20  and  C_38 
REMARK    8  A    between atoms: C_23  and  C_40 
REMARK    9  A    between atoms: C_32  and  C_41 
REMARK   10  A    between atoms: C_37  and  C_45 
REMARK   11  A    between atoms: C_41  and  C_44 
REMARK   12  A    between atoms: C_44  and  C_46 
REMARK   13  A    between atoms: C_47  and  C_48 


Number of Rotatable Bonds in Small Molecule =	13 torsions
Number of atoms in ligand:  54

Number of non-hydrogen atoms in ligand:  48

Number of vibrational degrees of freedom of ligand:  156


Number of torsional degrees of freedom = 13
Estimated loss of torsional free energy upon binding = +3.8779 kcal/mol


DPF> about 0.153 0.018 -0.028            # small molecule center

Small molecule center of rotation =	(+0.153, +0.018, -0.028)

DPF> tran0 random                         # initial coordinates/A or random

Initial translation =			(-8.431, -26.240, 27.492) Angstroms
DPF> quaternion0 random                   # initial orientation

Each run will begin with a new, random initial orientation.
Initial quaternion,  (x,y,z,w) =	( -0.702, 0.348, 0.510, -0.355 ),
DPF> dihe0 random                         # initial dihedrals (relative) or random

DPF> torsdof 13                            # torsional degrees of freedom

Number of torsional degrees of freedom = 13
Free energy coefficient for torsional degrees of freedom = 0.2983, the factory default value.

Estimated loss of torsional free energy upon binding = +3.8779 kcal/mol

DPF> rmstol 2.0                           # cluster_tolerance/A

Maximum RMS tolerance for conformational cluster analysis = 2.00 Angstroms
DPF> extnrg 1000.0                        # external grid energy

External grid energy (beyond grid map walls) = 1000.00

DPF> e0max 0.0 10000                      # max initial energy; max number of retries

Using user-specified maximum number of retries for simanneal initialization, 10000 retries.
If the simanneal initial energy is greater than e0max, 0.000,
then a new, random initial state will be created.

DPF> ga_pop_size 150                      # number of individuals in population

A population of 150 individuals will be used
DPF> ga_num_evals 25000000                # maximum number of energy evaluations

There will be at most 25000000 function evaluations used.
DPF> ga_num_generations 27000             # maximum number of generations

The GA will run for at most 27000 generations.
DPF> ga_elitism 1                         # number of top individuals to survive to next generation

The 1 best will be preserved each GA generation.
DPF> ga_mutation_rate 0.02                # rate of gene mutation

The mutation rate is 0.020000.
DPF> ga_crossover_rate 0.8                # rate of crossover

The crossover rate is 0.800000.
DPF> ga_window_size 10                    # 

The GA's selection window is 10 generations.
DPF> ga_cauchy_alpha 0.0                  # Alpha parameter of Cauchy distribution

The alpha parameter (for the Cauchy distribution) is being set to 0.000000.
DPF> ga_cauchy_beta 1.0                   # Beta parameter Cauchy distribution

The beta parameter (for the Cauchy distribution) is being set to 1.000000.
DPF> set_ga                               # set the above parameters for GA or LGA

DPF> sw_max_its 300                       # iterations of Solis & Wets local search

Solis & Wets algorithms will perform at most 300 iterations.
DPF> sw_max_succ 4                        # consecutive successes before changing rho

Solis & Wets algorithms expand rho every 4 in a row successes.
DPF> sw_max_fail 4                        # consecutive failures before changing rho

Solis & Wets algorithms contract rho every 4 in a row failures.
DPF> sw_rho 1.0                           # size of local search space to sample

rho is set to 1.000000.
DPF> sw_lb_rho 0.01                       # lower bound on rho

rho will never get smaller than 0.010000.
DPF> ls_search_freq 0.06                  # probability of performing local search on individual

Local search will be performed with frequency 0.060000.
DPF> set_psw1                             # set the above pseudo-Solis & Wets parameters

Creating a new Local Search object using the pseudo-Solis-Wets algorithm (pSW1) with the current settings.

DPF> unbound_model bound                  # state of unbound ligand

DPF> ga_run 100                           # do this many hybrid GA-LS runs

centering ligand on specified point: 0.153 0.018 -0.028
Furthest true ligand atom from "about" center is 8.726 Angstroms (maxrad).
Number of requested GA dockings = 100 runs
Unbound model to be used is 'same as bound' [AutoDock 4.2 default].

	BEGINNING GENETIC ALGORITHM DOCKING 1 of 100
Run: 1 Seed: 1106344089 1824345235 [ Run 1 of 100 GA/GALS ]
Beginning LAMARCKIAN GENETIC ALGORITHM (LGA), with a maximum of 25000000 energy evaluations.

Final-Value: -12.417


	FINAL GENETIC ALGORITHM DOCKED STATE
	_______________________________________________


Detailed state:  trans -8.748 11.073 11.056 quatxyzw 0.508858 -0.373424 -0.774489 -0.042245 center 0.153 0.018 -0.028 ntor 13 158.4226 -130.7200 -94.9106 -83.5959 -145.4983 -110.9949 126.1923 38.5797 7.7898 -31.2222 -87.8976 24.1793 1.9626
State:	 -8.748  11.073  11.056   0.509 -0.374 -0.775 -175.158    158.42 -130.72  -94.91  -83.60 -145.50 -110.99  126.19   38.58    7.79  -31.22  -87.90   24.18    1.96

DOCKED: MODEL        1
DOCKED: USER    Run = 1
DOCKED: USER    DPF = D:/Protein_go_brrr/autodock/final/mut_N102T/heme/dock.dpf
DOCKED: USER  
DOCKED: USER    Estimated Free Energy of Binding    =   -4.26 kcal/mol  [=(1)+(2)+(3)-(4)]
DOCKED: USER    Estimated Inhibition Constant, Ki   =  759.65 uM (micromolar)  [Temperature = 298.15 K]
DOCKED: USER    
DOCKED: USER    (1) Final Intermolecular Energy     =   -8.13 kcal/mol
DOCKED: USER        vdW + Hbond + desolv Energy     =   -7.97 kcal/mol
DOCKED: USER        Electrostatic Energy            =   -0.16 kcal/mol
DOCKED: USER    (2) Final Total Internal Energy     =   -4.28 kcal/mol
DOCKED: USER    (3) Torsional Free Energy           =   +3.88 kcal/mol
DOCKED: USER    (4) Unbound System's Energy  [=(2)] =   -4.28 kcal/mol
DOCKED: USER    
DOCKED: USER    
DOCKED: USER    NEWDPF move heme_opt.pdbqt
DOCKED: USER    NEWDPF about 0.153000 0.018000 -0.028000
DOCKED: USER    NEWDPF tran0 -8.748200 11.073077 11.055952
DOCKED: USER    NEWDPF quaternion0 0.508858 -0.373424 -0.774489 -0.042245
DOCKED: USER    NEWDPF axisangle0 0.509313 -0.373758 -0.775181 -175.157591
DOCKED: USER    NEWDPF quat0 0.509313 -0.373758 -0.775181 -175.157591
DOCKED: USER    NEWDPF dihe0 158.42 -130.72 -94.91 -83.60 -145.50 -110.99 126.19 38.58 7.79 -31.22 -87.90 24.18 1.96 
DOCKED: USER  keepresnum = 1 
DOCKED: USER  
DOCKED: REMARK  13 active torsions:
DOCKED: REMARK  status: ('A' for Active; 'I' for Inactive)
DOCKED: REMARK    1  A    between atoms: O_3  and  C_38 
DOCKED: REMARK    2  A    between atoms: O_4  and  C_40 
DOCKED: REMARK    3  A    between atoms: O_7  and  C_46 
DOCKED: REMARK    4  A    between atoms: O_9  and  C_48 
DOCKED: REMARK    5  A    between atoms: C_15  and  C_20 
DOCKED: REMARK    6  A    between atoms: C_16  and  C_23 
DOCKED: REMARK    7  A    between atoms: C_20  and  C_38 
DOCKED: REMARK    8  A    between atoms: C_23  and  C_40 
DOCKED: REMARK    9  A    between atoms: C_32  and  C_41 
DOCKED: REMARK   10  A    between atoms: C_37  and  C_45 
DOCKED: REMARK   11  A    between atoms: C_41  and  C_44 
DOCKED: REMARK   12  A    between atoms: C_44  and  C_46 
DOCKED: REMARK   13  A    between atoms: C_47  and  C_48 
DOCKED: USER                              x       y       z     vdW  Elec       q    Type
DOCKED: USER                           _______ _______ _______ _____ _____    ______ ____
DOCKED: ROOT
DOCKED: ATOM      1  O   UNL d   1      -7.126  12.708  16.483 -0.02 +0.03    -0.289 OA
DOCKED: ATOM      2  O   UNL d   1      -4.658  14.888   9.734 -0.19 +0.02    -0.289 OA
DOCKED: ATOM      3  N   UNL d   1      -8.301  11.353  13.537 +0.15 -0.00    -0.247 NA
DOCKED: ATOM      4  N   UNL d   1      -6.995  13.018  11.451 -0.08 +0.03    -0.247 NA
DOCKED: ATOM      5  N   UNL d   1      -8.825  11.893   9.539 -0.14 +0.06    -0.354 N 
DOCKED: ATOM      6  N   UNL d   1     -10.186  10.184  11.713 -0.06 +0.00    -0.354 N 
DOCKED: ATOM      7  C   UNL d   1      -8.900  11.130  15.903 -0.05 -0.00    +0.084 A 
DOCKED: ATOM      8  C   UNL d   1      -4.877  14.087  12.037 -0.27 -0.01    +0.084 A 
DOCKED: ATOM      9  C   UNL d   1      -6.094  13.259  12.463 -0.16 -0.01    +0.058 A 
DOCKED: ATOM     10  C   UNL d   1      -9.154  10.746  14.442 -0.11 -0.00    +0.058 A 
DOCKED: ATOM     11  C   UNL d   1      -7.739  12.048  15.664 -0.05 -0.01    +0.193 A 
DOCKED: ATOM     12  C   UNL d   1      -7.456  12.079  14.194 -0.07 -0.01    +0.109 A 
DOCKED: ATOM     13  C   UNL d   1      -5.274  14.303  10.603 -0.23 -0.03    +0.193 A 
DOCKED: ATOM     14  C   UNL d   1     -10.057  11.939  16.494 -0.02 -0.00    +0.026 C 
DOCKED: ATOM     15  C   UNL d   1      -6.287  12.851  13.727 -0.16 -0.01    +0.055 C 
DOCKED: ATOM     16  C   UNL d   1      -3.588  13.261  12.072 -0.58 -0.00    +0.026 C 
DOCKED: ATOM     17  C   UNL d   1      -6.579  13.611  10.378 -0.21 -0.02    +0.109 A 
DOCKED: ATOM     18  C   UNL d   1     -10.077   9.824  14.108 -0.14 -0.00    +0.050 C 
DOCKED: ATOM     19  C   UNL d   1     -10.324   9.345  12.796 -0.17 +0.00    +0.045 A 
DOCKED: ATOM     20  C   UNL d   1      -8.267  12.885   8.775 -0.25 -0.01    +0.045 A 
DOCKED: ATOM     21  C   UNL d   1      -7.238  13.688   9.066 -0.22 -0.01    +0.057 C 
DOCKED: ATOM     22  C   UNL d   1      -9.991  11.940   7.612 -0.20 +0.00    -0.019 A 
DOCKED: ATOM     23  C   UNL d   1      -9.874  11.266   8.921 -0.23 -0.01    +0.045 A 
DOCKED: ATOM     24  C   UNL d   1      -9.036  12.897   7.532 -0.22 +0.00    -0.022 A 
DOCKED: ATOM     25  C   UNL d   1     -10.560   9.542  10.555 -0.17 -0.00    +0.049 A 
DOCKED: ATOM     26  C   UNL d   1     -10.763   8.117  12.326 -0.23 -0.00    -0.018 A 
DOCKED: ATOM     27  C   UNL d   1     -10.892   8.242  10.908 -0.25 -0.00    +0.003 A 
DOCKED: ATOM     28  C   UNL d   1     -10.653  10.252   9.327 -0.22 -0.01    +0.052 C 
DOCKED: ATOM     29  C   UNL d   1      -8.745  13.831   6.407 -0.16 -0.00    +0.046 C 
DOCKED: ATOM     30  C   UNL d   1     -11.044   6.901  13.141 -0.22 +0.00    +0.046 C 
DOCKED: ATOM     31  H   UNL d   1      -8.423  11.627  10.431 +0.05 -0.02    +0.166 HD
DOCKED: ATOM     32  H   UNL d   1      -9.888  11.149  11.786 +0.03 -0.00    +0.166 HD
DOCKED: ENDROOT
DOCKED: BRANCH   7  33
DOCKED: ATOM     33  C   UNL d   1      -8.493   9.975  16.824 -0.05 -0.01    +0.141 C 
DOCKED: BRANCH  33  34
DOCKED: ATOM     34  C   UNL d   1      -7.283   9.233  16.323 -0.10 -0.01    +0.306 C 
DOCKED: ATOM     35  O   UNL d   1      -7.289   8.255  15.595 -0.22 +0.00    -0.251 OA
DOCKED: BRANCH  34  36
DOCKED: ATOM     36  O   UNL d   1      -6.129   9.765  16.764 -0.03 +0.05    -0.481 OA
DOCKED: ATOM     37  H   UNL d   1      -6.349  10.700  16.965 +0.06 -0.03    +0.295 HD
DOCKED: ENDBRANCH  34  36
DOCKED: ENDBRANCH  33  34
DOCKED: ENDBRANCH   7  33
DOCKED: BRANCH  27  38
DOCKED: ATOM     38  C   UNL d   1     -11.336   7.205  10.026 -0.29 -0.00    +0.017 C 
DOCKED: ATOM     39  C   UNL d   1     -10.614   6.679   9.024 -0.42 -0.00    +0.092 C 
DOCKED: BRANCH  39  40
DOCKED: ATOM     40  C   UNL d   1     -11.181   5.606   8.202 -0.13 +0.00    +0.330 C 
DOCKED: ATOM     41  O   UNL d   1     -10.818   4.447   8.139 -0.66 -0.04    -0.246 OA
DOCKED: BRANCH  40  42
DOCKED: ATOM     42  O   UNL d   1     -12.216   6.071   7.486 -0.06 +0.01    -0.477 OA
DOCKED: ATOM     43  H   UNL d   1     -11.869   6.890   7.075 +0.10 -0.01    +0.295 HD
DOCKED: ENDBRANCH  40  42
DOCKED: ENDBRANCH  39  40
DOCKED: ENDBRANCH  27  38
DOCKED: BRANCH   8  44
DOCKED: ATOM     44  C   UNL d   1      -4.700  15.424  12.764 -0.23 -0.02    +0.141 C 
DOCKED: BRANCH  44  45
DOCKED: ATOM     45  C   UNL d   1      -5.568  16.522  12.210 -0.09 -0.03    +0.306 C 
DOCKED: ATOM     46  O   UNL d   1      -6.742  16.722  12.471 -0.03 +0.02    -0.251 OA
DOCKED: BRANCH  45  47
DOCKED: ATOM     47  O   UNL d   1      -4.914  17.299  11.328 -0.04 +0.02    -0.481 OA
DOCKED: ATOM     48  H   UNL d   1      -4.986  16.821  10.475 +0.08 -0.01    +0.295 HD
DOCKED: ENDBRANCH  45  47
DOCKED: ENDBRANCH  44  45
DOCKED: ENDBRANCH   8  44
DOCKED: BRANCH  22  49
DOCKED: ATOM     49  C   UNL d   1     -11.024  11.600   6.579 -0.15 -0.01    +0.048 C 
DOCKED: BRANCH  49  50
DOCKED: ATOM     50  C   UNL d   1     -10.620  10.381   5.750 -0.19 -0.02    +0.125 C 
DOCKED: BRANCH  50  51
DOCKED: ATOM     51  C   UNL d   1     -11.182   9.120   6.341 -0.17 -0.05    +0.305 C 
DOCKED: ATOM     52  O   UNL d   1     -12.234   8.985   6.941 -0.08 +0.02    -0.251 OA
DOCKED: BRANCH  51  53
DOCKED: ATOM     53  O   UNL d   1     -10.364   8.065   6.151 -0.07 +0.11    -0.481 OA
DOCKED: ATOM     54  H   UNL d   1      -9.849   8.010   6.983 -0.33 -0.15    +0.295 HD
DOCKED: ENDBRANCH  51  53
DOCKED: ENDBRANCH  50  51
DOCKED: ENDBRANCH  49  50
DOCKED: ENDBRANCH  22  49
DOCKED: TORSDOF 13
DOCKED: TER
DOCKED: ENDMDL
________________________________________________________________________________


	BEGINNING GENETIC ALGORITHM DOCKING 2 of 100
Run: 2 Seed: 701469309 89568570 [ Run 2 of 100 GA/GALS ]
Beginning LAMARCKIAN GENETIC ALGORITHM (LGA), with a maximum of 25000000 energy evaluations.

Final-Value: -11.006


	FINAL GENETIC ALGORITHM DOCKED STATE
	_______________________________________________


Detailed state:  trans 13.000 -0.765 -8.631 quatxyzw 0.563395 0.483601 0.386591 -0.547050 center 0.153 0.018 -0.028 ntor 13 138.5275 -130.9404 112.0512 -102.0061 48.4221 -75.4827 -40.1785 33.8734 -161.5815 -128.0314 -87.1417 -176.8969 12.4102
State:	 13.000  -0.765  -8.631   0.673  0.578  0.462 -113.670    138.53 -130.94  112.05 -102.01   48.42  -75.48  -40.18   33.87 -161.58 -128.03  -87.14 -176.90   12.41

DOCKED: MODEL        2
DOCKED: USER    Run = 2
DOCKED: USER    DPF = D:/Protein_go_brrr/autodock/final/mut_N102T/heme/dock.dpf
DOCKED: USER  
DOCKED: USER    Estimated Free Energy of Binding    =   -5.38 kcal/mol  [=(1)+(2)+(3)-(4)]
DOCKED: USER    Estimated Inhibition Constant, Ki   =  114.52 uM (micromolar)  [Temperature = 298.15 K]
DOCKED: USER    
DOCKED: USER    (1) Final Intermolecular Energy     =   -9.25 kcal/mol
DOCKED: USER        vdW + Hbond + desolv Energy     =   -8.44 kcal/mol
DOCKED: USER        Electrostatic Energy            =   -0.82 kcal/mol
DOCKED: USER    (2) Final Total Internal Energy     =   -1.75 kcal/mol
DOCKED: USER    (3) Torsional Free Energy           =   +3.88 kcal/mol
DOCKED: USER    (4) Unbound System's Energy  [=(2)] =   -1.75 kcal/mol
DOCKED: USER    
DOCKED: USER    
DOCKED: USER    NEWDPF move heme_opt.pdbqt
DOCKED: USER    NEWDPF about 0.153000 0.018000 -0.028000
DOCKED: USER    NEWDPF tran0 13.000303 -0.764760 -8.630874
DOCKED: USER    NEWDPF quaternion0 0.563395 0.483601 0.386591 -0.547050
DOCKED: USER    NEWDPF axisangle0 0.673032 0.577710 0.461821 -113.670212
DOCKED: USER    NEWDPF quat0 0.673032 0.577710 0.461821 -113.670212
DOCKED: USER    NEWDPF dihe0 138.53 -130.94 112.05 -102.01 48.42 -75.48 -40.18 33.87 -161.58 -128.03 -87.14 -176.90 12.41 
DOCKED: USER  keepresnum = 1 
DOCKED: USER  
DOCKED: REMARK  13 active torsions:
DOCKED: REMARK  status: ('A' for Active; 'I' for Inactive)
DOCKED: REMARK    1  A    between atoms: O_3  and  C_38 
DOCKED: REMARK    2  A    between atoms: O_4  and  C_40 
DOCKED: REMARK    3  A    between atoms: O_7  and  C_46 
DOCKED: REMARK    4  A    between atoms: O_9  and  C_48 
DOCKED: REMARK    5  A    between atoms: C_15  and  C_20 
DOCKED: REMARK    6  A    between atoms: C_16  and  C_23 
DOCKED: REMARK    7  A    between atoms: C_20  and  C_38 
DOCKED: REMARK    8  A    between atoms: C_23  and  C_40 
DOCKED: REMARK    9  A    between atoms: C_32  and  C_41 
DOCKED: REMARK   10  A    between atoms: C_37  and  C_45 
DOCKED: REMARK   11  A    between atoms: C_41  and  C_44 
DOCKED: REMARK   12  A    between atoms: C_44  and  C_46 
DOCKED: REMARK   13  A    between atoms: C_47  and  C_48 
DOCKED: USER                              x       y       z     vdW  Elec       q    Type
DOCKED: USER                           _______ _______ _______ _____ _____    ______ ____
DOCKED: ROOT
DOCKED: ATOM      1  O   UNL d   1      12.522  -6.241  -6.500 -0.23 +0.27    -0.289 OA
DOCKED: ATOM      2  O   UNL d   1      10.266  -3.275 -13.020 -0.15 +0.01    -0.289 OA
DOCKED: ATOM      3  N   UNL d   1      12.906  -2.900  -7.265 -0.08 +0.03    -0.247 NA
DOCKED: ATOM      4  N   UNL d   1      12.021  -2.741 -10.097 -0.08 +0.03    -0.247 NA
DOCKED: ATOM      5  N   UNL d   1      13.195  -0.119 -10.220 -0.04 +0.05    -0.354 N 
DOCKED: ATOM      6  N   UNL d   1      14.127  -0.300  -7.287 -0.01 +0.03    -0.354 N 
DOCKED: ATOM      7  C   UNL d   1      13.623  -4.345  -5.420 -0.17 -0.05    +0.084 A 
DOCKED: ATOM      8  C   UNL d   1      10.432  -4.429 -10.867 -0.25 -0.01    +0.084 A 
DOCKED: ATOM      9  C   UNL d   1      11.348  -3.894  -9.762 -0.23 -0.01    +0.058 A 
DOCKED: ATOM     10  C   UNL d   1      13.599  -2.957  -6.067 -0.13 -0.01    +0.058 A 
DOCKED: ATOM     11  C   UNL d   1      12.807  -5.058  -6.455 -0.16 -0.11    +0.193 A 
DOCKED: ATOM     12  C   UNL d   1      12.410  -4.069  -7.507 -0.07 -0.02    +0.109 A 
DOCKED: ATOM     13  C   UNL d   1      10.738  -3.386 -11.905 -0.13 -0.01    +0.193 A 
DOCKED: ATOM     14  C   UNL d   1      15.032  -4.945  -5.400 -0.08 -0.01    +0.026 C 
DOCKED: ATOM     15  C   UNL d   1      11.517  -4.527  -8.590 -0.29 -0.01    +0.055 C 
DOCKED: ATOM     16  C   UNL d   1       8.953  -4.321 -10.482 -0.49 -0.00    +0.026 C 
DOCKED: ATOM     17  C   UNL d   1      11.720  -2.426 -11.316 -0.14 -0.01    +0.109 A 
DOCKED: ATOM     18  C   UNL d   1      14.135  -1.886  -5.453 -0.13 -0.01    +0.050 C 
DOCKED: ATOM     19  C   UNL d   1      14.087  -0.552  -5.934 -0.12 -0.00    +0.045 A 
DOCKED: ATOM     20  C   UNL d   1      12.919  -0.316 -11.548 -0.16 -0.00    +0.045 A 
DOCKED: ATOM     21  C   UNL d   1      12.240  -1.314 -12.124 -0.20 -0.00    +0.057 C 
DOCKED: ATOM     22  C   UNL d   1      14.123   1.612 -11.322 -0.14 +0.00    -0.019 A 
DOCKED: ATOM     23  C   UNL d   1      13.919   1.020  -9.985 -0.12 -0.01    +0.045 A 
DOCKED: ATOM     24  C   UNL d   1      13.528   0.817 -12.243 -0.12 +0.00    -0.022 A 
DOCKED: ATOM     25  C   UNL d   1      14.160   1.054  -7.525 -0.10 -0.01    +0.049 A 
DOCKED: ATOM     26  C   UNL d   1      14.056   0.668  -5.278 -0.14 +0.00    -0.018 A 
DOCKED: ATOM     27  C   UNL d   1      14.082   1.679  -6.288 -0.13 -0.00    +0.003 A 
DOCKED: ATOM     28  C   UNL d   1      14.360   1.559  -8.839 -0.11 -0.01    +0.052 C 
DOCKED: ATOM     29  C   UNL d   1      13.451   0.998 -13.721 +0.03 -0.00    +0.046 C 
DOCKED: ATOM     30  C   UNL d   1      14.003   0.886  -3.804 -0.20 -0.00    +0.046 C 
DOCKED: ATOM     31  H   UNL d   1      12.815  -0.732  -9.507 +0.06 -0.02    +0.166 HD
DOCKED: ATOM     32  H   UNL d   1      14.168  -1.027  -7.992 +0.04 -0.02    +0.166 HD
DOCKED: ENDROOT
DOCKED: BRANCH   7  33
DOCKED: ATOM     33  C   UNL d   1      12.953  -4.441  -4.045 -0.26 -0.13    +0.141 C 
DOCKED: BRANCH  33  34
DOCKED: ATOM     34  C   UNL d   1      13.931  -4.745  -2.943 -0.13 -0.26    +0.306 C 
DOCKED: ATOM     35  O   UNL d   1      14.380  -3.947  -2.138 -0.10 +0.10    -0.251 OA
DOCKED: BRANCH  34  36
DOCKED: ATOM     36  O   UNL d   1      14.290  -6.040  -2.912 -0.04 +0.62    -0.481 OA
DOCKED: ATOM     37  H   UNL d   1      13.451  -6.532  -3.032 -0.45 -0.87    +0.295 HD
DOCKED: ENDBRANCH  34  36
DOCKED: ENDBRANCH  33  34
DOCKED: ENDBRANCH   7  33
DOCKED: BRANCH  27  38
DOCKED: ATOM     38  C   UNL d   1      14.080   3.090  -6.044 -0.24 -0.00    +0.017 C 
DOCKED: ATOM     39  C   UNL d   1      14.758   3.708  -5.065 -0.29 -0.02    +0.092 C 
DOCKED: BRANCH  39  40
DOCKED: ATOM     40  C   UNL d   1      14.684   5.165  -4.933 -0.28 -0.11    +0.330 C 
DOCKED: ATOM     41  O   UNL d   1      15.261   6.003  -5.601 -0.20 +0.07    -0.246 OA
DOCKED: BRANCH  40  42
DOCKED: ATOM     42  O   UNL d   1      13.850   5.497  -3.936 -0.67 +0.25    -0.477 OA
DOCKED: ATOM     43  H   UNL d   1      14.143   4.936  -3.188 -0.14 -0.47    +0.295 HD
DOCKED: ENDBRANCH  40  42
DOCKED: ENDBRANCH  39  40
DOCKED: ENDBRANCH  27  38
DOCKED: BRANCH   8  44
DOCKED: ATOM     44  C   UNL d   1      10.768  -5.832 -11.384 -0.19 -0.01    +0.141 C 
DOCKED: BRANCH  44  45
DOCKED: ATOM     45  C   UNL d   1       9.872  -6.284 -12.505 -0.16 -0.02    +0.306 C 
DOCKED: ATOM     46  O   UNL d   1       8.775  -6.804 -12.394 -0.27 +0.03    -0.251 OA
DOCKED: BRANCH  45  47
DOCKED: ATOM     47  O   UNL d   1      10.420  -6.080 -13.717 -0.03 +0.01    -0.481 OA
DOCKED: ATOM     48  H   UNL d   1      10.433  -5.105 -13.822 +0.09 -0.01    +0.295 HD
DOCKED: ENDBRANCH  45  47
DOCKED: ENDBRANCH  44  45
DOCKED: ENDBRANCH   8  44
DOCKED: BRANCH  22  49
DOCKED: ATOM     49  C   UNL d   1      14.886   2.879 -11.575 -0.12 -0.01    +0.048 C 
DOCKED: BRANCH  49  50
DOCKED: ATOM     50  C   UNL d   1      14.127   4.109 -11.079 -0.13 -0.04    +0.125 C 
DOCKED: BRANCH  50  51
DOCKED: ATOM     51  C   UNL d   1      14.546   4.471  -9.682 -0.11 -0.07    +0.305 C 
DOCKED: ATOM     52  O   UNL d   1      15.620   4.257  -9.150 -0.03 +0.04    -0.251 OA
DOCKED: BRANCH  51  53
DOCKED: ATOM     53  O   UNL d   1      13.559   5.090  -9.004 -0.09 +0.18    -0.481 OA
DOCKED: ATOM     54  H   UNL d   1      12.956   4.363  -8.744 -0.30 -0.17    +0.295 HD
DOCKED: ENDBRANCH  51  53
DOCKED: ENDBRANCH  50  51
DOCKED: ENDBRANCH  49  50
DOCKED: ENDBRANCH  22  49
DOCKED: TORSDOF 13
DOCKED: TER
DOCKED: ENDMDL
________________________________________________________________________________


	BEGINNING GENETIC ALGORITHM DOCKING 3 of 100
Run: 3 Seed: 2135398484 1768065338 [ Run 3 of 100 GA/GALS ]
Beginning LAMARCKIAN GENETIC ALGORITHM (LGA), with a maximum of 25000000 energy evaluations.

Final-Value: -11.340


	FINAL GENETIC ALGORITHM DOCKED STATE
	_______________________________________________


Detailed state:  trans -9.361 -9.497 -0.719 quatxyzw 0.333119 0.504794 -0.497014 0.622248 center 0.153 0.018 -0.028 ntor 13 137.3838 6.3538 130.8864 135.1451 -134.0732 -18.6487 155.5411 -76.4263 25.3724 165.7320 -83.5763 95.2910 178.2466
State:	 -9.361  -9.497  -0.719   0.426  0.645 -0.635 103.039    137.38    6.35  130.89  135.15 -134.07  -18.65  155.54  -76.43   25.37  165.73  -83.58   95.29  178.25

DOCKED: MODEL        3
DOCKED: USER    Run = 3
DOCKED: USER    DPF = D:/Protein_go_brrr/autodock/final/mut_N102T/heme/dock.dpf
DOCKED: USER  
DOCKED: USER    Estimated Free Energy of Binding    =   -5.76 kcal/mol  [=(1)+(2)+(3)-(4)]
DOCKED: USER    Estimated Inhibition Constant, Ki   =   60.28 uM (micromolar)  [Temperature = 298.15 K]
DOCKED: USER    
DOCKED: USER    (1) Final Intermolecular Energy     =   -9.63 kcal/mol
DOCKED: USER        vdW + Hbond + desolv Energy     =   -8.85 kcal/mol
DOCKED: USER        Electrostatic Energy            =   -0.78 kcal/mol
DOCKED: USER    (2) Final Total Internal Energy     =   -1.71 kcal/mol
DOCKED: USER    (3) Torsional Free Energy           =   +3.88 kcal/mol
DOCKED: USER    (4) Unbound System's Energy  [=(2)] =   -1.71 kcal/mol
DOCKED: USER    
DOCKED: USER    
DOCKED: USER    NEWDPF move heme_opt.pdbqt
DOCKED: USER    NEWDPF about 0.153000 0.018000 -0.028000
DOCKED: USER    NEWDPF tran0 -9.361263 -9.497183 -0.719374
DOCKED: USER    NEWDPF quaternion0 0.333119 0.504794 -0.497014 0.622248
DOCKED: USER    NEWDPF axisangle0 0.425536 0.644841 -0.634901 103.039078
DOCKED: USER    NEWDPF quat0 0.425536 0.644841 -0.634901 103.039078
DOCKED: USER    NEWDPF dihe0 137.38 6.35 130.89 135.15 -134.07 -18.65 155.54 -76.43 25.37 165.73 -83.58 95.29 178.25 
DOCKED: USER  keepresnum = 1 
DOCKED: USER  
DOCKED: REMARK  13 active torsions:
DOCKED: REMARK  status: ('A' for Active; 'I' for Inactive)
DOCKED: REMARK    1  A    between atoms: O_3  and  C_38 
DOCKED: REMARK    2  A    between atoms: O_4  and  C_40 
DOCKED: REMARK    3  A    between atoms: O_7  and  C_46 
DOCKED: REMARK    4  A    between atoms: O_9  and  C_48 
DOCKED: REMARK    5  A    between atoms: C_15  and  C_20 
DOCKED: REMARK    6  A    between atoms: C_16  and  C_23 
DOCKED: REMARK    7  A    between atoms: C_20  and  C_38 
DOCKED: REMARK    8  A    between atoms: C_23  and  C_40 
DOCKED: REMARK    9  A    between atoms: C_32  and  C_41 
DOCKED: REMARK   10  A    between atoms: C_37  and  C_45 
DOCKED: REMARK   11  A    between atoms: C_41  and  C_44 
DOCKED: REMARK   12  A    between atoms: C_44  and  C_46 
DOCKED: REMARK   13  A    between atoms: C_47  and  C_48 
DOCKED: USER                              x       y       z     vdW  Elec       q    Type
DOCKED: USER                           _______ _______ _______ _____ _____    ______ ____
DOCKED: ROOT
DOCKED: ATOM      1  O   UNL d   1     -10.439 -14.432  -3.760 +0.00 -0.07    -0.289 OA
DOCKED: ATOM      2  O   UNL d   1      -6.469 -13.273   2.508 -0.39 +0.02    -0.289 OA
DOCKED: ATOM      3  N   UNL d   1      -9.967 -11.297  -2.400 -0.03 -0.02    -0.247 NA
DOCKED: ATOM      4  N   UNL d   1      -8.571 -11.867   0.160 -0.09 +0.01    -0.247 NA
DOCKED: ATOM      5  N   UNL d   1      -9.125  -9.160   0.957 +0.08 +0.10    -0.354 N 
DOCKED: ATOM      6  N   UNL d   1     -10.588  -8.584  -1.694 -0.06 +0.01    -0.354 N 
DOCKED: ATOM      7  C   UNL d   1     -11.294 -12.196  -4.255 -0.02 +0.01    +0.084 A 
DOCKED: ATOM      8  C   UNL d   1      -7.260 -13.925   0.285 -0.25 +0.02    +0.084 A 
DOCKED: ATOM      9  C   UNL d   1      -8.228 -13.028  -0.494 -0.17 +0.01    +0.058 A 
DOCKED: ATOM     10  C   UNL d   1     -10.861 -10.992  -3.413 -0.07 +0.01    +0.058 A 
DOCKED: ATOM     11  C   UNL d   1     -10.472 -13.233  -3.551 -0.02 +0.04    +0.193 A 
DOCKED: ATOM     12  C   UNL d   1      -9.693 -12.560  -2.463 -0.08 +0.02    +0.109 A 
DOCKED: ATOM     13  C   UNL d   1      -7.147 -13.075   1.519 -0.30 +0.01    +0.193 A 
DOCKED: ATOM     14  C   UNL d   1     -12.776 -12.526  -4.066 -0.00 +0.00    +0.026 C 
DOCKED: ATOM     15  C   UNL d   1      -8.735 -13.373  -1.688 -0.14 +0.01    +0.055 C 
DOCKED: ATOM     16  C   UNL d   1      -5.887 -13.999  -0.389 -0.31 +0.01    +0.026 C 
DOCKED: ATOM     17  C   UNL d   1      -7.995 -11.861   1.319 -0.28 -0.00    +0.109 A 
DOCKED: ATOM     18  C   UNL d   1     -11.262  -9.743  -3.714 -0.08 +0.01    +0.050 C 
DOCKED: ATOM     19  C   UNL d   1     -10.848  -8.562  -3.046 -0.10 +0.00    +0.045 A 
DOCKED: ATOM     20  C   UNL d   1      -8.662  -9.665   2.144 -0.25 -0.01    +0.045 A 
DOCKED: ATOM     21  C   UNL d   1      -8.115 -10.860   2.390 -0.36 -0.00    +0.057 C 
DOCKED: ATOM     22  C   UNL d   1      -9.454  -7.552   2.499 -0.22 +0.00    -0.019 A 
DOCKED: ATOM     23  C   UNL d   1      -9.623  -7.890   1.072 -0.17 -0.01    +0.045 A 
DOCKED: ATOM     24  C   UNL d   1      -8.883  -8.606   3.128 -0.26 +0.00    -0.022 A 
DOCKED: ATOM     25  C   UNL d   1     -10.292  -7.320  -1.239 -0.14 -0.00    +0.049 A 
DOCKED: ATOM     26  C   UNL d   1     -10.680  -7.259  -3.487 -0.11 -0.00    -0.018 A 
DOCKED: ATOM     27  C   UNL d   1     -10.310  -6.482  -2.345 -0.16 +0.00    +0.003 A 
DOCKED: ATOM     28  C   UNL d   1     -10.142  -7.063   0.151 -0.19 -0.00    +0.052 C 
DOCKED: ATOM     29  C   UNL d   1      -8.503  -8.742   4.564 -0.12 -0.01    +0.046 C 
DOCKED: ATOM     30  C   UNL d   1     -10.850  -6.762  -4.883 -0.08 +0.01    +0.046 C 
DOCKED: ATOM     31  H   UNL d   1      -9.018  -9.674   0.089 -0.40 -0.09    +0.166 HD
DOCKED: ATOM     32  H   UNL d   1     -10.653  -9.419  -1.124 -0.01 -0.01    +0.166 HD
DOCKED: ENDROOT
DOCKED: BRANCH   7  33
DOCKED: ATOM     33  C   UNL d   1     -10.918 -12.128  -5.739 -0.01 +0.02    +0.141 C 
DOCKED: BRANCH  33  34
DOCKED: ATOM     34  C   UNL d   1      -9.447 -12.343  -5.975 -0.02 +0.09    +0.306 C 
DOCKED: ATOM     35  O   UNL d   1      -8.566 -11.511  -5.835 -0.09 -0.09    -0.251 OA
DOCKED: BRANCH  34  36
DOCKED: ATOM     36  O   UNL d   1      -9.163 -13.596  -6.371 +0.02 -0.19    -0.481 OA
DOCKED: ATOM     37  H   UNL d   1      -9.685 -14.169  -5.770 +0.03 +0.10    +0.295 HD
DOCKED: ENDBRANCH  34  36
DOCKED: ENDBRANCH  33  34
DOCKED: ENDBRANCH   7  33
DOCKED: BRANCH  27  38
DOCKED: ATOM     38  C   UNL d   1     -10.055  -5.074  -2.353 -0.18 +0.00    +0.017 C 
DOCKED: ATOM     39  C   UNL d   1      -9.270  -4.434  -3.233 -0.22 +0.02    +0.092 C 
DOCKED: BRANCH  39  40
DOCKED: ATOM     40  C   UNL d   1      -9.104  -2.981  -3.142 -0.19 +0.11    +0.330 C 
DOCKED: ATOM     41  O   UNL d   1      -9.836  -2.182  -2.589 -0.88 -0.16    -0.246 OA
DOCKED: BRANCH  40  42
DOCKED: ATOM     42  O   UNL d   1      -7.979  -2.604  -3.769 -0.40 -0.11    -0.477 OA
DOCKED: ATOM     43  H   UNL d   1      -7.906  -1.649  -3.566 -0.06 +0.02    +0.295 HD
DOCKED: ENDBRANCH  40  42
DOCKED: ENDBRANCH  39  40
DOCKED: ENDBRANCH  27  38
DOCKED: BRANCH   8  44
DOCKED: ATOM     44  C   UNL d   1      -7.785 -15.323   0.628 -0.17 +0.04    +0.141 C 
DOCKED: BRANCH  44  45
DOCKED: ATOM     45  C   UNL d   1      -7.005 -16.429  -0.031 -0.10 +0.27    +0.306 C 
DOCKED: ATOM     46  O   UNL d   1      -6.282 -17.239   0.524 -0.18 -0.27    -0.251 OA
DOCKED: BRANCH  45  47
DOCKED: ATOM     47  O   UNL d   1      -7.156 -16.440  -1.367 -0.55 -0.66    -0.481 OA
DOCKED: ATOM     48  H   UNL d   1      -8.126 -16.402  -1.508 +0.06 +0.22    +0.295 HD
DOCKED: ENDBRANCH  45  47
DOCKED: ENDBRANCH  44  45
DOCKED: ENDBRANCH   8  44
DOCKED: BRANCH  22  49
DOCKED: ATOM     49  C   UNL d   1      -9.875  -6.249   3.113 -0.34 -0.03    +0.048 C 
DOCKED: BRANCH  49  50
DOCKED: ATOM     50  C   UNL d   1     -11.270  -6.335   3.730 -0.16 -0.08    +0.125 C 
DOCKED: BRANCH  50  51
DOCKED: ATOM     51  C   UNL d   1     -11.188  -6.586   5.209 -0.14 -0.19    +0.305 C 
DOCKED: ATOM     52  O   UNL d   1     -11.036  -7.654   5.775 -0.11 +0.09    -0.251 OA
DOCKED: BRANCH  51  53
DOCKED: ATOM     53  O   UNL d   1     -11.317  -5.448   5.921 -0.09 +0.44    -0.481 OA
DOCKED: ATOM     54  H   UNL d   1     -10.736  -4.810   5.457 -0.28 -0.53    +0.295 HD
DOCKED: ENDBRANCH  51  53
DOCKED: ENDBRANCH  50  51
DOCKED: ENDBRANCH  49  50
DOCKED: ENDBRANCH  22  49
DOCKED: TORSDOF 13
DOCKED: TER
DOCKED: ENDMDL
________________________________________________________________________________


	BEGINNING GENETIC ALGORITHM DOCKING 4 of 100
Run: 4 Seed: 830357721 744830777 [ Run 4 of 100 GA/GALS ]
Beginning LAMARCKIAN GENETIC ALGORITHM (LGA), with a maximum of 25000000 energy evaluations.

Final-Value: -11.629


	FINAL GENETIC ALGORITHM DOCKED STATE
	_______________________________________________


Detailed state:  trans 13.734 -4.747 3.733 quatxyzw -0.623418 -0.236412 0.491032 -0.560666 center 0.153 0.018 -0.028 ntor 13 -156.4161 154.4784 -166.6020 -69.3980 -144.1710 101.0239 140.9198 4.7842 180.0000 -5.2926 -76.6724 -121.9607 10.8713
State:	 13.734  -4.747   3.733  -0.753 -0.286  0.593 -111.796   -156.42  154.48 -166.60  -69.40 -144.17  101.02  140.92    4.78  180.00   -5.29  -76.67 -121.96   10.87

DOCKED: MODEL        4
DOCKED: USER    Run = 4
DOCKED: USER    DPF = D:/Protein_go_brrr/autodock/final/mut_N102T/heme/dock.dpf
DOCKED: USER  
DOCKED: USER    Estimated Free Energy of Binding    =   -3.87 kcal/mol  [=(1)+(2)+(3)-(4)]
DOCKED: USER    Estimated Inhibition Constant, Ki   =    1.45 mM (millimolar)  [Temperature = 298.15 K]
DOCKED: USER    
DOCKED: USER    (1) Final Intermolecular Energy     =   -7.75 kcal/mol
DOCKED: USER        vdW + Hbond + desolv Energy     =   -7.04 kcal/mol
DOCKED: USER        Electrostatic Energy            =   -0.71 kcal/mol
DOCKED: USER    (2) Final Total Internal Energy     =   -3.88 kcal/mol
DOCKED: USER    (3) Torsional Free Energy           =   +3.88 kcal/mol
DOCKED: USER    (4) Unbound System's Energy  [=(2)] =   -3.88 kcal/mol
DOCKED: USER    
DOCKED: USER    
DOCKED: USER    NEWDPF move heme_opt.pdbqt
DOCKED: USER    NEWDPF about 0.153000 0.018000 -0.028000
DOCKED: USER    NEWDPF tran0 13.733907 -4.747370 3.732941
DOCKED: USER    NEWDPF quaternion0 -0.623418 -0.236412 0.491032 -0.560666
DOCKED: USER    NEWDPF axisangle0 -0.752883 -0.285507 0.593004 -111.796209
DOCKED: USER    NEWDPF quat0 -0.752883 -0.285507 0.593004 -111.796209
DOCKED: USER    NEWDPF dihe0 -156.42 154.48 -166.60 -69.40 -144.17 101.02 140.92 4.78 180.00 -5.29 -76.67 -121.96 10.87 
DOCKED: USER  keepresnum = 1 
DOCKED: USER  
DOCKED: REMARK  13 active torsions:
DOCKED: REMARK  status: ('A' for Active; 'I' for Inactive)
DOCKED: REMARK    1  A    between atoms: O_3  and  C_38 
DOCKED: REMARK    2  A    between atoms: O_4  and  C_40 
DOCKED: REMARK    3  A    between atoms: O_7  and  C_46 
DOCKED: REMARK    4  A    between atoms: O_9  and  C_48 
DOCKED: REMARK    5  A    between atoms: C_15  and  C_20 
DOCKED: REMARK    6  A    between atoms: C_16  and  C_23 
DOCKED: REMARK    7  A    between atoms: C_20  and  C_38 
DOCKED: REMARK    8  A    between atoms: C_23  and  C_40 
DOCKED: REMARK    9  A    between atoms: C_32  and  C_41 
DOCKED: REMARK   10  A    between atoms: C_37  and  C_45 
DOCKED: REMARK   11  A    between atoms: C_41  and  C_44 
DOCKED: REMARK   12  A    between atoms: C_44  and  C_46 
DOCKED: REMARK   13  A    between atoms: C_47  and  C_48 
DOCKED: USER                              x       y       z     vdW  Elec       q    Type
DOCKED: USER                           _______ _______ _______ _____ _____    ______ ____
DOCKED: ROOT
DOCKED: ATOM      1  O   UNL d   1      10.455  -9.627   4.180 -0.10 -0.02    -0.289 OA
DOCKED: ATOM      2  O   UNL d   1      15.280  -6.473   8.993 -0.01 -0.13    -0.289 OA
DOCKED: ATOM      3  N   UNL d   1      12.275  -6.798   3.417 -0.06 -0.02    -0.247 NA
DOCKED: ATOM      4  N   UNL d   1      13.632  -6.147   5.979 -0.04 -0.17    -0.247 NA
DOCKED: ATOM      5  N   UNL d   1      14.282  -3.573   4.874 -0.08 -0.16    -0.354 N 
DOCKED: ATOM      6  N   UNL d   1      12.855  -4.250   2.226 -0.12 +0.00    -0.354 N 
DOCKED: ATOM      7  C   UNL d   1      10.492  -8.059   2.305 -0.18 -0.02    +0.084 A 
DOCKED: ATOM      8  C   UNL d   1      14.038  -7.991   7.529 -0.04 +0.03    +0.084 A 
DOCKED: ATOM      9  C   UNL d   1      13.412  -7.484   6.226 -0.07 +0.03    +0.058 A 
DOCKED: ATOM     10  C   UNL d   1      11.458  -6.871   2.301 -0.18 -0.01    +0.058 A 
DOCKED: ATOM     11  C   UNL d   1      10.920  -8.655   3.612 -0.08 +0.00    +0.193 A 
DOCKED: ATOM     12  C   UNL d   1      12.024  -7.815   4.175 -0.07 +0.02    +0.109 A 
DOCKED: ATOM     13  C   UNL d   1      14.621  -6.687   7.994 -0.05 +0.11    +0.193 A 
DOCKED: ATOM     14  C   UNL d   1       9.032  -7.612   2.419 -0.13 -0.00    +0.026 C 
DOCKED: ATOM     15  C   UNL d   1      12.672  -8.264   5.424 -0.07 +0.02    +0.055 C 
DOCKED: ATOM     16  C   UNL d   1      15.181  -8.976   7.265 -0.00 +0.00    +0.026 C 
DOCKED: ATOM     17  C   UNL d   1      14.299  -5.648   6.970 -0.07 +0.09    +0.109 A 
DOCKED: ATOM     18  C   UNL d   1      11.546  -6.039   1.246 -0.30 -0.02    +0.050 C 
DOCKED: ATOM     19  C   UNL d   1      12.466  -4.967   1.118 -0.27 -0.01    +0.045 A 
DOCKED: ATOM     20  C   UNL d   1      14.649  -3.369   6.178 -0.09 +0.03    +0.045 A 
DOCKED: ATOM     21  C   UNL d   1      14.709  -4.252   7.180 -0.09 +0.05    +0.057 C 
DOCKED: ATOM     22  C   UNL d   1      14.796  -1.388   5.051 -0.18 -0.01    -0.019 A 
DOCKED: ATOM     23  C   UNL d   1      14.338  -2.434   4.115 -0.16 +0.01    +0.045 A 
DOCKED: ATOM     24  C   UNL d   1      14.979  -1.947   6.270 -0.14 -0.01    -0.022 A 
DOCKED: ATOM     25  C   UNL d   1      13.675  -3.206   1.863 -0.22 +0.00    +0.049 A 
DOCKED: ATOM     26  C   UNL d   1      13.076  -4.399   0.011 -0.24 +0.01    -0.018 A 
DOCKED: ATOM     27  C   UNL d   1      13.854  -3.299   0.489 -0.20 -0.00    +0.003 A 
DOCKED: ATOM     28  C   UNL d   1      14.079  -2.231   2.814 -0.25 +0.01    +0.052 C 
DOCKED: ATOM     29  C   UNL d   1      15.444  -1.303   7.532 -0.09 +0.02    +0.046 C 
DOCKED: ATOM     30  C   UNL d   1      12.949  -4.848  -1.405 -0.21 -0.04    +0.046 C 
DOCKED: ATOM     31  H   UNL d   1      14.075  -4.503   4.525 +0.02 +0.07    +0.166 HD
DOCKED: ATOM     32  H   UNL d   1      12.537  -4.454   3.166 +0.05 +0.03    +0.166 HD
DOCKED: ENDROOT
DOCKED: BRANCH   7  33
DOCKED: ATOM     33  C   UNL d   1      10.684  -9.066   1.166 -0.18 -0.07    +0.141 C 
DOCKED: BRANCH  33  34
DOCKED: ATOM     34  C   UNL d   1       9.390  -9.425   0.486 -0.24 -0.14    +0.306 C 
DOCKED: ATOM     35  O   UNL d   1       8.643 -10.338   0.795 -0.30 +0.08    -0.251 OA
DOCKED: BRANCH  34  36
DOCKED: ATOM     36  O   UNL d   1       9.104  -8.612  -0.547 -0.20 +0.36    -0.481 OA
DOCKED: ATOM     37  H   UNL d   1       9.967  -8.219  -0.797 -0.41 -0.53    +0.295 HD
DOCKED: ENDBRANCH  34  36
DOCKED: ENDBRANCH  33  34
DOCKED: ENDBRANCH   7  33
DOCKED: BRANCH  27  38
DOCKED: ATOM     38  C   UNL d   1      14.638  -2.424  -0.330 -0.16 -0.00    +0.017 C 
DOCKED: ATOM     39  C   UNL d   1      14.226  -1.244  -0.818 -0.22 -0.00    +0.092 C 
DOCKED: BRANCH  39  40
DOCKED: ATOM     40  C   UNL d   1      15.135  -0.433  -1.632 -0.07 +0.01    +0.330 C 
DOCKED: ATOM     41  O   UNL d   1      15.174  -0.352  -2.845 -0.07 +0.01    -0.246 OA
DOCKED: BRANCH  40  42
DOCKED: ATOM     42  O   UNL d   1      15.967   0.261  -0.841 -0.03 -0.11    -0.477 OA
DOCKED: ATOM     43  H   UNL d   1      15.472   0.351  -0.000 +0.10 +0.09    +0.295 HD
DOCKED: ENDBRANCH  40  42
DOCKED: ENDBRANCH  39  40
DOCKED: ENDBRANCH  27  38
DOCKED: BRANCH   8  44
DOCKED: ATOM     44  C   UNL d   1      13.052  -8.551   8.560 -0.05 +0.06    +0.141 C 
DOCKED: BRANCH  44  45
DOCKED: ATOM     45  C   UNL d   1      11.957  -7.583   8.921 -0.06 +0.30    +0.306 C 
DOCKED: ATOM     46  O   UNL d   1      10.833  -7.549   8.450 -0.55 -0.26    -0.251 OA
DOCKED: BRANCH  45  47
DOCKED: ATOM     47  O   UNL d   1      12.346  -6.685   9.844 -0.28 -0.58    -0.481 OA
DOCKED: ATOM     48  H   UNL d   1      13.321  -6.781   9.887 +0.02 +0.24    +0.295 HD
DOCKED: ENDBRANCH  45  47
DOCKED: ENDBRANCH  44  45
DOCKED: ENDBRANCH   8  44
DOCKED: BRANCH  22  49
DOCKED: ATOM     49  C   UNL d   1      14.995   0.051   4.674 -0.25 +0.01    +0.048 C 
DOCKED: BRANCH  49  50
DOCKED: ATOM     50  C   UNL d   1      16.236   0.244   3.802 -0.12 +0.03    +0.125 C 
DOCKED: BRANCH  50  51
DOCKED: ATOM     51  C   UNL d   1      15.853   0.461   2.365 -0.06 +0.11    +0.305 C 
DOCKED: ATOM     52  O   UNL d   1      14.733   0.467   1.887 -0.23 -0.08    -0.251 OA
DOCKED: BRANCH  51  53
DOCKED: ATOM     53  O   UNL d   1      16.932   0.652   1.580 -0.01 -0.23    -0.481 OA
DOCKED: ATOM     54  H   UNL d   1      16.976  -0.161   1.034 +0.05 +0.08    +0.295 HD
DOCKED: ENDBRANCH  51  53
DOCKED: ENDBRANCH  50  51
DOCKED: ENDBRANCH  49  50
DOCKED: ENDBRANCH  22  49
DOCKED: TORSDOF 13
DOCKED: TER
DOCKED: ENDMDL
________________________________________________________________________________


	BEGINNING GENETIC ALGORITHM DOCKING 5 of 100
Run: 5 Seed: 1893693436 509087306 [ Run 5 of 100 GA/GALS ]
Beginning LAMARCKIAN GENETIC ALGORITHM (LGA), with a maximum of 25000000 energy evaluations.

Final-Value: -9.565


	FINAL GENETIC ALGORITHM DOCKED STATE
	_______________________________________________


Detailed state:  trans -5.041 -16.191 -15.826 quatxyzw 0.513042 -0.823410 0.198880 -0.138677 center 0.153 0.018 -0.028 ntor 13 174.3463 -14.8967 -170.8353 -126.3357 -151.9766 149.9615 136.7316 103.1430 13.1944 -172.6880 157.8009 8.8531 11.3491
State:	 -5.041 -16.191 -15.826   0.518 -0.831  0.201 -164.057    174.35  -14.90 -170.84 -126.34 -151.98  149.96  136.73  103.14   13.19 -172.69  157.80    8.85   11.35

DOCKED: MODEL        5
DOCKED: USER    Run = 5
DOCKED: USER    DPF = D:/Protein_go_brrr/autodock/final/mut_N102T/heme/dock.dpf
DOCKED: USER  
DOCKED: USER    Estimated Free Energy of Binding    =   -3.61 kcal/mol  [=(1)+(2)+(3)-(4)]
DOCKED: USER    Estimated Inhibition Constant, Ki   =    2.24 mM (millimolar)  [Temperature = 298.15 K]
DOCKED: USER    
DOCKED: USER    (1) Final Intermolecular Energy     =   -7.49 kcal/mol
DOCKED: USER        vdW + Hbond + desolv Energy     =   -7.14 kcal/mol
DOCKED: USER        Electrostatic Energy            =   -0.36 kcal/mol
DOCKED: USER    (2) Final Total Internal Energy     =   -2.07 kcal/mol
DOCKED: USER    (3) Torsional Free Energy           =   +3.88 kcal/mol
DOCKED: USER    (4) Unbound System's Energy  [=(2)] =   -2.07 kcal/mol
DOCKED: USER    
DOCKED: USER    
DOCKED: USER    NEWDPF move heme_opt.pdbqt
DOCKED: USER    NEWDPF about 0.153000 0.018000 -0.028000
DOCKED: USER    NEWDPF tran0 -5.040850 -16.190895 -15.825584
DOCKED: USER    NEWDPF quaternion0 0.513042 -0.823410 0.198880 -0.138677
DOCKED: USER    NEWDPF axisangle0 0.518047 -0.831444 0.200820 -164.057354
DOCKED: USER    NEWDPF quat0 0.518047 -0.831444 0.200820 -164.057354
DOCKED: USER    NEWDPF dihe0 174.35 -14.90 -170.84 -126.34 -151.98 149.96 136.73 103.14 13.19 -172.69 157.80 8.85 11.35 
DOCKED: USER  keepresnum = 1 
DOCKED: USER  
DOCKED: REMARK  13 active torsions:
DOCKED: REMARK  status: ('A' for Active; 'I' for Inactive)
DOCKED: REMARK    1  A    between atoms: O_3  and  C_38 
DOCKED: REMARK    2  A    between atoms: O_4  and  C_40 
DOCKED: REMARK    3  A    between atoms: O_7  and  C_46 
DOCKED: REMARK    4  A    between atoms: O_9  and  C_48 
DOCKED: REMARK    5  A    between atoms: C_15  and  C_20 
DOCKED: REMARK    6  A    between atoms: C_16  and  C_23 
DOCKED: REMARK    7  A    between atoms: C_20  and  C_38 
DOCKED: REMARK    8  A    between atoms: C_23  and  C_40 
DOCKED: REMARK    9  A    between atoms: C_32  and  C_41 
DOCKED: REMARK   10  A    between atoms: C_37  and  C_45 
DOCKED: REMARK   11  A    between atoms: C_41  and  C_44 
DOCKED: REMARK   12  A    between atoms: C_44  and  C_46 
DOCKED: REMARK   13  A    between atoms: C_47  and  C_48 
DOCKED: USER                              x       y       z     vdW  Elec       q    Type
DOCKED: USER                           _______ _______ _______ _____ _____    ______ ____
DOCKED: ROOT
DOCKED: ATOM      1  O   UNL d   1      -4.135 -11.398 -19.137 -0.20 +0.03    -0.289 OA
DOCKED: ATOM      2  O   UNL d   1       0.515 -15.262 -14.684 -0.11 -0.01    -0.289 OA
DOCKED: ATOM      3  N   UNL d   1      -5.164 -14.102 -17.259 -0.22 -0.03    -0.247 NA
DOCKED: ATOM      4  N   UNL d   1      -2.629 -15.132 -16.099 -0.57 -0.04    -0.247 NA
DOCKED: ATOM      5  N   UNL d   1      -4.046 -17.523 -15.363 +0.02 -0.02    -0.354 N 
DOCKED: ATOM      6  N   UNL d   1      -6.666 -16.456 -16.587 -0.08 -0.01    -0.354 N 
DOCKED: ATOM      7  C   UNL d   1      -6.211 -12.677 -18.956 -0.11 +0.00    +0.084 A 
DOCKED: ATOM      8  C   UNL d   1      -0.801 -13.536 -15.815 -0.25 +0.00    +0.084 A 
DOCKED: ATOM      9  C   UNL d   1      -2.207 -13.843 -16.339 -0.30 +0.00    +0.058 A 
DOCKED: ATOM     10  C   UNL d   1      -6.315 -13.860 -17.990 -0.13 +0.00    +0.058 A 
DOCKED: ATOM     11  C   UNL d   1      -4.802 -12.281 -18.629 -0.21 -0.01    +0.193 A 
DOCKED: ATOM     12  C   UNL d   1      -4.286 -13.204 -17.569 -0.26 +0.00    +0.109 A 
DOCKED: ATOM     13  C   UNL d   1      -0.488 -14.899 -15.266 -0.11 +0.01    +0.193 A 
DOCKED: ATOM     14  C   UNL d   1      -6.273 -13.122 -20.419 -0.07 -0.00    +0.026 C 
DOCKED: ATOM     15  C   UNL d   1      -2.941 -12.947 -17.018 -0.28 -0.00    +0.055 C 
DOCKED: ATOM     16  C   UNL d   1      -0.832 -12.535 -14.656 -0.42 +0.00    +0.026 C 
DOCKED: ATOM     17  C   UNL d   1      -1.674 -15.775 -15.508 -0.16 +0.01    +0.109 A 
DOCKED: ATOM     18  C   UNL d   1      -7.470 -14.531 -17.822 -0.11 +0.00    +0.050 C 
DOCKED: ATOM     19  C   UNL d   1      -7.684 -15.581 -16.893 -0.12 +0.00    +0.045 A 
DOCKED: ATOM     20  C   UNL d   1      -2.761 -17.919 -15.095 -0.14 +0.00    +0.045 A 
DOCKED: ATOM     21  C   UNL d   1      -1.639 -17.191 -15.113 -0.16 +0.00    +0.057 C 
DOCKED: ATOM     22  C   UNL d   1      -4.150 -19.716 -14.860 -0.09 -0.00    -0.019 A 
DOCKED: ATOM     23  C   UNL d   1      -4.955 -18.540 -15.248 -0.08 +0.00    +0.045 A 
DOCKED: ATOM     24  C   UNL d   1      -2.852 -19.341 -14.771 -0.11 -0.00    -0.022 A 
DOCKED: ATOM     25  C   UNL d   1      -7.115 -17.443 -15.741 -0.08 +0.00    +0.049 A 
DOCKED: ATOM     26  C   UNL d   1      -8.813 -15.989 -16.200 -0.10 -0.00    -0.018 A 
DOCKED: ATOM     27  C   UNL d   1      -8.443 -17.153 -15.459 -0.11 +0.00    +0.003 A 
DOCKED: ATOM     28  C   UNL d   1      -6.287 -18.550 -15.408 -0.10 +0.00    +0.052 C 
DOCKED: ATOM     29  C   UNL d   1      -1.666 -20.166 -14.402 -0.09 +0.00    +0.046 C 
DOCKED: ATOM     30  C   UNL d   1     -10.154 -15.337 -16.221 -0.05 +0.00    +0.046 C 
DOCKED: ATOM     31  H   UNL d   1      -4.270 -16.551 -15.545 +0.03 +0.02    +0.166 HD
DOCKED: ATOM     32  H   UNL d   1      -5.733 -16.388 -16.976 +0.02 +0.01    +0.166 HD
DOCKED: ENDROOT
DOCKED: BRANCH   7  33
DOCKED: ATOM     33  C   UNL d   1      -7.173 -11.517 -18.680 -0.13 +0.01    +0.141 C 
DOCKED: BRANCH  33  34
DOCKED: ATOM     34  C   UNL d   1      -6.962 -10.898 -17.325 -0.19 +0.05    +0.306 C 
DOCKED: ATOM     35  O   UNL d   1      -7.601 -11.140 -16.315 -0.18 -0.06    -0.251 OA
DOCKED: BRANCH  34  36
DOCKED: ATOM     36  O   UNL d   1      -5.953 -10.009 -17.313 -0.27 -0.03    -0.481 OA
DOCKED: ATOM     37  H   UNL d   1      -5.530 -10.103 -18.193 +0.13 -0.01    +0.295 HD
DOCKED: ENDBRANCH  34  36
DOCKED: ENDBRANCH  33  34
DOCKED: ENDBRANCH   7  33
DOCKED: BRANCH  27  38
DOCKED: ATOM     38  C   UNL d   1      -9.319 -17.907 -14.614 -0.07 +0.00    +0.017 C 
DOCKED: ATOM     39  C   UNL d   1      -9.019 -18.345 -13.381 -0.08 +0.01    +0.092 C 
DOCKED: BRANCH  39  40
DOCKED: ATOM     40  C   UNL d   1     -10.015 -19.094 -12.611 -0.01 +0.03    +0.330 C 
DOCKED: ATOM     41  O   UNL d   1      -9.817 -19.979 -11.800 -0.00 -0.02    -0.246 OA
DOCKED: BRANCH  40  42
DOCKED: ATOM     42  O   UNL d   1     -11.251 -18.663 -12.910 +0.01 -0.03    -0.477 OA
DOCKED: ATOM     43  H   UNL d   1     -11.836 -19.362 -12.553 +0.01 +0.02    +0.295 HD
DOCKED: ENDBRANCH  40  42
DOCKED: ENDBRANCH  39  40
DOCKED: ENDBRANCH  27  38
DOCKED: BRANCH   8  44
DOCKED: ATOM     44  C   UNL d   1       0.224 -13.123 -16.876 -0.17 +0.01    +0.141 C 
DOCKED: BRANCH  44  45
DOCKED: ATOM     45  C   UNL d   1       1.097 -11.975 -16.445 -0.19 +0.09    +0.306 C 
DOCKED: ATOM     46  O   UNL d   1       2.184 -12.053 -15.899 -0.40 -0.20    -0.251 OA
DOCKED: BRANCH  45  47
DOCKED: ATOM     47  O   UNL d   1       0.537 -10.778 -16.702 -0.19 -0.05    -0.481 OA
DOCKED: ATOM     48  H   UNL d   1      -0.376 -10.989 -16.991 -0.29 -0.12    +0.295 HD
DOCKED: ENDBRANCH  45  47
DOCKED: ENDBRANCH  44  45
DOCKED: ENDBRANCH   8  44
DOCKED: BRANCH  22  49
DOCKED: ATOM     49  C   UNL d   1      -4.717 -21.087 -14.631 -0.04 +0.00    +0.048 C 
DOCKED: BRANCH  49  50
DOCKED: ATOM     50  C   UNL d   1      -5.522 -21.159 -13.334 -0.04 +0.01    +0.125 C 
DOCKED: BRANCH  50  51
DOCKED: ATOM     51  C   UNL d   1      -5.126 -20.056 -12.394 -0.09 +0.04    +0.305 C 
DOCKED: ATOM     52  O   UNL d   1      -5.677 -18.981 -12.236 -0.15 -0.05    -0.251 OA
DOCKED: BRANCH  51  53
DOCKED: ATOM     53  O   UNL d   1      -4.018 -20.366 -11.691 -0.05 -0.07    -0.481 OA
DOCKED: ATOM     54  H   UNL d   1      -3.363 -20.614 -12.376 +0.03 +0.03    +0.295 HD
DOCKED: ENDBRANCH  51  53
DOCKED: ENDBRANCH  50  51
DOCKED: ENDBRANCH  49  50
DOCKED: ENDBRANCH  22  49
DOCKED: TORSDOF 13
DOCKED: TER
DOCKED: ENDMDL
________________________________________________________________________________


	BEGINNING GENETIC ALGORITHM DOCKING 6 of 100
Run: 6 Seed: 43439959 1683843054 [ Run 6 of 100 GA/GALS ]
Beginning LAMARCKIAN GENETIC ALGORITHM (LGA), with a maximum of 25000000 energy evaluations.

Final-Value: -12.718


	FINAL GENETIC ALGORITHM DOCKED STATE
	_______________________________________________


Detailed state:  trans 13.224 -2.351 -6.499 quatxyzw -0.319782 -0.498994 0.397658 -0.700438 center 0.153 0.018 -0.028 ntor 13 -98.9130 140.7239 165.2428 -135.3507 24.1353 50.3103 -53.0550 -90.1119 127.2233 -118.4095 -100.6354 -37.7198 -12.7700
State:	 13.224  -2.351  -6.499  -0.448 -0.699  0.557 -91.076    -98.91  140.72  165.24 -135.35   24.14   50.31  -53.06  -90.11  127.22 -118.41 -100.64  -37.72  -12.77

DOCKED: MODEL        6
DOCKED: USER    Run = 6
DOCKED: USER    DPF = D:/Protein_go_brrr/autodock/final/mut_N102T/heme/dock.dpf
DOCKED: USER  
DOCKED: USER    Estimated Free Energy of Binding    =   -4.98 kcal/mol  [=(1)+(2)+(3)-(4)]
DOCKED: USER    Estimated Inhibition Constant, Ki   =  223.81 uM (micromolar)  [Temperature = 298.15 K]
DOCKED: USER    
DOCKED: USER    (1) Final Intermolecular Energy     =   -8.86 kcal/mol
DOCKED: USER        vdW + Hbond + desolv Energy     =   -8.32 kcal/mol
DOCKED: USER        Electrostatic Energy            =   -0.54 kcal/mol
DOCKED: USER    (2) Final Total Internal Energy     =   -3.86 kcal/mol
DOCKED: USER    (3) Torsional Free Energy           =   +3.88 kcal/mol
DOCKED: USER    (4) Unbound System's Energy  [=(2)] =   -3.86 kcal/mol
DOCKED: USER    
DOCKED: USER    
DOCKED: USER    NEWDPF move heme_opt.pdbqt
DOCKED: USER    NEWDPF about 0.153000 0.018000 -0.028000
DOCKED: USER    NEWDPF tran0 13.224028 -2.351170 -6.498521
DOCKED: USER    NEWDPF quaternion0 -0.319782 -0.498994 0.397658 -0.700438
DOCKED: USER    NEWDPF axisangle0 -0.448054 -0.699151 0.557167 -91.075759
DOCKED: USER    NEWDPF quat0 -0.448054 -0.699151 0.557167 -91.075759
DOCKED: USER    NEWDPF dihe0 -98.91 140.72 165.24 -135.35 24.14 50.31 -53.06 -90.11 127.22 -118.41 -100.64 -37.72 -12.77 
DOCKED: USER  keepresnum = 1 
DOCKED: USER  
DOCKED: REMARK  13 active torsions:
DOCKED: REMARK  status: ('A' for Active; 'I' for Inactive)
DOCKED: REMARK    1  A    between atoms: O_3  and  C_38 
DOCKED: REMARK    2  A    between atoms: O_4  and  C_40 
DOCKED: REMARK    3  A    between atoms: O_7  and  C_46 
DOCKED: REMARK    4  A    between atoms: O_9  and  C_48 
DOCKED: REMARK    5  A    between atoms: C_15  and  C_20 
DOCKED: REMARK    6  A    between atoms: C_16  and  C_23 
DOCKED: REMARK    7  A    between atoms: C_20  and  C_38 
DOCKED: REMARK    8  A    between atoms: C_23  and  C_40 
DOCKED: REMARK    9  A    between atoms: C_32  and  C_41 
DOCKED: REMARK   10  A    between atoms: C_37  and  C_45 
DOCKED: REMARK   11  A    between atoms: C_41  and  C_44 
DOCKED: REMARK   12  A    between atoms: C_44  and  C_46 
DOCKED: REMARK   13  A    between atoms: C_47  and  C_48 
DOCKED: USER                              x       y       z     vdW  Elec       q    Type
DOCKED: USER                           _______ _______ _______ _____ _____    ______ ____
DOCKED: ROOT
DOCKED: ATOM      1  O   UNL d   1      11.162  -6.425 -10.228 -0.04 +0.04    -0.289 OA
DOCKED: ATOM      2  O   UNL d   1      15.389  -7.082  -4.056 -0.06 +0.22    -0.289 OA
DOCKED: ATOM      3  N   UNL d   1      12.253  -3.703  -8.412 -0.12 +0.04    -0.247 NA
DOCKED: ATOM      4  N   UNL d   1      13.557  -4.939  -6.046 -0.11 +0.15    -0.247 NA
DOCKED: ATOM      5  N   UNL d   1      13.550  -2.346  -4.803 -0.08 +0.06    -0.354 N 
DOCKED: ATOM      6  N   UNL d   1      12.179  -1.076  -7.255 -0.11 -0.00    -0.354 N 
DOCKED: ATOM      7  C   UNL d   1      10.746  -4.018 -10.320 -0.25 -0.01    +0.084 A 
DOCKED: ATOM      8  C   UNL d   1      14.449  -7.198  -6.313 -0.08 -0.06    +0.084 A 
DOCKED: ATOM      9  C   UNL d   1      13.659  -6.020  -6.892 -0.14 -0.03    +0.058 A 
DOCKED: ATOM     10  C   UNL d   1      11.418  -3.073  -9.319 -0.25 -0.01    +0.058 A 
DOCKED: ATOM     11  C   UNL d   1      11.365  -5.293  -9.830 -0.17 -0.03    +0.193 A 
DOCKED: ATOM     12  C   UNL d   1      12.278  -4.966  -8.688 -0.17 -0.02    +0.109 A 
DOCKED: ATOM     13  C   UNL d   1      14.745  -6.600  -4.967 -0.00 -0.18    +0.193 A 
DOCKED: ATOM     14  C   UNL d   1       9.231  -4.091 -10.113 -0.52 -0.00    +0.026 C 
DOCKED: ATOM     15  C   UNL d   1      13.074  -6.062  -8.099 -0.19 -0.02    +0.055 C 
DOCKED: ATOM     16  C   UNL d   1      15.770  -7.416  -7.056 -0.03 -0.01    +0.026 C 
DOCKED: ATOM     17  C   UNL d   1      14.143  -5.232  -4.930 -0.08 -0.09    +0.109 A 
DOCKED: ATOM     18  C   UNL d   1      11.260  -1.738  -9.398 -0.11 -0.01    +0.050 C 
DOCKED: ATOM     19  C   UNL d   1      11.906  -0.783  -8.572 -0.27 -0.01    +0.045 A 
DOCKED: ATOM     20  C   UNL d   1      13.928  -3.117  -3.735 -0.18 -0.01    +0.045 A 
DOCKED: ATOM     21  C   UNL d   1      14.237  -4.418  -3.709 -0.18 -0.04    +0.057 C 
DOCKED: ATOM     22  C   UNL d   1      13.564  -0.982  -3.011 -0.23 +0.00    -0.019 A 
DOCKED: ATOM     23  C   UNL d   1      13.308  -1.041  -4.464 -0.24 -0.00    +0.045 A 
DOCKED: ATOM     24  C   UNL d   1      13.932  -2.214  -2.586 -0.16 +0.00    -0.022 A 
DOCKED: ATOM     25  C   UNL d   1      12.722   0.017  -6.620 -0.15 -0.00    +0.049 A 
DOCKED: ATOM     26  C   UNL d   1      12.314   0.520  -8.808 -0.30 +0.00    -0.018 A 
DOCKED: ATOM     27  C   UNL d   1      12.847   1.014  -7.577 -0.20 -0.00    +0.003 A 
DOCKED: ATOM     28  C   UNL d   1      12.943   0.009  -5.216 -0.10 -0.00    +0.052 C 
DOCKED: ATOM     29  C   UNL d   1      14.303  -2.654  -1.211 -0.17 -0.01    +0.046 C 
DOCKED: ATOM     30  C   UNL d   1      12.219   1.264 -10.098 -0.39 -0.01    +0.046 C 
DOCKED: ATOM     31  H   UNL d   1      13.541  -2.720  -5.746 +0.05 -0.03    +0.166 HD
DOCKED: ATOM     32  H   UNL d   1      11.964  -1.966  -6.823 +0.10 +0.01    +0.166 HD
DOCKED: ENDROOT
DOCKED: BRANCH   7  33
DOCKED: ATOM     33  C   UNL d   1      11.103  -3.778 -11.791 -0.15 -0.01    +0.141 C 
DOCKED: BRANCH  33  34
DOCKED: ATOM     34  C   UNL d   1      10.509  -4.814 -12.707 -0.09 -0.02    +0.306 C 
DOCKED: ATOM     35  O   UNL d   1       9.352  -4.857 -13.091 -0.17 +0.01    -0.251 OA
DOCKED: BRANCH  34  36
DOCKED: ATOM     36  O   UNL d   1      11.405  -5.740 -13.092 -0.00 +0.02    -0.481 OA
DOCKED: ATOM     37  H   UNL d   1      11.479  -6.346 -12.325 +0.08 -0.02    +0.295 HD
DOCKED: ENDBRANCH  34  36
DOCKED: ENDBRANCH  33  34
DOCKED: ENDBRANCH   7  33
DOCKED: BRANCH  27  38
DOCKED: ATOM     38  C   UNL d   1      13.369   2.332  -7.374 -0.23 -0.00    +0.017 C 
DOCKED: ATOM     39  C   UNL d   1      13.850   2.803  -6.213 -0.16 -0.01    +0.092 C 
DOCKED: BRANCH  39  40
DOCKED: ATOM     40  C   UNL d   1      14.374   4.170  -6.141 -0.20 -0.04    +0.330 C 
DOCKED: ATOM     41  O   UNL d   1      13.852   5.189  -6.552 -0.70 +0.02    -0.246 OA
DOCKED: BRANCH  40  42
DOCKED: ATOM     42  O   UNL d   1      15.566   4.176  -5.525 -0.03 +0.09    -0.477 OA
DOCKED: ATOM     43  H   UNL d   1      15.459   3.525  -4.800 +0.10 -0.06    +0.295 HD
DOCKED: ENDBRANCH  40  42
DOCKED: ENDBRANCH  39  40
DOCKED: ENDBRANCH  27  38
DOCKED: BRANCH   8  44
DOCKED: ATOM     44  C   UNL d   1      13.669  -8.510  -6.171 -0.13 -0.11    +0.141 C 
DOCKED: BRANCH  44  45
DOCKED: ATOM     45  C   UNL d   1      14.389  -9.542  -5.345 -0.07 -0.18    +0.306 C 
DOCKED: ATOM     46  O   UNL d   1      15.073 -10.460  -5.763 -0.04 +0.08    -0.251 OA
DOCKED: BRANCH  45  47
DOCKED: ATOM     47  O   UNL d   1      14.185  -9.379  -4.025 -0.06 +0.46    -0.481 OA
DOCKED: ATOM     48  H   UNL d   1      13.822  -8.472  -3.941 -0.26 -0.56    +0.295 HD
DOCKED: ENDBRANCH  45  47
DOCKED: ENDBRANCH  44  45
DOCKED: ENDBRANCH   8  44
DOCKED: BRANCH  22  49
DOCKED: ATOM     49  C   UNL d   1      13.413   0.258  -2.179 -0.28 -0.00    +0.048 C 
DOCKED: BRANCH  49  50
DOCKED: ATOM     50  C   UNL d   1      14.746   0.981  -1.989 -0.24 +0.00    +0.125 C 
DOCKED: BRANCH  50  51
DOCKED: ATOM     51  C   UNL d   1      15.085   1.807  -3.197 -0.16 -0.04    +0.305 C 
DOCKED: ATOM     52  O   UNL d   1      15.805   1.498  -4.131 -0.07 +0.02    -0.251 OA
DOCKED: BRANCH  51  53
DOCKED: ATOM     53  O   UNL d   1      14.495   3.018  -3.162 -0.15 +0.27    -0.481 OA
DOCKED: ATOM     54  H   UNL d   1      14.631   3.323  -2.241 -0.39 -0.39    +0.295 HD
DOCKED: ENDBRANCH  51  53
DOCKED: ENDBRANCH  50  51
DOCKED: ENDBRANCH  49  50
DOCKED: ENDBRANCH  22  49
DOCKED: TORSDOF 13
DOCKED: TER
DOCKED: ENDMDL
________________________________________________________________________________


	BEGINNING GENETIC ALGORITHM DOCKING 7 of 100
Run: 7 Seed: 606399052 259357469 [ Run 7 of 100 GA/GALS ]
Beginning LAMARCKIAN GENETIC ALGORITHM (LGA), with a maximum of 25000000 energy evaluations.

Final-Value: -13.679


	FINAL GENETIC ALGORITHM DOCKED STATE
	_______________________________________________


Detailed state:  trans 11.346 9.736 -12.860 quatxyzw -0.639201 0.022191 0.237572 0.731088 center 0.153 0.018 -0.028 ntor 13 104.7818 173.7547 -174.6051 -61.8466 20.6110 15.3334 -64.6144 -86.3527 -11.5331 -158.8403 -108.0060 -13.5906 -10.0647
State:	 11.346   9.736 -12.860  -0.937  0.033  0.348 86.045    104.78  173.75 -174.61  -61.85   20.61   15.33  -64.61  -86.35  -11.53 -158.84 -108.01  -13.59  -10.06

DOCKED: MODEL        7
DOCKED: USER    Run = 7
DOCKED: USER    DPF = D:/Protein_go_brrr/autodock/final/mut_N102T/heme/dock.dpf
DOCKED: USER  
DOCKED: USER    Estimated Free Energy of Binding    =   -5.74 kcal/mol  [=(1)+(2)+(3)-(4)]
DOCKED: USER    Estimated Inhibition Constant, Ki   =   61.99 uM (micromolar)  [Temperature = 298.15 K]
DOCKED: USER    
DOCKED: USER    (1) Final Intermolecular Energy     =   -9.62 kcal/mol
DOCKED: USER        vdW + Hbond + desolv Energy     =   -8.85 kcal/mol
DOCKED: USER        Electrostatic Energy            =   -0.76 kcal/mol
DOCKED: USER    (2) Final Total Internal Energy     =   -4.06 kcal/mol
DOCKED: USER    (3) Torsional Free Energy           =   +3.88 kcal/mol
DOCKED: USER    (4) Unbound System's Energy  [=(2)] =   -4.06 kcal/mol
DOCKED: USER    
DOCKED: USER    
DOCKED: USER    NEWDPF move heme_opt.pdbqt
DOCKED: USER    NEWDPF about 0.153000 0.018000 -0.028000
DOCKED: USER    NEWDPF tran0 11.345741 9.736385 -12.859638
DOCKED: USER    NEWDPF quaternion0 -0.639201 0.022191 0.237572 0.731088
DOCKED: USER    NEWDPF axisangle0 -0.936855 0.032525 0.348201 86.044615
DOCKED: USER    NEWDPF quat0 -0.936855 0.032525 0.348201 86.044615
DOCKED: USER    NEWDPF dihe0 104.78 173.75 -174.61 -61.85 20.61 15.33 -64.61 -86.35 -11.53 -158.84 -108.01 -13.59 -10.06 
DOCKED: USER  keepresnum = 1 
DOCKED: USER  
DOCKED: REMARK  13 active torsions:
DOCKED: REMARK  status: ('A' for Active; 'I' for Inactive)
DOCKED: REMARK    1  A    between atoms: O_3  and  C_38 
DOCKED: REMARK    2  A    between atoms: O_4  and  C_40 
DOCKED: REMARK    3  A    between atoms: O_7  and  C_46 
DOCKED: REMARK    4  A    between atoms: O_9  and  C_48 
DOCKED: REMARK    5  A    between atoms: C_15  and  C_20 
DOCKED: REMARK    6  A    between atoms: C_16  and  C_23 
DOCKED: REMARK    7  A    between atoms: C_20  and  C_38 
DOCKED: REMARK    8  A    between atoms: C_23  and  C_40 
DOCKED: REMARK    9  A    between atoms: C_32  and  C_41 
DOCKED: REMARK   10  A    between atoms: C_37  and  C_45 
DOCKED: REMARK   11  A    between atoms: C_41  and  C_44 
DOCKED: REMARK   12  A    between atoms: C_44  and  C_46 
DOCKED: REMARK   13  A    between atoms: C_47  and  C_48 
DOCKED: USER                              x       y       z     vdW  Elec       q    Type
DOCKED: USER                           _______ _______ _______ _____ _____    ______ ____
DOCKED: ROOT
DOCKED: ATOM      1  O   UNL d   1       6.695  11.364  -9.623 -0.45 +0.07    -0.289 OA
DOCKED: ATOM      2  O   UNL d   1       7.976  11.855 -17.006 -0.09 +0.19    -0.289 OA
DOCKED: ATOM      3  N   UNL d   1       9.668  10.388 -11.072 -0.16 +0.08    -0.247 NA
DOCKED: ATOM      4  N   UNL d   1       9.133  10.661 -13.982 -0.15 +0.05    -0.247 NA
DOCKED: ATOM      5  N   UNL d   1      11.526   9.144 -14.471 -0.11 +0.01    -0.354 N 
DOCKED: ATOM      6  N   UNL d   1      12.063   8.848 -11.450 +0.01 +0.12    -0.354 N 
DOCKED: ATOM      7  C   UNL d   1       8.718  10.254  -8.817 -0.43 -0.03    +0.084 A 
DOCKED: ATOM      8  C   UNL d   1       7.430  12.279 -14.658 -0.16 -0.04    +0.084 A 
DOCKED: ATOM      9  C   UNL d   1       8.167  11.537 -13.538 -0.19 -0.02    +0.058 A 
DOCKED: ATOM     10  C   UNL d   1       9.879   9.962  -9.771 -0.30 -0.02    +0.058 A 
DOCKED: ATOM     11  C   UNL d   1       7.820  10.937  -9.805 -0.30 -0.06    +0.193 A 
DOCKED: ATOM     12  C   UNL d   1       8.519  10.979 -11.128 -0.24 -0.03    +0.109 A 
DOCKED: ATOM     13  C   UNL d   1       8.130  11.634 -15.821 -0.12 -0.10    +0.193 A 
DOCKED: ATOM     14  C   UNL d   1       8.036   8.972  -8.332 -0.58 -0.00    +0.026 C 
DOCKED: ATOM     15  C   UNL d   1       7.861  11.692 -12.241 -0.27 -0.02    +0.055 C 
DOCKED: ATOM     16  C   UNL d   1       7.754  13.776 -14.657 -0.08 -0.01    +0.026 C 
DOCKED: ATOM     17  C   UNL d   1       9.132  10.669 -15.276 -0.19 -0.02    +0.109 A 
DOCKED: ATOM     18  C   UNL d   1      11.030   9.419  -9.332 -0.15 -0.01    +0.050 C 
DOCKED: ATOM     19  C   UNL d   1      12.186   9.190 -10.122 -0.22 -0.01    +0.045 A 
DOCKED: ATOM     20  C   UNL d   1      11.003   9.174 -15.738 -0.12 +0.00    +0.045 A 
DOCKED: ATOM     21  C   UNL d   1       9.944   9.853 -16.191 -0.17 +0.01    +0.057 C 
DOCKED: ATOM     22  C   UNL d   1      12.820   7.790 -15.722 -0.16 -0.00    -0.019 A 
DOCKED: ATOM     23  C   UNL d   1      12.625   8.335 -14.363 -0.18 -0.00    +0.045 A 
DOCKED: ATOM     24  C   UNL d   1      11.857   8.291 -16.531 -0.13 -0.00    -0.022 A 
DOCKED: ATOM     25  C   UNL d   1      13.298   8.586 -11.997 -0.16 -0.01    +0.049 A 
DOCKED: ATOM     26  C   UNL d   1      13.536   9.186  -9.809 -0.18 +0.00    -0.018 A 
DOCKED: ATOM     27  C   UNL d   1      14.235   8.823 -11.001 -0.09 -0.00    +0.003 A 
DOCKED: ATOM     28  C   UNL d   1      13.415   8.061 -13.313 -0.19 -0.01    +0.052 C 
DOCKED: ATOM     29  C   UNL d   1      11.641   8.048 -17.986 -0.13 +0.01    +0.046 C 
DOCKED: ATOM     30  C   UNL d   1      14.143   9.502  -8.484 -0.15 -0.01    +0.046 C 
DOCKED: ATOM     31  H   UNL d   1      11.157   9.738 -13.736 +0.04 -0.02    +0.166 HD
DOCKED: ATOM     32  H   UNL d   1      11.173   8.766 -11.928 -0.52 -0.09    +0.166 HD
DOCKED: ENDROOT
DOCKED: BRANCH   7  33
DOCKED: ATOM     33  C   UNL d   1       9.046  11.192  -7.650 -0.29 -0.12    +0.141 C 
DOCKED: BRANCH  33  34
DOCKED: ATOM     34  C   UNL d   1      10.012  12.280  -8.036 -0.08 -0.31    +0.306 C 
DOCKED: ATOM     35  O   UNL d   1       9.756  13.267  -8.705 -0.10 +0.17    -0.251 OA
DOCKED: BRANCH  34  36
DOCKED: ATOM     36  O   UNL d   1      11.250  12.069  -7.555 -0.23 +0.53    -0.481 OA
DOCKED: ATOM     37  H   UNL d   1      11.195  12.327  -6.610 -0.49 -0.76    +0.295 HD
DOCKED: ENDBRANCH  34  36
DOCKED: ENDBRANCH  33  34
DOCKED: ENDBRANCH   7  33
DOCKED: BRANCH  27  38
DOCKED: ATOM     38  C   UNL d   1      15.655   8.684 -11.116 -0.04 -0.00    +0.017 C 
DOCKED: ATOM     39  C   UNL d   1      16.353   8.779 -12.258 -0.01 -0.01    +0.092 C 
DOCKED: BRANCH  39  40
DOCKED: ATOM     40  C   UNL d   1      17.811   8.634 -12.237 -0.00 -0.02    +0.330 C 
DOCKED: ATOM     41  O   UNL d   1      18.503   8.212 -11.331 +0.00 +0.02    -0.246 OA
DOCKED: BRANCH  40  42
DOCKED: ATOM     42  O   UNL d   1      18.331   9.034 -13.408 +0.00 +0.03    -0.477 OA
DOCKED: ATOM     43  H   UNL d   1      17.546   9.210 -13.966 +0.00 -0.02    +0.295 HD
DOCKED: ENDBRANCH  40  42
DOCKED: ENDBRANCH  39  40
DOCKED: ENDBRANCH  27  38
DOCKED: BRANCH   8  44
DOCKED: ATOM     44  C   UNL d   1       5.918  12.038 -14.726 -0.27 -0.11    +0.141 C 
DOCKED: BRANCH  44  45
DOCKED: ATOM     45  C   UNL d   1       5.158  13.200 -15.307 -0.17 -0.20    +0.306 C 
DOCKED: ATOM     46  O   UNL d   1       4.425  13.964 -14.703 -0.21 +0.10    -0.251 OA
DOCKED: BRANCH  45  47
DOCKED: ATOM     47  O   UNL d   1       5.339  13.321 -16.634 -0.00 +0.42    -0.481 OA
DOCKED: ATOM     48  H   UNL d   1       5.884  12.544 -16.882 -0.48 -0.53    +0.295 HD
DOCKED: ENDBRANCH  45  47
DOCKED: ENDBRANCH  44  45
DOCKED: ENDBRANCH   8  44
DOCKED: BRANCH  22  49
DOCKED: ATOM     49  C   UNL d   1      13.909   6.827 -16.095 -0.11 -0.00    +0.048 C 
DOCKED: BRANCH  49  50
DOCKED: ATOM     50  C   UNL d   1      15.145   7.548 -16.633 -0.02 -0.00    +0.125 C 
DOCKED: BRANCH  50  51
DOCKED: ATOM     51  C   UNL d   1      15.884   8.244 -15.526 -0.01 -0.01    +0.305 C 
DOCKED: ATOM     52  O   UNL d   1      15.753   9.397 -15.154 -0.01 +0.01    -0.251 OA
DOCKED: BRANCH  51  53
DOCKED: ATOM     53  O   UNL d   1      16.786   7.435 -14.936 +0.00 +0.03    -0.481 OA
DOCKED: ATOM     54  H   UNL d   1      17.647   7.871 -15.108 +0.00 -0.01    +0.295 HD
DOCKED: ENDBRANCH  51  53
DOCKED: ENDBRANCH  50  51
DOCKED: ENDBRANCH  49  50
DOCKED: ENDBRANCH  22  49
DOCKED: TORSDOF 13
DOCKED: TER
DOCKED: ENDMDL
________________________________________________________________________________


	BEGINNING GENETIC ALGORITHM DOCKING 8 of 100
Run: 8 Seed: 1035367249 1497107100 [ Run 8 of 100 GA/GALS ]
Beginning LAMARCKIAN GENETIC ALGORITHM (LGA), with a maximum of 25000000 energy evaluations.

Final-Value: -10.496


	FINAL GENETIC ALGORITHM DOCKED STATE
	_______________________________________________


Detailed state:  trans 13.694 -1.505 -6.392 quatxyzw 0.505978 -0.229970 -0.740177 -0.378467 center 0.153 0.018 -0.028 ntor 13 -120.9120 132.3381 179.3146 130.0013 24.9175 51.1589 -54.9534 72.3720 118.7750 -128.4656 -14.3450 -72.3741 5.1719
State:	 13.694  -1.505  -6.392   0.547 -0.248 -0.800 -135.522   -120.91  132.34  179.31  130.00   24.92   51.16  -54.95   72.37  118.78 -128.47  -14.35  -72.37    5.17

DOCKED: MODEL        8
DOCKED: USER    Run = 8
DOCKED: USER    DPF = D:/Protein_go_brrr/autodock/final/mut_N102T/heme/dock.dpf
DOCKED: USER  
DOCKED: USER    Estimated Free Energy of Binding    =   -3.11 kcal/mol  [=(1)+(2)+(3)-(4)]
DOCKED: USER    Estimated Inhibition Constant, Ki   =    5.24 mM (millimolar)  [Temperature = 298.15 K]
DOCKED: USER    
DOCKED: USER    (1) Final Intermolecular Energy     =   -6.99 kcal/mol
DOCKED: USER        vdW + Hbond + desolv Energy     =   -6.82 kcal/mol
DOCKED: USER        Electrostatic Energy            =   -0.17 kcal/mol
DOCKED: USER    (2) Final Total Internal Energy     =   -3.51 kcal/mol
DOCKED: USER    (3) Torsional Free Energy           =   +3.88 kcal/mol
DOCKED: USER    (4) Unbound System's Energy  [=(2)] =   -3.51 kcal/mol
DOCKED: USER    
DOCKED: USER    
DOCKED: USER    NEWDPF move heme_opt.pdbqt
DOCKED: USER    NEWDPF about 0.153000 0.018000 -0.028000
DOCKED: USER    NEWDPF tran0 13.694413 -1.504878 -6.391525
DOCKED: USER    NEWDPF quaternion0 0.505978 -0.229970 -0.740177 -0.378467
DOCKED: USER    NEWDPF axisangle0 0.546640 -0.248451 -0.799660 -135.522432
DOCKED: USER    NEWDPF quat0 0.546640 -0.248451 -0.799660 -135.522432
DOCKED: USER    NEWDPF dihe0 -120.91 132.34 179.31 130.00 24.92 51.16 -54.95 72.37 118.78 -128.47 -14.35 -72.37 5.17 
DOCKED: USER  keepresnum = 1 
DOCKED: USER  
DOCKED: REMARK  13 active torsions:
DOCKED: REMARK  status: ('A' for Active; 'I' for Inactive)
DOCKED: REMARK    1  A    between atoms: O_3  and  C_38 
DOCKED: REMARK    2  A    between atoms: O_4  and  C_40 
DOCKED: REMARK    3  A    between atoms: O_7  and  C_46 
DOCKED: REMARK    4  A    between atoms: O_9  and  C_48 
DOCKED: REMARK    5  A    between atoms: C_15  and  C_20 
DOCKED: REMARK    6  A    between atoms: C_16  and  C_23 
DOCKED: REMARK    7  A    between atoms: C_20  and  C_38 
DOCKED: REMARK    8  A    between atoms: C_23  and  C_40 
DOCKED: REMARK    9  A    between atoms: C_32  and  C_41 
DOCKED: REMARK   10  A    between atoms: C_37  and  C_45 
DOCKED: REMARK   11  A    between atoms: C_41  and  C_44 
DOCKED: REMARK   12  A    between atoms: C_44  and  C_46 
DOCKED: REMARK   13  A    between atoms: C_47  and  C_48 
DOCKED: USER                              x       y       z     vdW  Elec       q    Type
DOCKED: USER                           _______ _______ _______ _____ _____    ______ ____
DOCKED: ROOT
DOCKED: ATOM      1  O   UNL d   1      14.780   1.890  -1.696 -0.10 +0.00    -0.289 OA
DOCKED: ATOM      2  O   UNL d   1      14.100   3.614  -8.973 -0.12 +0.07    -0.289 OA
DOCKED: ATOM      3  N   UNL d   1      14.269  -0.489  -4.140 -0.08 +0.02    -0.247 NA
DOCKED: ATOM      4  N   UNL d   1      13.832   1.132  -6.591 -0.08 +0.03    -0.247 NA
DOCKED: ATOM      5  N   UNL d   1      12.857  -1.247  -7.878 -0.07 +0.03    -0.354 N 
DOCKED: ATOM      6  N   UNL d   1      13.295  -2.917  -5.325 -0.08 +0.08    -0.354 N 
DOCKED: ATOM      7  C   UNL d   1      14.360  -0.518  -1.690 -0.19 -0.00    +0.084 A 
DOCKED: ATOM      8  C   UNL d   1      14.835   3.359  -6.652 -0.15 -0.01    +0.084 A 
DOCKED: ATOM      9  C   UNL d   1      14.524   2.079  -5.870 -0.14 -0.01    +0.058 A 
DOCKED: ATOM     10  C   UNL d   1      14.169  -1.278  -3.006 -0.15 -0.01    +0.058 A 
DOCKED: ATOM     11  C   UNL d   1      14.604   0.838  -2.282 -0.18 -0.00    +0.193 A 
DOCKED: ATOM     12  C   UNL d   1      14.549   0.719  -3.774 -0.14 -0.01    +0.109 A 
DOCKED: ATOM     13  C   UNL d   1      14.159   2.978  -7.939 -0.12 -0.04    +0.193 A 
DOCKED: ATOM     14  C   UNL d   1      13.075  -0.472  -0.861 -0.18 -0.00    +0.026 C 
DOCKED: ATOM     15  C   UNL d   1      14.854   1.919  -4.579 -0.20 -0.01    +0.055 C 
DOCKED: ATOM     16  C   UNL d   1      16.337   3.514  -6.913 -0.05 -0.00    +0.026 C 
DOCKED: ATOM     17  C   UNL d   1      13.584   1.610  -7.768 -0.14 -0.02    +0.109 A 
DOCKED: ATOM     18  C   UNL d   1      14.010  -2.615  -3.028 -0.19 -0.01    +0.050 C 
DOCKED: ATOM     19  C   UNL d   1      13.911  -3.412  -4.197 -0.18 -0.02    +0.045 A 
DOCKED: ATOM     20  C   UNL d   1      12.513  -0.312  -8.820 -0.23 -0.01    +0.045 A 
DOCKED: ATOM     21  C   UNL d   1      12.820   0.989  -8.860 -0.27 -0.01    +0.057 C 
DOCKED: ATOM     22  C   UNL d   1      11.628  -2.329  -9.425 -0.24 +0.00    -0.019 A 
DOCKED: ATOM     23  C   UNL d   1      12.367  -2.495  -8.158 -0.18 -0.00    +0.045 A 
DOCKED: ATOM     24  C   UNL d   1      11.719  -1.034  -9.813 -0.24 +0.00    -0.022 A 
DOCKED: ATOM     25  C   UNL d   1      13.230  -3.882  -6.303 -0.14 -0.02    +0.049 A 
DOCKED: ATOM     26  C   UNL d   1      14.287  -4.719  -4.462 -0.14 +0.01    -0.018 A 
DOCKED: ATOM     27  C   UNL d   1      13.872  -5.005  -5.799 -0.16 -0.00    +0.003 A 
DOCKED: ATOM     28  C   UNL d   1      12.500  -3.658  -7.502 -0.14 -0.01    +0.052 C 
DOCKED: ATOM     29  C   UNL d   1      11.150  -0.382 -11.027 -0.26 -0.01    +0.046 C 
DOCKED: ATOM     30  C   UNL d   1      14.992  -5.648  -3.532 -0.10 -0.04    +0.046 C 
DOCKED: ATOM     31  H   UNL d   1      13.479  -1.017  -7.111 +0.05 -0.01    +0.166 HD
DOCKED: ATOM     32  H   UNL d   1      12.913  -1.981  -5.390 +0.07 -0.01    +0.166 HD
DOCKED: ENDROOT
DOCKED: BRANCH   7  33
DOCKED: ATOM     33  C   UNL d   1      15.560  -0.959  -0.845 -0.10 +0.01    +0.141 C 
DOCKED: BRANCH  33  34
DOCKED: ATOM     34  C   UNL d   1      15.886   0.018   0.252 -0.03 +0.09    +0.306 C 
DOCKED: ATOM     35  O   UNL d   1      15.306   0.123   1.320 -0.14 -0.08    -0.251 OA
DOCKED: BRANCH  34  36
DOCKED: ATOM     36  O   UNL d   1      16.928   0.812  -0.054 +0.08 -0.26    -0.481 OA
DOCKED: ATOM     37  H   UNL d   1      16.670   1.245  -0.895 +0.06 +0.17    +0.295 HD
DOCKED: ENDBRANCH  34  36
DOCKED: ENDBRANCH  33  34
DOCKED: ENDBRANCH   7  33
DOCKED: BRANCH  27  38
DOCKED: ATOM     38  C   UNL d   1      14.053  -6.257  -6.470 -0.14 -0.01    +0.017 C 
DOCKED: ATOM     39  C   UNL d   1      13.189  -6.802  -7.339 -0.21 -0.05    +0.092 C 
DOCKED: BRANCH  39  40
DOCKED: ATOM     40  C   UNL d   1      13.501  -8.086  -7.972 -0.07 -0.11    +0.330 C 
DOCKED: ATOM     41  O   UNL d   1      13.876  -9.109  -7.433 -0.10 +0.09    -0.246 OA
DOCKED: BRANCH  40  42
DOCKED: ATOM     42  O   UNL d   1      13.308  -8.006  -9.298 -0.01 +0.09    -0.477 OA
DOCKED: ATOM     43  H   UNL d   1      12.427  -7.586  -9.382 +0.11 -0.05    +0.295 HD
DOCKED: ENDBRANCH  40  42
DOCKED: ENDBRANCH  39  40
DOCKED: ENDBRANCH  27  38
DOCKED: BRANCH   8  44
DOCKED: ATOM     44  C   UNL d   1      14.236   4.647  -6.077 -0.31 -0.02    +0.141 C 
DOCKED: BRANCH  44  45
DOCKED: ATOM     45  C   UNL d   1      14.536   5.865  -6.910 -0.20 -0.05    +0.306 C 
DOCKED: ATOM     46  O   UNL d   1      15.410   6.689  -6.703 -0.14 +0.05    -0.251 OA
DOCKED: BRANCH  45  47
DOCKED: ATOM     47  O   UNL d   1      13.695   5.996  -7.952 -0.15 +0.10    -0.481 OA
DOCKED: ATOM     48  H   UNL d   1      13.106   5.214  -7.895 -0.31 -0.12    +0.295 HD
DOCKED: ENDBRANCH  45  47
DOCKED: ENDBRANCH  44  45
DOCKED: ENDBRANCH   8  44
DOCKED: BRANCH  22  49
DOCKED: ATOM     49  C   UNL d   1      10.896  -3.436 -10.125 -0.30 -0.01    +0.048 C 
DOCKED: BRANCH  49  50
DOCKED: ATOM     50  C   UNL d   1      11.849  -4.349 -10.896 -0.11 -0.01    +0.125 C 
DOCKED: BRANCH  50  51
DOCKED: ATOM     51  C   UNL d   1      11.159  -5.617 -11.311 -0.10 -0.03    +0.305 C 
DOCKED: ATOM     52  O   UNL d   1      10.242  -5.739 -12.104 -0.15 +0.02    -0.251 OA
DOCKED: BRANCH  51  53
DOCKED: ATOM     53  O   UNL d   1      11.664  -6.696 -10.681 -0.02 +0.05    -0.481 OA
DOCKED: ATOM     54  H   UNL d   1      12.632  -6.619 -10.815 +0.07 -0.03    +0.295 HD
DOCKED: ENDBRANCH  51  53
DOCKED: ENDBRANCH  50  51
DOCKED: ENDBRANCH  49  50
DOCKED: ENDBRANCH  22  49
DOCKED: TORSDOF 13
DOCKED: TER
DOCKED: ENDMDL
________________________________________________________________________________


	BEGINNING GENETIC ALGORITHM DOCKING 9 of 100
Run: 9 Seed: 80552243 1367791408 [ Run 9 of 100 GA/GALS ]
Beginning LAMARCKIAN GENETIC ALGORITHM (LGA), with a maximum of 25000000 energy evaluations.

Final-Value: -11.784


	FINAL GENETIC ALGORITHM DOCKED STATE
	_______________________________________________


Detailed state:  trans 12.957 -2.589 -7.504 quatxyzw -0.339237 -0.494474 0.334788 -0.726863 center 0.153 0.018 -0.028 ntor 13 20.3718 145.6188 132.1849 -47.1171 74.8669 -67.9949 -40.8181 102.5066 -108.9069 -109.3494 162.5332 -75.5006 9.9295
State:	 12.957  -2.589  -7.504  -0.494 -0.720  0.487 -86.752     20.37  145.62  132.18  -47.12   74.87  -67.99  -40.82  102.51 -108.91 -109.35  162.53  -75.50    9.93

DOCKED: MODEL        9
DOCKED: USER    Run = 9
DOCKED: USER    DPF = D:/Protein_go_brrr/autodock/final/mut_N102T/heme/dock.dpf
DOCKED: USER  
DOCKED: USER    Estimated Free Energy of Binding    =   -6.20 kcal/mol  [=(1)+(2)+(3)-(4)]
DOCKED: USER    Estimated Inhibition Constant, Ki   =   28.63 uM (micromolar)  [Temperature = 298.15 K]
DOCKED: USER    
DOCKED: USER    (1) Final Intermolecular Energy     =  -10.08 kcal/mol
DOCKED: USER        vdW + Hbond + desolv Energy     =   -9.60 kcal/mol
DOCKED: USER        Electrostatic Energy            =   -0.47 kcal/mol
DOCKED: USER    (2) Final Total Internal Energy     =   -1.71 kcal/mol
DOCKED: USER    (3) Torsional Free Energy           =   +3.88 kcal/mol
DOCKED: USER    (4) Unbound System's Energy  [=(2)] =   -1.71 kcal/mol
DOCKED: USER    
DOCKED: USER    
DOCKED: USER    NEWDPF move heme_opt.pdbqt
DOCKED: USER    NEWDPF about 0.153000 0.018000 -0.028000
DOCKED: USER    NEWDPF tran0 12.957190 -2.588552 -7.504359
DOCKED: USER    NEWDPF quaternion0 -0.339237 -0.494474 0.334788 -0.726863
DOCKED: USER    NEWDPF axisangle0 -0.493952 -0.719987 0.487474 -86.751832
DOCKED: USER    NEWDPF quat0 -0.493952 -0.719987 0.487474 -86.751832
DOCKED: USER    NEWDPF dihe0 20.37 145.62 132.18 -47.12 74.87 -67.99 -40.82 102.51 -108.91 -109.35 162.53 -75.50 9.93 
DOCKED: USER  keepresnum = 1 
DOCKED: USER  
DOCKED: REMARK  13 active torsions:
DOCKED: REMARK  status: ('A' for Active; 'I' for Inactive)
DOCKED: REMARK    1  A    between atoms: O_3  and  C_38 
DOCKED: REMARK    2  A    between atoms: O_4  and  C_40 
DOCKED: REMARK    3  A    between atoms: O_7  and  C_46 
DOCKED: REMARK    4  A    between atoms: O_9  and  C_48 
DOCKED: REMARK    5  A    between atoms: C_15  and  C_20 
DOCKED: REMARK    6  A    between atoms: C_16  and  C_23 
DOCKED: REMARK    7  A    between atoms: C_20  and  C_38 
DOCKED: REMARK    8  A    between atoms: C_23  and  C_40 
DOCKED: REMARK    9  A    between atoms: C_32  and  C_41 
DOCKED: REMARK   10  A    between atoms: C_37  and  C_45 
DOCKED: REMARK   11  A    between atoms: C_41  and  C_44 
DOCKED: REMARK   12  A    between atoms: C_44  and  C_46 
DOCKED: REMARK   13  A    between atoms: C_47  and  C_48 
DOCKED: USER                              x       y       z     vdW  Elec       q    Type
DOCKED: USER                           _______ _______ _______ _____ _____    ______ ____
DOCKED: ROOT
DOCKED: ATOM      1  O   UNL d   1      10.479  -6.175 -11.473 -0.16 +0.03    -0.289 OA
DOCKED: ATOM      2  O   UNL d   1      14.422  -7.673  -5.260 -0.05 +0.31    -0.289 OA
DOCKED: ATOM      3  N   UNL d   1      11.869  -3.709  -9.502 -0.10 +0.03    -0.247 NA
DOCKED: ATOM      4  N   UNL d   1      12.938  -5.216  -7.175 -0.14 +0.11    -0.247 NA
DOCKED: ATOM      5  N   UNL d   1      13.236  -2.706  -5.805 -0.05 +0.06    -0.354 N 
DOCKED: ATOM      6  N   UNL d   1      12.108  -1.152  -8.217 -0.12 +0.03    -0.354 N 
DOCKED: ATOM      7  C   UNL d   1      10.384  -3.733 -11.453 -0.22 -0.01    +0.084 A 
DOCKED: ATOM      8  C   UNL d   1      13.533  -7.558  -7.538 -0.14 -0.04    +0.084 A 
DOCKED: ATOM      9  C   UNL d   1      12.919  -6.260  -8.073 -0.18 -0.02    +0.058 A 
DOCKED: ATOM     10  C   UNL d   1      11.147  -2.932 -10.393 -0.21 -0.01    +0.058 A 
DOCKED: ATOM     11  C   UNL d   1      10.818  -5.099 -11.015 -0.15 -0.02    +0.193 A 
DOCKED: ATOM     12  C   UNL d   1      11.735  -4.950  -9.841 -0.16 -0.02    +0.109 A 
DOCKED: ATOM     13  C   UNL d   1      13.870  -7.068  -6.158 -0.01 -0.18    +0.193 A 
DOCKED: ATOM     14  C   UNL d   1       8.867  -3.616 -11.280 -0.49 -0.00    +0.026 C 
DOCKED: ATOM     15  C   UNL d   1      12.366  -6.167  -9.292 -0.18 -0.01    +0.055 C 
DOCKED: ATOM     16  C   UNL d   1      14.834  -7.913  -8.265 -0.06 -0.01    +0.026 C 
DOCKED: ATOM     17  C   UNL d   1      13.451  -5.636  -6.064 -0.12 -0.09    +0.109 A 
DOCKED: ATOM     18  C   UNL d   1      11.167  -1.586 -10.408 -0.15 -0.01    +0.050 C 
DOCKED: ATOM     19  C   UNL d   1      11.910  -0.765  -9.522 -0.25 -0.01    +0.045 A 
DOCKED: ATOM     20  C   UNL d   1      13.482  -3.570  -4.770 -0.22 -0.02    +0.045 A 
DOCKED: ATOM     21  C   UNL d   1      13.619  -4.900  -4.803 -0.19 -0.05    +0.057 C 
DOCKED: ATOM     22  C   UNL d   1      13.382  -1.442  -3.947 -0.26 +0.00    -0.019 A 
DOCKED: ATOM     23  C   UNL d   1      13.158  -1.399  -5.406 -0.20 -0.00    +0.045 A 
DOCKED: ATOM     24  C   UNL d   1      13.575  -2.730  -3.577 -0.21 +0.01    -0.022 A 
DOCKED: ATOM     25  C   UNL d   1      12.771  -0.172  -7.517 -0.22 -0.00    +0.049 A 
DOCKED: ATOM     26  C   UNL d   1      12.491   0.484  -9.685 -0.28 +0.00    -0.018 A 
DOCKED: ATOM     27  C   UNL d   1      13.050   0.844  -8.420 -0.21 -0.00    +0.003 A 
DOCKED: ATOM     28  C   UNL d   1      12.953  -0.275  -6.111 -0.22 -0.00    +0.052 C 
DOCKED: ATOM     29  C   UNL d   1      13.849  -3.279  -2.218 -0.20 -0.01    +0.046 C 
DOCKED: ATOM     30  C   UNL d   1      12.527   1.293 -10.937 -0.22 -0.01    +0.046 C 
DOCKED: ATOM     31  H   UNL d   1      13.203  -3.031  -6.765 +0.06 -0.03    +0.166 HD
DOCKED: ATOM     32  H   UNL d   1      11.768  -2.026  -7.834 +0.08 -0.00    +0.166 HD
DOCKED: ENDROOT
DOCKED: BRANCH   7  33
DOCKED: ATOM     33  C   UNL d   1      10.807  -3.473 -12.902 -0.17 -0.01    +0.141 C 
DOCKED: BRANCH  33  34
DOCKED: ATOM     34  C   UNL d   1      10.598  -2.042 -13.319 -0.21 -0.02    +0.306 C 
DOCKED: ATOM     35  O   UNL d   1      11.425  -1.317 -13.846 -0.20 +0.01    -0.251 OA
DOCKED: BRANCH  34  36
DOCKED: ATOM     36  O   UNL d   1       9.356  -1.601 -13.052 -0.20 +0.06    -0.481 OA
DOCKED: ATOM     37  H   UNL d   1       9.252  -0.802 -13.612 -0.39 -0.11    +0.295 HD
DOCKED: ENDBRANCH  34  36
DOCKED: ENDBRANCH  33  34
DOCKED: ENDBRANCH   7  33
DOCKED: BRANCH  27  38
DOCKED: ATOM     38  C   UNL d   1      13.735   2.071  -8.140 -0.22 -0.00    +0.017 C 
DOCKED: ATOM     39  C   UNL d   1      13.631   2.773  -7.002 -0.20 -0.01    +0.092 C 
DOCKED: BRANCH  39  40
DOCKED: ATOM     40  C   UNL d   1      14.401   4.008  -6.833 -0.16 -0.05    +0.330 C 
DOCKED: ATOM     41  O   UNL d   1      15.604   4.121  -6.692 -0.06 +0.04    -0.246 OA
DOCKED: BRANCH  40  42
DOCKED: ATOM     42  O   UNL d   1      13.581   5.071  -6.862 -0.59 +0.05    -0.477 OA
DOCKED: ATOM     43  H   UNL d   1      12.887   4.814  -7.503 -0.44 -0.12    +0.295 HD
DOCKED: ENDBRANCH  40  42
DOCKED: ENDBRANCH  39  40
DOCKED: ENDBRANCH  27  38
DOCKED: BRANCH   8  44
DOCKED: ATOM     44  C   UNL d   1      12.586  -8.761  -7.478 -0.15 -0.06    +0.141 C 
DOCKED: BRANCH  44  45
DOCKED: ATOM     45  C   UNL d   1      13.042  -9.828  -6.518 -0.17 -0.13    +0.306 C 
DOCKED: ATOM     46  O   UNL d   1      13.832 -10.726  -6.752 -0.40 +0.05    -0.251 OA
DOCKED: BRANCH  45  47
DOCKED: ATOM     47  O   UNL d   1      12.452  -9.723  -5.314 -0.18 +0.41    -0.481 OA
DOCKED: ATOM     48  H   UNL d   1      12.553  -8.778  -5.070 -0.18 -0.58    +0.295 HD
DOCKED: ENDBRANCH  45  47
DOCKED: ENDBRANCH  44  45
DOCKED: ENDBRANCH   8  44
DOCKED: BRANCH  22  49
DOCKED: ATOM     49  C   UNL d   1      13.372  -0.234  -3.057 -0.29 -0.00    +0.048 C 
DOCKED: BRANCH  49  50
DOCKED: ATOM     50  C   UNL d   1      14.630   0.616  -3.237 -0.19 -0.01    +0.125 C 
DOCKED: BRANCH  50  51
DOCKED: ATOM     51  C   UNL d   1      15.708  -0.163  -3.935 -0.02 -0.02    +0.305 C 
DOCKED: ATOM     52  O   UNL d   1      15.977  -0.159  -5.124 -0.02 +0.02    -0.251 OA
DOCKED: BRANCH  51  53
DOCKED: ATOM     53  O   UNL d   1      16.404  -0.938  -3.080 +0.02 +0.01    -0.481 OA
DOCKED: ATOM     54  H   UNL d   1      16.439  -1.811  -3.525 +0.04 -0.02    +0.295 HD
DOCKED: ENDBRANCH  51  53
DOCKED: ENDBRANCH  50  51
DOCKED: ENDBRANCH  49  50
DOCKED: ENDBRANCH  22  49
DOCKED: TORSDOF 13
DOCKED: TER
DOCKED: ENDMDL
________________________________________________________________________________


	BEGINNING GENETIC ALGORITHM DOCKING 10 of 100
Run: 10 Seed: 1652150367 339557661 [ Run 10 of 100 GA/GALS ]
Beginning LAMARCKIAN GENETIC ALGORITHM (LGA), with a maximum of 25000000 energy evaluations.

Final-Value: -13.281


	FINAL GENETIC ALGORITHM DOCKED STATE
	_______________________________________________


Detailed state:  trans 4.721 14.257 -11.359 quatxyzw -0.770236 0.006149 -0.452103 -0.449780 center 0.153 0.018 -0.028 ntor 13 158.5052 104.7493 -113.6896 -117.2571 40.4606 -76.8192 123.8278 85.1196 70.1352 -24.4304 58.0026 -93.5566 162.6003
State:	  4.721  14.257 -11.359  -0.862  0.007 -0.506 -126.541    158.51  104.75 -113.69 -117.26   40.46  -76.82  123.83   85.12   70.14  -24.43   58.00  -93.56  162.60

DOCKED: MODEL       10
DOCKED: USER    Run = 10
DOCKED: USER    DPF = D:/Protein_go_brrr/autodock/final/mut_N102T/heme/dock.dpf
DOCKED: USER  
DOCKED: USER    Estimated Free Energy of Binding    =   -7.49 kcal/mol  [=(1)+(2)+(3)-(4)]
DOCKED: USER    Estimated Inhibition Constant, Ki   =    3.24 uM (micromolar)  [Temperature = 298.15 K]
DOCKED: USER    
DOCKED: USER    (1) Final Intermolecular Energy     =  -11.37 kcal/mol
DOCKED: USER        vdW + Hbond + desolv Energy     =  -10.45 kcal/mol
DOCKED: USER        Electrostatic Energy            =   -0.92 kcal/mol
DOCKED: USER    (2) Final Total Internal Energy     =   -1.92 kcal/mol
DOCKED: USER    (3) Torsional Free Energy           =   +3.88 kcal/mol
DOCKED: USER    (4) Unbound System's Energy  [=(2)] =   -1.92 kcal/mol
DOCKED: USER    
DOCKED: USER    
DOCKED: USER    NEWDPF move heme_opt.pdbqt
DOCKED: USER    NEWDPF about 0.153000 0.018000 -0.028000
DOCKED: USER    NEWDPF tran0 4.720603 14.256791 -11.358808
DOCKED: USER    NEWDPF quaternion0 -0.770236 0.006149 -0.452103 -0.449780
DOCKED: USER    NEWDPF axisangle0 -0.862392 0.006884 -0.506195 -126.540840
DOCKED: USER    NEWDPF quat0 -0.862392 0.006884 -0.506195 -126.540840
DOCKED: USER    NEWDPF dihe0 158.51 104.75 -113.69 -117.26 40.46 -76.82 123.83 85.12 70.14 -24.43 58.00 -93.56 162.60 
DOCKED: USER  keepresnum = 1 
DOCKED: USER  
DOCKED: REMARK  13 active torsions:
DOCKED: REMARK  status: ('A' for Active; 'I' for Inactive)
DOCKED: REMARK    1  A    between atoms: O_3  and  C_38 
DOCKED: REMARK    2  A    between atoms: O_4  and  C_40 
DOCKED: REMARK    3  A    between atoms: O_7  and  C_46 
DOCKED: REMARK    4  A    between atoms: O_9  and  C_48 
DOCKED: REMARK    5  A    between atoms: C_15  and  C_20 
DOCKED: REMARK    6  A    between atoms: C_16  and  C_23 
DOCKED: REMARK    7  A    between atoms: C_20  and  C_38 
DOCKED: REMARK    8  A    between atoms: C_23  and  C_40 
DOCKED: REMARK    9  A    between atoms: C_32  and  C_41 
DOCKED: REMARK   10  A    between atoms: C_37  and  C_45 
DOCKED: REMARK   11  A    between atoms: C_41  and  C_44 
DOCKED: REMARK   12  A    between atoms: C_44  and  C_46 
DOCKED: REMARK   13  A    between atoms: C_47  and  C_48 
DOCKED: USER                              x       y       z     vdW  Elec       q    Type
DOCKED: USER                           _______ _______ _______ _____ _____    ______ ____
DOCKED: ROOT
DOCKED: ATOM      1  O   UNL d   1       2.530  16.032 -16.536 -0.09 -0.03    -0.289 OA
DOCKED: ATOM      2  O   UNL d   1       0.117  17.162  -9.515 -0.16 +0.06    -0.289 OA
DOCKED: ATOM      3  N   UNL d   1       4.089  14.662 -13.782 -0.16 +0.08    -0.247 NA
DOCKED: ATOM      4  N   UNL d   1       2.639  15.888 -11.496 -0.16 +0.08    -0.247 NA
DOCKED: ATOM      5  N   UNL d   1       4.742  14.946  -9.777 -0.12 +0.16    -0.354 N 
DOCKED: ATOM      6  N   UNL d   1       6.250  13.695 -12.156 +0.04 +0.18    -0.354 N 
DOCKED: ATOM      7  C   UNL d   1       4.580  14.750 -16.181 -0.11 -0.02    +0.084 A 
DOCKED: ATOM      8  C   UNL d   1       0.338  16.610 -11.890 -0.14 -0.01    +0.084 A 
DOCKED: ATOM      9  C   UNL d   1       1.652  16.050 -12.443 -0.21 -0.01    +0.058 A 
DOCKED: ATOM     10  C   UNL d   1       4.981  14.294 -14.775 -0.17 -0.02    +0.058 A 
DOCKED: ATOM     11  C   UNL d   1       3.294  15.424 -15.809 -0.10 -0.01    +0.193 A 
DOCKED: ATOM     12  C   UNL d   1       3.095  15.280 -14.332 -0.20 -0.02    +0.109 A 
DOCKED: ATOM     13  C   UNL d   1       0.773  16.771 -10.460 -0.12 -0.05    +0.193 A 
DOCKED: ATOM     14  C   UNL d   1       5.544  15.798 -16.742 -0.04 -0.00    +0.026 C 
DOCKED: ATOM     15  C   UNL d   1       1.839  15.790 -13.746 -0.25 -0.00    +0.055 C 
DOCKED: ATOM     16  C   UNL d   1      -0.790  15.575 -11.948 -0.19 -0.00    +0.026 C 
DOCKED: ATOM     17  C   UNL d   1       2.189  16.304 -10.356 -0.07 -0.04    +0.109 A 
DOCKED: ATOM     18  C   UNL d   1       6.067  13.526 -14.567 -0.21 -0.02    +0.050 C 
DOCKED: ATOM     19  C   UNL d   1       6.467  12.988 -13.318 -0.21 -0.02    +0.045 A 
DOCKED: ATOM     20  C   UNL d   1       4.066  15.755  -8.901 -0.29 -0.02    +0.045 A 
DOCKED: ATOM     21  C   UNL d   1       2.900  16.385  -9.072 -0.27 -0.02    +0.057 C 
DOCKED: ATOM     22  C   UNL d   1       5.992  15.035  -7.905 -0.24 +0.01    -0.019 A 
DOCKED: ATOM     23  C   UNL d   1       5.917  14.464  -9.264 -0.25 -0.02    +0.045 A 
DOCKED: ATOM     24  C   UNL d   1       4.893  15.798  -7.695 -0.26 +0.01    -0.022 A 
DOCKED: ATOM     25  C   UNL d   1       6.795  13.034 -11.080 -0.09 -0.02    +0.049 A 
DOCKED: ATOM     26  C   UNL d   1       7.138  11.822 -12.983 -0.28 +0.01    -0.018 A 
DOCKED: ATOM     27  C   UNL d   1       7.325  11.847 -11.566 -0.32 -0.00    +0.003 A 
DOCKED: ATOM     28  C   UNL d   1       6.835  13.642  -9.795 -0.26 -0.02    +0.052 C 
DOCKED: ATOM     29  C   UNL d   1       4.510  16.567  -6.477 -0.20 -0.02    +0.046 C 
DOCKED: ATOM     30  C   UNL d   1       7.578  10.748 -13.919 -0.23 -0.02    +0.046 C 
DOCKED: ATOM     31  H   UNL d   1       4.341  14.690 -10.672 -0.37 -0.10    +0.166 HD
DOCKED: ATOM     32  H   UNL d   1       5.786  14.595 -12.126 -0.09 -0.07    +0.166 HD
DOCKED: ENDROOT
DOCKED: BRANCH   7  33
DOCKED: ATOM     33  C   UNL d   1       4.325  13.623 -17.189 -0.17 -0.08    +0.141 C 
DOCKED: BRANCH  33  34
DOCKED: ATOM     34  C   UNL d   1       2.909  13.610 -17.697 -0.25 -0.05    +0.306 C 
DOCKED: ATOM     35  O   UNL d   1       2.506  14.139 -18.719 -0.21 -0.02    -0.251 OA
DOCKED: BRANCH  34  36
DOCKED: ATOM     36  O   UNL d   1       2.075  12.930 -16.891 -0.53 +0.06    -0.481 OA
DOCKED: ATOM     37  H   UNL d   1       2.656  12.305 -16.406 -0.33 -0.17    +0.295 HD
DOCKED: ENDBRANCH  34  36
DOCKED: ENDBRANCH  33  34
DOCKED: ENDBRANCH   7  33
DOCKED: BRANCH  27  38
DOCKED: ATOM     38  C   UNL d   1       7.992  10.835 -10.804 -0.41 -0.01    +0.017 C 
DOCKED: ATOM     39  C   UNL d   1       9.049  11.039 -10.003 -0.29 -0.03    +0.092 C 
DOCKED: BRANCH  39  40
DOCKED: ATOM     40  C   UNL d   1       9.630   9.917  -9.262 -0.24 -0.10    +0.330 C 
DOCKED: ATOM     41  O   UNL d   1       9.217   9.410  -8.236 -0.83 +0.02    -0.246 OA
DOCKED: BRANCH  40  42
DOCKED: ATOM     42  O   UNL d   1      10.735   9.476  -9.883 -0.11 +0.18    -0.477 OA
DOCKED: ATOM     43  H   UNL d   1      10.389   8.978 -10.652 -0.39 -0.23    +0.295 HD
DOCKED: ENDBRANCH  40  42
DOCKED: ENDBRANCH  39  40
DOCKED: ENDBRANCH  27  38
DOCKED: BRANCH   8  44
DOCKED: ATOM     44  C   UNL d   1      -0.109  17.951 -12.481 -0.04 -0.00    +0.141 C 
DOCKED: BRANCH  44  45
DOCKED: ATOM     45  C   UNL d   1       0.699  19.119 -11.983 +0.00 -0.01    +0.306 C 
DOCKED: ATOM     46  O   UNL d   1       1.802  19.459 -12.373 -0.00 +0.01    -0.251 OA
DOCKED: BRANCH  45  47
DOCKED: ATOM     47  O   UNL d   1       0.081  19.787 -10.991 +0.01 +0.02    -0.481 OA
DOCKED: ATOM     48  H   UNL d   1       0.044  19.148 -10.248 +0.04 -0.02    +0.295 HD
DOCKED: ENDBRANCH  45  47
DOCKED: ENDBRANCH  44  45
DOCKED: ENDBRANCH   8  44
DOCKED: BRANCH  22  49
DOCKED: ATOM     49  C   UNL d   1       7.126  14.797  -6.952 -0.19 -0.05    +0.048 C 
DOCKED: BRANCH  49  50
DOCKED: ATOM     50  C   UNL d   1       8.337  15.671  -7.279 -0.10 -0.10    +0.125 C 
DOCKED: BRANCH  50  51
DOCKED: ATOM     51  C   UNL d   1       9.548  14.827  -7.557 -0.07 -0.29    +0.305 C 
DOCKED: ATOM     52  O   UNL d   1       9.818  14.229  -8.584 -0.07 +0.16    -0.251 OA
DOCKED: BRANCH  51  53
DOCKED: ATOM     53  O   UNL d   1      10.376  14.767  -6.495 -0.03 +0.71    -0.481 OA
DOCKED: ATOM     54  H   UNL d   1       9.838  14.337  -5.798 -0.44 -0.93    +0.295 HD
DOCKED: ENDBRANCH  51  53
DOCKED: ENDBRANCH  50  51
DOCKED: ENDBRANCH  49  50
DOCKED: ENDBRANCH  22  49
DOCKED: TORSDOF 13
DOCKED: TER
DOCKED: ENDMDL
________________________________________________________________________________


	BEGINNING GENETIC ALGORITHM DOCKING 11 of 100
Run: 11 Seed: 1429482416 1123527138 [ Run 11 of 100 GA/GALS ]
Beginning LAMARCKIAN GENETIC ALGORITHM (LGA), with a maximum of 25000000 energy evaluations.

Final-Value: -10.302


	FINAL GENETIC ALGORITHM DOCKED STATE
	_______________________________________________


Detailed state:  trans -11.777 6.154 4.005 quatxyzw -0.039887 0.682931 0.199153 0.701678 center 0.153 0.018 -0.028 ntor 13 123.8980 65.8402 -78.9567 -100.9520 -132.5289 -6.6380 164.5383 100.7475 30.2715 -99.6214 142.1285 -70.4037 19.7257
State:	-11.777   6.154   4.005  -0.056  0.959  0.280 90.876    123.90   65.84  -78.96 -100.95 -132.53   -6.64  164.54  100.75   30.27  -99.62  142.13  -70.40   19.73

DOCKED: MODEL       11
DOCKED: USER    Run = 11
DOCKED: USER    DPF = D:/Protein_go_brrr/autodock/final/mut_N102T/heme/dock.dpf
DOCKED: USER  
DOCKED: USER    Estimated Free Energy of Binding    =   -3.70 kcal/mol  [=(1)+(2)+(3)-(4)]
DOCKED: USER    Estimated Inhibition Constant, Ki   =    1.93 mM (millimolar)  [Temperature = 298.15 K]
DOCKED: USER    
DOCKED: USER    (1) Final Intermolecular Energy     =   -7.58 kcal/mol
DOCKED: USER        vdW + Hbond + desolv Energy     =   -7.36 kcal/mol
DOCKED: USER        Electrostatic Energy            =   -0.22 kcal/mol
DOCKED: USER    (2) Final Total Internal Energy     =   -2.72 kcal/mol
DOCKED: USER    (3) Torsional Free Energy           =   +3.88 kcal/mol
DOCKED: USER    (4) Unbound System's Energy  [=(2)] =   -2.72 kcal/mol
DOCKED: USER    
DOCKED: USER    
DOCKED: USER    NEWDPF move heme_opt.pdbqt
DOCKED: USER    NEWDPF about 0.153000 0.018000 -0.028000
DOCKED: USER    NEWDPF tran0 -11.776517 6.153888 4.005245
DOCKED: USER    NEWDPF quaternion0 -0.039887 0.682931 0.199153 0.701678
DOCKED: USER    NEWDPF axisangle0 -0.055982 0.958508 0.279516 90.876432
DOCKED: USER    NEWDPF quat0 -0.055982 0.958508 0.279516 90.876432
DOCKED: USER    NEWDPF dihe0 123.90 65.84 -78.96 -100.95 -132.53 -6.64 164.54 100.75 30.27 -99.62 142.13 -70.40 19.73 
DOCKED: USER  keepresnum = 1 
DOCKED: USER  
DOCKED: REMARK  13 active torsions:
DOCKED: REMARK  status: ('A' for Active; 'I' for Inactive)
DOCKED: REMARK    1  A    between atoms: O_3  and  C_38 
DOCKED: REMARK    2  A    between atoms: O_4  and  C_40 
DOCKED: REMARK    3  A    between atoms: O_7  and  C_46 
DOCKED: REMARK    4  A    between atoms: O_9  and  C_48 
DOCKED: REMARK    5  A    between atoms: C_15  and  C_20 
DOCKED: REMARK    6  A    between atoms: C_16  and  C_23 
DOCKED: REMARK    7  A    between atoms: C_20  and  C_38 
DOCKED: REMARK    8  A    between atoms: C_23  and  C_40 
DOCKED: REMARK    9  A    between atoms: C_32  and  C_41 
DOCKED: REMARK   10  A    between atoms: C_37  and  C_45 
DOCKED: REMARK   11  A    between atoms: C_41  and  C_44 
DOCKED: REMARK   12  A    between atoms: C_44  and  C_46 
DOCKED: REMARK   13  A    between atoms: C_47  and  C_48 
DOCKED: USER                              x       y       z     vdW  Elec       q    Type
DOCKED: USER                           _______ _______ _______ _____ _____    ______ ____
DOCKED: ROOT
DOCKED: ATOM      1  O   UNL d   1     -11.960   9.717  -0.688 -0.00 -0.00    -0.289 OA
DOCKED: ATOM      2  O   UNL d   1     -11.296   2.254  -0.190 -0.58 -0.25    -0.289 OA
DOCKED: ATOM      3  N   UNL d   1     -11.759   8.057   2.329 -0.10 -0.01    -0.247 NA
DOCKED: ATOM      4  N   UNL d   1     -11.828   5.194   1.538 -0.44 -0.08    -0.247 NA
DOCKED: ATOM      5  N   UNL d   1     -12.315   4.540   4.295 -0.07 -0.03    -0.354 N 
DOCKED: ATOM      6  N   UNL d   1     -12.261   7.514   5.104 -0.08 +0.00    -0.354 N 
DOCKED: ATOM      7  C   UNL d   1     -12.164  10.379   1.657 -0.03 -0.00    +0.084 A 
DOCKED: ATOM      8  C   UNL d   1     -11.027   4.633  -0.701 -0.14 +0.02    +0.084 A 
DOCKED: ATOM      9  C   UNL d   1     -11.380   5.701   0.339 -0.08 +0.01    +0.058 A 
DOCKED: ATOM     10  C   UNL d   1     -12.019   9.342   2.774 -0.09 -0.00    +0.058 A 
DOCKED: ATOM     11  C   UNL d   1     -11.922   9.456   0.501 -0.02 +0.00    +0.193 A 
DOCKED: ATOM     12  C   UNL d   1     -11.664   8.083   1.039 -0.09 +0.00    +0.109 A 
DOCKED: ATOM     13  C   UNL d   1     -11.394   3.426   0.116 -0.17 +0.08    +0.193 A 
DOCKED: ATOM     14  C   UNL d   1     -13.590  10.927   1.563 -0.01 -0.00    +0.026 C 
DOCKED: ATOM     15  C   UNL d   1     -11.306   7.016   0.082 -0.10 +0.00    +0.055 C 
DOCKED: ATOM     16  C   UNL d   1      -9.523   4.594  -0.988 -0.26 +0.00    +0.026 C 
DOCKED: ATOM     17  C   UNL d   1     -11.872   3.903   1.449 -0.17 +0.03    +0.109 A 
DOCKED: ATOM     18  C   UNL d   1     -12.055   9.698   4.072 -0.12 -0.00    +0.050 C 
DOCKED: ATOM     19  C   UNL d   1     -11.847   8.825   5.170 -0.18 -0.00    +0.045 A 
DOCKED: ATOM     20  C   UNL d   1     -12.540   3.316   3.720 -0.19 +0.00    +0.045 A 
DOCKED: ATOM     21  C   UNL d   1     -12.343   2.937   2.453 -0.20 +0.02    +0.057 C 
DOCKED: ATOM     22  C   UNL d   1     -13.107   3.208   5.930 -0.13 +0.00    -0.019 A 
DOCKED: ATOM     23  C   UNL d   1     -12.628   4.572   5.628 -0.15 +0.00    +0.045 A 
DOCKED: ATOM     24  C   UNL d   1     -13.051   2.469   4.797 -0.16 +0.00    -0.022 A 
DOCKED: ATOM     25  C   UNL d   1     -12.044   6.877   6.304 -0.13 -0.00    +0.049 A 
DOCKED: ATOM     26  C   UNL d   1     -11.314   9.035   6.433 -0.23 +0.00    -0.018 A 
DOCKED: ATOM     27  C   UNL d   1     -11.423   7.797   7.137 -0.26 -0.00    +0.003 A 
DOCKED: ATOM     28  C   UNL d   1     -12.532   5.561   6.529 -0.17 -0.00    +0.052 C 
DOCKED: ATOM     29  C   UNL d   1     -13.415   1.037   4.598 -0.18 -0.01    +0.046 C 
DOCKED: ATOM     30  C   UNL d   1     -10.736  10.307   6.954 -0.18 -0.01    +0.046 C 
DOCKED: ATOM     31  H   UNL d   1     -11.883   5.295   3.774 +0.04 +0.03    +0.166 HD
DOCKED: ATOM     32  H   UNL d   1     -12.701   7.106   4.287 +0.03 +0.00    +0.166 HD
DOCKED: ENDROOT
DOCKED: BRANCH   7  33
DOCKED: ATOM     33  C   UNL d   1     -11.128  11.508   1.669 -0.04 -0.00    +0.141 C 
DOCKED: BRANCH  33  34
DOCKED: ATOM     34  C   UNL d   1      -9.796  11.078   1.116 -0.05 +0.00    +0.306 C 
DOCKED: ATOM     35  O   UNL d   1      -8.951  10.422   1.701 -0.10 -0.00    -0.251 OA
DOCKED: BRANCH  34  36
DOCKED: ATOM     36  O   UNL d   1      -9.601  11.494  -0.148 -0.00 -0.01    -0.481 OA
DOCKED: ATOM     37  H   UNL d   1     -10.345  11.104  -0.654 +0.02 +0.00    +0.295 HD
DOCKED: ENDBRANCH  34  36
DOCKED: ENDBRANCH  33  34
DOCKED: ENDBRANCH   7  33
DOCKED: BRANCH  27  38
DOCKED: ATOM     38  C   UNL d   1     -11.003   7.576   8.488 -0.37 -0.00    +0.017 C 
DOCKED: ATOM     39  C   UNL d   1     -11.602   6.750   9.360 -0.25 -0.00    +0.092 C 
DOCKED: BRANCH  39  40
DOCKED: ATOM     40  C   UNL d   1     -11.061   6.600  10.713 -0.13 +0.00    +0.330 C 
DOCKED: ATOM     41  O   UNL d   1     -10.011   7.034  11.146 -0.42 -0.02    -0.246 OA
DOCKED: BRANCH  40  42
DOCKED: ATOM     42  O   UNL d   1     -11.911   5.894  11.475 -0.05 -0.00    -0.477 OA
DOCKED: ATOM     43  H   UNL d   1     -12.211   6.536  12.150 +0.08 +0.00    +0.295 HD
DOCKED: ENDBRANCH  40  42
DOCKED: ENDBRANCH  39  40
DOCKED: ENDBRANCH  27  38
DOCKED: BRANCH   8  44
DOCKED: ATOM     44  C   UNL d   1     -11.839   4.682  -2.000 -0.04 +0.02    +0.141 C 
DOCKED: BRANCH  44  45
DOCKED: ATOM     45  C   UNL d   1     -12.029   3.330  -2.634 -0.04 +0.06    +0.306 C 
DOCKED: ATOM     46  O   UNL d   1     -13.092   2.780  -2.866 -0.02 -0.05    -0.251 OA
DOCKED: BRANCH  45  47
DOCKED: ATOM     47  O   UNL d   1     -10.862   2.725  -2.918 -0.05 -0.09    -0.481 OA
DOCKED: ATOM     48  H   UNL d   1     -10.729   2.086  -2.186 +0.10 +0.11    +0.295 HD
DOCKED: ENDBRANCH  45  47
DOCKED: ENDBRANCH  44  45
DOCKED: ENDBRANCH   8  44
DOCKED: BRANCH  22  49
DOCKED: ATOM     49  C   UNL d   1     -13.584   2.762   7.281 -0.09 -0.00    +0.048 C 
DOCKED: BRANCH  49  50
DOCKED: ATOM     50  C   UNL d   1     -12.469   2.818   8.325 -0.19 -0.01    +0.125 C 
DOCKED: BRANCH  50  51
DOCKED: ATOM     51  C   UNL d   1     -11.151   2.417   7.724 -0.21 -0.02    +0.305 C 
DOCKED: ATOM     52  O   UNL d   1     -10.293   3.146   7.261 -0.83 -0.02    -0.251 OA
DOCKED: BRANCH  51  53
DOCKED: ATOM     53  O   UNL d   1     -10.983   1.079   7.727 -0.16 +0.11    -0.481 OA
DOCKED: ATOM     54  H   UNL d   1     -11.520   0.770   6.968 +0.13 -0.10    +0.295 HD
DOCKED: ENDBRANCH  51  53
DOCKED: ENDBRANCH  50  51
DOCKED: ENDBRANCH  49  50
DOCKED: ENDBRANCH  22  49
DOCKED: TORSDOF 13
DOCKED: TER
DOCKED: ENDMDL
________________________________________________________________________________


	BEGINNING GENETIC ALGORITHM DOCKING 12 of 100
Run: 12 Seed: 796986592 1512266068 [ Run 12 of 100 GA/GALS ]
Beginning LAMARCKIAN GENETIC ALGORITHM (LGA), with a maximum of 25000000 energy evaluations.

Final-Value: -10.705


	FINAL GENETIC ALGORITHM DOCKED STATE
	_______________________________________________


Detailed state:  trans 14.240 4.693 -11.973 quatxyzw 0.159566 -0.663183 -0.125266 -0.720441 center 0.153 0.018 -0.028 ntor 13 168.3008 -22.7387 -119.7553 74.2182 -146.5826 -63.4533 121.1863 -122.7316 16.5927 -26.1258 -21.2178 -83.4587 -179.2326
State:	 14.240   4.693 -11.973   0.230 -0.956 -0.181 -87.818    168.30  -22.74 -119.76   74.22 -146.58  -63.45  121.19 -122.73   16.59  -26.13  -21.22  -83.46 -179.23

DOCKED: MODEL       12
DOCKED: USER    Run = 12
DOCKED: USER    DPF = D:/Protein_go_brrr/autodock/final/mut_N102T/heme/dock.dpf
DOCKED: USER  
DOCKED: USER    Estimated Free Energy of Binding    =   -4.28 kcal/mol  [=(1)+(2)+(3)-(4)]
DOCKED: USER    Estimated Inhibition Constant, Ki   =  727.99 uM (micromolar)  [Temperature = 298.15 K]
DOCKED: USER    
DOCKED: USER    (1) Final Intermolecular Energy     =   -8.16 kcal/mol
DOCKED: USER        vdW + Hbond + desolv Energy     =   -7.94 kcal/mol
DOCKED: USER        Electrostatic Energy            =   -0.22 kcal/mol
DOCKED: USER    (2) Final Total Internal Energy     =   -2.55 kcal/mol
DOCKED: USER    (3) Torsional Free Energy           =   +3.88 kcal/mol
DOCKED: USER    (4) Unbound System's Energy  [=(2)] =   -2.55 kcal/mol
DOCKED: USER    
DOCKED: USER    
DOCKED: USER    NEWDPF move heme_opt.pdbqt
DOCKED: USER    NEWDPF about 0.153000 0.018000 -0.028000
DOCKED: USER    NEWDPF tran0 14.239602 4.692741 -11.973351
DOCKED: USER    NEWDPF quaternion0 0.159566 -0.663183 -0.125266 -0.720441
DOCKED: USER    NEWDPF axisangle0 0.230083 -0.956262 -0.180624 -87.818113
DOCKED: USER    NEWDPF quat0 0.230083 -0.956262 -0.180624 -87.818113
DOCKED: USER    NEWDPF dihe0 168.30 -22.74 -119.76 74.22 -146.58 -63.45 121.19 -122.73 16.59 -26.13 -21.22 -83.46 -179.23 
DOCKED: USER  keepresnum = 1 
DOCKED: USER  
DOCKED: REMARK  13 active torsions:
DOCKED: REMARK  status: ('A' for Active; 'I' for Inactive)
DOCKED: REMARK    1  A    between atoms: O_3  and  C_38 
DOCKED: REMARK    2  A    between atoms: O_4  and  C_40 
DOCKED: REMARK    3  A    between atoms: O_7  and  C_46 
DOCKED: REMARK    4  A    between atoms: O_9  and  C_48 
DOCKED: REMARK    5  A    between atoms: C_15  and  C_20 
DOCKED: REMARK    6  A    between atoms: C_16  and  C_23 
DOCKED: REMARK    7  A    between atoms: C_20  and  C_38 
DOCKED: REMARK    8  A    between atoms: C_23  and  C_40 
DOCKED: REMARK    9  A    between atoms: C_32  and  C_41 
DOCKED: REMARK   10  A    between atoms: C_37  and  C_45 
DOCKED: REMARK   11  A    between atoms: C_41  and  C_44 
DOCKED: REMARK   12  A    between atoms: C_44  and  C_46 
DOCKED: REMARK   13  A    between atoms: C_47  and  C_48 
DOCKED: USER                              x       y       z     vdW  Elec       q    Type
DOCKED: USER                           _______ _______ _______ _____ _____    ______ ____
DOCKED: ROOT
DOCKED: ATOM      1  O   UNL d   1      13.043   8.402 -16.397 -0.06 -0.01    -0.289 OA
DOCKED: ATOM      2  O   UNL d   1      15.726   1.388 -16.435 -0.01 +0.01    -0.289 OA
DOCKED: ATOM      3  N   UNL d   1      13.719   6.645 -13.507 -0.15 +0.05    -0.247 NA
DOCKED: ATOM      4  N   UNL d   1      14.428   3.937 -14.504 -0.00 +0.07    -0.247 NA
DOCKED: ATOM      5  N   UNL d   1      14.166   2.976 -11.807 +0.17 +0.13    -0.354 N 
DOCKED: ATOM      6  N   UNL d   1      13.413   5.785 -10.784 -0.20 +0.12    -0.354 N 
DOCKED: ATOM      7  C   UNL d   1      12.688   8.810 -14.013 -0.15 -0.01    +0.084 A 
DOCKED: ATOM      8  C   UNL d   1      15.329   3.780 -16.770 -0.03 -0.00    +0.084 A 
DOCKED: ATOM      9  C   UNL d   1      14.709   4.633 -15.659 -0.09 -0.01    +0.058 A 
DOCKED: ATOM     10  C   UNL d   1      13.123   7.774 -12.972 -0.20 -0.01    +0.058 A 
DOCKED: ATOM     11  C   UNL d   1      13.162   8.074 -15.230 -0.10 -0.00    +0.193 A 
DOCKED: ATOM     12  C   UNL d   1      13.791   6.789 -14.790 -0.14 -0.01    +0.109 A 
DOCKED: ATOM     13  C   UNL d   1      15.315   2.464 -16.046 -0.03 -0.01    +0.193 A 
DOCKED: ATOM     14  C   UNL d   1      11.166   8.952 -14.081 -0.18 -0.00    +0.026 C 
DOCKED: ATOM     15  C   UNL d   1      14.417   5.933 -15.818 -0.10 -0.00    +0.055 C 
DOCKED: ATOM     16  C   UNL d   1      16.784   4.176 -17.044 -0.01 -0.00    +0.026 C 
DOCKED: ATOM     17  C   UNL d   1      14.738   2.693 -14.687 -0.08 -0.02    +0.109 A 
DOCKED: ATOM     18  C   UNL d   1      13.004   8.011 -11.652 -0.24 -0.01    +0.050 C 
DOCKED: ATOM     19  C   UNL d   1      13.453   7.151 -10.618 -0.28 -0.01    +0.045 A 
DOCKED: ATOM     20  C   UNL d   1      14.279   1.783 -12.472 -0.10 -0.01    +0.045 A 
DOCKED: ATOM     21  C   UNL d   1      14.558   1.565 -13.761 -0.11 -0.01    +0.057 C 
DOCKED: ATOM     22  C   UNL d   1      13.784   1.363 -10.282 -0.16 +0.00    -0.019 A 
DOCKED: ATOM     23  C   UNL d   1      13.869   2.824 -10.479 -0.20 -0.01    +0.045 A 
DOCKED: ATOM     24  C   UNL d   1      14.029   0.752 -11.465 -0.12 +0.00    -0.022 A 
DOCKED: ATOM     25  C   UNL d   1      13.807   5.146  -9.631 -0.26 -0.02    +0.049 A 
DOCKED: ATOM     26  C   UNL d   1      13.921   7.407  -9.338 -0.25 +0.00    -0.018 A 
DOCKED: ATOM     27  C   UNL d   1      14.162   6.137  -8.727 -0.26 -0.00    +0.003 A 
DOCKED: ATOM     28  C   UNL d   1      13.700   3.734  -9.507 -0.27 -0.02    +0.052 C 
DOCKED: ATOM     29  C   UNL d   1      14.068  -0.706 -11.771 -0.07 -0.00    +0.046 C 
DOCKED: ATOM     30  C   UNL d   1      14.135   8.746  -8.720 -0.19 -0.01    +0.046 C 
DOCKED: ATOM     31  H   UNL d   1      14.370   3.857 -12.268 -0.32 -0.07    +0.166 HD
DOCKED: ATOM     32  H   UNL d   1      13.093   5.333 -11.633 -0.30 -0.08    +0.166 HD
DOCKED: ENDROOT
DOCKED: BRANCH   7  33
DOCKED: ATOM     33  C   UNL d   1      13.377  10.175 -13.908 -0.05 -0.01    +0.141 C 
DOCKED: BRANCH  33  34
DOCKED: ATOM     34  C   UNL d   1      14.857  10.099 -14.165 -0.01 -0.02    +0.306 C 
DOCKED: ATOM     35  O   UNL d   1      15.728   9.949 -13.325 -0.00 +0.02    -0.251 OA
DOCKED: BRANCH  34  36
DOCKED: ATOM     36  O   UNL d   1      15.163  10.213 -15.470 +0.00 +0.02    -0.481 OA
DOCKED: ATOM     37  H   UNL d   1      14.309  10.085 -15.936 +0.02 -0.01    +0.295 HD
DOCKED: ENDBRANCH  34  36
DOCKED: ENDBRANCH  33  34
DOCKED: ENDBRANCH   7  33
DOCKED: BRANCH  27  38
DOCKED: ATOM     38  C   UNL d   1      14.639   5.942  -7.391 -0.29 -0.00    +0.017 C 
DOCKED: ATOM     39  C   UNL d   1      14.123   5.080  -6.503 -0.33 -0.01    +0.092 C 
DOCKED: BRANCH  39  40
DOCKED: ATOM     40  C   UNL d   1      14.717   4.963  -5.168 -0.27 -0.09    +0.330 C 
DOCKED: ATOM     41  O   UNL d   1      15.827   4.556  -4.882 -0.13 +0.07    -0.246 OA
DOCKED: BRANCH  40  42
DOCKED: ATOM     42  O   UNL d   1      13.850   5.389  -4.238 -0.76 +0.20    -0.477 OA
DOCKED: ATOM     43  H   UNL d   1      14.148   4.946  -3.417 -0.13 -0.35    +0.295 HD
DOCKED: ENDBRANCH  40  42
DOCKED: ENDBRANCH  39  40
DOCKED: ENDBRANCH  27  38
DOCKED: BRANCH   8  44
DOCKED: ATOM     44  C   UNL d   1      14.523   3.701 -18.070 -0.02 -0.00    +0.141 C 
DOCKED: BRANCH  44  45
DOCKED: ATOM     45  C   UNL d   1      13.326   2.792 -17.972 -0.03 -0.00    +0.306 C 
DOCKED: ATOM     46  O   UNL d   1      12.264   3.045 -17.430 -0.11 -0.00    -0.251 OA
DOCKED: BRANCH  45  47
DOCKED: ATOM     47  O   UNL d   1      13.542   1.594 -18.544 +0.01 +0.01    -0.481 OA
DOCKED: ATOM     48  H   UNL d   1      14.307   1.221 -18.057 +0.03 -0.01    +0.295 HD
DOCKED: ENDBRANCH  45  47
DOCKED: ENDBRANCH  44  45
DOCKED: ENDBRANCH   8  44
DOCKED: BRANCH  22  49
DOCKED: ATOM     49  C   UNL d   1      13.461   0.708  -8.971 -0.16 -0.01    +0.048 C 
DOCKED: BRANCH  49  50
DOCKED: ATOM     50  C   UNL d   1      11.982   0.333  -8.873 -0.33 -0.02    +0.125 C 
DOCKED: BRANCH  50  51
DOCKED: ATOM     51  C   UNL d   1      11.765  -0.726  -7.829 -0.16 -0.02    +0.305 C 
DOCKED: ATOM     52  O   UNL d   1      11.163  -1.778  -7.952 -0.49 -0.00    -0.251 OA
DOCKED: BRANCH  51  53
DOCKED: ATOM     53  O   UNL d   1      12.323  -0.392  -6.648 -0.32 -0.02    -0.481 OA
DOCKED: ATOM     54  H   UNL d   1      13.113  -0.969  -6.587 +0.11 -0.01    +0.295 HD
DOCKED: ENDBRANCH  51  53
DOCKED: ENDBRANCH  50  51
DOCKED: ENDBRANCH  49  50
DOCKED: ENDBRANCH  22  49
DOCKED: TORSDOF 13
DOCKED: TER
DOCKED: ENDMDL
________________________________________________________________________________


	BEGINNING GENETIC ALGORITHM DOCKING 13 of 100
Run: 13 Seed: 1075463154 1171049563 [ Run 13 of 100 GA/GALS ]
Beginning LAMARCKIAN GENETIC ALGORITHM (LGA), with a maximum of 25000000 energy evaluations.

Final-Value: -11.667


	FINAL GENETIC ALGORITHM DOCKED STATE
	_______________________________________________


Detailed state:  trans 9.040 -3.452 11.571 quatxyzw -0.326401 -0.367438 0.870369 0.030150 center 0.153 0.018 -0.028 ntor 13 139.2604 180.0000 -121.1508 -0.1058 -137.7402 -65.3953 124.4273 -106.7596 14.6662 -27.8165 39.8629 1.7869 115.0221
State:	  9.040  -3.452  11.571  -0.327 -0.368  0.871 176.545    139.26  180.00 -121.15   -0.11 -137.74  -65.40  124.43 -106.76   14.67  -27.82   39.86    1.79  115.02

DOCKED: MODEL       13
DOCKED: USER    Run = 13
DOCKED: USER    DPF = D:/Protein_go_brrr/autodock/final/mut_N102T/heme/dock.dpf
DOCKED: USER  
DOCKED: USER    Estimated Free Energy of Binding    =   -3.99 kcal/mol  [=(1)+(2)+(3)-(4)]
DOCKED: USER    Estimated Inhibition Constant, Ki   =    1.19 mM (millimolar)  [Temperature = 298.15 K]
DOCKED: USER    
DOCKED: USER    (1) Final Intermolecular Energy     =   -7.87 kcal/mol
DOCKED: USER        vdW + Hbond + desolv Energy     =   -7.75 kcal/mol
DOCKED: USER        Electrostatic Energy            =   -0.11 kcal/mol
DOCKED: USER    (2) Final Total Internal Energy     =   -3.80 kcal/mol
DOCKED: USER    (3) Torsional Free Energy           =   +3.88 kcal/mol
DOCKED: USER    (4) Unbound System's Energy  [=(2)] =   -3.80 kcal/mol
DOCKED: USER    
DOCKED: USER    
DOCKED: USER    NEWDPF move heme_opt.pdbqt
DOCKED: USER    NEWDPF about 0.153000 0.018000 -0.028000
DOCKED: USER    NEWDPF tran0 9.040151 -3.451667 11.571084
DOCKED: USER    NEWDPF quaternion0 -0.326401 -0.367438 0.870369 0.030150
DOCKED: USER    NEWDPF axisangle0 -0.326549 -0.367605 0.870765 176.544519
DOCKED: USER    NEWDPF quat0 -0.326549 -0.367605 0.870765 176.544519
DOCKED: USER    NEWDPF dihe0 139.26 180.00 -121.15 -0.11 -137.74 -65.40 124.43 -106.76 14.67 -27.82 39.86 1.79 115.02 
DOCKED: USER  keepresnum = 1 
DOCKED: USER  
DOCKED: REMARK  13 active torsions:
DOCKED: REMARK  status: ('A' for Active; 'I' for Inactive)
DOCKED: REMARK    1  A    between atoms: O_3  and  C_38 
DOCKED: REMARK    2  A    between atoms: O_4  and  C_40 
DOCKED: REMARK    3  A    between atoms: O_7  and  C_46 
DOCKED: REMARK    4  A    between atoms: O_9  and  C_48 
DOCKED: REMARK    5  A    between atoms: C_15  and  C_20 
DOCKED: REMARK    6  A    between atoms: C_16  and  C_23 
DOCKED: REMARK    7  A    between atoms: C_20  and  C_38 
DOCKED: REMARK    8  A    between atoms: C_23  and  C_40 
DOCKED: REMARK    9  A    between atoms: C_32  and  C_41 
DOCKED: REMARK   10  A    between atoms: C_37  and  C_45 
DOCKED: REMARK   11  A    between atoms: C_41  and  C_44 
DOCKED: REMARK   12  A    between atoms: C_44  and  C_46 
DOCKED: REMARK   13  A    between atoms: C_47  and  C_48 
DOCKED: USER                              x       y       z     vdW  Elec       q    Type
DOCKED: USER                           _______ _______ _______ _____ _____    ______ ____
DOCKED: ROOT
DOCKED: ATOM      1  O   UNL d   1      13.585  -6.160  14.171 +0.00 -0.06    -0.289 OA
DOCKED: ATOM      2  O   UNL d   1      10.572   0.620  15.328 -0.14 -0.10    -0.289 OA
DOCKED: ATOM      3  N   UNL d   1      10.974  -4.930  12.284 -0.02 -0.14    -0.247 NA
DOCKED: ATOM      4  N   UNL d   1      10.288  -2.380  13.646 -0.01 -0.07    -0.247 NA
DOCKED: ATOM      5  N   UNL d   1       7.851  -2.329  12.122 -0.07 -0.08    -0.354 N 
DOCKED: ATOM      6  N   UNL d   1       8.561  -4.984  10.727 -0.11 -0.23    -0.354 N 
DOCKED: ATOM      7  C   UNL d   1      12.142  -7.080  12.426 -0.03 +0.03    +0.084 A 
DOCKED: ATOM      8  C   UNL d   1      12.064  -1.275  14.910 -0.01 +0.02    +0.084 A 
DOCKED: ATOM      9  C   UNL d   1      11.584  -2.484  14.101 -0.00 +0.01    +0.058 A 
DOCKED: ATOM     10  C   UNL d   1      11.044  -6.222  11.791 -0.09 +0.04    +0.058 A 
DOCKED: ATOM     11  C   UNL d   1      12.693  -6.038  13.352 +0.00 +0.06    +0.193 A 
DOCKED: ATOM     12  C   UNL d   1      11.918  -4.772  13.153 -0.01 +0.04    +0.109 A 
DOCKED: ATOM     13  C   UNL d   1      10.788  -0.482  14.863 -0.06 +0.05    +0.193 A 
DOCKED: ATOM     14  C   UNL d   1      11.566  -8.228  13.259 -0.07 +0.01    +0.026 C 
DOCKED: ATOM     15  C   UNL d   1      12.345  -3.571  13.899 +0.00 +0.02    +0.055 C 
DOCKED: ATOM     16  C   UNL d   1      13.156  -0.495  14.172 -0.02 +0.01    +0.026 C 
DOCKED: ATOM     17  C   UNL d   1       9.789  -1.265  14.074 -0.07 +0.03    +0.109 A 
DOCKED: ATOM     18  C   UNL d   1      10.287  -6.685  10.778 -0.17 +0.04    +0.050 C 
DOCKED: ATOM     19  C   UNL d   1       9.308  -5.939  10.075 -0.14 +0.04    +0.045 A 
DOCKED: ATOM     20  C   UNL d   1       7.600  -1.307  13.001 -0.23 +0.01    +0.045 A 
DOCKED: ATOM     21  C   UNL d   1       8.423  -0.751  13.896 -0.23 +0.01    +0.057 C 
DOCKED: ATOM     22  C   UNL d   1       5.710  -1.714  11.784 -0.39 -0.00    -0.019 A 
DOCKED: ATOM     23  C   UNL d   1       6.769  -2.645  11.345 -0.20 +0.01    +0.045 A 
DOCKED: ATOM     24  C   UNL d   1       6.209  -0.924  12.764 -0.39 -0.00    -0.022 A 
DOCKED: ATOM     25  C   UNL d   1       7.615  -4.450   9.883 -0.30 +0.03    +0.049 A 
DOCKED: ATOM     26  C   UNL d   1       8.861  -6.001   8.764 -0.12 -0.02    -0.018 A 
DOCKED: ATOM     27  C   UNL d   1       7.806  -5.045   8.643 -0.37 +0.00    +0.003 A 
DOCKED: ATOM     28  C   UNL d   1       6.623  -3.558  10.372 -0.25 +0.01    +0.052 C 
DOCKED: ATOM     29  C   UNL d   1       5.532   0.174  13.513 -0.33 -0.01    +0.046 C 
DOCKED: ATOM     30  C   UNL d   1       9.383  -6.890   7.687 -0.21 +0.04    +0.046 C 
DOCKED: ATOM     31  H   UNL d   1       8.779  -2.728  12.030 +0.05 +0.06    +0.166 HD
DOCKED: ATOM     32  H   UNL d   1       8.680  -4.752  11.706 +0.05 +0.08    +0.166 HD
DOCKED: ENDROOT
DOCKED: BRANCH   7  33
DOCKED: ATOM     33  C   UNL d   1      13.229  -7.573  11.464 -0.02 +0.06    +0.141 C 
DOCKED: BRANCH  33  34
DOCKED: ATOM     34  C   UNL d   1      14.005  -6.446  10.839 -0.02 +0.16    +0.306 C 
DOCKED: ATOM     35  O   UNL d   1      13.675  -5.802   9.857 -0.07 -0.26    -0.251 OA
DOCKED: BRANCH  34  36
DOCKED: ATOM     36  O   UNL d   1      15.155  -6.186  11.487 +0.01 -0.15    -0.481 OA
DOCKED: ATOM     37  H   UNL d   1      14.916  -6.219  12.437 +0.01 +0.08    +0.295 HD
DOCKED: ENDBRANCH  34  36
DOCKED: ENDBRANCH  33  34
DOCKED: ENDBRANCH   7  33
DOCKED: BRANCH  27  38
DOCKED: ATOM     38  C   UNL d   1       7.052  -4.793   7.452 -0.43 +0.01    +0.017 C 
DOCKED: ATOM     39  C   UNL d   1       6.639  -3.586   7.038 -0.31 +0.03    +0.092 C 
DOCKED: BRANCH  39  40
DOCKED: ATOM     40  C   UNL d   1       5.887  -3.461   5.786 -0.23 +0.07    +0.330 C 
DOCKED: ATOM     41  O   UNL d   1       6.289  -3.657   4.655 -0.35 -0.04    -0.246 OA
DOCKED: BRANCH  40  42
DOCKED: ATOM     42  O   UNL d   1       4.622  -3.093   6.042 -0.40 -0.11    -0.477 OA
DOCKED: ATOM     43  H   UNL d   1       4.592  -3.020   7.018 +0.17 +0.12    +0.295 HD
DOCKED: ENDBRANCH  40  42
DOCKED: ENDBRANCH  39  40
DOCKED: ENDBRANCH  27  38
DOCKED: BRANCH   8  44
DOCKED: ATOM     44  C   UNL d   1      12.473  -1.569  16.357 -0.00 +0.03    +0.141 C 
DOCKED: BRANCH  44  45
DOCKED: ATOM     45  C   UNL d   1      11.300  -1.742  17.284 -0.01 +0.05    +0.306 C 
DOCKED: ATOM     46  O   UNL d   1      10.620  -2.745  17.416 -0.01 -0.03    -0.251 OA
DOCKED: BRANCH  45  47
DOCKED: ATOM     47  O   UNL d   1      11.025  -0.625  17.981 -0.02 -0.11    -0.481 OA
DOCKED: ATOM     48  H   UNL d   1      10.859   0.059  17.297 +0.05 +0.09    +0.295 HD
DOCKED: ENDBRANCH  45  47
DOCKED: ENDBRANCH  44  45
DOCKED: ENDBRANCH   8  44
DOCKED: BRANCH  22  49
DOCKED: ATOM     49  C   UNL d   1       4.319  -1.693  11.222 -0.45 -0.00    +0.048 C 
DOCKED: BRANCH  49  50
DOCKED: ATOM     50  C   UNL d   1       3.863  -3.084  10.781 -0.42 +0.01    +0.125 C 
DOCKED: BRANCH  50  51
DOCKED: ATOM     51  C   UNL d   1       3.108  -3.015   9.484 -0.25 +0.04    +0.305 C 
DOCKED: ATOM     52  O   UNL d   1       1.926  -3.248   9.299 -0.26 -0.02    -0.251 OA
DOCKED: BRANCH  51  53
DOCKED: ATOM     53  O   UNL d   1       3.904  -2.659   8.456 -1.00 -0.16    -0.481 OA
DOCKED: ATOM     54  H   UNL d   1       3.304  -2.659   7.680 +0.18 +0.09    +0.295 HD
DOCKED: ENDBRANCH  51  53
DOCKED: ENDBRANCH  50  51
DOCKED: ENDBRANCH  49  50
DOCKED: ENDBRANCH  22  49
DOCKED: TORSDOF 13
DOCKED: TER
DOCKED: ENDMDL
________________________________________________________________________________


	BEGINNING GENETIC ALGORITHM DOCKING 14 of 100
Run: 14 Seed: 697198690 470767322 [ Run 14 of 100 GA/GALS ]
Beginning LAMARCKIAN GENETIC ALGORITHM (LGA), with a maximum of 25000000 energy evaluations.

Final-Value: -12.065


	FINAL GENETIC ALGORITHM DOCKED STATE
	_______________________________________________


Detailed state:  trans -10.474 4.707 13.366 quatxyzw -0.550025 -0.182342 0.737352 -0.347182 center 0.153 0.018 -0.028 ntor 13 97.1290 -163.1512 175.6993 -40.1909 -176.1564 27.9781 12.5983 -53.7997 95.2110 136.8614 -102.8217 -34.0956 -14.5796
State:	-10.474   4.707  13.366  -0.587 -0.194  0.786 -139.370     97.13 -163.15  175.70  -40.19 -176.16   27.98   12.60  -53.80   95.21  136.86 -102.82  -34.10  -14.58

DOCKED: MODEL       14
DOCKED: USER    Run = 14
DOCKED: USER    DPF = D:/Protein_go_brrr/autodock/final/mut_N102T/heme/dock.dpf
DOCKED: USER  
DOCKED: USER    Estimated Free Energy of Binding    =   -4.60 kcal/mol  [=(1)+(2)+(3)-(4)]
DOCKED: USER    Estimated Inhibition Constant, Ki   =  423.01 uM (micromolar)  [Temperature = 298.15 K]
DOCKED: USER    
DOCKED: USER    (1) Final Intermolecular Energy     =   -8.48 kcal/mol
DOCKED: USER        vdW + Hbond + desolv Energy     =   -8.24 kcal/mol
DOCKED: USER        Electrostatic Energy            =   -0.25 kcal/mol
DOCKED: USER    (2) Final Total Internal Energy     =   -3.58 kcal/mol
DOCKED: USER    (3) Torsional Free Energy           =   +3.88 kcal/mol
DOCKED: USER    (4) Unbound System's Energy  [=(2)] =   -3.58 kcal/mol
DOCKED: USER    
DOCKED: USER    
DOCKED: USER    NEWDPF move heme_opt.pdbqt
DOCKED: USER    NEWDPF about 0.153000 0.018000 -0.028000
DOCKED: USER    NEWDPF tran0 -10.473676 4.706709 13.366442
DOCKED: USER    NEWDPF quaternion0 -0.550025 -0.182342 0.737352 -0.347182
DOCKED: USER    NEWDPF axisangle0 -0.586507 -0.194437 0.786260 -139.369840
DOCKED: USER    NEWDPF quat0 -0.586507 -0.194437 0.786260 -139.369840
DOCKED: USER    NEWDPF dihe0 97.13 -163.15 175.70 -40.19 -176.16 27.98 12.60 -53.80 95.21 136.86 -102.82 -34.10 -14.58 
DOCKED: USER  keepresnum = 1 
DOCKED: USER  
DOCKED: REMARK  13 active torsions:
DOCKED: REMARK  status: ('A' for Active; 'I' for Inactive)
DOCKED: REMARK    1  A    between atoms: O_3  and  C_38 
DOCKED: REMARK    2  A    between atoms: O_4  and  C_40 
DOCKED: REMARK    3  A    between atoms: O_7  and  C_46 
DOCKED: REMARK    4  A    between atoms: O_9  and  C_48 
DOCKED: REMARK    5  A    between atoms: C_15  and  C_20 
DOCKED: REMARK    6  A    between atoms: C_16  and  C_23 
DOCKED: REMARK    7  A    between atoms: C_20  and  C_38 
DOCKED: REMARK    8  A    between atoms: C_23  and  C_40 
DOCKED: REMARK    9  A    between atoms: C_32  and  C_41 
DOCKED: REMARK   10  A    between atoms: C_37  and  C_45 
DOCKED: REMARK   11  A    between atoms: C_41  and  C_44 
DOCKED: REMARK   12  A    between atoms: C_44  and  C_46 
DOCKED: REMARK   13  A    between atoms: C_47  and  C_48 
DOCKED: USER                              x       y       z     vdW  Elec       q    Type
DOCKED: USER                           _______ _______ _______ _____ _____    ______ ____
DOCKED: ROOT
DOCKED: ATOM      1  O   UNL d   1     -10.744  -0.388  16.321 -0.31 -0.15    -0.289 OA
DOCKED: ATOM      2  O   UNL d   1      -7.075   5.990  17.820 -0.07 +0.00    -0.289 OA
DOCKED: ATOM      3  N   UNL d   1     -10.776   2.329  14.197 -0.15 -0.04    -0.247 NA
DOCKED: ATOM      4  N   UNL d   1      -9.340   4.422  15.742 +0.07 -0.05    -0.247 NA
DOCKED: ATOM      5  N   UNL d   1     -10.312   6.356  13.850 -0.13 -0.04    -0.354 N 
DOCKED: ATOM      6  N   UNL d   1     -11.815   4.182  12.264 -0.08 -0.00    -0.354 N 
DOCKED: ATOM      7  C   UNL d   1     -11.926   0.166  14.254 -0.08 +0.01    +0.084 A 
DOCKED: ATOM      8  C   UNL d   1      -7.730   3.666  17.418 -0.19 +0.01    +0.084 A 
DOCKED: ATOM      9  C   UNL d   1      -8.814   3.326  16.390 -0.16 +0.02    +0.058 A 
DOCKED: ATOM     10  C   UNL d   1     -11.693   1.511  13.560 -0.16 +0.00    +0.058 A 
DOCKED: ATOM     11  C   UNL d   1     -10.963   0.361  15.386 -0.09 +0.06    +0.193 A 
DOCKED: ATOM     12  C   UNL d   1     -10.310   1.699  15.225 -0.20 +0.03    +0.109 A 
DOCKED: ATOM     13  C   UNL d   1      -7.764   5.160  17.260 -0.12 +0.01    +0.193 A 
DOCKED: ATOM     14  C   UNL d   1     -13.342   0.050  14.823 -0.02 +0.00    +0.026 C 
DOCKED: ATOM     15  C   UNL d   1      -9.248   2.074  16.180 -0.26 +0.02    +0.055 C 
DOCKED: ATOM     16  C   UNL d   1      -6.353   3.156  16.981 -0.31 +0.01    +0.026 C 
DOCKED: ATOM     17  C   UNL d   1      -8.786   5.489  16.221 -0.13 +0.01    +0.109 A 
DOCKED: ATOM     18  C   UNL d   1     -12.278   1.805  12.383 -0.18 -0.00    +0.050 C 
DOCKED: ATOM     19  C   UNL d   1     -12.058   2.985  11.628 -0.18 -0.00    +0.045 A 
DOCKED: ATOM     20  C   UNL d   1      -9.791   7.196  14.799 -0.21 +0.00    +0.045 A 
DOCKED: ATOM     21  C   UNL d   1      -9.071   6.892  15.884 -0.21 +0.00    +0.057 C 
DOCKED: ATOM     22  C   UNL d   1     -10.903   8.442  13.240 -0.16 -0.00    -0.019 A 
DOCKED: ATOM     23  C   UNL d   1     -11.001   7.017  12.868 -0.21 +0.00    +0.045 A 
DOCKED: ATOM     24  C   UNL d   1     -10.184   8.542  14.384 -0.16 -0.00    -0.022 A 
DOCKED: ATOM     25  C   UNL d   1     -11.722   5.205  11.349 -0.03 +0.00    +0.049 A 
DOCKED: ATOM     26  C   UNL d   1     -12.087   3.230  10.264 -0.19 +0.00    -0.018 A 
DOCKED: ATOM     27  C   UNL d   1     -11.855   4.630  10.092 -0.05 -0.00    +0.003 A 
DOCKED: ATOM     28  C   UNL d   1     -11.629   6.558  11.775 -0.20 +0.00    +0.052 C 
DOCKED: ATOM     29  C   UNL d   1      -9.805   9.768  15.144 -0.11 -0.00    +0.046 C 
DOCKED: ATOM     30  C   UNL d   1     -12.314   2.228   9.184 -0.23 -0.01    +0.046 C 
DOCKED: ATOM     31  H   UNL d   1     -10.117   5.361  13.865 +0.06 +0.03    +0.166 HD
DOCKED: ATOM     32  H   UNL d   1     -11.757   4.280  13.270 +0.04 +0.01    +0.166 HD
DOCKED: ENDROOT
DOCKED: BRANCH   7  33
DOCKED: ATOM     33  C   UNL d   1     -11.547  -1.072  13.433 -0.13 -0.00    +0.141 C 
DOCKED: BRANCH  33  34
DOCKED: ATOM     34  C   UNL d   1     -10.943  -2.163  14.275 -0.10 +0.04    +0.306 C 
DOCKED: ATOM     35  O   UNL d   1      -9.842  -2.664  14.124 -0.71 -0.10    -0.251 OA
DOCKED: BRANCH  34  36
DOCKED: ATOM     36  O   UNL d   1     -11.759  -2.564  15.266 -0.02 -0.04    -0.481 OA
DOCKED: ATOM     37  H   UNL d   1     -11.585  -1.936  15.999 +0.04 +0.06    +0.295 HD
DOCKED: ENDBRANCH  34  36
DOCKED: ENDBRANCH  33  34
DOCKED: ENDBRANCH   7  33
DOCKED: BRANCH  27  38
DOCKED: ATOM     38  C   UNL d   1     -11.819   5.313   8.834 -0.29 -0.00    +0.017 C 
DOCKED: ATOM     39  C   UNL d   1     -11.552   6.617   8.668 -0.28 -0.00    +0.092 C 
DOCKED: BRANCH  39  40
DOCKED: ATOM     40  C   UNL d   1     -11.529   7.192   7.321 -0.13 -0.02    +0.330 C 
DOCKED: ATOM     41  O   UNL d   1     -12.118   6.795   6.333 -0.14 +0.01    -0.246 OA
DOCKED: BRANCH  40  42
DOCKED: ATOM     42  O   UNL d   1     -10.743   8.279   7.296 -0.13 +0.12    -0.477 OA
DOCKED: ATOM     43  H   UNL d   1     -10.210   8.202   8.114 -0.27 -0.10    +0.295 HD
DOCKED: ENDBRANCH  40  42
DOCKED: ENDBRANCH  39  40
DOCKED: ENDBRANCH  27  38
DOCKED: BRANCH   8  44
DOCKED: ATOM     44  C   UNL d   1      -8.038   3.260  18.863 -0.07 +0.01    +0.141 C 
DOCKED: BRANCH  44  45
DOCKED: ATOM     45  C   UNL d   1      -7.624   1.849  19.185 -0.07 +0.06    +0.306 C 
DOCKED: ATOM     46  O   UNL d   1      -7.604   0.904  18.415 -0.69 -0.16    -0.251 OA
DOCKED: BRANCH  45  47
DOCKED: ATOM     47  O   UNL d   1      -7.281   1.695  20.476 +0.00 -0.02    -0.481 OA
DOCKED: ATOM     48  H   UNL d   1      -7.319   2.600  20.852 +0.03 -0.00    +0.295 HD
DOCKED: ENDBRANCH  45  47
DOCKED: ENDBRANCH  44  45
DOCKED: ENDBRANCH   8  44
DOCKED: BRANCH  22  49
DOCKED: ATOM     49  C   UNL d   1     -11.526   9.562  12.460 -0.10 -0.00    +0.048 C 
DOCKED: BRANCH  49  50
DOCKED: ATOM     50  C   UNL d   1     -10.519  10.237  11.530 -0.14 -0.00    +0.125 C 
DOCKED: BRANCH  50  51
DOCKED: ATOM     51  C   UNL d   1     -10.290   9.410  10.296 -0.07 -0.02    +0.305 C 
DOCKED: ATOM     52  O   UNL d   1      -9.864   8.270  10.235 -0.18 +0.00    -0.251 OA
DOCKED: BRANCH  51  53
DOCKED: ATOM     53  O   UNL d   1     -10.606  10.083   9.172 -0.08 +0.08    -0.481 OA
DOCKED: ATOM     54  H   UNL d   1      -9.894   9.841   8.542 -0.27 -0.12    +0.295 HD
DOCKED: ENDBRANCH  51  53
DOCKED: ENDBRANCH  50  51
DOCKED: ENDBRANCH  49  50
DOCKED: ENDBRANCH  22  49
DOCKED: TORSDOF 13
DOCKED: TER
DOCKED: ENDMDL
________________________________________________________________________________


	BEGINNING GENETIC ALGORITHM DOCKING 15 of 100
Run: 15 Seed: 2049682940 1482952508 [ Run 15 of 100 GA/GALS ]
Beginning LAMARCKIAN GENETIC ALGORITHM (LGA), with a maximum of 25000000 energy evaluations.

Final-Value: -10.999


	FINAL GENETIC ALGORITHM DOCKED STATE
	_______________________________________________


Detailed state:  trans 14.174 4.401 -12.017 quatxyzw -0.190047 0.655742 0.167977 0.711104 center 0.153 0.018 -0.028 ntor 13 122.3227 -10.2213 168.2483 53.1875 -132.7937 34.1733 152.9467 95.9528 26.5809 -6.1678 71.1293 -174.1986 179.1479
State:	 14.174   4.401 -12.017  -0.270  0.933  0.239 89.350    122.32  -10.22  168.25   53.19 -132.79   34.17  152.95   95.95   26.58   -6.17   71.13 -174.20  179.15

DOCKED: MODEL       15
DOCKED: USER    Run = 15
DOCKED: USER    DPF = D:/Protein_go_brrr/autodock/final/mut_N102T/heme/dock.dpf
DOCKED: USER  
DOCKED: USER    Estimated Free Energy of Binding    =   -4.59 kcal/mol  [=(1)+(2)+(3)-(4)]
DOCKED: USER    Estimated Inhibition Constant, Ki   =  432.73 uM (micromolar)  [Temperature = 298.15 K]
DOCKED: USER    
DOCKED: USER    (1) Final Intermolecular Energy     =   -8.47 kcal/mol
DOCKED: USER        vdW + Hbond + desolv Energy     =   -8.18 kcal/mol
DOCKED: USER        Electrostatic Energy            =   -0.29 kcal/mol
DOCKED: USER    (2) Final Total Internal Energy     =   -2.53 kcal/mol
DOCKED: USER    (3) Torsional Free Energy           =   +3.88 kcal/mol
DOCKED: USER    (4) Unbound System's Energy  [=(2)] =   -2.53 kcal/mol
DOCKED: USER    
DOCKED: USER    
DOCKED: USER    NEWDPF move heme_opt.pdbqt
DOCKED: USER    NEWDPF about 0.153000 0.018000 -0.028000
DOCKED: USER    NEWDPF tran0 14.174381 4.400731 -12.017259
DOCKED: USER    NEWDPF quaternion0 -0.190047 0.655742 0.167977 0.711104
DOCKED: USER    NEWDPF axisangle0 -0.270303 0.932661 0.238913 89.350451
DOCKED: USER    NEWDPF quat0 -0.270303 0.932661 0.238913 89.350451
DOCKED: USER    NEWDPF dihe0 122.32 -10.22 168.25 53.19 -132.79 34.17 152.95 95.95 26.58 -6.17 71.13 -174.20 179.15 
DOCKED: USER  keepresnum = 1 
DOCKED: USER  
DOCKED: REMARK  13 active torsions:
DOCKED: REMARK  status: ('A' for Active; 'I' for Inactive)
DOCKED: REMARK    1  A    between atoms: O_3  and  C_38 
DOCKED: REMARK    2  A    between atoms: O_4  and  C_40 
DOCKED: REMARK    3  A    between atoms: O_7  and  C_46 
DOCKED: REMARK    4  A    between atoms: O_9  and  C_48 
DOCKED: REMARK    5  A    between atoms: C_15  and  C_20 
DOCKED: REMARK    6  A    between atoms: C_16  and  C_23 
DOCKED: REMARK    7  A    between atoms: C_20  and  C_38 
DOCKED: REMARK    8  A    between atoms: C_23  and  C_40 
DOCKED: REMARK    9  A    between atoms: C_32  and  C_41 
DOCKED: REMARK   10  A    between atoms: C_37  and  C_45 
DOCKED: REMARK   11  A    between atoms: C_41  and  C_44 
DOCKED: REMARK   12  A    between atoms: C_44  and  C_46 
DOCKED: REMARK   13  A    between atoms: C_47  and  C_48 
DOCKED: USER                              x       y       z     vdW  Elec       q    Type
DOCKED: USER                           _______ _______ _______ _____ _____    ______ ____
DOCKED: ROOT
DOCKED: ATOM      1  O   UNL d   1      13.042   8.579 -16.019 -0.06 -0.00    -0.289 OA
DOCKED: ATOM      2  O   UNL d   1      15.576   1.554 -16.810 -0.01 +0.01    -0.289 OA
DOCKED: ATOM      3  N   UNL d   1      13.691   6.514 -13.334 -0.15 +0.05    -0.247 NA
DOCKED: ATOM      4  N   UNL d   1      14.338   3.912 -14.615 -0.03 +0.07    -0.247 NA
DOCKED: ATOM      5  N   UNL d   1      14.065   2.678 -12.032 +0.23 +0.13    -0.354 N 
DOCKED: ATOM      6  N   UNL d   1      13.375   5.379 -10.715 -0.21 +0.13    -0.354 N 
DOCKED: ATOM      7  C   UNL d   1      12.705   8.741 -13.604 -0.16 -0.01    +0.084 A 
DOCKED: ATOM      8  C   UNL d   1      15.229   3.976 -16.889 -0.03 -0.00    +0.084 A 
DOCKED: ATOM      9  C   UNL d   1      14.630   4.720 -15.691 -0.09 -0.01    +0.058 A 
DOCKED: ATOM     10  C   UNL d   1      13.120   7.593 -12.680 -0.21 -0.01    +0.058 A 
DOCKED: ATOM     11  C   UNL d   1      13.158   8.128 -14.894 -0.11 -0.01    +0.193 A 
DOCKED: ATOM     12  C   UNL d   1      13.762   6.791 -14.595 -0.15 -0.01    +0.109 A 
DOCKED: ATOM     13  C   UNL d   1      15.189   2.591 -16.307 -0.03 -0.01    +0.193 A 
DOCKED: ATOM     14  C   UNL d   1      11.185   8.922 -13.649 -0.15 -0.00    +0.026 C 
DOCKED: ATOM     15  C   UNL d   1      14.366   6.035 -15.711 -0.11 -0.00    +0.055 C 
DOCKED: ATOM     16  C   UNL d   1      16.691   4.367 -17.127 -0.01 -0.00    +0.026 C 
DOCKED: ATOM     17  C   UNL d   1      14.621   2.688 -14.929 -0.08 -0.02    +0.109 A 
DOCKED: ATOM     18  C   UNL d   1      13.011   7.692 -11.342 -0.26 -0.01    +0.050 C 
DOCKED: ATOM     19  C   UNL d   1      13.445   6.718 -10.407 -0.31 -0.01    +0.045 A 
DOCKED: ATOM     20  C   UNL d   1      14.150   1.559 -12.819 -0.07 -0.01    +0.045 A 
DOCKED: ATOM     21  C   UNL d   1      14.421   1.473 -14.126 -0.11 -0.01    +0.057 C 
DOCKED: ATOM     22  C   UNL d   1      13.654   0.922 -10.683 -0.16 +0.00    -0.019 A 
DOCKED: ATOM     23  C   UNL d   1      13.769   2.394 -10.726 -0.19 -0.01    +0.045 A 
DOCKED: ATOM     24  C   UNL d   1      13.882   0.434 -11.925 -0.13 +0.00    -0.022 A 
DOCKED: ATOM     25  C   UNL d   1      13.759   4.614  -9.638 -0.24 -0.02    +0.049 A 
DOCKED: ATOM     26  C   UNL d   1      13.922   6.828  -9.110 -0.27 +0.00    -0.018 A 
DOCKED: ATOM     27  C   UNL d   1      14.138   5.497  -8.636 -0.25 -0.00    +0.003 A 
DOCKED: ATOM     28  C   UNL d   1      13.622   3.199  -9.663 -0.28 -0.02    +0.052 C 
DOCKED: ATOM     29  C   UNL d   1      13.889  -0.985 -12.383 -0.07 -0.00    +0.046 C 
DOCKED: ATOM     30  C   UNL d   1      14.166   8.091  -8.355 -0.20 -0.01    +0.046 C 
DOCKED: ATOM     31  H   UNL d   1      14.286   3.598 -12.399 -0.44 -0.08    +0.166 HD
DOCKED: ATOM     32  H   UNL d   1      13.043   5.025 -11.605 -0.37 -0.09    +0.166 HD
DOCKED: ENDROOT
DOCKED: BRANCH   7  33
DOCKED: ATOM     33  C   UNL d   1      13.422  10.073 -13.360 -0.05 -0.01    +0.141 C 
DOCKED: BRANCH  33  34
DOCKED: ATOM     34  C   UNL d   1      14.843  10.065 -13.855 -0.01 -0.02    +0.306 C 
DOCKED: ATOM     35  O   UNL d   1      15.799   9.559 -13.293 -0.01 +0.02    -0.251 OA
DOCKED: BRANCH  34  36
DOCKED: ATOM     36  O   UNL d   1      14.983  10.694 -15.036 +0.00 +0.03    -0.481 OA
DOCKED: ATOM     37  H   UNL d   1      14.405  10.194 -15.652 +0.02 -0.01    +0.295 HD
DOCKED: ENDBRANCH  34  36
DOCKED: ENDBRANCH  33  34
DOCKED: ENDBRANCH   7  33
DOCKED: BRANCH  27  38
DOCKED: ATOM     38  C   UNL d   1      14.615   5.152  -7.331 -0.28 -0.00    +0.017 C 
DOCKED: ATOM     39  C   UNL d   1      14.218   5.725  -6.185 -0.33 -0.01    +0.092 C 
DOCKED: BRANCH  39  40
DOCKED: ATOM     40  C   UNL d   1      14.773   5.267  -4.909 -0.28 -0.11    +0.330 C 
DOCKED: ATOM     41  O   UNL d   1      15.888   4.830  -4.697 -0.14 +0.08    -0.246 OA
DOCKED: BRANCH  40  42
DOCKED: ATOM     42  O   UNL d   1      13.860   5.399  -3.934 -0.67 +0.26    -0.477 OA
DOCKED: ATOM     43  H   UNL d   1      14.254   4.920  -3.177 -0.11 -0.49    +0.295 HD
DOCKED: ENDBRANCH  40  42
DOCKED: ENDBRANCH  39  40
DOCKED: ENDBRANCH  27  38
DOCKED: BRANCH   8  44
DOCKED: ATOM     44  C   UNL d   1      14.417   4.051 -18.186 -0.03 -0.00    +0.141 C 
DOCKED: BRANCH  44  45
DOCKED: ATOM     45  C   UNL d   1      12.999   3.570 -18.027 -0.04 +0.00    +0.306 C 
DOCKED: ATOM     46  O   UNL d   1      11.993   4.257 -18.039 -0.10 -0.02    -0.251 OA
DOCKED: BRANCH  45  47
DOCKED: ATOM     47  O   UNL d   1      12.925   2.241 -17.834 -0.00 +0.01    -0.481 OA
DOCKED: ATOM     48  H   UNL d   1      13.821   1.908 -18.053 +0.04 -0.01    +0.295 HD
DOCKED: ENDBRANCH  45  47
DOCKED: ENDBRANCH  44  45
DOCKED: ENDBRANCH   8  44
DOCKED: BRANCH  22  49
DOCKED: ATOM     49  C   UNL d   1      13.321   0.139  -9.447 -0.16 -0.01    +0.048 C 
DOCKED: BRANCH  49  50
DOCKED: ATOM     50  C   UNL d   1      11.828  -0.179  -9.360 -0.29 -0.02    +0.125 C 
DOCKED: BRANCH  50  51
DOCKED: ATOM     51  C   UNL d   1      11.167   0.640  -8.288 -0.23 -0.08    +0.305 C 
DOCKED: ATOM     52  O   UNL d   1      10.659   1.741  -8.400 -0.52 +0.10    -0.251 OA
DOCKED: BRANCH  51  53
DOCKED: ATOM     53  O   UNL d   1      11.191   0.017  -7.092 -0.21 +0.01    -0.481 OA
DOCKED: ATOM     54  H   UNL d   1      10.255   0.024  -6.802 -0.07 -0.03    +0.295 HD
DOCKED: ENDBRANCH  51  53
DOCKED: ENDBRANCH  50  51
DOCKED: ENDBRANCH  49  50
DOCKED: ENDBRANCH  22  49
DOCKED: TORSDOF 13
DOCKED: TER
DOCKED: ENDMDL
________________________________________________________________________________


	BEGINNING GENETIC ALGORITHM DOCKING 16 of 100
Run: 16 Seed: 693207948 1604465104 [ Run 16 of 100 GA/GALS ]
Beginning LAMARCKIAN GENETIC ALGORITHM (LGA), with a maximum of 25000000 energy evaluations.

Final-Value: -14.503


	FINAL GENETIC ALGORITHM DOCKED STATE
	_______________________________________________


Detailed state:  trans 4.534 14.521 -11.531 quatxyzw -0.840103 0.016282 -0.339465 -0.422760 center 0.153 0.018 -0.028 ntor 13 -161.8583 54.6939 -161.0021 -100.3870 -141.2548 -167.7424 137.0582 -86.4825 175.8250 -9.8340 -78.1473 25.6702 1.3330
State:	  4.534  14.521 -11.531  -0.927  0.018 -0.375 -129.982   -161.86   54.69 -161.00 -100.39 -141.25 -167.74  137.06  -86.48  175.82   -9.83  -78.15   25.67    1.33

DOCKED: MODEL       16
DOCKED: USER    Run = 16
DOCKED: USER    DPF = D:/Protein_go_brrr/autodock/final/mut_N102T/heme/dock.dpf
DOCKED: USER  
DOCKED: USER    Estimated Free Energy of Binding    =   -8.69 kcal/mol  [=(1)+(2)+(3)-(4)]
DOCKED: USER    Estimated Inhibition Constant, Ki   =  427.43 nM (nanomolar)  [Temperature = 298.15 K]
DOCKED: USER    
DOCKED: USER    (1) Final Intermolecular Energy     =  -12.57 kcal/mol
DOCKED: USER        vdW + Hbond + desolv Energy     =  -11.46 kcal/mol
DOCKED: USER        Electrostatic Energy            =   -1.11 kcal/mol
DOCKED: USER    (2) Final Total Internal Energy     =   -1.94 kcal/mol
DOCKED: USER    (3) Torsional Free Energy           =   +3.88 kcal/mol
DOCKED: USER    (4) Unbound System's Energy  [=(2)] =   -1.94 kcal/mol
DOCKED: USER    
DOCKED: USER    
DOCKED: USER    NEWDPF move heme_opt.pdbqt
DOCKED: USER    NEWDPF about 0.153000 0.018000 -0.028000
DOCKED: USER    NEWDPF tran0 4.533616 14.521453 -11.531289
DOCKED: USER    NEWDPF quaternion0 -0.840103 0.016282 -0.339465 -0.422760
DOCKED: USER    NEWDPF axisangle0 -0.927018 0.017966 -0.374586 -129.982129
DOCKED: USER    NEWDPF quat0 -0.927018 0.017966 -0.374586 -129.982129
DOCKED: USER    NEWDPF dihe0 -161.86 54.69 -161.00 -100.39 -141.25 -167.74 137.06 -86.48 175.82 -9.83 -78.15 25.67 1.33 
DOCKED: USER  keepresnum = 1 
DOCKED: USER  
DOCKED: REMARK  13 active torsions:
DOCKED: REMARK  status: ('A' for Active; 'I' for Inactive)
DOCKED: REMARK    1  A    between atoms: O_3  and  C_38 
DOCKED: REMARK    2  A    between atoms: O_4  and  C_40 
DOCKED: REMARK    3  A    between atoms: O_7  and  C_46 
DOCKED: REMARK    4  A    between atoms: O_9  and  C_48 
DOCKED: REMARK    5  A    between atoms: C_15  and  C_20 
DOCKED: REMARK    6  A    between atoms: C_16  and  C_23 
DOCKED: REMARK    7  A    between atoms: C_20  and  C_38 
DOCKED: REMARK    8  A    between atoms: C_23  and  C_40 
DOCKED: REMARK    9  A    between atoms: C_32  and  C_41 
DOCKED: REMARK   10  A    between atoms: C_37  and  C_45 
DOCKED: REMARK   11  A    between atoms: C_41  and  C_44 
DOCKED: REMARK   12  A    between atoms: C_44  and  C_46 
DOCKED: REMARK   13  A    between atoms: C_47  and  C_48 
DOCKED: USER                              x       y       z     vdW  Elec       q    Type
DOCKED: USER                           _______ _______ _______ _____ _____    ______ ____
DOCKED: ROOT
DOCKED: ATOM      1  O   UNL d   1       1.036  15.654 -16.140 -0.72 -0.10    -0.289 OA
DOCKED: ATOM      2  O   UNL d   1       0.310  17.364  -8.864 -0.13 +0.06    -0.289 OA
DOCKED: ATOM      3  N   UNL d   1       3.309  14.648 -13.749 -0.20 +0.07    -0.247 NA
DOCKED: ATOM      4  N   UNL d   1       2.367  16.024 -11.289 -0.15 +0.08    -0.247 NA
DOCKED: ATOM      5  N   UNL d   1       4.885  15.367 -10.068 -0.10 +0.14    -0.354 N 
DOCKED: ATOM      6  N   UNL d   1       5.863  13.959 -12.630 +0.06 +0.18    -0.354 N 
DOCKED: ATOM      7  C   UNL d   1       3.200  14.518 -16.194 -0.25 -0.01    +0.084 A 
DOCKED: ATOM      8  C   UNL d   1      -0.008  16.587 -11.163 -0.17 -0.01    +0.084 A 
DOCKED: ATOM      9  C   UNL d   1       1.172  16.041 -11.974 -0.22 -0.01    +0.058 A 
DOCKED: ATOM     10  C   UNL d   1       3.960  14.228 -14.896 -0.25 -0.02    +0.058 A 
DOCKED: ATOM     11  C   UNL d   1       1.995  15.161 -15.575 -0.22 +0.02    +0.193 A 
DOCKED: ATOM     12  C   UNL d   1       2.169  15.157 -14.088 -0.24 -0.01    +0.109 A 
DOCKED: ATOM     13  C   UNL d   1       0.746  16.912  -9.905 -0.13 -0.05    +0.193 A 
DOCKED: ATOM     14  C   UNL d   1       3.921  15.552 -17.063 -0.10 -0.00    +0.026 C 
DOCKED: ATOM     15  C   UNL d   1       1.058  15.661 -13.256 -0.20 -0.00    +0.055 C 
DOCKED: ATOM     16  C   UNL d   1      -1.037  15.496 -10.853 -0.30 -0.00    +0.026 C 
DOCKED: ATOM     17  C   UNL d   1       2.175  16.530 -10.113 -0.15 -0.04    +0.109 A 
DOCKED: ATOM     18  C   UNL d   1       5.117  13.539 -14.898 -0.28 -0.03    +0.050 C 
DOCKED: ATOM     19  C   UNL d   1       5.845  13.151 -13.745 -0.24 -0.02    +0.045 A 
DOCKED: ATOM     20  C   UNL d   1       4.383  16.225  -9.125 -0.20 -0.02    +0.045 A 
DOCKED: ATOM     21  C   UNL d   1       3.167  16.776  -9.056 -0.24 -0.02    +0.057 C 
DOCKED: ATOM     22  C   UNL d   1       6.539  15.707  -8.577 -0.13 +0.01    -0.019 A 
DOCKED: ATOM     23  C   UNL d   1       6.181  14.999  -9.823 -0.18 -0.02    +0.045 A 
DOCKED: ATOM     24  C   UNL d   1       5.470  16.430  -8.168 -0.12 +0.01    -0.022 A 
DOCKED: ATOM     25  C   UNL d   1       6.698  13.438 -11.669 -0.09 -0.02    +0.049 A 
DOCKED: ATOM     26  C   UNL d   1       6.660  12.060 -13.488 -0.30 +0.01    -0.018 A 
DOCKED: ATOM     27  C   UNL d   1       7.180  12.237 -12.169 -0.28 -0.00    +0.003 A 
DOCKED: ATOM     28  C   UNL d   1       7.002  14.174 -10.491 -0.19 -0.02    +0.052 C 
DOCKED: ATOM     29  C   UNL d   1       5.337  17.298  -6.964 -0.09 -0.02    +0.046 C 
DOCKED: ATOM     30  C   UNL d   1       6.938  10.920 -14.408 -0.19 -0.03    +0.046 C 
DOCKED: ATOM     31  H   UNL d   1       4.300  15.002 -10.812 -0.21 -0.09    +0.166 HD
DOCKED: ATOM     32  H   UNL d   1       5.355  14.834 -12.564 -0.04 -0.07    +0.166 HD
DOCKED: ENDROOT
DOCKED: BRANCH   7  33
DOCKED: ATOM     33  C   UNL d   1       2.793  13.285 -17.007 -0.33 -0.04    +0.141 C 
DOCKED: BRANCH  33  34
DOCKED: ATOM     34  C   UNL d   1       3.040  13.456 -18.482 -0.20 -0.05    +0.306 C 
DOCKED: ATOM     35  O   UNL d   1       2.273  13.954 -19.288 -0.21 -0.03    -0.251 OA
DOCKED: BRANCH  34  36
DOCKED: ATOM     36  O   UNL d   1       4.244  12.992 -18.862 -0.07 +0.26    -0.481 OA
DOCKED: ATOM     37  H   UNL d   1       4.541  12.433 -18.113 -0.35 -0.41    +0.295 HD
DOCKED: ENDBRANCH  34  36
DOCKED: ENDBRANCH  33  34
DOCKED: ENDBRANCH   7  33
DOCKED: BRANCH  27  38
DOCKED: ATOM     38  C   UNL d   1       8.083  11.341 -11.511 -0.32 -0.01    +0.017 C 
DOCKED: ATOM     39  C   UNL d   1       7.819  10.665 -10.382 -0.41 -0.03    +0.092 C 
DOCKED: BRANCH  39  40
DOCKED: ATOM     40  C   UNL d   1       8.826   9.763  -9.818 -0.25 -0.10    +0.330 C 
DOCKED: ATOM     41  O   UNL d   1       8.684   8.961  -8.915 -1.02 +0.02    -0.246 OA
DOCKED: BRANCH  40  42
DOCKED: ATOM     42  O   UNL d   1       9.997   9.922 -10.455 -0.10 +0.19    -0.477 OA
DOCKED: ATOM     43  H   UNL d   1      10.225   9.018 -10.756 -0.40 -0.24    +0.295 HD
DOCKED: ENDBRANCH  40  42
DOCKED: ENDBRANCH  39  40
DOCKED: ENDBRANCH  27  38
DOCKED: BRANCH   8  44
DOCKED: ATOM     44  C   UNL d   1      -0.681  17.838 -11.738 -0.05 -0.00    +0.141 C 
DOCKED: BRANCH  44  45
DOCKED: ATOM     45  C   UNL d   1       0.256  19.007 -11.876 +0.00 -0.01    +0.306 C 
DOCKED: ATOM     46  O   UNL d   1       0.902  19.309 -12.865 -0.00 -0.00    -0.251 OA
DOCKED: BRANCH  45  47
DOCKED: ATOM     47  O   UNL d   1       0.353  19.726 -10.743 +0.01 +0.02    -0.481 OA
DOCKED: ATOM     48  H   UNL d   1       0.014  19.130 -10.041 +0.04 -0.02    +0.295 HD
DOCKED: ENDBRANCH  45  47
DOCKED: ENDBRANCH  44  45
DOCKED: ENDBRANCH   8  44
DOCKED: BRANCH  22  49
DOCKED: ATOM     49  C   UNL d   1       7.884  15.623  -7.917 -0.11 -0.03    +0.048 C 
DOCKED: BRANCH  49  50
DOCKED: ATOM     50  C   UNL d   1       8.017  14.369  -7.054 -0.10 -0.15    +0.125 C 
DOCKED: BRANCH  50  51
DOCKED: ATOM     51  C   UNL d   1       8.836  13.320  -7.752 -0.09 -0.33    +0.305 C 
DOCKED: ATOM     52  O   UNL d   1       8.435  12.414  -8.461 -0.74 +0.14    -0.251 OA
DOCKED: BRANCH  51  53
DOCKED: ATOM     53  O   UNL d   1      10.153  13.463  -7.505 -0.05 +0.65    -0.481 OA
DOCKED: ATOM     54  H   UNL d   1      10.273  13.072  -6.614 -0.46 -0.91    +0.295 HD
DOCKED: ENDBRANCH  51  53
DOCKED: ENDBRANCH  50  51
DOCKED: ENDBRANCH  49  50
DOCKED: ENDBRANCH  22  49
DOCKED: TORSDOF 13
DOCKED: TER
DOCKED: ENDMDL
________________________________________________________________________________


	BEGINNING GENETIC ALGORITHM DOCKING 17 of 100
Run: 17 Seed: 294019375 655742000 [ Run 17 of 100 GA/GALS ]
Beginning LAMARCKIAN GENETIC ALGORITHM (LGA), with a maximum of 25000000 energy evaluations.

Final-Value: -9.385


	FINAL GENETIC ALGORITHM DOCKED STATE
	_______________________________________________


Detailed state:  trans 13.216 -10.340 -2.638 quatxyzw 0.788065 -0.313647 -0.524024 0.077320 center 0.153 0.018 -0.028 ntor 13 -136.1025 -13.3632 -165.2431 -39.0246 40.9226 -80.9356 141.6219 96.2178 146.6057 -4.5826 -161.0872 179.7496 166.7906
State:	 13.216 -10.340  -2.638   0.790 -0.315 -0.526 171.131   -136.10  -13.36 -165.24  -39.02   40.92  -80.94  141.62   96.22  146.61   -4.58 -161.09  179.75  166.79

DOCKED: MODEL       17
DOCKED: USER    Run = 17
DOCKED: USER    DPF = D:/Protein_go_brrr/autodock/final/mut_N102T/heme/dock.dpf
DOCKED: USER  
DOCKED: USER    Estimated Free Energy of Binding    =   -3.09 kcal/mol  [=(1)+(2)+(3)-(4)]
DOCKED: USER    Estimated Inhibition Constant, Ki   =    5.39 mM (millimolar)  [Temperature = 298.15 K]
DOCKED: USER    
DOCKED: USER    (1) Final Intermolecular Energy     =   -6.97 kcal/mol
DOCKED: USER        vdW + Hbond + desolv Energy     =   -6.82 kcal/mol
DOCKED: USER        Electrostatic Energy            =   -0.15 kcal/mol
DOCKED: USER    (2) Final Total Internal Energy     =   -2.41 kcal/mol
DOCKED: USER    (3) Torsional Free Energy           =   +3.88 kcal/mol
DOCKED: USER    (4) Unbound System's Energy  [=(2)] =   -2.41 kcal/mol
DOCKED: USER    
DOCKED: USER    
DOCKED: USER    NEWDPF move heme_opt.pdbqt
DOCKED: USER    NEWDPF about 0.153000 0.018000 -0.028000
DOCKED: USER    NEWDPF tran0 13.215578 -10.339963 -2.637591
DOCKED: USER    NEWDPF quaternion0 0.788065 -0.313647 -0.524024 0.077320
DOCKED: USER    NEWDPF axisangle0 0.790431 -0.314588 -0.525597 171.130958
DOCKED: USER    NEWDPF quat0 0.790431 -0.314588 -0.525597 171.130958
DOCKED: USER    NEWDPF dihe0 -136.10 -13.36 -165.24 -39.02 40.92 -80.94 141.62 96.22 146.61 -4.58 -161.09 179.75 166.79 
DOCKED: USER  keepresnum = 1 
DOCKED: USER  
DOCKED: REMARK  13 active torsions:
DOCKED: REMARK  status: ('A' for Active; 'I' for Inactive)
DOCKED: REMARK    1  A    between atoms: O_3  and  C_38 
DOCKED: REMARK    2  A    between atoms: O_4  and  C_40 
DOCKED: REMARK    3  A    between atoms: O_7  and  C_46 
DOCKED: REMARK    4  A    between atoms: O_9  and  C_48 
DOCKED: REMARK    5  A    between atoms: C_15  and  C_20 
DOCKED: REMARK    6  A    between atoms: C_16  and  C_23 
DOCKED: REMARK    7  A    between atoms: C_20  and  C_38 
DOCKED: REMARK    8  A    between atoms: C_23  and  C_40 
DOCKED: REMARK    9  A    between atoms: C_32  and  C_41 
DOCKED: REMARK   10  A    between atoms: C_37  and  C_45 
DOCKED: REMARK   11  A    between atoms: C_41  and  C_44 
DOCKED: REMARK   12  A    between atoms: C_44  and  C_46 
DOCKED: REMARK   13  A    between atoms: C_47  and  C_48 
DOCKED: USER                              x       y       z     vdW  Elec       q    Type
DOCKED: USER                           _______ _______ _______ _____ _____    ______ ____
DOCKED: ROOT
DOCKED: ATOM      1  O   UNL d   1      10.315  -9.065   2.334 -0.09 +0.05    -0.289 OA
DOCKED: ATOM      2  O   UNL d   1      16.556  -6.119  -0.624 -0.00 +0.07    -0.289 OA
DOCKED: ATOM      3  N   UNL d   1      11.739 -10.244  -0.578 -0.08 +0.20    -0.247 NA
DOCKED: ATOM      4  N   UNL d   1      13.931  -8.307  -1.099 -0.01 +0.30    -0.247 NA
DOCKED: ATOM      5  N   UNL d   1      14.140  -9.399  -3.751 -0.05 +0.35    -0.354 N 
DOCKED: ATOM      6  N   UNL d   1      11.852 -11.392  -3.208 -0.11 +0.18    -0.354 N 
DOCKED: ATOM      7  C   UNL d   1       9.673 -10.719   0.652 -0.24 -0.03    +0.084 A 
DOCKED: ATOM      8  C   UNL d   1      14.867  -7.133   0.829 -0.03 -0.03    +0.084 A 
DOCKED: ATOM      9  C   UNL d   1      13.814  -8.086   0.255 -0.06 -0.04    +0.058 A 
DOCKED: ATOM     10  C   UNL d   1      10.574 -10.993  -0.556 -0.21 -0.03    +0.058 A 
DOCKED: ATOM     11  C   UNL d   1      10.543  -9.697   1.319 -0.11 -0.07    +0.193 A 
DOCKED: ATOM     12  C   UNL d   1      11.777  -9.515   0.490 -0.08 -0.08    +0.109 A 
DOCKED: ATOM     13  C   UNL d   1      15.580  -6.824  -0.457 -0.02 -0.08    +0.193 A 
DOCKED: ATOM     14  C   UNL d   1       8.353 -10.057   0.246 -0.50 -0.01    +0.026 C 
DOCKED: ATOM     15  C   UNL d   1      12.833  -8.617   1.001 -0.10 -0.03    +0.055 C 
DOCKED: ATOM     16  C   UNL d   1      15.837  -7.856   1.768 -0.01 -0.00    +0.026 C 
DOCKED: ATOM     17  C   UNL d   1      14.911  -7.592  -1.550 -0.07 -0.09    +0.109 A 
DOCKED: ATOM     18  C   UNL d   1      10.275 -11.950  -1.453 -0.28 -0.02    +0.050 C 
DOCKED: ATOM     19  C   UNL d   1      11.088 -12.330  -2.552 -0.21 -0.01    +0.045 A 
DOCKED: ATOM     20  C   UNL d   1      14.954  -8.304  -3.882 -0.04 -0.04    +0.045 A 
DOCKED: ATOM     21  C   UNL d   1      15.371  -7.452  -2.940 -0.08 -0.04    +0.057 C 
DOCKED: ATOM     22  C   UNL d   1      14.686  -9.274  -5.932 -0.09 +0.01    -0.019 A 
DOCKED: ATOM     23  C   UNL d   1      13.920 -10.049  -4.936 -0.14 -0.03    +0.045 A 
DOCKED: ATOM     24  C   UNL d   1      15.297  -8.243  -5.302 -0.07 +0.01    -0.022 A 
DOCKED: ATOM     25  C   UNL d   1      12.486 -11.956  -4.290 -0.17 -0.02    +0.049 A 
DOCKED: ATOM     26  C   UNL d   1      11.258 -13.543  -3.202 -0.18 +0.00    -0.018 A 
DOCKED: ATOM     27  C   UNL d   1      12.157 -13.305  -4.287 -0.15 -0.00    +0.003 A 
DOCKED: ATOM     28  C   UNL d   1      13.208 -11.152  -5.213 -0.14 -0.02    +0.052 C 
DOCKED: ATOM     29  C   UNL d   1      16.187  -7.194  -5.877 -0.03 -0.02    +0.046 C 
DOCKED: ATOM     30  C   UNL d   1      10.626 -14.844  -2.839 -0.19 -0.01    +0.046 C 
DOCKED: ATOM     31  H   UNL d   1      13.820  -9.710  -2.840 +0.02 -0.16    +0.166 HD
DOCKED: ATOM     32  H   UNL d   1      11.895 -10.416  -2.938 +0.06 -0.15    +0.166 HD
DOCKED: ENDROOT
DOCKED: BRANCH   7  33
DOCKED: ATOM     33  C   UNL d   1       9.439 -11.915   1.582 -0.22 -0.03    +0.141 C 
DOCKED: BRANCH  33  34
DOCKED: ATOM     34  C   UNL d   1       8.297 -11.692   2.536 -0.32 -0.01    +0.306 C 
DOCKED: ATOM     35  O   UNL d   1       7.143 -12.051   2.375 -0.94 -0.01    -0.251 OA
DOCKED: BRANCH  34  36
DOCKED: ATOM     36  O   UNL d   1       8.670 -11.030   3.646 -0.16 -0.04    -0.481 OA
DOCKED: ATOM     37  H   UNL d   1       9.278 -10.331   3.323 +0.15 +0.00    +0.295 HD
DOCKED: ENDBRANCH  34  36
DOCKED: ENDBRANCH  33  34
DOCKED: ENDBRANCH   7  33
DOCKED: BRANCH  27  38
DOCKED: ATOM     38  C   UNL d   1      12.593 -14.291  -5.229 -0.13 -0.00    +0.017 C 
DOCKED: ATOM     39  C   UNL d   1      11.835 -15.287  -5.714 -0.12 -0.02    +0.092 C 
DOCKED: BRANCH  39  40
DOCKED: ATOM     40  C   UNL d   1      12.398 -16.224  -6.690 -0.05 -0.04    +0.330 C 
DOCKED: ATOM     41  O   UNL d   1      12.496 -16.074  -7.893 -0.08 +0.03    -0.246 OA
DOCKED: BRANCH  40  42
DOCKED: ATOM     42  O   UNL d   1      12.830 -17.333  -6.070 +0.00 +0.04    -0.477 OA
DOCKED: ATOM     43  H   UNL d   1      12.976 -17.969  -6.800 +0.02 -0.02    +0.295 HD
DOCKED: ENDBRANCH  40  42
DOCKED: ENDBRANCH  39  40
DOCKED: ENDBRANCH  27  38
DOCKED: BRANCH   8  44
DOCKED: ATOM     44  C   UNL d   1      14.320  -5.855   1.474 -0.05 -0.03    +0.141 C 
DOCKED: BRANCH  44  45
DOCKED: ATOM     45  C   UNL d   1      13.417  -5.069   0.561 -0.12 -0.12    +0.306 C 
DOCKED: ATOM     46  O   UNL d   1      12.198  -5.097   0.544 -0.26 +0.13    -0.251 OA
DOCKED: BRANCH  45  47
DOCKED: ATOM     47  O   UNL d   1      14.102  -4.303  -0.307 -0.03 +0.15    -0.481 OA
DOCKED: ATOM     48  H   UNL d   1      15.023  -4.637  -0.259 +0.06 -0.08    +0.295 HD
DOCKED: ENDBRANCH  45  47
DOCKED: ENDBRANCH  44  45
DOCKED: ENDBRANCH   8  44
DOCKED: BRANCH  22  49
DOCKED: ATOM     49  C   UNL d   1      14.737  -9.601  -7.396 -0.08 -0.01    +0.048 C 
DOCKED: BRANCH  49  50
DOCKED: ATOM     50  C   UNL d   1      13.534  -9.033  -8.148 -0.14 -0.03    +0.125 C 
DOCKED: BRANCH  50  51
DOCKED: ATOM     51  C   UNL d   1      12.887  -7.925  -7.366 -0.15 -0.16    +0.305 C 
DOCKED: ATOM     52  O   UNL d   1      13.143  -6.735  -7.414 -0.15 +0.13    -0.251 OA
DOCKED: BRANCH  51  53
DOCKED: ATOM     53  O   UNL d   1      11.934  -8.386  -6.533 -0.14 +0.40    -0.481 OA
DOCKED: ATOM     54  H   UNL d   1      12.047  -7.849  -5.721 -0.42 -0.59    +0.295 HD
DOCKED: ENDBRANCH  51  53
DOCKED: ENDBRANCH  50  51
DOCKED: ENDBRANCH  49  50
DOCKED: ENDBRANCH  22  49
DOCKED: TORSDOF 13
DOCKED: TER
DOCKED: ENDMDL
________________________________________________________________________________


	BEGINNING GENETIC ALGORITHM DOCKING 18 of 100
Run: 18 Seed: 722262833 1327157333 [ Run 18 of 100 GA/GALS ]
Beginning LAMARCKIAN GENETIC ALGORITHM (LGA), with a maximum of 25000000 energy evaluations.

Final-Value: -13.431


	FINAL GENETIC ALGORITHM DOCKED STATE
	_______________________________________________


Detailed state:  trans 4.765 14.191 -11.353 quatxyzw 0.791669 -0.004144 0.411736 0.451349 center 0.153 0.018 -0.028 ntor 13 92.4765 -57.5021 -140.7149 99.4794 179.9170 109.6327 129.2306 -81.8221 99.3589 -12.3709 -58.1208 -18.4491 -168.3444
State:	  4.765  14.191 -11.353   0.887 -0.005  0.461 126.339     92.48  -57.50 -140.71   99.48  179.92  109.63  129.23  -81.82   99.36  -12.37  -58.12  -18.45 -168.34

DOCKED: MODEL       18
DOCKED: USER    Run = 18
DOCKED: USER    DPF = D:/Protein_go_brrr/autodock/final/mut_N102T/heme/dock.dpf
DOCKED: USER  
DOCKED: USER    Estimated Free Energy of Binding    =   -7.25 kcal/mol  [=(1)+(2)+(3)-(4)]
DOCKED: USER    Estimated Inhibition Constant, Ki   =    4.84 uM (micromolar)  [Temperature = 298.15 K]
DOCKED: USER    
DOCKED: USER    (1) Final Intermolecular Energy     =  -11.13 kcal/mol
DOCKED: USER        vdW + Hbond + desolv Energy     =  -10.34 kcal/mol
DOCKED: USER        Electrostatic Energy            =   -0.79 kcal/mol
DOCKED: USER    (2) Final Total Internal Energy     =   -2.30 kcal/mol
DOCKED: USER    (3) Torsional Free Energy           =   +3.88 kcal/mol
DOCKED: USER    (4) Unbound System's Energy  [=(2)] =   -2.30 kcal/mol
DOCKED: USER    
DOCKED: USER    
DOCKED: USER    NEWDPF move heme_opt.pdbqt
DOCKED: USER    NEWDPF about 0.153000 0.018000 -0.028000
DOCKED: USER    NEWDPF tran0 4.765006 14.190528 -11.352574
DOCKED: USER    NEWDPF quaternion0 0.791669 -0.004144 0.411736 0.451349
DOCKED: USER    NEWDPF axisangle0 0.887176 -0.004644 0.461407 126.339449
DOCKED: USER    NEWDPF quat0 0.887176 -0.004644 0.461407 126.339449
DOCKED: USER    NEWDPF dihe0 92.48 -57.50 -140.71 99.48 179.92 109.63 129.23 -81.82 99.36 -12.37 -58.12 -18.45 -168.34 
DOCKED: USER  keepresnum = 1 
DOCKED: USER  
DOCKED: REMARK  13 active torsions:
DOCKED: REMARK  status: ('A' for Active; 'I' for Inactive)
DOCKED: REMARK    1  A    between atoms: O_3  and  C_38 
DOCKED: REMARK    2  A    between atoms: O_4  and  C_40 
DOCKED: REMARK    3  A    between atoms: O_7  and  C_46 
DOCKED: REMARK    4  A    between atoms: O_9  and  C_48 
DOCKED: REMARK    5  A    between atoms: C_15  and  C_20 
DOCKED: REMARK    6  A    between atoms: C_16  and  C_23 
DOCKED: REMARK    7  A    between atoms: C_20  and  C_38 
DOCKED: REMARK    8  A    between atoms: C_23  and  C_40 
DOCKED: REMARK    9  A    between atoms: C_32  and  C_41 
DOCKED: REMARK   10  A    between atoms: C_37  and  C_45 
DOCKED: REMARK   11  A    between atoms: C_41  and  C_44 
DOCKED: REMARK   12  A    between atoms: C_44  and  C_46 
DOCKED: REMARK   13  A    between atoms: C_47  and  C_48 
DOCKED: USER                              x       y       z     vdW  Elec       q    Type
DOCKED: USER                           _______ _______ _______ _____ _____    ______ ____
DOCKED: ROOT
DOCKED: ATOM      1  O   UNL d   1       2.098  15.773 -16.367 -0.18 -0.04    -0.289 OA
DOCKED: ATOM      2  O   UNL d   1       0.204  16.944  -9.195 -0.17 +0.07    -0.289 OA
DOCKED: ATOM      3  N   UNL d   1       3.927  14.522 -13.723 -0.18 +0.09    -0.247 NA
DOCKED: ATOM      4  N   UNL d   1       2.613  15.733 -11.350 -0.18 +0.09    -0.247 NA
DOCKED: ATOM      5  N   UNL d   1       4.883  14.912  -9.789 -0.12 +0.16    -0.354 N 
DOCKED: ATOM      6  N   UNL d   1       6.248  13.675 -12.260 +0.02 +0.18    -0.354 N 
DOCKED: ATOM      7  C   UNL d   1       4.222  14.582 -16.156 -0.15 -0.02    +0.084 A 
DOCKED: ATOM      8  C   UNL d   1       0.260  16.354 -11.570 -0.18 -0.01    +0.084 A 
DOCKED: ATOM      9  C   UNL d   1       1.548  15.837 -12.217 -0.24 -0.01    +0.058 A 
DOCKED: ATOM     10  C   UNL d   1       4.752  14.171 -14.779 -0.21 -0.02    +0.058 A 
DOCKED: ATOM     11  C   UNL d   1       2.942  15.211 -15.693 -0.15 -0.01    +0.193 A 
DOCKED: ATOM     12  C   UNL d   1       2.868  15.088 -14.203 -0.23 -0.02    +0.109 A 
DOCKED: ATOM     13  C   UNL d   1       0.800  16.560 -10.183 -0.09 -0.06    +0.193 A 
DOCKED: ATOM     14  C   UNL d   1       5.094  15.657 -16.810 -0.06 -0.00    +0.026 C 
DOCKED: ATOM     15  C   UNL d   1       1.642  15.559 -13.527 -0.25 -0.00    +0.055 C 
DOCKED: ATOM     16  C   UNL d   1      -0.825  15.274 -11.521 -0.27 -0.00    +0.026 C 
DOCKED: ATOM     17  C   UNL d   1       2.237  16.154 -10.184 +0.01 -0.05    +0.109 A 
DOCKED: ATOM     18  C   UNL d   1       5.882  13.451 -14.646 -0.23 -0.02    +0.050 C 
DOCKED: ATOM     19  C   UNL d   1       6.402  12.955 -13.424 -0.22 -0.02    +0.045 A 
DOCKED: ATOM     20  C   UNL d   1       4.246  15.710  -8.875 -0.28 -0.02    +0.045 A 
DOCKED: ATOM     21  C   UNL d   1       3.044  16.289  -8.962 -0.29 -0.02    +0.057 C 
DOCKED: ATOM     22  C   UNL d   1       6.273  15.088  -8.025 -0.21 +0.01    -0.019 A 
DOCKED: ATOM     23  C   UNL d   1       6.114  14.488  -9.364 -0.24 -0.02    +0.045 A 
DOCKED: ATOM     24  C   UNL d   1       5.162  15.809  -7.740 -0.23 +0.01    -0.022 A 
DOCKED: ATOM     25  C   UNL d   1       6.904  13.058 -11.220 -0.12 -0.02    +0.049 A 
DOCKED: ATOM     26  C   UNL d   1       7.146  11.824 -13.125 -0.28 +0.01    -0.018 A 
DOCKED: ATOM     27  C   UNL d   1       7.443  11.884 -11.728 -0.30 -0.00    +0.003 A 
DOCKED: ATOM     28  C   UNL d   1       7.021  13.693  -9.953 -0.25 -0.02    +0.052 C 
DOCKED: ATOM     29  C   UNL d   1       4.846  16.587  -6.508 -0.18 -0.02    +0.046 C 
DOCKED: ATOM     30  C   UNL d   1       7.554  10.750 -14.075 -0.26 -0.02    +0.046 C 
DOCKED: ATOM     31  H   UNL d   1       4.423  14.621 -10.645 -0.39 -0.11    +0.166 HD
DOCKED: ATOM     32  H   UNL d   1       5.752  14.556 -12.208 -0.10 -0.07    +0.166 HD
DOCKED: ENDROOT
DOCKED: BRANCH   7  33
DOCKED: ATOM     33  C   UNL d   1       3.936  13.426 -17.121 -0.24 -0.08    +0.141 C 
DOCKED: BRANCH  33  34
DOCKED: ATOM     34  C   UNL d   1       2.776  13.711 -18.037 -0.25 -0.03    +0.306 C 
DOCKED: ATOM     35  O   UNL d   1       1.790  13.010 -18.190 -0.33 -0.02    -0.251 OA
DOCKED: BRANCH  34  36
DOCKED: ATOM     36  O   UNL d   1       2.919  14.866 -18.710 -0.05 -0.04    -0.481 OA
DOCKED: ATOM     37  H   UNL d   1       2.503  15.541 -18.132 +0.08 +0.06    +0.295 HD
DOCKED: ENDBRANCH  34  36
DOCKED: ENDBRANCH  33  34
DOCKED: ENDBRANCH   7  33
DOCKED: BRANCH  27  38
DOCKED: ATOM     38  C   UNL d   1       8.210  10.915 -11.005 -0.37 -0.01    +0.017 C 
DOCKED: ATOM     39  C   UNL d   1       8.210  10.766  -9.671 -0.41 -0.03    +0.092 C 
DOCKED: BRANCH  39  40
DOCKED: ATOM     40  C   UNL d   1       9.030   9.720  -9.054 -0.26 -0.08    +0.330 C 
DOCKED: ATOM     41  O   UNL d   1      10.054   9.860  -8.412 -0.43 +0.06    -0.246 OA
DOCKED: BRANCH  40  42
DOCKED: ATOM     42  O   UNL d   1       8.487   8.514  -9.281 -0.71 +0.05    -0.477 OA
DOCKED: ATOM     43  H   UNL d   1       9.198   8.019  -9.737 -0.35 -0.14    +0.295 HD
DOCKED: ENDBRANCH  40  42
DOCKED: ENDBRANCH  39  40
DOCKED: ENDBRANCH  27  38
DOCKED: BRANCH   8  44
DOCKED: ATOM     44  C   UNL d   1      -0.289  17.664 -12.146 -0.06 -0.00    +0.141 C 
DOCKED: BRANCH  44  45
DOCKED: ATOM     45  C   UNL d   1       0.653  18.827 -11.979 +0.00 -0.01    +0.306 C 
DOCKED: ATOM     46  O   UNL d   1       1.571  19.130 -12.722 -0.00 +0.00    -0.251 OA
DOCKED: BRANCH  45  47
DOCKED: ATOM     47  O   UNL d   1       0.405  19.535 -10.863 +0.01 +0.02    -0.481 OA
DOCKED: ATOM     48  H   UNL d   1       0.170  18.862 -10.189 +0.04 -0.02    +0.295 HD
DOCKED: ENDBRANCH  45  47
DOCKED: ENDBRANCH  44  45
DOCKED: ENDBRANCH   8  44
DOCKED: BRANCH  22  49
DOCKED: ATOM     49  C   UNL d   1       7.488  14.915  -7.162 -0.20 -0.04    +0.048 C 
DOCKED: BRANCH  49  50
DOCKED: ATOM     50  C   UNL d   1       8.314  16.198  -7.079 -0.07 -0.09    +0.125 C 
DOCKED: BRANCH  50  51
DOCKED: ATOM     51  C   UNL d   1       8.480  16.638  -5.652 -0.03 -0.26    +0.305 C 
DOCKED: ATOM     52  O   UNL d   1       7.737  17.355  -5.005 -0.03 +0.14    -0.251 OA
DOCKED: BRANCH  51  53
DOCKED: ATOM     53  O   UNL d   1       9.610  16.151  -5.102 -0.02 +0.58    -0.481 OA
DOCKED: ATOM     54  H   UNL d   1       9.373  15.235  -4.844 -0.46 -0.85    +0.295 HD
DOCKED: ENDBRANCH  51  53
DOCKED: ENDBRANCH  50  51
DOCKED: ENDBRANCH  49  50
DOCKED: ENDBRANCH  22  49
DOCKED: TORSDOF 13
DOCKED: TER
DOCKED: ENDMDL
________________________________________________________________________________


	BEGINNING GENETIC ALGORITHM DOCKING 19 of 100
Run: 19 Seed: 1066629077 1520581595 [ Run 19 of 100 GA/GALS ]
Beginning LAMARCKIAN GENETIC ALGORITHM (LGA), with a maximum of 25000000 energy evaluations.

Final-Value: -12.072


	FINAL GENETIC ALGORITHM DOCKED STATE
	_______________________________________________


Detailed state:  trans -5.525 12.334 -12.772 quatxyzw 0.571308 -0.402687 0.711259 -0.074576 center 0.153 0.018 -0.028 ntor 13 -135.0769 135.7036 120.3334 46.8764 53.0670 83.0391 -51.9001 69.7013 156.2646 -140.1526 -83.8154 -83.9007 -2.3592
State:	 -5.525  12.334 -12.772   0.573 -0.404  0.713 -171.446   -135.08  135.70  120.33   46.88   53.07   83.04  -51.90   69.70  156.26 -140.15  -83.82  -83.90   -2.36

DOCKED: MODEL       19
DOCKED: USER    Run = 19
DOCKED: USER    DPF = D:/Protein_go_brrr/autodock/final/mut_N102T/heme/dock.dpf
DOCKED: USER  
DOCKED: USER    Estimated Free Energy of Binding    =   -3.70 kcal/mol  [=(1)+(2)+(3)-(4)]
DOCKED: USER    Estimated Inhibition Constant, Ki   =    1.95 mM (millimolar)  [Temperature = 298.15 K]
DOCKED: USER    
DOCKED: USER    (1) Final Intermolecular Energy     =   -7.58 kcal/mol
DOCKED: USER        vdW + Hbond + desolv Energy     =   -7.49 kcal/mol
DOCKED: USER        Electrostatic Energy            =   -0.09 kcal/mol
DOCKED: USER    (2) Final Total Internal Energy     =   -4.50 kcal/mol
DOCKED: USER    (3) Torsional Free Energy           =   +3.88 kcal/mol
DOCKED: USER    (4) Unbound System's Energy  [=(2)] =   -4.50 kcal/mol
DOCKED: USER    
DOCKED: USER    
DOCKED: USER    NEWDPF move heme_opt.pdbqt
DOCKED: USER    NEWDPF about 0.153000 0.018000 -0.028000
DOCKED: USER    NEWDPF tran0 -5.524889 12.334457 -12.772418
DOCKED: USER    NEWDPF quaternion0 0.571308 -0.402687 0.711259 -0.074576
DOCKED: USER    NEWDPF axisangle0 0.572903 -0.403812 0.713245 -171.446293
DOCKED: USER    NEWDPF quat0 0.572903 -0.403812 0.713245 -171.446293
DOCKED: USER    NEWDPF dihe0 -135.08 135.70 120.33 46.88 53.07 83.04 -51.90 69.70 156.26 -140.15 -83.82 -83.90 -2.36 
DOCKED: USER  keepresnum = 1 
DOCKED: USER  
DOCKED: REMARK  13 active torsions:
DOCKED: REMARK  status: ('A' for Active; 'I' for Inactive)
DOCKED: REMARK    1  A    between atoms: O_3  and  C_38 
DOCKED: REMARK    2  A    between atoms: O_4  and  C_40 
DOCKED: REMARK    3  A    between atoms: O_7  and  C_46 
DOCKED: REMARK    4  A    between atoms: O_9  and  C_48 
DOCKED: REMARK    5  A    between atoms: C_15  and  C_20 
DOCKED: REMARK    6  A    between atoms: C_16  and  C_23 
DOCKED: REMARK    7  A    between atoms: C_20  and  C_38 
DOCKED: REMARK    8  A    between atoms: C_23  and  C_40 
DOCKED: REMARK    9  A    between atoms: C_32  and  C_41 
DOCKED: REMARK   10  A    between atoms: C_37  and  C_45 
DOCKED: REMARK   11  A    between atoms: C_41  and  C_44 
DOCKED: REMARK   12  A    between atoms: C_44  and  C_46 
DOCKED: REMARK   13  A    between atoms: C_47  and  C_48 
DOCKED: USER                              x       y       z     vdW  Elec       q    Type
DOCKED: USER                           _______ _______ _______ _____ _____    ______ ____
DOCKED: ROOT
DOCKED: ATOM      1  O   UNL d   1      -4.108  12.772 -18.478 -0.19 -0.06    -0.289 OA
DOCKED: ATOM      2  O   UNL d   1      -3.076  17.535 -12.764 -0.01 -0.02    -0.289 OA
DOCKED: ATOM      3  N   UNL d   1      -5.244  12.133 -15.285 -0.14 +0.02    -0.247 NA
DOCKED: ATOM      4  N   UNL d   1      -4.125  14.382 -13.699 -0.11 -0.01    -0.247 NA
DOCKED: ATOM      5  N   UNL d   1      -4.801  12.918 -11.318 -0.07 +0.03    -0.354 N 
DOCKED: ATOM      6  N   UNL d   1      -5.942  10.580 -12.972 -0.08 +0.06    -0.354 N 
DOCKED: ATOM      7  C   UNL d   1      -5.160  10.860 -17.378 -0.36 -0.00    +0.084 A 
DOCKED: ATOM      8  C   UNL d   1      -3.656  16.465 -14.888 -0.11 +0.02    +0.084 A 
DOCKED: ATOM      9  C   UNL d   1      -4.088  14.995 -14.931 -0.18 +0.01    +0.058 A 
DOCKED: ATOM     10  C   UNL d   1      -5.538  10.925 -15.895 -0.31 -0.01    +0.058 A 
DOCKED: ATOM     11  C   UNL d   1      -4.616  12.251 -17.502 -0.20 +0.01    +0.193 A 
DOCKED: ATOM     12  C   UNL d   1      -4.746  12.929 -16.174 -0.22 +0.00    +0.109 A 
DOCKED: ATOM     13  C   UNL d   1      -3.419  16.562 -13.408 -0.04 +0.02    +0.193 A 
DOCKED: ATOM     14  C   UNL d   1      -4.029   9.861 -17.639 -0.11 -0.00    +0.026 C 
DOCKED: ATOM     15  C   UNL d   1      -4.356  14.351 -16.077 -0.23 +0.01    +0.055 C 
DOCKED: ATOM     16  C   UNL d   1      -4.805  17.405 -15.265 -0.06 +0.01    +0.026 C 
DOCKED: ATOM     17  C   UNL d   1      -3.731  15.231 -12.804 -0.10 +0.00    +0.109 A 
DOCKED: ATOM     18  C   UNL d   1      -6.184   9.911 -15.289 -0.35 -0.01    +0.050 C 
DOCKED: ATOM     19  C   UNL d   1      -6.648   9.915 -13.949 -0.25 -0.01    +0.045 A 
DOCKED: ATOM     20  C   UNL d   1      -4.047  13.924 -10.770 -0.19 -0.00    +0.045 A 
DOCKED: ATOM     21  C   UNL d   1      -3.547  15.013 -11.362 -0.16 -0.00    +0.057 C 
DOCKED: ATOM     22  C   UNL d   1      -4.539  12.399  -9.142 -0.22 +0.00    -0.019 A 
DOCKED: ATOM     23  C   UNL d   1      -5.145  11.951 -10.412 -0.16 -0.00    +0.045 A 
DOCKED: ATOM     24  C   UNL d   1      -3.891  13.568  -9.361 -0.26 +0.00    -0.022 A 
DOCKED: ATOM     25  C   UNL d   1      -6.517  10.379 -11.739 -0.17 -0.01    +0.049 A 
DOCKED: ATOM     26  C   UNL d   1      -7.729   9.297 -13.341 -0.23 +0.00    -0.018 A 
DOCKED: ATOM     27  C   UNL d   1      -7.652   9.609 -11.948 -0.17 -0.00    +0.003 A 
DOCKED: ATOM     28  C   UNL d   1      -5.879  10.836 -10.553 -0.15 -0.00    +0.052 C 
DOCKED: ATOM     29  C   UNL d   1      -3.139  14.412  -8.390 -0.25 +0.00    +0.046 C 
DOCKED: ATOM     30  C   UNL d   1      -8.772   8.468 -14.010 -0.27 -0.01    +0.046 C 
DOCKED: ATOM     31  H   UNL d   1      -5.119  12.964 -12.281 +0.06 -0.01    +0.166 HD
DOCKED: ATOM     32  H   UNL d   1      -5.094  11.106 -13.152 +0.09 -0.03    +0.166 HD
DOCKED: ENDROOT
DOCKED: BRANCH   7  33
DOCKED: ATOM     33  C   UNL d   1      -6.329  10.651 -18.346 -0.22 +0.01    +0.141 C 
DOCKED: BRANCH  33  34
DOCKED: ATOM     34  C   UNL d   1      -5.899  10.036 -19.650 -0.16 +0.04    +0.306 C 
DOCKED: ATOM     35  O   UNL d   1      -6.111   8.891 -20.012 -0.21 -0.05    -0.251 OA
DOCKED: BRANCH  34  36
DOCKED: ATOM     36  O   UNL d   1      -5.224  10.898 -20.432 -0.04 -0.04    -0.481 OA
DOCKED: ATOM     37  H   UNL d   1      -4.621  11.368 -19.818 +0.10 +0.02    +0.295 HD
DOCKED: ENDBRANCH  34  36
DOCKED: ENDBRANCH  33  34
DOCKED: ENDBRANCH   7  33
DOCKED: BRANCH  27  38
DOCKED: ATOM     38  C   UNL d   1      -8.572   9.155 -10.949 -0.15 -0.00    +0.017 C 
DOCKED: ATOM     39  C   UNL d   1      -8.229   8.622  -9.766 -0.15 -0.01    +0.092 C 
DOCKED: BRANCH  39  40
DOCKED: ATOM     40  C   UNL d   1      -9.270   8.211  -8.821 -0.04 +0.01    +0.330 C 
DOCKED: ATOM     41  O   UNL d   1      -9.915   7.180  -8.827 -0.57 -0.04    -0.246 OA
DOCKED: BRANCH  40  42
DOCKED: ATOM     42  O   UNL d   1      -9.440   9.155  -7.883 -0.01 +0.00    -0.477 OA
DOCKED: ATOM     43  H   UNL d   1      -8.527   9.404  -7.632 +0.06 -0.00    +0.295 HD
DOCKED: ENDBRANCH  40  42
DOCKED: ENDBRANCH  39  40
DOCKED: ENDBRANCH  27  38
DOCKED: BRANCH   8  44
DOCKED: ATOM     44  C   UNL d   1      -2.383  16.802 -15.672 -0.14 +0.05    +0.141 C 
DOCKED: BRANCH  44  45
DOCKED: ATOM     45  C   UNL d   1      -2.135  18.282 -15.792 -0.07 +0.12    +0.306 C 
DOCKED: ATOM     46  O   UNL d   1      -2.442  18.997 -16.730 -0.08 -0.15    -0.251 OA
DOCKED: BRANCH  45  47
DOCKED: ATOM     47  O   UNL d   1      -1.481  18.782 -14.728 +0.00 -0.10    -0.481 OA
DOCKED: ATOM     48  H   UNL d   1      -2.073  18.601 -13.966 +0.03 +0.04    +0.295 HD
DOCKED: ENDBRANCH  45  47
DOCKED: ENDBRANCH  44  45
DOCKED: ENDBRANCH   8  44
DOCKED: BRANCH  22  49
DOCKED: ATOM     49  C   UNL d   1      -4.635  11.642  -7.850 -0.29 -0.00    +0.048 C 
DOCKED: BRANCH  49  50
DOCKED: ATOM     50  C   UNL d   1      -5.915  11.982  -7.086 -0.15 +0.00    +0.125 C 
DOCKED: BRANCH  50  51
DOCKED: ATOM     51  C   UNL d   1      -6.983  10.959  -7.348 -0.08 -0.00    +0.305 C 
DOCKED: ATOM     52  O   UNL d   1      -6.963   9.774  -7.063 -0.15 +0.00    -0.251 OA
DOCKED: BRANCH  51  53
DOCKED: ATOM     53  O   UNL d   1      -8.046  11.491  -7.982 +0.01 +0.01    -0.481 OA
DOCKED: ATOM     54  H   UNL d   1      -8.818  11.147  -7.485 +0.03 -0.00    +0.295 HD
DOCKED: ENDBRANCH  51  53
DOCKED: ENDBRANCH  50  51
DOCKED: ENDBRANCH  49  50
DOCKED: ENDBRANCH  22  49
DOCKED: TORSDOF 13
DOCKED: TER
DOCKED: ENDMDL
________________________________________________________________________________


	BEGINNING GENETIC ALGORITHM DOCKING 20 of 100
Run: 20 Seed: 1679537575 29811624 [ Run 20 of 100 GA/GALS ]
Beginning LAMARCKIAN GENETIC ALGORITHM (LGA), with a maximum of 25000000 energy evaluations.

Final-Value: -12.220


	FINAL GENETIC ALGORITHM DOCKED STATE
	_______________________________________________


Detailed state:  trans 11.350 9.734 -12.820 quatxyzw 0.639714 -0.022141 -0.236971 -0.730835 center 0.153 0.018 -0.028 ntor 13 112.7974 -157.8964 122.2042 -135.3589 24.9146 65.7160 140.8720 -17.1932 -11.6799 179.8710 123.6362 -47.4734 37.0562
State:	 11.350   9.734 -12.820   0.937 -0.032 -0.347 -86.087    112.80 -157.90  122.20 -135.36   24.91   65.72  140.87  -17.19  -11.68  179.87  123.64  -47.47   37.06

DOCKED: MODEL       20
DOCKED: USER    Run = 20
DOCKED: USER    DPF = D:/Protein_go_brrr/autodock/final/mut_N102T/heme/dock.dpf
DOCKED: USER  
DOCKED: USER    Estimated Free Energy of Binding    =   -5.67 kcal/mol  [=(1)+(2)+(3)-(4)]
DOCKED: USER    Estimated Inhibition Constant, Ki   =   69.52 uM (micromolar)  [Temperature = 298.15 K]
DOCKED: USER    
DOCKED: USER    (1) Final Intermolecular Energy     =   -9.55 kcal/mol
DOCKED: USER        vdW + Hbond + desolv Energy     =   -8.93 kcal/mol
DOCKED: USER        Electrostatic Energy            =   -0.62 kcal/mol
DOCKED: USER    (2) Final Total Internal Energy     =   -2.67 kcal/mol
DOCKED: USER    (3) Torsional Free Energy           =   +3.88 kcal/mol
DOCKED: USER    (4) Unbound System's Energy  [=(2)] =   -2.67 kcal/mol
DOCKED: USER    
DOCKED: USER    
DOCKED: USER    NEWDPF move heme_opt.pdbqt
DOCKED: USER    NEWDPF about 0.153000 0.018000 -0.028000
DOCKED: USER    NEWDPF tran0 11.350308 9.733512 -12.820003
DOCKED: USER    NEWDPF quaternion0 0.639714 -0.022141 -0.236971 -0.730835
DOCKED: USER    NEWDPF axisangle0 0.937236 -0.032438 -0.347183 -86.087104
DOCKED: USER    NEWDPF quat0 0.937236 -0.032438 -0.347183 -86.087104
DOCKED: USER    NEWDPF dihe0 112.80 -157.90 122.20 -135.36 24.91 65.72 140.87 -17.19 -11.68 179.87 123.64 -47.47 37.06 
DOCKED: USER  keepresnum = 1 
DOCKED: USER  
DOCKED: REMARK  13 active torsions:
DOCKED: REMARK  status: ('A' for Active; 'I' for Inactive)
DOCKED: REMARK    1  A    between atoms: O_3  and  C_38 
DOCKED: REMARK    2  A    between atoms: O_4  and  C_40 
DOCKED: REMARK    3  A    between atoms: O_7  and  C_46 
DOCKED: REMARK    4  A    between atoms: O_9  and  C_48 
DOCKED: REMARK    5  A    between atoms: C_15  and  C_20 
DOCKED: REMARK    6  A    between atoms: C_16  and  C_23 
DOCKED: REMARK    7  A    between atoms: C_20  and  C_38 
DOCKED: REMARK    8  A    between atoms: C_23  and  C_40 
DOCKED: REMARK    9  A    between atoms: C_32  and  C_41 
DOCKED: REMARK   10  A    between atoms: C_37  and  C_45 
DOCKED: REMARK   11  A    between atoms: C_41  and  C_44 
DOCKED: REMARK   12  A    between atoms: C_44  and  C_46 
DOCKED: REMARK   13  A    between atoms: C_47  and  C_48 
DOCKED: USER                              x       y       z     vdW  Elec       q    Type
DOCKED: USER                           _______ _______ _______ _____ _____    ______ ____
DOCKED: ROOT
DOCKED: ATOM      1  O   UNL d   1       6.695  11.354  -9.586 -0.44 +0.07    -0.289 OA
DOCKED: ATOM      2  O   UNL d   1       7.983  11.854 -16.968 -0.09 +0.19    -0.289 OA
DOCKED: ATOM      3  N   UNL d   1       9.671  10.382 -11.033 -0.16 +0.08    -0.247 NA
DOCKED: ATOM      4  N   UNL d   1       9.138  10.658 -13.943 -0.15 +0.05    -0.247 NA
DOCKED: ATOM      5  N   UNL d   1      11.532   9.143 -14.432 -0.11 +0.01    -0.354 N 
DOCKED: ATOM      6  N   UNL d   1      12.067   8.844 -11.411 +0.01 +0.12    -0.354 N 
DOCKED: ATOM      7  C   UNL d   1       8.718  10.245  -8.779 -0.43 -0.03    +0.084 A 
DOCKED: ATOM      8  C   UNL d   1       7.434  12.274 -14.619 -0.17 -0.04    +0.084 A 
DOCKED: ATOM      9  C   UNL d   1       8.171  11.532 -13.499 -0.19 -0.02    +0.058 A 
DOCKED: ATOM     10  C   UNL d   1       9.881   9.955  -9.733 -0.30 -0.02    +0.058 A 
DOCKED: ATOM     11  C   UNL d   1       7.821  10.928  -9.767 -0.30 -0.06    +0.193 A 
DOCKED: ATOM     12  C   UNL d   1       8.521  10.972 -11.090 -0.24 -0.03    +0.109 A 
DOCKED: ATOM     13  C   UNL d   1       8.136  11.631 -15.782 -0.12 -0.09    +0.193 A 
DOCKED: ATOM     14  C   UNL d   1       8.037   8.962  -8.296 -0.57 -0.00    +0.026 C 
DOCKED: ATOM     15  C   UNL d   1       7.863  11.685 -12.202 -0.28 -0.02    +0.055 C 
DOCKED: ATOM     16  C   UNL d   1       7.757  13.772 -14.616 -0.08 -0.01    +0.026 C 
DOCKED: ATOM     17  C   UNL d   1       9.139  10.667 -15.238 -0.19 -0.02    +0.109 A 
DOCKED: ATOM     18  C   UNL d   1      11.032   9.412  -9.293 -0.15 -0.01    +0.050 C 
DOCKED: ATOM     19  C   UNL d   1      12.188   9.185 -10.082 -0.23 -0.01    +0.045 A 
DOCKED: ATOM     20  C   UNL d   1      11.010   9.174 -15.699 -0.12 +0.00    +0.045 A 
DOCKED: ATOM     21  C   UNL d   1       9.952   9.852 -16.153 -0.17 +0.01    +0.057 C 
DOCKED: ATOM     22  C   UNL d   1      12.829   7.791 -15.683 -0.16 -0.00    -0.019 A 
DOCKED: ATOM     23  C   UNL d   1      12.632   8.334 -14.324 -0.19 -0.00    +0.045 A 
DOCKED: ATOM     24  C   UNL d   1      11.866   8.293 -16.492 -0.13 -0.00    -0.022 A 
DOCKED: ATOM     25  C   UNL d   1      13.302   8.584 -11.957 -0.16 -0.01    +0.049 A 
DOCKED: ATOM     26  C   UNL d   1      13.538   9.182  -9.767 -0.18 +0.00    -0.018 A 
DOCKED: ATOM     27  C   UNL d   1      14.238   8.820 -10.960 -0.09 -0.00    +0.003 A 
DOCKED: ATOM     28  C   UNL d   1      13.421   8.061 -13.274 -0.19 -0.01    +0.052 C 
DOCKED: ATOM     29  C   UNL d   1      11.652   8.050 -17.948 -0.13 +0.01    +0.046 C 
DOCKED: ATOM     30  C   UNL d   1      14.144   9.497  -8.442 -0.15 -0.01    +0.046 C 
DOCKED: ATOM     31  H   UNL d   1      11.163   9.735 -13.696 +0.04 -0.02    +0.166 HD
DOCKED: ATOM     32  H   UNL d   1      11.178   8.762 -11.889 -0.52 -0.09    +0.166 HD
DOCKED: ENDROOT
DOCKED: BRANCH   7  33
DOCKED: ATOM     33  C   UNL d   1       9.044  11.182  -7.611 -0.29 -0.13    +0.141 C 
DOCKED: BRANCH  33  34
DOCKED: ATOM     34  C   UNL d   1      10.012  12.269  -7.994 -0.07 -0.31    +0.306 C 
DOCKED: ATOM     35  O   UNL d   1       9.744  13.292  -8.601 -0.11 +0.18    -0.251 OA
DOCKED: BRANCH  34  36
DOCKED: ATOM     36  O   UNL d   1      11.268  12.011  -7.589 -0.26 +0.50    -0.481 OA
DOCKED: ATOM     37  H   UNL d   1      11.235  12.096  -6.612 -0.48 -0.74    +0.295 HD
DOCKED: ENDBRANCH  34  36
DOCKED: ENDBRANCH  33  34
DOCKED: ENDBRANCH   7  33
DOCKED: BRANCH  27  38
DOCKED: ATOM     38  C   UNL d   1      15.659   8.683 -11.073 -0.04 -0.00    +0.017 C 
DOCKED: ATOM     39  C   UNL d   1      16.304   8.150 -12.122 -0.02 -0.01    +0.092 C 
DOCKED: BRANCH  39  40
DOCKED: ATOM     40  C   UNL d   1      17.768   8.083 -12.122 +0.00 -0.02    +0.330 C 
DOCKED: ATOM     41  O   UNL d   1      18.483   7.457 -11.364 -0.00 +0.02    -0.246 OA
DOCKED: BRANCH  40  42
DOCKED: ATOM     42  O   UNL d   1      18.264   8.831 -13.120 +0.00 +0.03    -0.477 OA
DOCKED: ATOM     43  H   UNL d   1      17.545   9.466 -13.317 +0.00 -0.02    +0.295 HD
DOCKED: ENDBRANCH  40  42
DOCKED: ENDBRANCH  39  40
DOCKED: ENDBRANCH  27  38
DOCKED: BRANCH   8  44
DOCKED: ATOM     44  C   UNL d   1       5.923  12.033 -14.689 -0.29 -0.11    +0.141 C 
DOCKED: BRANCH  44  45
DOCKED: ATOM     45  C   UNL d   1       5.121  13.304 -14.772 -0.20 -0.16    +0.306 C 
DOCKED: ATOM     46  O   UNL d   1       4.687  13.824 -15.785 -0.16 +0.12    -0.251 OA
DOCKED: BRANCH  45  47
DOCKED: ATOM     47  O   UNL d   1       4.931  13.873 -13.568 -0.07 +0.24    -0.481 OA
DOCKED: ATOM     48  H   UNL d   1       4.468  13.187 -13.040 -0.44 -0.25    +0.295 HD
DOCKED: ENDBRANCH  45  47
DOCKED: ENDBRANCH  44  45
DOCKED: ENDBRANCH   8  44
DOCKED: BRANCH  22  49
DOCKED: ATOM     49  C   UNL d   1      13.919   6.830 -16.056 -0.11 -0.00    +0.048 C 
DOCKED: BRANCH  49  50
DOCKED: ATOM     50  C   UNL d   1      15.275   7.266 -15.502 -0.03 -0.01    +0.125 C 
DOCKED: BRANCH  50  51
DOCKED: ATOM     51  C   UNL d   1      15.613   8.661 -15.945 -0.00 -0.01    +0.305 C 
DOCKED: ATOM     52  O   UNL d   1      15.187   9.254 -16.920 -0.01 +0.01    -0.251 OA
DOCKED: BRANCH  51  53
DOCKED: ATOM     53  O   UNL d   1      16.503   9.250 -15.122 +0.00 +0.02    -0.481 OA
DOCKED: ATOM     54  H   UNL d   1      17.174   8.554 -14.960 +0.00 -0.01    +0.295 HD
DOCKED: ENDBRANCH  51  53
DOCKED: ENDBRANCH  50  51
DOCKED: ENDBRANCH  49  50
DOCKED: ENDBRANCH  22  49
DOCKED: TORSDOF 13
DOCKED: TER
DOCKED: ENDMDL
________________________________________________________________________________


	BEGINNING GENETIC ALGORITHM DOCKING 21 of 100
Run: 21 Seed: 1329824532 2050150846 [ Run 21 of 100 GA/GALS ]
Beginning LAMARCKIAN GENETIC ALGORITHM (LGA), with a maximum of 25000000 energy evaluations.

Final-Value: -12.109


	FINAL GENETIC ALGORITHM DOCKED STATE
	_______________________________________________


Detailed state:  trans -7.982 -14.139 11.067 quatxyzw -0.201932 -0.175759 0.610133 -0.745701 center 0.153 0.018 -0.028 ntor 13 115.3328 1.7386 99.1999 9.8876 -144.0875 127.6382 -44.8308 -44.1611 12.7662 -123.7147 60.7958 179.8077 113.9367
State:	 -7.982 -14.139  11.067  -0.303 -0.264  0.916 -83.561    115.33    1.74   99.20    9.89 -144.09  127.64  -44.83  -44.16   12.77 -123.71   60.80  179.81  113.94

DOCKED: MODEL       21
DOCKED: USER    Run = 21
DOCKED: USER    DPF = D:/Protein_go_brrr/autodock/final/mut_N102T/heme/dock.dpf
DOCKED: USER  
DOCKED: USER    Estimated Free Energy of Binding    =   -5.38 kcal/mol  [=(1)+(2)+(3)-(4)]
DOCKED: USER    Estimated Inhibition Constant, Ki   =  114.71 uM (micromolar)  [Temperature = 298.15 K]
DOCKED: USER    
DOCKED: USER    (1) Final Intermolecular Energy     =   -9.25 kcal/mol
DOCKED: USER        vdW + Hbond + desolv Energy     =   -8.85 kcal/mol
DOCKED: USER        Electrostatic Energy            =   -0.41 kcal/mol
DOCKED: USER    (2) Final Total Internal Energy     =   -2.86 kcal/mol
DOCKED: USER    (3) Torsional Free Energy           =   +3.88 kcal/mol
DOCKED: USER    (4) Unbound System's Energy  [=(2)] =   -2.86 kcal/mol
DOCKED: USER    
DOCKED: USER    
DOCKED: USER    NEWDPF move heme_opt.pdbqt
DOCKED: USER    NEWDPF about 0.153000 0.018000 -0.028000
DOCKED: USER    NEWDPF tran0 -7.981586 -14.139213 11.066650
DOCKED: USER    NEWDPF quaternion0 -0.201932 -0.175759 0.610133 -0.745701
DOCKED: USER    NEWDPF axisangle0 -0.303074 -0.263792 0.915729 -83.561289
DOCKED: USER    NEWDPF quat0 -0.303074 -0.263792 0.915729 -83.561289
DOCKED: USER    NEWDPF dihe0 115.33 1.74 99.20 9.89 -144.09 127.64 -44.83 -44.16 12.77 -123.71 60.80 179.81 113.94 
DOCKED: USER  keepresnum = 1 
DOCKED: USER  
DOCKED: REMARK  13 active torsions:
DOCKED: REMARK  status: ('A' for Active; 'I' for Inactive)
DOCKED: REMARK    1  A    between atoms: O_3  and  C_38 
DOCKED: REMARK    2  A    between atoms: O_4  and  C_40 
DOCKED: REMARK    3  A    between atoms: O_7  and  C_46 
DOCKED: REMARK    4  A    between atoms: O_9  and  C_48 
DOCKED: REMARK    5  A    between atoms: C_15  and  C_20 
DOCKED: REMARK    6  A    between atoms: C_16  and  C_23 
DOCKED: REMARK    7  A    between atoms: C_20  and  C_38 
DOCKED: REMARK    8  A    between atoms: C_23  and  C_40 
DOCKED: REMARK    9  A    between atoms: C_32  and  C_41 
DOCKED: REMARK   10  A    between atoms: C_37  and  C_45 
DOCKED: REMARK   11  A    between atoms: C_41  and  C_44 
DOCKED: REMARK   12  A    between atoms: C_44  and  C_46 
DOCKED: REMARK   13  A    between atoms: C_47  and  C_48 
DOCKED: USER                              x       y       z     vdW  Elec       q    Type
DOCKED: USER                           _______ _______ _______ _____ _____    ______ ____
DOCKED: ROOT
DOCKED: ATOM      1  O   UNL d   1     -10.815 -19.293  10.663 -0.05 +0.17    -0.289 OA
DOCKED: ATOM      2  O   UNL d   1      -3.628 -17.725  12.171 -0.12 +0.19    -0.289 OA
DOCKED: ATOM      3  N   UNL d   1      -9.564 -16.079  10.659 -0.01 +0.17    -0.247 NA
DOCKED: ATOM      4  N   UNL d   1      -6.782 -16.428  11.643 -0.17 +0.15    -0.247 NA
DOCKED: ATOM      5  N   UNL d   1      -6.657 -13.581  12.023 -0.16 +0.12    -0.354 N 
DOCKED: ATOM      6  N   UNL d   1      -9.551 -13.230  11.019 -0.07 +0.15    -0.354 N 
DOCKED: ATOM      7  C   UNL d   1     -11.795 -17.066  10.430 -0.07 -0.03    +0.084 A 
DOCKED: ATOM      8  C   UNL d   1      -5.728 -18.601  11.269 -0.18 -0.06    +0.084 A 
DOCKED: ATOM      9  C   UNL d   1      -6.974 -17.713  11.187 -0.24 -0.04    +0.058 A 
DOCKED: ATOM     10  C   UNL d   1     -10.912 -15.816  10.484 -0.16 -0.02    +0.058 A 
DOCKED: ATOM     11  C   UNL d   1     -10.705 -18.083  10.586 -0.09 -0.12    +0.193 A 
DOCKED: ATOM     12  C   UNL d   1      -9.397 -17.362  10.689 -0.17 -0.08    +0.109 A 
DOCKED: ATOM     13  C   UNL d   1      -4.803 -17.593  11.890 -0.13 -0.12    +0.193 A 
DOCKED: ATOM     14  C   UNL d   1     -12.735 -17.159  11.635 -0.02 -0.01    +0.026 C 
DOCKED: ATOM     15  C   UNL d   1      -8.161 -18.167  10.757 -0.18 -0.05    +0.055 C 
DOCKED: ATOM     16  C   UNL d   1      -5.198 -18.965   9.878 -0.28 -0.03    +0.026 C 
DOCKED: ATOM     17  C   UNL d   1      -5.565 -16.321  12.072 -0.22 -0.06    +0.109 A 
DOCKED: ATOM     18  C   UNL d   1     -11.421 -14.586  10.285 -0.16 -0.01    +0.050 C 
DOCKED: ATOM     19  C   UNL d   1     -10.671 -13.384  10.234 -0.18 -0.01    +0.045 A 
DOCKED: ATOM     20  C   UNL d   1      -5.498 -13.954  12.653 -0.29 -0.02    +0.045 A 
DOCKED: ATOM     21  C   UNL d   1      -4.922 -15.159  12.703 -0.25 -0.03    +0.057 C 
DOCKED: ATOM     22  C   UNL d   1      -5.846 -11.723  13.004 -0.20 +0.00    -0.019 A 
DOCKED: ATOM     23  C   UNL d   1      -6.950 -12.253  12.179 -0.20 -0.01    +0.045 A 
DOCKED: ATOM     24  C   UNL d   1      -4.989 -12.735  13.280 -0.31 +0.01    -0.022 A 
DOCKED: ATOM     25  C   UNL d   1      -9.033 -11.963  10.880 -0.24 -0.01    +0.049 A 
DOCKED: ATOM     26  C   UNL d   1     -10.866 -12.200   9.540 -0.18 +0.00    -0.018 A 
DOCKED: ATOM     27  C   UNL d   1      -9.817 -11.313   9.937 -0.25 -0.00    +0.003 A 
DOCKED: ATOM     28  C   UNL d   1      -7.968 -11.516  11.708 -0.27 -0.01    +0.052 C 
DOCKED: ATOM     29  C   UNL d   1      -3.723 -12.697  14.066 -0.38 -0.02    +0.046 C 
DOCKED: ATOM     30  C   UNL d   1     -11.956 -11.908   8.566 -0.11 -0.01    +0.046 C 
DOCKED: ATOM     31  H   UNL d   1      -7.174 -14.233  11.443 -0.24 -0.09    +0.166 HD
DOCKED: ATOM     32  H   UNL d   1      -9.197 -13.950  11.638 -0.04 -0.07    +0.166 HD
DOCKED: ENDROOT
DOCKED: BRANCH   7  33
DOCKED: ATOM     33  C   UNL d   1     -12.548 -17.282   9.112 -0.08 -0.05    +0.141 C 
DOCKED: BRANCH  33  34
DOCKED: ATOM     34  C   UNL d   1     -11.622 -17.430   7.934 -0.14 -0.17    +0.306 C 
DOCKED: ATOM     35  O   UNL d   1     -11.205 -16.528   7.228 -0.24 +0.10    -0.251 OA
DOCKED: BRANCH  34  36
DOCKED: ATOM     36  O   UNL d   1     -11.269 -18.708   7.710 -0.07 +0.48    -0.481 OA
DOCKED: ATOM     37  H   UNL d   1     -10.719 -18.951   8.485 -0.47 -0.43    +0.295 HD
DOCKED: ENDBRANCH  34  36
DOCKED: ENDBRANCH  33  34
DOCKED: ENDBRANCH   7  33
DOCKED: BRANCH  27  38
DOCKED: ATOM     38  C   UNL d   1      -9.650  -9.970   9.469 -0.27 -0.00    +0.017 C 
DOCKED: ATOM     39  C   UNL d   1     -10.648  -9.113   9.203 -0.17 -0.03    +0.092 C 
DOCKED: BRANCH  39  40
DOCKED: ATOM     40  C   UNL d   1     -10.341  -7.756   8.744 -0.17 -0.19    +0.330 C 
DOCKED: ATOM     41  O   UNL d   1     -10.748  -7.200   7.741 -0.20 +0.14    -0.246 OA
DOCKED: BRANCH  40  42
DOCKED: ATOM     42  O   UNL d   1      -9.515  -7.151   9.611 -0.10 +0.55    -0.477 OA
DOCKED: ATOM     43  H   UNL d   1      -9.395  -6.255   9.235 -0.32 -0.73    +0.295 HD
DOCKED: ENDBRANCH  40  42
DOCKED: ENDBRANCH  39  40
DOCKED: ENDBRANCH  27  38
DOCKED: BRANCH   8  44
DOCKED: ATOM     44  C   UNL d   1      -5.859 -19.844  12.155 -0.04 -0.06    +0.141 C 
DOCKED: BRANCH  44  45
DOCKED: ATOM     45  C   UNL d   1      -4.563 -20.592  12.325 +0.00 -0.10    +0.306 C 
DOCKED: ATOM     46  O   UNL d   1      -4.137 -21.481  11.609 -0.01 +0.07    -0.251 OA
DOCKED: BRANCH  45  47
DOCKED: ATOM     47  O   UNL d   1      -3.880 -20.195  13.414 +0.02 +0.15    -0.481 OA
DOCKED: ATOM     48  H   UNL d   1      -3.411 -19.382  13.130 +0.05 -0.12    +0.295 HD
DOCKED: ENDBRANCH  45  47
DOCKED: ENDBRANCH  44  45
DOCKED: ENDBRANCH   8  44
DOCKED: BRANCH  22  49
DOCKED: ATOM     49  C   UNL d   1      -5.739 -10.296  13.454 -0.32 -0.01    +0.048 C 
DOCKED: BRANCH  49  50
DOCKED: ATOM     50  C   UNL d   1      -7.114  -9.655  13.644 -0.17 -0.03    +0.125 C 
DOCKED: BRANCH  50  51
DOCKED: ATOM     51  C   UNL d   1      -7.295  -8.489  12.714 -0.21 -0.09    +0.305 C 
DOCKED: ATOM     52  O   UNL d   1      -6.537  -7.550  12.544 -0.37 +0.08    -0.251 OA
DOCKED: BRANCH  51  53
DOCKED: ATOM     53  O   UNL d   1      -8.458  -8.559  12.038 -0.08 +0.17    -0.481 OA
DOCKED: ATOM     54  H   UNL d   1      -8.388  -7.846  11.369 +0.13 -0.16    +0.295 HD
DOCKED: ENDBRANCH  51  53
DOCKED: ENDBRANCH  50  51
DOCKED: ENDBRANCH  49  50
DOCKED: ENDBRANCH  22  49
DOCKED: TORSDOF 13
DOCKED: TER
DOCKED: ENDMDL
________________________________________________________________________________


	BEGINNING GENETIC ALGORITHM DOCKING 22 of 100
Run: 22 Seed: 909077094 158213863 [ Run 22 of 100 GA/GALS ]
Beginning LAMARCKIAN GENETIC ALGORITHM (LGA), with a maximum of 25000000 energy evaluations.

Final-Value: -11.200


	FINAL GENETIC ALGORITHM DOCKED STATE
	_______________________________________________


Detailed state:  trans -8.257 -15.440 10.778 quatxyzw 0.192972 -0.009416 -0.729074 -0.656601 center 0.153 0.018 -0.028 ntor 13 90.2344 163.1225 -120.0526 -78.9486 176.3930 -50.0223 122.7162 15.8133 112.0058 -26.4863 69.9764 71.6498 163.2844
State:	 -8.257 -15.440  10.778   0.256 -0.012 -0.967 -97.918     90.23  163.12 -120.05  -78.95  176.39  -50.02  122.72   15.81  112.01  -26.49   69.98   71.65  163.28

DOCKED: MODEL       22
DOCKED: USER    Run = 22
DOCKED: USER    DPF = D:/Protein_go_brrr/autodock/final/mut_N102T/heme/dock.dpf
DOCKED: USER  
DOCKED: USER    Estimated Free Energy of Binding    =   -4.91 kcal/mol  [=(1)+(2)+(3)-(4)]
DOCKED: USER    Estimated Inhibition Constant, Ki   =  251.10 uM (micromolar)  [Temperature = 298.15 K]
DOCKED: USER    
DOCKED: USER    (1) Final Intermolecular Energy     =   -8.79 kcal/mol
DOCKED: USER        vdW + Hbond + desolv Energy     =   -8.20 kcal/mol
DOCKED: USER        Electrostatic Energy            =   -0.59 kcal/mol
DOCKED: USER    (2) Final Total Internal Energy     =   -2.41 kcal/mol
DOCKED: USER    (3) Torsional Free Energy           =   +3.88 kcal/mol
DOCKED: USER    (4) Unbound System's Energy  [=(2)] =   -2.41 kcal/mol
DOCKED: USER    
DOCKED: USER    
DOCKED: USER    NEWDPF move heme_opt.pdbqt
DOCKED: USER    NEWDPF about 0.153000 0.018000 -0.028000
DOCKED: USER    NEWDPF tran0 -8.257487 -15.439869 10.778236
DOCKED: USER    NEWDPF quaternion0 0.192972 -0.009416 -0.729074 -0.656601
DOCKED: USER    NEWDPF axisangle0 0.255850 -0.012484 -0.966636 -97.917737
DOCKED: USER    NEWDPF quat0 0.255850 -0.012484 -0.966636 -97.917737
DOCKED: USER    NEWDPF dihe0 90.23 163.12 -120.05 -78.95 176.39 -50.02 122.72 15.81 112.01 -26.49 69.98 71.65 163.28 
DOCKED: USER  keepresnum = 1 
DOCKED: USER  
DOCKED: REMARK  13 active torsions:
DOCKED: REMARK  status: ('A' for Active; 'I' for Inactive)
DOCKED: REMARK    1  A    between atoms: O_3  and  C_38 
DOCKED: REMARK    2  A    between atoms: O_4  and  C_40 
DOCKED: REMARK    3  A    between atoms: O_7  and  C_46 
DOCKED: REMARK    4  A    between atoms: O_9  and  C_48 
DOCKED: REMARK    5  A    between atoms: C_15  and  C_20 
DOCKED: REMARK    6  A    between atoms: C_16  and  C_23 
DOCKED: REMARK    7  A    between atoms: C_20  and  C_38 
DOCKED: REMARK    8  A    between atoms: C_23  and  C_40 
DOCKED: REMARK    9  A    between atoms: C_32  and  C_41 
DOCKED: REMARK   10  A    between atoms: C_37  and  C_45 
DOCKED: REMARK   11  A    between atoms: C_41  and  C_44 
DOCKED: REMARK   12  A    between atoms: C_44  and  C_46 
DOCKED: REMARK   13  A    between atoms: C_47  and  C_48 
DOCKED: USER                              x       y       z     vdW  Elec       q    Type
DOCKED: USER                           _______ _______ _______ _____ _____    ______ ____
DOCKED: ROOT
DOCKED: ATOM      1  O   UNL d   1      -6.482 -10.435  13.339 -0.14 +0.06    -0.289 OA
DOCKED: ATOM      2  O   UNL d   1     -12.248 -11.841   8.737 -0.07 +0.06    -0.289 OA
DOCKED: ATOM      3  N   UNL d   1      -7.057 -13.544  11.961 -0.19 +0.09    -0.247 NA
DOCKED: ATOM      4  N   UNL d   1      -9.661 -13.204  10.571 -0.08 +0.11    -0.247 NA
DOCKED: ATOM      5  N   UNL d   1      -9.804 -16.066  10.335 -0.03 +0.24    -0.354 N 
DOCKED: ATOM      6  N   UNL d   1      -7.110 -16.411  11.794 -0.12 +0.20    -0.354 N 
DOCKED: ATOM      7  C   UNL d   1      -5.484 -12.649  13.613 -0.21 -0.02    +0.084 A 
DOCKED: ATOM      8  C   UNL d   1     -10.252 -10.949   9.839 -0.17 -0.02    +0.084 A 
DOCKED: ATOM      9  C   UNL d   1      -9.295 -11.877  10.595 -0.24 -0.02    +0.058 A 
DOCKED: ATOM     10  C   UNL d   1      -6.012 -13.847  12.818 -0.25 -0.02    +0.058 A 
DOCKED: ATOM     11  C   UNL d   1      -6.403 -11.613  13.040 -0.14 -0.05    +0.193 A 
DOCKED: ATOM     12  C   UNL d   1      -7.290 -12.274  12.032 -0.20 -0.03    +0.109 A 
DOCKED: ATOM     13  C   UNL d   1     -11.249 -11.990   9.414 -0.10 -0.05    +0.193 A 
DOCKED: ATOM     14  C   UNL d   1      -5.765 -12.786  15.112 -0.13 -0.01    +0.026 C 
DOCKED: ATOM     15  C   UNL d   1      -8.223 -11.425  11.264 -0.30 -0.01    +0.055 C 
DOCKED: ATOM     16  C   UNL d   1      -9.597 -10.355   8.588 -0.30 -0.01    +0.026 C 
DOCKED: ATOM     17  C   UNL d   1     -10.779 -13.312   9.927 -0.17 -0.03    +0.109 A 
DOCKED: ATOM     18  C   UNL d   1      -5.430 -15.058  12.900 -0.25 -0.02    +0.050 C 
DOCKED: ATOM     19  C   UNL d   1      -5.795 -16.199  12.141 -0.25 -0.02    +0.045 A 
DOCKED: ATOM     20  C   UNL d   1     -11.070 -15.733   9.930 -0.19 -0.02    +0.045 A 
DOCKED: ATOM     21  C   UNL d   1     -11.584 -14.521   9.699 -0.17 -0.01    +0.057 C 
DOCKED: ATOM     22  C   UNL d   1     -10.927 -18.006  10.112 -0.13 +0.01    -0.019 A 
DOCKED: ATOM     23  C   UNL d   1      -9.622 -17.416  10.473 -0.19 -0.04    +0.045 A 
DOCKED: ATOM     24  C   UNL d   1     -11.780 -17.004   9.791 -0.13 +0.01    -0.022 A 
DOCKED: ATOM     25  C   UNL d   1      -7.251 -17.615  11.144 -0.23 -0.04    +0.049 A 
DOCKED: ATOM     26  C   UNL d   1      -5.057 -17.274  11.672 -0.22 +0.01    -0.018 A 
DOCKED: ATOM     27  C   UNL d   1      -5.978 -18.156  11.026 -0.27 -0.00    +0.003 A 
DOCKED: ATOM     28  C   UNL d   1      -8.539 -18.125  10.826 -0.20 -0.05    +0.052 C 
DOCKED: ATOM     29  C   UNL d   1     -13.202 -17.095   9.352 -0.05 -0.01    +0.046 C 
DOCKED: ATOM     30  C   UNL d   1      -3.586 -17.473  11.813 -0.19 -0.03    +0.046 C 
DOCKED: ATOM     31  H   UNL d   1      -9.080 -15.362  10.432 -0.45 -0.17    +0.166 HD
DOCKED: ATOM     32  H   UNL d   1      -7.862 -15.774  12.032 +0.02 -0.09    +0.166 HD
DOCKED: ENDROOT
DOCKED: BRANCH   7  33
DOCKED: ATOM     33  C   UNL d   1      -4.021 -12.278  13.347 -0.32 -0.05    +0.141 C 
DOCKED: BRANCH  33  34
DOCKED: ATOM     34  C   UNL d   1      -3.700 -10.864  13.749 -0.32 -0.08    +0.306 C 
DOCKED: ATOM     35  O   UNL d   1      -3.144 -10.027  13.058 -0.55 +0.06    -0.251 OA
DOCKED: BRANCH  34  36
DOCKED: ATOM     36  O   UNL d   1      -4.100 -10.577  15.001 -0.36 +0.07    -0.481 OA
DOCKED: ATOM     37  H   UNL d   1      -5.001 -10.204  14.893 +0.14 -0.05    +0.295 HD
DOCKED: ENDBRANCH  34  36
DOCKED: ENDBRANCH  33  34
DOCKED: ENDBRANCH   7  33
DOCKED: BRANCH  27  38
DOCKED: ATOM     38  C   UNL d   1      -5.635 -19.403  10.413 -0.22 -0.01    +0.017 C 
DOCKED: ATOM     39  C   UNL d   1      -4.955 -19.539   9.264 -0.17 -0.10    +0.092 C 
DOCKED: BRANCH  39  40
DOCKED: ATOM     40  C   UNL d   1      -4.651 -20.877   8.750 -0.06 -0.23    +0.330 C 
DOCKED: ATOM     41  O   UNL d   1      -4.120 -21.798   9.341 -0.03 +0.08    -0.246 OA
DOCKED: BRANCH  40  42
DOCKED: ATOM     42  O   UNL d   1      -5.058 -20.986   7.476 -0.03 +0.50    -0.477 OA
DOCKED: ATOM     43  H   UNL d   1      -5.679 -20.236   7.363 -0.42 -0.77    +0.295 HD
DOCKED: ENDBRANCH  40  42
DOCKED: ENDBRANCH  39  40
DOCKED: ENDBRANCH  27  38
DOCKED: BRANCH   8  44
DOCKED: ATOM     44  C   UNL d   1     -10.922  -9.861  10.684 -0.07 -0.04    +0.141 C 
DOCKED: BRANCH  44  45
DOCKED: ATOM     45  C   UNL d   1     -12.040 -10.382  11.546 +0.00 -0.06    +0.306 C 
DOCKED: ATOM     46  O   UNL d   1     -11.926 -10.979  12.603 -0.01 +0.04    -0.251 OA
DOCKED: BRANCH  45  47
DOCKED: ATOM     47  O   UNL d   1     -13.253 -10.147  11.014 +0.01 +0.08    -0.481 OA
DOCKED: ATOM     48  H   UNL d   1     -13.234 -10.599  10.144 +0.02 -0.05    +0.295 HD
DOCKED: ENDBRANCH  45  47
DOCKED: ENDBRANCH  44  45
DOCKED: ENDBRANCH   8  44
DOCKED: BRANCH  22  49
DOCKED: ATOM     49  C   UNL d   1     -11.221 -19.477  10.130 -0.08 -0.03    +0.048 C 
DOCKED: BRANCH  49  50
DOCKED: ATOM     50  C   UNL d   1     -11.508 -19.983  11.543 -0.01 -0.04    +0.125 C 
DOCKED: BRANCH  50  51
DOCKED: ATOM     51  C   UNL d   1     -10.383 -20.842  12.045 -0.00 -0.10    +0.305 C 
DOCKED: ATOM     52  O   UNL d   1      -9.289 -21.007  11.534 -0.02 +0.12    -0.251 OA
DOCKED: BRANCH  51  53
DOCKED: ATOM     53  O   UNL d   1     -10.704 -21.476  13.191 +0.00 +0.10    -0.481 OA
DOCKED: ATOM     54  H   UNL d   1     -10.934 -22.384  12.904 +0.00 -0.05    +0.295 HD
DOCKED: ENDBRANCH  51  53
DOCKED: ENDBRANCH  50  51
DOCKED: ENDBRANCH  49  50
DOCKED: ENDBRANCH  22  49
DOCKED: TORSDOF 13
DOCKED: TER
DOCKED: ENDMDL
________________________________________________________________________________


	BEGINNING GENETIC ALGORITHM DOCKING 23 of 100
Run: 23 Seed: 20263927 367279414 [ Run 23 of 100 GA/GALS ]
Beginning LAMARCKIAN GENETIC ALGORITHM (LGA), with a maximum of 25000000 energy evaluations.

Final-Value: -11.876


	FINAL GENETIC ALGORITHM DOCKED STATE
	_______________________________________________


Detailed state:  trans 6.293 12.778 -16.600 quatxyzw 0.299027 -0.567936 0.338427 -0.688112 center 0.153 0.018 -0.028 ntor 13 170.9704 168.6230 -139.0661 -71.6981 -149.5333 130.6379 128.1768 -73.4953 11.1077 -29.3764 48.9966 -170.3166 101.1862
State:	  6.293  12.778 -16.600   0.412 -0.783  0.466 -93.038    170.97  168.62 -139.07  -71.70 -149.53  130.64  128.18  -73.50   11.11  -29.38   49.00 -170.32  101.19

DOCKED: MODEL       23
DOCKED: USER    Run = 23
DOCKED: USER    DPF = D:/Protein_go_brrr/autodock/final/mut_N102T/heme/dock.dpf
DOCKED: USER  
DOCKED: USER    Estimated Free Energy of Binding    =   -4.88 kcal/mol  [=(1)+(2)+(3)-(4)]
DOCKED: USER    Estimated Inhibition Constant, Ki   =  265.61 uM (micromolar)  [Temperature = 298.15 K]
DOCKED: USER    
DOCKED: USER    (1) Final Intermolecular Energy     =   -8.76 kcal/mol
DOCKED: USER        vdW + Hbond + desolv Energy     =   -8.58 kcal/mol
DOCKED: USER        Electrostatic Energy            =   -0.18 kcal/mol
DOCKED: USER    (2) Final Total Internal Energy     =   -3.12 kcal/mol
DOCKED: USER    (3) Torsional Free Energy           =   +3.88 kcal/mol
DOCKED: USER    (4) Unbound System's Energy  [=(2)] =   -3.12 kcal/mol
DOCKED: USER    
DOCKED: USER    
DOCKED: USER    NEWDPF move heme_opt.pdbqt
DOCKED: USER    NEWDPF about 0.153000 0.018000 -0.028000
DOCKED: USER    NEWDPF tran0 6.293375 12.778237 -16.599519
DOCKED: USER    NEWDPF quaternion0 0.299027 -0.567936 0.338427 -0.688112
DOCKED: USER    NEWDPF axisangle0 0.412107 -0.782708 0.466408 -93.038259
DOCKED: USER    NEWDPF quat0 0.412107 -0.782708 0.466408 -93.038259
DOCKED: USER    NEWDPF dihe0 170.97 168.62 -139.07 -71.70 -149.53 130.64 128.18 -73.50 11.11 -29.38 49.00 -170.32 101.19 
DOCKED: USER  keepresnum = 1 
DOCKED: USER  
DOCKED: REMARK  13 active torsions:
DOCKED: REMARK  status: ('A' for Active; 'I' for Inactive)
DOCKED: REMARK    1  A    between atoms: O_3  and  C_38 
DOCKED: REMARK    2  A    between atoms: O_4  and  C_40 
DOCKED: REMARK    3  A    between atoms: O_7  and  C_46 
DOCKED: REMARK    4  A    between atoms: O_9  and  C_48 
DOCKED: REMARK    5  A    between atoms: C_15  and  C_20 
DOCKED: REMARK    6  A    between atoms: C_16  and  C_23 
DOCKED: REMARK    7  A    between atoms: C_20  and  C_38 
DOCKED: REMARK    8  A    between atoms: C_23  and  C_40 
DOCKED: REMARK    9  A    between atoms: C_32  and  C_41 
DOCKED: REMARK   10  A    between atoms: C_37  and  C_45 
DOCKED: REMARK   11  A    between atoms: C_41  and  C_44 
DOCKED: REMARK   12  A    between atoms: C_44  and  C_46 
DOCKED: REMARK   13  A    between atoms: C_47  and  C_48 
DOCKED: USER                              x       y       z     vdW  Elec       q    Type
DOCKED: USER                           _______ _______ _______ _____ _____    ______ ____
DOCKED: ROOT
DOCKED: ATOM      1  O   UNL d   1       3.852  12.555 -21.961 -0.03 +0.01    -0.289 OA
DOCKED: ATOM      2  O   UNL d   1      10.777  10.831 -19.623 -0.01 -0.03    -0.289 OA
DOCKED: ATOM      3  N   UNL d   1       4.882  12.981 -18.697 -0.04 +0.19    -0.247 NA
DOCKED: ATOM      4  N   UNL d   1       7.594  11.769 -18.673 -0.08 +0.15    -0.247 NA
DOCKED: ATOM      5  N   UNL d   1       7.498  11.835 -15.800 -0.03 +0.27    -0.354 N 
DOCKED: ATOM      6  N   UNL d   1       4.676  13.074 -15.834 -0.13 +0.27    -0.354 N 
DOCKED: ATOM      7  C   UNL d   1       2.746  13.202 -19.879 -0.21 -0.00    +0.084 A 
DOCKED: ATOM      8  C   UNL d   1       8.817  11.724 -20.788 -0.02 -0.00    +0.084 A 
DOCKED: ATOM      9  C   UNL d   1       7.525  12.028 -20.024 -0.08 -0.01    +0.058 A 
DOCKED: ATOM     10  C   UNL d   1       3.537  13.285 -18.570 -0.16 -0.02    +0.058 A 
DOCKED: ATOM     11  C   UNL d   1       3.886  12.814 -20.772 -0.08 -0.03    +0.193 A 
DOCKED: ATOM     12  C   UNL d   1       5.131  12.738 -19.943 -0.08 -0.05    +0.109 A 
DOCKED: ATOM     13  C   UNL d   1       9.621  11.208 -19.628 -0.04 +0.01    +0.193 A 
DOCKED: ATOM     14  C   UNL d   1       1.722  12.064 -19.860 -0.15 +0.00    +0.026 C 
DOCKED: ATOM     15  C   UNL d   1       6.408  12.460 -20.629 -0.08 -0.01    +0.055 C 
DOCKED: ATOM     16  C   UNL d   1       9.479  13.000 -21.317 -0.00 -0.00    +0.026 C 
DOCKED: ATOM     17  C   UNL d   1       8.763  11.281 -18.406 -0.12 -0.01    +0.109 A 
DOCKED: ATOM     18  C   UNL d   1       2.964  13.710 -17.428 -0.38 -0.01    +0.050 C 
DOCKED: ATOM     19  C   UNL d   1       3.634  13.899 -16.193 -0.29 -0.02    +0.045 A 
DOCKED: ATOM     20  C   UNL d   1       8.626  11.077 -15.981 -0.20 -0.01    +0.045 A 
DOCKED: ATOM     21  C   UNL d   1       9.275  10.798 -17.115 -0.18 -0.00    +0.057 C 
DOCKED: ATOM     22  C   UNL d   1       8.104  11.106 -13.757 -0.25 +0.01    -0.019 A 
DOCKED: ATOM     23  C   UNL d   1       7.106  11.910 -14.490 -0.24 -0.02    +0.045 A 
DOCKED: ATOM     24  C   UNL d   1       9.002  10.617 -14.644 -0.24 +0.00    -0.022 A 
DOCKED: ATOM     25  C   UNL d   1       5.116  13.376 -14.566 -0.28 -0.02    +0.049 A 
DOCKED: ATOM     26  C   UNL d   1       3.416  14.783 -15.147 -0.24 +0.00    -0.018 A 
DOCKED: ATOM     27  C   UNL d   1       4.368  14.461 -14.131 -0.24 -0.00    +0.003 A 
DOCKED: ATOM     28  C   UNL d   1       6.081  12.559 -13.916 -0.32 -0.03    +0.052 C 
DOCKED: ATOM     29  C   UNL d   1      10.196   9.763 -14.388 -0.23 -0.00    +0.046 C 
DOCKED: ATOM     30  C   UNL d   1       2.389  15.863 -15.093 -0.21 +0.00    +0.046 C 
DOCKED: ATOM     31  H   UNL d   1       7.074  12.338 -16.572 -0.28 -0.18    +0.166 HD
DOCKED: ATOM     32  H   UNL d   1       5.027  12.327 -16.421 -0.51 -0.32    +0.166 HD
DOCKED: ENDROOT
DOCKED: BRANCH   7  33
DOCKED: ATOM     33  C   UNL d   1       2.116  14.517 -20.351 -0.15 +0.03    +0.141 C 
DOCKED: BRANCH  33  34
DOCKED: ATOM     34  C   UNL d   1       3.135  15.603 -20.566 -0.04 +0.06    +0.306 C 
DOCKED: ATOM     35  O   UNL d   1       3.451  16.464 -19.762 -0.03 -0.05    -0.251 OA
DOCKED: BRANCH  34  36
DOCKED: ATOM     36  O   UNL d   1       3.706  15.545 -21.782 +0.01 -0.06    -0.481 OA
DOCKED: ATOM     37  H   UNL d   1       3.429  14.677 -22.143 +0.04 +0.03    +0.295 HD
DOCKED: ENDBRANCH  34  36
DOCKED: ENDBRANCH  33  34
DOCKED: ENDBRANCH   7  33
DOCKED: BRANCH  27  38
DOCKED: ATOM     38  C   UNL d   1       4.481  15.123 -12.866 -0.17 -0.01    +0.017 C 
DOCKED: ATOM     39  C   UNL d   1       3.456  15.420 -12.053 -0.19 -0.03    +0.092 C 
DOCKED: BRANCH  39  40
DOCKED: ATOM     40  C   UNL d   1       3.709  16.086 -10.773 -0.12 -0.11    +0.330 C 
DOCKED: ATOM     41  O   UNL d   1       3.178  17.091 -10.340 -0.08 +0.06    -0.246 OA
DOCKED: BRANCH  40  42
DOCKED: ATOM     42  O   UNL d   1       4.646  15.418 -10.082 -0.10 +0.19    -0.477 OA
DOCKED: ATOM     43  H   UNL d   1       4.742  14.576 -10.572 -0.32 -0.18    +0.295 HD
DOCKED: ENDBRANCH  40  42
DOCKED: ENDBRANCH  39  40
DOCKED: ENDBRANCH  27  38
DOCKED: BRANCH   8  44
DOCKED: ATOM     44  C   UNL d   1       8.700  10.664 -21.888 -0.02 +0.01    +0.141 C 
DOCKED: BRANCH  44  45
DOCKED: ATOM     45  C   UNL d   1       8.704   9.254 -21.358 -0.05 +0.11    +0.306 C 
DOCKED: ATOM     46  O   UNL d   1       7.744   8.636 -20.930 -0.25 -0.21    -0.251 OA
DOCKED: BRANCH  45  47
DOCKED: ATOM     47  O   UNL d   1       9.931   8.703 -21.370 -0.02 -0.15    -0.481 OA
DOCKED: ATOM     48  H   UNL d   1      10.530   9.426 -21.088 +0.02 +0.06    +0.295 HD
DOCKED: ENDBRANCH  45  47
DOCKED: ENDBRANCH  44  45
DOCKED: ENDBRANCH   8  44
DOCKED: BRANCH  22  49
DOCKED: ATOM     49  C   UNL d   1       8.079  10.881 -12.274 -0.24 -0.01    +0.048 C 
DOCKED: BRANCH  49  50
DOCKED: ATOM     50  C   UNL d   1       6.708  11.194 -11.674 -0.19 -0.05    +0.125 C 
DOCKED: BRANCH  50  51
DOCKED: ATOM     51  C   UNL d   1       6.839  12.100 -10.482 -0.18 -0.11    +0.305 C 
DOCKED: ATOM     52  O   UNL d   1       7.149  11.792  -9.345 -0.66 +0.06    -0.251 OA
DOCKED: BRANCH  51  53
DOCKED: ATOM     53  O   UNL d   1       6.552  13.381 -10.789 -0.03 +0.23    -0.481 OA
DOCKED: ATOM     54  H   UNL d   1       5.685  13.540 -10.361 -0.41 -0.19    +0.295 HD
DOCKED: ENDBRANCH  51  53
DOCKED: ENDBRANCH  50  51
DOCKED: ENDBRANCH  49  50
DOCKED: ENDBRANCH  22  49
DOCKED: TORSDOF 13
DOCKED: TER
DOCKED: ENDMDL
________________________________________________________________________________


	BEGINNING GENETIC ALGORITHM DOCKING 24 of 100
Run: 24 Seed: 47260452 1635655313 [ Run 24 of 100 GA/GALS ]
Beginning LAMARCKIAN GENETIC ALGORITHM (LGA), with a maximum of 25000000 energy evaluations.

Final-Value: -10.199


	FINAL GENETIC ALGORITHM DOCKED STATE
	_______________________________________________


Detailed state:  trans -4.096 14.731 16.465 quatxyzw -0.740582 0.223161 -0.629629 -0.072834 center 0.153 0.018 -0.028 ntor 13 157.5859 113.4498 103.5656 123.3693 -144.2781 38.1127 -45.1434 55.1023 47.4482 -128.6009 1.5967 -75.3116 30.5532
State:	 -4.096  14.731  16.465  -0.743  0.224 -0.631 -171.646    157.59  113.45  103.57  123.37 -144.28   38.11  -45.14   55.10   47.45 -128.60    1.60  -75.31   30.55

DOCKED: MODEL       24
DOCKED: USER    Run = 24
DOCKED: USER    DPF = D:/Protein_go_brrr/autodock/final/mut_N102T/heme/dock.dpf
DOCKED: USER  
DOCKED: USER    Estimated Free Energy of Binding    =   -2.60 kcal/mol  [=(1)+(2)+(3)-(4)]
DOCKED: USER    Estimated Inhibition Constant, Ki   =   12.42 mM (millimolar)  [Temperature = 298.15 K]
DOCKED: USER    
DOCKED: USER    (1) Final Intermolecular Energy     =   -6.48 kcal/mol
DOCKED: USER        vdW + Hbond + desolv Energy     =   -6.47 kcal/mol
DOCKED: USER        Electrostatic Energy            =   -0.01 kcal/mol
DOCKED: USER    (2) Final Total Internal Energy     =   -3.72 kcal/mol
DOCKED: USER    (3) Torsional Free Energy           =   +3.88 kcal/mol
DOCKED: USER    (4) Unbound System's Energy  [=(2)] =   -3.72 kcal/mol
DOCKED: USER    
DOCKED: USER    
DOCKED: USER    NEWDPF move heme_opt.pdbqt
DOCKED: USER    NEWDPF about 0.153000 0.018000 -0.028000
DOCKED: USER    NEWDPF tran0 -4.095567 14.731261 16.464887
DOCKED: USER    NEWDPF quaternion0 -0.740582 0.223161 -0.629629 -0.072834
DOCKED: USER    NEWDPF axisangle0 -0.742555 0.223755 -0.631305 -171.646430
DOCKED: USER    NEWDPF quat0 -0.742555 0.223755 -0.631305 -171.646430
DOCKED: USER    NEWDPF dihe0 157.59 113.45 103.57 123.37 -144.28 38.11 -45.14 55.10 47.45 -128.60 1.60 -75.31 30.55 
DOCKED: USER  keepresnum = 1 
DOCKED: USER  
DOCKED: REMARK  13 active torsions:
DOCKED: REMARK  status: ('A' for Active; 'I' for Inactive)
DOCKED: REMARK    1  A    between atoms: O_3  and  C_38 
DOCKED: REMARK    2  A    between atoms: O_4  and  C_40 
DOCKED: REMARK    3  A    between atoms: O_7  and  C_46 
DOCKED: REMARK    4  A    between atoms: O_9  and  C_48 
DOCKED: REMARK    5  A    between atoms: C_15  and  C_20 
DOCKED: REMARK    6  A    between atoms: C_16  and  C_23 
DOCKED: REMARK    7  A    between atoms: C_20  and  C_38 
DOCKED: REMARK    8  A    between atoms: C_23  and  C_40 
DOCKED: REMARK    9  A    between atoms: C_32  and  C_41 
DOCKED: REMARK   10  A    between atoms: C_37  and  C_45 
DOCKED: REMARK   11  A    between atoms: C_41  and  C_44 
DOCKED: REMARK   12  A    between atoms: C_44  and  C_46 
DOCKED: REMARK   13  A    between atoms: C_47  and  C_48 
DOCKED: USER                              x       y       z     vdW  Elec       q    Type
DOCKED: USER                           _______ _______ _______ _____ _____    ______ ____
DOCKED: ROOT
DOCKED: ATOM      1  O   UNL d   1      -4.477  15.485  10.630 -0.02 +0.01    -0.289 OA
DOCKED: ATOM      2  O   UNL d   1      -4.748  20.438  16.268 -0.01 +0.03    -0.289 OA
DOCKED: ATOM      3  N   UNL d   1      -4.343  14.550  13.947 -0.12 +0.08    -0.247 NA
DOCKED: ATOM      4  N   UNL d   1      -4.209  17.146  15.385 -0.09 +0.07    -0.247 NA
DOCKED: ATOM      5  N   UNL d   1      -3.460  15.693  17.750 -0.06 +0.09    -0.354 N 
DOCKED: ATOM      6  N   UNL d   1      -3.584  13.005  16.246 -0.13 +0.10    -0.354 N 
DOCKED: ATOM      7  C   UNL d   1      -4.106  13.376  11.808 -0.42 -0.01    +0.084 A 
DOCKED: ATOM      8  C   UNL d   1      -5.170  19.095  14.266 -0.06 -0.01    +0.084 A 
DOCKED: ATOM      9  C   UNL d   1      -4.780  17.613  14.222 -0.15 -0.01    +0.058 A 
DOCKED: ATOM     10  C   UNL d   1      -4.107  13.328  13.339 -0.34 -0.01    +0.058 A 
DOCKED: ATOM     11  C   UNL d   1      -4.401  14.838  11.659 -0.21 -0.02    +0.193 A 
DOCKED: ATOM     12  C   UNL d   1      -4.549  15.433  13.025 -0.22 -0.02    +0.109 A 
DOCKED: ATOM     13  C   UNL d   1      -4.679  19.391  15.655 -0.04 -0.02    +0.193 A 
DOCKED: ATOM     14  C   UNL d   1      -2.719  13.089  11.226 -0.75 -0.00    +0.026 C 
DOCKED: ATOM     15  C   UNL d   1      -4.936  16.854  13.127 -0.21 -0.01    +0.055 C 
DOCKED: ATOM     16  C   UNL d   1      -6.689  19.284  14.230 -0.03 -0.00    +0.026 C 
DOCKED: ATOM     17  C   UNL d   1      -4.113  18.130  16.221 -0.12 -0.02    +0.109 A 
DOCKED: ATOM     18  C   UNL d   1      -3.978  12.166  14.006 -0.38 -0.01    +0.050 C 
DOCKED: ATOM     19  C   UNL d   1      -4.051  12.013  15.414 -0.30 -0.01    +0.045 A 
DOCKED: ATOM     20  C   UNL d   1      -3.228  16.974  18.178 -0.14 -0.01    +0.045 A 
DOCKED: ATOM     21  C   UNL d   1      -3.513  18.127  17.564 -0.13 -0.01    +0.057 C 
DOCKED: ATOM     22  C   UNL d   1      -2.471  15.517  19.766 -0.07 +0.00    -0.019 A 
DOCKED: ATOM     23  C   UNL d   1      -3.037  14.744  18.642 -0.03 -0.01    +0.045 A 
DOCKED: ATOM     24  C   UNL d   1      -2.589  16.837  19.486 -0.10 +0.00    -0.022 A 
DOCKED: ATOM     25  C   UNL d   1      -3.668  12.612  17.562 -0.16 -0.01    +0.049 A 
DOCKED: ATOM     26  C   UNL d   1      -4.484  10.964  16.210 -0.22 +0.00    -0.018 A 
DOCKED: ATOM     27  C   UNL d   1      -4.258  11.356  17.566 -0.12 -0.00    +0.003 A 
DOCKED: ATOM     28  C   UNL d   1      -3.102  13.405  18.597 -0.14 -0.01    +0.052 C 
DOCKED: ATOM     29  C   UNL d   1      -2.176  18.006  20.313 -0.05 -0.01    +0.046 C 
DOCKED: ATOM     30  C   UNL d   1      -5.075   9.676  15.744 -0.29 -0.01    +0.046 C 
DOCKED: ATOM     31  H   UNL d   1      -3.970  15.509  16.892 -0.23 -0.06    +0.166 HD
DOCKED: ATOM     32  H   UNL d   1      -3.196  13.880  15.912 -0.43 -0.09    +0.166 HD
DOCKED: ENDROOT
DOCKED: BRANCH   7  33
DOCKED: ATOM     33  C   UNL d   1      -5.189  12.536  11.124 -0.14 -0.03    +0.141 C 
DOCKED: BRANCH  33  34
DOCKED: ATOM     34  C   UNL d   1      -6.417  13.337  10.787 -0.14 -0.06    +0.306 C 
DOCKED: ATOM     35  O   UNL d   1      -7.390  13.498  11.504 -0.11 +0.03    -0.251 OA
DOCKED: BRANCH  34  36
DOCKED: ATOM     36  O   UNL d   1      -6.354  13.894   9.565 -0.11 +0.11    -0.481 OA
DOCKED: ATOM     37  H   UNL d   1      -5.394  13.976   9.381 +0.05 -0.06    +0.295 HD
DOCKED: ENDBRANCH  34  36
DOCKED: ENDBRANCH  33  34
DOCKED: ENDBRANCH   7  33
DOCKED: BRANCH  27  38
DOCKED: ATOM     38  C   UNL d   1      -4.551  10.555  18.716 -0.06 -0.00    +0.017 C 
DOCKED: ATOM     39  C   UNL d   1      -3.792  10.478  19.820 -0.03 -0.01    +0.092 C 
DOCKED: BRANCH  39  40
DOCKED: ATOM     40  C   UNL d   1      -4.214   9.631  20.939 -0.00 -0.04    +0.330 C 
DOCKED: ATOM     41  O   UNL d   1      -4.782   8.558  20.886 -0.00 +0.03    -0.246 OA
DOCKED: BRANCH  40  42
DOCKED: ATOM     42  O   UNL d   1      -3.874  10.203  22.104 +0.00 +0.06    -0.477 OA
DOCKED: ATOM     43  H   UNL d   1      -2.895  10.182  22.100 +0.01 -0.04    +0.295 HD
DOCKED: ENDBRANCH  40  42
DOCKED: ENDBRANCH  39  40
DOCKED: ENDBRANCH  27  38
DOCKED: BRANCH   8  44
DOCKED: ATOM     44  C   UNL d   1      -4.475  19.991  13.236 -0.08 -0.01    +0.141 C 
DOCKED: BRANCH  44  45
DOCKED: ATOM     45  C   UNL d   1      -4.863  21.441  13.352 -0.01 -0.03    +0.306 C 
DOCKED: ATOM     46  O   UNL d   1      -5.795  21.991  12.791 -0.01 +0.02    -0.251 OA
DOCKED: BRANCH  45  47
DOCKED: ATOM     47  O   UNL d   1      -4.033  22.134  14.153 +0.00 +0.05    -0.481 OA
DOCKED: ATOM     48  H   UNL d   1      -4.303  21.887  15.063 +0.02 -0.03    +0.295 HD
DOCKED: ENDBRANCH  45  47
DOCKED: ENDBRANCH  44  45
DOCKED: ENDBRANCH   8  44
DOCKED: BRANCH  22  49
DOCKED: ATOM     49  C   UNL d   1      -1.861  14.900  20.990 -0.06 -0.01    +0.048 C 
DOCKED: BRANCH  49  50
DOCKED: ATOM     50  C   UNL d   1      -2.802  13.891  21.648 -0.02 -0.01    +0.125 C 
DOCKED: BRANCH  50  51
DOCKED: ATOM     51  C   UNL d   1      -2.195  13.331  22.903 +0.00 -0.04    +0.305 C 
DOCKED: ATOM     52  O   UNL d   1      -1.683  13.948  23.820 -0.00 +0.03    -0.251 OA
DOCKED: BRANCH  51  53
DOCKED: ATOM     53  O   UNL d   1      -2.255  11.985  22.934 +0.00 +0.06    -0.481 OA
DOCKED: ATOM     54  H   UNL d   1      -3.210  11.786  22.840 +0.01 -0.03    +0.295 HD
DOCKED: ENDBRANCH  51  53
DOCKED: ENDBRANCH  50  51
DOCKED: ENDBRANCH  49  50
DOCKED: ENDBRANCH  22  49
DOCKED: TORSDOF 13
DOCKED: TER
DOCKED: ENDMDL
________________________________________________________________________________


	BEGINNING GENETIC ALGORITHM DOCKING 25 of 100
Run: 25 Seed: 2004781113 1944697196 [ Run 25 of 100 GA/GALS ]
Beginning LAMARCKIAN GENETIC ALGORITHM (LGA), with a maximum of 25000000 energy evaluations.

Final-Value: -11.767


	FINAL GENETIC ALGORITHM DOCKED STATE
	_______________________________________________


Detailed state:  trans -11.653 4.308 12.031 quatxyzw 0.600715 0.260566 0.669757 -0.350246 center 0.153 0.018 -0.028 ntor 13 -82.6748 -171.1705 -42.1524 -45.2830 9.9664 -78.2887 -18.9777 -92.9351 180.0000 135.0181 -101.0934 32.1617 -7.0915
State:	-11.653   4.308  12.031   0.641  0.278  0.715 -138.995    -82.67 -171.17  -42.15  -45.28    9.97  -78.29  -18.98  -92.94  180.00  135.02 -101.09   32.16   -7.09

DOCKED: MODEL       25
DOCKED: USER    Run = 25
DOCKED: USER    DPF = D:/Protein_go_brrr/autodock/final/mut_N102T/heme/dock.dpf
DOCKED: USER  
DOCKED: USER    Estimated Free Energy of Binding    =   -4.66 kcal/mol  [=(1)+(2)+(3)-(4)]
DOCKED: USER    Estimated Inhibition Constant, Ki   =  384.39 uM (micromolar)  [Temperature = 298.15 K]
DOCKED: USER    
DOCKED: USER    (1) Final Intermolecular Energy     =   -8.54 kcal/mol
DOCKED: USER        vdW + Hbond + desolv Energy     =   -8.02 kcal/mol
DOCKED: USER        Electrostatic Energy            =   -0.52 kcal/mol
DOCKED: USER    (2) Final Total Internal Energy     =   -3.23 kcal/mol
DOCKED: USER    (3) Torsional Free Energy           =   +3.88 kcal/mol
DOCKED: USER    (4) Unbound System's Energy  [=(2)] =   -3.23 kcal/mol
DOCKED: USER    
DOCKED: USER    
DOCKED: USER    NEWDPF move heme_opt.pdbqt
DOCKED: USER    NEWDPF about 0.153000 0.018000 -0.028000
DOCKED: USER    NEWDPF tran0 -11.653206 4.307926 12.030615
DOCKED: USER    NEWDPF quaternion0 0.600715 0.260566 0.669757 -0.350246
DOCKED: USER    NEWDPF axisangle0 0.641339 0.278187 0.715050 -138.995234
DOCKED: USER    NEWDPF quat0 0.641339 0.278187 0.715050 -138.995234
DOCKED: USER    NEWDPF dihe0 -82.67 -171.17 -42.15 -45.28 9.97 -78.29 -18.98 -92.94 180.00 135.02 -101.09 32.16 -7.09 
DOCKED: USER  keepresnum = 1 
DOCKED: USER  
DOCKED: REMARK  13 active torsions:
DOCKED: REMARK  status: ('A' for Active; 'I' for Inactive)
DOCKED: REMARK    1  A    between atoms: O_3  and  C_38 
DOCKED: REMARK    2  A    between atoms: O_4  and  C_40 
DOCKED: REMARK    3  A    between atoms: O_7  and  C_46 
DOCKED: REMARK    4  A    between atoms: O_9  and  C_48 
DOCKED: REMARK    5  A    between atoms: C_15  and  C_20 
DOCKED: REMARK    6  A    between atoms: C_16  and  C_23 
DOCKED: REMARK    7  A    between atoms: C_20  and  C_38 
DOCKED: REMARK    8  A    between atoms: C_23  and  C_40 
DOCKED: REMARK    9  A    between atoms: C_32  and  C_41 
DOCKED: REMARK   10  A    between atoms: C_37  and  C_45 
DOCKED: REMARK   11  A    between atoms: C_41  and  C_44 
DOCKED: REMARK   12  A    between atoms: C_44  and  C_46 
DOCKED: REMARK   13  A    between atoms: C_47  and  C_48 
DOCKED: USER                              x       y       z     vdW  Elec       q    Type
DOCKED: USER                           _______ _______ _______ _____ _____    ______ ____
DOCKED: ROOT
DOCKED: ATOM      1  O   UNL d   1     -11.092  -1.173   9.932 -0.23 +0.15    -0.289 OA
DOCKED: ATOM      2  O   UNL d   1     -12.368   5.342   6.422 -0.12 +0.00    -0.289 OA
DOCKED: ATOM      3  N   UNL d   1     -11.484   1.811  11.617 -0.18 +0.02    -0.247 NA
DOCKED: ATOM      4  N   UNL d   1     -11.632   3.816   9.429 -0.12 +0.01    -0.247 NA
DOCKED: ATOM      5  N   UNL d   1     -11.253   5.867  11.408 -0.03 -0.01    -0.354 N 
DOCKED: ATOM      6  N   UNL d   1     -11.081   3.779  13.669 -0.02 -0.04    -0.354 N 
DOCKED: ATOM      7  C   UNL d   1     -10.880  -0.474  12.265 -0.26 -0.01    +0.084 A 
DOCKED: ATOM      8  C   UNL d   1     -12.434   3.041   7.254 -0.18 -0.01    +0.084 A 
DOCKED: ATOM      9  C   UNL d   1     -12.015   2.717   8.692 -0.22 -0.01    +0.058 A 
DOCKED: ATOM     10  C   UNL d   1     -11.130   0.982  12.668 -0.25 +0.00    +0.058 A 
DOCKED: ATOM     11  C   UNL d   1     -11.174  -0.325  10.802 -0.20 -0.06    +0.193 A 
DOCKED: ATOM     12  C   UNL d   1     -11.553   1.099  10.539 -0.20 -0.02    +0.109 A 
DOCKED: ATOM     13  C   UNL d   1     -12.181   4.522   7.299 -0.16 -0.00    +0.193 A 
DOCKED: ATOM     14  C   UNL d   1      -9.412  -0.874  12.437 +0.02 -0.00    +0.026 C 
DOCKED: ATOM     15  C   UNL d   1     -11.977   1.465   9.173 -0.26 -0.01    +0.055 C 
DOCKED: ATOM     16  C   UNL d   1     -13.930   2.803   7.031 -0.07 -0.00    +0.026 C 
DOCKED: ATOM     17  C   UNL d   1     -11.692   4.863   8.669 -0.23 -0.00    +0.109 A 
DOCKED: ATOM     18  C   UNL d   1     -11.090   1.372  13.956 -0.24 +0.01    +0.050 C 
DOCKED: ATOM     19  C   UNL d   1     -11.389   2.675  14.431 -0.15 +0.00    +0.045 A 
DOCKED: ATOM     20  C   UNL d   1     -11.117   6.614  10.266 -0.26 -0.00    +0.045 A 
DOCKED: ATOM     21  C   UNL d   1     -11.319   6.247   8.996 -0.34 -0.00    +0.057 C 
DOCKED: ATOM     22  C   UNL d   1     -10.603   7.920  12.068 -0.27 -0.00    -0.019 A 
DOCKED: ATOM     23  C   UNL d   1     -10.963   6.571  12.546 -0.23 +0.00    +0.045 A 
DOCKED: ATOM     24  C   UNL d   1     -10.697   7.940  10.717 -0.30 +0.00    -0.022 A 
DOCKED: ATOM     25  C   UNL d   1     -11.372   4.936  14.355 -0.14 +0.00    +0.049 A 
DOCKED: ATOM     26  C   UNL d   1     -11.927   3.124  15.627 -0.07 -0.00    -0.018 A 
DOCKED: ATOM     27  C   UNL d   1     -11.932   4.552  15.566 -0.07 +0.00    +0.003 A 
DOCKED: ATOM     28  C   UNL d   1     -10.996   6.205  13.837 -0.20 +0.00    +0.052 C 
DOCKED: ATOM     29  C   UNL d   1     -10.446   9.072   9.781 -0.26 -0.00    +0.046 C 
DOCKED: ATOM     30  C   UNL d   1     -12.410   2.280  16.758 -0.03 +0.00    +0.046 C 
DOCKED: ATOM     31  H   UNL d   1     -11.613   4.919  11.377 +0.05 -0.00    +0.166 HD
DOCKED: ATOM     32  H   UNL d   1     -10.661   3.726  12.749 +0.07 +0.02    +0.166 HD
DOCKED: ENDROOT
DOCKED: BRANCH   7  33
DOCKED: ATOM     33  C   UNL d   1     -11.821  -1.502  12.901 -0.11 -0.03    +0.141 C 
DOCKED: BRANCH  33  34
DOCKED: ATOM     34  C   UNL d   1     -11.086  -2.684  13.473 -0.09 -0.09    +0.306 C 
DOCKED: ATOM     35  O   UNL d   1     -10.294  -2.660  14.400 -0.66 -0.07    -0.251 OA
DOCKED: BRANCH  34  36
DOCKED: ATOM     36  O   UNL d   1     -11.391  -3.836  12.849 -0.03 +0.34    -0.481 OA
DOCKED: ATOM     37  H   UNL d   1     -10.690  -3.942  12.171 -0.45 -0.54    +0.295 HD
DOCKED: ENDBRANCH  34  36
DOCKED: ENDBRANCH  33  34
DOCKED: ENDBRANCH   7  33
DOCKED: BRANCH  27  38
DOCKED: ATOM     38  C   UNL d   1     -12.394   5.421  16.606 -0.03 +0.00    +0.017 C 
DOCKED: ATOM     39  C   UNL d   1     -13.495   6.185  16.544 -0.01 -0.00    +0.092 C 
DOCKED: BRANCH  39  40
DOCKED: ATOM     40  C   UNL d   1     -13.869   7.020  17.689 -0.00 -0.01    +0.330 C 
DOCKED: ATOM     41  O   UNL d   1     -14.444   6.676  18.704 +0.00 +0.01    -0.246 OA
DOCKED: BRANCH  40  42
DOCKED: ATOM     42  O   UNL d   1     -13.473   8.286  17.485 -0.00 +0.01    -0.477 OA
DOCKED: ATOM     43  H   UNL d   1     -13.174   8.291  16.553 +0.00 -0.01    +0.295 HD
DOCKED: ENDBRANCH  40  42
DOCKED: ENDBRANCH  39  40
DOCKED: ENDBRANCH  27  38
DOCKED: BRANCH   8  44
DOCKED: ATOM     44  C   UNL d   1     -11.596   2.375   6.157 -0.30 -0.02    +0.141 C 
DOCKED: BRANCH  44  45
DOCKED: ATOM     45  C   UNL d   1     -12.063   0.985   5.815 -0.16 -0.14    +0.306 C 
DOCKED: ATOM     46  O   UNL d   1     -12.077   0.019   6.558 -0.19 +0.15    -0.251 OA
DOCKED: BRANCH  45  47
DOCKED: ATOM     47  O   UNL d   1     -12.465   0.878   4.536 -0.12 +0.19    -0.481 OA
DOCKED: ATOM     48  H   UNL d   1     -12.084   0.029   4.226 -0.45 -0.39    +0.295 HD
DOCKED: ENDBRANCH  45  47
DOCKED: ENDBRANCH  44  45
DOCKED: ENDBRANCH   8  44
DOCKED: BRANCH  22  49
DOCKED: ATOM     49  C   UNL d   1     -10.189   9.050  12.965 -0.22 +0.00    +0.048 C 
DOCKED: BRANCH  49  50
DOCKED: ATOM     50  C   UNL d   1     -11.386   9.890  13.410 -0.07 -0.00    +0.125 C 
DOCKED: BRANCH  50  51
DOCKED: ATOM     51  C   UNL d   1     -12.121   9.222  14.536 -0.01 -0.01    +0.305 C 
DOCKED: ATOM     52  O   UNL d   1     -13.138   8.554  14.467 -0.01 +0.01    -0.251 OA
DOCKED: BRANCH  51  53
DOCKED: ATOM     53  O   UNL d   1     -11.530   9.444  15.727 +0.01 +0.01    -0.481 OA
DOCKED: ATOM     54  H   UNL d   1     -12.272   9.680  16.322 +0.01 -0.01    +0.295 HD
DOCKED: ENDBRANCH  51  53
DOCKED: ENDBRANCH  50  51
DOCKED: ENDBRANCH  49  50
DOCKED: ENDBRANCH  22  49
DOCKED: TORSDOF 13
DOCKED: TER
DOCKED: ENDMDL
________________________________________________________________________________


	BEGINNING GENETIC ALGORITHM DOCKING 26 of 100
Run: 26 Seed: 1868898914 1833516228 [ Run 26 of 100 GA/GALS ]
Beginning LAMARCKIAN GENETIC ALGORITHM (LGA), with a maximum of 25000000 energy evaluations.

Final-Value: -12.758


	FINAL GENETIC ALGORITHM DOCKED STATE
	_______________________________________________


Detailed state:  trans 5.337 14.701 -11.123 quatxyzw -0.367211 0.393368 -0.101564 0.836721 center 0.153 0.018 -0.028 ntor 13 119.0200 -92.1982 -137.8853 -145.4255 -130.8152 -45.2455 -95.3855 49.6736 31.2772 -147.6776 60.7443 -96.5927 7.3317
State:	  5.337  14.701 -11.123  -0.671  0.718 -0.185 66.409    119.02  -92.20 -137.89 -145.43 -130.82  -45.25  -95.39   49.67   31.28 -147.68   60.74  -96.59    7.33

DOCKED: MODEL       26
DOCKED: USER    Run = 26
DOCKED: USER    DPF = D:/Protein_go_brrr/autodock/final/mut_N102T/heme/dock.dpf
DOCKED: USER  
DOCKED: USER    Estimated Free Energy of Binding    =   -6.54 kcal/mol  [=(1)+(2)+(3)-(4)]
DOCKED: USER    Estimated Inhibition Constant, Ki   =   16.10 uM (micromolar)  [Temperature = 298.15 K]
DOCKED: USER    
DOCKED: USER    (1) Final Intermolecular Energy     =  -10.42 kcal/mol
DOCKED: USER        vdW + Hbond + desolv Energy     =   -9.26 kcal/mol
DOCKED: USER        Electrostatic Energy            =   -1.15 kcal/mol
DOCKED: USER    (2) Final Total Internal Energy     =   -2.34 kcal/mol
DOCKED: USER    (3) Torsional Free Energy           =   +3.88 kcal/mol
DOCKED: USER    (4) Unbound System's Energy  [=(2)] =   -2.34 kcal/mol
DOCKED: USER    
DOCKED: USER    
DOCKED: USER    NEWDPF move heme_opt.pdbqt
DOCKED: USER    NEWDPF about 0.153000 0.018000 -0.028000
DOCKED: USER    NEWDPF tran0 5.337496 14.700643 -11.123187
DOCKED: USER    NEWDPF quaternion0 -0.367211 0.393368 -0.101564 0.836721
DOCKED: USER    NEWDPF axisangle0 -0.670546 0.718312 -0.185461 66.409020
DOCKED: USER    NEWDPF quat0 -0.670546 0.718312 -0.185461 66.409020
DOCKED: USER    NEWDPF dihe0 119.02 -92.20 -137.89 -145.43 -130.82 -45.25 -95.39 49.67 31.28 -147.68 60.74 -96.59 7.33 
DOCKED: USER  keepresnum = 1 
DOCKED: USER  
DOCKED: REMARK  13 active torsions:
DOCKED: REMARK  status: ('A' for Active; 'I' for Inactive)
DOCKED: REMARK    1  A    between atoms: O_3  and  C_38 
DOCKED: REMARK    2  A    between atoms: O_4  and  C_40 
DOCKED: REMARK    3  A    between atoms: O_7  and  C_46 
DOCKED: REMARK    4  A    between atoms: O_9  and  C_48 
DOCKED: REMARK    5  A    between atoms: C_15  and  C_20 
DOCKED: REMARK    6  A    between atoms: C_16  and  C_23 
DOCKED: REMARK    7  A    between atoms: C_20  and  C_38 
DOCKED: REMARK    8  A    between atoms: C_23  and  C_40 
DOCKED: REMARK    9  A    between atoms: C_32  and  C_41 
DOCKED: REMARK   10  A    between atoms: C_37  and  C_45 
DOCKED: REMARK   11  A    between atoms: C_41  and  C_44 
DOCKED: REMARK   12  A    between atoms: C_44  and  C_46 
DOCKED: REMARK   13  A    between atoms: C_47  and  C_48 
DOCKED: USER                              x       y       z     vdW  Elec       q    Type
DOCKED: USER                           _______ _______ _______ _____ _____    ______ ____
DOCKED: ROOT
DOCKED: ATOM      1  O   UNL d   1       0.425  16.117 -14.060 -0.16 -0.04    -0.289 OA
DOCKED: ATOM      2  O   UNL d   1       6.703  12.674 -16.326 +0.00 +0.29    -0.289 OA
DOCKED: ATOM      3  N   UNL d   1       3.135  15.617 -11.985 -0.16 +0.08    -0.247 NA
DOCKED: ATOM      4  N   UNL d   1       4.960  13.950 -13.634 -0.12 +0.11    -0.247 NA
DOCKED: ATOM      5  N   UNL d   1       6.464  13.399 -11.247 +0.17 +0.18    -0.354 N 
DOCKED: ATOM      6  N   UNL d   1       4.555  15.114  -9.540 -0.15 +0.15    -0.354 N 
DOCKED: ATOM      7  C   UNL d   1       0.862  16.482 -11.682 -0.17 -0.02    +0.084 A 
DOCKED: ATOM      8  C   UNL d   1       4.765  14.147 -16.062 -0.16 -0.03    +0.084 A 
DOCKED: ATOM      9  C   UNL d   1       4.242  14.508 -14.668 -0.21 -0.02    +0.058 A 
DOCKED: ATOM     10  C   UNL d   1       2.223  16.128 -11.077 -0.20 -0.02    +0.058 A 
DOCKED: ATOM     11  C   UNL d   1       1.171  16.097 -13.098 -0.14 -0.01    +0.193 A 
DOCKED: ATOM     12  C   UNL d   1       2.587  15.612 -13.156 -0.21 -0.02    +0.109 A 
DOCKED: ATOM     13  C   UNL d   1       5.890  13.250 -15.629 -0.09 -0.13    +0.193 A 
DOCKED: ATOM     14  C   UNL d   1      -0.254  15.576 -11.156 -0.17 -0.01    +0.026 C 
DOCKED: ATOM     15  C   UNL d   1       3.148  15.262 -14.477 -0.24 -0.01    +0.055 C 
DOCKED: ATOM     16  C   UNL d   1       5.356  15.364 -16.781 -0.06 -0.00    +0.026 C 
DOCKED: ATOM     17  C   UNL d   1       5.895  13.209 -14.135 -0.21 -0.05    +0.109 A 
DOCKED: ATOM     18  C   UNL d   1       2.508  16.389  -9.787 -0.18 -0.02    +0.050 C 
DOCKED: ATOM     19  C   UNL d   1       3.763  16.175  -9.163 -0.24 -0.02    +0.045 A 
DOCKED: ATOM     20  C   UNL d   1       7.049  12.505 -12.106 -0.22 -0.02    +0.045 A 
DOCKED: ATOM     21  C   UNL d   1       6.869  12.368 -13.423 -0.28 -0.02    +0.057 C 
DOCKED: ATOM     22  C   UNL d   1       7.853  12.140  -9.999 -0.28 +0.01    -0.019 A 
DOCKED: ATOM     23  C   UNL d   1       6.887  13.255  -9.952 -0.24 -0.02    +0.045 A 
DOCKED: ATOM     24  C   UNL d   1       7.946  11.701 -11.276 -0.27 +0.01    -0.022 A 
DOCKED: ATOM     25  C   UNL d   1       5.677  15.043  -8.747 -0.24 -0.02    +0.049 A 
DOCKED: ATOM     26  C   UNL d   1       4.405  16.832  -8.124 -0.16 +0.01    -0.018 A 
DOCKED: ATOM     27  C   UNL d   1       5.622  16.124  -7.879 -0.15 -0.00    +0.003 A 
DOCKED: ATOM     28  C   UNL d   1       6.568  13.939  -8.843 -0.23 -0.02    +0.052 C 
DOCKED: ATOM     29  C   UNL d   1       8.795  10.606 -11.827 -0.30 -0.01    +0.046 C 
DOCKED: ATOM     30  C   UNL d   1       3.920  18.043  -7.402 -0.11 -0.01    +0.046 C 
DOCKED: ATOM     31  H   UNL d   1       5.848  14.129 -11.587 -0.36 -0.09    +0.166 HD
DOCKED: ATOM     32  H   UNL d   1       4.306  14.463 -10.275 -0.37 -0.10    +0.166 HD
DOCKED: ENDROOT
DOCKED: BRANCH   7  33
DOCKED: ATOM     33  C   UNL d   1       0.471  17.962 -11.601 -0.05 -0.01    +0.141 C 
DOCKED: BRANCH  33  34
DOCKED: ATOM     34  C   UNL d   1       1.148  18.798 -12.653 +0.00 -0.00    +0.306 C 
DOCKED: ATOM     35  O   UNL d   1       2.308  19.174 -12.638 -0.00 +0.01    -0.251 OA
DOCKED: BRANCH  34  36
DOCKED: ATOM     36  O   UNL d   1       0.327  19.116 -13.669 +0.01 -0.03    -0.481 OA
DOCKED: ATOM     37  H   UNL d   1       0.097  18.255 -14.079 +0.05 +0.03    +0.295 HD
DOCKED: ENDBRANCH  34  36
DOCKED: ENDBRANCH  33  34
DOCKED: ENDBRANCH   7  33
DOCKED: BRANCH  27  38
DOCKED: ATOM     38  C   UNL d   1       6.583  16.459  -6.872 -0.12 -0.01    +0.017 C 
DOCKED: ATOM     39  C   UNL d   1       6.965  15.655  -5.867 -0.15 -0.09    +0.092 C 
DOCKED: BRANCH  39  40
DOCKED: ATOM     40  C   UNL d   1       7.974  16.113  -4.909 +0.17 -0.40    +0.330 C 
DOCKED: ATOM     41  O   UNL d   1       9.041  16.645  -5.151 -0.06 +0.22    -0.246 OA
DOCKED: BRANCH  40  42
DOCKED: ATOM     42  O   UNL d   1       7.562  15.874  -3.655 -0.01 +0.57    -0.477 OA
DOCKED: ATOM     43  H   UNL d   1       7.872  14.962  -3.476 -0.49 -0.66    +0.295 HD
DOCKED: ENDBRANCH  40  42
DOCKED: ENDBRANCH  39  40
DOCKED: ENDBRANCH  27  38
DOCKED: BRANCH   8  44
DOCKED: ATOM     44  C   UNL d   1       3.780  13.395 -16.963 -0.26 -0.07    +0.141 C 
DOCKED: BRANCH  44  45
DOCKED: ATOM     45  C   UNL d   1       4.163  13.426 -18.419 -0.10 -0.14    +0.306 C 
DOCKED: ATOM     46  O   UNL d   1       3.409  13.571 -19.366 -0.14 +0.03    -0.251 OA
DOCKED: BRANCH  45  47
DOCKED: ATOM     47  O   UNL d   1       5.483  13.245 -18.608 -0.03 +0.34    -0.481 OA
DOCKED: ATOM     48  H   UNL d   1       5.729  12.538 -17.975 -0.38 -0.50    +0.295 HD
DOCKED: ENDBRANCH  45  47
DOCKED: ENDBRANCH  44  45
DOCKED: ENDBRANCH   8  44
DOCKED: BRANCH  22  49
DOCKED: ATOM     49  C   UNL d   1       8.578  11.602  -8.800 -0.32 -0.02    +0.048 C 
DOCKED: BRANCH  49  50
DOCKED: ATOM     50  C   UNL d   1       9.719  12.521  -8.365 -0.19 -0.10    +0.125 C 
DOCKED: BRANCH  50  51
DOCKED: ATOM     51  C   UNL d   1      11.042  11.814  -8.456 -0.13 -0.19    +0.305 C 
DOCKED: ATOM     52  O   UNL d   1      11.441  11.097  -9.357 -0.13 +0.08    -0.251 OA
DOCKED: BRANCH  51  53
DOCKED: ATOM     53  O   UNL d   1      11.811  12.043  -7.373 -0.53 +0.43    -0.481 OA
DOCKED: ATOM     54  H   UNL d   1      11.170  12.110  -6.635 -0.49 -0.76    +0.295 HD
DOCKED: ENDBRANCH  51  53
DOCKED: ENDBRANCH  50  51
DOCKED: ENDBRANCH  49  50
DOCKED: ENDBRANCH  22  49
DOCKED: TORSDOF 13
DOCKED: TER
DOCKED: ENDMDL
________________________________________________________________________________


	BEGINNING GENETIC ALGORITHM DOCKING 27 of 100
Run: 27 Seed: 1328549441 911587945 [ Run 27 of 100 GA/GALS ]
Beginning LAMARCKIAN GENETIC ALGORITHM (LGA), with a maximum of 25000000 energy evaluations.

Final-Value: -11.911


	FINAL GENETIC ALGORITHM DOCKED STATE
	_______________________________________________


Detailed state:  trans 10.952 9.752 -12.871 quatxyzw 0.230091 0.696417 -0.636946 0.237405 center 0.153 0.018 -0.028 ntor 13 -105.2382 -161.3702 -158.9096 -82.5238 33.5910 89.2131 132.2310 -119.0377 130.4977 -19.1888 -107.8514 -94.3731 -0.0591
State:	 10.952   9.752 -12.871   0.237  0.717 -0.656 152.533   -105.24 -161.37 -158.91  -82.52   33.59   89.21  132.23 -119.04  130.50  -19.19 -107.85  -94.37   -0.06

DOCKED: MODEL       27
DOCKED: USER    Run = 27
DOCKED: USER    DPF = D:/Protein_go_brrr/autodock/final/mut_N102T/heme/dock.dpf
DOCKED: USER  
DOCKED: USER    Estimated Free Energy of Binding    =   -3.46 kcal/mol  [=(1)+(2)+(3)-(4)]
DOCKED: USER    Estimated Inhibition Constant, Ki   =    2.90 mM (millimolar)  [Temperature = 298.15 K]
DOCKED: USER    
DOCKED: USER    (1) Final Intermolecular Energy     =   -7.34 kcal/mol
DOCKED: USER        vdW + Hbond + desolv Energy     =   -7.32 kcal/mol
DOCKED: USER        Electrostatic Energy            =   -0.02 kcal/mol
DOCKED: USER    (2) Final Total Internal Energy     =   -4.57 kcal/mol
DOCKED: USER    (3) Torsional Free Energy           =   +3.88 kcal/mol
DOCKED: USER    (4) Unbound System's Energy  [=(2)] =   -4.57 kcal/mol
DOCKED: USER    
DOCKED: USER    
DOCKED: USER    NEWDPF move heme_opt.pdbqt
DOCKED: USER    NEWDPF about 0.153000 0.018000 -0.028000
DOCKED: USER    NEWDPF tran0 10.951829 9.752204 -12.871163
DOCKED: USER    NEWDPF quaternion0 0.230091 0.696417 -0.636946 0.237405
DOCKED: USER    NEWDPF axisangle0 0.236863 0.716913 -0.655692 152.533126
DOCKED: USER    NEWDPF quat0 0.236863 0.716913 -0.655692 152.533126
DOCKED: USER    NEWDPF dihe0 -105.24 -161.37 -158.91 -82.52 33.59 89.21 132.23 -119.04 130.50 -19.19 -107.85 -94.37 -0.06 
DOCKED: USER  keepresnum = 1 
DOCKED: USER  
DOCKED: REMARK  13 active torsions:
DOCKED: REMARK  status: ('A' for Active; 'I' for Inactive)
DOCKED: REMARK    1  A    between atoms: O_3  and  C_38 
DOCKED: REMARK    2  A    between atoms: O_4  and  C_40 
DOCKED: REMARK    3  A    between atoms: O_7  and  C_46 
DOCKED: REMARK    4  A    between atoms: O_9  and  C_48 
DOCKED: REMARK    5  A    between atoms: C_15  and  C_20 
DOCKED: REMARK    6  A    between atoms: C_16  and  C_23 
DOCKED: REMARK    7  A    between atoms: C_20  and  C_38 
DOCKED: REMARK    8  A    between atoms: C_23  and  C_40 
DOCKED: REMARK    9  A    between atoms: C_32  and  C_41 
DOCKED: REMARK   10  A    between atoms: C_37  and  C_45 
DOCKED: REMARK   11  A    between atoms: C_41  and  C_44 
DOCKED: REMARK   12  A    between atoms: C_44  and  C_46 
DOCKED: REMARK   13  A    between atoms: C_47  and  C_48 
DOCKED: USER                              x       y       z     vdW  Elec       q    Type
DOCKED: USER                           _______ _______ _______ _____ _____    ______ ____
DOCKED: ROOT
DOCKED: ATOM      1  O   UNL d   1      14.963   5.893 -14.814 -0.05 +0.03    -0.289 OA
DOCKED: ATOM      2  O   UNL d   1      13.925   8.925  -8.023 -0.11 +0.03    -0.289 OA
DOCKED: ATOM      3  N   UNL d   1      12.526   8.248 -14.172 -0.15 +0.01    -0.247 NA
DOCKED: ATOM      4  N   UNL d   1      12.684   8.608 -11.227 -0.14 +0.07    -0.247 NA
DOCKED: ATOM      5  N   UNL d   1      10.164   9.987 -11.354 -0.04 +0.14    -0.354 N 
DOCKED: ATOM      6  N   UNL d   1       9.999   9.592 -14.406 -0.11 +0.01    -0.354 N 
DOCKED: ATOM      7  C   UNL d   1      13.124   6.860 -16.102 -0.15 +0.00    +0.084 A 
DOCKED: ATOM      8  C   UNL d   1      14.826   8.129 -10.155 -0.08 -0.01    +0.084 A 
DOCKED: ATOM      9  C   UNL d   1      13.958   8.124 -11.417 -0.14 -0.01    +0.058 A 
DOCKED: ATOM     10  C   UNL d   1      12.205   7.914 -15.477 -0.14 +0.00    +0.058 A 
DOCKED: ATOM     11  C   UNL d   1      14.033   6.671 -14.925 -0.11 -0.02    +0.193 A 
DOCKED: ATOM     12  C   UNL d   1      13.582   7.586 -13.828 -0.16 -0.01    +0.109 A 
DOCKED: ATOM     13  C   UNL d   1      13.796   8.670  -9.204 -0.15 -0.03    +0.193 A 
DOCKED: ATOM     14  C   UNL d   1      12.388   5.546 -16.376 -0.21 +0.00    +0.026 C 
DOCKED: ATOM     15  C   UNL d   1      14.390   7.641 -12.593 -0.12 -0.01    +0.055 C 
DOCKED: ATOM     16  C   UNL d   1      15.977   9.135 -10.260 -0.03 -0.00    +0.026 C 
DOCKED: ATOM     17  C   UNL d   1      12.540   8.912  -9.977 -0.23 -0.03    +0.109 A 
DOCKED: ATOM     18  C   UNL d   1      11.233   8.512 -16.192 -0.04 +0.01    +0.050 C 
DOCKED: ATOM     19  C   UNL d   1      10.392   9.554 -15.725 -0.13 +0.00    +0.045 A 
DOCKED: ATOM     20  C   UNL d   1      10.293   9.856  -9.995 -0.21 -0.02    +0.045 A 
DOCKED: ATOM     21  C   UNL d   1      11.337   9.406  -9.292 -0.15 -0.01    +0.057 C 
DOCKED: ATOM     22  C   UNL d   1       8.222  10.700 -10.462 -0.37 +0.01    -0.019 A 
DOCKED: ATOM     23  C   UNL d   1       8.947  10.488 -11.731 -0.27 -0.01    +0.045 A 
DOCKED: ATOM     24  C   UNL d   1       9.024  10.325  -9.438 -0.40 +0.01    -0.022 A 
DOCKED: ATOM     25  C   UNL d   1       9.118  10.627 -14.194 -0.23 -0.01    +0.049 A 
DOCKED: ATOM     26  C   UNL d   1       9.780  10.613 -16.378 -0.16 +0.00    -0.018 A 
DOCKED: ATOM     27  C   UNL d   1       8.993  11.299 -15.402 -0.17 -0.00    +0.003 A 
DOCKED: ATOM     28  C   UNL d   1       8.453  10.773 -12.946 -0.28 -0.01    +0.052 C 
DOCKED: ATOM     29  C   UNL d   1       8.747  10.363  -7.974 -0.52 -0.02    +0.046 C 
DOCKED: ATOM     30  C   UNL d   1       9.919  10.970 -17.819 -0.12 +0.00    +0.046 C 
DOCKED: ATOM     31  H   UNL d   1      10.942   9.798 -11.976 -0.07 -0.05    +0.166 HD
DOCKED: ATOM     32  H   UNL d   1      10.296   8.915 -13.713 +0.00 -0.01    +0.166 HD
DOCKED: ENDROOT
DOCKED: BRANCH   7  33
DOCKED: ATOM     33  C   UNL d   1      13.919   7.325 -17.326 -0.05 +0.00    +0.141 C 
DOCKED: BRANCH  33  34
DOCKED: ATOM     34  C   UNL d   1      14.833   6.257 -17.863 -0.01 -0.00    +0.306 C 
DOCKED: ATOM     35  O   UNL d   1      14.539   5.402 -18.682 -0.01 -0.00    -0.251 OA
DOCKED: BRANCH  34  36
DOCKED: ATOM     36  O   UNL d   1      16.071   6.324 -17.342 +0.00 +0.01    -0.481 OA
DOCKED: ATOM     37  H   UNL d   1      15.967   6.013 -16.417 +0.02 -0.01    +0.295 HD
DOCKED: ENDBRANCH  34  36
DOCKED: ENDBRANCH  33  34
DOCKED: ENDBRANCH   7  33
DOCKED: BRANCH  27  38
DOCKED: ATOM     38  C   UNL d   1       8.181  12.450 -15.657 -0.13 -0.01    +0.017 C 
DOCKED: ATOM     39  C   UNL d   1       6.862  12.534 -15.426 -0.14 -0.07    +0.092 C 
DOCKED: BRANCH  39  40
DOCKED: ATOM     40  C   UNL d   1       6.148  13.781 -15.716 -0.06 -0.16    +0.330 C 
DOCKED: ATOM     41  O   UNL d   1       5.651  14.124 -16.771 -0.08 +0.12    -0.246 OA
DOCKED: BRANCH  40  42
DOCKED: ATOM     42  O   UNL d   1       6.092  14.547 -14.616 -0.00 +0.15    -0.477 OA
DOCKED: ATOM     43  H   UNL d   1       6.797  14.184 -14.041 +0.07 -0.09    +0.295 HD
DOCKED: ENDBRANCH  40  42
DOCKED: ENDBRANCH  39  40
DOCKED: ENDBRANCH  27  38
DOCKED: BRANCH   8  44
DOCKED: ATOM     44  C   UNL d   1      15.330   6.757  -9.695 -0.08 -0.02    +0.141 C 
DOCKED: BRANCH  44  45
DOCKED: ATOM     45  C   UNL d   1      14.235   5.865  -9.174 -0.16 -0.07    +0.306 C 
DOCKED: ATOM     46  O   UNL d   1      13.544   5.105  -9.829 -0.25 +0.09    -0.251 OA
DOCKED: BRANCH  45  47
DOCKED: ATOM     47  O   UNL d   1      14.047   6.001  -7.848 -0.16 +0.09    -0.481 OA
DOCKED: ATOM     48  H   UNL d   1      14.443   6.871  -7.630 +0.10 -0.04    +0.295 HD
DOCKED: ENDBRANCH  45  47
DOCKED: ENDBRANCH  44  45
DOCKED: ENDBRANCH   8  44
DOCKED: BRANCH  22  49
DOCKED: ATOM     49  C   UNL d   1       6.821  11.229 -10.371 -0.43 -0.01    +0.048 C 
DOCKED: BRANCH  49  50
DOCKED: ATOM     50  C   UNL d   1       6.785  12.756 -10.428 -0.20 -0.05    +0.125 C 
DOCKED: BRANCH  50  51
DOCKED: ATOM     51  C   UNL d   1       7.074  13.248 -11.818 -0.10 -0.12    +0.305 C 
DOCKED: ATOM     52  O   UNL d   1       7.932  14.042 -12.161 -0.05 +0.07    -0.251 OA
DOCKED: BRANCH  51  53
DOCKED: ATOM     53  O   UNL d   1       6.238  12.710 -12.727 -0.06 +0.25    -0.481 OA
DOCKED: ATOM     54  H   UNL d   1       5.543  13.390 -12.844 -0.34 -0.19    +0.295 HD
DOCKED: ENDBRANCH  51  53
DOCKED: ENDBRANCH  50  51
DOCKED: ENDBRANCH  49  50
DOCKED: ENDBRANCH  22  49
DOCKED: TORSDOF 13
DOCKED: TER
DOCKED: ENDMDL
________________________________________________________________________________


	BEGINNING GENETIC ALGORITHM DOCKING 28 of 100
Run: 28 Seed: 1713585485 66700370 [ Run 28 of 100 GA/GALS ]
Beginning LAMARCKIAN GENETIC ALGORITHM (LGA), with a maximum of 25000000 energy evaluations.

Final-Value: -10.999


	FINAL GENETIC ALGORITHM DOCKED STATE
	_______________________________________________


Detailed state:  trans -4.953 12.891 -11.046 quatxyzw -0.089674 0.680337 -0.404912 -0.604274 center 0.153 0.018 -0.028 ntor 13 114.0863 -139.5427 -179.1651 -144.9329 -130.7114 67.5723 143.9282 -24.2787 33.2819 -10.0540 137.1213 -66.6315 31.5373
State:	 -4.953  12.891 -11.046  -0.113  0.854 -0.508 -105.647    114.09 -139.54 -179.17 -144.93 -130.71   67.57  143.93  -24.28   33.28  -10.05  137.12  -66.63   31.54

DOCKED: MODEL       28
DOCKED: USER    Run = 28
DOCKED: USER    DPF = D:/Protein_go_brrr/autodock/final/mut_N102T/heme/dock.dpf
DOCKED: USER  
DOCKED: USER    Estimated Free Energy of Binding    =   -3.08 kcal/mol  [=(1)+(2)+(3)-(4)]
DOCKED: USER    Estimated Inhibition Constant, Ki   =    5.55 mM (millimolar)  [Temperature = 298.15 K]
DOCKED: USER    
DOCKED: USER    (1) Final Intermolecular Energy     =   -6.96 kcal/mol
DOCKED: USER        vdW + Hbond + desolv Energy     =   -6.83 kcal/mol
DOCKED: USER        Electrostatic Energy            =   -0.13 kcal/mol
DOCKED: USER    (2) Final Total Internal Energy     =   -4.04 kcal/mol
DOCKED: USER    (3) Torsional Free Energy           =   +3.88 kcal/mol
DOCKED: USER    (4) Unbound System's Energy  [=(2)] =   -4.04 kcal/mol
DOCKED: USER    
DOCKED: USER    
DOCKED: USER    NEWDPF move heme_opt.pdbqt
DOCKED: USER    NEWDPF about 0.153000 0.018000 -0.028000
DOCKED: USER    NEWDPF tran0 -4.953006 12.891459 -11.045725
DOCKED: USER    NEWDPF quaternion0 -0.089674 0.680337 -0.404912 -0.604274
DOCKED: USER    NEWDPF axisangle0 -0.112546 0.853861 -0.508187 -105.646770
DOCKED: USER    NEWDPF quat0 -0.112546 0.853861 -0.508187 -105.646770
DOCKED: USER    NEWDPF dihe0 114.09 -139.54 -179.17 -144.93 -130.71 67.57 143.93 -24.28 33.28 -10.05 137.12 -66.63 31.54 
DOCKED: USER  keepresnum = 1 
DOCKED: USER  
DOCKED: REMARK  13 active torsions:
DOCKED: REMARK  status: ('A' for Active; 'I' for Inactive)
DOCKED: REMARK    1  A    between atoms: O_3  and  C_38 
DOCKED: REMARK    2  A    between atoms: O_4  and  C_40 
DOCKED: REMARK    3  A    between atoms: O_7  and  C_46 
DOCKED: REMARK    4  A    between atoms: O_9  and  C_48 
DOCKED: REMARK    5  A    between atoms: C_15  and  C_20 
DOCKED: REMARK    6  A    between atoms: C_16  and  C_23 
DOCKED: REMARK    7  A    between atoms: C_20  and  C_38 
DOCKED: REMARK    8  A    between atoms: C_23  and  C_40 
DOCKED: REMARK    9  A    between atoms: C_32  and  C_41 
DOCKED: REMARK   10  A    between atoms: C_37  and  C_45 
DOCKED: REMARK   11  A    between atoms: C_41  and  C_44 
DOCKED: REMARK   12  A    between atoms: C_44  and  C_46 
DOCKED: REMARK   13  A    between atoms: C_47  and  C_48 
DOCKED: USER                              x       y       z     vdW  Elec       q    Type
DOCKED: USER                           _______ _______ _______ _____ _____    ______ ____
DOCKED: ROOT
DOCKED: ATOM      1  O   UNL d   1      -2.330  17.143  -7.916 -0.34 -0.02    -0.289 OA
DOCKED: ATOM      2  O   UNL d   1      -7.472  12.036  -5.951 -0.03 -0.00    -0.289 OA
DOCKED: ATOM      3  N   UNL d   1      -3.693  14.906 -10.159 -0.10 +0.01    -0.247 NA
DOCKED: ATOM      4  N   UNL d   1      -5.352  13.140  -8.440 -0.07 +0.00    -0.247 NA
DOCKED: ATOM      5  N   UNL d   1      -5.541  11.316 -10.655 -0.05 +0.02    -0.354 N 
DOCKED: ATOM      6  N   UNL d   1      -3.803  13.146 -12.425 -0.13 +0.03    -0.354 N 
DOCKED: ATOM      7  C   UNL d   1      -1.906  16.581 -10.256 -0.15 -0.01    +0.084 A 
DOCKED: ATOM      8  C   UNL d   1      -6.189  14.083  -6.347 -0.03 +0.00    +0.084 A 
DOCKED: ATOM      9  C   UNL d   1      -5.319  14.230  -7.599 -0.08 +0.00    +0.058 A 
DOCKED: ATOM     10  C   UNL d   1      -2.726  15.494 -10.957 -0.18 -0.00    +0.058 A 
DOCKED: ATOM     11  C   UNL d   1      -2.593  16.516  -8.926 -0.10 +0.01    +0.193 A 
DOCKED: ATOM     12  C   UNL d   1      -3.674  15.483  -9.002 -0.14 +0.00    +0.109 A 
DOCKED: ATOM     13  C   UNL d   1      -6.693  12.692  -6.614 -0.03 +0.00    +0.193 A 
DOCKED: ATOM     14  C   UNL d   1      -0.442  16.170 -10.078 -0.23 -0.01    +0.026 C 
DOCKED: ATOM     15  C   UNL d   1      -4.552  15.307  -7.827 -0.12 +0.00    +0.055 C 
DOCKED: ATOM     16  C   UNL d   1      -7.378  15.049  -6.364 -0.01 +0.00    +0.026 C 
DOCKED: ATOM     17  C   UNL d   1      -6.106  12.232  -7.908 -0.10 -0.00    +0.109 A 
DOCKED: ATOM     18  C   UNL d   1      -2.559  15.220 -12.265 -0.19 +0.00    +0.050 C 
DOCKED: ATOM     19  C   UNL d   1      -3.326  14.294 -13.016 -0.13 +0.00    +0.045 A 
DOCKED: ATOM     20  C   UNL d   1      -6.081  10.539  -9.663 -0.01 -0.00    +0.045 A 
DOCKED: ATOM     21  C   UNL d   1      -6.391  10.878  -8.408 -0.18 -0.00    +0.057 C 
DOCKED: ATOM     22  C   UNL d   1      -5.837   9.269 -11.546 -0.33 +0.00    -0.019 A 
DOCKED: ATOM     23  C   UNL d   1      -5.356  10.636 -11.829 -0.24 -0.01    +0.045 A 
DOCKED: ATOM     24  C   UNL d   1      -6.266   9.218 -10.263 -0.21 +0.00    -0.022 A 
DOCKED: ATOM     25  C   UNL d   1      -4.439  12.353 -13.353 -0.25 -0.01    +0.049 A 
DOCKED: ATOM     26  C   UNL d   1      -3.693  14.265 -14.353 -0.18 -0.00    -0.018 A 
DOCKED: ATOM     27  C   UNL d   1      -4.412  13.046 -14.555 -0.22 -0.00    +0.003 A 
DOCKED: ATOM     28  C   UNL d   1      -4.878  11.044 -13.015 -0.37 -0.01    +0.052 C 
DOCKED: ATOM     29  C   UNL d   1      -6.848   8.065  -9.519 -0.24 -0.01    +0.046 C 
DOCKED: ATOM     30  C   UNL d   1      -3.397  15.304 -15.381 -0.23 +0.01    +0.046 C 
DOCKED: ATOM     31  H   UNL d   1      -5.384  12.309 -10.518 +0.06 -0.01    +0.166 HD
DOCKED: ATOM     32  H   UNL d   1      -3.658  12.916 -11.449 +0.04 -0.03    +0.166 HD
DOCKED: ENDROOT
DOCKED: BRANCH   7  33
DOCKED: ATOM     33  C   UNL d   1      -2.027  17.985 -10.857 -0.04 -0.00    +0.141 C 
DOCKED: BRANCH  33  34
DOCKED: ATOM     34  C   UNL d   1      -3.269  18.703 -10.405 +0.00 -0.00    +0.306 C 
DOCKED: ATOM     35  O   UNL d   1      -4.403  18.505 -10.807 -0.00 -0.00    -0.251 OA
DOCKED: BRANCH  34  36
DOCKED: ATOM     36  O   UNL d   1      -3.018  19.633  -9.466 +0.01 +0.00    -0.481 OA
DOCKED: ATOM     37  H   UNL d   1      -2.753  19.118  -8.674 +0.03 -0.00    +0.295 HD
DOCKED: ENDBRANCH  34  36
DOCKED: ENDBRANCH  33  34
DOCKED: ENDBRANCH   7  33
DOCKED: BRANCH  27  38
DOCKED: ATOM     38  C   UNL d   1      -4.961  12.609 -15.804 -0.29 -0.00    +0.017 C 
DOCKED: ATOM     39  C   UNL d   1      -5.117  11.329 -16.175 -0.36 -0.01    +0.092 C 
DOCKED: BRANCH  39  40
DOCKED: ATOM     40  C   UNL d   1      -5.709  11.015 -17.478 -0.20 +0.01    +0.330 C 
DOCKED: ATOM     41  O   UNL d   1      -5.253  11.253 -18.580 -0.20 -0.01    -0.246 OA
DOCKED: BRANCH  40  42
DOCKED: ATOM     42  O   UNL d   1      -6.883  10.386 -17.311 -0.09 -0.03    -0.477 OA
DOCKED: ATOM     43  H   UNL d   1      -7.299  10.860 -16.562 +0.09 +0.01    +0.295 HD
DOCKED: ENDBRANCH  40  42
DOCKED: ENDBRANCH  39  40
DOCKED: ENDBRANCH  27  38
DOCKED: BRANCH   8  44
DOCKED: ATOM     44  C   UNL d   1      -5.441  14.148  -5.011 -0.05 +0.01    +0.141 C 
DOCKED: BRANCH  44  45
DOCKED: ATOM     45  C   UNL d   1      -4.392  13.078  -4.864 -0.13 +0.04    +0.306 C 
DOCKED: ATOM     46  O   UNL d   1      -3.193  13.208  -5.038 -0.26 -0.04    -0.251 OA
DOCKED: BRANCH  45  47
DOCKED: ATOM     47  O   UNL d   1      -4.917  11.885  -4.531 -0.08 -0.06    -0.481 OA
DOCKED: ATOM     48  H   UNL d   1      -5.883  12.047  -4.472 +0.09 +0.03    +0.295 HD
DOCKED: ENDBRANCH  45  47
DOCKED: ENDBRANCH  44  45
DOCKED: ENDBRANCH   8  44
DOCKED: BRANCH  22  49
DOCKED: ATOM     49  C   UNL d   1      -5.819   8.147 -12.542 -0.27 -0.02    +0.048 C 
DOCKED: BRANCH  49  50
DOCKED: ATOM     50  C   UNL d   1      -6.484   8.545 -13.860 -0.34 -0.04    +0.125 C 
DOCKED: BRANCH  50  51
DOCKED: ATOM     51  C   UNL d   1      -7.740   9.330 -13.611 -0.16 -0.05    +0.305 C 
DOCKED: ATOM     52  O   UNL d   1      -8.499   9.237 -12.663 -0.11 +0.04    -0.251 OA
DOCKED: BRANCH  51  53
DOCKED: ATOM     53  O   UNL d   1      -7.990  10.209 -14.602 -0.03 +0.03    -0.481 OA
DOCKED: ATOM     54  H   UNL d   1      -7.674   9.752 -15.410 +0.10 -0.01    +0.295 HD
DOCKED: ENDBRANCH  51  53
DOCKED: ENDBRANCH  50  51
DOCKED: ENDBRANCH  49  50
DOCKED: ENDBRANCH  22  49
DOCKED: TORSDOF 13
DOCKED: TER
DOCKED: ENDMDL
________________________________________________________________________________


	BEGINNING GENETIC ALGORITHM DOCKING 29 of 100
Run: 29 Seed: 1949143822 2098071622 [ Run 29 of 100 GA/GALS ]
Beginning LAMARCKIAN GENETIC ALGORITHM (LGA), with a maximum of 25000000 energy evaluations.

Final-Value: -11.398


	FINAL GENETIC ALGORITHM DOCKED STATE
	_______________________________________________


Detailed state:  trans -11.807 6.084 4.635 quatxyzw 0.047253 -0.657901 -0.130242 -0.740250 center 0.153 0.018 -0.028 ntor 13 174.7073 180.0000 -155.0682 70.6333 -149.7446 -71.8113 137.3492 62.7305 15.1231 -52.7540 -29.4394 -42.2032 41.1295
State:	-11.807   6.084   4.635   0.070 -0.979 -0.194 -84.495    174.71  180.00 -155.07   70.63 -149.74  -71.81  137.35   62.73   15.12  -52.75  -29.44  -42.20   41.13

DOCKED: MODEL       29
DOCKED: USER    Run = 29
DOCKED: USER    DPF = D:/Protein_go_brrr/autodock/final/mut_N102T/heme/dock.dpf
DOCKED: USER  
DOCKED: USER    Estimated Free Energy of Binding    =   -3.83 kcal/mol  [=(1)+(2)+(3)-(4)]
DOCKED: USER    Estimated Inhibition Constant, Ki   =    1.56 mM (millimolar)  [Temperature = 298.15 K]
DOCKED: USER    
DOCKED: USER    (1) Final Intermolecular Energy     =   -7.71 kcal/mol
DOCKED: USER        vdW + Hbond + desolv Energy     =   -7.39 kcal/mol
DOCKED: USER        Electrostatic Energy            =   -0.32 kcal/mol
DOCKED: USER    (2) Final Total Internal Energy     =   -3.69 kcal/mol
DOCKED: USER    (3) Torsional Free Energy           =   +3.88 kcal/mol
DOCKED: USER    (4) Unbound System's Energy  [=(2)] =   -3.69 kcal/mol
DOCKED: USER    
DOCKED: USER    
DOCKED: USER    NEWDPF move heme_opt.pdbqt
DOCKED: USER    NEWDPF about 0.153000 0.018000 -0.028000
DOCKED: USER    NEWDPF tran0 -11.807076 6.084406 4.634933
DOCKED: USER    NEWDPF quaternion0 0.047253 -0.657901 -0.130242 -0.740250
DOCKED: USER    NEWDPF axisangle0 0.070282 -0.978537 -0.193716 -84.494537
DOCKED: USER    NEWDPF quat0 0.070282 -0.978537 -0.193716 -84.494537
DOCKED: USER    NEWDPF dihe0 174.71 180.00 -155.07 70.63 -149.74 -71.81 137.35 62.73 15.12 -52.75 -29.44 -42.20 41.13 
DOCKED: USER  keepresnum = 1 
DOCKED: USER  
DOCKED: REMARK  13 active torsions:
DOCKED: REMARK  status: ('A' for Active; 'I' for Inactive)
DOCKED: REMARK    1  A    between atoms: O_3  and  C_38 
DOCKED: REMARK    2  A    between atoms: O_4  and  C_40 
DOCKED: REMARK    3  A    between atoms: O_7  and  C_46 
DOCKED: REMARK    4  A    between atoms: O_9  and  C_48 
DOCKED: REMARK    5  A    between atoms: C_15  and  C_20 
DOCKED: REMARK    6  A    between atoms: C_16  and  C_23 
DOCKED: REMARK    7  A    between atoms: C_20  and  C_38 
DOCKED: REMARK    8  A    between atoms: C_23  and  C_40 
DOCKED: REMARK    9  A    between atoms: C_32  and  C_41 
DOCKED: REMARK   10  A    between atoms: C_37  and  C_45 
DOCKED: REMARK   11  A    between atoms: C_41  and  C_44 
DOCKED: REMARK   12  A    between atoms: C_44  and  C_46 
DOCKED: REMARK   13  A    between atoms: C_47  and  C_48 
DOCKED: USER                              x       y       z     vdW  Elec       q    Type
DOCKED: USER                           _______ _______ _______ _____ _____    ______ ____
DOCKED: ROOT
DOCKED: ATOM      1  O   UNL d   1     -12.789   9.205  -0.269 -0.00 -0.00    -0.289 OA
DOCKED: ATOM      2  O   UNL d   1     -11.150   1.942   0.705 -0.25 -0.33    -0.289 OA
DOCKED: ATOM      3  N   UNL d   1     -12.156   7.833   2.831 -0.10 -0.01    -0.247 NA
DOCKED: ATOM      4  N   UNL d   1     -11.920   4.927   2.256 -0.52 -0.08    -0.247 NA
DOCKED: ATOM      5  N   UNL d   1     -12.113   4.446   5.084 -0.04 -0.01    -0.354 N 
DOCKED: ATOM      6  N   UNL d   1     -12.377   7.461   5.670 -0.07 +0.01    -0.354 N 
DOCKED: ATOM      7  C   UNL d   1     -12.901  10.026   2.030 -0.02 -0.00    +0.084 A 
DOCKED: ATOM      8  C   UNL d   1     -11.223   4.286   0.003 -0.17 +0.02    +0.084 A 
DOCKED: ATOM      9  C   UNL d   1     -11.630   5.385   0.990 -0.02 +0.02    +0.058 A 
DOCKED: ATOM     10  C   UNL d   1     -12.542   9.109   3.203 -0.08 -0.00    +0.058 A 
DOCKED: ATOM     11  C   UNL d   1     -12.630   9.048   0.927 -0.02 +0.00    +0.193 A 
DOCKED: ATOM     12  C   UNL d   1     -12.161   7.764   1.539 -0.09 +0.01    +0.109 A 
DOCKED: ATOM     13  C   UNL d   1     -11.372   3.115   0.933 -0.20 +0.09    +0.193 A 
DOCKED: ATOM     14  C   UNL d   1     -14.388  10.389   2.017 -0.01 -0.00    +0.026 C 
DOCKED: ATOM     15  C   UNL d   1     -11.743   6.674   0.635 -0.11 +0.01    +0.055 C 
DOCKED: ATOM     16  C   UNL d   1      -9.752   4.406  -0.405 -0.29 +0.01    +0.026 C 
DOCKED: ATOM     17  C   UNL d   1     -11.806   3.637   2.264 -0.19 +0.03    +0.109 A 
DOCKED: ATOM     18  C   UNL d   1     -12.526   9.563   4.471 -0.09 -0.00    +0.050 C 
DOCKED: ATOM     19  C   UNL d   1     -12.128   8.813   5.607 -0.15 -0.00    +0.045 A 
DOCKED: ATOM     20  C   UNL d   1     -12.223   3.161   4.619 -0.22 +0.00    +0.045 A 
DOCKED: ATOM     21  C   UNL d   1     -12.076   2.707   3.370 -0.24 +0.01    +0.057 C 
DOCKED: ATOM     22  C   UNL d   1     -12.607   3.166   6.871 -0.18 +0.00    -0.019 A 
DOCKED: ATOM     23  C   UNL d   1     -12.328   4.549   6.433 -0.17 -0.00    +0.045 A 
DOCKED: ATOM     24  C   UNL d   1     -12.542   2.350   5.793 -0.21 +0.00    -0.022 A 
DOCKED: ATOM     25  C   UNL d   1     -11.992   6.955   6.890 -0.17 -0.00    +0.049 A 
DOCKED: ATOM     26  C   UNL d   1     -11.534   9.189   6.802 -0.20 +0.00    -0.018 A 
DOCKED: ATOM     27  C   UNL d   1     -11.433   8.008   7.600 -0.26 -0.00    +0.003 A 
DOCKED: ATOM     28  C   UNL d   1     -12.292   5.613   7.249 -0.20 -0.00    +0.052 C 
DOCKED: ATOM     29  C   UNL d   1     -12.735   0.873   5.728 -0.23 -0.02    +0.046 C 
DOCKED: ATOM     30  C   UNL d   1     -11.085  10.559   7.181 -0.18 -0.01    +0.046 C 
DOCKED: ATOM     31  H   UNL d   1     -11.820   5.203   4.475 +0.06 +0.02    +0.166 HD
DOCKED: ATOM     32  H   UNL d   1     -12.821   6.938   4.924 +0.03 +0.00    +0.166 HD
DOCKED: ENDROOT
DOCKED: BRANCH   7  33
DOCKED: ATOM     33  C   UNL d   1     -12.018  11.269   1.874 -0.03 -0.00    +0.141 C 
DOCKED: BRANCH  33  34
DOCKED: ATOM     34  C   UNL d   1     -10.580  10.927   1.592 -0.05 -0.00    +0.306 C 
DOCKED: ATOM     35  O   UNL d   1      -9.684  10.844   2.416 -0.09 +0.00    -0.251 OA
DOCKED: BRANCH  34  36
DOCKED: ATOM     36  O   UNL d   1     -10.347  10.704   0.287 -0.00 -0.00    -0.481 OA
DOCKED: ATOM     37  H   UNL d   1     -11.236  10.704  -0.126 +0.02 +0.00    +0.295 HD
DOCKED: ENDBRANCH  34  36
DOCKED: ENDBRANCH  33  34
DOCKED: ENDBRANCH   7  33
DOCKED: BRANCH  27  38
DOCKED: ATOM     38  C   UNL d   1     -10.889   7.950   8.924 -0.36 -0.00    +0.017 C 
DOCKED: ATOM     39  C   UNL d   1     -10.889   6.866   9.714 -0.36 -0.00    +0.092 C 
DOCKED: BRANCH  39  40
DOCKED: ATOM     40  C   UNL d   1     -10.283   6.934  11.046 -0.16 +0.02    +0.330 C 
DOCKED: ATOM     41  O   UNL d   1      -9.099   6.966  11.324 -0.74 -0.06    -0.246 OA
DOCKED: BRANCH  40  42
DOCKED: ATOM     42  O   UNL d   1     -11.239   6.968  11.987 -0.07 -0.01    -0.477 OA
DOCKED: ATOM     43  H   UNL d   1     -12.073   6.938  11.476 +0.08 -0.00    +0.295 HD
DOCKED: ENDBRANCH  40  42
DOCKED: ENDBRANCH  39  40
DOCKED: ENDBRANCH  27  38
DOCKED: BRANCH   8  44
DOCKED: ATOM     44  C   UNL d   1     -12.128   4.131  -1.223 -0.06 +0.03    +0.141 C 
DOCKED: BRANCH  44  45
DOCKED: ATOM     45  C   UNL d   1     -13.070   2.961  -1.123 -0.04 +0.10    +0.306 C 
DOCKED: ATOM     46  O   UNL d   1     -14.214   2.983  -0.702 -0.01 -0.05    -0.251 OA
DOCKED: BRANCH  45  47
DOCKED: ATOM     47  O   UNL d   1     -12.508   1.811  -1.534 -0.53 -0.30    -0.481 OA
DOCKED: ATOM     48  H   UNL d   1     -11.544   1.952  -1.422 +0.08 +0.22    +0.295 HD
DOCKED: ENDBRANCH  45  47
DOCKED: ENDBRANCH  44  45
DOCKED: ENDBRANCH   8  44
DOCKED: BRANCH  22  49
DOCKED: ATOM     49  C   UNL d   1     -12.922   2.778   8.285 -0.16 -0.00    +0.048 C 
DOCKED: BRANCH  49  50
DOCKED: ATOM     50  C   UNL d   1     -12.020   3.500   9.287 -0.18 -0.01    +0.125 C 
DOCKED: BRANCH  50  51
DOCKED: ATOM     51  C   UNL d   1     -12.719   3.678  10.605 -0.11 -0.02    +0.305 C 
DOCKED: ATOM     52  O   UNL d   1     -13.206   2.813  11.312 -0.07 +0.01    -0.251 OA
DOCKED: BRANCH  51  53
DOCKED: ATOM     53  O   UNL d   1     -12.782   4.974  10.972 -0.03 +0.01    -0.481 OA
DOCKED: ATOM     54  H   UNL d   1     -12.166   5.037  11.731 +0.08 -0.00    +0.295 HD
DOCKED: ENDBRANCH  51  53
DOCKED: ENDBRANCH  50  51
DOCKED: ENDBRANCH  49  50
DOCKED: ENDBRANCH  22  49
DOCKED: TORSDOF 13
DOCKED: TER
DOCKED: ENDMDL
________________________________________________________________________________


	BEGINNING GENETIC ALGORITHM DOCKING 30 of 100
Run: 30 Seed: 2087463574 1233106736 [ Run 30 of 100 GA/GALS ]
Beginning LAMARCKIAN GENETIC ALGORITHM (LGA), with a maximum of 25000000 energy evaluations.

Final-Value: -13.021


	FINAL GENETIC ALGORITHM DOCKED STATE
	_______________________________________________


Detailed state:  trans -8.726 -14.997 10.570 quatxyzw 0.196046 -0.060473 -0.754804 -0.623041 center 0.153 0.018 -0.028 ntor 13 100.1793 -143.9812 -12.1123 -119.6082 -3.1257 -122.9187 -42.8642 21.8839 126.5370 136.0924 -61.6252 70.5611 20.0300
State:	 -8.726 -14.997  10.570   0.251 -0.077 -0.965 -102.923    100.18 -143.98  -12.11 -119.61   -3.13 -122.92  -42.86   21.88  126.54  136.09  -61.63   70.56   20.03

DOCKED: MODEL       30
DOCKED: USER    Run = 30
DOCKED: USER    DPF = D:/Protein_go_brrr/autodock/final/mut_N102T/heme/dock.dpf
DOCKED: USER  
DOCKED: USER    Estimated Free Energy of Binding    =   -7.12 kcal/mol  [=(1)+(2)+(3)-(4)]
DOCKED: USER    Estimated Inhibition Constant, Ki   =    6.02 uM (micromolar)  [Temperature = 298.15 K]
DOCKED: USER    
DOCKED: USER    (1) Final Intermolecular Energy     =  -11.00 kcal/mol
DOCKED: USER        vdW + Hbond + desolv Energy     =   -9.78 kcal/mol
DOCKED: USER        Electrostatic Energy            =   -1.22 kcal/mol
DOCKED: USER    (2) Final Total Internal Energy     =   -2.02 kcal/mol
DOCKED: USER    (3) Torsional Free Energy           =   +3.88 kcal/mol
DOCKED: USER    (4) Unbound System's Energy  [=(2)] =   -2.02 kcal/mol
DOCKED: USER    
DOCKED: USER    
DOCKED: USER    NEWDPF move heme_opt.pdbqt
DOCKED: USER    NEWDPF about 0.153000 0.018000 -0.028000
DOCKED: USER    NEWDPF tran0 -8.726185 -14.996935 10.569718
DOCKED: USER    NEWDPF quaternion0 0.196046 -0.060473 -0.754804 -0.623041
DOCKED: USER    NEWDPF axisangle0 0.250637 -0.077312 -0.964989 -102.922968
DOCKED: USER    NEWDPF quat0 0.250637 -0.077312 -0.964989 -102.922968
DOCKED: USER    NEWDPF dihe0 100.18 -143.98 -12.11 -119.61 -3.13 -122.92 -42.86 21.88 126.54 136.09 -61.63 70.56 20.03 
DOCKED: USER  keepresnum = 1 
DOCKED: USER  
DOCKED: REMARK  13 active torsions:
DOCKED: REMARK  status: ('A' for Active; 'I' for Inactive)
DOCKED: REMARK    1  A    between atoms: O_3  and  C_38 
DOCKED: REMARK    2  A    between atoms: O_4  and  C_40 
DOCKED: REMARK    3  A    between atoms: O_7  and  C_46 
DOCKED: REMARK    4  A    between atoms: O_9  and  C_48 
DOCKED: REMARK    5  A    between atoms: C_15  and  C_20 
DOCKED: REMARK    6  A    between atoms: C_16  and  C_23 
DOCKED: REMARK    7  A    between atoms: C_20  and  C_38 
DOCKED: REMARK    8  A    between atoms: C_23  and  C_40 
DOCKED: REMARK    9  A    between atoms: C_32  and  C_41 
DOCKED: REMARK   10  A    between atoms: C_37  and  C_45 
DOCKED: REMARK   11  A    between atoms: C_41  and  C_44 
DOCKED: REMARK   12  A    between atoms: C_44  and  C_46 
DOCKED: REMARK   13  A    between atoms: C_47  and  C_48 
DOCKED: USER                              x       y       z     vdW  Elec       q    Type
DOCKED: USER                           _______ _______ _______ _____ _____    ______ ____
DOCKED: ROOT
DOCKED: ATOM      1  O   UNL d   1      -6.595 -10.051  12.968 -0.16 +0.07    -0.289 OA
DOCKED: ATOM      2  O   UNL d   1     -12.193 -11.145   8.084 -0.06 +0.05    -0.289 OA
DOCKED: ATOM      3  N   UNL d   1      -7.407 -13.164  11.724 -0.19 +0.09    -0.247 NA
DOCKED: ATOM      4  N   UNL d   1      -9.876 -12.648  10.152 -0.16 +0.09    -0.247 NA
DOCKED: ATOM      5  N   UNL d   1     -10.300 -15.490  10.061 -0.09 +0.19    -0.354 N 
DOCKED: ATOM      6  N   UNL d   1      -7.748 -16.015  11.709 -0.09 +0.21    -0.354 N 
DOCKED: ATOM      7  C   UNL d   1      -5.850 -12.334  13.425 -0.20 -0.02    +0.084 A 
DOCKED: ATOM      8  C   UNL d   1     -10.184 -10.393   9.263 -0.19 -0.02    +0.084 A 
DOCKED: ATOM      9  C   UNL d   1      -9.375 -11.365  10.128 -0.26 -0.02    +0.058 A 
DOCKED: ATOM     10  C   UNL d   1      -6.452 -13.517  12.663 -0.25 -0.02    +0.058 A 
DOCKED: ATOM     11  C   UNL d   1      -6.621 -11.246  12.739 -0.09 -0.04    +0.193 A 
DOCKED: ATOM     12  C   UNL d   1      -7.511 -11.875  11.712 -0.17 -0.03    +0.109 A 
DOCKED: ATOM     13  C   UNL d   1     -11.257 -11.353   8.830 -0.08 -0.04    +0.193 A 
DOCKED: ATOM     14  C   UNL d   1      -6.232 -12.351  14.908 -0.12 -0.01    +0.026 C 
DOCKED: ATOM     15  C   UNL d   1      -8.304 -10.984  10.840 -0.31 -0.01    +0.055 C 
DOCKED: ATOM     16  C   UNL d   1      -9.398  -9.944   8.027 -0.17 -0.01    +0.026 C 
DOCKED: ATOM     17  C   UNL d   1     -10.958 -12.682   9.443 -0.15 -0.03    +0.109 A 
DOCKED: ATOM     18  C   UNL d   1      -6.005 -14.774  12.847 -0.25 -0.02    +0.050 C 
DOCKED: ATOM     19  C   UNL d   1      -6.441 -15.916  12.129 -0.23 -0.02    +0.045 A 
DOCKED: ATOM     20  C   UNL d   1     -11.499 -15.057   9.558 -0.17 -0.01    +0.045 A 
DOCKED: ATOM     21  C   UNL d   1     -11.870 -13.815   9.228 -0.14 -0.01    +0.057 C 
DOCKED: ATOM     22  C   UNL d   1     -11.604 -17.317   9.870 -0.13 +0.01    -0.019 A 
DOCKED: ATOM     23  C   UNL d   1     -10.268 -16.841  10.283 -0.20 -0.03    +0.045 A 
DOCKED: ATOM     24  C   UNL d   1     -12.327 -16.256   9.441 -0.12 +0.01    -0.022 A 
DOCKED: ATOM     25  C   UNL d   1      -7.974 -17.236  11.116 -0.19 -0.04    +0.049 A 
DOCKED: ATOM     26  C   UNL d   1      -5.792 -17.086  11.767 -0.25 +0.01    -0.018 A 
DOCKED: ATOM     27  C   UNL d   1      -6.760 -17.908  11.111 -0.26 -0.00    +0.003 A 
DOCKED: ATOM     28  C   UNL d   1      -9.287 -17.633  10.743 -0.20 -0.04    +0.052 C 
DOCKED: ATOM     29  C   UNL d   1     -13.722 -16.230   8.916 -0.05 -0.01    +0.046 C 
DOCKED: ATOM     30  C   UNL d   1      -4.360 -17.423  12.013 -0.21 -0.03    +0.046 C 
DOCKED: ATOM     31  H   UNL d   1      -9.515 -14.857  10.167 -0.51 -0.15    +0.166 HD
DOCKED: ATOM     32  H   UNL d   1      -8.443 -15.293  11.863 -0.04 -0.09    +0.166 HD
DOCKED: ENDROOT
DOCKED: BRANCH   7  33
DOCKED: ATOM     33  C   UNL d   1      -4.344 -12.128  13.235 -0.34 -0.05    +0.141 C 
DOCKED: BRANCH  33  34
DOCKED: ATOM     34  C   UNL d   1      -3.843 -10.872  13.897 -0.32 -0.07    +0.306 C 
DOCKED: ATOM     35  O   UNL d   1      -4.041 -10.539  15.053 -0.50 +0.04    -0.251 OA
DOCKED: BRANCH  34  36
DOCKED: ATOM     36  O   UNL d   1      -3.116 -10.104  13.067 -0.33 +0.12    -0.481 OA
DOCKED: ATOM     37  H   UNL d   1      -2.218 -10.498  13.088 -0.32 -0.15    +0.295 HD
DOCKED: ENDBRANCH  34  36
DOCKED: ENDBRANCH  33  34
DOCKED: ENDBRANCH   7  33
DOCKED: BRANCH  27  38
DOCKED: ATOM     38  C   UNL d   1      -6.512 -19.218  10.588 -0.21 -0.02    +0.017 C 
DOCKED: ATOM     39  C   UNL d   1      -5.801 -19.489   9.484 +0.02 -0.12    +0.092 C 
DOCKED: BRANCH  39  40
DOCKED: ATOM     40  C   UNL d   1      -5.606 -20.880   9.064 -0.05 -0.32    +0.330 C 
DOCKED: ATOM     41  O   UNL d   1      -4.554 -21.452   8.852 -0.06 +0.13    -0.246 OA
DOCKED: BRANCH  40  42
DOCKED: ATOM     42  O   UNL d   1      -6.792 -21.495   8.940 -0.06 +0.50    -0.477 OA
DOCKED: ATOM     43  H   UNL d   1      -7.384 -20.796   8.593 -0.34 -0.60    +0.295 HD
DOCKED: ENDBRANCH  40  42
DOCKED: ENDBRANCH  39  40
DOCKED: ENDBRANCH  27  38
DOCKED: BRANCH   8  44
DOCKED: ATOM     44  C   UNL d   1     -10.786  -9.194  10.003 -0.12 -0.05    +0.141 C 
DOCKED: BRANCH  44  45
DOCKED: ATOM     45  C   UNL d   1      -9.840  -8.028  10.113 -0.15 -0.18    +0.306 C 
DOCKED: ATOM     46  O   UNL d   1      -9.011  -7.845  10.988 -0.23 +0.16    -0.251 OA
DOCKED: BRANCH  45  47
DOCKED: ATOM     47  O   UNL d   1     -10.009  -7.133   9.123 -0.17 +0.46    -0.481 OA
DOCKED: ATOM     48  H   UNL d   1      -9.506  -6.343   9.415 -0.29 -0.67    +0.295 HD
DOCKED: ENDBRANCH  45  47
DOCKED: ENDBRANCH  44  45
DOCKED: ENDBRANCH   8  44
DOCKED: BRANCH  22  49
DOCKED: ATOM     49  C   UNL d   1     -12.049 -18.748   9.948 -0.07 -0.02    +0.048 C 
DOCKED: BRANCH  49  50
DOCKED: ATOM     50  C   UNL d   1     -11.219 -19.652   9.037 -0.05 -0.11    +0.125 C 
DOCKED: BRANCH  50  51
DOCKED: ATOM     51  C   UNL d   1     -10.506 -20.707   9.834 -0.03 -0.23    +0.305 C 
DOCKED: ATOM     52  O   UNL d   1     -10.729 -21.049  10.982 -0.02 +0.11    -0.251 OA
DOCKED: BRANCH  51  53
DOCKED: ATOM     53  O   UNL d   1      -9.512 -21.286   9.130 -0.00 +0.53    -0.481 OA
DOCKED: ATOM     54  H   UNL d   1      -8.912 -20.543   8.912 -0.48 -0.70    +0.295 HD
DOCKED: ENDBRANCH  51  53
DOCKED: ENDBRANCH  50  51
DOCKED: ENDBRANCH  49  50
DOCKED: ENDBRANCH  22  49
DOCKED: TORSDOF 13
DOCKED: TER
DOCKED: ENDMDL
________________________________________________________________________________


	BEGINNING GENETIC ALGORITHM DOCKING 31 of 100
Run: 31 Seed: 1176625723 1343234339 [ Run 31 of 100 GA/GALS ]
Beginning LAMARCKIAN GENETIC ALGORITHM (LGA), with a maximum of 25000000 energy evaluations.

Final-Value: -12.201


	FINAL GENETIC ALGORITHM DOCKED STATE
	_______________________________________________


Detailed state:  trans -8.627 -13.936 10.834 quatxyzw -0.204848 -0.222134 0.632000 -0.713631 center 0.153 0.018 -0.028 ntor 13 83.1123 -25.8977 -163.4657 -10.7864 -151.0834 -139.5500 134.3593 -118.3923 28.3425 -16.5669 25.7697 56.6624 -9.2406
State:	 -8.627 -13.936  10.834  -0.292 -0.317  0.902 -88.938     83.11  -25.90 -163.47  -10.79 -151.08 -139.55  134.36 -118.39   28.34  -16.57   25.77   56.66   -9.24

DOCKED: MODEL       31
DOCKED: USER    Run = 31
DOCKED: USER    DPF = D:/Protein_go_brrr/autodock/final/mut_N102T/heme/dock.dpf
DOCKED: USER  
DOCKED: USER    Estimated Free Energy of Binding    =   -5.89 kcal/mol  [=(1)+(2)+(3)-(4)]
DOCKED: USER    Estimated Inhibition Constant, Ki   =   48.53 uM (micromolar)  [Temperature = 298.15 K]
DOCKED: USER    
DOCKED: USER    (1) Final Intermolecular Energy     =   -9.76 kcal/mol
DOCKED: USER        vdW + Hbond + desolv Energy     =   -9.27 kcal/mol
DOCKED: USER        Electrostatic Energy            =   -0.50 kcal/mol
DOCKED: USER    (2) Final Total Internal Energy     =   -2.44 kcal/mol
DOCKED: USER    (3) Torsional Free Energy           =   +3.88 kcal/mol
DOCKED: USER    (4) Unbound System's Energy  [=(2)] =   -2.44 kcal/mol
DOCKED: USER    
DOCKED: USER    
DOCKED: USER    NEWDPF move heme_opt.pdbqt
DOCKED: USER    NEWDPF about 0.153000 0.018000 -0.028000
DOCKED: USER    NEWDPF tran0 -8.626979 -13.936489 10.833942
DOCKED: USER    NEWDPF quaternion0 -0.204848 -0.222134 0.632000 -0.713631
DOCKED: USER    NEWDPF axisangle0 -0.292422 -0.317098 0.902185 -88.937712
DOCKED: USER    NEWDPF quat0 -0.292422 -0.317098 0.902185 -88.937712
DOCKED: USER    NEWDPF dihe0 83.11 -25.90 -163.47 -10.79 -151.08 -139.55 134.36 -118.39 28.34 -16.57 25.77 56.66 -9.24 
DOCKED: USER  keepresnum = 1 
DOCKED: USER  
DOCKED: REMARK  13 active torsions:
DOCKED: REMARK  status: ('A' for Active; 'I' for Inactive)
DOCKED: REMARK    1  A    between atoms: O_3  and  C_38 
DOCKED: REMARK    2  A    between atoms: O_4  and  C_40 
DOCKED: REMARK    3  A    between atoms: O_7  and  C_46 
DOCKED: REMARK    4  A    between atoms: O_9  and  C_48 
DOCKED: REMARK    5  A    between atoms: C_15  and  C_20 
DOCKED: REMARK    6  A    between atoms: C_16  and  C_23 
DOCKED: REMARK    7  A    between atoms: C_20  and  C_38 
DOCKED: REMARK    8  A    between atoms: C_23  and  C_40 
DOCKED: REMARK    9  A    between atoms: C_32  and  C_41 
DOCKED: REMARK   10  A    between atoms: C_37  and  C_45 
DOCKED: REMARK   11  A    between atoms: C_41  and  C_44 
DOCKED: REMARK   12  A    between atoms: C_44  and  C_46 
DOCKED: REMARK   13  A    between atoms: C_47  and  C_48 
DOCKED: USER                              x       y       z     vdW  Elec       q    Type
DOCKED: USER                           _______ _______ _______ _____ _____    ______ ____
DOCKED: ROOT
DOCKED: ATOM      1  O   UNL d   1     -10.945 -19.303  10.069 -0.07 +0.21    -0.289 OA
DOCKED: ATOM      2  O   UNL d   1      -4.060 -17.161  12.166 -0.14 +0.20    -0.289 OA
DOCKED: ATOM      3  N   UNL d   1      -9.993 -15.993  10.252 -0.11 +0.16    -0.247 NA
DOCKED: ATOM      4  N   UNL d   1      -7.271 -16.130  11.435 -0.06 +0.16    -0.247 NA
DOCKED: ATOM      5  N   UNL d   1      -7.433 -13.298  11.904 -0.13 +0.13    -0.354 N 
DOCKED: ATOM      6  N   UNL d   1     -10.264 -13.168  10.692 -0.08 +0.12    -0.354 N 
DOCKED: ATOM      7  C   UNL d   1     -12.103 -17.164   9.825 -0.08 -0.03    +0.084 A 
DOCKED: ATOM      8  C   UNL d   1      -6.000 -18.187  11.082 -0.23 -0.06    +0.084 A 
DOCKED: ATOM      9  C   UNL d   1      -7.312 -17.410  10.930 -0.23 -0.05    +0.058 A 
DOCKED: ATOM     10  C   UNL d   1     -11.343 -15.844   9.982 -0.17 -0.02    +0.058 A 
DOCKED: ATOM     11  C   UNL d   1     -10.940 -18.086  10.035 -0.10 -0.13    +0.193 A 
DOCKED: ATOM     12  C   UNL d   1      -9.714 -17.256  10.258 -0.15 -0.09    +0.109 A 
DOCKED: ATOM     13  C   UNL d   1      -5.218 -17.123  11.800 -0.17 -0.12    +0.193 A 
DOCKED: ATOM     14  C   UNL d   1     -13.117 -17.381  10.951 -0.02 -0.01    +0.026 C 
DOCKED: ATOM     15  C   UNL d   1      -8.418 -17.951  10.398 -0.08 -0.06    +0.055 C 
DOCKED: ATOM     16  C   UNL d   1      -5.338 -18.454   9.726 -0.20 -0.03    +0.026 C 
DOCKED: ATOM     17  C   UNL d   1      -6.104 -15.930  11.959 -0.23 -0.06    +0.109 A 
DOCKED: ATOM     18  C   UNL d   1     -11.945 -14.657   9.780 -0.15 -0.01    +0.050 C 
DOCKED: ATOM     19  C   UNL d   1     -11.305 -13.392   9.820 -0.16 -0.01    +0.045 A 
DOCKED: ATOM     20  C   UNL d   1      -6.294 -13.588  12.610 -0.27 -0.01    +0.045 A 
DOCKED: ATOM     21  C   UNL d   1      -5.617 -14.739  12.670 -0.29 -0.02    +0.057 C 
DOCKED: ATOM     22  C   UNL d   1      -6.867 -11.411  12.996 -0.20 +0.00    -0.019 A 
DOCKED: ATOM     23  C   UNL d   1      -7.855 -12.006  12.075 -0.23 -0.01    +0.045 A 
DOCKED: ATOM     24  C   UNL d   1      -5.945 -12.352  13.308 -0.23 +0.01    -0.022 A 
DOCKED: ATOM     25  C   UNL d   1      -9.855 -11.856  10.629 -0.19 -0.01    +0.049 A 
DOCKED: ATOM     26  C   UNL d   1     -11.554 -12.206   9.147 -0.13 +0.00    -0.018 A 
DOCKED: ATOM     27  C   UNL d   1     -10.623 -11.245   9.648 -0.17 -0.00    +0.003 A 
DOCKED: ATOM     28  C   UNL d   1      -8.898 -11.346  11.548 -0.22 -0.01    +0.052 C 
DOCKED: ATOM     29  C   UNL d   1      -4.748 -12.230  14.190 -0.32 -0.01    +0.046 C 
DOCKED: ATOM     30  C   UNL d   1     -12.592 -11.978   8.100 -0.10 -0.01    +0.046 C 
DOCKED: ATOM     31  H   UNL d   1      -7.844 -13.972  11.268 -0.43 -0.10    +0.166 HD
DOCKED: ATOM     32  H   UNL d   1      -9.893 -13.875  11.316 -0.00 -0.07    +0.166 HD
DOCKED: ENDROOT
DOCKED: BRANCH   7  33
DOCKED: ATOM     33  C   UNL d   1     -12.734 -17.399   8.448 -0.09 -0.05    +0.141 C 
DOCKED: BRANCH  33  34
DOCKED: ATOM     34  C   UNL d   1     -11.721 -17.794   7.407 -0.13 -0.18    +0.306 C 
DOCKED: ATOM     35  O   UNL d   1     -11.185 -17.049   6.605 -0.13 +0.13    -0.251 OA
DOCKED: BRANCH  34  36
DOCKED: ATOM     36  O   UNL d   1     -11.436 -19.108   7.434 -0.06 +0.43    -0.481 OA
DOCKED: ATOM     37  H   UNL d   1     -10.593 -19.167   7.932 -0.51 -0.56    +0.295 HD
DOCKED: ENDBRANCH  34  36
DOCKED: ENDBRANCH  33  34
DOCKED: ENDBRANCH   7  33
DOCKED: BRANCH  27  38
DOCKED: ATOM     38  C   UNL d   1     -10.544  -9.878   9.231 -0.20 -0.00    +0.017 C 
DOCKED: ATOM     39  C   UNL d   1      -9.839  -9.427   8.182 -0.23 -0.02    +0.092 C 
DOCKED: BRANCH  39  40
DOCKED: ATOM     40  C   UNL d   1      -9.856  -8.000   7.850 -0.15 -0.15    +0.330 C 
DOCKED: ATOM     41  O   UNL d   1      -9.876  -7.494   6.744 -0.29 +0.11    -0.246 OA
DOCKED: BRANCH  40  42
DOCKED: ATOM     42  O   UNL d   1      -9.856  -7.265   8.973 -0.19 +0.43    -0.477 OA
DOCKED: ATOM     43  H   UNL d   1      -9.449  -6.417   8.698 -0.36 -0.52    +0.295 HD
DOCKED: ENDBRANCH  40  42
DOCKED: ENDBRANCH  39  40
DOCKED: ENDBRANCH  27  38
DOCKED: BRANCH   8  44
DOCKED: ATOM     44  C   UNL d   1      -6.083 -19.467  11.920 -0.07 -0.07    +0.141 C 
DOCKED: BRANCH  44  45
DOCKED: ATOM     45  C   UNL d   1      -6.386 -19.208  13.371 +0.00 -0.10    +0.306 C 
DOCKED: ATOM     46  O   UNL d   1      -7.490 -19.148  13.884 -0.00 +0.07    -0.251 OA
DOCKED: BRANCH  45  47
DOCKED: ATOM     47  O   UNL d   1      -5.274 -19.009  14.102 +0.01 +0.15    -0.481 OA
DOCKED: ATOM     48  H   UNL d   1      -4.571 -18.835  13.440 +0.05 -0.11    +0.295 HD
DOCKED: ENDBRANCH  45  47
DOCKED: ENDBRANCH  44  45
DOCKED: ENDBRANCH   8  44
DOCKED: BRANCH  22  49
DOCKED: ATOM     49  C   UNL d   1      -6.923  -9.996  13.493 -0.22 -0.01    +0.048 C 
DOCKED: BRANCH  49  50
DOCKED: ATOM     50  C   UNL d   1      -6.109  -9.051  12.611 -0.35 -0.03    +0.125 C 
DOCKED: BRANCH  50  51
DOCKED: ATOM     51  C   UNL d   1      -5.635  -7.860  13.395 -0.28 -0.10    +0.305 C 
DOCKED: ATOM     52  O   UNL d   1      -5.817  -6.682  13.141 -0.35 +0.08    -0.251 OA
DOCKED: BRANCH  51  53
DOCKED: ATOM     53  O   UNL d   1      -4.925  -8.222  14.482 -0.11 +0.13    -0.481 OA
DOCKED: ATOM     54  H   UNL d   1      -4.525  -7.384  14.795 -0.24 -0.15    +0.295 HD
DOCKED: ENDBRANCH  51  53
DOCKED: ENDBRANCH  50  51
DOCKED: ENDBRANCH  49  50
DOCKED: ENDBRANCH  22  49
DOCKED: TORSDOF 13
DOCKED: TER
DOCKED: ENDMDL
________________________________________________________________________________


	BEGINNING GENETIC ALGORITHM DOCKING 32 of 100
Run: 32 Seed: 234067064 1456361498 [ Run 32 of 100 GA/GALS ]
Beginning LAMARCKIAN GENETIC ALGORITHM (LGA), with a maximum of 25000000 energy evaluations.

Final-Value: -10.755


	FINAL GENETIC ALGORITHM DOCKED STATE
	_______________________________________________


Detailed state:  trans -10.441 3.514 14.039 quatxyzw -0.207277 -0.493532 0.075366 -0.841298 center 0.153 0.018 -0.028 ntor 13 -180.0000 -141.8641 179.7522 145.9201 -157.1572 6.3916 143.7314 102.1769 4.3908 -12.3670 -180.0000 29.6515 -3.2950
State:	-10.441   3.514  14.039  -0.383 -0.913  0.139 -65.445   -180.00 -141.86  179.75  145.92 -157.16    6.39  143.73  102.18    4.39  -12.37 -180.00   29.65   -3.29

DOCKED: MODEL       32
DOCKED: USER    Run = 32
DOCKED: USER    DPF = D:/Protein_go_brrr/autodock/final/mut_N102T/heme/dock.dpf
DOCKED: USER  
DOCKED: USER    Estimated Free Energy of Binding    =   -4.12 kcal/mol  [=(1)+(2)+(3)-(4)]
DOCKED: USER    Estimated Inhibition Constant, Ki   =  956.47 uM (micromolar)  [Temperature = 298.15 K]
DOCKED: USER    
DOCKED: USER    (1) Final Intermolecular Energy     =   -8.00 kcal/mol
DOCKED: USER        vdW + Hbond + desolv Energy     =   -7.68 kcal/mol
DOCKED: USER        Electrostatic Energy            =   -0.32 kcal/mol
DOCKED: USER    (2) Final Total Internal Energy     =   -2.76 kcal/mol
DOCKED: USER    (3) Torsional Free Energy           =   +3.88 kcal/mol
DOCKED: USER    (4) Unbound System's Energy  [=(2)] =   -2.76 kcal/mol
DOCKED: USER    
DOCKED: USER    
DOCKED: USER    NEWDPF move heme_opt.pdbqt
DOCKED: USER    NEWDPF about 0.153000 0.018000 -0.028000
DOCKED: USER    NEWDPF tran0 -10.440749 3.513961 14.039406
DOCKED: USER    NEWDPF quaternion0 -0.207277 -0.493532 0.075366 -0.841298
DOCKED: USER    NEWDPF axisangle0 -0.383441 -0.912982 0.139419 -65.445181
DOCKED: USER    NEWDPF quat0 -0.383441 -0.912982 0.139419 -65.445181
DOCKED: USER    NEWDPF dihe0 -180.00 -141.86 179.75 145.92 -157.16 6.39 143.73 102.18 4.39 -12.37 -180.00 29.65 -3.29 
DOCKED: USER  keepresnum = 1 
DOCKED: USER  
DOCKED: REMARK  13 active torsions:
DOCKED: REMARK  status: ('A' for Active; 'I' for Inactive)
DOCKED: REMARK    1  A    between atoms: O_3  and  C_38 
DOCKED: REMARK    2  A    between atoms: O_4  and  C_40 
DOCKED: REMARK    3  A    between atoms: O_7  and  C_46 
DOCKED: REMARK    4  A    between atoms: O_9  and  C_48 
DOCKED: REMARK    5  A    between atoms: C_15  and  C_20 
DOCKED: REMARK    6  A    between atoms: C_16  and  C_23 
DOCKED: REMARK    7  A    between atoms: C_20  and  C_38 
DOCKED: REMARK    8  A    between atoms: C_23  and  C_40 
DOCKED: REMARK    9  A    between atoms: C_32  and  C_41 
DOCKED: REMARK   10  A    between atoms: C_37  and  C_45 
DOCKED: REMARK   11  A    between atoms: C_41  and  C_44 
DOCKED: REMARK   12  A    between atoms: C_44  and  C_46 
DOCKED: REMARK   13  A    between atoms: C_47  and  C_48 
DOCKED: USER                              x       y       z     vdW  Elec       q    Type
DOCKED: USER                           _______ _______ _______ _____ _____    ______ ____
DOCKED: ROOT
DOCKED: ATOM      1  O   UNL d   1     -13.682   3.357   9.117 -0.03 +0.02    -0.289 OA
DOCKED: ATOM      2  O   UNL d   1     -10.790  -2.174  13.293 -0.22 +0.07    -0.289 OA
DOCKED: ATOM      3  N   UNL d   1     -11.706   3.942  11.883 -0.06 +0.00    -0.247 NA
DOCKED: ATOM      4  N   UNL d   1     -11.307   1.227  13.024 -0.16 -0.01    -0.247 NA
DOCKED: ATOM      5  N   UNL d   1     -10.314   2.478  15.414 -0.09 -0.08    -0.354 N 
DOCKED: ATOM      6  N   UNL d   1     -10.750   5.291  14.231 -0.07 -0.04    -0.354 N 
DOCKED: ATOM      7  C   UNL d   1     -13.004   5.352  10.356 -0.09 -0.00    +0.084 A 
DOCKED: ATOM      8  C   UNL d   1     -11.459  -0.665  11.485 -0.20 -0.02    +0.084 A 
DOCKED: ATOM      9  C   UNL d   1     -11.600   0.840  11.735 -0.23 -0.01    +0.058 A 
DOCKED: ATOM     10  C   UNL d   1     -12.092   5.237  11.581 -0.16 -0.00    +0.058 A 
DOCKED: ATOM     11  C   UNL d   1     -13.049   3.895  10.008 -0.09 -0.01    +0.193 A 
DOCKED: ATOM     12  C   UNL d   1     -12.203   3.148  10.992 -0.16 -0.01    +0.109 A 
DOCKED: ATOM     13  C   UNL d   1     -11.068  -1.065  12.880 -0.17 -0.02    +0.193 A 
DOCKED: ATOM     14  C   UNL d   1     -14.413   5.817  10.730 -0.03 -0.00    +0.026 C 
DOCKED: ATOM     15  C   UNL d   1     -12.022   1.696  10.792 -0.25 -0.01    +0.055 C 
DOCKED: ATOM     16  C   UNL d   1     -10.295  -0.978  10.539 -0.26 -0.01    +0.026 C 
DOCKED: ATOM     17  C   UNL d   1     -11.019   0.172  13.716 -0.20 +0.02    +0.109 A 
DOCKED: ATOM     18  C   UNL d   1     -11.648   6.328  12.232 -0.20 +0.00    +0.050 C 
DOCKED: ATOM     19  C   UNL d   1     -10.738   6.323  13.320 -0.23 +0.00    +0.045 A 
DOCKED: ATOM     20  C   UNL d   1     -10.415   1.183  15.851 -0.15 +0.02    +0.045 A 
DOCKED: ATOM     21  C   UNL d   1     -10.703   0.082  15.149 -0.15 +0.02    +0.057 C 
DOCKED: ATOM     22  C   UNL d   1      -9.889   2.521  17.626 -0.09 -0.00    -0.019 A 
DOCKED: ATOM     23  C   UNL d   1     -10.000   3.359  16.415 -0.13 +0.01    +0.045 A 
DOCKED: ATOM     24  C   UNL d   1     -10.134   1.234  17.285 -0.10 -0.01    -0.022 A 
DOCKED: ATOM     25  C   UNL d   1      -9.854   5.533  15.247 -0.02 +0.01    +0.049 A 
DOCKED: ATOM     26  C   UNL d   1      -9.785   7.240  13.734 -0.31 -0.00    -0.018 A 
DOCKED: ATOM     27  C   UNL d   1      -9.216   6.727  14.941 -0.24 +0.00    +0.003 A 
DOCKED: ATOM     28  C   UNL d   1      -9.799   4.685  16.387 -0.14 +0.01    +0.052 C 
DOCKED: ATOM     29  C   UNL d   1     -10.128   0.022  18.153 -0.07 +0.02    +0.046 C 
DOCKED: ATOM     30  C   UNL d   1      -9.421   8.515  13.052 -0.25 +0.00    +0.046 C 
DOCKED: ATOM     31  H   UNL d   1     -10.391   2.709  14.430 +0.05 +0.04    +0.166 HD
DOCKED: ATOM     32  H   UNL d   1     -11.371   4.493  14.166 +0.04 +0.01    +0.166 HD
DOCKED: ENDROOT
DOCKED: BRANCH   7  33
DOCKED: ATOM     33  C   UNL d   1     -12.435   6.166   9.188 -0.15 -0.00    +0.141 C 
DOCKED: BRANCH  33  34
DOCKED: ATOM     34  C   UNL d   1     -11.062   5.708   8.777 -0.19 +0.00    +0.306 C 
DOCKED: ATOM     35  O   UNL d   1     -10.008   6.261   9.045 -0.41 -0.01    -0.251 OA
DOCKED: BRANCH  34  36
DOCKED: ATOM     36  O   UNL d   1     -11.088   4.575   8.053 -0.47 -0.04    -0.481 OA
DOCKED: ATOM     37  H   UNL d   1     -12.036   4.324   8.023 +0.11 -0.00    +0.295 HD
DOCKED: ENDBRANCH  34  36
DOCKED: ENDBRANCH  33  34
DOCKED: ENDBRANCH   7  33
DOCKED: BRANCH  27  38
DOCKED: ATOM     38  C   UNL d   1      -8.198   7.372  15.713 -0.28 +0.00    +0.017 C 
DOCKED: ATOM     39  C   UNL d   1      -6.949   6.915  15.884 -0.17 -0.00    +0.092 C 
DOCKED: BRANCH  39  40
DOCKED: ATOM     40  C   UNL d   1      -5.994   7.682  16.688 -0.16 -0.04    +0.330 C 
DOCKED: ATOM     41  O   UNL d   1      -6.202   8.702  17.317 -0.07 +0.02    -0.246 OA
DOCKED: BRANCH  40  42
DOCKED: ATOM     42  O   UNL d   1      -4.788   7.094  16.659 -0.14 +0.09    -0.477 OA
DOCKED: ATOM     43  H   UNL d   1      -4.707   6.770  15.739 -0.19 -0.10    +0.295 HD
DOCKED: ENDBRANCH  40  42
DOCKED: ENDBRANCH  39  40
DOCKED: ENDBRANCH  27  38
DOCKED: BRANCH   8  44
DOCKED: ATOM     44  C   UNL d   1     -12.739  -1.385  11.046 -0.07 -0.04    +0.141 C 
DOCKED: BRANCH  44  45
DOCKED: ATOM     45  C   UNL d   1     -13.837  -1.322  12.073 +0.00 -0.05    +0.306 C 
DOCKED: ATOM     46  O   UNL d   1     -14.789  -0.561  12.075 -0.00 +0.03    -0.251 OA
DOCKED: BRANCH  45  47
DOCKED: ATOM     47  O   UNL d   1     -13.663  -2.212  13.067 +0.02 +0.07    -0.481 OA
DOCKED: ATOM     48  H   UNL d   1     -12.840  -2.691  12.831 +0.04 -0.08    +0.295 HD
DOCKED: ENDBRANCH  45  47
DOCKED: ENDBRANCH  44  45
DOCKED: ENDBRANCH   8  44
DOCKED: BRANCH  22  49
DOCKED: ATOM     49  C   UNL d   1      -9.570   3.053  18.992 -0.04 +0.00    +0.048 C 
DOCKED: BRANCH  49  50
DOCKED: ATOM     50  C   UNL d   1      -8.063   3.148  19.229 -0.05 +0.01    +0.125 C 
DOCKED: BRANCH  50  51
DOCKED: ATOM     51  C   UNL d   1      -7.300   2.700  18.014 -0.14 +0.08    +0.305 C 
DOCKED: ATOM     52  O   UNL d   1      -6.841   3.396  17.126 -0.27 -0.05    -0.251 OA
DOCKED: BRANCH  51  53
DOCKED: ATOM     53  O   UNL d   1      -7.161   1.360  17.973 -0.63 -0.32    -0.481 OA
DOCKED: ATOM     54  H   UNL d   1      -7.071   1.100  18.914 +0.07 +0.11    +0.295 HD
DOCKED: ENDBRANCH  51  53
DOCKED: ENDBRANCH  50  51
DOCKED: ENDBRANCH  49  50
DOCKED: ENDBRANCH  22  49
DOCKED: TORSDOF 13
DOCKED: TER
DOCKED: ENDMDL
________________________________________________________________________________


	BEGINNING GENETIC ALGORITHM DOCKING 33 of 100
Run: 33 Seed: 81612547 1815614542 [ Run 33 of 100 GA/GALS ]
Beginning LAMARCKIAN GENETIC ALGORITHM (LGA), with a maximum of 25000000 energy evaluations.

Final-Value: -10.116


	FINAL GENETIC ALGORITHM DOCKED STATE
	_______________________________________________


Detailed state:  trans -6.076 8.014 16.432 quatxyzw 0.029067 -0.118230 -0.443737 -0.887848 center 0.153 0.018 -0.028 ntor 13 -179.9170 -47.5922 -119.6632 -152.9181 -154.6645 148.8490 121.1452 -44.6148 7.5189 -25.9508 -50.1460 159.6958 -162.5630
State:	 -6.076   8.014  16.432   0.063 -0.257 -0.964 -54.792   -179.92  -47.59 -119.66 -152.92 -154.66  148.85  121.15  -44.61    7.52  -25.95  -50.15  159.70 -162.56

DOCKED: MODEL       33
DOCKED: USER    Run = 33
DOCKED: USER    DPF = D:/Protein_go_brrr/autodock/final/mut_N102T/heme/dock.dpf
DOCKED: USER  
DOCKED: USER    Estimated Free Energy of Binding    =   -3.88 kcal/mol  [=(1)+(2)+(3)-(4)]
DOCKED: USER    Estimated Inhibition Constant, Ki   =    1.44 mM (millimolar)  [Temperature = 298.15 K]
DOCKED: USER    
DOCKED: USER    (1) Final Intermolecular Energy     =   -7.75 kcal/mol
DOCKED: USER        vdW + Hbond + desolv Energy     =   -7.61 kcal/mol
DOCKED: USER        Electrostatic Energy            =   -0.15 kcal/mol
DOCKED: USER    (2) Final Total Internal Energy     =   -2.36 kcal/mol
DOCKED: USER    (3) Torsional Free Energy           =   +3.88 kcal/mol
DOCKED: USER    (4) Unbound System's Energy  [=(2)] =   -2.36 kcal/mol
DOCKED: USER    
DOCKED: USER    
DOCKED: USER    NEWDPF move heme_opt.pdbqt
DOCKED: USER    NEWDPF about 0.153000 0.018000 -0.028000
DOCKED: USER    NEWDPF tran0 -6.075807 8.014252 16.432346
DOCKED: USER    NEWDPF quaternion0 0.029067 -0.118230 -0.443737 -0.887848
DOCKED: USER    NEWDPF axisangle0 0.063170 -0.256945 -0.964359 -54.791782
DOCKED: USER    NEWDPF quat0 0.063170 -0.256945 -0.964359 -54.791782
DOCKED: USER    NEWDPF dihe0 -179.92 -47.59 -119.66 -152.92 -154.66 148.85 121.15 -44.61 7.52 -25.95 -50.15 159.70 -162.56 
DOCKED: USER  keepresnum = 1 
DOCKED: USER  
DOCKED: REMARK  13 active torsions:
DOCKED: REMARK  status: ('A' for Active; 'I' for Inactive)
DOCKED: REMARK    1  A    between atoms: O_3  and  C_38 
DOCKED: REMARK    2  A    between atoms: O_4  and  C_40 
DOCKED: REMARK    3  A    between atoms: O_7  and  C_46 
DOCKED: REMARK    4  A    between atoms: O_9  and  C_48 
DOCKED: REMARK    5  A    between atoms: C_15  and  C_20 
DOCKED: REMARK    6  A    between atoms: C_16  and  C_23 
DOCKED: REMARK    7  A    between atoms: C_20  and  C_38 
DOCKED: REMARK    8  A    between atoms: C_23  and  C_40 
DOCKED: REMARK    9  A    between atoms: C_32  and  C_41 
DOCKED: REMARK   10  A    between atoms: C_37  and  C_45 
DOCKED: REMARK   11  A    between atoms: C_41  and  C_44 
DOCKED: REMARK   12  A    between atoms: C_44  and  C_46 
DOCKED: REMARK   13  A    between atoms: C_47  and  C_48 
DOCKED: USER                              x       y       z     vdW  Elec       q    Type
DOCKED: USER                           _______ _______ _______ _____ _____    ______ ____
DOCKED: ROOT
DOCKED: ATOM      1  O   UNL d   1      -8.154  13.530  16.292 -0.01 +0.02    -0.289 OA
DOCKED: ATOM      2  O   UNL d   1     -11.025   7.112  13.652 -0.10 -0.01    -0.289 OA
DOCKED: ATOM      3  N   UNL d   1      -6.488  10.516  16.491 -0.06 +0.02    -0.247 NA
DOCKED: ATOM      4  N   UNL d   1      -8.490   8.561  15.491 -0.13 -0.00    -0.247 NA
DOCKED: ATOM      5  N   UNL d   1      -6.825   6.463  16.536 -0.13 +0.01    -0.354 N 
DOCKED: ATOM      6  N   UNL d   1      -4.763   8.498  17.586 -0.05 +0.06    -0.354 N 
DOCKED: ATOM      7  C   UNL d   1      -6.080  12.777  17.345 -0.03 -0.01    +0.084 A 
DOCKED: ATOM      8  C   UNL d   1     -10.196   9.396  13.954 -0.13 +0.00    +0.084 A 
DOCKED: ATOM      9  C   UNL d   1      -9.014   9.682  14.886 -0.14 +0.00    +0.058 A 
DOCKED: ATOM     10  C   UNL d   1      -5.633  11.317  17.230 -0.07 -0.01    +0.058 A 
DOCKED: ATOM     11  C   UNL d   1      -7.328  12.665  16.523 -0.02 -0.02    +0.193 A 
DOCKED: ATOM     12  C   UNL d   1      -7.451  11.252  16.041 -0.07 -0.01    +0.109 A 
DOCKED: ATOM     13  C   UNL d   1     -10.269   7.911  14.171 -0.15 +0.01    +0.193 A 
DOCKED: ATOM     14  C   UNL d   1      -6.463  13.150  18.779 -0.02 -0.00    +0.026 C 
DOCKED: ATOM     15  C   UNL d   1      -8.565  10.923  15.129 -0.11 -0.00    +0.055 C 
DOCKED: ATOM     16  C   UNL d   1      -9.841   9.662  12.488 -0.14 +0.00    +0.026 C 
DOCKED: ATOM     17  C   UNL d   1      -9.187   7.533  15.129 -0.20 +0.00    +0.109 A 
DOCKED: ATOM     18  C   UNL d   1      -4.459  10.899  17.739 -0.11 -0.01    +0.050 C 
DOCKED: ATOM     19  C   UNL d   1      -3.926   9.591  17.610 -0.14 -0.01    +0.045 A 
DOCKED: ATOM     20  C   UNL d   1      -7.945   5.739  16.219 -0.13 +0.00    +0.045 A 
DOCKED: ATOM     21  C   UNL d   1      -9.042   6.136  15.566 -0.15 +0.01    +0.057 C 
DOCKED: ATOM     22  C   UNL d   1      -6.485   4.386  17.339 -0.29 -0.00    -0.019 A 
DOCKED: ATOM     23  C   UNL d   1      -5.887   5.731  17.214 -0.27 -0.00    +0.045 A 
DOCKED: ATOM     24  C   UNL d   1      -7.703   4.397  16.747 -0.22 -0.00    -0.022 A 
DOCKED: ATOM     25  C   UNL d   1      -4.034   7.332  17.547 -0.23 -0.01    +0.049 A 
DOCKED: ATOM     26  C   UNL d   1      -2.622   9.125  17.547 -0.16 +0.01    -0.018 A 
DOCKED: ATOM     27  C   UNL d   1      -2.697   7.699  17.488 -0.26 -0.00    +0.003 A 
DOCKED: ATOM     28  C   UNL d   1      -4.673   6.069  17.674 -0.29 -0.01    +0.052 C 
DOCKED: ATOM     29  C   UNL d   1      -8.681   3.281  16.605 -0.25 +0.01    +0.046 C 
DOCKED: ATOM     30  C   UNL d   1      -1.380   9.951  17.541 -0.26 -0.02    +0.046 C 
DOCKED: ATOM     31  H   UNL d   1      -6.706   7.417  16.212 +0.06 -0.01    +0.166 HD
DOCKED: ATOM     32  H   UNL d   1      -5.772   8.565  17.634 +0.05 -0.02    +0.166 HD
DOCKED: ENDROOT
DOCKED: BRANCH   7  33
DOCKED: ATOM     33  C   UNL d   1      -5.124  13.806  16.732 -0.10 -0.03    +0.141 C 
DOCKED: BRANCH  33  34
DOCKED: ATOM     34  C   UNL d   1      -4.816  13.523  15.287 -0.11 -0.08    +0.306 C 
DOCKED: ATOM     35  O   UNL d   1      -3.808  12.989  14.856 -0.27 +0.08    -0.251 OA
DOCKED: BRANCH  34  36
DOCKED: ATOM     36  O   UNL d   1      -5.797  13.925  14.459 -0.01 +0.08    -0.481 OA
DOCKED: ATOM     37  H   UNL d   1      -6.494  14.275  15.054 +0.06 -0.04    +0.295 HD
DOCKED: ENDBRANCH  34  36
DOCKED: ENDBRANCH  33  34
DOCKED: ENDBRANCH   7  33
DOCKED: BRANCH  27  38
DOCKED: ATOM     38  C   UNL d   1      -1.572   6.815  17.429 -0.29 -0.00    +0.017 C 
DOCKED: ATOM     39  C   UNL d   1      -0.307   7.150  17.727 -0.38 -0.03    +0.092 C 
DOCKED: BRANCH  39  40
DOCKED: ATOM     40  C   UNL d   1       0.754   6.143  17.642 -0.32 -0.10    +0.330 C 
DOCKED: ATOM     41  O   UNL d   1       1.917   6.313  17.330 -0.47 +0.08    -0.246 OA
DOCKED: BRANCH  40  42
DOCKED: ATOM     42  O   UNL d   1       0.273   4.936  17.978 -0.22 +0.19    -0.477 OA
DOCKED: ATOM     43  H   UNL d   1       0.599   4.347  17.266 -0.20 -0.19    +0.295 HD
DOCKED: ENDBRANCH  40  42
DOCKED: ENDBRANCH  39  40
DOCKED: ENDBRANCH  27  38
DOCKED: BRANCH   8  44
DOCKED: ATOM     44  C   UNL d   1     -11.517  10.072  14.336 -0.04 -0.00    +0.141 C 
DOCKED: BRANCH  44  45
DOCKED: ATOM     45  C   UNL d   1     -12.206   9.414  15.501 -0.00 -0.01    +0.306 C 
DOCKED: ATOM     46  O   UNL d   1     -11.909   9.523  16.678 -0.00 +0.01    -0.251 OA
DOCKED: BRANCH  45  47
DOCKED: ATOM     47  O   UNL d   1     -13.226   8.625  15.117 +0.00 +0.01    -0.481 OA
DOCKED: ATOM     48  H   UNL d   1     -12.814   7.955  14.530 +0.03 -0.00    +0.295 HD
DOCKED: ENDBRANCH  45  47
DOCKED: ENDBRANCH  44  45
DOCKED: ENDBRANCH   8  44
DOCKED: BRANCH  22  49
DOCKED: ATOM     49  C   UNL d   1      -5.824   3.231  18.032 -0.20 +0.01    +0.048 C 
DOCKED: BRANCH  49  50
DOCKED: ATOM     50  C   UNL d   1      -6.583   2.812  19.291 -0.11 +0.01    +0.125 C 
DOCKED: BRANCH  50  51
DOCKED: ATOM     51  C   UNL d   1      -6.814   1.328  19.309 -0.09 +0.07    +0.305 C 
DOCKED: ATOM     52  O   UNL d   1      -7.290   0.639  18.423 -0.68 -0.17    -0.251 OA
DOCKED: BRANCH  51  53
DOCKED: ATOM     53  O   UNL d   1      -6.436   0.773  20.477 -0.01 -0.02    -0.481 OA
DOCKED: ATOM     54  H   UNL d   1      -6.524   1.502  21.127 +0.04 -0.01    +0.295 HD
DOCKED: ENDBRANCH  51  53
DOCKED: ENDBRANCH  50  51
DOCKED: ENDBRANCH  49  50
DOCKED: ENDBRANCH  22  49
DOCKED: TORSDOF 13
DOCKED: TER
DOCKED: ENDMDL
________________________________________________________________________________


	BEGINNING GENETIC ALGORITHM DOCKING 34 of 100
Run: 34 Seed: 1021592154 1014884229 [ Run 34 of 100 GA/GALS ]
Beginning LAMARCKIAN GENETIC ALGORITHM (LGA), with a maximum of 25000000 energy evaluations.

Final-Value: -11.199


	FINAL GENETIC ALGORITHM DOCKED STATE
	_______________________________________________


Detailed state:  trans -9.780 11.602 6.616 quatxyzw 0.650325 0.214950 0.404353 -0.606112 center 0.153 0.018 -0.028 ntor 13 135.7690 -118.1067 61.8407 43.5985 -136.7090 49.1832 169.1771 -100.9556 17.7788 27.6092 -86.1921 -98.8865 0.7518
State:	 -9.780  11.602   6.616   0.818  0.270  0.508 -105.382    135.77 -118.11   61.84   43.60 -136.71   49.18  169.18 -100.96   17.78   27.61  -86.19  -98.89    0.75

DOCKED: MODEL       34
DOCKED: USER    Run = 34
DOCKED: USER    DPF = D:/Protein_go_brrr/autodock/final/mut_N102T/heme/dock.dpf
DOCKED: USER  
DOCKED: USER    Estimated Free Energy of Binding    =   -3.18 kcal/mol  [=(1)+(2)+(3)-(4)]
DOCKED: USER    Estimated Inhibition Constant, Ki   =    4.71 mM (millimolar)  [Temperature = 298.15 K]
DOCKED: USER    
DOCKED: USER    (1) Final Intermolecular Energy     =   -7.05 kcal/mol
DOCKED: USER        vdW + Hbond + desolv Energy     =   -6.98 kcal/mol
DOCKED: USER        Electrostatic Energy            =   -0.07 kcal/mol
DOCKED: USER    (2) Final Total Internal Energy     =   -4.15 kcal/mol
DOCKED: USER    (3) Torsional Free Energy           =   +3.88 kcal/mol
DOCKED: USER    (4) Unbound System's Energy  [=(2)] =   -4.15 kcal/mol
DOCKED: USER    
DOCKED: USER    
DOCKED: USER    NEWDPF move heme_opt.pdbqt
DOCKED: USER    NEWDPF about 0.153000 0.018000 -0.028000
DOCKED: USER    NEWDPF tran0 -9.779860 11.602045 6.616257
DOCKED: USER    NEWDPF quaternion0 0.650325 0.214950 0.404353 -0.606112
DOCKED: USER    NEWDPF axisangle0 0.817629 0.270249 0.508377 -105.382132
DOCKED: USER    NEWDPF quat0 0.817629 0.270249 0.508377 -105.382132
DOCKED: USER    NEWDPF dihe0 135.77 -118.11 61.84 43.60 -136.71 49.18 169.18 -100.96 17.78 27.61 -86.19 -98.89 0.75 
DOCKED: USER  keepresnum = 1 
DOCKED: USER  
DOCKED: REMARK  13 active torsions:
DOCKED: REMARK  status: ('A' for Active; 'I' for Inactive)
DOCKED: REMARK    1  A    between atoms: O_3  and  C_38 
DOCKED: REMARK    2  A    between atoms: O_4  and  C_40 
DOCKED: REMARK    3  A    between atoms: O_7  and  C_46 
DOCKED: REMARK    4  A    between atoms: O_9  and  C_48 
DOCKED: REMARK    5  A    between atoms: C_15  and  C_20 
DOCKED: REMARK    6  A    between atoms: C_16  and  C_23 
DOCKED: REMARK    7  A    between atoms: C_20  and  C_38 
DOCKED: REMARK    8  A    between atoms: C_23  and  C_40 
DOCKED: REMARK    9  A    between atoms: C_32  and  C_41 
DOCKED: REMARK   10  A    between atoms: C_37  and  C_45 
DOCKED: REMARK   11  A    between atoms: C_41  and  C_44 
DOCKED: REMARK   12  A    between atoms: C_44  and  C_46 
DOCKED: REMARK   13  A    between atoms: C_47  and  C_48 
DOCKED: USER                              x       y       z     vdW  Elec       q    Type
DOCKED: USER                           _______ _______ _______ _____ _____    ______ ____
DOCKED: ROOT
DOCKED: ATOM      1  O   UNL d   1     -12.884   6.593   6.792 -0.08 +0.01    -0.289 OA
DOCKED: ATOM      2  O   UNL d   1     -11.544  11.365   1.151 -0.01 +0.00    -0.289 OA
DOCKED: ATOM      3  N   UNL d   1     -11.093   9.513   7.201 -0.12 +0.05    -0.247 NA
DOCKED: ATOM      4  N   UNL d   1     -10.833  10.547   4.427 -0.11 +0.02    -0.247 NA
DOCKED: ATOM      5  N   UNL d   1      -8.834  12.374   5.396 -0.14 +0.02    -0.354 N 
DOCKED: ATOM      6  N   UNL d   1      -9.097  11.281   8.266 -0.08 +0.11    -0.354 N 
DOCKED: ATOM      7  C   UNL d   1     -11.621   7.593   8.631 -0.21 -0.01    +0.084 A 
DOCKED: ATOM      8  C   UNL d   1     -12.552   9.886   2.821 -0.04 -0.00    +0.084 A 
DOCKED: ATOM      9  C   UNL d   1     -11.945   9.761   4.223 -0.11 -0.00    +0.058 A 
DOCKED: ATOM     10  C   UNL d   1     -10.924   8.945   8.453 -0.19 -0.01    +0.058 A 
DOCKED: ATOM     11  C   UNL d   1     -12.229   7.505   7.264 -0.12 -0.01    +0.193 A 
DOCKED: ATOM     12  C   UNL d   1     -11.859   8.739   6.501 -0.16 -0.01    +0.109 A 
DOCKED: ATOM     13  C   UNL d   1     -11.557  10.861   2.257 -0.04 -0.00    +0.193 A 
DOCKED: ATOM     14  C   UNL d   1     -10.619   6.449   8.801 -0.40 -0.00    +0.026 C 
DOCKED: ATOM     15  C   UNL d   1     -12.426   8.919   5.150 -0.13 -0.00    +0.055 C 
DOCKED: ATOM     16  C   UNL d   1     -13.929  10.555   2.857 -0.01 -0.00    +0.026 C 
DOCKED: ATOM     17  C   UNL d   1     -10.563  11.175   3.328 -0.10 -0.00    +0.109 A 
DOCKED: ATOM     18  C   UNL d   1     -10.286   9.548   9.474 -0.26 -0.01    +0.050 C 
DOCKED: ATOM     19  C   UNL d   1      -9.687  10.832   9.426 -0.19 -0.01    +0.045 A 
DOCKED: ATOM     20  C   UNL d   1      -8.688  12.559   4.045 -0.16 -0.00    +0.045 A 
DOCKED: ATOM     21  C   UNL d   1      -9.436  12.077   3.048 -0.14 -0.00    +0.057 C 
DOCKED: ATOM     22  C   UNL d   1      -7.031  13.697   5.130 -0.24 +0.00    -0.019 A 
DOCKED: ATOM     23  C   UNL d   1      -7.880  13.022   6.133 -0.29 -0.00    +0.045 A 
DOCKED: ATOM     24  C   UNL d   1      -7.516  13.420   3.896 -0.15 -0.00    -0.022 A 
DOCKED: ATOM     25  C   UNL d   1      -8.503  12.505   8.468 -0.28 -0.01    +0.049 A 
DOCKED: ATOM     26  C   UNL d   1      -9.503  11.805  10.397 -0.16 +0.00    -0.018 A 
DOCKED: ATOM     27  C   UNL d   1      -8.772  12.867   9.781 -0.20 -0.00    +0.003 A 
DOCKED: ATOM     28  C   UNL d   1      -7.697  13.100   7.460 -0.31 -0.01    +0.052 C 
DOCKED: ATOM     29  C   UNL d   1      -7.011  13.879   2.571 -0.12 +0.00    +0.046 C 
DOCKED: ATOM     30  C   UNL d   1      -9.977  11.754  11.809 -0.12 -0.00    +0.046 C 
DOCKED: ATOM     31  H   UNL d   1      -9.629  11.869   5.774 +0.03 -0.02    +0.166 HD
DOCKED: ATOM     32  H   UNL d   1      -9.079  10.749   7.404 -0.45 -0.09    +0.166 HD
DOCKED: ENDROOT
DOCKED: BRANCH   7  33
DOCKED: ATOM     33  C   UNL d   1     -12.710   7.552   9.708 -0.08 -0.01    +0.141 C 
DOCKED: BRANCH  33  34
DOCKED: ATOM     34  C   UNL d   1     -13.889   8.425   9.373 -0.00 -0.01    +0.306 C 
DOCKED: ATOM     35  O   UNL d   1     -13.972   9.627   9.561 -0.01 +0.01    -0.251 OA
DOCKED: BRANCH  34  36
DOCKED: ATOM     36  O   UNL d   1     -14.901   7.737   8.816 +0.00 +0.02    -0.481 OA
DOCKED: ATOM     37  H   UNL d   1     -14.474   7.181   8.130 +0.02 -0.01    +0.295 HD
DOCKED: ENDBRANCH  34  36
DOCKED: ENDBRANCH  33  34
DOCKED: ENDBRANCH   7  33
DOCKED: BRANCH  27  38
DOCKED: ATOM     38  C   UNL d   1      -8.354  14.070  10.437 -0.13 -0.00    +0.017 C 
DOCKED: ATOM     39  C   UNL d   1      -7.080  14.455  10.609 -0.16 -0.01    +0.092 C 
DOCKED: BRANCH  39  40
DOCKED: ATOM     40  C   UNL d   1      -6.786  15.722  11.284 -0.05 -0.03    +0.330 C 
DOCKED: ATOM     41  O   UNL d   1      -7.261  16.138  12.324 -0.03 +0.02    -0.246 OA
DOCKED: BRANCH  40  42
DOCKED: ATOM     42  O   UNL d   1      -5.870  16.414  10.590 -0.05 +0.03    -0.477 OA
DOCKED: ATOM     43  H   UNL d   1      -6.305  16.579   9.728 +0.06 -0.02    +0.295 HD
DOCKED: ENDBRANCH  40  42
DOCKED: ENDBRANCH  39  40
DOCKED: ENDBRANCH  27  38
DOCKED: BRANCH   8  44
DOCKED: ATOM     44  C   UNL d   1     -12.583   8.595   1.997 -0.06 +0.00    +0.141 C 
DOCKED: BRANCH  44  45
DOCKED: ATOM     45  C   UNL d   1     -11.576   7.573   2.455 -0.09 +0.03    +0.306 C 
DOCKED: ATOM     46  O   UNL d   1     -11.805   6.421   2.777 -0.47 -0.07    -0.251 OA
DOCKED: BRANCH  45  47
DOCKED: ATOM     47  O   UNL d   1     -10.327   8.070   2.509 -0.11 +0.00    -0.481 OA
DOCKED: ATOM     48  H   UNL d   1      -9.815   7.524   1.875 -0.37 -0.03    +0.295 HD
DOCKED: ENDBRANCH  45  47
DOCKED: ENDBRANCH  44  45
DOCKED: ENDBRANCH   8  44
DOCKED: BRANCH  22  49
DOCKED: ATOM     49  C   UNL d   1      -5.829  14.529   5.467 -0.17 -0.00    +0.048 C 
DOCKED: BRANCH  49  50
DOCKED: ATOM     50  C   UNL d   1      -6.215  15.958   5.849 -0.11 -0.00    +0.125 C 
DOCKED: BRANCH  50  51
DOCKED: ATOM     51  C   UNL d   1      -6.348  16.097   7.339 -0.09 -0.02    +0.305 C 
DOCKED: ATOM     52  O   UNL d   1      -7.373  16.215   7.986 -0.05 +0.02    -0.251 OA
DOCKED: BRANCH  51  53
DOCKED: ATOM     53  O   UNL d   1      -5.149  16.091   7.955 -0.07 +0.01    -0.481 OA
DOCKED: ATOM     54  H   UNL d   1      -5.284  15.514   8.735 +0.10 -0.02    +0.295 HD
DOCKED: ENDBRANCH  51  53
DOCKED: ENDBRANCH  50  51
DOCKED: ENDBRANCH  49  50
DOCKED: ENDBRANCH  22  49
DOCKED: TORSDOF 13
DOCKED: TER
DOCKED: ENDMDL
________________________________________________________________________________


	BEGINNING GENETIC ALGORITHM DOCKING 35 of 100
Run: 35 Seed: 75232248 1054881546 [ Run 35 of 100 GA/GALS ]
Beginning LAMARCKIAN GENETIC ALGORITHM (LGA), with a maximum of 25000000 energy evaluations.

Final-Value: -11.204


	FINAL GENETIC ALGORITHM DOCKED STATE
	_______________________________________________


Detailed state:  trans -8.329 9.065 -10.690 quatxyzw 0.635059 0.277091 0.190169 -0.695526 center 0.153 0.018 -0.028 ntor 13 112.0723 -139.9515 108.9496 -21.9049 -130.4273 -54.6085 -49.3135 172.0481 32.4851 -127.5861 -68.0528 -3.4558 -11.9533
State:	 -8.329   9.065 -10.690   0.884  0.386  0.265 -91.862    112.07 -139.95  108.95  -21.90 -130.43  -54.61  -49.31  172.05   32.49 -127.59  -68.05   -3.46  -11.95

DOCKED: MODEL       35
DOCKED: USER    Run = 35
DOCKED: USER    DPF = D:/Protein_go_brrr/autodock/final/mut_N102T/heme/dock.dpf
DOCKED: USER  
DOCKED: USER    Estimated Free Energy of Binding    =   -2.72 kcal/mol  [=(1)+(2)+(3)-(4)]
DOCKED: USER    Estimated Inhibition Constant, Ki   =   10.16 mM (millimolar)  [Temperature = 298.15 K]
DOCKED: USER    
DOCKED: USER    (1) Final Intermolecular Energy     =   -6.60 kcal/mol
DOCKED: USER        vdW + Hbond + desolv Energy     =   -6.50 kcal/mol
DOCKED: USER        Electrostatic Energy            =   -0.10 kcal/mol
DOCKED: USER    (2) Final Total Internal Energy     =   -4.61 kcal/mol
DOCKED: USER    (3) Torsional Free Energy           =   +3.88 kcal/mol
DOCKED: USER    (4) Unbound System's Energy  [=(2)] =   -4.61 kcal/mol
DOCKED: USER    
DOCKED: USER    
DOCKED: USER    NEWDPF move heme_opt.pdbqt
DOCKED: USER    NEWDPF about 0.153000 0.018000 -0.028000
DOCKED: USER    NEWDPF tran0 -8.328577 9.064657 -10.690482
DOCKED: USER    NEWDPF quaternion0 0.635059 0.277091 0.190169 -0.695526
DOCKED: USER    NEWDPF axisangle0 0.883867 0.385651 0.264674 -91.861686
DOCKED: USER    NEWDPF quat0 0.883867 0.385651 0.264674 -91.861686
DOCKED: USER    NEWDPF dihe0 112.07 -139.95 108.95 -21.90 -130.43 -54.61 -49.31 172.05 32.49 -127.59 -68.05 -3.46 -11.95 
DOCKED: USER  keepresnum = 1 
DOCKED: USER  
DOCKED: REMARK  13 active torsions:
DOCKED: REMARK  status: ('A' for Active; 'I' for Inactive)
DOCKED: REMARK    1  A    between atoms: O_3  and  C_38 
DOCKED: REMARK    2  A    between atoms: O_4  and  C_40 
DOCKED: REMARK    3  A    between atoms: O_7  and  C_46 
DOCKED: REMARK    4  A    between atoms: O_9  and  C_48 
DOCKED: REMARK    5  A    between atoms: C_15  and  C_20 
DOCKED: REMARK    6  A    between atoms: C_16  and  C_23 
DOCKED: REMARK    7  A    between atoms: C_20  and  C_38 
DOCKED: REMARK    8  A    between atoms: C_23  and  C_40 
DOCKED: REMARK    9  A    between atoms: C_32  and  C_41 
DOCKED: REMARK   10  A    between atoms: C_37  and  C_45 
DOCKED: REMARK   11  A    between atoms: C_41  and  C_44 
DOCKED: REMARK   12  A    between atoms: C_44  and  C_46 
DOCKED: REMARK   13  A    between atoms: C_47  and  C_48 
DOCKED: USER                              x       y       z     vdW  Elec       q    Type
DOCKED: USER                           _______ _______ _______ _____ _____    ______ ____
DOCKED: ROOT
DOCKED: ATOM      1  O   UNL d   1     -12.118   5.306  -8.187 -0.02 -0.01    -0.289 OA
DOCKED: ATOM      2  O   UNL d   1     -11.799   8.068 -15.163 -0.06 -0.01    -0.289 OA
DOCKED: ATOM      3  N   UNL d   1      -9.759   7.621  -9.174 -0.62 -0.03    -0.247 NA
DOCKED: ATOM      4  N   UNL d   1     -10.226   7.868 -12.098 -0.10 +0.03    -0.247 NA
DOCKED: ATOM      5  N   UNL d   1      -7.705   9.236 -12.291 -0.07 +0.08    -0.354 N 
DOCKED: ATOM      6  N   UNL d   1      -7.219   8.958  -9.259 -0.11 +0.03    -0.354 N 
DOCKED: ATOM      7  C   UNL d   1     -10.152   6.312  -7.139 -0.09 +0.00    +0.084 A 
DOCKED: ATOM      8  C   UNL d   1     -12.471   7.360 -12.918 -0.03 -0.00    +0.084 A 
DOCKED: ATOM      9  C   UNL d   1     -11.475   7.399 -11.755 -0.08 -0.00    +0.058 A 
DOCKED: ATOM     10  C   UNL d   1      -9.303   7.335  -7.898 -0.06 +0.00    +0.058 A 
DOCKED: ATOM     11  C   UNL d   1     -11.181   6.082  -8.205 -0.05 +0.01    +0.193 A 
DOCKED: ATOM     12  C   UNL d   1     -10.847   6.952  -9.378 -0.01 +0.01    +0.109 A 
DOCKED: ATOM     13  C   UNL d   1     -11.546   7.859 -13.992 -0.07 -0.00    +0.193 A 
DOCKED: ATOM     14  C   UNL d   1      -9.394   5.005  -6.893 -0.20 +0.00    +0.026 C 
DOCKED: ATOM     15  C   UNL d   1     -11.780   6.964 -10.523 -0.07 +0.00    +0.055 C 
DOCKED: ATOM     16  C   UNL d   1     -13.602   8.376 -12.731 -0.01 -0.00    +0.026 C 
DOCKED: ATOM     17  C   UNL d   1     -10.215   8.123 -13.367 -0.14 -0.01    +0.109 A 
DOCKED: ATOM     18  C   UNL d   1      -8.260   7.955  -7.313 -0.20 -0.00    +0.050 C 
DOCKED: ATOM     19  C   UNL d   1      -7.471   8.973  -7.906 -0.20 -0.00    +0.045 A 
DOCKED: ATOM     20  C   UNL d   1      -7.977   9.054 -13.622 -0.24 -0.01    +0.045 A 
DOCKED: ATOM     21  C   UNL d   1      -9.090   8.583 -14.193 -0.24 -0.00    +0.057 C 
DOCKED: ATOM     22  C   UNL d   1      -5.867   9.903 -13.409 -0.31 +0.00    -0.019 A 
DOCKED: ATOM     23  C   UNL d   1      -6.454   9.744 -12.063 -0.24 -0.01    +0.045 A 
DOCKED: ATOM     24  C   UNL d   1      -6.773   9.494 -14.327 -0.33 +0.00    -0.022 A 
DOCKED: ATOM     25  C   UNL d   1      -6.364   9.979  -9.604 -0.12 -0.00    +0.049 A 
DOCKED: ATOM     26  C   UNL d   1      -6.792  10.053  -7.363 -0.20 +0.00    -0.018 A 
DOCKED: ATOM     27  C   UNL d   1      -6.111  10.696  -8.443 -0.17 -0.00    +0.003 A 
DOCKED: ATOM     28  C   UNL d   1      -5.834  10.074 -10.919 -0.15 -0.00    +0.052 C 
DOCKED: ATOM     29  C   UNL d   1      -6.652   9.473 -15.813 -0.26 -0.00    +0.046 C 
DOCKED: ATOM     30  C   UNL d   1      -6.777  10.466  -5.930 -0.12 +0.00    +0.046 C 
DOCKED: ATOM     31  H   UNL d   1      -8.413   9.076 -11.582 -0.01 -0.03    +0.166 HD
DOCKED: ATOM     32  H   UNL d   1      -7.589   8.257  -9.890 -0.04 -0.03    +0.166 HD
DOCKED: ENDROOT
DOCKED: BRANCH   7  33
DOCKED: ATOM     33  C   UNL d   1     -10.813   6.828  -5.856 -0.04 +0.00    +0.141 C 
DOCKED: BRANCH  33  34
DOCKED: ATOM     34  C   UNL d   1     -12.066   7.616  -6.127 +0.00 +0.00    +0.306 C 
DOCKED: ATOM     35  O   UNL d   1     -12.121   8.761  -6.543 -0.00 -0.00    -0.251 OA
DOCKED: BRANCH  34  36
DOCKED: ATOM     36  O   UNL d   1     -13.185   6.919  -5.862 +0.00 -0.01    -0.481 OA
DOCKED: ATOM     37  H   UNL d   1     -13.224   6.238  -6.566 +0.01 +0.00    +0.295 HD
DOCKED: ENDBRANCH  34  36
DOCKED: ENDBRANCH  33  34
DOCKED: ENDBRANCH   7  33
DOCKED: BRANCH  27  38
DOCKED: ATOM     38  C   UNL d   1      -5.275  11.852  -8.319 -0.25 -0.00    +0.017 C 
DOCKED: ATOM     39  C   UNL d   1      -5.141  12.814  -9.245 -0.18 -0.00    +0.092 C 
DOCKED: BRANCH  39  40
DOCKED: ATOM     40  C   UNL d   1      -4.263  13.958  -8.988 -0.13 -0.01    +0.330 C 
DOCKED: ATOM     41  O   UNL d   1      -4.312  14.738  -8.056 -0.14 -0.01    -0.246 OA
DOCKED: BRANCH  40  42
DOCKED: ATOM     42  O   UNL d   1      -3.333  14.051  -9.951 -0.13 +0.05    -0.477 OA
DOCKED: ATOM     43  H   UNL d   1      -3.823  13.839 -10.772 +0.11 -0.03    +0.295 HD
DOCKED: ENDBRANCH  40  42
DOCKED: ENDBRANCH  39  40
DOCKED: ENDBRANCH  27  38
DOCKED: BRANCH   8  44
DOCKED: ATOM     44  C   UNL d   1     -13.023   5.975 -13.269 -0.03 +0.00    +0.141 C 
DOCKED: BRANCH  44  45
DOCKED: ATOM     45  C   UNL d   1     -13.945   5.986 -14.459 -0.01 +0.00    +0.306 C 
DOCKED: ATOM     46  O   UNL d   1     -15.159   6.087 -14.437 -0.00 -0.00    -0.251 OA
DOCKED: BRANCH  45  47
DOCKED: ATOM     47  O   UNL d   1     -13.285   5.841 -15.623 -0.01 -0.01    -0.481 OA
DOCKED: ATOM     48  H   UNL d   1     -12.819   6.694 -15.751 +0.04 +0.01    +0.295 HD
DOCKED: ENDBRANCH  45  47
DOCKED: ENDBRANCH  44  45
DOCKED: ENDBRANCH   8  44
DOCKED: BRANCH  22  49
DOCKED: ATOM     49  C   UNL d   1      -4.482  10.421 -13.668 -0.29 -0.02    +0.048 C 
DOCKED: BRANCH  49  50
DOCKED: ATOM     50  C   UNL d   1      -4.482  11.920 -13.964 -0.27 -0.02    +0.125 C 
DOCKED: BRANCH  50  51
DOCKED: ATOM     51  C   UNL d   1      -3.798  12.683 -12.865 -0.15 -0.04    +0.305 C 
DOCKED: ATOM     52  O   UNL d   1      -3.415  13.840 -12.891 -0.18 +0.00    -0.251 OA
DOCKED: BRANCH  51  53
DOCKED: ATOM     53  O   UNL d   1      -3.614  11.927 -11.765 -0.13 +0.10    -0.481 OA
DOCKED: ATOM     54  H   UNL d   1      -2.877  12.368 -11.293 -0.10 -0.14    +0.295 HD
DOCKED: ENDBRANCH  51  53
DOCKED: ENDBRANCH  50  51
DOCKED: ENDBRANCH  49  50
DOCKED: ENDBRANCH  22  49
DOCKED: TORSDOF 13
DOCKED: TER
DOCKED: ENDMDL
________________________________________________________________________________


	BEGINNING GENETIC ALGORITHM DOCKING 36 of 100
Run: 36 Seed: 1546974606 1911025309 [ Run 36 of 100 GA/GALS ]
Beginning LAMARCKIAN GENETIC ALGORITHM (LGA), with a maximum of 25000000 energy evaluations.

Final-Value: -12.597


	FINAL GENETIC ALGORITHM DOCKED STATE
	_______________________________________________


Detailed state:  trans -8.714 -15.209 10.641 quatxyzw -0.172942 0.063921 0.742632 0.643818 center 0.153 0.018 -0.028 ntor 13 92.5044 -168.8478 -180.0000 117.0805 13.4969 -62.4581 143.3832 95.6464 180.0000 -13.0829 -54.1804 35.1769 2.0745
State:	 -8.714 -15.209  10.641  -0.226  0.084  0.971 99.846     92.50 -168.85 -180.00  117.08   13.50  -62.46  143.38   95.65  180.00  -13.08  -54.18   35.18    2.07

DOCKED: MODEL       36
DOCKED: USER    Run = 36
DOCKED: USER    DPF = D:/Protein_go_brrr/autodock/final/mut_N102T/heme/dock.dpf
DOCKED: USER  
DOCKED: USER    Estimated Free Energy of Binding    =   -5.83 kcal/mol  [=(1)+(2)+(3)-(4)]
DOCKED: USER    Estimated Inhibition Constant, Ki   =   52.90 uM (micromolar)  [Temperature = 298.15 K]
DOCKED: USER    
DOCKED: USER    (1) Final Intermolecular Energy     =   -9.71 kcal/mol
DOCKED: USER        vdW + Hbond + desolv Energy     =   -8.80 kcal/mol
DOCKED: USER        Electrostatic Energy            =   -0.92 kcal/mol
DOCKED: USER    (2) Final Total Internal Energy     =   -2.88 kcal/mol
DOCKED: USER    (3) Torsional Free Energy           =   +3.88 kcal/mol
DOCKED: USER    (4) Unbound System's Energy  [=(2)] =   -2.88 kcal/mol
DOCKED: USER    
DOCKED: USER    
DOCKED: USER    NEWDPF move heme_opt.pdbqt
DOCKED: USER    NEWDPF about 0.153000 0.018000 -0.028000
DOCKED: USER    NEWDPF tran0 -8.714203 -15.209465 10.641056
DOCKED: USER    NEWDPF quaternion0 -0.172942 0.063921 0.742632 0.643818
DOCKED: USER    NEWDPF axisangle0 -0.226016 0.083538 0.970535 99.845715
DOCKED: USER    NEWDPF quat0 -0.226016 0.083538 0.970535 99.845715
DOCKED: USER    NEWDPF dihe0 92.50 -168.85 -180.00 117.08 13.50 -62.46 143.38 95.65 180.00 -13.08 -54.18 35.18 2.07 
DOCKED: USER  keepresnum = 1 
DOCKED: USER  
DOCKED: REMARK  13 active torsions:
DOCKED: REMARK  status: ('A' for Active; 'I' for Inactive)
DOCKED: REMARK    1  A    between atoms: O_3  and  C_38 
DOCKED: REMARK    2  A    between atoms: O_4  and  C_40 
DOCKED: REMARK    3  A    between atoms: O_7  and  C_46 
DOCKED: REMARK    4  A    between atoms: O_9  and  C_48 
DOCKED: REMARK    5  A    between atoms: C_15  and  C_20 
DOCKED: REMARK    6  A    between atoms: C_16  and  C_23 
DOCKED: REMARK    7  A    between atoms: C_20  and  C_38 
DOCKED: REMARK    8  A    between atoms: C_23  and  C_40 
DOCKED: REMARK    9  A    between atoms: C_32  and  C_41 
DOCKED: REMARK   10  A    between atoms: C_37  and  C_45 
DOCKED: REMARK   11  A    between atoms: C_41  and  C_44 
DOCKED: REMARK   12  A    between atoms: C_44  and  C_46 
DOCKED: REMARK   13  A    between atoms: C_47  and  C_48 
DOCKED: USER                              x       y       z     vdW  Elec       q    Type
DOCKED: USER                           _______ _______ _______ _____ _____    ______ ____
DOCKED: ROOT
DOCKED: ATOM      1  O   UNL d   1      -6.732 -10.078  12.761 -0.17 +0.07    -0.289 OA
DOCKED: ATOM      2  O   UNL d   1     -12.410 -11.619   8.094 -0.07 +0.05    -0.289 OA
DOCKED: ATOM      3  N   UNL d   1      -7.444 -13.273  11.677 -0.18 +0.09    -0.247 NA
DOCKED: ATOM      4  N   UNL d   1      -9.974 -12.931  10.157 -0.15 +0.10    -0.247 NA
DOCKED: ATOM      5  N   UNL d   1     -10.279 -15.790  10.200 -0.12 +0.20    -0.354 N 
DOCKED: ATOM      6  N   UNL d   1      -7.663 -16.135  11.794 -0.10 +0.20    -0.354 N 
DOCKED: ATOM      7  C   UNL d   1      -5.878 -12.305  13.294 -0.21 -0.02    +0.084 A 
DOCKED: ATOM      8  C   UNL d   1     -10.404 -10.733   9.181 -0.18 -0.02    +0.084 A 
DOCKED: ATOM      9  C   UNL d   1      -9.531 -11.631  10.063 -0.26 -0.02    +0.058 A 
DOCKED: ATOM     10  C   UNL d   1      -6.450 -13.545  12.601 -0.26 -0.02    +0.058 A 
DOCKED: ATOM     11  C   UNL d   1      -6.713 -11.282  12.585 -0.09 -0.04    +0.193 A 
DOCKED: ATOM     12  C   UNL d   1      -7.603 -11.992  11.612 -0.20 -0.03    +0.109 A 
DOCKED: ATOM     13  C   UNL d   1     -11.446 -11.754   8.821 -0.06 -0.04    +0.193 A 
DOCKED: ATOM     14  C   UNL d   1      -6.218 -12.273  14.787 -0.13 -0.01    +0.026 C 
DOCKED: ATOM     15  C   UNL d   1      -8.457 -11.175  10.726 -0.32 -0.01    +0.055 C 
DOCKED: ATOM     16  C   UNL d   1      -9.672 -10.306   7.905 -0.28 -0.01    +0.026 C 
DOCKED: ATOM     17  C   UNL d   1     -11.074 -13.042   9.482 -0.15 -0.03    +0.109 A 
DOCKED: ATOM     18  C   UNL d   1      -5.944 -14.772  12.826 -0.25 -0.02    +0.050 C 
DOCKED: ATOM     19  C   UNL d   1      -6.350 -15.963  12.171 -0.23 -0.02    +0.045 A 
DOCKED: ATOM     20  C   UNL d   1     -11.509 -15.430   9.714 -0.17 -0.01    +0.045 A 
DOCKED: ATOM     21  C   UNL d   1     -11.941 -14.221   9.343 -0.15 -0.01    +0.057 C 
DOCKED: ATOM     22  C   UNL d   1     -11.507 -17.677  10.127 -0.11 +0.01    -0.019 A 
DOCKED: ATOM     23  C   UNL d   1     -10.183 -17.127  10.479 -0.18 -0.03    +0.045 A 
DOCKED: ATOM     24  C   UNL d   1     -12.287 -16.667   9.673 -0.10 +0.01    -0.022 A 
DOCKED: ATOM     25  C   UNL d   1      -7.852 -17.389  11.261 -0.21 -0.04    +0.049 A 
DOCKED: ATOM     26  C   UNL d   1      -5.661 -17.120  11.841 -0.24 +0.01    -0.018 A 
DOCKED: ATOM     27  C   UNL d   1      -6.611 -18.009  11.249 -0.25 -0.00    +0.003 A 
DOCKED: ATOM     28  C   UNL d   1      -9.156 -17.856  10.944 -0.19 -0.04    +0.052 C 
DOCKED: ATOM     29  C   UNL d   1     -13.696 -16.722   9.188 -0.04 -0.01    +0.046 C 
DOCKED: ATOM     30  C   UNL d   1      -4.210 -17.385  12.059 -0.21 -0.03    +0.046 C 
DOCKED: ATOM     31  H   UNL d   1      -9.519 -15.121  10.256 -0.49 -0.14    +0.166 HD
DOCKED: ATOM     32  H   UNL d   1      -8.383 -15.436  11.937 -0.02 -0.09    +0.166 HD
DOCKED: ENDROOT
DOCKED: BRANCH   7  33
DOCKED: ATOM     33  C   UNL d   1      -4.388 -12.045  13.052 -0.33 -0.05    +0.141 C 
DOCKED: BRANCH  33  34
DOCKED: ATOM     34  C   UNL d   1      -3.637 -11.751  14.322 -0.13 -0.09    +0.306 C 
DOCKED: ATOM     35  O   UNL d   1      -3.421 -12.536  15.230 -0.56 +0.08    -0.251 OA
DOCKED: BRANCH  34  36
DOCKED: ATOM     36  O   UNL d   1      -3.194 -10.482  14.381 -0.43 +0.05    -0.481 OA
DOCKED: ATOM     37  H   UNL d   1      -2.302 -10.513  13.974 -0.36 -0.12    +0.295 HD
DOCKED: ENDBRANCH  34  36
DOCKED: ENDBRANCH  33  34
DOCKED: ENDBRANCH   7  33
DOCKED: BRANCH  27  38
DOCKED: ATOM     38  C   UNL d   1      -6.321 -19.329  10.777 -0.20 -0.01    +0.017 C 
DOCKED: ATOM     39  C   UNL d   1      -6.266 -19.695   9.487 +0.28 -0.14    +0.092 C 
DOCKED: BRANCH  39  40
DOCKED: ATOM     40  C   UNL d   1      -5.942 -21.080   9.134 -0.05 -0.32    +0.330 C 
DOCKED: ATOM     41  O   UNL d   1      -4.899 -21.674   9.336 -0.04 +0.12    -0.246 OA
DOCKED: BRANCH  40  42
DOCKED: ATOM     42  O   UNL d   1      -6.991 -21.662   8.533 -0.06 +0.52    -0.477 OA
DOCKED: ATOM     43  H   UNL d   1      -7.601 -20.917   8.352 -0.45 -0.63    +0.295 HD
DOCKED: ENDBRANCH  40  42
DOCKED: ENDBRANCH  39  40
DOCKED: ENDBRANCH  27  38
DOCKED: BRANCH   8  44
DOCKED: ATOM     44  C   UNL d   1     -11.036  -9.528   9.886 -0.09 -0.04    +0.141 C 
DOCKED: BRANCH  44  45
DOCKED: ATOM     45  C   UNL d   1     -11.991  -9.917  10.983 -0.00 -0.07    +0.306 C 
DOCKED: ATOM     46  O   UNL d   1     -11.753  -9.942  12.178 -0.01 +0.05    -0.251 OA
DOCKED: BRANCH  45  47
DOCKED: ATOM     47  O   UNL d   1     -13.197 -10.281  10.512 +0.01 +0.09    -0.481 OA
DOCKED: ATOM     48  H   UNL d   1     -13.125 -10.177   9.539 +0.03 -0.05    +0.295 HD
DOCKED: ENDBRANCH  45  47
DOCKED: ENDBRANCH  44  45
DOCKED: ENDBRANCH   8  44
DOCKED: BRANCH  22  49
DOCKED: ATOM     49  C   UNL d   1     -11.889 -19.120  10.278 -0.05 -0.02    +0.048 C 
DOCKED: BRANCH  49  50
DOCKED: ATOM     50  C   UNL d   1     -11.387 -19.966   9.108 -0.06 -0.09    +0.125 C 
DOCKED: BRANCH  50  51
DOCKED: ATOM     51  C   UNL d   1     -10.590 -21.141   9.599 -0.03 -0.21    +0.305 C 
DOCKED: ATOM     52  O   UNL d   1     -11.004 -22.250   9.890 -0.01 +0.09    -0.251 OA
DOCKED: BRANCH  51  53
DOCKED: ATOM     53  O   UNL d   1      -9.280 -20.849   9.714 +0.01 +0.55    -0.481 OA
DOCKED: ATOM     54  H   UNL d   1      -8.999 -20.650   8.796 -0.50 -0.68    +0.295 HD
DOCKED: ENDBRANCH  51  53
DOCKED: ENDBRANCH  50  51
DOCKED: ENDBRANCH  49  50
DOCKED: ENDBRANCH  22  49
DOCKED: TORSDOF 13
DOCKED: TER
DOCKED: ENDMDL
________________________________________________________________________________


	BEGINNING GENETIC ALGORITHM DOCKING 37 of 100
Run: 37 Seed: 456067170 240167748 [ Run 37 of 100 GA/GALS ]
Beginning LAMARCKIAN GENETIC ALGORITHM (LGA), with a maximum of 25000000 energy evaluations.

Final-Value: -11.621


	FINAL GENETIC ALGORITHM DOCKED STATE
	_______________________________________________


Detailed state:  trans 12.293 -1.808 -7.698 quatxyzw 0.691387 0.331674 0.575674 -0.283859 center 0.153 0.018 -0.028 ntor 13 -156.6146 77.0602 -125.3283 -125.6478 -143.6845 -50.8026 133.6770 -29.6319 -171.6798 -43.6553 65.7334 -174.7985 136.7233
State:	 12.293  -1.808  -7.698   0.721  0.346  0.600 -147.019   -156.61   77.06 -125.33 -125.65 -143.68  -50.80  133.68  -29.63 -171.68  -43.66   65.73 -174.80  136.72

DOCKED: MODEL       37
DOCKED: USER    Run = 37
DOCKED: USER    DPF = D:/Protein_go_brrr/autodock/final/mut_N102T/heme/dock.dpf
DOCKED: USER  
DOCKED: USER    Estimated Free Energy of Binding    =   -5.96 kcal/mol  [=(1)+(2)+(3)-(4)]
DOCKED: USER    Estimated Inhibition Constant, Ki   =   42.83 uM (micromolar)  [Temperature = 298.15 K]
DOCKED: USER    
DOCKED: USER    (1) Final Intermolecular Energy     =   -9.84 kcal/mol
DOCKED: USER        vdW + Hbond + desolv Energy     =   -9.28 kcal/mol
DOCKED: USER        Electrostatic Energy            =   -0.56 kcal/mol
DOCKED: USER    (2) Final Total Internal Energy     =   -1.78 kcal/mol
DOCKED: USER    (3) Torsional Free Energy           =   +3.88 kcal/mol
DOCKED: USER    (4) Unbound System's Energy  [=(2)] =   -1.78 kcal/mol
DOCKED: USER    
DOCKED: USER    
DOCKED: USER    NEWDPF move heme_opt.pdbqt
DOCKED: USER    NEWDPF about 0.153000 0.018000 -0.028000
DOCKED: USER    NEWDPF tran0 12.293372 -1.807656 -7.697862
DOCKED: USER    NEWDPF quaternion0 0.691387 0.331674 0.575674 -0.283859
DOCKED: USER    NEWDPF axisangle0 0.721046 0.345903 0.600370 -147.018738
DOCKED: USER    NEWDPF quat0 0.721046 0.345903 0.600370 -147.018738
DOCKED: USER    NEWDPF dihe0 -156.61 77.06 -125.33 -125.65 -143.68 -50.80 133.68 -29.63 -171.68 -43.66 65.73 -174.80 136.72 
DOCKED: USER  keepresnum = 1 
DOCKED: USER  
DOCKED: REMARK  13 active torsions:
DOCKED: REMARK  status: ('A' for Active; 'I' for Inactive)
DOCKED: REMARK    1  A    between atoms: O_3  and  C_38 
DOCKED: REMARK    2  A    between atoms: O_4  and  C_40 
DOCKED: REMARK    3  A    between atoms: O_7  and  C_46 
DOCKED: REMARK    4  A    between atoms: O_9  and  C_48 
DOCKED: REMARK    5  A    between atoms: C_15  and  C_20 
DOCKED: REMARK    6  A    between atoms: C_16  and  C_23 
DOCKED: REMARK    7  A    between atoms: C_20  and  C_38 
DOCKED: REMARK    8  A    between atoms: C_23  and  C_40 
DOCKED: REMARK    9  A    between atoms: C_32  and  C_41 
DOCKED: REMARK   10  A    between atoms: C_37  and  C_45 
DOCKED: REMARK   11  A    between atoms: C_41  and  C_44 
DOCKED: REMARK   12  A    between atoms: C_44  and  C_46 
DOCKED: REMARK   13  A    between atoms: C_47  and  C_48 
DOCKED: USER                              x       y       z     vdW  Elec       q    Type
DOCKED: USER                           _______ _______ _______ _____ _____    ______ ____
DOCKED: ROOT
DOCKED: ATOM      1  O   UNL d   1      12.496  -7.267  -9.914 -0.04 +0.04    -0.289 OA
DOCKED: ATOM      2  O   UNL d   1       9.789  -0.879 -12.787 -0.28 +0.04    -0.289 OA
DOCKED: ATOM      3  N   UNL d   1      12.474  -4.294  -8.166 -0.11 +0.05    -0.247 NA
DOCKED: ATOM      4  N   UNL d   1      11.524  -2.325 -10.178 -0.12 +0.03    -0.247 NA
DOCKED: ATOM      5  N   UNL d   1      12.382  -0.234  -8.401 -0.11 +0.05    -0.354 N 
DOCKED: ATOM      6  N   UNL d   1      13.383  -2.283  -6.327 -0.06 +0.04    -0.354 N 
DOCKED: ATOM      7  C   UNL d   1      13.389  -6.531  -7.761 -0.14 -0.03    +0.084 A 
DOCKED: ATOM      8  C   UNL d   1      10.128  -3.171 -11.997 -0.26 -0.01    +0.084 A 
DOCKED: ATOM      9  C   UNL d   1      10.996  -3.453 -10.766 -0.20 -0.01    +0.058 A 
DOCKED: ATOM     10  C   UNL d   1      13.191  -5.089  -7.287 -0.17 -0.02    +0.058 A 
DOCKED: ATOM     11  C   UNL d   1      12.642  -6.416  -9.055 -0.09 -0.04    +0.193 A 
DOCKED: ATOM     12  C   UNL d   1      12.114  -5.020  -9.173 -0.16 -0.02    +0.109 A 
DOCKED: ATOM     13  C   UNL d   1      10.291  -1.677 -12.020 -0.23 -0.02    +0.193 A 
DOCKED: ATOM     14  C   UNL d   1      14.858  -6.840  -8.063 -0.05 -0.01    +0.026 C 
DOCKED: ATOM     15  C   UNL d   1      11.259  -4.695 -10.333 -0.24 -0.01    +0.055 C 
DOCKED: ATOM     16  C   UNL d   1       8.655  -3.501 -11.740 -0.52 -0.00    +0.026 C 
DOCKED: ATOM     17  C   UNL d   1      11.166  -1.292 -10.871 -0.16 -0.01    +0.109 A 
DOCKED: ATOM     18  C   UNL d   1      13.610  -4.683  -6.073 -0.19 -0.03    +0.050 C 
DOCKED: ATOM     19  C   UNL d   1      13.398  -3.396  -5.517 -0.18 -0.01    +0.045 A 
DOCKED: ATOM     20  C   UNL d   1      12.106   0.507  -9.521 -0.32 -0.01    +0.045 A 
DOCKED: ATOM     21  C   UNL d   1      11.537   0.115 -10.666 -0.33 -0.01    +0.057 C 
DOCKED: ATOM     22  C   UNL d   1      13.081   1.862  -7.962 -0.24 +0.00    -0.019 A 
DOCKED: ATOM     23  C   UNL d   1      12.972   0.498  -7.406 -0.19 -0.01    +0.045 A 
DOCKED: ATOM     24  C   UNL d   1      12.566   1.861  -9.214 -0.35 +0.01    -0.022 A 
DOCKED: ATOM     25  C   UNL d   1      13.253  -1.139  -5.575 -0.19 -0.00    +0.049 A 
DOCKED: ATOM     26  C   UNL d   1      13.237  -2.967  -4.209 -0.25 +0.01    -0.018 A 
DOCKED: ATOM     27  C   UNL d   1      13.127  -1.543  -4.253 -0.28 -0.00    +0.003 A 
DOCKED: ATOM     28  C   UNL d   1      13.369   0.145  -6.174 -0.18 -0.00    +0.052 C 
DOCKED: ATOM     29  C   UNL d   1      12.440   2.996 -10.172 -0.41 -0.02    +0.046 C 
DOCKED: ATOM     30  C   UNL d   1      13.187  -3.826  -2.991 -0.20 -0.03    +0.046 C 
DOCKED: ATOM     31  H   UNL d   1      12.089  -1.202  -8.326 +0.07 -0.01    +0.166 HD
DOCKED: ATOM     32  H   UNL d   1      13.495  -2.321  -7.334 +0.05 -0.02    +0.166 HD
DOCKED: ENDROOT
DOCKED: BRANCH   7  33
DOCKED: ATOM     33  C   UNL d   1      12.760  -7.608  -6.870 -0.21 -0.11    +0.141 C 
DOCKED: BRANCH  33  34
DOCKED: ATOM     34  C   UNL d   1      13.759  -8.632  -6.405 -0.10 -0.21    +0.306 C 
DOCKED: ATOM     35  O   UNL d   1      14.054  -9.665  -6.982 -0.11 +0.09    -0.251 OA
DOCKED: BRANCH  34  36
DOCKED: ATOM     36  O   UNL d   1      14.337  -8.299  -5.237 -0.03 +0.48    -0.481 OA
DOCKED: ATOM     37  H   UNL d   1      13.720  -7.654  -4.831 -0.37 -0.67    +0.295 HD
DOCKED: ENDBRANCH  34  36
DOCKED: ENDBRANCH  33  34
DOCKED: ENDBRANCH   7  33
DOCKED: BRANCH  27  38
DOCKED: ATOM     38  C   UNL d   1      12.964  -0.693  -3.113 -0.27 -0.00    +0.017 C 
DOCKED: ATOM     39  C   UNL d   1      13.614  -0.827  -1.947 -0.20 -0.00    +0.092 C 
DOCKED: BRANCH  39  40
DOCKED: ATOM     40  C   UNL d   1      13.369   0.124  -0.860 -0.24 -0.02    +0.330 C 
DOCKED: ATOM     41  O   UNL d   1      13.429   1.338  -0.907 -0.21 +0.01    -0.246 OA
DOCKED: BRANCH  40  42
DOCKED: ATOM     42  O   UNL d   1      13.041  -0.532   0.264 -0.22 +0.03    -0.477 OA
DOCKED: ATOM     43  H   UNL d   1      12.070  -0.420   0.326 -0.22 -0.09    +0.295 HD
DOCKED: ENDBRANCH  40  42
DOCKED: ENDBRANCH  39  40
DOCKED: ENDBRANCH  27  38
DOCKED: BRANCH   8  44
DOCKED: ATOM     44  C   UNL d   1      10.616  -3.797 -13.307 -0.13 -0.01    +0.141 C 
DOCKED: BRANCH  44  45
DOCKED: ATOM     45  C   UNL d   1      11.487  -2.874 -14.119 -0.07 -0.01    +0.306 C 
DOCKED: ATOM     46  O   UNL d   1      12.699  -2.767 -14.045 -0.04 +0.01    -0.251 OA
DOCKED: BRANCH  45  47
DOCKED: ATOM     47  O   UNL d   1      10.776  -2.110 -14.967 -0.01 +0.02    -0.481 OA
DOCKED: ATOM     48  H   UNL d   1      10.105  -1.670 -14.402 -0.06 -0.04    +0.295 HD
DOCKED: ENDBRANCH  45  47
DOCKED: ENDBRANCH  44  45
DOCKED: ENDBRANCH   8  44
DOCKED: BRANCH  22  49
DOCKED: ATOM     49  C   UNL d   1      13.687   3.023  -7.230 -0.27 -0.01    +0.048 C 
DOCKED: BRANCH  49  50
DOCKED: ATOM     50  C   UNL d   1      15.091   2.704  -6.719 -0.11 -0.02    +0.125 C 
DOCKED: BRANCH  50  51
DOCKED: ATOM     51  C   UNL d   1      15.121   2.670  -5.217 -0.10 -0.04    +0.305 C 
DOCKED: ATOM     52  O   UNL d   1      14.493   3.374  -4.446 -0.26 +0.07    -0.251 OA
DOCKED: BRANCH  51  53
DOCKED: ATOM     53  O   UNL d   1      15.971   1.735  -4.751 +0.01 +0.04    -0.481 OA
DOCKED: ATOM     54  H   UNL d   1      16.821   1.943  -5.193 +0.05 -0.02    +0.295 HD
DOCKED: ENDBRANCH  51  53
DOCKED: ENDBRANCH  50  51
DOCKED: ENDBRANCH  49  50
DOCKED: ENDBRANCH  22  49
DOCKED: TORSDOF 13
DOCKED: TER
DOCKED: ENDMDL
________________________________________________________________________________


	BEGINNING GENETIC ALGORITHM DOCKING 38 of 100
Run: 38 Seed: 529599687 1645347878 [ Run 38 of 100 GA/GALS ]
Beginning LAMARCKIAN GENETIC ALGORITHM (LGA), with a maximum of 25000000 energy evaluations.

Final-Value: -11.371


	FINAL GENETIC ALGORITHM DOCKED STATE
	_______________________________________________


Detailed state:  trans -11.960 3.719 11.878 quatxyzw 0.653520 0.343500 0.589669 -0.327429 center 0.153 0.018 -0.028 ntor 13 -162.2482 -155.2110 -146.9817 -55.6426 42.2660 -42.4061 130.8968 -124.7072 -140.3387 -9.2016 -98.4907 5.3458 -14.7088
State:	-11.960   3.719  11.878   0.692  0.364  0.624 -141.774   -162.25 -155.21 -146.98  -55.64   42.27  -42.41  130.90 -124.71 -140.34   -9.20  -98.49    5.35  -14.71

DOCKED: MODEL       38
DOCKED: USER    Run = 38
DOCKED: USER    DPF = D:/Protein_go_brrr/autodock/final/mut_N102T/heme/dock.dpf
DOCKED: USER  
DOCKED: USER    Estimated Free Energy of Binding    =   -3.45 kcal/mol  [=(1)+(2)+(3)-(4)]
DOCKED: USER    Estimated Inhibition Constant, Ki   =    2.97 mM (millimolar)  [Temperature = 298.15 K]
DOCKED: USER    
DOCKED: USER    (1) Final Intermolecular Energy     =   -7.32 kcal/mol
DOCKED: USER        vdW + Hbond + desolv Energy     =   -6.95 kcal/mol
DOCKED: USER        Electrostatic Energy            =   -0.38 kcal/mol
DOCKED: USER    (2) Final Total Internal Energy     =   -4.05 kcal/mol
DOCKED: USER    (3) Torsional Free Energy           =   +3.88 kcal/mol
DOCKED: USER    (4) Unbound System's Energy  [=(2)] =   -4.05 kcal/mol
DOCKED: USER    
DOCKED: USER    
DOCKED: USER    NEWDPF move heme_opt.pdbqt
DOCKED: USER    NEWDPF about 0.153000 0.018000 -0.028000
DOCKED: USER    NEWDPF tran0 -11.959711 3.719268 11.878169
DOCKED: USER    NEWDPF quaternion0 0.653520 0.343500 0.589669 -0.327429
DOCKED: USER    NEWDPF axisangle0 0.691647 0.363540 0.624070 -141.774353
DOCKED: USER    NEWDPF quat0 0.691647 0.363540 0.624070 -141.774353
DOCKED: USER    NEWDPF dihe0 -162.25 -155.21 -146.98 -55.64 42.27 -42.41 130.90 -124.71 -140.34 -9.20 -98.49 5.35 -14.71 
DOCKED: USER  keepresnum = 1 
DOCKED: USER  
DOCKED: REMARK  13 active torsions:
DOCKED: REMARK  status: ('A' for Active; 'I' for Inactive)
DOCKED: REMARK    1  A    between atoms: O_3  and  C_38 
DOCKED: REMARK    2  A    between atoms: O_4  and  C_40 
DOCKED: REMARK    3  A    between atoms: O_7  and  C_46 
DOCKED: REMARK    4  A    between atoms: O_9  and  C_48 
DOCKED: REMARK    5  A    between atoms: C_15  and  C_20 
DOCKED: REMARK    6  A    between atoms: C_16  and  C_23 
DOCKED: REMARK    7  A    between atoms: C_20  and  C_38 
DOCKED: REMARK    8  A    between atoms: C_23  and  C_40 
DOCKED: REMARK    9  A    between atoms: C_32  and  C_41 
DOCKED: REMARK   10  A    between atoms: C_37  and  C_45 
DOCKED: REMARK   11  A    between atoms: C_41  and  C_44 
DOCKED: REMARK   12  A    between atoms: C_44  and  C_46 
DOCKED: REMARK   13  A    between atoms: C_47  and  C_48 
DOCKED: USER                              x       y       z     vdW  Elec       q    Type
DOCKED: USER                           _______ _______ _______ _____ _____    ______ ____
DOCKED: ROOT
DOCKED: ATOM      1  O   UNL d   1     -11.593  -1.910  10.164 -0.15 +0.18    -0.289 OA
DOCKED: ATOM      2  O   UNL d   1     -14.019   4.200   6.533 -0.02 +0.01    -0.289 OA
DOCKED: ATOM      3  N   UNL d   1     -11.751   1.203  11.643 -0.16 +0.02    -0.247 NA
DOCKED: ATOM      4  N   UNL d   1     -12.518   2.988   9.395 -0.12 +0.02    -0.247 NA
DOCKED: ATOM      5  N   UNL d   1     -11.805   5.227  11.052 -0.05 +0.00    -0.354 N 
DOCKED: ATOM      6  N   UNL d   1     -10.993   3.367  13.372 +0.05 -0.04    -0.354 N 
DOCKED: ATOM      7  C   UNL d   1     -10.883  -0.989  12.315 -0.25 -0.02    +0.084 A 
DOCKED: ATOM      8  C   UNL d   1     -13.758   1.985   7.544 -0.05 -0.01    +0.084 A 
DOCKED: ATOM      9  C   UNL d   1     -12.999   1.813   8.863 -0.12 -0.01    +0.058 A 
DOCKED: ATOM     10  C   UNL d   1     -11.115   0.488  12.644 -0.26 -0.00    +0.058 A 
DOCKED: ATOM     11  C   UNL d   1     -11.518  -0.988  10.956 -0.16 -0.07    +0.193 A 
DOCKED: ATOM     12  C   UNL d   1     -12.028   0.391  10.674 -0.17 -0.02    +0.109 A 
DOCKED: ATOM     13  C   UNL d   1     -13.587   3.472   7.406 -0.04 -0.01    +0.193 A 
DOCKED: ATOM     14  C   UNL d   1      -9.396  -1.319  12.166 +0.00 -0.01    +0.026 C 
DOCKED: ATOM     15  C   UNL d   1     -12.779   0.613   9.422 -0.15 -0.01    +0.055 C 
DOCKED: ATOM     16  C   UNL d   1     -15.249   1.674   7.702 -0.02 -0.00    +0.026 C 
DOCKED: ATOM     17  C   UNL d   1     -12.812   3.957   8.588 -0.13 -0.01    +0.109 A 
DOCKED: ATOM     18  C   UNL d   1     -10.798   0.998  13.850 -0.28 +0.01    +0.050 C 
DOCKED: ATOM     19  C   UNL d   1     -11.052   2.327  14.273 -0.18 +0.01    +0.045 A 
DOCKED: ATOM     20  C   UNL d   1     -11.981   5.868   9.853 -0.19 -0.00    +0.045 A 
DOCKED: ATOM     21  C   UNL d   1     -12.452   5.378   8.702 -0.20 -0.00    +0.057 C 
DOCKED: ATOM     22  C   UNL d   1     -11.136   7.354  11.368 -0.24 -0.00    -0.019 A 
DOCKED: ATOM     23  C   UNL d   1     -11.298   6.043  12.028 -0.16 +0.00    +0.045 A 
DOCKED: ATOM     24  C   UNL d   1     -11.543   7.245  10.082 -0.22 +0.00    -0.022 A 
DOCKED: ATOM     25  C   UNL d   1     -11.181   4.571  14.010 -0.13 +0.00    +0.049 A 
DOCKED: ATOM     26  C   UNL d   1     -11.321   2.866  15.521 -0.11 -0.00    -0.018 A 
DOCKED: ATOM     27  C   UNL d   1     -11.421   4.281  15.346 -0.11 +0.00    +0.003 A 
DOCKED: ATOM     28  C   UNL d   1     -11.008   5.799  13.315 -0.21 +0.00    +0.052 C 
DOCKED: ATOM     29  C   UNL d   1     -11.582   8.293   9.022 -0.22 -0.00    +0.046 C 
DOCKED: ATOM     30  C   UNL d   1     -11.479   2.116  16.800 -0.06 +0.01    +0.046 C 
DOCKED: ATOM     31  H   UNL d   1     -12.107   4.268  11.185 +0.04 -0.01    +0.166 HD
DOCKED: ATOM     32  H   UNL d   1     -10.796   3.243  12.386 +0.05 +0.01    +0.166 HD
DOCKED: ENDROOT
DOCKED: BRANCH   7  33
DOCKED: ATOM     33  C   UNL d   1     -11.591  -1.987  13.238 -0.11 -0.03    +0.141 C 
DOCKED: BRANCH  33  34
DOCKED: ATOM     34  C   UNL d   1     -10.726  -2.426  14.388 -0.09 +0.05    +0.306 C 
DOCKED: ATOM     35  O   UNL d   1     -10.734  -1.960  15.515 -0.64 -0.12    -0.251 OA
DOCKED: BRANCH  34  36
DOCKED: ATOM     36  O   UNL d   1      -9.896  -3.432  14.058 -0.64 +0.03    -0.481 OA
DOCKED: ATOM     37  H   UNL d   1      -9.905  -3.447  13.077 -0.42 -0.35    +0.295 HD
DOCKED: ENDBRANCH  34  36
DOCKED: ENDBRANCH  33  34
DOCKED: ENDBRANCH   7  33
DOCKED: BRANCH  27  38
DOCKED: ATOM     38  C   UNL d   1     -11.676   5.226  16.391 -0.06 +0.00    +0.017 C 
DOCKED: ATOM     39  C   UNL d   1     -12.503   6.279  16.298 -0.02 -0.00    +0.092 C 
DOCKED: BRANCH  39  40
DOCKED: ATOM     40  C   UNL d   1     -12.690   7.164  17.450 +0.00 -0.01    +0.330 C 
DOCKED: ATOM     41  O   UNL d   1     -12.860   6.846  18.612 -0.00 +0.01    -0.246 OA
DOCKED: BRANCH  40  42
DOCKED: ATOM     42  O   UNL d   1     -12.642   8.447  17.060 +0.00 +0.01    -0.477 OA
DOCKED: ATOM     43  H   UNL d   1     -12.897   8.415  16.115 +0.01 -0.01    +0.295 HD
DOCKED: ENDBRANCH  40  42
DOCKED: ENDBRANCH  39  40
DOCKED: ENDBRANCH  27  38
DOCKED: BRANCH   8  44
DOCKED: ATOM     44  C   UNL d   1     -13.163   1.250   6.338 -0.14 -0.03    +0.141 C 
DOCKED: BRANCH  44  45
DOCKED: ATOM     45  C   UNL d   1     -11.748   1.662   6.030 -0.21 -0.08    +0.306 C 
DOCKED: ATOM     46  O   UNL d   1     -10.733   1.195   6.516 -0.29 +0.08    -0.251 OA
DOCKED: BRANCH  45  47
DOCKED: ATOM     47  O   UNL d   1     -11.687   2.669   5.139 -0.12 +0.03    -0.481 OA
DOCKED: ATOM     48  H   UNL d   1     -12.494   3.200   5.310 +0.10 -0.01    +0.295 HD
DOCKED: ENDBRANCH  45  47
DOCKED: ENDBRANCH  44  45
DOCKED: ENDBRANCH   8  44
DOCKED: BRANCH  22  49
DOCKED: ATOM     49  C   UNL d   1     -10.590   8.577  12.046 -0.24 +0.00    +0.048 C 
DOCKED: BRANCH  49  50
DOCKED: ATOM     50  C   UNL d   1     -11.704   9.506  12.528 -0.07 -0.00    +0.125 C 
DOCKED: BRANCH  50  51
DOCKED: ATOM     51  C   UNL d   1     -12.248   9.048  13.851 -0.01 -0.01    +0.305 C 
DOCKED: ATOM     52  O   UNL d   1     -13.417   8.895  14.161 -0.01 +0.01    -0.251 OA
DOCKED: BRANCH  51  53
DOCKED: ATOM     53  O   UNL d   1     -11.268   8.811  14.746 +0.00 +0.00    -0.481 OA
DOCKED: ATOM     54  H   UNL d   1     -11.498   9.382  15.508 +0.03 -0.01    +0.295 HD
DOCKED: ENDBRANCH  51  53
DOCKED: ENDBRANCH  50  51
DOCKED: ENDBRANCH  49  50
DOCKED: ENDBRANCH  22  49
DOCKED: TORSDOF 13
DOCKED: TER
DOCKED: ENDMDL
________________________________________________________________________________


	BEGINNING GENETIC ALGORITHM DOCKING 39 of 100
Run: 39 Seed: 1929321083 64824389 [ Run 39 of 100 GA/GALS ]
Beginning LAMARCKIAN GENETIC ALGORITHM (LGA), with a maximum of 25000000 energy evaluations.

Final-Value: -11.469


	FINAL GENETIC ALGORITHM DOCKED STATE
	_______________________________________________


Detailed state:  trans -8.895 -11.280 11.401 quatxyzw -0.189448 0.117624 0.635618 0.739096 center 0.153 0.018 -0.028 ntor 13 -109.7530 72.7167 -163.7600 69.4405 -141.4528 -180.0000 138.3561 73.6303 131.8514 -7.4119 87.5046 -41.7470 5.6831
State:	 -8.895 -11.280  11.401  -0.281  0.175  0.944 84.691   -109.75   72.72 -163.76   69.44 -141.45 -180.00  138.36   73.63  131.85   -7.41   87.50  -41.75    5.68

DOCKED: MODEL       39
DOCKED: USER    Run = 39
DOCKED: USER    DPF = D:/Protein_go_brrr/autodock/final/mut_N102T/heme/dock.dpf
DOCKED: USER  
DOCKED: USER    Estimated Free Energy of Binding    =   -5.75 kcal/mol  [=(1)+(2)+(3)-(4)]
DOCKED: USER    Estimated Inhibition Constant, Ki   =   61.39 uM (micromolar)  [Temperature = 298.15 K]
DOCKED: USER    
DOCKED: USER    (1) Final Intermolecular Energy     =   -9.62 kcal/mol
DOCKED: USER        vdW + Hbond + desolv Energy     =   -8.92 kcal/mol
DOCKED: USER        Electrostatic Energy            =   -0.70 kcal/mol
DOCKED: USER    (2) Final Total Internal Energy     =   -1.85 kcal/mol
DOCKED: USER    (3) Torsional Free Energy           =   +3.88 kcal/mol
DOCKED: USER    (4) Unbound System's Energy  [=(2)] =   -1.85 kcal/mol
DOCKED: USER    
DOCKED: USER    
DOCKED: USER    NEWDPF move heme_opt.pdbqt
DOCKED: USER    NEWDPF about 0.153000 0.018000 -0.028000
DOCKED: USER    NEWDPF tran0 -8.894667 -11.279950 11.400801
DOCKED: USER    NEWDPF quaternion0 -0.189448 0.117624 0.635618 0.739096
DOCKED: USER    NEWDPF axisangle0 -0.281248 0.174620 0.943614 84.691013
DOCKED: USER    NEWDPF quat0 -0.281248 0.174620 0.943614 84.691013
DOCKED: USER    NEWDPF dihe0 -109.75 72.72 -163.76 69.44 -141.45 -180.00 138.36 73.63 131.85 -7.41 87.50 -41.75 5.68 
DOCKED: USER  keepresnum = 1 
DOCKED: USER  
DOCKED: REMARK  13 active torsions:
DOCKED: REMARK  status: ('A' for Active; 'I' for Inactive)
DOCKED: REMARK    1  A    between atoms: O_3  and  C_38 
DOCKED: REMARK    2  A    between atoms: O_4  and  C_40 
DOCKED: REMARK    3  A    between atoms: O_7  and  C_46 
DOCKED: REMARK    4  A    between atoms: O_9  and  C_48 
DOCKED: REMARK    5  A    between atoms: C_15  and  C_20 
DOCKED: REMARK    6  A    between atoms: C_16  and  C_23 
DOCKED: REMARK    7  A    between atoms: C_20  and  C_38 
DOCKED: REMARK    8  A    between atoms: C_23  and  C_40 
DOCKED: REMARK    9  A    between atoms: C_32  and  C_41 
DOCKED: REMARK   10  A    between atoms: C_37  and  C_45 
DOCKED: REMARK   11  A    between atoms: C_41  and  C_44 
DOCKED: REMARK   12  A    between atoms: C_44  and  C_46 
DOCKED: REMARK   13  A    between atoms: C_47  and  C_48 
DOCKED: USER                              x       y       z     vdW  Elec       q    Type
DOCKED: USER                           _______ _______ _______ _____ _____    ______ ____
DOCKED: ROOT
DOCKED: ATOM      1  O   UNL d   1      -8.574  -5.640  13.086 -0.05 +0.25    -0.289 OA
DOCKED: ATOM      2  O   UNL d   1     -13.014  -9.042   8.075 -0.01 +0.06    -0.289 OA
DOCKED: ATOM      3  N   UNL d   1      -8.304  -8.992  12.323 -0.12 +0.07    -0.247 NA
DOCKED: ATOM      4  N   UNL d   1     -10.617  -9.471  10.520 -0.05 +0.07    -0.247 NA
DOCKED: ATOM      5  N   UNL d   1     -10.189 -12.292  10.873 -0.06 +0.10    -0.354 N 
DOCKED: ATOM      6  N   UNL d   1      -7.803 -11.787  12.758 -0.06 +0.08    -0.354 N 
DOCKED: ATOM      7  C   UNL d   1      -7.260  -7.503  13.967 -0.20 -0.02    +0.084 A 
DOCKED: ATOM      8  C   UNL d   1     -11.458  -7.561   9.249 -0.11 -0.04    +0.084 A 
DOCKED: ATOM      9  C   UNL d   1     -10.509  -8.113  10.318 -0.16 -0.03    +0.058 A 
DOCKED: ATOM     10  C   UNL d   1      -7.403  -8.907  13.371 -0.19 -0.01    +0.058 A 
DOCKED: ATOM     11  C   UNL d   1      -8.227  -6.806  13.057 -0.17 -0.09    +0.193 A 
DOCKED: ATOM     12  C   UNL d   1      -8.773  -7.810  12.090 -0.21 -0.05    +0.109 A 
DOCKED: ATOM     13  C   UNL d   1     -12.150  -8.850   8.909 -0.02 -0.05    +0.193 A 
DOCKED: ATOM     14  C   UNL d   1      -7.790  -7.431  15.401 -0.09 -0.00    +0.026 C 
DOCKED: ATOM     15  C   UNL d   1      -9.683  -7.331  11.030 -0.22 -0.05    +0.055 C 
DOCKED: ATOM     16  C   UNL d   1     -10.697  -7.070   8.014 -0.32 -0.02    +0.026 C 
DOCKED: ATOM     17  C   UNL d   1     -11.554  -9.929   9.754 -0.05 -0.03    +0.109 A 
DOCKED: ATOM     18  C   UNL d   1      -6.636  -9.931  13.792 -0.22 -0.01    +0.050 C 
DOCKED: ATOM     19  C   UNL d   1      -6.638 -11.239  13.245 -0.19 -0.01    +0.045 A 
DOCKED: ATOM     20  C   UNL d   1     -11.396 -12.316  10.223 -0.11 -0.01    +0.045 A 
DOCKED: ATOM     21  C   UNL d   1     -12.068 -11.304   9.667 -0.08 -0.01    +0.057 C 
DOCKED: ATOM     22  C   UNL d   1     -10.879 -14.436  10.899 -0.14 +0.01    -0.019 A 
DOCKED: ATOM     23  C   UNL d   1      -9.795 -13.526  11.318 -0.14 -0.02    +0.045 A 
DOCKED: ATOM     24  C   UNL d   1     -11.823 -13.715  10.250 -0.11 +0.01    -0.022 A 
DOCKED: ATOM     25  C   UNL d   1      -7.597 -13.088  12.363 -0.21 -0.02    +0.049 A 
DOCKED: ATOM     26  C   UNL d   1      -5.642 -12.196  13.129 -0.27 +0.00    -0.018 A 
DOCKED: ATOM     27  C   UNL d   1      -6.248 -13.354  12.553 -0.30 -0.00    +0.003 A 
DOCKED: ATOM     28  C   UNL d   1      -8.687 -13.912  11.970 -0.14 -0.02    +0.052 C 
DOCKED: ATOM     29  C   UNL d   1     -13.096 -14.185   9.632 -0.07 -0.01    +0.046 C 
DOCKED: ATOM     30  C   UNL d   1      -4.212 -12.045  13.526 -0.45 -0.01    +0.046 C 
DOCKED: ATOM     31  H   UNL d   1      -9.638 -11.443  10.927 +0.05 -0.04    +0.166 HD
DOCKED: ATOM     32  H   UNL d   1      -8.689 -11.295  12.741 +0.05 -0.04    +0.166 HD
DOCKED: ENDROOT
DOCKED: BRANCH   7  33
DOCKED: ATOM     33  C   UNL d   1      -5.866  -6.878  13.850 -0.32 -0.04    +0.141 C 
DOCKED: BRANCH  33  34
DOCKED: ATOM     34  C   UNL d   1      -5.798  -5.497  14.443 -0.22 -0.03    +0.306 C 
DOCKED: ATOM     35  O   UNL d   1      -6.057  -4.453  13.869 -0.37 -0.07    -0.251 OA
DOCKED: BRANCH  34  36
DOCKED: ATOM     36  O   UNL d   1      -5.410  -5.505  15.731 -0.11 +0.04    -0.481 OA
DOCKED: ATOM     37  H   UNL d   1      -4.475  -5.798  15.705 -0.42 -0.11    +0.295 HD
DOCKED: ENDBRANCH  34  36
DOCKED: ENDBRANCH  33  34
DOCKED: ENDBRANCH   7  33
DOCKED: BRANCH  27  38
DOCKED: ATOM     38  C   UNL d   1      -5.575 -14.586  12.274 -0.35 -0.01    +0.017 C 
DOCKED: ATOM     39  C   UNL d   1      -6.162 -15.705  11.823 -0.28 -0.05    +0.092 C 
DOCKED: BRANCH  39  40
DOCKED: ATOM     40  C   UNL d   1      -5.354 -16.899  11.559 -0.15 -0.22    +0.330 C 
DOCKED: ATOM     41  O   UNL d   1      -5.739 -17.990  11.185 -0.20 +0.18    -0.246 OA
DOCKED: BRANCH  40  42
DOCKED: ATOM     42  O   UNL d   1      -4.057 -16.637  11.783 -0.08 +0.38    -0.477 OA
DOCKED: ATOM     43  H   UNL d   1      -3.667 -16.601  10.885 -0.37 -0.37    +0.295 HD
DOCKED: ENDBRANCH  40  42
DOCKED: ENDBRANCH  39  40
DOCKED: ENDBRANCH  27  38
DOCKED: BRANCH   8  44
DOCKED: ATOM     44  C   UNL d   1     -12.461  -6.511   9.737 -0.07 -0.07    +0.141 C 
DOCKED: BRANCH  44  45
DOCKED: ATOM     45  C   UNL d   1     -13.332  -6.999  10.863 -0.00 -0.09    +0.306 C 
DOCKED: ATOM     46  O   UNL d   1     -13.132  -6.846  12.056 -0.01 +0.07    -0.251 OA
DOCKED: BRANCH  45  47
DOCKED: ATOM     47  O   UNL d   1     -14.404  -7.684  10.426 +0.01 +0.10    -0.481 OA
DOCKED: ATOM     48  H   UNL d   1     -14.198  -7.896   9.490 +0.01 -0.06    +0.295 HD
DOCKED: ENDBRANCH  45  47
DOCKED: ENDBRANCH  44  45
DOCKED: ENDBRANCH   8  44
DOCKED: BRANCH  22  49
DOCKED: ATOM     49  C   UNL d   1     -10.898 -15.910  11.182 -0.12 -0.02    +0.048 C 
DOCKED: BRANCH  49  50
DOCKED: ATOM     50  C   UNL d   1      -9.981 -16.683  10.235 -0.17 -0.09    +0.125 C 
DOCKED: BRANCH  50  51
DOCKED: ATOM     51  C   UNL d   1     -10.732 -17.148   9.020 -0.12 -0.22    +0.305 C 
DOCKED: ATOM     52  O   UNL d   1     -11.206 -16.462   8.132 -0.61 +0.10    -0.251 OA
DOCKED: BRANCH  51  53
DOCKED: ATOM     53  O   UNL d   1     -10.863 -18.489   8.991 -0.04 +0.52    -0.481 OA
DOCKED: ATOM     54  H   UNL d   1     -10.293 -18.768   8.244 -0.54 -0.67    +0.295 HD
DOCKED: ENDBRANCH  51  53
DOCKED: ENDBRANCH  50  51
DOCKED: ENDBRANCH  49  50
DOCKED: ENDBRANCH  22  49
DOCKED: TORSDOF 13
DOCKED: TER
DOCKED: ENDMDL
________________________________________________________________________________


	BEGINNING GENETIC ALGORITHM DOCKING 40 of 100
Run: 40 Seed: 1545454116 1600734734 [ Run 40 of 100 GA/GALS ]
Beginning LAMARCKIAN GENETIC ALGORITHM (LGA), with a maximum of 25000000 energy evaluations.

Final-Value: -11.875


	FINAL GENETIC ALGORITHM DOCKED STATE
	_______________________________________________


Detailed state:  trans -4.476 15.375 15.231 quatxyzw 0.029144 0.809631 0.208054 -0.548052 center 0.153 0.018 -0.028 ntor 13 -105.2631 -176.4329 159.6505 -38.8224 33.8709 -17.1285 166.6863 -92.6822 130.1416 1.9861 -95.7538 -5.1798 -17.8182
State:	 -4.476  15.375  15.231   0.035  0.968  0.249 -113.533   -105.26 -176.43  159.65  -38.82   33.87  -17.13  166.69  -92.68  130.14    1.99  -95.75   -5.18  -17.82

DOCKED: MODEL       40
DOCKED: USER    Run = 40
DOCKED: USER    DPF = D:/Protein_go_brrr/autodock/final/mut_N102T/heme/dock.dpf
DOCKED: USER  
DOCKED: USER    Estimated Free Energy of Binding    =   -3.58 kcal/mol  [=(1)+(2)+(3)-(4)]
DOCKED: USER    Estimated Inhibition Constant, Ki   =    2.38 mM (millimolar)  [Temperature = 298.15 K]
DOCKED: USER    
DOCKED: USER    (1) Final Intermolecular Energy     =   -7.46 kcal/mol
DOCKED: USER        vdW + Hbond + desolv Energy     =   -7.47 kcal/mol
DOCKED: USER        Electrostatic Energy            =   +0.01 kcal/mol
DOCKED: USER    (2) Final Total Internal Energy     =   -4.42 kcal/mol
DOCKED: USER    (3) Torsional Free Energy           =   +3.88 kcal/mol
DOCKED: USER    (4) Unbound System's Energy  [=(2)] =   -4.42 kcal/mol
DOCKED: USER    
DOCKED: USER    
DOCKED: USER    NEWDPF move heme_opt.pdbqt
DOCKED: USER    NEWDPF about 0.153000 0.018000 -0.028000
DOCKED: USER    NEWDPF tran0 -4.476410 15.374747 15.230752
DOCKED: USER    NEWDPF quaternion0 0.029144 0.809631 0.208054 -0.548052
DOCKED: USER    NEWDPF axisangle0 0.034843 0.967944 0.248736 -113.533042
DOCKED: USER    NEWDPF quat0 0.034843 0.967944 0.248736 -113.533042
DOCKED: USER    NEWDPF dihe0 -105.26 -176.43 159.65 -38.82 33.87 -17.13 166.69 -92.68 130.14 1.99 -95.75 -5.18 -17.82 
DOCKED: USER  keepresnum = 1 
DOCKED: USER  
DOCKED: REMARK  13 active torsions:
DOCKED: REMARK  status: ('A' for Active; 'I' for Inactive)
DOCKED: REMARK    1  A    between atoms: O_3  and  C_38 
DOCKED: REMARK    2  A    between atoms: O_4  and  C_40 
DOCKED: REMARK    3  A    between atoms: O_7  and  C_46 
DOCKED: REMARK    4  A    between atoms: O_9  and  C_48 
DOCKED: REMARK    5  A    between atoms: C_15  and  C_20 
DOCKED: REMARK    6  A    between atoms: C_16  and  C_23 
DOCKED: REMARK    7  A    between atoms: C_20  and  C_38 
DOCKED: REMARK    8  A    between atoms: C_23  and  C_40 
DOCKED: REMARK    9  A    between atoms: C_32  and  C_41 
DOCKED: REMARK   10  A    between atoms: C_37  and  C_45 
DOCKED: REMARK   11  A    between atoms: C_41  and  C_44 
DOCKED: REMARK   12  A    between atoms: C_44  and  C_46 
DOCKED: REMARK   13  A    between atoms: C_47  and  C_48 
DOCKED: USER                              x       y       z     vdW  Elec       q    Type
DOCKED: USER                           _______ _______ _______ _____ _____    ______ ____
DOCKED: ROOT
DOCKED: ATOM      1  O   UNL d   1      -1.968  15.568  20.562 -0.05 +0.04    -0.289 OA
DOCKED: ATOM      2  O   UNL d   1      -3.964   9.744  16.263 -0.17 +0.10    -0.289 OA
DOCKED: ATOM      3  N   UNL d   1      -3.554  15.946  17.523 -0.09 +0.07    -0.247 NA
DOCKED: ATOM      4  N   UNL d   1      -3.655  13.175  16.456 -0.14 +0.07    -0.247 NA
DOCKED: ATOM      5  N   UNL d   1      -4.355  14.285  13.897 -0.09 +0.11    -0.354 N 
DOCKED: ATOM      6  N   UNL d   1      -4.229  17.158  15.008 -0.08 +0.10    -0.354 N 
DOCKED: ATOM      7  C   UNL d   1      -2.558  17.479  19.156 -0.10 -0.01    +0.084 A 
DOCKED: ATOM      8  C   UNL d   1      -3.633  11.350  18.080 -0.10 -0.02    +0.084 A 
DOCKED: ATOM      9  C   UNL d   1      -3.531  12.851  17.788 -0.15 -0.01    +0.058 A 
DOCKED: ATOM     10  C   UNL d   1      -3.278  17.270  17.821 -0.14 -0.01    +0.058 A 
DOCKED: ATOM     11  C   UNL d   1      -2.492  16.039  19.570 -0.05 -0.02    +0.193 A 
DOCKED: ATOM     12  C   UNL d   1      -3.152  15.213  18.509 -0.08 -0.02    +0.109 A 
DOCKED: ATOM     13  C   UNL d   1      -3.801  10.880  16.663 -0.16 -0.06    +0.193 A 
DOCKED: ATOM     14  C   UNL d   1      -1.133  18.004  18.965 -0.16 -0.00    +0.026 C 
DOCKED: ATOM     15  C   UNL d   1      -3.290  13.761  18.744 -0.13 -0.01    +0.055 C 
DOCKED: ATOM     16  C   UNL d   1      -4.904  11.010  18.865 -0.04 -0.00    +0.026 C 
DOCKED: ATOM     17  C   UNL d   1      -3.790  12.082  15.776 -0.27 -0.03    +0.109 A 
DOCKED: ATOM     18  C   UNL d   1      -3.677  18.312  17.067 -0.14 -0.01    +0.050 C 
DOCKED: ATOM     19  C   UNL d   1      -4.420  18.220  15.863 -0.12 -0.01    +0.045 A 
DOCKED: ATOM     20  C   UNL d   1      -4.130  12.983  13.535 -0.35 -0.01    +0.045 A 
DOCKED: ATOM     21  C   UNL d   1      -3.893  11.925  14.317 -0.30 -0.01    +0.057 C 
DOCKED: ATOM     22  C   UNL d   1      -4.462  14.226  11.648 -0.36 +0.00    -0.019 A 
DOCKED: ATOM     23  C   UNL d   1      -4.565  15.112  12.826 -0.26 -0.01    +0.045 A 
DOCKED: ATOM     24  C   UNL d   1      -4.206  12.967  12.075 -0.45 +0.00    -0.022 A 
DOCKED: ATOM     25  C   UNL d   1      -4.981  17.315  13.867 -0.15 -0.01    +0.049 A 
DOCKED: ATOM     26  C   UNL d   1      -5.348  19.069  15.280 -0.05 +0.00    -0.018 A 
DOCKED: ATOM     27  C   UNL d   1      -5.713  18.483  14.029 -0.07 -0.00    +0.003 A 
DOCKED: ATOM     28  C   UNL d   1      -4.832  16.425  12.768 -0.23 -0.01    +0.052 C 
DOCKED: ATOM     29  C   UNL d   1      -4.029  11.726  11.268 -0.52 -0.01    +0.046 C 
DOCKED: ATOM     30  C   UNL d   1      -5.867  20.346  15.849 -0.02 -0.00    +0.046 C 
DOCKED: ATOM     31  H   UNL d   1      -4.431  14.555  14.872 -0.13 -0.06    +0.166 HD
DOCKED: ATOM     32  H   UNL d   1      -3.586  16.397  15.195 -0.51 -0.11    +0.166 HD
DOCKED: ENDROOT
DOCKED: BRANCH   7  33
DOCKED: ATOM     33  C   UNL d   1      -3.326  18.302  20.196 -0.02 -0.02    +0.141 C 
DOCKED: BRANCH  33  34
DOCKED: ATOM     34  C   UNL d   1      -2.585  18.423  21.500 -0.00 -0.03    +0.306 C 
DOCKED: ATOM     35  O   UNL d   1      -1.769  19.282  21.788 -0.00 +0.03    -0.251 OA
DOCKED: BRANCH  34  36
DOCKED: ATOM     36  O   UNL d   1      -2.916  17.458  22.376 +0.00 +0.05    -0.481 OA
DOCKED: ATOM     37  H   UNL d   1      -2.500  16.646  22.016 +0.02 -0.03    +0.295 HD
DOCKED: ENDBRANCH  34  36
DOCKED: ENDBRANCH  33  34
DOCKED: ENDBRANCH   7  33
DOCKED: BRANCH  27  38
DOCKED: ATOM     38  C   UNL d   1      -6.640  19.045  13.094 -0.04 -0.00    +0.017 C 
DOCKED: ATOM     39  C   UNL d   1      -7.435  18.341  12.273 -0.02 -0.01    +0.092 C 
DOCKED: BRANCH  39  40
DOCKED: ATOM     40  C   UNL d   1      -8.356  19.039  11.372 -0.00 -0.02    +0.330 C 
DOCKED: ATOM     41  O   UNL d   1      -8.753  20.185  11.458 -0.00 +0.02    -0.246 OA
DOCKED: BRANCH  40  42
DOCKED: ATOM     42  O   UNL d   1      -8.729  18.225  10.373 +0.00 +0.03    -0.477 OA
DOCKED: ATOM     43  H   UNL d   1      -8.301  17.372  10.592 +0.02 -0.02    +0.295 HD
DOCKED: ENDBRANCH  40  42
DOCKED: ENDBRANCH  39  40
DOCKED: ENDBRANCH  27  38
DOCKED: BRANCH   8  44
DOCKED: ATOM     44  C   UNL d   1      -2.396  10.717  18.725 -0.12 -0.03    +0.141 C 
DOCKED: BRANCH  44  45
DOCKED: ATOM     45  C   UNL d   1      -1.110  11.092  18.039 -0.20 -0.09    +0.306 C 
DOCKED: ATOM     46  O   UNL d   1      -0.145  11.634  18.550 -0.27 +0.07    -0.251 OA
DOCKED: BRANCH  45  47
DOCKED: ATOM     47  O   UNL d   1      -1.118  10.788  16.729 -0.11 +0.26    -0.481 OA
DOCKED: ATOM     48  H   UNL d   1      -1.812  10.100  16.638 -0.42 -0.21    +0.295 HD
DOCKED: ENDBRANCH  45  47
DOCKED: ENDBRANCH  44  45
DOCKED: ENDBRANCH   8  44
DOCKED: BRANCH  22  49
DOCKED: ATOM     49  C   UNL d   1      -4.607  14.692  10.229 -0.28 -0.00    +0.048 C 
DOCKED: BRANCH  49  50
DOCKED: ATOM     50  C   UNL d   1      -5.989  14.367   9.663 -0.26 -0.02    +0.125 C 
DOCKED: BRANCH  50  51
DOCKED: ATOM     51  C   UNL d   1      -6.981  15.437  10.022 -0.08 -0.03    +0.305 C 
DOCKED: ATOM     52  O   UNL d   1      -7.796  15.421  10.927 -0.03 +0.02    -0.251 OA
DOCKED: BRANCH  51  53
DOCKED: ATOM     53  O   UNL d   1      -6.902  16.497   9.193 -0.02 +0.03    -0.481 OA
DOCKED: ATOM     54  H   UNL d   1      -7.836  16.761   9.055 +0.03 -0.02    +0.295 HD
DOCKED: ENDBRANCH  51  53
DOCKED: ENDBRANCH  50  51
DOCKED: ENDBRANCH  49  50
DOCKED: ENDBRANCH  22  49
DOCKED: TORSDOF 13
DOCKED: TER
DOCKED: ENDMDL
________________________________________________________________________________


	BEGINNING GENETIC ALGORITHM DOCKING 41 of 100
Run: 41 Seed: 1181734448 985839127 [ Run 41 of 100 GA/GALS ]
Beginning LAMARCKIAN GENETIC ALGORITHM (LGA), with a maximum of 25000000 energy evaluations.

Final-Value: -13.245


	FINAL GENETIC ALGORITHM DOCKED STATE
	_______________________________________________


Detailed state:  trans 4.730 14.264 -11.056 quatxyzw -0.792781 -0.018684 -0.421083 -0.440270 center 0.153 0.018 -0.028 ntor 13 -124.3661 76.0273 -166.6369 -136.2558 36.9166 -177.3580 -9.3144 113.2479 93.9272 137.3687 53.3779 14.5155 178.9678
State:	  4.730  14.264 -11.056  -0.883 -0.021 -0.469 -127.758   -124.37   76.03 -166.64 -136.26   36.92 -177.36   -9.31  113.25   93.93  137.37   53.38   14.52  178.97

DOCKED: MODEL       41
DOCKED: USER    Run = 41
DOCKED: USER    DPF = D:/Protein_go_brrr/autodock/final/mut_N102T/heme/dock.dpf
DOCKED: USER  
DOCKED: USER    Estimated Free Energy of Binding    =   -7.96 kcal/mol  [=(1)+(2)+(3)-(4)]
DOCKED: USER    Estimated Inhibition Constant, Ki   =    1.47 uM (micromolar)  [Temperature = 298.15 K]
DOCKED: USER    
DOCKED: USER    (1) Final Intermolecular Energy     =  -11.84 kcal/mol
DOCKED: USER        vdW + Hbond + desolv Energy     =  -11.13 kcal/mol
DOCKED: USER        Electrostatic Energy            =   -0.71 kcal/mol
DOCKED: USER    (2) Final Total Internal Energy     =   -1.41 kcal/mol
DOCKED: USER    (3) Torsional Free Energy           =   +3.88 kcal/mol
DOCKED: USER    (4) Unbound System's Energy  [=(2)] =   -1.41 kcal/mol
DOCKED: USER    
DOCKED: USER    
DOCKED: USER    NEWDPF move heme_opt.pdbqt
DOCKED: USER    NEWDPF about 0.153000 0.018000 -0.028000
DOCKED: USER    NEWDPF tran0 4.729710 14.263632 -11.055630
DOCKED: USER    NEWDPF quaternion0 -0.792781 -0.018684 -0.421083 -0.440270
DOCKED: USER    NEWDPF axisangle0 -0.882962 -0.020809 -0.468983 -127.757729
DOCKED: USER    NEWDPF quat0 -0.882962 -0.020809 -0.468983 -127.757729
DOCKED: USER    NEWDPF dihe0 -124.37 76.03 -166.64 -136.26 36.92 -177.36 -9.31 113.25 93.93 137.37 53.38 14.52 178.97 
DOCKED: USER  keepresnum = 1 
DOCKED: USER  
DOCKED: REMARK  13 active torsions:
DOCKED: REMARK  status: ('A' for Active; 'I' for Inactive)
DOCKED: REMARK    1  A    between atoms: O_3  and  C_38 
DOCKED: REMARK    2  A    between atoms: O_4  and  C_40 
DOCKED: REMARK    3  A    between atoms: O_7  and  C_46 
DOCKED: REMARK    4  A    between atoms: O_9  and  C_48 
DOCKED: REMARK    5  A    between atoms: C_15  and  C_20 
DOCKED: REMARK    6  A    between atoms: C_16  and  C_23 
DOCKED: REMARK    7  A    between atoms: C_20  and  C_38 
DOCKED: REMARK    8  A    between atoms: C_23  and  C_40 
DOCKED: REMARK    9  A    between atoms: C_32  and  C_41 
DOCKED: REMARK   10  A    between atoms: C_37  and  C_45 
DOCKED: REMARK   11  A    between atoms: C_41  and  C_44 
DOCKED: REMARK   12  A    between atoms: C_44  and  C_46 
DOCKED: REMARK   13  A    between atoms: C_47  and  C_48 
DOCKED: USER                              x       y       z     vdW  Elec       q    Type
DOCKED: USER                           _______ _______ _______ _____ _____    ______ ____
DOCKED: ROOT
DOCKED: ATOM      1  O   UNL d   1       2.211  15.607 -16.214 -0.18 -0.03    -0.289 OA
DOCKED: ATOM      2  O   UNL d   1       0.048  17.007  -9.160 -0.16 +0.07    -0.289 OA
DOCKED: ATOM      3  N   UNL d   1       3.968  14.491 -13.464 -0.16 +0.10    -0.247 NA
DOCKED: ATOM      4  N   UNL d   1       2.551  15.763 -11.184 -0.17 +0.10    -0.247 NA
DOCKED: ATOM      5  N   UNL d   1       4.781  15.044  -9.517 -0.14 +0.15    -0.354 N 
DOCKED: ATOM      6  N   UNL d   1       6.253  13.743 -11.892 +0.08 +0.18    -0.354 N 
DOCKED: ATOM      7  C   UNL d   1       4.347  14.466 -15.886 -0.16 -0.03    +0.084 A 
DOCKED: ATOM      8  C   UNL d   1       0.196  16.331 -11.508 -0.18 -0.01    +0.084 A 
DOCKED: ATOM      9  C   UNL d   1       1.516  15.814 -12.091 -0.25 -0.01    +0.058 A 
DOCKED: ATOM     10  C   UNL d   1       4.836  14.117 -14.477 -0.21 -0.02    +0.058 A 
DOCKED: ATOM     11  C   UNL d   1       3.041  15.087 -15.491 -0.16 -0.02    +0.193 A 
DOCKED: ATOM     12  C   UNL d   1       2.917  15.018 -14.001 -0.24 -0.02    +0.109 A 
DOCKED: ATOM     13  C   UNL d   1       0.684  16.599 -10.112 -0.10 -0.06    +0.193 A 
DOCKED: ATOM     14  C   UNL d   1       5.222  15.532 -16.550 -0.06 -0.00    +0.026 C 
DOCKED: ATOM     15  C   UNL d   1       1.660  15.490 -13.385 -0.26 -0.00    +0.055 C 
DOCKED: ATOM     16  C   UNL d   1      -0.869  15.232 -11.455 -0.28 -0.00    +0.026 C 
DOCKED: ATOM     17  C   UNL d   1       2.128  16.220 -10.049 +0.09 -0.05    +0.109 A 
DOCKED: ATOM     18  C   UNL d   1       5.973  13.424 -14.279 -0.23 -0.02    +0.050 C 
DOCKED: ATOM     19  C   UNL d   1       6.460  12.984 -13.022 -0.17 -0.02    +0.045 A 
DOCKED: ATOM     20  C   UNL d   1       4.097  15.864  -8.656 -0.28 -0.02    +0.045 A 
DOCKED: ATOM     21  C   UNL d   1       2.889  16.416  -8.806 -0.28 -0.02    +0.057 C 
DOCKED: ATOM     22  C   UNL d   1       6.104  15.313  -7.715 -0.21 +0.01    -0.019 A 
DOCKED: ATOM     23  C   UNL d   1       6.004  14.660  -9.035 -0.24 -0.02    +0.045 A 
DOCKED: ATOM     24  C   UNL d   1       4.972  16.023  -7.495 -0.22 +0.01    -0.022 A 
DOCKED: ATOM     25  C   UNL d   1       6.883  13.178 -10.808 -0.15 -0.02    +0.049 A 
DOCKED: ATOM     26  C   UNL d   1       7.213  11.879 -12.655 -0.28 +0.01    -0.018 A 
DOCKED: ATOM     27  C   UNL d   1       7.460  11.997 -11.252 -0.30 -0.00    +0.003 A 
DOCKED: ATOM     28  C   UNL d   1       6.944  13.861  -9.563 -0.25 -0.02    +0.052 C 
DOCKED: ATOM     29  C   UNL d   1       4.599  16.839  -6.305 -0.17 -0.02    +0.046 C 
DOCKED: ATOM     30  C   UNL d   1       7.673  10.779 -13.550 -0.15 -0.01    +0.046 C 
DOCKED: ATOM     31  H   UNL d   1       4.356  14.714 -10.377 -0.29 -0.09    +0.166 HD
DOCKED: ATOM     32  H   UNL d   1       5.739  14.616 -11.891 -0.13 -0.08    +0.166 HD
DOCKED: ENDROOT
DOCKED: BRANCH   7  33
DOCKED: ATOM     33  C   UNL d   1       4.115  13.270 -16.816 -0.15 -0.10    +0.141 C 
DOCKED: BRANCH  33  34
DOCKED: ATOM     34  C   UNL d   1       2.904  13.444 -17.691 -0.26 -0.06    +0.306 C 
DOCKED: ATOM     35  O   UNL d   1       2.885  13.937 -18.806 -0.18 +0.01    -0.251 OA
DOCKED: BRANCH  34  36
DOCKED: ATOM     36  O   UNL d   1       1.778  12.985 -17.116 -0.47 -0.01    -0.481 OA
DOCKED: ATOM     37  H   UNL d   1       1.747  13.431 -16.243 -0.19 -0.01    +0.295 HD
DOCKED: ENDBRANCH  34  36
DOCKED: ENDBRANCH  33  34
DOCKED: ENDBRANCH   7  33
DOCKED: BRANCH  27  38
DOCKED: ATOM     38  C   UNL d   1       8.219  11.070 -10.468 -0.39 -0.01    +0.017 C 
DOCKED: ATOM     39  C   UNL d   1       7.807  10.508  -9.321 -0.47 -0.03    +0.092 C 
DOCKED: BRANCH  39  40
DOCKED: ATOM     40  C   UNL d   1       8.675   9.558  -8.621 -0.24 -0.07    +0.330 C 
DOCKED: ATOM     41  O   UNL d   1       8.443   8.961  -7.586 -0.92 +0.02    -0.246 OA
DOCKED: BRANCH  40  42
DOCKED: ATOM     42  O   UNL d   1       9.825   9.401  -9.294 -0.50 +0.12    -0.477 OA
DOCKED: ATOM     43  H   UNL d   1       9.725   8.529  -9.730 -0.42 -0.15    +0.295 HD
DOCKED: ENDBRANCH  40  42
DOCKED: ENDBRANCH  39  40
DOCKED: ENDBRANCH  27  38
DOCKED: BRANCH   8  44
DOCKED: ATOM     44  C   UNL d   1      -0.355  17.608 -12.151 -0.06 -0.00    +0.141 C 
DOCKED: BRANCH  44  45
DOCKED: ATOM     45  C   UNL d   1      -1.228  17.341 -13.348 -0.04 +0.03    +0.306 C 
DOCKED: ATOM     46  O   UNL d   1      -0.936  16.676 -14.326 -0.13 -0.05    -0.251 OA
DOCKED: BRANCH  45  47
DOCKED: ATOM     47  O   UNL d   1      -2.423  17.953 -13.260 +0.01 -0.04    -0.481 OA
DOCKED: ATOM     48  H   UNL d   1      -2.324  18.584 -12.516 +0.03 +0.01    +0.295 HD
DOCKED: ENDBRANCH  45  47
DOCKED: ENDBRANCH  44  45
DOCKED: ENDBRANCH   8  44
DOCKED: BRANCH  22  49
DOCKED: ATOM     49  C   UNL d   1       7.292  15.195  -6.805 -0.19 -0.05    +0.048 C 
DOCKED: BRANCH  49  50
DOCKED: ATOM     50  C   UNL d   1       8.258  16.368  -6.976 -0.07 -0.08    +0.125 C 
DOCKED: BRANCH  50  51
DOCKED: ATOM     51  C   UNL d   1       9.648  15.879  -7.269 -0.04 -0.22    +0.305 C 
DOCKED: ATOM     52  O   UNL d   1      10.243  15.925  -8.331 -0.02 +0.12    -0.251 OA
DOCKED: BRANCH  51  53
DOCKED: ATOM     53  O   UNL d   1      10.230  15.333  -6.182 -0.04 +0.64    -0.481 OA
DOCKED: ATOM     54  H   UNL d   1       9.523  14.782  -5.785 -0.50 -0.78    +0.295 HD
DOCKED: ENDBRANCH  51  53
DOCKED: ENDBRANCH  50  51
DOCKED: ENDBRANCH  49  50
DOCKED: ENDBRANCH  22  49
DOCKED: TORSDOF 13
DOCKED: TER
DOCKED: ENDMDL
________________________________________________________________________________


	BEGINNING GENETIC ALGORITHM DOCKING 42 of 100
Run: 42 Seed: 771362350 2064930687 [ Run 42 of 100 GA/GALS ]
Beginning LAMARCKIAN GENETIC ALGORITHM (LGA), with a maximum of 25000000 energy evaluations.

Final-Value: -13.968


	FINAL GENETIC ALGORITHM DOCKED STATE
	_______________________________________________


Detailed state:  trans 4.727 14.277 -11.213 quatxyzw 0.772326 -0.006668 0.444424 0.453824 center 0.153 0.018 -0.028 ntor 13 108.3784 62.1572 106.3842 170.3209 -140.3293 -152.7952 -42.6212 -105.6840 66.7224 -127.8477 -79.6833 6.0753 -179.8386
State:	  4.727  14.277 -11.213   0.867 -0.007  0.499 126.021    108.38   62.16  106.38  170.32 -140.33 -152.80  -42.62 -105.68   66.72 -127.85  -79.68    6.08 -179.84

DOCKED: MODEL       42
DOCKED: USER    Run = 42
DOCKED: USER    DPF = D:/Protein_go_brrr/autodock/final/mut_N102T/heme/dock.dpf
DOCKED: USER  
DOCKED: USER    Estimated Free Energy of Binding    =   -7.76 kcal/mol  [=(1)+(2)+(3)-(4)]
DOCKED: USER    Estimated Inhibition Constant, Ki   =    2.04 uM (micromolar)  [Temperature = 298.15 K]
DOCKED: USER    
DOCKED: USER    (1) Final Intermolecular Energy     =  -11.64 kcal/mol
DOCKED: USER        vdW + Hbond + desolv Energy     =  -10.93 kcal/mol
DOCKED: USER        Electrostatic Energy            =   -0.72 kcal/mol
DOCKED: USER    (2) Final Total Internal Energy     =   -2.33 kcal/mol
DOCKED: USER    (3) Torsional Free Energy           =   +3.88 kcal/mol
DOCKED: USER    (4) Unbound System's Energy  [=(2)] =   -2.33 kcal/mol
DOCKED: USER    
DOCKED: USER    
DOCKED: USER    NEWDPF move heme_opt.pdbqt
DOCKED: USER    NEWDPF about 0.153000 0.018000 -0.028000
DOCKED: USER    NEWDPF tran0 4.726585 14.276559 -11.213430
DOCKED: USER    NEWDPF quaternion0 0.772326 -0.006668 0.444424 0.453824
DOCKED: USER    NEWDPF axisangle0 0.866719 -0.007483 0.498741 126.021451
DOCKED: USER    NEWDPF quat0 0.866719 -0.007483 0.498741 126.021451
DOCKED: USER    NEWDPF dihe0 108.38 62.16 106.38 170.32 -140.33 -152.80 -42.62 -105.68 66.72 -127.85 -79.68 6.08 -179.84 
DOCKED: USER  keepresnum = 1 
DOCKED: USER  
DOCKED: REMARK  13 active torsions:
DOCKED: REMARK  status: ('A' for Active; 'I' for Inactive)
DOCKED: REMARK    1  A    between atoms: O_3  and  C_38 
DOCKED: REMARK    2  A    between atoms: O_4  and  C_40 
DOCKED: REMARK    3  A    between atoms: O_7  and  C_46 
DOCKED: REMARK    4  A    between atoms: O_9  and  C_48 
DOCKED: REMARK    5  A    between atoms: C_15  and  C_20 
DOCKED: REMARK    6  A    between atoms: C_16  and  C_23 
DOCKED: REMARK    7  A    between atoms: C_20  and  C_38 
DOCKED: REMARK    8  A    between atoms: C_23  and  C_40 
DOCKED: REMARK    9  A    between atoms: C_32  and  C_41 
DOCKED: REMARK   10  A    between atoms: C_37  and  C_45 
DOCKED: REMARK   11  A    between atoms: C_41  and  C_44 
DOCKED: REMARK   12  A    between atoms: C_44  and  C_46 
DOCKED: REMARK   13  A    between atoms: C_47  and  C_48 
DOCKED: USER                              x       y       z     vdW  Elec       q    Type
DOCKED: USER                           _______ _______ _______ _____ _____    ______ ____
DOCKED: ROOT
DOCKED: ATOM      1  O   UNL d   1       2.445  16.055 -16.350 -0.10 -0.03    -0.289 OA
DOCKED: ATOM      2  O   UNL d   1       0.121  17.128  -9.291 -0.17 +0.06    -0.289 OA
DOCKED: ATOM      3  N   UNL d   1       4.057  14.687 -13.625 -0.15 +0.09    -0.247 NA
DOCKED: ATOM      4  N   UNL d   1       2.627  15.887 -11.313 -0.16 +0.09    -0.247 NA
DOCKED: ATOM      5  N   UNL d   1       4.764  14.959  -9.628 -0.13 +0.15    -0.354 N 
DOCKED: ATOM      6  N   UNL d   1       6.250  13.733 -12.035 +0.05 +0.18    -0.354 N 
DOCKED: ATOM      7  C   UNL d   1       4.513  14.791 -16.031 -0.11 -0.02    +0.084 A 
DOCKED: ATOM      8  C   UNL d   1       0.314  16.589 -11.671 -0.15 -0.01    +0.084 A 
DOCKED: ATOM      9  C   UNL d   1       1.626  16.045 -12.245 -0.22 -0.01    +0.058 A 
DOCKED: ATOM     10  C   UNL d   1       4.938  14.333 -14.633 -0.18 -0.02    +0.058 A 
DOCKED: ATOM     11  C   UNL d   1       3.226  15.451 -15.638 -0.11 -0.01    +0.193 A 
DOCKED: ATOM     12  C   UNL d   1       3.049  15.298 -14.158 -0.20 -0.02    +0.109 A 
DOCKED: ATOM     13  C   UNL d   1       0.768  16.747 -10.247 -0.11 -0.05    +0.193 A 
DOCKED: ATOM     14  C   UNL d   1       5.459  15.852 -16.600 -0.04 -0.00    +0.026 C 
DOCKED: ATOM     15  C   UNL d   1       1.797  15.793 -13.552 -0.25 -0.00    +0.055 C 
DOCKED: ATOM     16  C   UNL d   1      -0.804  15.543 -11.718 -0.23 -0.00    +0.026 C 
DOCKED: ATOM     17  C   UNL d   1       2.189  16.294 -10.165 -0.03 -0.04    +0.109 A 
DOCKED: ATOM     18  C   UNL d   1       6.034  13.574 -14.444 -0.21 -0.02    +0.050 C 
DOCKED: ATOM     19  C   UNL d   1       6.458  13.035 -13.203 -0.19 -0.02    +0.045 A 
DOCKED: ATOM     20  C   UNL d   1       4.093  15.757  -8.739 -0.29 -0.02    +0.045 A 
DOCKED: ATOM     21  C   UNL d   1       2.918  16.376  -8.890 -0.28 -0.02    +0.057 C 
DOCKED: ATOM     22  C   UNL d   1       6.039  15.051  -7.774 -0.23 +0.01    -0.019 A 
DOCKED: ATOM     23  C   UNL d   1       5.951  14.486  -9.135 -0.25 -0.02    +0.045 A 
DOCKED: ATOM     24  C   UNL d   1       4.935  15.801  -7.545 -0.25 +0.01    -0.022 A 
DOCKED: ATOM     25  C   UNL d   1       6.817  13.073 -10.970 -0.11 -0.02    +0.049 A 
DOCKED: ATOM     26  C   UNL d   1       7.145  11.874 -12.884 -0.28 +0.01    -0.018 A 
DOCKED: ATOM     27  C   UNL d   1       7.351  11.894 -11.470 -0.32 -0.00    +0.003 A 
DOCKED: ATOM     28  C   UNL d   1       6.869  13.675  -9.683 -0.26 -0.02    +0.052 C 
DOCKED: ATOM     29  C   UNL d   1       4.562  16.561  -6.317 -0.19 -0.02    +0.046 C 
DOCKED: ATOM     30  C   UNL d   1       7.581  10.809 -13.831 -0.22 -0.02    +0.046 C 
DOCKED: ATOM     31  H   UNL d   1       4.353  14.702 -10.519 -0.34 -0.10    +0.166 HD
DOCKED: ATOM     32  H   UNL d   1       5.778  14.629 -11.994 -0.10 -0.07    +0.166 HD
DOCKED: ENDROOT
DOCKED: BRANCH   7  33
DOCKED: ATOM     33  C   UNL d   1       4.255  13.667 -17.040 -0.19 -0.07    +0.141 C 
DOCKED: BRANCH  33  34
DOCKED: ATOM     34  C   UNL d   1       2.814  13.591 -17.467 -0.27 -0.05    +0.306 C 
DOCKED: ATOM     35  O   UNL d   1       1.924  12.986 -16.893 -0.68 +0.01    -0.251 OA
DOCKED: BRANCH  34  36
DOCKED: ATOM     36  O   UNL d   1       2.569  14.285 -18.593 -0.11 -0.03    -0.481 OA
DOCKED: ATOM     37  H   UNL d   1       2.587  15.225 -18.312 +0.09 +0.05    +0.295 HD
DOCKED: ENDBRANCH  34  36
DOCKED: ENDBRANCH  33  34
DOCKED: ENDBRANCH   7  33
DOCKED: BRANCH  27  38
DOCKED: ATOM     38  C   UNL d   1       8.039  10.884 -10.722 -0.41 -0.01    +0.017 C 
DOCKED: ATOM     39  C   UNL d   1       7.639  10.389  -9.541 -0.48 -0.02    +0.092 C 
DOCKED: BRANCH  39  40
DOCKED: ATOM     40  C   UNL d   1       8.426   9.342  -8.885 -0.31 -0.06    +0.330 C 
DOCKED: ATOM     41  O   UNL d   1       8.039   8.511  -8.085 -0.98 +0.00    -0.246 OA
DOCKED: BRANCH  40  42
DOCKED: ATOM     42  O   UNL d   1       9.703   9.398  -9.295 -0.54 +0.12    -0.477 OA
DOCKED: ATOM     43  H   UNL d   1       9.847   8.534  -9.733 -0.42 -0.16    +0.295 HD
DOCKED: ENDBRANCH  40  42
DOCKED: ENDBRANCH  39  40
DOCKED: ENDBRANCH  27  38
DOCKED: BRANCH   8  44
DOCKED: ATOM     44  C   UNL d   1      -0.155  17.929 -12.249 -0.05 -0.00    +0.141 C 
DOCKED: BRANCH  44  45
DOCKED: ATOM     45  C   UNL d   1      -1.415  18.445 -11.607 -0.00 -0.00    +0.306 C 
DOCKED: ATOM     46  O   UNL d   1      -2.558  18.175 -11.931 -0.01 -0.01    -0.251 OA
DOCKED: BRANCH  45  47
DOCKED: ATOM     47  O   UNL d   1      -1.166  19.302 -10.601 +0.01 +0.01    -0.481 OA
DOCKED: ATOM     48  H   UNL d   1      -0.855  18.735  -9.863 +0.04 -0.02    +0.295 HD
DOCKED: ENDBRANCH  45  47
DOCKED: ENDBRANCH  44  45
DOCKED: ENDBRANCH   8  44
DOCKED: BRANCH  22  49
DOCKED: ATOM     49  C   UNL d   1       7.189  14.819  -6.838 -0.18 -0.05    +0.048 C 
DOCKED: BRANCH  49  50
DOCKED: ATOM     50  C   UNL d   1       8.200  15.965  -6.885 -0.09 -0.10    +0.125 C 
DOCKED: BRANCH  50  51
DOCKED: ATOM     51  C   UNL d   1       8.021  16.887  -5.712 -0.03 -0.21    +0.305 C 
DOCKED: ATOM     52  O   UNL d   1       7.625  18.039  -5.726 -0.01 +0.10    -0.251 OA
DOCKED: BRANCH  51  53
DOCKED: ATOM     53  O   UNL d   1       8.371  16.299  -4.551 +0.00 +0.57    -0.481 OA
DOCKED: ATOM     54  H   UNL d   1       8.494  15.356  -4.789 -0.49 -0.79    +0.295 HD
DOCKED: ENDBRANCH  51  53
DOCKED: ENDBRANCH  50  51
DOCKED: ENDBRANCH  49  50
DOCKED: ENDBRANCH  22  49
DOCKED: TORSDOF 13
DOCKED: TER
DOCKED: ENDMDL
________________________________________________________________________________


	BEGINNING GENETIC ALGORITHM DOCKING 43 of 100
Run: 43 Seed: 1502314886 126481580 [ Run 43 of 100 GA/GALS ]
Beginning LAMARCKIAN GENETIC ALGORITHM (LGA), with a maximum of 25000000 energy evaluations.

Final-Value: -12.257


	FINAL GENETIC ALGORITHM DOCKED STATE
	_______________________________________________


Detailed state:  trans -4.128 9.336 17.410 quatxyzw -0.578309 -0.787394 -0.142075 0.159326 center 0.153 0.018 -0.028 ntor 13 38.2001 -179.5304 -83.5063 53.1187 -148.9201 -111.2754 173.5597 40.4359 -146.1645 -109.1121 -90.6162 37.7365 6.7335
State:	 -4.128   9.336  17.410  -0.586 -0.798 -0.144 161.664     38.20 -179.53  -83.51   53.12 -148.92 -111.28  173.56   40.44 -146.16 -109.11  -90.62   37.74    6.73

DOCKED: MODEL       43
DOCKED: USER    Run = 43
DOCKED: USER    DPF = D:/Protein_go_brrr/autodock/final/mut_N102T/heme/dock.dpf
DOCKED: USER  
DOCKED: USER    Estimated Free Energy of Binding    =   -4.63 kcal/mol  [=(1)+(2)+(3)-(4)]
DOCKED: USER    Estimated Inhibition Constant, Ki   =  405.86 uM (micromolar)  [Temperature = 298.15 K]
DOCKED: USER    
DOCKED: USER    (1) Final Intermolecular Energy     =   -8.50 kcal/mol
DOCKED: USER        vdW + Hbond + desolv Energy     =   -8.42 kcal/mol
DOCKED: USER        Electrostatic Energy            =   -0.09 kcal/mol
DOCKED: USER    (2) Final Total Internal Energy     =   -3.75 kcal/mol
DOCKED: USER    (3) Torsional Free Energy           =   +3.88 kcal/mol
DOCKED: USER    (4) Unbound System's Energy  [=(2)] =   -3.75 kcal/mol
DOCKED: USER    
DOCKED: USER    
DOCKED: USER    NEWDPF move heme_opt.pdbqt
DOCKED: USER    NEWDPF about 0.153000 0.018000 -0.028000
DOCKED: USER    NEWDPF tran0 -4.128076 9.335934 17.410007
DOCKED: USER    NEWDPF quaternion0 -0.578309 -0.787394 -0.142075 0.159326
DOCKED: USER    NEWDPF axisangle0 -0.585792 -0.797582 -0.143914 161.664390
DOCKED: USER    NEWDPF quat0 -0.585792 -0.797582 -0.143914 161.664390
DOCKED: USER    NEWDPF dihe0 38.20 -179.53 -83.51 53.12 -148.92 -111.28 173.56 40.44 -146.16 -109.11 -90.62 37.74 6.73 
DOCKED: USER  keepresnum = 1 
DOCKED: USER  
DOCKED: REMARK  13 active torsions:
DOCKED: REMARK  status: ('A' for Active; 'I' for Inactive)
DOCKED: REMARK    1  A    between atoms: O_3  and  C_38 
DOCKED: REMARK    2  A    between atoms: O_4  and  C_40 
DOCKED: REMARK    3  A    between atoms: O_7  and  C_46 
DOCKED: REMARK    4  A    between atoms: O_9  and  C_48 
DOCKED: REMARK    5  A    between atoms: C_15  and  C_20 
DOCKED: REMARK    6  A    between atoms: C_16  and  C_23 
DOCKED: REMARK    7  A    between atoms: C_20  and  C_38 
DOCKED: REMARK    8  A    between atoms: C_23  and  C_40 
DOCKED: REMARK    9  A    between atoms: C_32  and  C_41 
DOCKED: REMARK   10  A    between atoms: C_37  and  C_45 
DOCKED: REMARK   11  A    between atoms: C_41  and  C_44 
DOCKED: REMARK   12  A    between atoms: C_44  and  C_46 
DOCKED: REMARK   13  A    between atoms: C_47  and  C_48 
DOCKED: USER                              x       y       z     vdW  Elec       q    Type
DOCKED: USER                           _______ _______ _______ _____ _____    ______ ____
DOCKED: ROOT
DOCKED: ATOM      1  O   UNL d   1      -0.824   4.489  17.996 -0.23 +0.12    -0.289 OA
DOCKED: ATOM      2  O   UNL d   1      -8.233   5.325  17.098 -0.10 -0.02    -0.289 OA
DOCKED: ATOM      3  N   UNL d   1      -2.349   7.578  17.831 -0.14 +0.06    -0.247 NA
DOCKED: ATOM      4  N   UNL d   1      -5.170   6.913  17.175 -0.15 +0.03    -0.247 NA
DOCKED: ATOM      5  N   UNL d   1      -5.581   9.688  16.548 -0.08 +0.05    -0.354 N 
DOCKED: ATOM      6  N   UNL d   1      -2.648  10.366  17.211 -0.09 +0.14    -0.354 N 
DOCKED: ATOM      7  C   UNL d   1      -0.027   6.798  17.919 -0.35 -0.02    +0.084 A 
DOCKED: ATOM      8  C   UNL d   1      -5.987   4.713  17.856 -0.21 +0.00    +0.084 A 
DOCKED: ATOM      9  C   UNL d   1      -4.822   5.700  17.726 -0.26 -0.01    +0.058 A 
DOCKED: ATOM     10  C   UNL d   1      -1.019   7.962  17.840 -0.25 -0.02    +0.058 A 
DOCKED: ATOM     11  C   UNL d   1      -1.033   5.688  17.971 -0.26 -0.06    +0.193 A 
DOCKED: ATOM     12  C   UNL d   1      -2.403   6.290  17.937 -0.26 -0.02    +0.109 A 
DOCKED: ATOM     13  C   UNL d   1      -7.053   5.577  17.243 -0.15 +0.01    +0.193 A 
DOCKED: ATOM     14  C   UNL d   1       0.798   6.658  16.638 -0.42 -0.01    +0.026 C 
DOCKED: ATOM     15  C   UNL d   1      -3.564   5.387  18.072 -0.31 -0.01    +0.055 C 
DOCKED: ATOM     16  C   UNL d   1      -6.348   4.451  19.321 -0.09 -0.00    +0.026 C 
DOCKED: ATOM     17  C   UNL d   1      -6.427   6.880  16.866 -0.21 -0.01    +0.109 A 
DOCKED: ATOM     18  C   UNL d   1      -0.604   9.243  17.871 -0.32 -0.02    +0.050 C 
DOCKED: ATOM     19  C   UNL d   1      -1.449  10.381  17.887 -0.26 -0.01    +0.045 A 
DOCKED: ATOM     20  C   UNL d   1      -6.757   9.164  16.078 -0.17 -0.00    +0.045 A 
DOCKED: ATOM     21  C   UNL d   1      -7.227   7.918  16.199 -0.25 -0.00    +0.057 C 
DOCKED: ATOM     22  C   UNL d   1      -6.644  11.368  15.487 -0.12 +0.00    -0.019 A 
DOCKED: ATOM     23  C   UNL d   1      -5.424  11.013  16.240 -0.15 -0.01    +0.045 A 
DOCKED: ATOM     24  C   UNL d   1      -7.430  10.269  15.396 -0.07 +0.00    -0.022 A 
DOCKED: ATOM     25  C   UNL d   1      -3.260  11.596  17.284 -0.22 -0.01    +0.049 A 
DOCKED: ATOM     26  C   UNL d   1      -1.295  11.641  18.445 -0.22 +0.00    -0.018 A 
DOCKED: ATOM     27  C   UNL d   1      -2.451  12.398  18.077 -0.12 -0.00    +0.003 A 
DOCKED: ATOM     28  C   UNL d   1      -4.435  11.872  16.533 -0.20 -0.01    +0.052 C 
DOCKED: ATOM     29  C   UNL d   1      -8.763  10.127  14.745 -0.13 +0.00    +0.046 C 
DOCKED: ATOM     30  C   UNL d   1      -0.147  12.115  19.270 -0.17 -0.01    +0.046 C 
DOCKED: ATOM     31  H   UNL d   1      -4.956   9.141  17.130 +0.06 -0.03    +0.166 HD
DOCKED: ATOM     32  H   UNL d   1      -2.994   9.561  16.701 -0.23 -0.09    +0.166 HD
DOCKED: ENDROOT
DOCKED: BRANCH   7  33
DOCKED: ATOM     33  C   UNL d   1       0.863   6.777  19.167 -0.26 -0.04    +0.141 C 
DOCKED: BRANCH  33  34
DOCKED: ATOM     34  C   UNL d   1       2.230   7.353  18.913 -0.26 -0.10    +0.306 C 
DOCKED: ATOM     35  O   UNL d   1       3.233   6.725  18.619 -0.31 +0.09    -0.251 OA
DOCKED: BRANCH  34  36
DOCKED: ATOM     36  O   UNL d   1       2.260   8.691  19.041 -0.10 +0.18    -0.481 OA
DOCKED: ATOM     37  H   UNL d   1       2.895   8.990  18.356 -0.32 -0.20    +0.295 HD
DOCKED: ENDBRANCH  34  36
DOCKED: ENDBRANCH  33  34
DOCKED: ENDBRANCH   7  33
DOCKED: BRANCH  27  38
DOCKED: ATOM     38  C   UNL d   1      -2.691  13.763  18.434 +0.06 -0.00    +0.017 C 
DOCKED: ATOM     39  C   UNL d   1      -3.564  14.179  19.364 -0.09 -0.01    +0.092 C 
DOCKED: BRANCH  39  40
DOCKED: ATOM     40  C   UNL d   1      -3.703  15.610  19.648 -0.04 -0.04    +0.330 C 
DOCKED: ATOM     41  O   UNL d   1      -3.410  16.196  20.672 -0.02 +0.03    -0.246 OA
DOCKED: BRANCH  40  42
DOCKED: ATOM     42  O   UNL d   1      -4.214  16.245  18.581 -0.03 +0.07    -0.477 OA
DOCKED: ATOM     43  H   UNL d   1      -4.346  15.531  17.924 +0.04 -0.06    +0.295 HD
DOCKED: ENDBRANCH  40  42
DOCKED: ENDBRANCH  39  40
DOCKED: ENDBRANCH  27  38
DOCKED: BRANCH   8  44
DOCKED: ATOM     44  C   UNL d   1      -5.831   3.401  17.081 -0.15 +0.02    +0.141 C 
DOCKED: BRANCH  44  45
DOCKED: ATOM     45  C   UNL d   1      -7.141   2.708  16.815 -0.17 +0.12    +0.306 C 
DOCKED: ATOM     46  O   UNL d   1      -7.540   2.294  15.740 -0.37 -0.14    -0.251 OA
DOCKED: BRANCH  45  47
DOCKED: ATOM     47  O   UNL d   1      -7.898   2.597  17.922 -0.09 -0.14    -0.481 OA
DOCKED: ATOM     48  H   UNL d   1      -8.505   3.366  17.885 +0.08 +0.05    +0.295 HD
DOCKED: ENDBRANCH  45  47
DOCKED: ENDBRANCH  44  45
DOCKED: ENDBRANCH   8  44
DOCKED: BRANCH  22  49
DOCKED: ATOM     49  C   UNL d   1      -6.918  12.729  14.920 -0.11 -0.00    +0.048 C 
DOCKED: BRANCH  49  50
DOCKED: ATOM     50  C   UNL d   1      -7.359  13.717  16.001 -0.03 -0.01    +0.125 C 
DOCKED: BRANCH  50  51
DOCKED: ATOM     51  C   UNL d   1      -6.175  14.428  16.593 -0.02 -0.04    +0.305 C 
DOCKED: ATOM     52  O   UNL d   1      -5.149  14.761  16.026 -0.09 +0.06    -0.251 OA
DOCKED: BRANCH  51  53
DOCKED: ATOM     53  O   UNL d   1      -6.343  14.679  17.906 +0.00 +0.06    -0.481 OA
DOCKED: ATOM     54  H   UNL d   1      -6.169  15.640  17.989 +0.02 -0.04    +0.295 HD
DOCKED: ENDBRANCH  51  53
DOCKED: ENDBRANCH  50  51
DOCKED: ENDBRANCH  49  50
DOCKED: ENDBRANCH  22  49
DOCKED: TORSDOF 13
DOCKED: TER
DOCKED: ENDMDL
________________________________________________________________________________


	BEGINNING GENETIC ALGORITHM DOCKING 44 of 100
Run: 44 Seed: 213764434 980615298 [ Run 44 of 100 GA/GALS ]
Beginning LAMARCKIAN GENETIC ALGORITHM (LGA), with a maximum of 25000000 energy evaluations.

Final-Value: -12.278


	FINAL GENETIC ALGORITHM DOCKED STATE
	_______________________________________________


Detailed state:  trans -8.807 -8.299 12.408 quatxyzw 0.852385 -0.304495 0.313053 0.287610 center 0.153 0.018 -0.028 ntor 13 -103.1533 151.0498 -89.9389 27.5992 30.8668 77.0671 165.9742 39.8242 127.4169 -88.3716 -61.7300 -100.6741 1.8587
State:	 -8.807  -8.299  12.408   0.890 -0.318  0.327 146.570   -103.15  151.05  -89.94   27.60   30.87   77.07  165.97   39.82  127.42  -88.37  -61.73 -100.67    1.86

DOCKED: MODEL       44
DOCKED: USER    Run = 44
DOCKED: USER    DPF = D:/Protein_go_brrr/autodock/final/mut_N102T/heme/dock.dpf
DOCKED: USER  
DOCKED: USER    Estimated Free Energy of Binding    =   -4.12 kcal/mol  [=(1)+(2)+(3)-(4)]
DOCKED: USER    Estimated Inhibition Constant, Ki   =  956.92 uM (micromolar)  [Temperature = 298.15 K]
DOCKED: USER    
DOCKED: USER    (1) Final Intermolecular Energy     =   -8.00 kcal/mol
DOCKED: USER        vdW + Hbond + desolv Energy     =   -7.79 kcal/mol
DOCKED: USER        Electrostatic Energy            =   -0.21 kcal/mol
DOCKED: USER    (2) Final Total Internal Energy     =   -4.28 kcal/mol
DOCKED: USER    (3) Torsional Free Energy           =   +3.88 kcal/mol
DOCKED: USER    (4) Unbound System's Energy  [=(2)] =   -4.28 kcal/mol
DOCKED: USER    
DOCKED: USER    
DOCKED: USER    NEWDPF move heme_opt.pdbqt
DOCKED: USER    NEWDPF about 0.153000 0.018000 -0.028000
DOCKED: USER    NEWDPF tran0 -8.807171 -8.299428 12.407805
DOCKED: USER    NEWDPF quaternion0 0.852385 -0.304495 0.313053 0.287610
DOCKED: USER    NEWDPF axisangle0 0.889990 -0.317928 0.326864 146.570150
DOCKED: USER    NEWDPF quat0 0.889990 -0.317928 0.326864 146.570150
DOCKED: USER    NEWDPF dihe0 -103.15 151.05 -89.94 27.60 30.87 77.07 165.97 39.82 127.42 -88.37 -61.73 -100.67 1.86 
DOCKED: USER  keepresnum = 1 
DOCKED: USER  
DOCKED: REMARK  13 active torsions:
DOCKED: REMARK  status: ('A' for Active; 'I' for Inactive)
DOCKED: REMARK    1  A    between atoms: O_3  and  C_38 
DOCKED: REMARK    2  A    between atoms: O_4  and  C_40 
DOCKED: REMARK    3  A    between atoms: O_7  and  C_46 
DOCKED: REMARK    4  A    between atoms: O_9  and  C_48 
DOCKED: REMARK    5  A    between atoms: C_15  and  C_20 
DOCKED: REMARK    6  A    between atoms: C_16  and  C_23 
DOCKED: REMARK    7  A    between atoms: C_20  and  C_38 
DOCKED: REMARK    8  A    between atoms: C_23  and  C_40 
DOCKED: REMARK    9  A    between atoms: C_32  and  C_41 
DOCKED: REMARK   10  A    between atoms: C_37  and  C_45 
DOCKED: REMARK   11  A    between atoms: C_41  and  C_44 
DOCKED: REMARK   12  A    between atoms: C_44  and  C_46 
DOCKED: REMARK   13  A    between atoms: C_47  and  C_48 
DOCKED: USER                              x       y       z     vdW  Elec       q    Type
DOCKED: USER                           _______ _______ _______ _____ _____    ______ ____
DOCKED: ROOT
DOCKED: ATOM      1  O   UNL d   1     -12.391  -5.279   8.832 -0.08 +0.17    -0.289 OA
DOCKED: ATOM      2  O   UNL d   1      -9.927  -3.769  15.763 -0.16 -0.08    -0.289 OA
DOCKED: ATOM      3  N   UNL d   1     -10.381  -7.443  10.613 -0.13 +0.18    -0.247 NA
DOCKED: ATOM      4  N   UNL d   1      -9.693  -5.888  13.049 -0.07 +0.20    -0.247 NA
DOCKED: ATOM      5  N   UNL d   1      -7.652  -7.836  13.604 -0.07 +0.10    -0.354 N 
DOCKED: ATOM      6  N   UNL d   1      -8.360  -9.432  11.064 -0.08 +0.10    -0.354 N 
DOCKED: ATOM      7  C   UNL d   1     -11.262  -7.387   8.326 -0.16 -0.04    +0.084 A 
DOCKED: ATOM      8  C   UNL d   1     -11.267  -4.156  13.752 -0.07 -0.03    +0.084 A 
DOCKED: ATOM      9  C   UNL d   1     -10.845  -5.209  12.722 +0.10 -0.05    +0.058 A 
DOCKED: ATOM     10  C   UNL d   1     -10.418  -8.094   9.391 -0.21 -0.03    +0.058 A 
DOCKED: ATOM     11  C   UNL d   1     -11.710  -6.230   9.168 -0.11 -0.13    +0.193 A 
DOCKED: ATOM     12  C   UNL d   1     -11.131  -6.392  10.540 -0.12 -0.10    +0.109 A 
DOCKED: ATOM     13  C   UNL d   1     -10.121  -4.337  14.706 -0.09 -0.02    +0.193 A 
DOCKED: ATOM     14  C   UNL d   1     -10.405  -6.857   7.173 -0.37 -0.02    +0.026 C 
DOCKED: ATOM     15  C   UNL d   1     -11.514  -5.413  11.576 -0.08 -0.05    +0.055 C 
DOCKED: ATOM     16  C   UNL d   1     -12.566  -4.545  14.463 -0.01 -0.00    +0.026 C 
DOCKED: ATOM     17  C   UNL d   1      -9.235  -5.410  14.162 -0.13 -0.04    +0.109 A 
DOCKED: ATOM     18  C   UNL d   1      -9.849  -9.291   9.156 -0.25 -0.02    +0.050 C 
DOCKED: ATOM     19  C   UNL d   1      -9.124 -10.057  10.104 -0.22 -0.01    +0.045 A 
DOCKED: ATOM     20  C   UNL d   1      -7.330  -6.885  14.537 -0.19 -0.01    +0.045 A 
DOCKED: ATOM     21  C   UNL d   1      -7.999  -5.776  14.869 -0.20 -0.01    +0.057 C 
DOCKED: ATOM     22  C   UNL d   1      -5.708  -8.493  14.531 -0.30 +0.00    -0.019 A 
DOCKED: ATOM     23  C   UNL d   1      -6.732  -8.847  13.528 -0.26 -0.01    +0.045 A 
DOCKED: ATOM     24  C   UNL d   1      -6.068  -7.331  15.126 -0.23 +0.00    -0.022 A 
DOCKED: ATOM     25  C   UNL d   1      -7.675 -10.359  11.815 -0.22 -0.01    +0.049 A 
DOCKED: ATOM     26  C   UNL d   1      -8.960 -11.425  10.259 -0.31 +0.01    -0.018 A 
DOCKED: ATOM     27  C   UNL d   1      -8.060 -11.610  11.353 -0.29 -0.00    +0.003 A 
DOCKED: ATOM     28  C   UNL d   1      -6.700  -9.951  12.766 -0.28 -0.01    +0.052 C 
DOCKED: ATOM     29  C   UNL d   1      -5.367  -6.579  16.206 -0.24 -0.01    +0.046 C 
DOCKED: ATOM     30  C   UNL d   1      -9.602 -12.496   9.444 -0.23 -0.02    +0.046 C 
DOCKED: ATOM     31  H   UNL d   1      -8.532  -7.801  13.100 +0.06 -0.06    +0.166 HD
DOCKED: ATOM     32  H   UNL d   1      -8.293  -8.426  11.159 +0.07 -0.07    +0.166 HD
DOCKED: ENDROOT
DOCKED: BRANCH   7  33
DOCKED: ATOM     33  C   UNL d   1     -12.469  -8.178   7.812 -0.04 -0.04    +0.141 C 
DOCKED: BRANCH  33  34
DOCKED: ATOM     34  C   UNL d   1     -13.320  -7.383   6.859 +0.00 -0.09    +0.306 C 
DOCKED: ATOM     35  O   UNL d   1     -13.139  -7.265   5.659 -0.02 +0.08    -0.251 OA
DOCKED: BRANCH  34  36
DOCKED: ATOM     36  O   UNL d   1     -14.356  -6.779   7.468 +0.01 +0.12    -0.481 OA
DOCKED: ATOM     37  H   UNL d   1     -13.952  -6.030   7.956 +0.04 -0.09    +0.295 HD
DOCKED: ENDBRANCH  34  36
DOCKED: ENDBRANCH  33  34
DOCKED: ENDBRANCH   7  33
DOCKED: BRANCH  27  38
DOCKED: ATOM     38  C   UNL d   1      -7.606 -12.877  11.842 -0.29 -0.01    +0.017 C 
DOCKED: ATOM     39  C   UNL d   1      -6.334 -13.305  11.819 -0.24 -0.03    +0.092 C 
DOCKED: BRANCH  39  40
DOCKED: ATOM     40  C   UNL d   1      -5.997 -14.621  12.370 -0.19 -0.14    +0.330 C 
DOCKED: ATOM     41  O   UNL d   1      -6.210 -15.711  11.874 -0.24 +0.13    -0.246 OA
DOCKED: BRANCH  40  42
DOCKED: ATOM     42  O   UNL d   1      -5.379 -14.481  13.553 -0.03 +0.18    -0.477 OA
DOCKED: ATOM     43  H   UNL d   1      -4.927 -13.616  13.481 +0.12 -0.11    +0.295 HD
DOCKED: ENDBRANCH  40  42
DOCKED: ENDBRANCH  39  40
DOCKED: ENDBRANCH  27  38
DOCKED: BRANCH   8  44
DOCKED: ATOM     44  C   UNL d   1     -11.329  -2.714  13.235 -0.12 -0.05    +0.141 C 
DOCKED: BRANCH  44  45
DOCKED: ATOM     45  C   UNL d   1     -10.761  -1.711  14.204 -0.11 +0.07    +0.306 C 
DOCKED: ATOM     46  O   UNL d   1      -9.842  -0.938  13.994 -0.31 -0.16    -0.251 OA
DOCKED: BRANCH  45  47
DOCKED: ATOM     47  O   UNL d   1     -11.366  -1.755  15.404 -0.17 -0.12    -0.481 OA
DOCKED: ATOM     48  H   UNL d   1     -10.854  -2.416  15.917 +0.04 +0.11    +0.295 HD
DOCKED: ENDBRANCH  45  47
DOCKED: ENDBRANCH  44  45
DOCKED: ENDBRANCH   8  44
DOCKED: BRANCH  22  49
DOCKED: ATOM     49  C   UNL d   1      -4.477  -9.308  14.802 -0.21 -0.01    +0.048 C 
DOCKED: BRANCH  49  50
DOCKED: ATOM     50  C   UNL d   1      -4.768 -10.485  15.733 -0.22 -0.02    +0.125 C 
DOCKED: BRANCH  50  51
DOCKED: ATOM     51  C   UNL d   1      -4.467 -11.792  15.055 -0.18 -0.07    +0.305 C 
DOCKED: ATOM     52  O   UNL d   1      -3.592 -12.022  14.239 -0.80 +0.08    -0.251 OA
DOCKED: BRANCH  51  53
DOCKED: ATOM     53  O   UNL d   1      -5.316 -12.766  15.439 -0.00 +0.12    -0.481 OA
DOCKED: ATOM     54  H   UNL d   1      -4.799 -13.591  15.322 +0.10 -0.09    +0.295 HD
DOCKED: ENDBRANCH  51  53
DOCKED: ENDBRANCH  50  51
DOCKED: ENDBRANCH  49  50
DOCKED: ENDBRANCH  22  49
DOCKED: TORSDOF 13
DOCKED: TER
DOCKED: ENDMDL
________________________________________________________________________________


	BEGINNING GENETIC ALGORITHM DOCKING 45 of 100
Run: 45 Seed: 1233393359 1398392305 [ Run 45 of 100 GA/GALS ]
Beginning LAMARCKIAN GENETIC ALGORITHM (LGA), with a maximum of 25000000 energy evaluations.

Final-Value: -12.049


	FINAL GENETIC ALGORITHM DOCKED STATE
	_______________________________________________


Detailed state:  trans 13.025 -2.753 -7.686 quatxyzw 0.293294 0.515775 -0.330514 0.733972 center 0.153 0.018 -0.028 ntor 13 172.7718 158.5160 -81.2201 -23.4969 -148.5408 -89.6599 126.4275 11.7540 16.6640 -58.4666 4.9312 -76.6168 27.6358
State:	 13.025  -2.753  -7.686   0.432  0.759 -0.487 85.559    172.77  158.52  -81.22  -23.50 -148.54  -89.66  126.43   11.75   16.66  -58.47    4.93  -76.62   27.64

DOCKED: MODEL       45
DOCKED: USER    Run = 45
DOCKED: USER    DPF = D:/Protein_go_brrr/autodock/final/mut_N102T/heme/dock.dpf
DOCKED: USER  
DOCKED: USER    Estimated Free Energy of Binding    =   -5.63 kcal/mol  [=(1)+(2)+(3)-(4)]
DOCKED: USER    Estimated Inhibition Constant, Ki   =   74.68 uM (micromolar)  [Temperature = 298.15 K]
DOCKED: USER    
DOCKED: USER    (1) Final Intermolecular Energy     =   -9.51 kcal/mol
DOCKED: USER        vdW + Hbond + desolv Energy     =   -9.18 kcal/mol
DOCKED: USER        Electrostatic Energy            =   -0.33 kcal/mol
DOCKED: USER    (2) Final Total Internal Energy     =   -2.54 kcal/mol
DOCKED: USER    (3) Torsional Free Energy           =   +3.88 kcal/mol
DOCKED: USER    (4) Unbound System's Energy  [=(2)] =   -2.54 kcal/mol
DOCKED: USER    
DOCKED: USER    
DOCKED: USER    NEWDPF move heme_opt.pdbqt
DOCKED: USER    NEWDPF about 0.153000 0.018000 -0.028000
DOCKED: USER    NEWDPF tran0 13.024907 -2.752891 -7.686040
DOCKED: USER    NEWDPF quaternion0 0.293294 0.515775 -0.330514 0.733972
DOCKED: USER    NEWDPF axisangle0 0.431836 0.759408 -0.486638 85.559107
DOCKED: USER    NEWDPF quat0 0.431836 0.759408 -0.486638 85.559107
DOCKED: USER    NEWDPF dihe0 172.77 158.52 -81.22 -23.50 -148.54 -89.66 126.43 11.75 16.66 -58.47 4.93 -76.62 27.64 
DOCKED: USER  keepresnum = 1 
DOCKED: USER  
DOCKED: REMARK  13 active torsions:
DOCKED: REMARK  status: ('A' for Active; 'I' for Inactive)
DOCKED: REMARK    1  A    between atoms: O_3  and  C_38 
DOCKED: REMARK    2  A    between atoms: O_4  and  C_40 
DOCKED: REMARK    3  A    between atoms: O_7  and  C_46 
DOCKED: REMARK    4  A    between atoms: O_9  and  C_48 
DOCKED: REMARK    5  A    between atoms: C_15  and  C_20 
DOCKED: REMARK    6  A    between atoms: C_16  and  C_23 
DOCKED: REMARK    7  A    between atoms: C_20  and  C_38 
DOCKED: REMARK    8  A    between atoms: C_23  and  C_40 
DOCKED: REMARK    9  A    between atoms: C_32  and  C_41 
DOCKED: REMARK   10  A    between atoms: C_37  and  C_45 
DOCKED: REMARK   11  A    between atoms: C_41  and  C_44 
DOCKED: REMARK   12  A    between atoms: C_44  and  C_46 
DOCKED: REMARK   13  A    between atoms: C_47  and  C_48 
DOCKED: USER                              x       y       z     vdW  Elec       q    Type
DOCKED: USER                           _______ _______ _______ _____ _____    ______ ____
DOCKED: ROOT
DOCKED: ATOM      1  O   UNL d   1      10.700  -6.085 -11.958 -0.12 +0.02    -0.289 OA
DOCKED: ATOM      2  O   UNL d   1      14.749  -7.941  -5.911 -0.06 +0.19    -0.289 OA
DOCKED: ATOM      3  N   UNL d   1      11.980  -3.741  -9.775 -0.08 +0.03    -0.247 NA
DOCKED: ATOM      4  N   UNL d   1      13.135  -5.397  -7.595 -0.10 +0.09    -0.247 NA
DOCKED: ATOM      5  N   UNL d   1      13.320  -3.009  -6.005 -0.05 +0.07    -0.354 N 
DOCKED: ATOM      6  N   UNL d   1      12.103  -1.302  -8.264 -0.12 +0.03    -0.354 N 
DOCKED: ATOM      7  C   UNL d   1      10.486  -3.662 -11.717 -0.20 -0.01    +0.084 A 
DOCKED: ATOM      8  C   UNL d   1      13.842  -7.665  -8.168 -0.08 -0.03    +0.084 A 
DOCKED: ATOM      9  C   UNL d   1      13.162  -6.356  -8.583 -0.12 -0.02    +0.058 A 
DOCKED: ATOM     10  C   UNL d   1      11.215  -2.924 -10.590 -0.20 -0.01    +0.058 A 
DOCKED: ATOM     11  C   UNL d   1      10.989  -5.040 -11.405 -0.11 -0.02    +0.193 A 
DOCKED: ATOM     12  C   UNL d   1      11.905  -4.952 -10.224 -0.12 -0.01    +0.109 A 
DOCKED: ATOM     13  C   UNL d   1      14.163  -7.285  -6.750 -0.07 -0.11    +0.193 A 
DOCKED: ATOM     14  C   UNL d   1       8.967  -3.636 -11.532 -0.49 -0.00    +0.026 C 
DOCKED: ATOM     15  C   UNL d   1      12.598  -6.181  -9.788 -0.14 -0.01    +0.055 C 
DOCKED: ATOM     16  C   UNL d   1      15.154  -7.889  -8.926 -0.04 -0.00    +0.026 C 
DOCKED: ATOM     17  C   UNL d   1      13.676  -5.890  -6.527 -0.13 -0.07    +0.109 A 
DOCKED: ATOM     18  C   UNL d   1      11.170  -1.582 -10.484 -0.17 -0.01    +0.050 C 
DOCKED: ATOM     19  C   UNL d   1      11.877  -0.808  -9.530 -0.24 -0.01    +0.045 A 
DOCKED: ATOM     20  C   UNL d   1      13.614  -3.949  -5.052 -0.20 -0.02    +0.045 A 
DOCKED: ATOM     21  C   UNL d   1      13.815  -5.262  -5.205 -0.13 -0.05    +0.057 C 
DOCKED: ATOM     22  C   UNL d   1      13.415  -1.911  -4.040 -0.24 +0.00    -0.019 A 
DOCKED: ATOM     23  C   UNL d   1      13.181  -1.748  -5.489 -0.18 -0.00    +0.045 A 
DOCKED: ATOM     24  C   UNL d   1      13.673  -3.216  -3.788 -0.21 +0.01    -0.022 A 
DOCKED: ATOM     25  C   UNL d   1      12.722  -0.357  -7.480 -0.22 -0.00    +0.049 A 
DOCKED: ATOM     26  C   UNL d   1      12.396   0.476  -9.580 -0.29 +0.00    -0.018 A 
DOCKED: ATOM     27  C   UNL d   1      12.945   0.749  -8.289 -0.22 -0.00    +0.003 A 
DOCKED: ATOM     28  C   UNL d   1      12.917  -0.577  -6.090 -0.23 -0.00    +0.052 C 
DOCKED: ATOM     29  C   UNL d   1      13.982  -3.872  -2.485 -0.21 -0.02    +0.046 C 
DOCKED: ATOM     30  C   UNL d   1      12.385   1.395 -10.754 -0.24 -0.01    +0.046 C 
DOCKED: ATOM     31  H   UNL d   1      13.297  -3.248  -6.990 +0.05 -0.03    +0.166 HD
DOCKED: ATOM     32  H   UNL d   1      11.807  -2.222  -7.961 +0.08 -0.01    +0.166 HD
DOCKED: ENDROOT
DOCKED: BRANCH   7  33
DOCKED: ATOM     33  C   UNL d   1      10.887  -3.253 -13.138 -0.17 -0.01    +0.141 C 
DOCKED: BRANCH  33  34
DOCKED: ATOM     34  C   UNL d   1      12.322  -3.579 -13.452 -0.03 -0.02    +0.306 C 
DOCKED: ATOM     35  O   UNL d   1      13.273  -2.824 -13.340 -0.02 +0.01    -0.251 OA
DOCKED: BRANCH  34  36
DOCKED: ATOM     36  O   UNL d   1      12.483  -4.840 -13.889 +0.00 +0.02    -0.481 OA
DOCKED: ATOM     37  H   UNL d   1      11.615  -5.269 -13.733 +0.06 -0.01    +0.295 HD
DOCKED: ENDBRANCH  34  36
DOCKED: ENDBRANCH  33  34
DOCKED: ENDBRANCH   7  33
DOCKED: BRANCH  27  38
DOCKED: ATOM     38  C   UNL d   1      13.571   1.977  -7.901 -0.23 -0.00    +0.017 C 
DOCKED: ATOM     39  C   UNL d   1      13.423   2.579  -6.711 +0.02 -0.01    +0.092 C 
DOCKED: BRANCH  39  40
DOCKED: ATOM     40  C   UNL d   1      14.135   3.829  -6.432 -0.17 -0.04    +0.330 C 
DOCKED: ATOM     41  O   UNL d   1      15.229   3.963  -5.918 -0.12 +0.04    -0.246 OA
DOCKED: BRANCH  40  42
DOCKED: ATOM     42  O   UNL d   1      13.404   4.878  -6.840 -0.71 +0.04    -0.477 OA
DOCKED: ATOM     43  H   UNL d   1      12.794   4.495  -7.504 -0.45 -0.14    +0.295 HD
DOCKED: ENDBRANCH  40  42
DOCKED: ENDBRANCH  39  40
DOCKED: ENDBRANCH  27  38
DOCKED: BRANCH   8  44
DOCKED: ATOM     44  C   UNL d   1      12.955  -8.913  -8.215 -0.07 -0.04    +0.141 C 
DOCKED: BRANCH  44  45
DOCKED: ATOM     45  C   UNL d   1      12.582  -9.429  -6.850 -0.20 -0.15    +0.306 C 
DOCKED: ATOM     46  O   UNL d   1      11.681  -9.019  -6.140 -0.28 +0.20    -0.251 OA
DOCKED: BRANCH  45  47
DOCKED: ATOM     47  O   UNL d   1      13.389 -10.423  -6.438 -0.42 +0.14    -0.481 OA
DOCKED: ATOM     48  H   UNL d   1      14.045  -9.985  -5.855 +0.07 -0.13    +0.295 HD
DOCKED: ENDBRANCH  45  47
DOCKED: ENDBRANCH  44  45
DOCKED: ENDBRANCH   8  44
DOCKED: BRANCH  22  49
DOCKED: ATOM     49  C   UNL d   1      13.352  -0.790  -3.045 -0.28 -0.00    +0.048 C 
DOCKED: BRANCH  49  50
DOCKED: ATOM     50  C   UNL d   1      14.297   0.353  -3.415 -0.19 -0.01    +0.125 C 
DOCKED: BRANCH  50  51
DOCKED: ATOM     51  C   UNL d   1      14.322   1.399  -2.337 -0.19 -0.03    +0.305 C 
DOCKED: ATOM     52  O   UNL d   1      13.775   1.358  -1.249 -0.32 +0.01    -0.251 OA
DOCKED: BRANCH  51  53
DOCKED: ATOM     53  O   UNL d   1      15.045   2.478  -2.698 -0.14 +0.13    -0.481 OA
DOCKED: ATOM     54  H   UNL d   1      14.684   3.202  -2.144 -0.42 -0.33    +0.295 HD
DOCKED: ENDBRANCH  51  53
DOCKED: ENDBRANCH  50  51
DOCKED: ENDBRANCH  49  50
DOCKED: ENDBRANCH  22  49
DOCKED: TORSDOF 13
DOCKED: TER
DOCKED: ENDMDL
________________________________________________________________________________


	BEGINNING GENETIC ALGORITHM DOCKING 46 of 100
Run: 46 Seed: 1961103264 175973042 [ Run 46 of 100 GA/GALS ]
Beginning LAMARCKIAN GENETIC ALGORITHM (LGA), with a maximum of 25000000 energy evaluations.

Final-Value: -12.139


	FINAL GENETIC ALGORITHM DOCKED STATE
	_______________________________________________


Detailed state:  trans -7.573 5.068 16.895 quatxyzw -0.942397 0.095465 -0.258618 0.189450 center 0.153 0.018 -0.028 ntor 13 118.4224 -69.5383 -137.2821 -0.9712 -131.5570 -129.9207 124.5913 47.5371 27.3431 -20.1844 -54.9276 13.6857 22.5905
State:	 -7.573   5.068  16.895  -0.960  0.097 -0.263 158.159    118.42  -69.54 -137.28   -0.97 -131.56 -129.92  124.59   47.54   27.34  -20.18  -54.93   13.69   22.59

DOCKED: MODEL       46
DOCKED: USER    Run = 46
DOCKED: USER    DPF = D:/Protein_go_brrr/autodock/final/mut_N102T/heme/dock.dpf
DOCKED: USER  
DOCKED: USER    Estimated Free Energy of Binding    =   -4.25 kcal/mol  [=(1)+(2)+(3)-(4)]
DOCKED: USER    Estimated Inhibition Constant, Ki   =  765.54 uM (micromolar)  [Temperature = 298.15 K]
DOCKED: USER    
DOCKED: USER    (1) Final Intermolecular Energy     =   -8.13 kcal/mol
DOCKED: USER        vdW + Hbond + desolv Energy     =   -7.91 kcal/mol
DOCKED: USER        Electrostatic Energy            =   -0.22 kcal/mol
DOCKED: USER    (2) Final Total Internal Energy     =   -4.01 kcal/mol
DOCKED: USER    (3) Torsional Free Energy           =   +3.88 kcal/mol
DOCKED: USER    (4) Unbound System's Energy  [=(2)] =   -4.01 kcal/mol
DOCKED: USER    
DOCKED: USER    
DOCKED: USER    NEWDPF move heme_opt.pdbqt
DOCKED: USER    NEWDPF about 0.153000 0.018000 -0.028000
DOCKED: USER    NEWDPF tran0 -7.573029 5.067811 16.894943
DOCKED: USER    NEWDPF quaternion0 -0.942397 0.095465 -0.258618 0.189450
DOCKED: USER    NEWDPF axisangle0 -0.959778 0.097226 -0.263388 158.158676
DOCKED: USER    NEWDPF quat0 -0.959778 0.097226 -0.263388 158.158676
DOCKED: USER    NEWDPF dihe0 118.42 -69.54 -137.28 -0.97 -131.56 -129.92 124.59 47.54 27.34 -20.18 -54.93 13.69 22.59 
DOCKED: USER  keepresnum = 1 
DOCKED: USER  
DOCKED: REMARK  13 active torsions:
DOCKED: REMARK  status: ('A' for Active; 'I' for Inactive)
DOCKED: REMARK    1  A    between atoms: O_3  and  C_38 
DOCKED: REMARK    2  A    between atoms: O_4  and  C_40 
DOCKED: REMARK    3  A    between atoms: O_7  and  C_46 
DOCKED: REMARK    4  A    between atoms: O_9  and  C_48 
DOCKED: REMARK    5  A    between atoms: C_15  and  C_20 
DOCKED: REMARK    6  A    between atoms: C_16  and  C_23 
DOCKED: REMARK    7  A    between atoms: C_20  and  C_38 
DOCKED: REMARK    8  A    between atoms: C_23  and  C_40 
DOCKED: REMARK    9  A    between atoms: C_32  and  C_41 
DOCKED: REMARK   10  A    between atoms: C_37  and  C_45 
DOCKED: REMARK   11  A    between atoms: C_41  and  C_44 
DOCKED: REMARK   12  A    between atoms: C_44  and  C_46 
DOCKED: REMARK   13  A    between atoms: C_47  and  C_48 
DOCKED: USER                              x       y       z     vdW  Elec       q    Type
DOCKED: USER                           _______ _______ _______ _____ _____    ______ ____
DOCKED: ROOT
DOCKED: ATOM      1  O   UNL d   1     -12.508   3.727  13.962 -0.05 -0.01    -0.289 OA
DOCKED: ATOM      2  O   UNL d   1      -9.192  10.337  15.267 -0.06 +0.01    -0.289 OA
DOCKED: ATOM      3  N   UNL d   1      -9.656   4.041  15.876 -0.04 -0.05    -0.247 NA
DOCKED: ATOM      4  N   UNL d   1      -8.942   6.909  15.572 -0.15 -0.01    -0.247 NA
DOCKED: ATOM      5  N   UNL d   1      -6.372   6.293  16.706 -0.14 +0.01    -0.354 N 
DOCKED: ATOM      6  N   UNL d   1      -7.115   3.316  16.999 -0.17 -0.09    -0.354 N 
DOCKED: ATOM      7  C   UNL d   1     -10.967   2.154  15.023 -0.15 +0.02    +0.084 A 
DOCKED: ATOM      8  C   UNL d   1     -10.755   8.465  15.061 -0.07 +0.00    +0.084 A 
DOCKED: ATOM      9  C   UNL d   1     -10.279   7.023  15.263 -0.14 +0.00    +0.058 A 
DOCKED: ATOM     10  C   UNL d   1      -9.761   2.661  15.818 -0.18 +0.02    +0.058 A 
DOCKED: ATOM     11  C   UNL d   1     -11.536   3.491  14.656 -0.09 +0.02    +0.193 A 
DOCKED: ATOM     12  C   UNL d   1     -10.667   4.554  15.253 -0.08 +0.01    +0.109 A 
DOCKED: ATOM     13  C   UNL d   1      -9.433   9.146  15.276 -0.09 -0.00    +0.193 A 
DOCKED: ATOM     14  C   UNL d   1     -10.547   1.427  13.743 -0.31 +0.01    +0.026 C 
DOCKED: ATOM     15  C   UNL d   1     -11.085   5.962  15.101 -0.13 +0.00    +0.055 C 
DOCKED: ATOM     16  C   UNL d   1     -11.721   8.904  16.166 -0.03 -0.00    +0.026 C 
DOCKED: ATOM     17  C   UNL d   1      -8.416   8.092  15.570 -0.20 +0.00    +0.109 A 
DOCKED: ATOM     18  C   UNL d   1      -8.943   1.814  16.471 -0.20 +0.03    +0.050 C 
DOCKED: ATOM     19  C   UNL d   1      -7.855   2.195  17.298 -0.21 +0.02    +0.045 A 
DOCKED: ATOM     20  C   UNL d   1      -6.142   7.577  16.283 -0.26 -0.00    +0.045 A 
DOCKED: ATOM     21  C   UNL d   1      -7.009   8.463  15.783 -0.23 -0.00    +0.057 C 
DOCKED: ATOM     22  C   UNL d   1      -4.174   6.677  17.017 -0.36 +0.00    -0.019 A 
DOCKED: ATOM     23  C   UNL d   1      -5.243   5.669  17.166 -0.33 -0.00    +0.045 A 
DOCKED: ATOM     24  C   UNL d   1      -4.713   7.804  16.495 -0.31 +0.00    -0.022 A 
DOCKED: ATOM     25  C   UNL d   1      -6.061   3.446  17.874 -0.22 +0.01    +0.049 A 
DOCKED: ATOM     26  C   UNL d   1      -7.291   1.602  18.417 -0.14 -0.01    -0.018 A 
DOCKED: ATOM     27  C   UNL d   1      -6.170   2.407  18.788 -0.16 +0.00    +0.003 A 
DOCKED: ATOM     28  C   UNL d   1      -5.064   4.439  17.672 -0.31 -0.00    +0.052 C 
DOCKED: ATOM     29  C   UNL d   1      -4.042   9.096  16.174 -0.18 -0.02    +0.046 C 
DOCKED: ATOM     30  C   UNL d   1      -7.763   0.365  19.102 -0.11 +0.02    +0.046 C 
DOCKED: ATOM     31  H   UNL d   1      -7.311   5.910  16.735 +0.06 +0.01    +0.166 HD
DOCKED: ATOM     32  H   UNL d   1      -7.311   3.925  16.214 +0.04 +0.04    +0.166 HD
DOCKED: ENDROOT
DOCKED: BRANCH   7  33
DOCKED: ATOM     33  C   UNL d   1     -11.987   1.337  15.824 -0.05 +0.02    +0.141 C 
DOCKED: BRANCH  33  34
DOCKED: ATOM     34  C   UNL d   1     -12.841   2.195  16.719 +0.00 +0.01    +0.306 C 
DOCKED: ATOM     35  O   UNL d   1     -12.506   2.678  17.787 -0.00 -0.01    -0.251 OA
DOCKED: BRANCH  34  36
DOCKED: ATOM     36  O   UNL d   1     -14.072   2.400  16.218 +0.01 -0.00    -0.481 OA
DOCKED: ATOM     37  H   UNL d   1     -13.921   2.908  15.393 +0.02 +0.00    +0.295 HD
DOCKED: ENDBRANCH  34  36
DOCKED: ENDBRANCH  33  34
DOCKED: ENDBRANCH   7  33
DOCKED: BRANCH  27  38
DOCKED: ATOM     38  C   UNL d   1      -5.292   2.142  19.887 -0.15 -0.00    +0.017 C 
DOCKED: ATOM     39  C   UNL d   1      -4.944   3.030  20.832 -0.08 -0.02    +0.092 C 
DOCKED: BRANCH  39  40
DOCKED: ATOM     40  C   UNL d   1      -4.048   2.627  21.918 -0.04 -0.15    +0.330 C 
DOCKED: ATOM     41  O   UNL d   1      -4.192   2.818  23.111 -0.02 +0.08    -0.246 OA
DOCKED: BRANCH  40  42
DOCKED: ATOM     42  O   UNL d   1      -2.986   1.973  21.422 +0.00 +0.51    -0.477 OA
DOCKED: ATOM     43  H   UNL d   1      -2.241   2.592  21.566 -0.41 -0.51    +0.295 HD
DOCKED: ENDBRANCH  40  42
DOCKED: ENDBRANCH  39  40
DOCKED: ENDBRANCH  27  38
DOCKED: BRANCH   8  44
DOCKED: ATOM     44  C   UNL d   1     -11.319   8.786  13.673 -0.08 -0.00    +0.141 C 
DOCKED: BRANCH  44  45
DOCKED: ATOM     45  C   UNL d   1     -10.269   8.797  12.594 -0.15 +0.01    +0.306 C 
DOCKED: ATOM     46  O   UNL d   1      -9.800   7.826  12.026 -0.36 -0.03    -0.251 OA
DOCKED: BRANCH  45  47
DOCKED: ATOM     47  O   UNL d   1      -9.843  10.039  12.303 -0.07 -0.01    -0.481 OA
DOCKED: ATOM     48  H   UNL d   1      -9.752  10.480  13.175 +0.06 +0.00    +0.295 HD
DOCKED: ENDBRANCH  45  47
DOCKED: ENDBRANCH  44  45
DOCKED: ENDBRANCH   8  44
DOCKED: BRANCH  22  49
DOCKED: ATOM     49  C   UNL d   1      -2.738   6.441  17.381 -0.34 -0.01    +0.048 C 
DOCKED: BRANCH  49  50
DOCKED: ATOM     50  C   UNL d   1      -2.573   6.117  18.865 -0.20 -0.03    +0.125 C 
DOCKED: BRANCH  50  51
DOCKED: ATOM     51  C   UNL d   1      -1.825   4.827  19.053 -0.20 -0.13    +0.305 C 
DOCKED: ATOM     52  O   UNL d   1      -0.851   4.437  18.435 -0.32 +0.12    -0.251 OA
DOCKED: BRANCH  51  53
DOCKED: ATOM     53  O   UNL d   1      -2.365   4.069  20.028 -0.11 +0.34    -0.481 OA
DOCKED: ATOM     54  H   UNL d   1      -1.811   3.260  20.035 -0.41 -0.45    +0.295 HD
DOCKED: ENDBRANCH  51  53
DOCKED: ENDBRANCH  50  51
DOCKED: ENDBRANCH  49  50
DOCKED: ENDBRANCH  22  49
DOCKED: TORSDOF 13
DOCKED: TER
DOCKED: ENDMDL
________________________________________________________________________________


	BEGINNING GENETIC ALGORITHM DOCKING 47 of 100
Run: 47 Seed: 1156514277 40963203 [ Run 47 of 100 GA/GALS ]
Beginning LAMARCKIAN GENETIC ALGORITHM (LGA), with a maximum of 25000000 energy evaluations.

Final-Value: -11.128


	FINAL GENETIC ALGORITHM DOCKED STATE
	_______________________________________________


Detailed state:  trans -4.694 13.287 -10.817 quatxyzw -0.102386 0.700861 -0.458847 -0.536443 center 0.153 0.018 -0.028 ntor 13 87.9131 -96.6056 -110.3244 -62.2040 -177.8446 66.8708 119.5738 45.4996 102.1013 -37.7306 -33.8795 -128.9927 26.5944
State:	 -4.694  13.287 -10.817  -0.121  0.830 -0.544 -115.116     87.91  -96.61 -110.32  -62.20 -177.84   66.87  119.57   45.50  102.10  -37.73  -33.88 -128.99   26.59

DOCKED: MODEL       47
DOCKED: USER    Run = 47
DOCKED: USER    DPF = D:/Protein_go_brrr/autodock/final/mut_N102T/heme/dock.dpf
DOCKED: USER  
DOCKED: USER    Estimated Free Energy of Binding    =   -3.52 kcal/mol  [=(1)+(2)+(3)-(4)]
DOCKED: USER    Estimated Inhibition Constant, Ki   =    2.64 mM (millimolar)  [Temperature = 298.15 K]
DOCKED: USER    
DOCKED: USER    (1) Final Intermolecular Energy     =   -7.40 kcal/mol
DOCKED: USER        vdW + Hbond + desolv Energy     =   -7.25 kcal/mol
DOCKED: USER        Electrostatic Energy            =   -0.15 kcal/mol
DOCKED: USER    (2) Final Total Internal Energy     =   -3.73 kcal/mol
DOCKED: USER    (3) Torsional Free Energy           =   +3.88 kcal/mol
DOCKED: USER    (4) Unbound System's Energy  [=(2)] =   -3.73 kcal/mol
DOCKED: USER    
DOCKED: USER    
DOCKED: USER    NEWDPF move heme_opt.pdbqt
DOCKED: USER    NEWDPF about 0.153000 0.018000 -0.028000
DOCKED: USER    NEWDPF tran0 -4.693614 13.286624 -10.816515
DOCKED: USER    NEWDPF quaternion0 -0.102386 0.700861 -0.458847 -0.536443
DOCKED: USER    NEWDPF axisangle0 -0.121319 0.830466 -0.543699 -115.116391
DOCKED: USER    NEWDPF quat0 -0.121319 0.830466 -0.543699 -115.116391
DOCKED: USER    NEWDPF dihe0 87.91 -96.61 -110.32 -62.20 -177.84 66.87 119.57 45.50 102.10 -37.73 -33.88 -128.99 26.59 
DOCKED: USER  keepresnum = 1 
DOCKED: USER  
DOCKED: REMARK  13 active torsions:
DOCKED: REMARK  status: ('A' for Active; 'I' for Inactive)
DOCKED: REMARK    1  A    between atoms: O_3  and  C_38 
DOCKED: REMARK    2  A    between atoms: O_4  and  C_40 
DOCKED: REMARK    3  A    between atoms: O_7  and  C_46 
DOCKED: REMARK    4  A    between atoms: O_9  and  C_48 
DOCKED: REMARK    5  A    between atoms: C_15  and  C_20 
DOCKED: REMARK    6  A    between atoms: C_16  and  C_23 
DOCKED: REMARK    7  A    between atoms: C_20  and  C_38 
DOCKED: REMARK    8  A    between atoms: C_23  and  C_40 
DOCKED: REMARK    9  A    between atoms: C_32  and  C_41 
DOCKED: REMARK   10  A    between atoms: C_37  and  C_45 
DOCKED: REMARK   11  A    between atoms: C_41  and  C_44 
DOCKED: REMARK   12  A    between atoms: C_44  and  C_46 
DOCKED: REMARK   13  A    between atoms: C_47  and  C_48 
DOCKED: USER                              x       y       z     vdW  Elec       q    Type
DOCKED: USER                           _______ _______ _______ _____ _____    ______ ____
DOCKED: ROOT
DOCKED: ATOM      1  O   UNL d   1      -1.292  17.451  -8.399 -0.13 +0.01    -0.289 OA
DOCKED: ATOM      2  O   UNL d   1      -6.647  13.114  -5.414 -0.02 -0.01    -0.289 OA
DOCKED: ATOM      3  N   UNL d   1      -3.138  15.212 -10.263 -0.12 +0.01    -0.247 NA
DOCKED: ATOM      4  N   UNL d   1      -4.745  13.779  -8.215 -0.09 +0.00    -0.247 NA
DOCKED: ATOM      5  N   UNL d   1      -5.386  11.822 -10.221 -0.06 +0.02    -0.354 N 
DOCKED: ATOM      6  N   UNL d   1      -3.700  13.304 -12.334 -0.13 +0.03    -0.354 N 
DOCKED: ATOM      7  C   UNL d   1      -1.216  16.665 -10.712 -0.15 -0.01    +0.084 A 
DOCKED: ATOM      8  C   UNL d   1      -5.222  14.969  -6.135 -0.05 +0.00    +0.084 A 
DOCKED: ATOM      9  C   UNL d   1      -4.500  14.921  -7.485 -0.13 +0.00    +0.058 A 
DOCKED: ATOM     10  C   UNL d   1      -2.221  15.625 -11.215 -0.19 -0.00    +0.058 A 
DOCKED: ATOM     11  C   UNL d   1      -1.739  16.781  -9.312 -0.13 -0.01    +0.193 A 
DOCKED: ATOM     12  C   UNL d   1      -2.920  15.871  -9.172 -0.16 +0.00    +0.109 A 
DOCKED: ATOM     13  C   UNL d   1      -5.892  13.627  -6.217 -0.03 +0.01    +0.193 A 
DOCKED: ATOM     14  C   UNL d   1       0.210  16.109 -10.663 -0.14 -0.01    +0.026 C 
DOCKED: ATOM     15  C   UNL d   1      -3.662  15.885  -7.895 -0.15 +0.00    +0.055 C 
DOCKED: ATOM     16  C   UNL d   1      -6.300  16.057  -6.106 -0.01 +0.00    +0.026 C 
DOCKED: ATOM     17  C   UNL d   1      -5.517  13.005  -7.522 -0.10 -0.00    +0.109 A 
DOCKED: ATOM     18  C   UNL d   1      -2.242  15.233 -12.503 -0.13 +0.00    +0.050 C 
DOCKED: ATOM     19  C   UNL d   1      -3.186  14.343 -13.076 -0.10 +0.00    +0.045 A 
DOCKED: ATOM     20  C   UNL d   1      -5.877  11.189  -9.109 -0.13 -0.00    +0.045 A 
DOCKED: ATOM     21  C   UNL d   1      -5.996  11.657  -7.862 -0.18 -0.00    +0.057 C 
DOCKED: ATOM     22  C   UNL d   1      -5.994   9.757 -10.885 -0.14 +0.00    -0.019 A 
DOCKED: ATOM     23  C   UNL d   1      -5.415  11.036 -11.343 -0.18 -0.00    +0.045 A 
DOCKED: ATOM     24  C   UNL d   1      -6.266   9.854  -9.563 -0.12 +0.00    -0.022 A 
DOCKED: ATOM     25  C   UNL d   1      -4.521  12.517 -13.109 -0.23 -0.01    +0.049 A 
DOCKED: ATOM     26  C   UNL d   1      -3.714  14.250 -14.355 -0.18 -0.00    -0.018 A 
DOCKED: ATOM     27  C   UNL d   1      -4.571  13.107 -14.364 -0.23 -0.00    +0.003 A 
DOCKED: ATOM     28  C   UNL d   1      -5.046  11.295 -12.607 -0.31 -0.01    +0.052 C 
DOCKED: ATOM     29  C   UNL d   1      -6.867   8.834  -8.657 -0.30 -0.00    +0.046 C 
DOCKED: ATOM     30  C   UNL d   1      -3.441  15.167 -15.499 -0.23 +0.01    +0.046 C 
DOCKED: ATOM     31  H   UNL d   1      -5.114  12.798 -10.194 +0.05 -0.01    +0.166 HD
DOCKED: ATOM     32  H   UNL d   1      -3.462  13.136 -11.364 +0.02 -0.03    +0.166 HD
DOCKED: ENDROOT
DOCKED: BRANCH   7  33
DOCKED: ATOM     33  C   UNL d   1      -1.266  18.023 -11.419 -0.04 -0.00    +0.141 C 
DOCKED: BRANCH  33  34
DOCKED: ATOM     34  C   UNL d   1      -0.863  19.160 -10.520 -0.01 -0.01    +0.306 C 
DOCKED: ATOM     35  O   UNL d   1      -1.530  20.148 -10.264 -0.00 +0.00    -0.251 OA
DOCKED: BRANCH  34  36
DOCKED: ATOM     36  O   UNL d   1       0.360  18.990  -9.986 -0.00 +0.04    -0.481 OA
DOCKED: ATOM     37  H   UNL d   1       0.193  18.577  -9.112 +0.05 -0.03    +0.295 HD
DOCKED: ENDBRANCH  34  36
DOCKED: ENDBRANCH  33  34
DOCKED: ENDBRANCH   7  33
DOCKED: BRANCH  27  38
DOCKED: ATOM     38  C   UNL d   1      -5.309  12.638 -15.498 -0.24 -0.00    +0.017 C 
DOCKED: ATOM     39  C   UNL d   1      -4.846  11.785 -16.425 -0.35 -0.01    +0.092 C 
DOCKED: BRANCH  39  40
DOCKED: ATOM     40  C   UNL d   1      -5.711  11.369 -17.531 -0.17 +0.01    +0.330 C 
DOCKED: ATOM     41  O   UNL d   1      -6.167  12.062 -18.420 -0.08 -0.02    -0.246 OA
DOCKED: BRANCH  40  42
DOCKED: ATOM     42  O   UNL d   1      -5.954  10.051 -17.456 -0.16 -0.02    -0.477 OA
DOCKED: ATOM     43  H   UNL d   1      -6.696   9.985 -16.821 +0.12 +0.01    +0.295 HD
DOCKED: ENDBRANCH  40  42
DOCKED: ENDBRANCH  39  40
DOCKED: ENDBRANCH  27  38
DOCKED: BRANCH   8  44
DOCKED: ATOM     44  C   UNL d   1      -4.314  15.055  -4.903 -0.11 +0.02    +0.141 C 
DOCKED: BRANCH  44  45
DOCKED: ATOM     45  C   UNL d   1      -3.875  13.708  -4.394 -0.15 +0.07    +0.306 C 
DOCKED: ATOM     46  O   UNL d   1      -3.029  12.984  -4.891 -0.28 -0.04    -0.251 OA
DOCKED: BRANCH  45  47
DOCKED: ATOM     47  O   UNL d   1      -4.548  13.329  -3.293 -0.03 -0.16    -0.481 OA
DOCKED: ATOM     48  H   UNL d   1      -5.462  13.160  -3.607 +0.08 +0.06    +0.295 HD
DOCKED: ENDBRANCH  45  47
DOCKED: ENDBRANCH  44  45
DOCKED: ENDBRANCH   8  44
DOCKED: BRANCH  22  49
DOCKED: ATOM     49  C   UNL d   1      -6.210   8.566 -11.771 -0.22 -0.02    +0.048 C 
DOCKED: BRANCH  49  50
DOCKED: ATOM     50  C   UNL d   1      -7.089   8.905 -12.975 -0.24 -0.04    +0.125 C 
DOCKED: BRANCH  50  51
DOCKED: ATOM     51  C   UNL d   1      -6.687   8.099 -14.177 -0.29 -0.10    +0.305 C 
DOCKED: ATOM     52  O   UNL d   1      -6.343   6.930 -14.208 -0.50 +0.10    -0.251 OA
DOCKED: BRANCH  51  53
DOCKED: ATOM     53  O   UNL d   1      -6.726   8.829 -15.310 -0.16 +0.07    -0.481 OA
DOCKED: ATOM     54  H   UNL d   1      -5.797   8.836 -15.621 -0.28 -0.09    +0.295 HD
DOCKED: ENDBRANCH  51  53
DOCKED: ENDBRANCH  50  51
DOCKED: ENDBRANCH  49  50
DOCKED: ENDBRANCH  22  49
DOCKED: TORSDOF 13
DOCKED: TER
DOCKED: ENDMDL
________________________________________________________________________________


	BEGINNING GENETIC ALGORITHM DOCKING 48 of 100
Run: 48 Seed: 595212227 970948221 [ Run 48 of 100 GA/GALS ]
Beginning LAMARCKIAN GENETIC ALGORITHM (LGA), with a maximum of 25000000 energy evaluations.

Final-Value: -13.590


	FINAL GENETIC ALGORITHM DOCKED STATE
	_______________________________________________


Detailed state:  trans 5.985 14.500 -11.849 quatxyzw -0.259889 -0.658272 0.651572 -0.273110 center 0.153 0.018 -0.028 ntor 13 152.0615 172.9334 174.5010 49.2673 -137.9012 -76.7491 146.8783 44.4835 150.7004 -10.4140 -88.0934 17.9066 -1.8285
State:	  5.985  14.500 -11.849  -0.270 -0.684  0.677 -148.301    152.06  172.93  174.50   49.27 -137.90  -76.75  146.88   44.48  150.70  -10.41  -88.09   17.91   -1.83

DOCKED: MODEL       48
DOCKED: USER    Run = 48
DOCKED: USER    DPF = D:/Protein_go_brrr/autodock/final/mut_N102T/heme/dock.dpf
DOCKED: USER  
DOCKED: USER    Estimated Free Energy of Binding    =   -5.75 kcal/mol  [=(1)+(2)+(3)-(4)]
DOCKED: USER    Estimated Inhibition Constant, Ki   =   60.60 uM (micromolar)  [Temperature = 298.15 K]
DOCKED: USER    
DOCKED: USER    (1) Final Intermolecular Energy     =   -9.63 kcal/mol
DOCKED: USER        vdW + Hbond + desolv Energy     =   -8.69 kcal/mol
DOCKED: USER        Electrostatic Energy            =   -0.94 kcal/mol
DOCKED: USER    (2) Final Total Internal Energy     =   -3.96 kcal/mol
DOCKED: USER    (3) Torsional Free Energy           =   +3.88 kcal/mol
DOCKED: USER    (4) Unbound System's Energy  [=(2)] =   -3.96 kcal/mol
DOCKED: USER    
DOCKED: USER    
DOCKED: USER    NEWDPF move heme_opt.pdbqt
DOCKED: USER    NEWDPF about 0.153000 0.018000 -0.028000
DOCKED: USER    NEWDPF tran0 5.985340 14.499603 -11.848551
DOCKED: USER    NEWDPF quaternion0 -0.259889 -0.658272 0.651572 -0.273110
DOCKED: USER    NEWDPF axisangle0 -0.270160 -0.684287 0.677322 -148.301230
DOCKED: USER    NEWDPF quat0 -0.270160 -0.684287 0.677322 -148.301230
DOCKED: USER    NEWDPF dihe0 152.06 172.93 174.50 49.27 -137.90 -76.75 146.88 44.48 150.70 -10.41 -88.09 17.91 -1.83 
DOCKED: USER  keepresnum = 1 
DOCKED: USER  
DOCKED: REMARK  13 active torsions:
DOCKED: REMARK  status: ('A' for Active; 'I' for Inactive)
DOCKED: REMARK    1  A    between atoms: O_3  and  C_38 
DOCKED: REMARK    2  A    between atoms: O_4  and  C_40 
DOCKED: REMARK    3  A    between atoms: O_7  and  C_46 
DOCKED: REMARK    4  A    between atoms: O_9  and  C_48 
DOCKED: REMARK    5  A    between atoms: C_15  and  C_20 
DOCKED: REMARK    6  A    between atoms: C_16  and  C_23 
DOCKED: REMARK    7  A    between atoms: C_20  and  C_38 
DOCKED: REMARK    8  A    between atoms: C_23  and  C_40 
DOCKED: REMARK    9  A    between atoms: C_32  and  C_41 
DOCKED: REMARK   10  A    between atoms: C_37  and  C_45 
DOCKED: REMARK   11  A    between atoms: C_41  and  C_44 
DOCKED: REMARK   12  A    between atoms: C_44  and  C_46 
DOCKED: REMARK   13  A    between atoms: C_47  and  C_48 
DOCKED: USER                              x       y       z     vdW  Elec       q    Type
DOCKED: USER                           _______ _______ _______ _____ _____    ______ ____
DOCKED: ROOT
DOCKED: ATOM      1  O   UNL d   1       9.526  10.146 -13.656 -0.20 +0.05    -0.289 OA
DOCKED: ATOM      2  O   UNL d   1       9.056  13.699  -7.056 -0.10 +0.49    -0.289 OA
DOCKED: ATOM      3  N   UNL d   1       7.355  12.766 -13.095 -0.10 +0.09    -0.247 NA
DOCKED: ATOM      4  N   UNL d   1       7.663  13.299 -10.188 -0.13 +0.09    -0.247 NA
DOCKED: ATOM      5  N   UNL d   1       5.284  14.909 -10.325 -0.06 +0.16    -0.354 N 
DOCKED: ATOM      6  N   UNL d   1       4.961  14.335 -13.336 -0.07 +0.16    -0.354 N 
DOCKED: ATOM      7  C   UNL d   1       7.739  11.204 -14.944 -0.23 -0.04    +0.084 A 
DOCKED: ATOM      8  C   UNL d   1       9.791  12.681  -9.158 -0.12 -0.04    +0.084 A 
DOCKED: ATOM      9  C   UNL d   1       8.877  12.680 -10.388 -0.12 -0.02    +0.058 A 
DOCKED: ATOM     10  C   UNL d   1       6.951  12.382 -14.363 -0.21 -0.03    +0.058 A 
DOCKED: ATOM     11  C   UNL d   1       8.671  11.003 -13.788 -0.16 -0.05    +0.193 A 
DOCKED: ATOM     12  C   UNL d   1       8.355  12.027 -12.742 -0.14 -0.03    +0.109 A 
DOCKED: ATOM     13  C   UNL d   1       8.856  13.382  -8.213 -0.13 -0.16    +0.193 A 
DOCKED: ATOM     14  C   UNL d   1       6.870   9.954 -15.103 -0.01 -0.02    +0.026 C 
DOCKED: ATOM     15  C   UNL d   1       9.212  12.082 -11.541 -0.13 -0.01    +0.055 C 
DOCKED: ATOM     16  C   UNL d   1      11.027  13.560  -9.370 -0.06 -0.01    +0.026 C 
DOCKED: ATOM     17  C   UNL d   1       7.600  13.696  -8.958 -0.17 -0.05    +0.109 A 
DOCKED: ATOM     18  C   UNL d   1       6.014  13.025 -15.084 -0.24 -0.03    +0.050 C 
DOCKED: ATOM     19  C   UNL d   1       5.296  14.173 -14.662 -0.17 -0.02    +0.045 A 
DOCKED: ATOM     20  C   UNL d   1       5.454  14.854  -8.966 -0.27 -0.02    +0.045 A 
DOCKED: ATOM     21  C   UNL d   1       6.477  14.349  -8.269 -0.21 -0.03    +0.057 C 
DOCKED: ATOM     22  C   UNL d   1       3.457  15.866  -9.421 -0.26 +0.01    -0.019 A 
DOCKED: ATOM     23  C   UNL d   1       4.107  15.502 -10.696 -0.15 -0.02    +0.045 A 
DOCKED: ATOM     24  C   UNL d   1       4.260  15.481  -8.401 -0.34 +0.01    -0.022 A 
DOCKED: ATOM     25  C   UNL d   1       4.193  15.463 -13.166 -0.15 -0.01    +0.049 A 
DOCKED: ATOM     26  C   UNL d   1       4.764  15.243 -15.365 -0.09 +0.00    -0.018 A 
DOCKED: ATOM     27  C   UNL d   1       4.085  16.065 -14.412 -0.09 -0.00    +0.003 A 
DOCKED: ATOM     28  C   UNL d   1       3.595  15.755 -11.910 -0.22 -0.02    +0.052 C 
DOCKED: ATOM     29  C   UNL d   1       4.046  15.640  -6.934 -0.31 -0.02    +0.046 C 
DOCKED: ATOM     30  C   UNL d   1       4.878  15.491 -16.831 -0.07 -0.01    +0.046 C 
DOCKED: ATOM     31  H   UNL d   1       6.015  14.604 -10.959 -0.08 -0.07    +0.166 HD
DOCKED: ATOM     32  H   UNL d   1       5.219  13.678 -12.609 -0.46 -0.12    +0.166 HD
DOCKED: ENDROOT
DOCKED: BRANCH   7  33
DOCKED: ATOM     33  C   UNL d   1       8.526  11.508 -16.224 -0.16 -0.05    +0.141 C 
DOCKED: BRANCH  33  34
DOCKED: ATOM     34  C   UNL d   1       8.905  10.264 -16.980 -0.13 +0.02    +0.306 C 
DOCKED: ATOM     35  O   UNL d   1       9.875   9.557 -16.764 -0.15 -0.07    -0.251 OA
DOCKED: BRANCH  34  36
DOCKED: ATOM     36  O   UNL d   1       8.040   9.974 -17.968 -0.40 -0.23    -0.481 OA
DOCKED: ATOM     37  H   UNL d   1       7.178  10.315 -17.648 -0.46 -0.44    +0.295 HD
DOCKED: ENDBRANCH  34  36
DOCKED: ENDBRANCH  33  34
DOCKED: ENDBRANCH   7  33
DOCKED: BRANCH  27  38
DOCKED: ATOM     38  C   UNL d   1       3.378  17.272 -14.718 -0.05 -0.00    +0.017 C 
DOCKED: ATOM     39  C   UNL d   1       3.596  18.464 -14.143 -0.01 -0.00    +0.092 C 
DOCKED: BRANCH  39  40
DOCKED: ATOM     40  C   UNL d   1       2.813  19.630 -14.560 +0.00 +0.01    +0.330 C 
DOCKED: ATOM     41  O   UNL d   1       2.970  20.315 -15.553 -0.00 -0.02    -0.246 OA
DOCKED: BRANCH  40  42
DOCKED: ATOM     42  O   UNL d   1       1.835  19.870 -13.674 +0.01 -0.01    -0.477 OA
DOCKED: ATOM     43  H   UNL d   1       1.876  19.104 -13.066 +0.02 -0.00    +0.295 HD
DOCKED: ENDBRANCH  40  42
DOCKED: ENDBRANCH  39  40
DOCKED: ENDBRANCH  27  38
DOCKED: BRANCH   8  44
DOCKED: ATOM     44  C   UNL d   1      10.178  11.299  -8.622 -0.25 -0.08    +0.141 C 
DOCKED: BRANCH  44  45
DOCKED: ATOM     45  C   UNL d   1       8.994  10.473  -8.198 -0.31 -0.14    +0.306 C 
DOCKED: ATOM     46  O   UNL d   1       8.489   9.553  -8.818 -0.87 +0.05    -0.251 OA
DOCKED: BRANCH  45  47
DOCKED: ATOM     47  O   UNL d   1       8.485  10.870  -7.017 -0.34 +0.45    -0.481 OA
DOCKED: ATOM     48  H   UNL d   1       9.112  11.552  -6.695 -0.01 -0.60    +0.295 HD
DOCKED: ENDBRANCH  45  47
DOCKED: ENDBRANCH  44  45
DOCKED: ENDBRANCH   8  44
DOCKED: BRANCH  22  49
DOCKED: ATOM     49  C   UNL d   1       2.118  16.536  -9.319 -0.21 -0.02    +0.048 C 
DOCKED: BRANCH  49  50
DOCKED: ATOM     50  C   UNL d   1       2.232  18.056  -9.435 -0.11 -0.02    +0.125 C 
DOCKED: BRANCH  50  51
DOCKED: ATOM     51  C   UNL d   1       2.052  18.499 -10.859 -0.01 -0.03    +0.305 C 
DOCKED: ATOM     52  O   UNL d   1       1.279  18.048 -11.686 -0.03 +0.02    -0.251 OA
DOCKED: BRANCH  51  53
DOCKED: ATOM     53  O   UNL d   1       2.886  19.508 -11.183 +0.01 +0.04    -0.481 OA
DOCKED: ATOM     54  H   UNL d   1       2.304  20.171 -11.609 +0.01 -0.01    +0.295 HD
DOCKED: ENDBRANCH  51  53
DOCKED: ENDBRANCH  50  51
DOCKED: ENDBRANCH  49  50
DOCKED: ENDBRANCH  22  49
DOCKED: TORSDOF 13
DOCKED: TER
DOCKED: ENDMDL
________________________________________________________________________________


	BEGINNING GENETIC ALGORITHM DOCKING 49 of 100
Run: 49 Seed: 1690425884 1793264123 [ Run 49 of 100 GA/GALS ]
Beginning LAMARCKIAN GENETIC ALGORITHM (LGA), with a maximum of 25000000 energy evaluations.

Final-Value: -11.967


	FINAL GENETIC ALGORITHM DOCKED STATE
	_______________________________________________


Detailed state:  trans -5.009 4.705 18.675 quatxyzw 0.107573 0.926336 -0.239392 -0.270223 center 0.153 0.018 -0.028 ntor 13 -163.8919 153.8014 -162.6987 29.2761 50.9925 -21.0911 -63.0872 52.0727 163.4823 -50.3598 -95.6081 6.5822 -11.3070
State:	 -5.009   4.705  18.675   0.112  0.962 -0.249 -148.645   -163.89  153.80 -162.70   29.28   50.99  -21.09  -63.09   52.07  163.48  -50.36  -95.61    6.58  -11.31

DOCKED: MODEL       49
DOCKED: USER    Run = 49
DOCKED: USER    DPF = D:/Protein_go_brrr/autodock/final/mut_N102T/heme/dock.dpf
DOCKED: USER  
DOCKED: USER    Estimated Free Energy of Binding    =   -4.30 kcal/mol  [=(1)+(2)+(3)-(4)]
DOCKED: USER    Estimated Inhibition Constant, Ki   =  699.14 uM (micromolar)  [Temperature = 298.15 K]
DOCKED: USER    
DOCKED: USER    (1) Final Intermolecular Energy     =   -8.18 kcal/mol
DOCKED: USER        vdW + Hbond + desolv Energy     =   -7.69 kcal/mol
DOCKED: USER        Electrostatic Energy            =   -0.49 kcal/mol
DOCKED: USER    (2) Final Total Internal Energy     =   -3.78 kcal/mol
DOCKED: USER    (3) Torsional Free Energy           =   +3.88 kcal/mol
DOCKED: USER    (4) Unbound System's Energy  [=(2)] =   -3.78 kcal/mol
DOCKED: USER    
DOCKED: USER    
DOCKED: USER    NEWDPF move heme_opt.pdbqt
DOCKED: USER    NEWDPF about 0.153000 0.018000 -0.028000
DOCKED: USER    NEWDPF tran0 -5.008747 4.704725 18.674871
DOCKED: USER    NEWDPF quaternion0 0.107573 0.926336 -0.239392 -0.270223
DOCKED: USER    NEWDPF axisangle0 0.111730 0.962130 -0.248642 -148.644943
DOCKED: USER    NEWDPF quat0 0.111730 0.962130 -0.248642 -148.644943
DOCKED: USER    NEWDPF dihe0 -163.89 153.80 -162.70 29.28 50.99 -21.09 -63.09 52.07 163.48 -50.36 -95.61 6.58 -11.31 
DOCKED: USER  keepresnum = 1 
DOCKED: USER  
DOCKED: REMARK  13 active torsions:
DOCKED: REMARK  status: ('A' for Active; 'I' for Inactive)
DOCKED: REMARK    1  A    between atoms: O_3  and  C_38 
DOCKED: REMARK    2  A    between atoms: O_4  and  C_40 
DOCKED: REMARK    3  A    between atoms: O_7  and  C_46 
DOCKED: REMARK    4  A    between atoms: O_9  and  C_48 
DOCKED: REMARK    5  A    between atoms: C_15  and  C_20 
DOCKED: REMARK    6  A    between atoms: C_16  and  C_23 
DOCKED: REMARK    7  A    between atoms: C_20  and  C_38 
DOCKED: REMARK    8  A    between atoms: C_23  and  C_40 
DOCKED: REMARK    9  A    between atoms: C_32  and  C_41 
DOCKED: REMARK   10  A    between atoms: C_37  and  C_45 
DOCKED: REMARK   11  A    between atoms: C_41  and  C_44 
DOCKED: REMARK   12  A    between atoms: C_44  and  C_46 
DOCKED: REMARK   13  A    between atoms: C_47  and  C_48 
DOCKED: USER                              x       y       z     vdW  Elec       q    Type
DOCKED: USER                           _______ _______ _______ _____ _____    ______ ____
DOCKED: ROOT
DOCKED: ATOM      1  O   UNL d   1       0.499   5.444  20.643 -0.13 +0.15    -0.289 OA
DOCKED: ATOM      2  O   UNL d   1      -5.103   1.133  23.177 -0.01 +0.06    -0.289 OA
DOCKED: ATOM      3  N   UNL d   1      -2.644   5.440  19.224 -0.12 +0.07    -0.247 NA
DOCKED: ATOM      4  N   UNL d   1      -4.045   3.255  20.670 -0.08 +0.09    -0.247 NA
DOCKED: ATOM      5  N   UNL d   1      -6.097   3.365  18.660 -0.07 -0.02    -0.354 N 
DOCKED: ATOM      6  N   UNL d   1      -4.628   5.619  17.155 -0.20 +0.03    -0.354 N 
DOCKED: ATOM      7  C   UNL d   1      -0.497   6.483  18.667 -0.26 -0.03    +0.084 A 
DOCKED: ATOM      8  C   UNL d   1      -3.259   2.722  22.922 -0.06 -0.05    +0.084 A 
DOCKED: ATOM      9  C   UNL d   1      -3.085   3.516  21.623 -0.09 -0.04    +0.058 A 
DOCKED: ATOM     10  C   UNL d   1      -1.972   6.252  18.326 -0.27 -0.01    +0.058 A 
DOCKED: ATOM     11  C   UNL d   1      -0.459   5.673  19.928 -0.14 -0.09    +0.193 A 
DOCKED: ATOM     12  C   UNL d   1      -1.827   5.114  20.171 -0.17 -0.06    +0.109 A 
DOCKED: ATOM     13  C   UNL d   1      -4.474   1.936  22.516 -0.02 -0.06    +0.193 A 
DOCKED: ATOM     14  C   UNL d   1       0.438   5.842  17.639 -0.51 -0.01    +0.026 C 
DOCKED: ATOM     15  C   UNL d   1      -2.056   4.352  21.415 -0.10 -0.04    +0.055 C 
DOCKED: ATOM     16  C   UNL d   1      -3.632   3.632  24.097 -0.02 -0.01    +0.026 C 
DOCKED: ATOM     17  C   UNL d   1      -4.844   2.346  21.128 -0.06 -0.03    +0.109 A 
DOCKED: ATOM     18  C   UNL d   1      -2.558   6.873  17.285 -0.28 -0.01    +0.050 C 
DOCKED: ATOM     19  C   UNL d   1      -3.931   6.787  16.943 -0.35 -0.01    +0.045 A 
DOCKED: ATOM     20  C   UNL d   1      -6.473   2.223  19.318 -0.13 +0.01    +0.045 A 
DOCKED: ATOM     21  C   UNL d   1      -5.979   1.706  20.447 -0.09 -0.00    +0.057 C 
DOCKED: ATOM     22  C   UNL d   1      -7.774   2.464  17.456 -0.24 -0.01    -0.019 A 
DOCKED: ATOM     23  C   UNL d   1      -6.826   3.594  17.524 -0.26 +0.01    +0.045 A 
DOCKED: ATOM     24  C   UNL d   1      -7.561   1.657  18.522 -0.15 -0.01    -0.022 A 
DOCKED: ATOM     25  C   UNL d   1      -5.911   5.727  16.670 -0.32 -0.00    +0.049 A 
DOCKED: ATOM     26  C   UNL d   1      -4.794   7.689  16.339 -0.30 +0.00    -0.018 A 
DOCKED: ATOM     27  C   UNL d   1      -6.048   7.021  16.187 -0.28 -0.00    +0.003 A 
DOCKED: ATOM     28  C   UNL d   1      -6.774   4.598  16.634 -0.27 +0.01    +0.052 C 
DOCKED: ATOM     29  C   UNL d   1      -8.272   0.401  18.897 -0.10 +0.02    +0.046 C 
DOCKED: ATOM     30  C   UNL d   1      -4.476   9.087  15.928 -0.32 -0.01    +0.046 C 
DOCKED: ATOM     31  H   UNL d   1      -5.402   3.993  19.050 +0.05 -0.01    +0.166 HD
DOCKED: ATOM     32  H   UNL d   1      -4.221   4.792  17.574 +0.07 -0.01    +0.166 HD
DOCKED: ENDROOT
DOCKED: BRANCH   7  33
DOCKED: ATOM     33  C   UNL d   1      -0.108   7.938  18.951 -0.17 -0.04    +0.141 C 
DOCKED: BRANCH  33  34
DOCKED: ATOM     34  C   UNL d   1       1.309   8.247  18.551 -0.21 -0.09    +0.306 C 
DOCKED: ATOM     35  O   UNL d   1       1.658   8.887  17.573 -0.36 +0.08    -0.251 OA
DOCKED: BRANCH  34  36
DOCKED: ATOM     36  O   UNL d   1       2.213   7.736  19.406 -0.09 +0.16    -0.481 OA
DOCKED: ATOM     37  H   UNL d   1       1.703   7.102  19.954 +0.14 -0.09    +0.295 HD
DOCKED: ENDBRANCH  34  36
DOCKED: ENDBRANCH  33  34
DOCKED: ENDBRANCH   7  33
DOCKED: BRANCH  27  38
DOCKED: ATOM     38  C   UNL d   1      -7.219   7.589  15.590 -0.23 -0.00    +0.017 C 
DOCKED: ATOM     39  C   UNL d   1      -8.467   7.472  16.070 -0.20 +0.00    +0.092 C 
DOCKED: BRANCH  39  40
DOCKED: ATOM     40  C   UNL d   1      -9.581   8.119  15.372 -0.10 +0.01    +0.330 C 
DOCKED: ATOM     41  O   UNL d   1      -9.532   9.072  14.618 -0.12 -0.00    -0.246 OA
DOCKED: BRANCH  40  42
DOCKED: ATOM     42  O   UNL d   1     -10.733   7.499  15.667 -0.00 -0.01    -0.477 OA
DOCKED: ATOM     43  H   UNL d   1     -10.458   6.587  15.893 +0.06 +0.01    +0.295 HD
DOCKED: ENDBRANCH  40  42
DOCKED: ENDBRANCH  39  40
DOCKED: ENDBRANCH  27  38
DOCKED: BRANCH   8  44
DOCKED: ATOM     44  C   UNL d   1      -2.099   1.791  23.288 -0.02 -0.14    +0.141 C 
DOCKED: BRANCH  44  45
DOCKED: ATOM     45  C   UNL d   1      -2.358   0.351  22.932 -0.05 -0.25    +0.306 C 
DOCKED: ATOM     46  O   UNL d   1      -2.602  -0.557  23.708 -0.02 +0.11    -0.251 OA
DOCKED: BRANCH  45  47
DOCKED: ATOM     47  O   UNL d   1      -2.269   0.124  21.609 -0.02 +0.55    -0.481 OA
DOCKED: ATOM     48  H   UNL d   1      -1.797   0.907  21.254 -0.48 -0.76    +0.295 HD
DOCKED: ENDBRANCH  45  47
DOCKED: ENDBRANCH  44  45
DOCKED: ENDBRANCH   8  44
DOCKED: BRANCH  22  49
DOCKED: ATOM     49  C   UNL d   1      -8.780   2.273  16.359 -0.30 +0.02    +0.048 C 
DOCKED: BRANCH  49  50
DOCKED: ATOM     50  C   UNL d   1     -10.145   2.850  16.733 -0.12 +0.02    +0.125 C 
DOCKED: BRANCH  50  51
DOCKED: ATOM     51  C   UNL d   1     -10.213   4.317  16.414 -0.06 +0.03    +0.305 C 
DOCKED: ATOM     52  O   UNL d   1      -9.851   4.873  15.392 -0.08 -0.04    -0.251 OA
DOCKED: BRANCH  51  53
DOCKED: ATOM     53  O   UNL d   1     -10.736   5.030  17.431 +0.01 -0.02    -0.481 OA
DOCKED: ATOM     54  H   UNL d   1     -11.158   5.798  16.991 +0.03 +0.01    +0.295 HD
DOCKED: ENDBRANCH  51  53
DOCKED: ENDBRANCH  50  51
DOCKED: ENDBRANCH  49  50
DOCKED: ENDBRANCH  22  49
DOCKED: TORSDOF 13
DOCKED: TER
DOCKED: ENDMDL
________________________________________________________________________________


	BEGINNING GENETIC ALGORITHM DOCKING 50 of 100
Run: 50 Seed: 574714794 1330622755 [ Run 50 of 100 GA/GALS ]
Beginning LAMARCKIAN GENETIC ALGORITHM (LGA), with a maximum of 25000000 energy evaluations.

Final-Value: -10.621


	FINAL GENETIC ALGORITHM DOCKED STATE
	_______________________________________________


Detailed state:  trans -4.259 7.345 17.457 quatxyzw 0.292314 -0.102506 -0.890720 0.332660 center 0.153 0.018 -0.028 ntor 13 56.3923 -31.5717 -50.7446 47.6597 -174.8707 147.6741 59.6679 -75.5512 86.0310 -133.6600 102.9636 -54.8930 -12.3185
State:	 -4.259   7.345  17.457   0.310 -0.109 -0.945 141.139     56.39  -31.57  -50.74   47.66 -174.87  147.67   59.67  -75.55   86.03 -133.66  102.96  -54.89  -12.32

DOCKED: MODEL       50
DOCKED: USER    Run = 50
DOCKED: USER    DPF = D:/Protein_go_brrr/autodock/final/mut_N102T/heme/dock.dpf
DOCKED: USER  
DOCKED: USER    Estimated Free Energy of Binding    =   -5.42 kcal/mol  [=(1)+(2)+(3)-(4)]
DOCKED: USER    Estimated Inhibition Constant, Ki   =  106.71 uM (micromolar)  [Temperature = 298.15 K]
DOCKED: USER    
DOCKED: USER    (1) Final Intermolecular Energy     =   -9.30 kcal/mol
DOCKED: USER        vdW + Hbond + desolv Energy     =   -9.27 kcal/mol
DOCKED: USER        Electrostatic Energy            =   -0.03 kcal/mol
DOCKED: USER    (2) Final Total Internal Energy     =   -1.32 kcal/mol
DOCKED: USER    (3) Torsional Free Energy           =   +3.88 kcal/mol
DOCKED: USER    (4) Unbound System's Energy  [=(2)] =   -1.32 kcal/mol
DOCKED: USER    
DOCKED: USER    
DOCKED: USER    NEWDPF move heme_opt.pdbqt
DOCKED: USER    NEWDPF about 0.153000 0.018000 -0.028000
DOCKED: USER    NEWDPF tran0 -4.258824 7.345084 17.457151
DOCKED: USER    NEWDPF quaternion0 0.292314 -0.102506 -0.890720 0.332660
DOCKED: USER    NEWDPF axisangle0 0.309967 -0.108697 -0.944513 141.139415
DOCKED: USER    NEWDPF quat0 0.309967 -0.108697 -0.944513 141.139415
DOCKED: USER    NEWDPF dihe0 56.39 -31.57 -50.74 47.66 -174.87 147.67 59.67 -75.55 86.03 -133.66 102.96 -54.89 -12.32 
DOCKED: USER  keepresnum = 1 
DOCKED: USER  
DOCKED: REMARK  13 active torsions:
DOCKED: REMARK  status: ('A' for Active; 'I' for Inactive)
DOCKED: REMARK    1  A    between atoms: O_3  and  C_38 
DOCKED: REMARK    2  A    between atoms: O_4  and  C_40 
DOCKED: REMARK    3  A    between atoms: O_7  and  C_46 
DOCKED: REMARK    4  A    between atoms: O_9  and  C_48 
DOCKED: REMARK    5  A    between atoms: C_15  and  C_20 
DOCKED: REMARK    6  A    between atoms: C_16  and  C_23 
DOCKED: REMARK    7  A    between atoms: C_20  and  C_38 
DOCKED: REMARK    8  A    between atoms: C_23  and  C_40 
DOCKED: REMARK    9  A    between atoms: C_32  and  C_41 
DOCKED: REMARK   10  A    between atoms: C_37  and  C_45 
DOCKED: REMARK   11  A    between atoms: C_41  and  C_44 
DOCKED: REMARK   12  A    between atoms: C_44  and  C_46 
DOCKED: REMARK   13  A    between atoms: C_47  and  C_48 
DOCKED: USER                              x       y       z     vdW  Elec       q    Type
DOCKED: USER                           _______ _______ _______ _____ _____    ______ ____
DOCKED: ROOT
DOCKED: ATOM      1  O   UNL d   1      -2.244   3.321  21.265 +0.10 +0.38    -0.289 OA
DOCKED: ATOM      2  O   UNL d   1       1.233   9.006  17.804 -0.31 +0.09    -0.289 OA
DOCKED: ATOM      3  N   UNL d   1      -3.825   5.364  18.980 -0.10 +0.05    -0.247 NA
DOCKED: ATOM      4  N   UNL d   1      -1.788   7.448  18.403 -0.11 +0.06    -0.247 NA
DOCKED: ATOM      5  N   UNL d   1      -3.861   8.996  17.149 -0.09 +0.10    -0.354 N 
DOCKED: ATOM      6  N   UNL d   1      -5.972   6.837  17.769 -0.04 +0.03    -0.354 N 
DOCKED: ATOM      7  C   UNL d   1      -4.545   3.559  20.474 -0.09 -0.02    +0.084 A 
DOCKED: ATOM      8  C   UNL d   1       0.558   6.835  18.710 -0.28 -0.02    +0.084 A 
DOCKED: ATOM      9  C   UNL d   1      -0.925   6.470  18.843 -0.24 -0.02    +0.058 A 
DOCKED: ATOM     10  C   UNL d   1      -4.901   4.611  19.420 -0.11 -0.01    +0.058 A 
DOCKED: ATOM     11  C   UNL d   1      -3.073   3.838  20.539 -0.12 -0.11    +0.193 A 
DOCKED: ATOM     12  C   UNL d   1      -2.757   4.933  19.568 -0.18 -0.04    +0.109 A 
DOCKED: ATOM     13  C   UNL d   1       0.375   8.216  18.147 -0.22 -0.06    +0.193 A 
DOCKED: ATOM     14  C   UNL d   1      -5.168   3.876  21.836 -0.03 -0.01    +0.026 C 
DOCKED: ATOM     15  C   UNL d   1      -1.342   5.317  19.390 -0.31 -0.02    +0.055 C 
DOCKED: ATOM     16  C   UNL d   1       1.264   5.967  17.664 -0.49 -0.01    +0.026 C 
DOCKED: ATOM     17  C   UNL d   1      -1.092   8.469  18.017 -0.20 -0.03    +0.109 A 
DOCKED: ATOM     18  C   UNL d   1      -6.146   4.710  18.918 -0.12 -0.00    +0.050 C 
DOCKED: ATOM     19  C   UNL d   1      -6.549   5.593  17.884 -0.15 -0.00    +0.045 A 
DOCKED: ATOM     20  C   UNL d   1      -2.856   9.928  17.177 -0.03 -0.02    +0.045 A 
DOCKED: ATOM     21  C   UNL d   1      -1.576   9.769  17.529 -0.21 -0.02    +0.057 C 
DOCKED: ATOM     22  C   UNL d   1      -4.776  10.936  16.461 -0.18 +0.00    -0.019 A 
DOCKED: ATOM     23  C   UNL d   1      -5.059   9.512  16.731 -0.19 -0.01    +0.045 A 
DOCKED: ATOM     24  C   UNL d   1      -3.470  11.175  16.725 -0.25 +0.01    -0.022 A 
DOCKED: ATOM     25  C   UNL d   1      -6.571   7.557  16.761 -0.21 -0.00    +0.049 A 
DOCKED: ATOM     26  C   UNL d   1      -7.522   5.486  16.902 -0.21 -0.00    -0.018 A 
DOCKED: ATOM     27  C   UNL d   1      -7.518   6.722  16.184 -0.26 +0.00    +0.003 A 
DOCKED: ATOM     28  C   UNL d   1      -6.253   8.927  16.555 -0.21 -0.00    +0.052 C 
DOCKED: ATOM     29  C   UNL d   1      -2.711  12.452  16.596 -0.02 -0.01    +0.046 C 
DOCKED: ATOM     30  C   UNL d   1      -8.401   4.310  16.643 -0.22 +0.01    +0.046 C 
DOCKED: ATOM     31  H   UNL d   1      -3.678   8.019  17.348 +0.06 -0.04    +0.166 HD
DOCKED: ATOM     32  H   UNL d   1      -5.237   7.173  18.381 +0.05 -0.02    +0.166 HD
DOCKED: ENDROOT
DOCKED: BRANCH   7  33
DOCKED: ATOM     33  C   UNL d   1      -4.799   2.105  20.064 -0.12 -0.02    +0.141 C 
DOCKED: BRANCH  33  34
DOCKED: ATOM     34  C   UNL d   1      -3.642   1.200  20.389 -0.12 -0.16    +0.306 C 
DOCKED: ATOM     35  O   UNL d   1      -3.003   0.533  19.593 -0.18 +0.15    -0.251 OA
DOCKED: BRANCH  34  36
DOCKED: ATOM     36  O   UNL d   1      -3.348   1.186  21.702 -0.04 +0.36    -0.481 OA
DOCKED: ATOM     37  H   UNL d   1      -2.393   1.405  21.743 -0.41 -0.47    +0.295 HD
DOCKED: ENDBRANCH  34  36
DOCKED: ENDBRANCH  33  34
DOCKED: ENDBRANCH   7  33
DOCKED: BRANCH  27  38
DOCKED: ATOM     38  C   UNL d   1      -8.385   7.044  15.090 -0.20 +0.00    +0.017 C 
DOCKED: ATOM     39  C   UNL d   1      -8.636   8.282  14.639 -0.21 +0.00    +0.092 C 
DOCKED: BRANCH  39  40
DOCKED: ATOM     40  C   UNL d   1      -9.532   8.475  13.497 -0.17 +0.02    +0.330 C 
DOCKED: ATOM     41  O   UNL d   1     -10.302   9.397  13.303 -0.12 -0.00    -0.246 OA
DOCKED: BRANCH  40  42
DOCKED: ATOM     42  O   UNL d   1      -9.395   7.463  12.626 -0.41 -0.08    -0.477 OA
DOCKED: ATOM     43  H   UNL d   1     -10.287   7.370  12.232 +0.12 +0.02    +0.295 HD
DOCKED: ENDBRANCH  40  42
DOCKED: ENDBRANCH  39  40
DOCKED: ENDBRANCH  27  38
DOCKED: BRANCH   8  44
DOCKED: ATOM     44  C   UNL d   1       1.348   6.876  20.022 -0.21 -0.04    +0.141 C 
DOCKED: BRANCH  44  45
DOCKED: ATOM     45  C   UNL d   1       2.813   7.161  19.824 -0.19 -0.10    +0.306 C 
DOCKED: ATOM     46  O   UNL d   1       3.338   7.605  18.817 -0.30 +0.12    -0.251 OA
DOCKED: BRANCH  45  47
DOCKED: ATOM     47  O   UNL d   1       3.550   6.844  20.904 -0.09 +0.16    -0.481 OA
DOCKED: ATOM     48  H   UNL d   1       4.270   6.278  20.555 -0.44 -0.18    +0.295 HD
DOCKED: ENDBRANCH  45  47
DOCKED: ENDBRANCH  44  45
DOCKED: ENDBRANCH   8  44
DOCKED: BRANCH  22  49
DOCKED: ATOM     49  C   UNL d   1      -5.802  11.923  15.988 -0.13 -0.01    +0.048 C 
DOCKED: BRANCH  49  50
DOCKED: ATOM     50  C   UNL d   1      -5.779  12.085  14.469 -0.17 -0.01    +0.125 C 
DOCKED: BRANCH  50  51
DOCKED: ATOM     51  C   UNL d   1      -4.610  12.924  14.036 -0.20 -0.06    +0.305 C 
DOCKED: ATOM     52  O   UNL d   1      -4.530  14.140  14.030 -0.17 +0.07    -0.251 OA
DOCKED: BRANCH  51  53
DOCKED: ATOM     53  O   UNL d   1      -3.577  12.169  13.611 -0.57 +0.08    -0.481 OA
DOCKED: ATOM     54  H   UNL d   1      -2.799  12.552  14.068 +0.04 -0.10    +0.295 HD
DOCKED: ENDBRANCH  51  53
DOCKED: ENDBRANCH  50  51
DOCKED: ENDBRANCH  49  50
DOCKED: ENDBRANCH  22  49
DOCKED: TORSDOF 13
DOCKED: TER
DOCKED: ENDMDL
________________________________________________________________________________


	BEGINNING GENETIC ALGORITHM DOCKING 51 of 100
Run: 51 Seed: 321058264 579189379 [ Run 51 of 100 GA/GALS ]
Beginning LAMARCKIAN GENETIC ALGORITHM (LGA), with a maximum of 25000000 energy evaluations.

Final-Value: -13.575


	FINAL GENETIC ALGORITHM DOCKED STATE
	_______________________________________________


Detailed state:  trans 4.723 14.309 -11.315 quatxyzw 0.767052 -0.009823 0.455955 0.451264 center 0.153 0.018 -0.028 ntor 13 108.9154 -79.0827 -180.0000 -153.4522 -140.5204 113.0210 144.3452 -123.5342 60.7491 -9.5304 -79.1664 -11.3973 -179.9346
State:	  4.723  14.309 -11.315   0.860 -0.011  0.511 126.350    108.92  -79.08 -180.00 -153.45 -140.52  113.02  144.35 -123.53   60.75   -9.53  -79.17  -11.40 -179.93

DOCKED: MODEL       51
DOCKED: USER    Run = 51
DOCKED: USER    DPF = D:/Protein_go_brrr/autodock/final/mut_N102T/heme/dock.dpf
DOCKED: USER  
DOCKED: USER    Estimated Free Energy of Binding    =   -7.25 kcal/mol  [=(1)+(2)+(3)-(4)]
DOCKED: USER    Estimated Inhibition Constant, Ki   =    4.83 uM (micromolar)  [Temperature = 298.15 K]
DOCKED: USER    
DOCKED: USER    (1) Final Intermolecular Energy     =  -11.13 kcal/mol
DOCKED: USER        vdW + Hbond + desolv Energy     =  -10.43 kcal/mol
DOCKED: USER        Electrostatic Energy            =   -0.70 kcal/mol
DOCKED: USER    (2) Final Total Internal Energy     =   -2.44 kcal/mol
DOCKED: USER    (3) Torsional Free Energy           =   +3.88 kcal/mol
DOCKED: USER    (4) Unbound System's Energy  [=(2)] =   -2.44 kcal/mol
DOCKED: USER    
DOCKED: USER    
DOCKED: USER    NEWDPF move heme_opt.pdbqt
DOCKED: USER    NEWDPF about 0.153000 0.018000 -0.028000
DOCKED: USER    NEWDPF tran0 4.723472 14.308780 -11.314995
DOCKED: USER    NEWDPF quaternion0 0.767052 -0.009823 0.455955 0.451264
DOCKED: USER    NEWDPF axisangle0 0.859548 -0.011007 0.510937 126.350353
DOCKED: USER    NEWDPF quat0 0.859548 -0.011007 0.510937 126.350353
DOCKED: USER    NEWDPF dihe0 108.92 -79.08 -180.00 -153.45 -140.52 113.02 144.35 -123.53 60.75 -9.53 -79.17 -11.40 -179.93 
DOCKED: USER  keepresnum = 1 
DOCKED: USER  
DOCKED: REMARK  13 active torsions:
DOCKED: REMARK  status: ('A' for Active; 'I' for Inactive)
DOCKED: REMARK    1  A    between atoms: O_3  and  C_38 
DOCKED: REMARK    2  A    between atoms: O_4  and  C_40 
DOCKED: REMARK    3  A    between atoms: O_7  and  C_46 
DOCKED: REMARK    4  A    between atoms: O_9  and  C_48 
DOCKED: REMARK    5  A    between atoms: C_15  and  C_20 
DOCKED: REMARK    6  A    between atoms: C_16  and  C_23 
DOCKED: REMARK    7  A    between atoms: C_20  and  C_38 
DOCKED: REMARK    8  A    between atoms: C_23  and  C_40 
DOCKED: REMARK    9  A    between atoms: C_32  and  C_41 
DOCKED: REMARK   10  A    between atoms: C_37  and  C_45 
DOCKED: REMARK   11  A    between atoms: C_41  and  C_44 
DOCKED: REMARK   12  A    between atoms: C_44  and  C_46 
DOCKED: REMARK   13  A    between atoms: C_47  and  C_48 
DOCKED: USER                              x       y       z     vdW  Elec       q    Type
DOCKED: USER                           _______ _______ _______ _____ _____    ______ ____
DOCKED: ROOT
DOCKED: ATOM      1  O   UNL d   1       2.575  16.144 -16.489 -0.08 -0.03    -0.289 OA
DOCKED: ATOM      2  O   UNL d   1       0.132  17.235  -9.472 -0.15 +0.06    -0.289 OA
DOCKED: ATOM      3  N   UNL d   1       4.108  14.739 -13.738 -0.15 +0.08    -0.247 NA
DOCKED: ATOM      4  N   UNL d   1       2.655  15.957 -11.450 -0.15 +0.08    -0.247 NA
DOCKED: ATOM      5  N   UNL d   1       4.742  14.985  -9.727 -0.13 +0.15    -0.354 N 
DOCKED: ATOM      6  N   UNL d   1       6.253  13.741 -12.109 +0.04 +0.18    -0.354 N 
DOCKED: ATOM      7  C   UNL d   1       4.614  14.843 -16.134 -0.10 -0.02    +0.084 A 
DOCKED: ATOM      8  C   UNL d   1       0.362  16.701 -11.850 -0.14 -0.01    +0.084 A 
DOCKED: ATOM      9  C   UNL d   1       1.675  16.135 -12.401 -0.20 -0.01    +0.058 A 
DOCKED: ATOM     10  C   UNL d   1       5.003  14.373 -14.729 -0.17 -0.02    +0.058 A 
DOCKED: ATOM     11  C   UNL d   1       3.331  15.524 -15.763 -0.09 -0.01    +0.193 A 
DOCKED: ATOM     12  C   UNL d   1       3.123  15.370 -14.289 -0.19 -0.02    +0.109 A 
DOCKED: ATOM     13  C   UNL d   1       0.791  16.846 -10.417 -0.12 -0.05    +0.193 A 
DOCKED: ATOM     14  C   UNL d   1       5.589  15.888 -16.681 -0.03 -0.00    +0.026 C 
DOCKED: ATOM     15  C   UNL d   1       1.868  15.885 -13.705 -0.23 -0.00    +0.055 C 
DOCKED: ATOM     16  C   UNL d   1      -0.773  15.675 -11.923 -0.24 -0.00    +0.026 C 
DOCKED: ATOM     17  C   UNL d   1       2.202  16.368 -10.309 -0.09 -0.04    +0.109 A 
DOCKED: ATOM     18  C   UNL d   1       6.081  13.594 -14.522 -0.20 -0.02    +0.050 C 
DOCKED: ATOM     19  C   UNL d   1       6.471  13.043 -13.275 -0.20 -0.02    +0.045 A 
DOCKED: ATOM     20  C   UNL d   1       4.067  15.792  -8.848 -0.29 -0.02    +0.045 A 
DOCKED: ATOM     21  C   UNL d   1       2.907  16.432  -9.020 -0.27 -0.02    +0.057 C 
DOCKED: ATOM     22  C   UNL d   1       5.982  15.048  -7.847 -0.23 +0.01    -0.019 A 
DOCKED: ATOM     23  C   UNL d   1       5.910  14.489  -9.212 -0.25 -0.02    +0.045 A 
DOCKED: ATOM     24  C   UNL d   1       4.887  15.817  -7.637 -0.25 +0.01    -0.022 A 
DOCKED: ATOM     25  C   UNL d   1       6.787  13.068 -11.035 -0.09 -0.02    +0.049 A 
DOCKED: ATOM     26  C   UNL d   1       7.131  11.869 -12.946 -0.28 +0.01    -0.018 A 
DOCKED: ATOM     27  C   UNL d   1       7.310  11.881 -11.529 -0.32 -0.00    +0.003 A 
DOCKED: ATOM     28  C   UNL d   1       6.824  13.664  -9.745 -0.27 -0.02    +0.052 C 
DOCKED: ATOM     29  C   UNL d   1       4.504  16.580  -6.415 -0.20 -0.02    +0.046 C 
DOCKED: ATOM     30  C   UNL d   1       7.567  10.800 -13.889 -0.22 -0.02    +0.046 C 
DOCKED: ATOM     31  H   UNL d   1       4.344  14.739 -10.627 -0.36 -0.10    +0.166 HD
DOCKED: ATOM     32  H   UNL d   1       5.796  14.645 -12.074 -0.08 -0.07    +0.166 HD
DOCKED: ENDROOT
DOCKED: BRANCH   7  33
DOCKED: ATOM     33  C   UNL d   1       4.356  13.727 -17.152 -0.17 -0.07    +0.141 C 
DOCKED: BRANCH  33  34
DOCKED: ATOM     34  C   UNL d   1       2.898  13.585 -17.499 -0.27 -0.06    +0.306 C 
DOCKED: ATOM     35  O   UNL d   1       2.075  12.921 -16.892 -0.67 +0.03    -0.251 OA
DOCKED: BRANCH  34  36
DOCKED: ATOM     36  O   UNL d   1       2.554  14.290 -18.591 -0.11 -0.03    -0.481 OA
DOCKED: ATOM     37  H   UNL d   1       2.548  15.224 -18.290 +0.09 +0.05    +0.295 HD
DOCKED: ENDBRANCH  34  36
DOCKED: ENDBRANCH  33  34
DOCKED: ENDBRANCH   7  33
DOCKED: BRANCH  27  38
DOCKED: ATOM     38  C   UNL d   1       7.965  10.857 -10.771 -0.41 -0.01    +0.017 C 
DOCKED: ATOM     39  C   UNL d   1       7.743  10.591  -9.475 -0.46 -0.03    +0.092 C 
DOCKED: BRANCH  39  40
DOCKED: ATOM     40  C   UNL d   1       8.469   9.500  -8.819 -0.34 -0.07    +0.330 C 
DOCKED: ATOM     41  O   UNL d   1       9.327   9.589  -7.961 -0.71 +0.04    -0.246 OA
DOCKED: BRANCH  40  42
DOCKED: ATOM     42  O   UNL d   1       8.050   8.317  -9.292 -0.54 +0.05    -0.477 OA
DOCKED: ATOM     43  H   UNL d   1       8.746   8.060  -9.932 -0.29 -0.14    +0.295 HD
DOCKED: ENDBRANCH  40  42
DOCKED: ENDBRANCH  39  40
DOCKED: ENDBRANCH  27  38
DOCKED: BRANCH   8  44
DOCKED: ATOM     44  C   UNL d   1      -0.071  18.050 -12.433 -0.04 -0.00    +0.141 C 
DOCKED: BRANCH  44  45
DOCKED: ATOM     45  C   UNL d   1       0.939  19.144 -12.213 +0.01 -0.01    +0.306 C 
DOCKED: ATOM     46  O   UNL d   1       1.748  19.560 -13.025 -0.00 +0.00    -0.251 OA
DOCKED: BRANCH  45  47
DOCKED: ATOM     47  O   UNL d   1       0.897  19.642 -10.964 +0.01 +0.02    -0.481 OA
DOCKED: ATOM     48  H   UNL d   1       0.177  19.142 -10.523 +0.03 -0.02    +0.295 HD
DOCKED: ENDBRANCH  45  47
DOCKED: ENDBRANCH  44  45
DOCKED: ENDBRANCH   8  44
DOCKED: BRANCH  22  49
DOCKED: ATOM     49  C   UNL d   1       7.109  14.793  -6.891 -0.18 -0.05    +0.048 C 
DOCKED: BRANCH  49  50
DOCKED: ATOM     50  C   UNL d   1       8.142  15.920  -6.915 -0.10 -0.10    +0.125 C 
DOCKED: BRANCH  50  51
DOCKED: ATOM     51  C   UNL d   1       7.965  16.835  -5.737 -0.03 -0.22    +0.305 C 
DOCKED: ATOM     52  O   UNL d   1       7.885  18.051  -5.746 -0.01 +0.10    -0.251 OA
DOCKED: BRANCH  51  53
DOCKED: ATOM     53  O   UNL d   1       7.909  16.155  -4.574 -0.02 +0.57    -0.481 OA
DOCKED: ATOM     54  H   UNL d   1       8.408  15.332  -4.756 -0.48 -0.78    +0.295 HD
DOCKED: ENDBRANCH  51  53
DOCKED: ENDBRANCH  50  51
DOCKED: ENDBRANCH  49  50
DOCKED: ENDBRANCH  22  49
DOCKED: TORSDOF 13
DOCKED: TER
DOCKED: ENDMDL
________________________________________________________________________________


	BEGINNING GENETIC ALGORITHM DOCKING 52 of 100
Run: 52 Seed: 931694294 1935096569 [ Run 52 of 100 GA/GALS ]
Beginning LAMARCKIAN GENETIC ALGORITHM (LGA), with a maximum of 25000000 energy evaluations.

Final-Value: -12.039


	FINAL GENETIC ALGORITHM DOCKED STATE
	_______________________________________________


Detailed state:  trans -8.718 -15.211 10.496 quatxyzw 0.202603 -0.050403 -0.752349 -0.624806 center 0.153 0.018 -0.028 ntor 13 89.6528 -151.2726 123.4911 135.3410 -1.2250 -103.6661 -44.6804 94.1454 127.6101 -142.6804 -43.0561 88.1973 -2.9005
State:	 -8.718 -15.211  10.496   0.259 -0.065 -0.964 -102.664     89.65 -151.27  123.49  135.34   -1.23 -103.67  -44.68   94.15  127.61 -142.68  -43.06   88.20   -2.90

DOCKED: MODEL       52
DOCKED: USER    Run = 52
DOCKED: USER    DPF = D:/Protein_go_brrr/autodock/final/mut_N102T/heme/dock.dpf
DOCKED: USER  
DOCKED: USER    Estimated Free Energy of Binding    =   -6.56 kcal/mol  [=(1)+(2)+(3)-(4)]
DOCKED: USER    Estimated Inhibition Constant, Ki   =   15.53 uM (micromolar)  [Temperature = 298.15 K]
DOCKED: USER    
DOCKED: USER    (1) Final Intermolecular Energy     =  -10.44 kcal/mol
DOCKED: USER        vdW + Hbond + desolv Energy     =   -9.51 kcal/mol
DOCKED: USER        Electrostatic Energy            =   -0.93 kcal/mol
DOCKED: USER    (2) Final Total Internal Energy     =   -1.60 kcal/mol
DOCKED: USER    (3) Torsional Free Energy           =   +3.88 kcal/mol
DOCKED: USER    (4) Unbound System's Energy  [=(2)] =   -1.60 kcal/mol
DOCKED: USER    
DOCKED: USER    
DOCKED: USER    NEWDPF move heme_opt.pdbqt
DOCKED: USER    NEWDPF about 0.153000 0.018000 -0.028000
DOCKED: USER    NEWDPF tran0 -8.718199 -15.210707 10.495540
DOCKED: USER    NEWDPF quaternion0 0.202603 -0.050403 -0.752349 -0.624806
DOCKED: USER    NEWDPF axisangle0 0.259488 -0.064555 -0.963586 -102.664084
DOCKED: USER    NEWDPF quat0 0.259488 -0.064555 -0.963586 -102.664084
DOCKED: USER    NEWDPF dihe0 89.65 -151.27 123.49 135.34 -1.23 -103.67 -44.68 94.15 127.61 -142.68 -43.06 88.20 -2.90 
DOCKED: USER  keepresnum = 1 
DOCKED: USER  
DOCKED: REMARK  13 active torsions:
DOCKED: REMARK  status: ('A' for Active; 'I' for Inactive)
DOCKED: REMARK    1  A    between atoms: O_3  and  C_38 
DOCKED: REMARK    2  A    between atoms: O_4  and  C_40 
DOCKED: REMARK    3  A    between atoms: O_7  and  C_46 
DOCKED: REMARK    4  A    between atoms: O_9  and  C_48 
DOCKED: REMARK    5  A    between atoms: C_15  and  C_20 
DOCKED: REMARK    6  A    between atoms: C_16  and  C_23 
DOCKED: REMARK    7  A    between atoms: C_20  and  C_38 
DOCKED: REMARK    8  A    between atoms: C_23  and  C_40 
DOCKED: REMARK    9  A    between atoms: C_32  and  C_41 
DOCKED: REMARK   10  A    between atoms: C_37  and  C_45 
DOCKED: REMARK   11  A    between atoms: C_41  and  C_44 
DOCKED: REMARK   12  A    between atoms: C_44  and  C_46 
DOCKED: REMARK   13  A    between atoms: C_47  and  C_48 
DOCKED: USER                              x       y       z     vdW  Elec       q    Type
DOCKED: USER                           _______ _______ _______ _____ _____    ______ ____
DOCKED: ROOT
DOCKED: ATOM      1  O   UNL d   1      -6.634 -10.298  13.000 -0.15 +0.06    -0.289 OA
DOCKED: ATOM      2  O   UNL d   1     -12.230 -11.341   8.102 -0.07 +0.05    -0.289 OA
DOCKED: ATOM      3  N   UNL d   1      -7.416 -13.390  11.688 -0.18 +0.10    -0.247 NA
DOCKED: ATOM      4  N   UNL d   1      -9.893 -12.865  10.133 -0.16 +0.10    -0.247 NA
DOCKED: ATOM      5  N   UNL d   1     -10.288 -15.709   9.979 -0.11 +0.20    -0.354 N 
DOCKED: ATOM      6  N   UNL d   1      -7.728 -16.244  11.610 -0.07 +0.22    -0.354 N 
DOCKED: ATOM      7  C   UNL d   1      -5.864 -12.582  13.405 -0.20 -0.02    +0.084 A 
DOCKED: ATOM      8  C   UNL d   1     -10.227 -10.594   9.295 -0.19 -0.02    +0.084 A 
DOCKED: ATOM      9  C   UNL d   1      -9.406 -11.577  10.137 -0.27 -0.02    +0.058 A 
DOCKED: ATOM     10  C   UNL d   1      -6.456 -13.755  12.617 -0.25 -0.02    +0.058 A 
DOCKED: ATOM     11  C   UNL d   1      -6.648 -11.488  12.744 -0.11 -0.04    +0.193 A 
DOCKED: ATOM     12  C   UNL d   1      -7.533 -12.102  11.705 -0.20 -0.03    +0.109 A 
DOCKED: ATOM     13  C   UNL d   1     -11.290 -11.555   8.843 -0.08 -0.04    +0.193 A 
DOCKED: ATOM     14  C   UNL d   1      -6.243 -12.637  14.887 -0.11 -0.01    +0.026 C 
DOCKED: ATOM     15  C   UNL d   1      -8.337 -11.201  10.855 -0.31 -0.01    +0.055 C 
DOCKED: ATOM     16  C   UNL d   1      -9.448 -10.109   8.068 -0.23 -0.01    +0.026 C 
DOCKED: ATOM     17  C   UNL d   1     -10.976 -12.895   9.425 -0.14 -0.03    +0.109 A 
DOCKED: ATOM     18  C   UNL d   1      -5.995 -15.010  12.772 -0.25 -0.02    +0.050 C 
DOCKED: ATOM     19  C   UNL d   1      -6.421 -16.140  12.030 -0.23 -0.02    +0.045 A 
DOCKED: ATOM     20  C   UNL d   1     -11.492 -15.277   9.487 -0.17 -0.01    +0.045 A 
DOCKED: ATOM     21  C   UNL d   1     -11.877 -14.032   9.187 -0.14 -0.01    +0.057 C 
DOCKED: ATOM     22  C   UNL d   1     -11.573 -17.545   9.750 -0.13 +0.01    -0.019 A 
DOCKED: ATOM     23  C   UNL d   1     -10.241 -17.064  10.170 -0.20 -0.03    +0.045 A 
DOCKED: ATOM     24  C   UNL d   1     -12.308 -16.482   9.345 -0.12 +0.01    -0.022 A 
DOCKED: ATOM     25  C   UNL d   1      -7.942 -17.453  10.991 -0.21 -0.04    +0.049 A 
DOCKED: ATOM     26  C   UNL d   1      -5.760 -17.296  11.641 -0.25 +0.01    -0.018 A 
DOCKED: ATOM     27  C   UNL d   1      -6.721 -18.112  10.968 -0.26 -0.00    +0.003 A 
DOCKED: ATOM     28  C   UNL d   1      -9.251 -17.856  10.610 -0.18 -0.05    +0.052 C 
DOCKED: ATOM     29  C   UNL d   1     -13.705 -16.459   8.823 -0.05 -0.01    +0.046 C 
DOCKED: ATOM     30  C   UNL d   1      -4.324 -17.622  11.877 -0.20 -0.03    +0.046 C 
DOCKED: ATOM     31  H   UNL d   1      -9.509 -15.071  10.098 -0.52 -0.15    +0.166 HD
DOCKED: ATOM     32  H   UNL d   1      -8.429 -15.533  11.781 -0.03 -0.09    +0.166 HD
DOCKED: ENDROOT
DOCKED: BRANCH   7  33
DOCKED: ATOM     33  C   UNL d   1      -4.360 -12.356  13.217 -0.32 -0.05    +0.141 C 
DOCKED: BRANCH  33  34
DOCKED: ATOM     34  C   UNL d   1      -3.867 -11.125  13.927 -0.30 -0.08    +0.306 C 
DOCKED: ATOM     35  O   UNL d   1      -4.035 -10.856  15.105 -0.53 +0.04    -0.251 OA
DOCKED: BRANCH  34  36
DOCKED: ATOM     36  O   UNL d   1      -3.184 -10.297  13.116 -0.37 +0.13    -0.481 OA
DOCKED: ATOM     37  H   UNL d   1      -2.247 -10.564  13.222 -0.33 -0.16    +0.295 HD
DOCKED: ENDBRANCH  34  36
DOCKED: ENDBRANCH  33  34
DOCKED: ENDBRANCH   7  33
DOCKED: BRANCH  27  38
DOCKED: ATOM     38  C   UNL d   1      -6.460 -19.408  10.416 -0.20 -0.02    +0.017 C 
DOCKED: ATOM     39  C   UNL d   1      -5.498 -19.690   9.525 -0.14 -0.11    +0.092 C 
DOCKED: BRANCH  39  40
DOCKED: ATOM     40  C   UNL d   1      -5.325 -21.066   9.049 -0.06 -0.27    +0.330 C 
DOCKED: ATOM     41  O   UNL d   1      -4.445 -21.851   9.350 -0.03 +0.09    -0.246 OA
DOCKED: BRANCH  40  42
DOCKED: ATOM     42  O   UNL d   1      -6.310 -21.388   8.198 -0.05 +0.57    -0.477 OA
DOCKED: ATOM     43  H   UNL d   1      -6.562 -20.532   7.795 -0.43 -0.75    +0.295 HD
DOCKED: ENDBRANCH  40  42
DOCKED: ENDBRANCH  39  40
DOCKED: ENDBRANCH  27  38
DOCKED: BRANCH   8  44
DOCKED: ATOM     44  C   UNL d   1     -10.840  -9.419  10.063 -0.11 -0.04    +0.141 C 
DOCKED: BRANCH  44  45
DOCKED: ATOM     45  C   UNL d   1     -11.378  -8.338   9.164 -0.06 -0.12    +0.306 C 
DOCKED: ATOM     46  O   UNL d   1     -10.761  -7.381   8.727 -0.18 +0.16    -0.251 OA
DOCKED: BRANCH  45  47
DOCKED: ATOM     47  O   UNL d   1     -12.682  -8.505   8.882 +0.02 +0.13    -0.481 OA
DOCKED: ATOM     48  H   UNL d   1     -12.736  -9.396   8.475 +0.04 -0.06    +0.295 HD
DOCKED: ENDBRANCH  45  47
DOCKED: ENDBRANCH  44  45
DOCKED: ENDBRANCH   8  44
DOCKED: BRANCH  22  49
DOCKED: ATOM     49  C   UNL d   1     -12.003 -18.982   9.795 -0.07 -0.02    +0.048 C 
DOCKED: BRANCH  49  50
DOCKED: ATOM     50  C   UNL d   1     -11.603 -19.736   8.528 -0.07 -0.09    +0.125 C 
DOCKED: BRANCH  50  51
DOCKED: ATOM     51  C   UNL d   1     -11.070 -21.101   8.862 -0.03 -0.21    +0.305 C 
DOCKED: ATOM     52  O   UNL d   1     -11.704 -22.133   8.996 -0.01 +0.09    -0.251 OA
DOCKED: BRANCH  51  53
DOCKED: ATOM     53  O   UNL d   1      -9.733 -21.094   9.026 +0.02 +0.57    -0.481 OA
DOCKED: ATOM     54  H   UNL d   1      -9.403 -20.563   8.271 -0.53 -0.78    +0.295 HD
DOCKED: ENDBRANCH  51  53
DOCKED: ENDBRANCH  50  51
DOCKED: ENDBRANCH  49  50
DOCKED: ENDBRANCH  22  49
DOCKED: TORSDOF 13
DOCKED: TER
DOCKED: ENDMDL
________________________________________________________________________________


	BEGINNING GENETIC ALGORITHM DOCKING 53 of 100
Run: 53 Seed: 1211155693 1648255395 [ Run 53 of 100 GA/GALS ]
Beginning LAMARCKIAN GENETIC ALGORITHM (LGA), with a maximum of 25000000 energy evaluations.

Final-Value: -12.596


	FINAL GENETIC ALGORITHM DOCKED STATE
	_______________________________________________


Detailed state:  trans 3.821 -7.328 18.892 quatxyzw -0.433832 0.847412 -0.036191 0.303929 center 0.153 0.018 -0.028 ntor 13 117.6414 -176.9647 -120.4192 41.3459 -131.2409 -72.5146 123.8401 5.2487 45.9202 -35.8811 -76.5077 -3.0773 3.4173
State:	  3.821  -7.328  18.892  -0.455  0.889 -0.038 144.613    117.64 -176.96 -120.42   41.35 -131.24  -72.51  123.84    5.25   45.92  -35.88  -76.51   -3.08    3.42

DOCKED: MODEL       53
DOCKED: USER    Run = 53
DOCKED: USER    DPF = D:/Protein_go_brrr/autodock/final/mut_N102T/heme/dock.dpf
DOCKED: USER  
DOCKED: USER    Estimated Free Energy of Binding    =   -3.94 kcal/mol  [=(1)+(2)+(3)-(4)]
DOCKED: USER    Estimated Inhibition Constant, Ki   =    1.29 mM (millimolar)  [Temperature = 298.15 K]
DOCKED: USER    
DOCKED: USER    (1) Final Intermolecular Energy     =   -7.82 kcal/mol
DOCKED: USER        vdW + Hbond + desolv Energy     =   -7.71 kcal/mol
DOCKED: USER        Electrostatic Energy            =   -0.11 kcal/mol
DOCKED: USER    (2) Final Total Internal Energy     =   -4.78 kcal/mol
DOCKED: USER    (3) Torsional Free Energy           =   +3.88 kcal/mol
DOCKED: USER    (4) Unbound System's Energy  [=(2)] =   -4.78 kcal/mol
DOCKED: USER    
DOCKED: USER    
DOCKED: USER    NEWDPF move heme_opt.pdbqt
DOCKED: USER    NEWDPF about 0.153000 0.018000 -0.028000
DOCKED: USER    NEWDPF tran0 3.820688 -7.327885 18.892295
DOCKED: USER    NEWDPF quaternion0 -0.433832 0.847412 -0.036191 0.303929
DOCKED: USER    NEWDPF axisangle0 -0.455374 0.889490 -0.037988 144.612558
DOCKED: USER    NEWDPF quat0 -0.455374 0.889490 -0.037988 144.612558
DOCKED: USER    NEWDPF dihe0 117.64 -176.96 -120.42 41.35 -131.24 -72.51 123.84 5.25 45.92 -35.88 -76.51 -3.08 3.42 
DOCKED: USER  keepresnum = 1 
DOCKED: USER  
DOCKED: REMARK  13 active torsions:
DOCKED: REMARK  status: ('A' for Active; 'I' for Inactive)
DOCKED: REMARK    1  A    between atoms: O_3  and  C_38 
DOCKED: REMARK    2  A    between atoms: O_4  and  C_40 
DOCKED: REMARK    3  A    between atoms: O_7  and  C_46 
DOCKED: REMARK    4  A    between atoms: O_9  and  C_48 
DOCKED: REMARK    5  A    between atoms: C_15  and  C_20 
DOCKED: REMARK    6  A    between atoms: C_16  and  C_23 
DOCKED: REMARK    7  A    between atoms: C_20  and  C_38 
DOCKED: REMARK    8  A    between atoms: C_23  and  C_40 
DOCKED: REMARK    9  A    between atoms: C_32  and  C_41 
DOCKED: REMARK   10  A    between atoms: C_37  and  C_45 
DOCKED: REMARK   11  A    between atoms: C_41  and  C_44 
DOCKED: REMARK   12  A    between atoms: C_44  and  C_46 
DOCKED: REMARK   13  A    between atoms: C_47  and  C_48 
DOCKED: USER                              x       y       z     vdW  Elec       q    Type
DOCKED: USER                           _______ _______ _______ _____ _____    ______ ____
DOCKED: ROOT
DOCKED: ATOM      1  O   UNL d   1       4.691  -2.488  15.641 -0.15 +0.05    -0.289 OA
DOCKED: ATOM      2  O   UNL d   1       9.420  -7.929  17.743 -0.02 -0.05    -0.289 OA
DOCKED: ATOM      3  N   UNL d   1       3.746  -5.095  17.691 -0.14 +0.05    -0.247 NA
DOCKED: ATOM      4  N   UNL d   1       6.141  -6.853  17.709 -0.13 +0.01    -0.247 NA
DOCKED: ATOM      5  N   UNL d   1       4.509  -8.911  18.877 -0.00 +0.09    -0.354 N 
DOCKED: ATOM      6  N   UNL d   1       2.024  -7.087  18.837 -0.13 +0.12    -0.354 N 
DOCKED: ATOM      7  C   UNL d   1       2.572  -3.242  16.598 -0.30 -0.02    +0.084 A 
DOCKED: ATOM      8  C   UNL d   1       8.305  -5.798  17.285 -0.06 +0.01    +0.084 A 
DOCKED: ATOM      9  C   UNL d   1       6.778  -5.683  17.359 -0.10 +0.00    +0.058 A 
DOCKED: ATOM     10  C   UNL d   1       2.518  -4.486  17.490 -0.24 -0.01    +0.058 A 
DOCKED: ATOM     11  C   UNL d   1       4.049  -3.245  16.346 -0.17 -0.03    +0.193 A 
DOCKED: ATOM     12  C   UNL d   1       4.652  -4.401  17.083 -0.14 -0.01    +0.109 A 
DOCKED: ATOM     13  C   UNL d   1       8.413  -7.259  17.621 -0.05 +0.02    +0.193 A 
DOCKED: ATOM     14  C   UNL d   1       1.842  -3.455  15.270 -0.51 -0.01    +0.026 C 
DOCKED: ATOM     15  C   UNL d   1       6.120  -4.553  17.057 -0.11 -0.00    +0.055 C 
DOCKED: ATOM     16  C   UNL d   1       8.989  -4.987  18.389 -0.02 +0.00    +0.026 C 
DOCKED: ATOM     17  C   UNL d   1       7.032  -7.782  17.848 -0.15 +0.01    +0.109 A 
DOCKED: ATOM     18  C   UNL d   1       1.376  -4.876  18.086 -0.27 -0.01    +0.050 C 
DOCKED: ATOM     19  C   UNL d   1       1.248  -5.960  18.990 -0.22 -0.01    +0.045 A 
DOCKED: ATOM     20  C   UNL d   1       5.637  -9.637  18.597 -0.20 -0.00    +0.045 A 
DOCKED: ATOM     21  C   UNL d   1       6.822  -9.205  18.154 -0.22 +0.01    +0.057 C 
DOCKED: ATOM     22  C   UNL d   1       4.003 -11.062  19.314 -0.26 +0.00    -0.019 A 
DOCKED: ATOM     23  C   UNL d   1       3.468  -9.685  19.317 -0.16 -0.01    +0.045 A 
DOCKED: ATOM     24  C   UNL d   1       5.287 -11.026  18.888 -0.23 -0.00    -0.022 A 
DOCKED: ATOM     25  C   UNL d   1       1.674  -8.044  19.762 -0.15 -0.01    +0.049 A 
DOCKED: ATOM     26  C   UNL d   1       0.399  -6.175  20.065 -0.12 +0.00    -0.018 A 
DOCKED: ATOM     27  C   UNL d   1       0.686  -7.484  20.561 -0.12 -0.00    +0.003 A 
DOCKED: ATOM     28  C   UNL d   1       2.227  -9.352  19.703 -0.22 -0.01    +0.052 C 
DOCKED: ATOM     29  C   UNL d   1       6.248 -12.155  18.727 -0.18 +0.01    +0.046 C 
DOCKED: ATOM     30  C   UNL d   1      -0.615  -5.223  20.602 -0.06 -0.01    +0.046 C 
DOCKED: ATOM     31  H   UNL d   1       4.509  -7.898  18.830 -0.12 -0.04    +0.166 HD
DOCKED: ATOM     32  H   UNL d   1       2.721  -7.193  18.110 -0.49 -0.10    +0.166 HD
DOCKED: ENDROOT
DOCKED: BRANCH   7  33
DOCKED: ATOM     33  C   UNL d   1       2.144  -1.933  17.271 -0.31 -0.05    +0.141 C 
DOCKED: BRANCH  33  34
DOCKED: ATOM     34  C   UNL d   1       3.306  -1.169  17.845 -0.23 -0.10    +0.306 C 
DOCKED: ATOM     35  O   UNL d   1       3.894  -1.424  18.883 -0.11 +0.08    -0.251 OA
DOCKED: BRANCH  34  36
DOCKED: ATOM     36  O   UNL d   1       3.670  -0.125  17.079 -0.30 +0.11    -0.481 OA
DOCKED: ATOM     37  H   UNL d   1       3.990  -0.531  16.245 -0.07 -0.12    +0.295 HD
DOCKED: ENDBRANCH  34  36
DOCKED: ENDBRANCH  33  34
DOCKED: ENDBRANCH   7  33
DOCKED: BRANCH  27  38
DOCKED: ATOM     38  C   UNL d   1       0.023  -8.113  21.663 -0.09 -0.00    +0.017 C 
DOCKED: ATOM     39  C   UNL d   1       0.596  -8.960  22.531 -0.04 -0.01    +0.092 C 
DOCKED: BRANCH  39  40
DOCKED: ATOM     40  C   UNL d   1      -0.192  -9.524  23.630 -0.00 -0.03    +0.330 C 
DOCKED: ATOM     41  O   UNL d   1      -0.558  -8.964  24.646 -0.00 +0.02    -0.246 OA
DOCKED: BRANCH  40  42
DOCKED: ATOM     42  O   UNL d   1      -0.493 -10.806  23.372 +0.00 +0.04    -0.477 OA
DOCKED: ATOM     43  H   UNL d   1      -0.039 -10.988  22.524 +0.03 -0.03    +0.295 HD
DOCKED: ENDBRANCH  40  42
DOCKED: ENDBRANCH  39  40
DOCKED: ENDBRANCH  27  38
DOCKED: BRANCH   8  44
DOCKED: ATOM     44  C   UNL d   1       8.924  -5.503  15.915 -0.07 +0.02    +0.141 C 
DOCKED: BRANCH  44  45
DOCKED: ATOM     45  C   UNL d   1       8.949  -6.702  15.004 -0.09 +0.06    +0.306 C 
DOCKED: ATOM     46  O   UNL d   1       8.018  -7.136  14.348 -0.18 -0.05    -0.251 OA
DOCKED: BRANCH  45  47
DOCKED: ATOM     47  O   UNL d   1      10.149  -7.311  14.988 -0.01 -0.12    -0.481 OA
DOCKED: ATOM     48  H   UNL d   1      10.310  -7.564  15.921 +0.04 +0.07    +0.295 HD
DOCKED: ENDBRANCH  45  47
DOCKED: ENDBRANCH  44  45
DOCKED: ENDBRANCH   8  44
DOCKED: BRANCH  22  49
DOCKED: ATOM     49  C   UNL d   1       3.211 -12.274  19.710 -0.23 -0.01    +0.048 C 
DOCKED: BRANCH  49  50
DOCKED: ATOM     50  C   UNL d   1       3.134 -12.432  21.228 -0.06 -0.01    +0.125 C 
DOCKED: BRANCH  50  51
DOCKED: ATOM     51  C   UNL d   1       1.782 -12.027  21.742 -0.04 -0.02    +0.305 C 
DOCKED: ATOM     52  O   UNL d   1       0.838 -11.605  21.098 -0.51 +0.01    -0.251 OA
DOCKED: BRANCH  51  53
DOCKED: ATOM     53  O   UNL d   1       1.688 -12.167  23.080 +0.01 +0.03    -0.481 OA
DOCKED: ATOM     54  H   UNL d   1       0.791 -12.536  23.218 +0.02 -0.02    +0.295 HD
DOCKED: ENDBRANCH  51  53
DOCKED: ENDBRANCH  50  51
DOCKED: ENDBRANCH  49  50
DOCKED: ENDBRANCH  22  49
DOCKED: TORSDOF 13
DOCKED: TER
DOCKED: ENDMDL
________________________________________________________________________________


	BEGINNING GENETIC ALGORITHM DOCKING 54 of 100
Run: 54 Seed: 22592104 982019150 [ Run 54 of 100 GA/GALS ]
Beginning LAMARCKIAN GENETIC ALGORITHM (LGA), with a maximum of 25000000 energy evaluations.

Final-Value: -11.547


	FINAL GENETIC ALGORITHM DOCKED STATE
	_______________________________________________


Detailed state:  trans -7.978 4.518 16.851 quatxyzw 0.908007 -0.182905 0.305339 -0.220994 center 0.153 0.018 -0.028 ntor 13 93.5283 179.9120 -115.0436 -18.4514 179.8486 11.9509 165.3514 -166.3623 109.0321 32.2690 -62.8741 -47.3812 -14.2881
State:	 -7.978   4.518  16.851   0.931 -0.188  0.313 -154.465     93.53  179.91 -115.04  -18.45  179.85   11.95  165.35 -166.36  109.03   32.27  -62.87  -47.38  -14.29

DOCKED: MODEL       54
DOCKED: USER    Run = 54
DOCKED: USER    DPF = D:/Protein_go_brrr/autodock/final/mut_N102T/heme/dock.dpf
DOCKED: USER  
DOCKED: USER    Estimated Free Energy of Binding    =   -3.77 kcal/mol  [=(1)+(2)+(3)-(4)]
DOCKED: USER    Estimated Inhibition Constant, Ki   =    1.74 mM (millimolar)  [Temperature = 298.15 K]
DOCKED: USER    
DOCKED: USER    (1) Final Intermolecular Energy     =   -7.64 kcal/mol
DOCKED: USER        vdW + Hbond + desolv Energy     =   -7.47 kcal/mol
DOCKED: USER        Electrostatic Energy            =   -0.18 kcal/mol
DOCKED: USER    (2) Final Total Internal Energy     =   -3.90 kcal/mol
DOCKED: USER    (3) Torsional Free Energy           =   +3.88 kcal/mol
DOCKED: USER    (4) Unbound System's Energy  [=(2)] =   -3.90 kcal/mol
DOCKED: USER    
DOCKED: USER    
DOCKED: USER    NEWDPF move heme_opt.pdbqt
DOCKED: USER    NEWDPF about 0.153000 0.018000 -0.028000
DOCKED: USER    NEWDPF tran0 -7.977936 4.518287 16.851232
DOCKED: USER    NEWDPF quaternion0 0.908007 -0.182905 0.305339 -0.220994
DOCKED: USER    NEWDPF axisangle0 0.931026 -0.187542 0.313079 -154.465169
DOCKED: USER    NEWDPF quat0 0.931026 -0.187542 0.313079 -154.465169
DOCKED: USER    NEWDPF dihe0 93.53 179.91 -115.04 -18.45 179.85 11.95 165.35 -166.36 109.03 32.27 -62.87 -47.38 -14.29 
DOCKED: USER  keepresnum = 1 
DOCKED: USER  
DOCKED: REMARK  13 active torsions:
DOCKED: REMARK  status: ('A' for Active; 'I' for Inactive)
DOCKED: REMARK    1  A    between atoms: O_3  and  C_38 
DOCKED: REMARK    2  A    between atoms: O_4  and  C_40 
DOCKED: REMARK    3  A    between atoms: O_7  and  C_46 
DOCKED: REMARK    4  A    between atoms: O_9  and  C_48 
DOCKED: REMARK    5  A    between atoms: C_15  and  C_20 
DOCKED: REMARK    6  A    between atoms: C_16  and  C_23 
DOCKED: REMARK    7  A    between atoms: C_20  and  C_38 
DOCKED: REMARK    8  A    between atoms: C_23  and  C_40 
DOCKED: REMARK    9  A    between atoms: C_32  and  C_41 
DOCKED: REMARK   10  A    between atoms: C_37  and  C_45 
DOCKED: REMARK   11  A    between atoms: C_41  and  C_44 
DOCKED: REMARK   12  A    between atoms: C_44  and  C_46 
DOCKED: REMARK   13  A    between atoms: C_47  and  C_48 
DOCKED: USER                              x       y       z     vdW  Elec       q    Type
DOCKED: USER                           _______ _______ _______ _____ _____    ______ ____
DOCKED: ROOT
DOCKED: ATOM      1  O   UNL d   1     -12.649   3.881  13.312 -0.06 -0.00    -0.289 OA
DOCKED: ATOM      2  O   UNL d   1      -8.446   9.901  14.890 -0.11 -0.00    -0.289 OA
DOCKED: ATOM      3  N   UNL d   1     -10.057   3.806  15.585 -0.03 -0.05    -0.247 NA
DOCKED: ATOM      4  N   UNL d   1      -8.828   6.497  15.311 -0.15 -0.02    -0.247 NA
DOCKED: ATOM      5  N   UNL d   1      -6.571   5.516  16.796 -0.14 -0.01    -0.354 N 
DOCKED: ATOM      6  N   UNL d   1      -7.844   2.721  17.060 -0.16 -0.13    -0.354 N 
DOCKED: ATOM      7  C   UNL d   1     -11.551   2.125  14.610 -0.12 +0.01    +0.084 A 
DOCKED: ATOM      8  C   UNL d   1     -10.267   8.307  14.521 -0.14 +0.00    +0.084 A 
DOCKED: ATOM      9  C   UNL d   1     -10.075   6.817  14.821 -0.19 +0.00    +0.058 A 
DOCKED: ATOM     10  C   UNL d   1     -10.389   2.461  15.548 -0.17 +0.01    +0.058 A 
DOCKED: ATOM     11  C   UNL d   1     -11.830   3.520  14.136 -0.09 +0.01    +0.193 A 
DOCKED: ATOM     12  C   UNL d   1     -10.876   4.450  14.819 -0.07 +0.01    +0.109 A 
DOCKED: ATOM     13  C   UNL d   1      -8.887   8.768  14.896 -0.15 +0.00    +0.193 A 
DOCKED: ATOM     14  C   UNL d   1     -11.100   1.279  13.417 -0.27 +0.00    +0.026 C 
DOCKED: ATOM     15  C   UNL d   1     -11.023   5.899  14.577 -0.16 +0.00    +0.055 C 
DOCKED: ATOM     16  C   UNL d   1     -11.278   8.953  15.474 -0.05 -0.00    +0.026 C 
DOCKED: ATOM     17  C   UNL d   1      -8.112   7.574  15.351 -0.23 +0.00    +0.109 A 
DOCKED: ATOM     18  C   UNL d   1      -9.819   1.522  16.326 -0.18 +0.02    +0.050 C 
DOCKED: ATOM     19  C   UNL d   1      -8.798   1.755  17.283 -0.11 +0.02    +0.045 A 
DOCKED: ATOM     20  C   UNL d   1      -6.071   6.722  16.377 -0.26 -0.00    +0.045 A 
DOCKED: ATOM     21  C   UNL d   1      -6.702   7.715  15.743 -0.25 -0.00    +0.057 C 
DOCKED: ATOM     22  C   UNL d   1      -4.399   5.542  17.392 -0.36 +0.00    -0.019 A 
DOCKED: ATOM     23  C   UNL d   1      -5.635   4.735  17.420 -0.31 +0.00    +0.045 A 
DOCKED: ATOM     24  C   UNL d   1      -4.664   6.718  16.775 -0.36 +0.00    -0.022 A 
DOCKED: ATOM     25  C   UNL d   1      -6.905   2.715  18.065 -0.21 +0.01    +0.049 A 
DOCKED: ATOM     26  C   UNL d   1      -8.493   1.130  18.482 -0.10 -0.01    -0.018 A 
DOCKED: ATOM     27  C   UNL d   1      -7.308   1.753  18.981 -0.14 +0.00    +0.003 A 
DOCKED: ATOM     28  C   UNL d   1      -5.736   3.518  17.976 -0.21 +0.01    +0.052 C 
DOCKED: ATOM     29  C   UNL d   1      -3.745   7.864  16.515 -0.29 -0.01    +0.046 C 
DOCKED: ATOM     30  C   UNL d   1      -9.255   0.022  19.128 -0.08 +0.01    +0.046 C 
DOCKED: ATOM     31  H   UNL d   1      -7.557   5.296  16.708 +0.06 +0.01    +0.166 HD
DOCKED: ATOM     32  H   UNL d   1      -7.830   3.316  16.240 +0.05 +0.05    +0.166 HD
DOCKED: ENDROOT
DOCKED: BRANCH   7  33
DOCKED: ATOM     33  C   UNL d   1     -12.790   1.529  15.286 -0.03 +0.01    +0.141 C 
DOCKED: BRANCH  33  34
DOCKED: ATOM     34  C   UNL d   1     -14.045   1.734  14.480 -0.00 -0.00    +0.306 C 
DOCKED: ATOM     35  O   UNL d   1     -15.078   2.246  14.875 -0.00 +0.01    -0.251 OA
DOCKED: BRANCH  34  36
DOCKED: ATOM     36  O   UNL d   1     -13.930   1.284  13.218 +0.01 +0.02    -0.481 OA
DOCKED: ATOM     37  H   UNL d   1     -13.577   2.049  12.715 +0.04 -0.01    +0.295 HD
DOCKED: ENDBRANCH  34  36
DOCKED: ENDBRANCH  33  34
DOCKED: ENDBRANCH   7  33
DOCKED: BRANCH  27  38
DOCKED: ATOM     38  C   UNL d   1      -6.638   1.398  20.196 -0.10 +0.00    +0.017 C 
DOCKED: ATOM     39  C   UNL d   1      -5.424   1.835  20.567 -0.09 -0.01    +0.092 C 
DOCKED: BRANCH  39  40
DOCKED: ATOM     40  C   UNL d   1      -4.855   1.409  21.848 -0.02 -0.09    +0.330 C 
DOCKED: ATOM     41  O   UNL d   1      -5.274   0.548  22.598 -0.01 +0.05    -0.246 OA
DOCKED: BRANCH  40  42
DOCKED: ATOM     42  O   UNL d   1      -3.745   2.113  22.117 -0.03 +0.26    -0.477 OA
DOCKED: ATOM     43  H   UNL d   1      -3.653   2.711  21.347 +0.04 -0.17    +0.295 HD
DOCKED: ENDBRANCH  40  42
DOCKED: ENDBRANCH  39  40
DOCKED: ENDBRANCH  27  38
DOCKED: BRANCH   8  44
DOCKED: ATOM     44  C   UNL d   1     -10.583   8.652  13.062 -0.18 +0.00    +0.141 C 
DOCKED: BRANCH  44  45
DOCKED: ATOM     45  C   UNL d   1     -10.248   7.541  12.103 -0.25 +0.02    +0.306 C 
DOCKED: ATOM     46  O   UNL d   1     -11.019   6.977  11.346 -0.19 -0.01    -0.251 OA
DOCKED: BRANCH  45  47
DOCKED: ATOM     47  O   UNL d   1      -8.955   7.177  12.168 -0.57 -0.15    -0.481 OA
DOCKED: ATOM     48  H   UNL d   1      -8.843   6.819  13.074 +0.13 +0.09    +0.295 HD
DOCKED: ENDBRANCH  45  47
DOCKED: ENDBRANCH  44  45
DOCKED: ENDBRANCH   8  44
DOCKED: BRANCH  22  49
DOCKED: ATOM     49  C   UNL d   1      -3.083   5.088  17.952 -0.27 -0.01    +0.048 C 
DOCKED: BRANCH  49  50
DOCKED: ATOM     50  C   UNL d   1      -2.841   5.642  19.356 -0.17 -0.03    +0.125 C 
DOCKED: BRANCH  50  51
DOCKED: ATOM     51  C   UNL d   1      -2.728   4.529  20.359 -0.12 -0.16    +0.305 C 
DOCKED: ATOM     52  O   UNL d   1      -2.661   4.626  21.572 -0.08 +0.14    -0.251 OA
DOCKED: BRANCH  51  53
DOCKED: ATOM     53  O   UNL d   1      -2.693   3.318  19.768 -0.13 +0.35    -0.481 OA
DOCKED: ATOM     54  H   UNL d   1      -2.316   2.729  20.454 -0.43 -0.46    +0.295 HD
DOCKED: ENDBRANCH  51  53
DOCKED: ENDBRANCH  50  51
DOCKED: ENDBRANCH  49  50
DOCKED: ENDBRANCH  22  49
DOCKED: TORSDOF 13
DOCKED: TER
DOCKED: ENDMDL
________________________________________________________________________________


	BEGINNING GENETIC ALGORITHM DOCKING 55 of 100
Run: 55 Seed: 1936622853 418610591 [ Run 55 of 100 GA/GALS ]
Beginning LAMARCKIAN GENETIC ALGORITHM (LGA), with a maximum of 25000000 energy evaluations.

Final-Value: -11.161


	FINAL GENETIC ALGORITHM DOCKED STATE
	_______________________________________________


Detailed state:  trans -10.304 -10.273 4.035 quatxyzw 0.896615 -0.056591 -0.410401 0.156367 center 0.153 0.018 -0.028 ntor 13 106.4883 121.2188 -71.6029 147.9712 -139.3685 0.4564 -179.9692 -78.7681 45.9043 -104.0010 5.9918 64.1874 -178.5370
State:	-10.304 -10.273   4.035   0.908 -0.057 -0.416 162.008    106.49  121.22  -71.60  147.97 -139.37    0.46 -179.97  -78.77   45.90 -104.00    5.99   64.19 -178.54

DOCKED: MODEL       55
DOCKED: USER    Run = 55
DOCKED: USER    DPF = D:/Protein_go_brrr/autodock/final/mut_N102T/heme/dock.dpf
DOCKED: USER  
DOCKED: USER    Estimated Free Energy of Binding    =   -5.13 kcal/mol  [=(1)+(2)+(3)-(4)]
DOCKED: USER    Estimated Inhibition Constant, Ki   =  174.69 uM (micromolar)  [Temperature = 298.15 K]
DOCKED: USER    
DOCKED: USER    (1) Final Intermolecular Energy     =   -9.00 kcal/mol
DOCKED: USER        vdW + Hbond + desolv Energy     =   -8.64 kcal/mol
DOCKED: USER        Electrostatic Energy            =   -0.37 kcal/mol
DOCKED: USER    (2) Final Total Internal Energy     =   -2.16 kcal/mol
DOCKED: USER    (3) Torsional Free Energy           =   +3.88 kcal/mol
DOCKED: USER    (4) Unbound System's Energy  [=(2)] =   -2.16 kcal/mol
DOCKED: USER    
DOCKED: USER    
DOCKED: USER    NEWDPF move heme_opt.pdbqt
DOCKED: USER    NEWDPF about 0.153000 0.018000 -0.028000
DOCKED: USER    NEWDPF tran0 -10.303781 -10.272683 4.035183
DOCKED: USER    NEWDPF quaternion0 0.896615 -0.056591 -0.410401 0.156367
DOCKED: USER    NEWDPF axisangle0 0.907781 -0.057295 -0.415512 162.007809
DOCKED: USER    NEWDPF quat0 0.907781 -0.057295 -0.415512 162.007809
DOCKED: USER    NEWDPF dihe0 106.49 121.22 -71.60 147.97 -139.37 0.46 -179.97 -78.77 45.90 -104.00 5.99 64.19 -178.54 
DOCKED: USER  keepresnum = 1 
DOCKED: USER  
DOCKED: REMARK  13 active torsions:
DOCKED: REMARK  status: ('A' for Active; 'I' for Inactive)
DOCKED: REMARK    1  A    between atoms: O_3  and  C_38 
DOCKED: REMARK    2  A    between atoms: O_4  and  C_40 
DOCKED: REMARK    3  A    between atoms: O_7  and  C_46 
DOCKED: REMARK    4  A    between atoms: O_9  and  C_48 
DOCKED: REMARK    5  A    between atoms: C_15  and  C_20 
DOCKED: REMARK    6  A    between atoms: C_16  and  C_23 
DOCKED: REMARK    7  A    between atoms: C_20  and  C_38 
DOCKED: REMARK    8  A    between atoms: C_23  and  C_40 
DOCKED: REMARK    9  A    between atoms: C_32  and  C_41 
DOCKED: REMARK   10  A    between atoms: C_37  and  C_45 
DOCKED: REMARK   11  A    between atoms: C_41  and  C_44 
DOCKED: REMARK   12  A    between atoms: C_44  and  C_46 
DOCKED: REMARK   13  A    between atoms: C_47  and  C_48 
DOCKED: USER                              x       y       z     vdW  Elec       q    Type
DOCKED: USER                           _______ _______ _______ _____ _____    ______ ____
DOCKED: ROOT
DOCKED: ATOM      1  O   UNL d   1     -14.842 -11.807   7.471 -0.01 +0.03    -0.289 OA
DOCKED: ATOM      2  O   UNL d   1      -9.801  -6.282   8.141 -0.40 +0.36    -0.289 OA
DOCKED: ATOM      3  N   UNL d   1     -12.241 -11.372   5.248 -0.02 +0.04    -0.247 NA
DOCKED: ATOM      4  N   UNL d   1     -11.002  -8.822   6.137 -0.08 +0.06    -0.247 NA
DOCKED: ATOM      5  N   UNL d   1      -9.559  -8.764   3.651 -0.06 +0.06    -0.354 N 
DOCKED: ATOM      6  N   UNL d   1     -10.863 -11.400   2.729 -0.06 +0.02    -0.354 N 
DOCKED: ATOM      7  C   UNL d   1     -14.194 -12.849   5.357 -0.05 -0.01    +0.084 A 
DOCKED: ATOM      8  C   UNL d   1     -11.276  -8.205   8.486 -0.12 -0.03    +0.084 A 
DOCKED: ATOM      9  C   UNL d   1     -11.609  -9.152   7.328 -0.10 -0.01    +0.058 A 
DOCKED: ATOM     10  C   UNL d   1     -12.938 -12.386   4.613 -0.09 -0.01    +0.058 A 
DOCKED: ATOM     11  C   UNL d   1     -14.074 -11.930   6.535 -0.03 -0.03    +0.193 A 
DOCKED: ATOM     12  C   UNL d   1     -12.837 -11.103   6.364 -0.06 -0.02    +0.109 A 
DOCKED: ATOM     13  C   UNL d   1     -10.397  -7.255   7.722 -0.23 -0.11    +0.193 A 
DOCKED: ATOM     14  C   UNL d   1     -15.474 -12.508   4.590 -0.01 -0.00    +0.026 C 
DOCKED: ATOM     15  C   UNL d   1     -12.460 -10.182   7.455 -0.08 -0.01    +0.055 C 
DOCKED: ATOM     16  C   UNL d   1     -10.433  -8.898   9.561 -0.21 -0.01    +0.026 C 
DOCKED: ATOM     17  C   UNL d   1     -10.319  -7.736   6.310 -0.24 -0.04    +0.109 A 
DOCKED: ATOM     18  C   UNL d   1     -12.523 -12.996   3.486 -0.12 -0.01    +0.050 C 
DOCKED: ATOM     19  C   UNL d   1     -11.332 -12.693   2.778 -0.09 -0.00    +0.045 A 
DOCKED: ATOM     20  C   UNL d   1      -9.273  -7.507   4.119 -0.30 -0.02    +0.045 A 
DOCKED: ATOM     21  C   UNL d   1      -9.556  -6.972   5.311 -0.31 -0.03    +0.057 C 
DOCKED: ATOM     22  C   UNL d   1      -8.473  -7.701   1.988 -0.31 +0.00    -0.019 A 
DOCKED: ATOM     23  C   UNL d   1      -9.116  -8.974   2.373 -0.20 -0.01    +0.045 A 
DOCKED: ATOM     24  C   UNL d   1      -8.569  -6.838   3.027 -0.40 +0.01    -0.022 A 
DOCKED: ATOM     25  C   UNL d   1      -9.755 -11.318   1.918 -0.17 -0.00    +0.049 A 
DOCKED: ATOM     26  C   UNL d   1     -10.486 -13.478   2.010 -0.10 +0.00    -0.018 A 
DOCKED: ATOM     27  C   UNL d   1      -9.481 -12.609   1.486 -0.18 -0.00    +0.003 A 
DOCKED: ATOM     28  C   UNL d   1      -9.185 -10.059   1.587 -0.21 -0.01    +0.052 C 
DOCKED: ATOM     29  C   UNL d   1      -8.063  -5.439   3.126 -0.24 -0.02    +0.046 C 
DOCKED: ATOM     30  C   UNL d   1     -10.601 -14.947   1.778 -0.13 -0.00    +0.046 C 
DOCKED: ATOM     31  H   UNL d   1      -9.984  -9.464   4.250 +0.07 -0.02    +0.166 HD
DOCKED: ATOM     32  H   UNL d   1     -11.312 -10.622   3.198 +0.03 -0.01    +0.166 HD
DOCKED: ENDROOT
DOCKED: BRANCH   7  33
DOCKED: ATOM     33  C   UNL d   1     -14.185 -14.312   5.814 -0.06 -0.02    +0.141 C 
DOCKED: BRANCH  33  34
DOCKED: ATOM     34  C   UNL d   1     -13.688 -14.475   7.224 -0.06 -0.05    +0.306 C 
DOCKED: ATOM     35  O   UNL d   1     -12.522 -14.571   7.571 -0.22 +0.05    -0.251 OA
DOCKED: BRANCH  34  36
DOCKED: ATOM     36  O   UNL d   1     -14.685 -14.507   8.126 +0.01 +0.06    -0.481 OA
DOCKED: ATOM     37  H   UNL d   1     -14.971 -13.573   8.211 +0.02 -0.04    +0.295 HD
DOCKED: ENDBRANCH  34  36
DOCKED: ENDBRANCH  33  34
DOCKED: ENDBRANCH   7  33
DOCKED: BRANCH  27  38
DOCKED: ATOM     38  C   UNL d   1      -8.410 -13.010   0.624 -0.27 +0.00    +0.017 C 
DOCKED: ATOM     39  C   UNL d   1      -7.283 -13.619   1.021 -0.35 +0.01    +0.092 C 
DOCKED: BRANCH  39  40
DOCKED: ATOM     40  C   UNL d   1      -6.269 -13.994   0.032 -0.20 +0.12    +0.330 C 
DOCKED: ATOM     41  O   UNL d   1      -6.316 -13.847  -1.175 -0.26 -0.15    -0.246 OA
DOCKED: BRANCH  40  42
DOCKED: ATOM     42  O   UNL d   1      -5.210 -14.547   0.643 -0.16 -0.18    -0.477 OA
DOCKED: ATOM     43  H   UNL d   1      -4.902 -13.848   1.257 -0.29 -0.03    +0.295 HD
DOCKED: ENDBRANCH  40  42
DOCKED: ENDBRANCH  39  40
DOCKED: ENDBRANCH  27  38
DOCKED: BRANCH   8  44
DOCKED: ATOM     44  C   UNL d   1     -12.470  -7.472   9.104 -0.05 -0.05    +0.141 C 
DOCKED: BRANCH  44  45
DOCKED: ATOM     45  C   UNL d   1     -12.097  -6.161   9.744 -0.07 -0.19    +0.306 C 
DOCKED: ATOM     46  O   UNL d   1     -12.697  -5.106   9.642 -0.06 +0.14    -0.251 OA
DOCKED: BRANCH  45  47
DOCKED: ATOM     47  O   UNL d   1     -10.962  -6.244  10.462 -0.07 +0.50    -0.481 OA
DOCKED: ATOM     48  H   UNL d   1     -10.295  -5.761   9.929 -0.36 -0.58    +0.295 HD
DOCKED: ENDBRANCH  45  47
DOCKED: ENDBRANCH  44  45
DOCKED: ENDBRANCH   8  44
DOCKED: BRANCH  22  49
DOCKED: ATOM     49  C   UNL d   1      -7.845  -7.445   0.650 -0.19 -0.01    +0.048 C 
DOCKED: BRANCH  49  50
DOCKED: ATOM     50  C   UNL d   1      -8.790  -6.692  -0.287 -0.28 -0.01    +0.125 C 
DOCKED: BRANCH  50  51
DOCKED: ATOM     51  C   UNL d   1      -8.208  -6.592  -1.669 -0.25 -0.01    +0.305 C 
DOCKED: ATOM     52  O   UNL d   1      -7.428  -5.756  -2.088 -0.33 -0.02    -0.251 OA
DOCKED: BRANCH  51  53
DOCKED: ATOM     53  O   UNL d   1      -8.661  -7.571  -2.478 -0.21 +0.03    -0.481 OA
DOCKED: ATOM     54  H   UNL d   1      -8.795  -8.334  -1.878 -0.41 -0.10    +0.295 HD
DOCKED: ENDBRANCH  51  53
DOCKED: ENDBRANCH  50  51
DOCKED: ENDBRANCH  49  50
DOCKED: ENDBRANCH  22  49
DOCKED: TORSDOF 13
DOCKED: TER
DOCKED: ENDMDL
________________________________________________________________________________


	BEGINNING GENETIC ALGORITHM DOCKING 56 of 100
Run: 56 Seed: 876628024 717032344 [ Run 56 of 100 GA/GALS ]
Beginning LAMARCKIAN GENETIC ALGORITHM (LGA), with a maximum of 25000000 energy evaluations.

Final-Value: -12.309


	FINAL GENETIC ALGORITHM DOCKED STATE
	_______________________________________________


Detailed state:  trans 6.551 -5.587 15.702 quatxyzw -0.360043 0.204064 -0.504728 -0.757613 center 0.153 0.018 -0.028 ntor 13 -121.4277 -154.8831 -100.4373 -5.1770 64.1045 -50.5824 -180.0000 -18.6288 22.3609 20.8976 64.1402 -42.3860 122.8010
State:	  6.551  -5.587  15.702  -0.552  0.313 -0.773 -81.492   -121.43 -154.88 -100.44   -5.18   64.10  -50.58 -180.00  -18.63   22.36   20.90   64.14  -42.39  122.80

DOCKED: MODEL       56
DOCKED: USER    Run = 56
DOCKED: USER    DPF = D:/Protein_go_brrr/autodock/final/mut_N102T/heme/dock.dpf
DOCKED: USER  
DOCKED: USER    Estimated Free Energy of Binding    =   -4.69 kcal/mol  [=(1)+(2)+(3)-(4)]
DOCKED: USER    Estimated Inhibition Constant, Ki   =  363.78 uM (micromolar)  [Temperature = 298.15 K]
DOCKED: USER    
DOCKED: USER    (1) Final Intermolecular Energy     =   -8.57 kcal/mol
DOCKED: USER        vdW + Hbond + desolv Energy     =   -8.42 kcal/mol
DOCKED: USER        Electrostatic Energy            =   -0.15 kcal/mol
DOCKED: USER    (2) Final Total Internal Energy     =   -3.74 kcal/mol
DOCKED: USER    (3) Torsional Free Energy           =   +3.88 kcal/mol
DOCKED: USER    (4) Unbound System's Energy  [=(2)] =   -3.74 kcal/mol
DOCKED: USER    
DOCKED: USER    
DOCKED: USER    NEWDPF move heme_opt.pdbqt
DOCKED: USER    NEWDPF about 0.153000 0.018000 -0.028000
DOCKED: USER    NEWDPF tran0 6.551316 -5.587000 15.702124
DOCKED: USER    NEWDPF quaternion0 -0.360043 0.204064 -0.504728 -0.757613
DOCKED: USER    NEWDPF axisangle0 -0.551618 0.312644 -0.773286 -81.491647
DOCKED: USER    NEWDPF quat0 -0.551618 0.312644 -0.773286 -81.491647
DOCKED: USER    NEWDPF dihe0 -121.43 -154.88 -100.44 -5.18 64.10 -50.58 -180.00 -18.63 22.36 20.90 64.14 -42.39 122.80 
DOCKED: USER  keepresnum = 1 
DOCKED: USER  
DOCKED: REMARK  13 active torsions:
DOCKED: REMARK  status: ('A' for Active; 'I' for Inactive)
DOCKED: REMARK    1  A    between atoms: O_3  and  C_38 
DOCKED: REMARK    2  A    between atoms: O_4  and  C_40 
DOCKED: REMARK    3  A    between atoms: O_7  and  C_46 
DOCKED: REMARK    4  A    between atoms: O_9  and  C_48 
DOCKED: REMARK    5  A    between atoms: C_15  and  C_20 
DOCKED: REMARK    6  A    between atoms: C_16  and  C_23 
DOCKED: REMARK    7  A    between atoms: C_20  and  C_38 
DOCKED: REMARK    8  A    between atoms: C_23  and  C_40 
DOCKED: REMARK    9  A    between atoms: C_32  and  C_41 
DOCKED: REMARK   10  A    between atoms: C_37  and  C_45 
DOCKED: REMARK   11  A    between atoms: C_41  and  C_44 
DOCKED: REMARK   12  A    between atoms: C_44  and  C_46 
DOCKED: REMARK   13  A    between atoms: C_47  and  C_48 
DOCKED: USER                              x       y       z     vdW  Elec       q    Type
DOCKED: USER                           _______ _______ _______ _____ _____    ______ ____
DOCKED: ROOT
DOCKED: ATOM      1  O   UNL d   1       5.746   0.139  14.554 -0.37 +0.04    -0.289 OA
DOCKED: ATOM      2  O   UNL d   1       1.413  -4.821  18.162 -0.14 +0.08    -0.289 OA
DOCKED: ATOM      3  N   UNL d   1       6.583  -3.192  14.869 -0.07 -0.01    -0.247 NA
DOCKED: ATOM      4  N   UNL d   1       4.472  -4.260  16.665 -0.11 +0.03    -0.247 NA
DOCKED: ATOM      5  N   UNL d   1       6.084  -6.616  17.007 -0.09 +0.01    -0.354 N 
DOCKED: ATOM      6  N   UNL d   1       8.279  -5.492  15.157 -0.04 -0.05    -0.354 N 
DOCKED: ATOM      7  C   UNL d   1       7.709  -1.201  13.986 -0.18 +0.01    +0.084 A 
DOCKED: ATOM      8  C   UNL d   1       2.321  -3.100  16.677 -0.31 -0.02    +0.084 A 
DOCKED: ATOM      9  C   UNL d   1       3.776  -3.168  16.199 -0.26 -0.01    +0.058 A 
DOCKED: ATOM     10  C   UNL d   1       7.740  -2.703  14.284 -0.11 +0.01    +0.058 A 
DOCKED: ATOM     11  C   UNL d   1       6.324  -0.930  14.490 -0.23 -0.01    +0.193 A 
DOCKED: ATOM     12  C   UNL d   1       5.737  -2.220  14.975 -0.18 -0.01    +0.109 A 
DOCKED: ATOM     13  C   UNL d   1       2.332  -4.336  17.531 -0.17 -0.05    +0.193 A 
DOCKED: ATOM     14  C   UNL d   1       8.709  -0.425  14.847 -0.18 +0.01    +0.026 C 
DOCKED: ATOM     15  C   UNL d   1       4.333  -2.216  15.435 -0.19 -0.01    +0.055 C 
DOCKED: ATOM     16  C   UNL d   1       1.334  -3.307  15.524 -0.45 -0.01    +0.026 C 
DOCKED: ATOM     17  C   UNL d   1       3.695  -4.943  17.444 -0.21 -0.02    +0.109 A 
DOCKED: ATOM     18  C   UNL d   1       8.781  -3.473  13.913 -0.09 +0.01    +0.050 C 
DOCKED: ATOM     19  C   UNL d   1       8.860  -4.880  14.070 -0.09 +0.01    +0.045 A 
DOCKED: ATOM     20  C   UNL d   1       5.134  -6.840  17.969 -0.17 -0.01    +0.045 A 
DOCKED: ATOM     21  C   UNL d   1       4.016  -6.151  18.219 -0.21 -0.01    +0.057 C 
DOCKED: ATOM     22  C   UNL d   1       6.759  -8.435  18.151 -0.19 -0.00    -0.019 A 
DOCKED: ATOM     23  C   UNL d   1       7.105  -7.528  17.038 -0.21 +0.00    +0.045 A 
DOCKED: ATOM     24  C   UNL d   1       5.591  -8.023  18.698 -0.17 +0.00    -0.022 A 
DOCKED: ATOM     25  C   UNL d   1       8.554  -6.839  15.158 -0.15 +0.01    +0.049 A 
DOCKED: ATOM     26  C   UNL d   1       9.498  -5.860  13.325 -0.12 -0.01    -0.018 A 
DOCKED: ATOM     27  C   UNL d   1       9.285  -7.098  14.006 -0.17 +0.00    +0.003 A 
DOCKED: ATOM     28  C   UNL d   1       8.193  -7.657  16.263 -0.20 +0.01    +0.052 C 
DOCKED: ATOM     29  C   UNL d   1       4.830  -8.618  19.833 -0.14 -0.01    +0.046 C 
DOCKED: ATOM     30  C   UNL d   1      10.258  -5.662  12.058 -0.12 +0.03    +0.046 C 
DOCKED: ATOM     31  H   UNL d   1       5.966  -5.889  16.310 +0.07 -0.00    +0.166 HD
DOCKED: ATOM     32  H   UNL d   1       7.759  -4.993  15.869 +0.03 +0.01    +0.166 HD
DOCKED: ENDROOT
DOCKED: BRANCH   7  33
DOCKED: ATOM     33  C   UNL d   1       7.827  -0.822  12.506 -0.27 +0.02    +0.141 C 
DOCKED: BRANCH  33  34
DOCKED: ATOM     34  C   UNL d   1       6.600  -1.187  11.715 -0.19 +0.02    +0.306 C 
DOCKED: ATOM     35  O   UNL d   1       5.868  -0.413  11.122 -0.21 +0.01    -0.251 OA
DOCKED: BRANCH  34  36
DOCKED: ATOM     36  O   UNL d   1       6.362  -2.511  11.710 -0.08 -0.06    -0.481 OA
DOCKED: ATOM     37  H   UNL d   1       6.307  -2.755  12.659 +0.14 +0.02    +0.295 HD
DOCKED: ENDBRANCH  34  36
DOCKED: ENDBRANCH  33  34
DOCKED: ENDBRANCH   7  33
DOCKED: BRANCH  27  38
DOCKED: ATOM     38  C   UNL d   1       9.790  -8.370  13.584 -0.17 +0.01    +0.017 C 
DOCKED: ATOM     39  C   UNL d   1       9.683  -9.514  14.277 -0.18 +0.06    +0.092 C 
DOCKED: BRANCH  39  40
DOCKED: ATOM     40  C   UNL d   1      10.229 -10.756  13.724 -0.05 +0.38    +0.330 C 
DOCKED: ATOM     41  O   UNL d   1      10.015 -11.239  12.628 -0.52 -0.26    -0.246 OA
DOCKED: BRANCH  40  42
DOCKED: ATOM     42  O   UNL d   1      11.052 -11.335  14.612 -0.14 -0.67    -0.477 OA
DOCKED: ATOM     43  H   UNL d   1      10.738 -10.999  15.476 +0.03 +0.39    +0.295 HD
DOCKED: ENDBRANCH  40  42
DOCKED: ENDBRANCH  39  40
DOCKED: ENDBRANCH  27  38
DOCKED: BRANCH   8  44
DOCKED: ATOM     44  C   UNL d   1       1.955  -1.864  17.505 -0.32 -0.05    +0.141 C 
DOCKED: BRANCH  44  45
DOCKED: ATOM     45  C   UNL d   1       3.118  -1.300  18.277 -0.20 -0.11    +0.306 C 
DOCKED: ATOM     46  O   UNL d   1       3.420  -0.124  18.380 -0.41 +0.09    -0.251 OA
DOCKED: BRANCH  45  47
DOCKED: ATOM     47  O   UNL d   1       3.861  -2.258  18.861 +0.01 +0.12    -0.481 OA
DOCKED: ATOM     48  H   UNL d   1       4.416  -2.617  18.137 +0.10 -0.05    +0.295 HD
DOCKED: ENDBRANCH  45  47
DOCKED: ENDBRANCH  44  45
DOCKED: ENDBRANCH   8  44
DOCKED: BRANCH  22  49
DOCKED: ATOM     49  C   UNL d   1       7.601  -9.599  18.583 -0.15 +0.01    +0.048 C 
DOCKED: BRANCH  49  50
DOCKED: ATOM     50  C   UNL d   1       9.094  -9.271  18.533 -0.06 +0.03    +0.125 C 
DOCKED: BRANCH  50  51
DOCKED: ATOM     51  C   UNL d   1       9.794 -10.113  17.504 -0.08 +0.15    +0.305 C 
DOCKED: ATOM     52  O   UNL d   1       9.452 -11.203  17.078 -0.45 -0.26    -0.251 OA
DOCKED: BRANCH  51  53
DOCKED: ATOM     53  O   UNL d   1      10.925  -9.531  17.061 -0.01 -0.18    -0.481 OA
DOCKED: ATOM     54  H   UNL d   1      11.328 -10.207  16.477 +0.03 +0.16    +0.295 HD
DOCKED: ENDBRANCH  51  53
DOCKED: ENDBRANCH  50  51
DOCKED: ENDBRANCH  49  50
DOCKED: ENDBRANCH  22  49
DOCKED: TORSDOF 13
DOCKED: TER
DOCKED: ENDMDL
________________________________________________________________________________


	BEGINNING GENETIC ALGORITHM DOCKING 57 of 100
Run: 57 Seed: 841905228 1047871831 [ Run 57 of 100 GA/GALS ]
Beginning LAMARCKIAN GENETIC ALGORITHM (LGA), with a maximum of 25000000 energy evaluations.

Final-Value: -12.097


	FINAL GENETIC ALGORITHM DOCKED STATE
	_______________________________________________


Detailed state:  trans -8.508 11.084 11.577 quatxyzw 0.455725 -0.360640 -0.808167 -0.095497 center 0.153 0.018 -0.028 ntor 13 -180.0000 108.7192 -110.2866 -69.4519 -159.0236 11.2941 122.4036 35.5164 2.5698 -26.2076 -80.6649 -16.3414 -8.6546
State:	 -8.508  11.084  11.577   0.458 -0.362 -0.812 -169.040   -180.00  108.72 -110.29  -69.45 -159.02   11.29  122.40   35.52    2.57  -26.21  -80.66  -16.34   -8.65

DOCKED: MODEL       57
DOCKED: USER    Run = 57
DOCKED: USER    DPF = D:/Protein_go_brrr/autodock/final/mut_N102T/heme/dock.dpf
DOCKED: USER  
DOCKED: USER    Estimated Free Energy of Binding    =   -3.53 kcal/mol  [=(1)+(2)+(3)-(4)]
DOCKED: USER    Estimated Inhibition Constant, Ki   =    2.56 mM (millimolar)  [Temperature = 298.15 K]
DOCKED: USER    
DOCKED: USER    (1) Final Intermolecular Energy     =   -7.41 kcal/mol
DOCKED: USER        vdW + Hbond + desolv Energy     =   -7.35 kcal/mol
DOCKED: USER        Electrostatic Energy            =   -0.06 kcal/mol
DOCKED: USER    (2) Final Total Internal Energy     =   -4.68 kcal/mol
DOCKED: USER    (3) Torsional Free Energy           =   +3.88 kcal/mol
DOCKED: USER    (4) Unbound System's Energy  [=(2)] =   -4.68 kcal/mol
DOCKED: USER    
DOCKED: USER    
DOCKED: USER    NEWDPF move heme_opt.pdbqt
DOCKED: USER    NEWDPF about 0.153000 0.018000 -0.028000
DOCKED: USER    NEWDPF tran0 -8.507745 11.084035 11.577344
DOCKED: USER    NEWDPF quaternion0 0.455725 -0.360640 -0.808167 -0.095497
DOCKED: USER    NEWDPF axisangle0 0.457817 -0.362296 -0.811878 -169.040159
DOCKED: USER    NEWDPF quat0 0.457817 -0.362296 -0.811878 -169.040159
DOCKED: USER    NEWDPF dihe0 -180.00 108.72 -110.29 -69.45 -159.02 11.29 122.40 35.52 2.57 -26.21 -80.66 -16.34 -8.65 
DOCKED: USER  keepresnum = 1 
DOCKED: USER  
DOCKED: REMARK  13 active torsions:
DOCKED: REMARK  status: ('A' for Active; 'I' for Inactive)
DOCKED: REMARK    1  A    between atoms: O_3  and  C_38 
DOCKED: REMARK    2  A    between atoms: O_4  and  C_40 
DOCKED: REMARK    3  A    between atoms: O_7  and  C_46 
DOCKED: REMARK    4  A    between atoms: O_9  and  C_48 
DOCKED: REMARK    5  A    between atoms: C_15  and  C_20 
DOCKED: REMARK    6  A    between atoms: C_16  and  C_23 
DOCKED: REMARK    7  A    between atoms: C_20  and  C_38 
DOCKED: REMARK    8  A    between atoms: C_23  and  C_40 
DOCKED: REMARK    9  A    between atoms: C_32  and  C_41 
DOCKED: REMARK   10  A    between atoms: C_37  and  C_45 
DOCKED: REMARK   11  A    between atoms: C_41  and  C_44 
DOCKED: REMARK   12  A    between atoms: C_44  and  C_46 
DOCKED: REMARK   13  A    between atoms: C_47  and  C_48 
DOCKED: USER                              x       y       z     vdW  Elec       q    Type
DOCKED: USER                           _______ _______ _______ _____ _____    ______ ____
DOCKED: ROOT
DOCKED: ATOM      1  O   UNL d   1      -6.146  12.897  16.666 -0.02 +0.04    -0.289 OA
DOCKED: ATOM      2  O   UNL d   1      -4.886  15.082   9.592 -0.19 +0.02    -0.289 OA
DOCKED: ATOM      3  N   UNL d   1      -7.693  11.431  13.954 +0.10 +0.00    -0.247 NA
DOCKED: ATOM      4  N   UNL d   1      -6.822  13.124  11.673 -0.09 +0.03    -0.247 NA
DOCKED: ATOM      5  N   UNL d   1      -8.865  11.872  10.084 -0.07 +0.05    -0.354 N 
DOCKED: ATOM      6  N   UNL d   1      -9.775  10.133  12.461 -0.03 -0.01    -0.354 N 
DOCKED: ATOM      7  C   UNL d   1      -7.902  11.219  16.387 -0.05 -0.01    +0.084 A 
DOCKED: ATOM      8  C   UNL d   1      -4.699  14.311  11.908 -0.28 -0.01    +0.084 A 
DOCKED: ATOM      9  C   UNL d   1      -5.788  13.429  12.529 -0.20 -0.01    +0.058 A 
DOCKED: ATOM     10  C   UNL d   1      -8.361  10.797  14.988 -0.10 -0.00    +0.058 A 
DOCKED: ATOM     11  C   UNL d   1      -6.844  12.191  15.960 -0.05 -0.02    +0.193 A 
DOCKED: ATOM     12  C   UNL d   1      -6.796  12.211  14.464 -0.10 -0.01    +0.109 A 
DOCKED: ATOM     13  C   UNL d   1      -5.326  14.481  10.553 -0.22 -0.02    +0.193 A 
DOCKED: ATOM     14  C   UNL d   1      -8.994  11.978  17.145 -0.02 -0.00    +0.026 C 
DOCKED: ATOM     15  C   UNL d   1      -5.758  13.034  13.811 -0.20 -0.01    +0.055 C 
DOCKED: ATOM     16  C   UNL d   1      -3.378  13.554  11.749 -0.61 -0.00    +0.026 C 
DOCKED: ATOM     17  C   UNL d   1      -6.611  13.719  10.543 -0.20 -0.02    +0.109 A 
DOCKED: ATOM     18  C   UNL d   1      -9.273   9.823  14.812 -0.15 -0.00    +0.050 C 
DOCKED: ATOM     19  C   UNL d   1      -9.696   9.308  13.560 -0.17 +0.00    +0.045 A 
DOCKED: ATOM     20  C   UNL d   1      -8.487  12.878   9.232 -0.23 -0.01    +0.045 A 
DOCKED: ATOM     21  C   UNL d   1      -7.471  13.738   9.350 -0.23 -0.01    +0.057 C 
DOCKED: ATOM     22  C   UNL d   1     -10.319  11.824   8.364 -0.17 +0.00    -0.019 A 
DOCKED: ATOM     23  C   UNL d   1      -9.962  11.180   9.644 -0.20 -0.01    +0.045 A 
DOCKED: ATOM     24  C   UNL d   1      -9.441  12.827   8.125 -0.18 +0.00    -0.022 A 
DOCKED: ATOM     25  C   UNL d   1     -10.291   9.453  11.382 -0.14 +0.00    +0.049 A 
DOCKED: ATOM     26  C   UNL d   1     -10.137   8.051  13.176 -0.28 -0.00    -0.018 A 
DOCKED: ATOM     27  C   UNL d   1     -10.492   8.143  11.795 -0.28 +0.00    +0.003 A 
DOCKED: ATOM     28  C   UNL d   1     -10.613  10.134  10.177 -0.20 -0.00    +0.052 C 
DOCKED: ATOM     29  C   UNL d   1      -9.380  13.755   6.960 -0.12 -0.00    +0.046 C 
DOCKED: ATOM     30  C   UNL d   1     -10.221   6.836  14.037 -0.26 +0.00    +0.046 C 
DOCKED: ATOM     31  H   UNL d   1      -8.314  11.643  10.904 +0.09 -0.01    +0.166 HD
DOCKED: ATOM     32  H   UNL d   1      -9.522  11.114  12.477 +0.03 -0.00    +0.166 HD
DOCKED: ENDROOT
DOCKED: BRANCH   7  33
DOCKED: ATOM     33  C   UNL d   1      -7.294  10.104  17.244 -0.06 -0.01    +0.141 C 
DOCKED: BRANCH  33  34
DOCKED: ATOM     34  C   UNL d   1      -6.223   9.335  16.519 -0.11 -0.03    +0.306 C 
DOCKED: ATOM     35  O   UNL d   1      -6.333   8.214  16.050 -0.22 +0.02    -0.251 OA
DOCKED: BRANCH  34  36
DOCKED: ATOM     36  O   UNL d   1      -5.070  10.019  16.419 -0.07 +0.09    -0.481 OA
DOCKED: ATOM     37  H   UNL d   1      -5.263  10.889  16.831 +0.08 -0.05    +0.295 HD
DOCKED: ENDBRANCH  34  36
DOCKED: ENDBRANCH  33  34
DOCKED: ENDBRANCH   7  33
DOCKED: BRANCH  27  38
DOCKED: ATOM     38  C   UNL d   1     -11.013   7.070  11.003 -0.31 +0.00    +0.017 C 
DOCKED: ATOM     39  C   UNL d   1     -10.989   7.014   9.663 -0.34 -0.00    +0.092 C 
DOCKED: BRANCH  39  40
DOCKED: ATOM     40  C   UNL d   1     -11.542   5.847   8.971 -0.18 -0.00    +0.330 C 
DOCKED: ATOM     41  O   UNL d   1     -12.186   4.934   9.452 -0.15 +0.01    -0.246 OA
DOCKED: BRANCH  40  42
DOCKED: ATOM     42  O   UNL d   1     -11.248   5.904   7.663 -0.07 +0.00    -0.477 OA
DOCKED: ATOM     43  H   UNL d   1     -11.815   6.628   7.326 +0.10 -0.01    +0.295 HD
DOCKED: ENDBRANCH  40  42
DOCKED: ENDBRANCH  39  40
DOCKED: ENDBRANCH  27  38
DOCKED: BRANCH   8  44
DOCKED: ATOM     44  C   UNL d   1      -4.482  15.668  12.586 -0.25 -0.02    +0.141 C 
DOCKED: BRANCH  44  45
DOCKED: ATOM     45  C   UNL d   1      -5.553  16.674  12.258 -0.09 -0.03    +0.306 C 
DOCKED: ATOM     46  O   UNL d   1      -6.671  16.729  12.741 -0.03 +0.02    -0.251 OA
DOCKED: BRANCH  45  47
DOCKED: ATOM     47  O   UNL d   1      -5.166  17.548  11.312 -0.05 +0.02    -0.481 OA
DOCKED: ATOM     48  H   UNL d   1      -5.105  17.014  10.491 +0.07 -0.01    +0.295 HD
DOCKED: ENDBRANCH  45  47
DOCKED: ENDBRANCH  44  45
DOCKED: ENDBRANCH   8  44
DOCKED: BRANCH  22  49
DOCKED: ATOM     49  C   UNL d   1     -11.481  11.412   7.509 -0.11 -0.01    +0.048 C 
DOCKED: BRANCH  49  50
DOCKED: ATOM     50  C   UNL d   1     -11.077  10.379   6.458 -0.17 -0.02    +0.125 C 
DOCKED: BRANCH  50  51
DOCKED: ATOM     51  C   UNL d   1     -11.460   8.993   6.893 -0.14 -0.05    +0.305 C 
DOCKED: ATOM     52  O   UNL d   1     -12.391   8.670   7.610 -0.07 +0.02    -0.251 OA
DOCKED: BRANCH  51  53
DOCKED: ATOM     53  O   UNL d   1     -10.623   8.060   6.398 -0.13 +0.10    -0.481 OA
DOCKED: ATOM     54  H   UNL d   1     -10.128   7.744   7.183 -0.22 -0.10    +0.295 HD
DOCKED: ENDBRANCH  51  53
DOCKED: ENDBRANCH  50  51
DOCKED: ENDBRANCH  49  50
DOCKED: ENDBRANCH  22  49
DOCKED: TORSDOF 13
DOCKED: TER
DOCKED: ENDMDL
________________________________________________________________________________


	BEGINNING GENETIC ALGORITHM DOCKING 58 of 100
Run: 58 Seed: 834592985 748843530 [ Run 58 of 100 GA/GALS ]
Beginning LAMARCKIAN GENETIC ALGORITHM (LGA), with a maximum of 25000000 energy evaluations.

Final-Value: -12.103


	FINAL GENETIC ALGORITHM DOCKED STATE
	_______________________________________________


Detailed state:  trans -6.776 10.184 -11.920 quatxyzw 0.057305 -0.612219 -0.629209 -0.475395 center 0.153 0.018 -0.028 ntor 13 122.2785 -180.0000 -109.3030 38.3079 3.3015 -6.4528 123.7056 180.0000 -165.6522 -22.8521 71.5988 -67.3803 130.9416
State:	 -6.776  10.184 -11.920   0.065 -0.696 -0.715 -123.230    122.28 -180.00 -109.30   38.31    3.30   -6.45  123.71  180.00 -165.65  -22.85   71.60  -67.38  130.94

DOCKED: MODEL       58
DOCKED: USER    Run = 58
DOCKED: USER    DPF = D:/Protein_go_brrr/autodock/final/mut_N102T/heme/dock.dpf
DOCKED: USER  
DOCKED: USER    Estimated Free Energy of Binding    =   -4.59 kcal/mol  [=(1)+(2)+(3)-(4)]
DOCKED: USER    Estimated Inhibition Constant, Ki   =  430.49 uM (micromolar)  [Temperature = 298.15 K]
DOCKED: USER    
DOCKED: USER    (1) Final Intermolecular Energy     =   -8.47 kcal/mol
DOCKED: USER        vdW + Hbond + desolv Energy     =   -8.28 kcal/mol
DOCKED: USER        Electrostatic Energy            =   -0.19 kcal/mol
DOCKED: USER    (2) Final Total Internal Energy     =   -3.63 kcal/mol
DOCKED: USER    (3) Torsional Free Energy           =   +3.88 kcal/mol
DOCKED: USER    (4) Unbound System's Energy  [=(2)] =   -3.63 kcal/mol
DOCKED: USER    
DOCKED: USER    
DOCKED: USER    NEWDPF move heme_opt.pdbqt
DOCKED: USER    NEWDPF about 0.153000 0.018000 -0.028000
DOCKED: USER    NEWDPF tran0 -6.775904 10.183694 -11.919749
DOCKED: USER    NEWDPF quaternion0 0.057305 -0.612219 -0.629209 -0.475395
DOCKED: USER    NEWDPF axisangle0 0.065136 -0.695883 -0.715195 -123.229900
DOCKED: USER    NEWDPF quat0 0.065136 -0.695883 -0.715195 -123.229900
DOCKED: USER    NEWDPF dihe0 122.28 -180.00 -109.30 38.31 3.30 -6.45 123.71 180.00 -165.65 -22.85 71.60 -67.38 130.94 
DOCKED: USER  keepresnum = 1 
DOCKED: USER  
DOCKED: REMARK  13 active torsions:
DOCKED: REMARK  status: ('A' for Active; 'I' for Inactive)
DOCKED: REMARK    1  A    between atoms: O_3  and  C_38 
DOCKED: REMARK    2  A    between atoms: O_4  and  C_40 
DOCKED: REMARK    3  A    between atoms: O_7  and  C_46 
DOCKED: REMARK    4  A    between atoms: O_9  and  C_48 
DOCKED: REMARK    5  A    between atoms: C_15  and  C_20 
DOCKED: REMARK    6  A    between atoms: C_16  and  C_23 
DOCKED: REMARK    7  A    between atoms: C_20  and  C_38 
DOCKED: REMARK    8  A    between atoms: C_23  and  C_40 
DOCKED: REMARK    9  A    between atoms: C_32  and  C_41 
DOCKED: REMARK   10  A    between atoms: C_37  and  C_45 
DOCKED: REMARK   11  A    between atoms: C_41  and  C_44 
DOCKED: REMARK   12  A    between atoms: C_44  and  C_46 
DOCKED: REMARK   13  A    between atoms: C_47  and  C_48 
DOCKED: USER                              x       y       z     vdW  Elec       q    Type
DOCKED: USER                           _______ _______ _______ _____ _____    ______ ____
DOCKED: ROOT
DOCKED: ATOM      1  O   UNL d   1      -3.270  14.739 -13.230 -0.13 -0.02    -0.289 OA
DOCKED: ATOM      2  O   UNL d   1      -6.863   9.852 -17.657 -0.12 -0.03    -0.289 OA
DOCKED: ATOM      3  N   UNL d   1      -5.130  12.112 -11.990 -0.11 +0.02    -0.247 NA
DOCKED: ATOM      4  N   UNL d   1      -6.384  10.955 -14.423 -0.10 +0.03    -0.247 NA
DOCKED: ATOM      5  N   UNL d   1      -8.142   9.471 -12.698 -0.06 +0.06    -0.354 N 
DOCKED: ATOM      6  N   UNL d   1      -6.849  10.692 -10.180 -0.03 +0.02    -0.354 N 
DOCKED: ATOM      7  C   UNL d   1      -3.967  14.028 -10.998 -0.17 -0.01    +0.084 A 
DOCKED: ATOM      8  C   UNL d   1      -5.218  11.283 -16.545 -0.32 -0.01    +0.084 A 
DOCKED: ATOM      9  C   UNL d   1      -5.321  11.572 -15.044 -0.26 -0.01    +0.058 A 
DOCKED: ATOM     10  C   UNL d   1      -4.824  12.772 -10.812 -0.18 -0.00    +0.058 A 
DOCKED: ATOM     11  C   UNL d   1      -3.829  13.952 -12.488 -0.14 -0.01    +0.193 A 
DOCKED: ATOM     12  C   UNL d   1      -4.555  12.733 -12.968 -0.19 -0.01    +0.109 A 
DOCKED: ATOM     13  C   UNL d   1      -6.440  10.416 -16.668 -0.21 -0.00    +0.193 A 
DOCKED: ATOM     14  C   UNL d   1      -4.733  15.304 -10.636 -0.07 -0.00    +0.026 C 
DOCKED: ATOM     15  C   UNL d   1      -4.479  12.398 -14.404 -0.27 -0.01    +0.055 C 
DOCKED: ATOM     16  C   UNL d   1      -3.982  10.441 -16.877 -0.48 -0.01    +0.026 C 
DOCKED: ATOM     17  C   UNL d   1      -7.060  10.302 -15.313 -0.20 -0.01    +0.109 A 
DOCKED: ATOM     18  C   UNL d   1      -5.156  12.323  -9.587 -0.21 -0.00    +0.050 C 
DOCKED: ATOM     19  C   UNL d   1      -5.871  11.129  -9.315 -0.10 -0.00    +0.045 A 
DOCKED: ATOM     20  C   UNL d   1      -8.737   9.226 -13.908 -0.18 -0.00    +0.045 A 
DOCKED: ATOM     21  C   UNL d   1      -8.306   9.542 -15.133 -0.21 -0.00    +0.057 C 
DOCKED: ATOM     22  C   UNL d   1     -10.064   8.385 -12.250 -0.12 +0.00    -0.019 A 
DOCKED: ATOM     23  C   UNL d   1      -8.870   9.001 -11.637 -0.12 -0.01    +0.045 A 
DOCKED: ATOM     24  C   UNL d   1      -9.979   8.520 -13.594 -0.15 +0.00    -0.022 A 
DOCKED: ATOM     25  C   UNL d   1      -7.472   9.572  -9.680 -0.16 -0.00    +0.049 A 
DOCKED: ATOM     26  C   UNL d   1      -5.833  10.250  -8.243 -0.11 +0.00    -0.018 A 
DOCKED: ATOM     27  C   UNL d   1      -6.832   9.258  -8.489 -0.25 -0.00    +0.003 A 
DOCKED: ATOM     28  C   UNL d   1      -8.620   9.029 -10.319 -0.15 -0.01    +0.052 C 
DOCKED: ATOM     29  C   UNL d   1     -10.931   8.052 -14.641 -0.14 +0.00    +0.046 C 
DOCKED: ATOM     30  C   UNL d   1      -4.923  10.323  -7.064 -0.19 -0.00    +0.046 C 
DOCKED: ATOM     31  H   UNL d   1      -7.219   9.888 -12.640 +0.06 -0.03    +0.166 HD
DOCKED: ATOM     32  H   UNL d   1      -7.089  11.169 -11.041 +0.04 -0.01    +0.166 HD
DOCKED: ENDROOT
DOCKED: BRANCH   7  33
DOCKED: ATOM     33  C   UNL d   1      -2.590  13.990 -10.327 -0.09 -0.03    +0.141 C 
DOCKED: BRANCH  33  34
DOCKED: ATOM     34  C   UNL d   1      -2.428  15.055  -9.276 -0.15 -0.00    +0.306 C 
DOCKED: ATOM     35  O   UNL d   1      -3.135  15.214  -8.296 -0.75 -0.03    -0.251 OA
DOCKED: BRANCH  34  36
DOCKED: ATOM     36  O   UNL d   1      -1.379  15.863  -9.515 -0.24 +0.05    -0.481 OA
DOCKED: ATOM     37  H   UNL d   1      -0.602  15.265  -9.516 -0.36 -0.11    +0.295 HD
DOCKED: ENDBRANCH  34  36
DOCKED: ENDBRANCH  33  34
DOCKED: ENDBRANCH   7  33
DOCKED: BRANCH  27  38
DOCKED: ATOM     38  C   UNL d   1      -7.140   8.164  -7.618 -0.34 -0.00    +0.017 C 
DOCKED: ATOM     39  C   UNL d   1      -8.349   7.596  -7.485 -0.20 -0.00    +0.092 C 
DOCKED: BRANCH  39  40
DOCKED: ATOM     40  C   UNL d   1      -8.528   6.467  -6.569 -0.13 -0.00    +0.330 C 
DOCKED: ATOM     41  O   UNL d   1      -7.666   5.846  -5.976 -0.25 +0.02    -0.246 OA
DOCKED: BRANCH  40  42
DOCKED: ATOM     42  O   UNL d   1      -9.832   6.179  -6.440 -0.01 -0.01    -0.477 OA
DOCKED: ATOM     43  H   UNL d   1     -10.275   6.836  -7.016 +0.05 +0.01    +0.295 HD
DOCKED: ENDBRANCH  40  42
DOCKED: ENDBRANCH  39  40
DOCKED: ENDBRANCH  27  38
DOCKED: BRANCH   8  44
DOCKED: ATOM     44  C   UNL d   1      -5.318  12.506 -17.462 -0.21 +0.01    +0.141 C 
DOCKED: BRANCH  44  45
DOCKED: ATOM     45  C   UNL d   1      -6.710  13.073 -17.546 -0.03 +0.03    +0.306 C 
DOCKED: ATOM     46  O   UNL d   1      -7.251  13.798 -16.728 -0.02 -0.02    -0.251 OA
DOCKED: BRANCH  45  47
DOCKED: ATOM     47  O   UNL d   1      -7.364  12.672 -18.651 +0.01 -0.04    -0.481 OA
DOCKED: ATOM     48  H   UNL d   1      -7.537  11.718 -18.505 +0.06 +0.02    +0.295 HD
DOCKED: ENDBRANCH  45  47
DOCKED: ENDBRANCH  44  45
DOCKED: ENDBRANCH   8  44
DOCKED: BRANCH  22  49
DOCKED: ATOM     49  C   UNL d   1     -11.173   7.742 -11.471 -0.10 -0.00    +0.048 C 
DOCKED: BRANCH  49  50
DOCKED: ATOM     50  C   UNL d   1     -11.635   8.620 -10.308 -0.03 -0.00    +0.125 C 
DOCKED: BRANCH  50  51
DOCKED: ATOM     51  C   UNL d   1     -11.184   8.051  -8.993 -0.04 +0.00    +0.305 C 
DOCKED: ATOM     52  O   UNL d   1     -11.292   8.554  -7.889 -0.01 -0.00    -0.251 OA
DOCKED: BRANCH  51  53
DOCKED: ATOM     53  O   UNL d   1     -10.590   6.849  -9.141 -0.44 -0.06    -0.481 OA
DOCKED: ATOM     54  H   UNL d   1     -10.893   6.337  -8.362 +0.03 +0.02    +0.295 HD
DOCKED: ENDBRANCH  51  53
DOCKED: ENDBRANCH  50  51
DOCKED: ENDBRANCH  49  50
DOCKED: ENDBRANCH  22  49
DOCKED: TORSDOF 13
DOCKED: TER
DOCKED: ENDMDL
________________________________________________________________________________


	BEGINNING GENETIC ALGORITHM DOCKING 59 of 100
Run: 59 Seed: 1318306940 1362665513 [ Run 59 of 100 GA/GALS ]
Beginning LAMARCKIAN GENETIC ALGORITHM (LGA), with a maximum of 25000000 energy evaluations.

Final-Value: -9.960


	FINAL GENETIC ALGORITHM DOCKED STATE
	_______________________________________________


Detailed state:  trans -8.571 12.368 12.266 quatxyzw 0.634568 -0.168826 0.594352 -0.464292 center 0.153 0.018 -0.028 ntor 13 -100.7115 -18.2726 104.1193 -97.9050 31.8615 -130.4796 -46.3586 -92.2596 129.4395 -127.1394 -158.7718 -94.0286 163.8579
State:	 -8.571  12.368  12.266   0.716 -0.191  0.671 -124.671   -100.71  -18.27  104.12  -97.91   31.86 -130.48  -46.36  -92.26  129.44 -127.14 -158.77  -94.03  163.86

DOCKED: MODEL       59
DOCKED: USER    Run = 59
DOCKED: USER    DPF = D:/Protein_go_brrr/autodock/final/mut_N102T/heme/dock.dpf
DOCKED: USER  
DOCKED: USER    Estimated Free Energy of Binding    =   -3.53 kcal/mol  [=(1)+(2)+(3)-(4)]
DOCKED: USER    Estimated Inhibition Constant, Ki   =    2.58 mM (millimolar)  [Temperature = 298.15 K]
DOCKED: USER    
DOCKED: USER    (1) Final Intermolecular Energy     =   -7.41 kcal/mol
DOCKED: USER        vdW + Hbond + desolv Energy     =   -7.25 kcal/mol
DOCKED: USER        Electrostatic Energy            =   -0.16 kcal/mol
DOCKED: USER    (2) Final Total Internal Energy     =   -2.55 kcal/mol
DOCKED: USER    (3) Torsional Free Energy           =   +3.88 kcal/mol
DOCKED: USER    (4) Unbound System's Energy  [=(2)] =   -2.55 kcal/mol
DOCKED: USER    
DOCKED: USER    
DOCKED: USER    NEWDPF move heme_opt.pdbqt
DOCKED: USER    NEWDPF about 0.153000 0.018000 -0.028000
DOCKED: USER    NEWDPF tran0 -8.570604 12.368260 12.266035
DOCKED: USER    NEWDPF quaternion0 0.634568 -0.168826 0.594352 -0.464292
DOCKED: USER    NEWDPF axisangle0 0.716474 -0.190616 0.671067 -124.671148
DOCKED: USER    NEWDPF quat0 0.716474 -0.190616 0.671067 -124.671148
DOCKED: USER    NEWDPF dihe0 -100.71 -18.27 104.12 -97.91 31.86 -130.48 -46.36 -92.26 129.44 -127.14 -158.77 -94.03 163.86 
DOCKED: USER  keepresnum = 1 
DOCKED: USER  
DOCKED: REMARK  13 active torsions:
DOCKED: REMARK  status: ('A' for Active; 'I' for Inactive)
DOCKED: REMARK    1  A    between atoms: O_3  and  C_38 
DOCKED: REMARK    2  A    between atoms: O_4  and  C_40 
DOCKED: REMARK    3  A    between atoms: O_7  and  C_46 
DOCKED: REMARK    4  A    between atoms: O_9  and  C_48 
DOCKED: REMARK    5  A    between atoms: C_15  and  C_20 
DOCKED: REMARK    6  A    between atoms: C_16  and  C_23 
DOCKED: REMARK    7  A    between atoms: C_20  and  C_38 
DOCKED: REMARK    8  A    between atoms: C_23  and  C_40 
DOCKED: REMARK    9  A    between atoms: C_32  and  C_41 
DOCKED: REMARK   10  A    between atoms: C_37  and  C_45 
DOCKED: REMARK   11  A    between atoms: C_41  and  C_44 
DOCKED: REMARK   12  A    between atoms: C_44  and  C_46 
DOCKED: REMARK   13  A    between atoms: C_47  and  C_48 
DOCKED: USER                              x       y       z     vdW  Elec       q    Type
DOCKED: USER                           _______ _______ _______ _____ _____    ______ ____
DOCKED: ROOT
DOCKED: ATOM      1  O   UNL d   1     -10.804   9.097   7.899 -0.16 +0.08    -0.289 OA
DOCKED: ATOM      2  O   UNL d   1      -6.430  15.199   7.745 -0.12 +0.02    -0.289 OA
DOCKED: ATOM      3  N   UNL d   1      -9.843  10.779  10.753 -0.10 +0.01    -0.247 NA
DOCKED: ATOM      4  N   UNL d   1      -7.929  12.812   9.736 -0.16 +0.05    -0.247 NA
DOCKED: ATOM      5  N   UNL d   1      -7.106  13.263  12.453 -0.04 +0.03    -0.354 N 
DOCKED: ATOM      6  N   UNL d   1      -9.081  11.139  13.498 -0.05 +0.00    -0.354 N 
DOCKED: ATOM      7  C   UNL d   1     -11.059   8.700  10.298 -0.19 -0.00    +0.084 A 
DOCKED: ATOM      8  C   UNL d   1      -8.191  13.532   7.415 -0.21 -0.01    +0.084 A 
DOCKED: ATOM      9  C   UNL d   1      -8.611  12.602   8.558 -0.26 -0.01    +0.058 A 
DOCKED: ATOM     10  C   UNL d   1     -10.481   9.687  11.317 -0.15 -0.00    +0.058 A 
DOCKED: ATOM     11  C   UNL d   1     -10.650   9.437   9.058 -0.16 -0.03    +0.193 A 
DOCKED: ATOM     12  C   UNL d   1      -9.944  10.693   9.467 -0.19 -0.02    +0.109 A 
DOCKED: ATOM     13  C   UNL d   1      -7.118  14.283   8.151 -0.16 -0.03    +0.193 A 
DOCKED: ATOM     14  C   UNL d   1     -10.337   7.351  10.332 -0.44 +0.00    +0.026 C 
DOCKED: ATOM     15  C   UNL d   1      -9.528  11.633   8.406 -0.28 -0.01    +0.055 C 
DOCKED: ATOM     16  C   UNL d   1      -9.308  14.510   7.040 -0.08 -0.00    +0.026 C 
DOCKED: ATOM     17  C   UNL d   1      -7.054  13.746   9.544 -0.18 -0.02    +0.109 A 
DOCKED: ATOM     18  C   UNL d   1     -10.673   9.525  12.639 -0.16 +0.00    +0.050 C 
DOCKED: ATOM     19  C   UNL d   1     -10.250  10.427  13.648 -0.11 -0.00    +0.045 A 
DOCKED: ATOM     20  C   UNL d   1      -6.143  13.981  11.793 -0.19 -0.01    +0.045 A 
DOCKED: ATOM     21  C   UNL d   1      -6.057  14.267  10.491 -0.27 -0.01    +0.057 C 
DOCKED: ATOM     22  C   UNL d   1      -5.621  13.913  14.016 -0.16 +0.00    -0.019 A 
DOCKED: ATOM     23  C   UNL d   1      -6.877  13.168  13.800 -0.11 -0.00    +0.045 A 
DOCKED: ATOM     24  C   UNL d   1      -5.192  14.393  12.825 -0.22 +0.00    -0.022 A 
DOCKED: ATOM     25  C   UNL d   1      -8.817  11.879  14.628 -0.08 -0.00    +0.049 A 
DOCKED: ATOM     26  C   UNL d   1     -10.778  10.742  14.891 -0.04 +0.00    -0.018 A 
DOCKED: ATOM     27  C   UNL d   1      -9.880  11.674  15.496 -0.04 -0.00    +0.003 A 
DOCKED: ATOM     28  C   UNL d   1      -7.586  12.575  14.772 -0.09 -0.00    +0.052 C 
DOCKED: ATOM     29  C   UNL d   1      -3.983  15.215  12.531 -0.32 -0.01    +0.046 C 
DOCKED: ATOM     30  C   UNL d   1     -12.041  10.212  15.481 -0.02 -0.00    +0.046 C 
DOCKED: ATOM     31  H   UNL d   1      -7.932  12.923  11.971 +0.04 -0.01    +0.166 HD
DOCKED: ATOM     32  H   UNL d   1      -8.489  11.079  12.678 +0.08 +0.01    +0.166 HD
DOCKED: ENDROOT
DOCKED: BRANCH   7  33
DOCKED: ATOM     33  C   UNL d   1     -12.580   8.525  10.343 -0.06 -0.01    +0.141 C 
DOCKED: BRANCH  33  34
DOCKED: ATOM     34  C   UNL d   1     -13.089   7.597   9.273 -0.03 -0.01    +0.306 C 
DOCKED: ATOM     35  O   UNL d   1     -13.163   6.382   9.349 -0.04 +0.01    -0.251 OA
DOCKED: BRANCH  34  36
DOCKED: ATOM     36  O   UNL d   1     -13.479   8.249   8.164 +0.01 +0.02    -0.481 OA
DOCKED: ATOM     37  H   UNL d   1     -12.643   8.486   7.709 +0.07 -0.02    +0.295 HD
DOCKED: ENDBRANCH  34  36
DOCKED: ENDBRANCH  33  34
DOCKED: ENDBRANCH   7  33
DOCKED: BRANCH  27  38
DOCKED: ATOM     38  C   UNL d   1     -10.040  12.248  16.798 -0.01 -0.00    +0.017 C 
DOCKED: ATOM     39  C   UNL d   1      -9.148  12.163  17.797 -0.01 -0.01    +0.092 C 
DOCKED: BRANCH  39  40
DOCKED: ATOM     40  C   UNL d   1      -9.426  12.813  19.081 -0.00 -0.02    +0.330 C 
DOCKED: ATOM     41  O   UNL d   1      -8.683  13.522  19.732 -0.00 +0.02    -0.246 OA
DOCKED: BRANCH  40  42
DOCKED: ATOM     42  O   UNL d   1     -10.675  12.528  19.482 +0.00 +0.03    -0.477 OA
DOCKED: ATOM     43  H   UNL d   1     -10.666  12.732  20.439 +0.00 -0.02    +0.295 HD
DOCKED: ENDBRANCH  40  42
DOCKED: ENDBRANCH  39  40
DOCKED: ENDBRANCH  27  38
DOCKED: BRANCH   8  44
DOCKED: ATOM     44  C   UNL d   1      -7.622  12.837   6.174 -0.23 -0.01    +0.141 C 
DOCKED: BRANCH  44  45
DOCKED: ATOM     45  C   UNL d   1      -7.155  13.800   5.115 -0.17 -0.01    +0.306 C 
DOCKED: ATOM     46  O   UNL d   1      -7.820  14.248   4.197 -0.07 +0.00    -0.251 OA
DOCKED: BRANCH  45  47
DOCKED: ATOM     47  O   UNL d   1      -5.859  14.130   5.255 -0.11 +0.00    -0.481 OA
DOCKED: ATOM     48  H   UNL d   1      -5.845  14.772   5.996 +0.09 -0.01    +0.295 HD
DOCKED: ENDBRANCH  45  47
DOCKED: ENDBRANCH  44  45
DOCKED: ENDBRANCH   8  44
DOCKED: BRANCH  22  49
DOCKED: ATOM     49  C   UNL d   1      -4.955  14.074  15.352 -0.16 -0.01    +0.048 C 
DOCKED: BRANCH  49  50
DOCKED: ATOM     50  C   UNL d   1      -4.142  12.837  15.734 -0.23 -0.03    +0.125 C 
DOCKED: BRANCH  50  51
DOCKED: ATOM     51  C   UNL d   1      -3.777  12.038  14.515 -0.22 -0.08    +0.305 C 
DOCKED: ATOM     52  O   UNL d   1      -4.335  11.044  14.083 -0.26 +0.04    -0.251 OA
DOCKED: BRANCH  51  53
DOCKED: ATOM     53  O   UNL d   1      -2.690  12.536  13.893 -0.81 +0.16    -0.481 OA
DOCKED: ATOM     54  H   UNL d   1      -1.936  12.174  14.404 -0.37 -0.23    +0.295 HD
DOCKED: ENDBRANCH  51  53
DOCKED: ENDBRANCH  50  51
DOCKED: ENDBRANCH  49  50
DOCKED: ENDBRANCH  22  49
DOCKED: TORSDOF 13
DOCKED: TER
DOCKED: ENDMDL
________________________________________________________________________________


	BEGINNING GENETIC ALGORITHM DOCKING 60 of 100
Run: 60 Seed: 2137565257 188155426 [ Run 60 of 100 GA/GALS ]
Beginning LAMARCKIAN GENETIC ALGORITHM (LGA), with a maximum of 25000000 energy evaluations.

Final-Value: -11.718


	FINAL GENETIC ALGORITHM DOCKED STATE
	_______________________________________________


Detailed state:  trans -5.447 -8.883 16.148 quatxyzw -0.230925 0.857889 -0.000475 -0.459020 center 0.153 0.018 -0.028 ntor 13 150.9144 136.9812 88.5951 -126.1953 -143.2937 88.7090 -41.0330 -89.8816 10.3460 -98.5284 -86.8706 -83.5555 -6.5812
State:	 -5.447  -8.883  16.148  -0.260  0.966 -0.001 -125.352    150.91  136.98   88.60 -126.20 -143.29   88.71  -41.03  -89.88   10.35  -98.53  -86.87  -83.56   -6.58

DOCKED: MODEL       60
DOCKED: USER    Run = 60
DOCKED: USER    DPF = D:/Protein_go_brrr/autodock/final/mut_N102T/heme/dock.dpf
DOCKED: USER  
DOCKED: USER    Estimated Free Energy of Binding    =   -3.77 kcal/mol  [=(1)+(2)+(3)-(4)]
DOCKED: USER    Estimated Inhibition Constant, Ki   =    1.73 mM (millimolar)  [Temperature = 298.15 K]
DOCKED: USER    
DOCKED: USER    (1) Final Intermolecular Energy     =   -7.65 kcal/mol
DOCKED: USER        vdW + Hbond + desolv Energy     =   -7.58 kcal/mol
DOCKED: USER        Electrostatic Energy            =   -0.06 kcal/mol
DOCKED: USER    (2) Final Total Internal Energy     =   -4.07 kcal/mol
DOCKED: USER    (3) Torsional Free Energy           =   +3.88 kcal/mol
DOCKED: USER    (4) Unbound System's Energy  [=(2)] =   -4.07 kcal/mol
DOCKED: USER    
DOCKED: USER    
DOCKED: USER    NEWDPF move heme_opt.pdbqt
DOCKED: USER    NEWDPF about 0.153000 0.018000 -0.028000
DOCKED: USER    NEWDPF tran0 -5.446946 -8.883328 16.147732
DOCKED: USER    NEWDPF quaternion0 -0.230925 0.857889 -0.000475 -0.459020
DOCKED: USER    NEWDPF axisangle0 -0.259926 0.965628 -0.000535 -125.352186
DOCKED: USER    NEWDPF quat0 -0.259926 0.965628 -0.000535 -125.352186
DOCKED: USER    NEWDPF dihe0 150.91 136.98 88.60 -126.20 -143.29 88.71 -41.03 -89.88 10.35 -98.53 -86.87 -83.56 -6.58 
DOCKED: USER  keepresnum = 1 
DOCKED: USER  
DOCKED: REMARK  13 active torsions:
DOCKED: REMARK  status: ('A' for Active; 'I' for Inactive)
DOCKED: REMARK    1  A    between atoms: O_3  and  C_38 
DOCKED: REMARK    2  A    between atoms: O_4  and  C_40 
DOCKED: REMARK    3  A    between atoms: O_7  and  C_46 
DOCKED: REMARK    4  A    between atoms: O_9  and  C_48 
DOCKED: REMARK    5  A    between atoms: C_15  and  C_20 
DOCKED: REMARK    6  A    between atoms: C_16  and  C_23 
DOCKED: REMARK    7  A    between atoms: C_20  and  C_38 
DOCKED: REMARK    8  A    between atoms: C_23  and  C_40 
DOCKED: REMARK    9  A    between atoms: C_32  and  C_41 
DOCKED: REMARK   10  A    between atoms: C_37  and  C_45 
DOCKED: REMARK   11  A    between atoms: C_41  and  C_44 
DOCKED: REMARK   12  A    between atoms: C_44  and  C_46 
DOCKED: REMARK   13  A    between atoms: C_47  and  C_48 
DOCKED: USER                              x       y       z     vdW  Elec       q    Type
DOCKED: USER                           _______ _______ _______ _____ _____    ______ ____
DOCKED: ROOT
DOCKED: ATOM      1  O   UNL d   1      -2.957  -5.012  19.831 -0.03 +0.04    -0.289 OA
DOCKED: ATOM      2  O   UNL d   1      -3.519 -12.492  20.185 -0.06 +0.05    -0.289 OA
DOCKED: ATOM      3  N   UNL d   1      -4.650  -6.872  17.471 -0.12 +0.02    -0.247 NA
DOCKED: ATOM      4  N   UNL d   1      -4.076  -9.675  18.270 -0.11 +0.05    -0.247 NA
DOCKED: ATOM      5  N   UNL d   1      -5.084 -10.513  15.711 -0.10 +0.06    -0.354 N 
DOCKED: ATOM      6  N   UNL d   1      -5.659  -7.600  14.883 -0.11 +0.09    -0.354 N 
DOCKED: ATOM      7  C   UNL d   1      -4.035  -4.510  17.696 -0.20 -0.00    +0.084 A 
DOCKED: ATOM      8  C   UNL d   1      -3.564 -10.084  20.624 -0.10 -0.01    +0.084 A 
DOCKED: ATOM      9  C   UNL d   1      -3.847  -9.089  19.495 -0.13 -0.01    +0.058 A 
DOCKED: ATOM     10  C   UNL d   1      -4.708  -5.619  16.883 -0.21 -0.01    +0.058 A 
DOCKED: ATOM     11  C   UNL d   1      -3.602  -5.353  18.857 -0.07 -0.02    +0.193 A 
DOCKED: ATOM     12  C   UNL d   1      -4.056  -6.759  18.614 -0.12 -0.01    +0.109 A 
DOCKED: ATOM     13  C   UNL d   1      -3.638 -11.343  19.806 -0.10 -0.04    +0.193 A 
DOCKED: ATOM     14  C   UNL d   1      -2.792  -3.957  16.995 -0.32 -0.00    +0.026 C 
DOCKED: ATOM     15  C   UNL d   1      -3.821  -7.759  19.676 -0.13 -0.01    +0.055 C 
DOCKED: ATOM     16  C   UNL d   1      -4.691 -10.103  21.660 -0.03 -0.00    +0.026 C 
DOCKED: ATOM     17  C   UNL d   1      -3.947 -10.957  18.396 -0.07 -0.03    +0.109 A 
DOCKED: ATOM     18  C   UNL d   1      -5.371  -5.352  15.742 -0.32 -0.00    +0.050 C 
DOCKED: ATOM     19  C   UNL d   1      -6.092  -6.297  14.969 -0.27 -0.01    +0.045 A 
DOCKED: ATOM     20  C   UNL d   1      -4.548 -11.696  16.152 -0.18 -0.01    +0.045 A 
DOCKED: ATOM     21  C   UNL d   1      -4.037 -11.988  17.352 -0.12 -0.02    +0.057 C 
DOCKED: ATOM     22  C   UNL d   1      -5.220 -11.952  13.984 -0.26 +0.00    -0.019 A 
DOCKED: ATOM     23  C   UNL d   1      -5.517 -10.571  14.413 -0.25 -0.01    +0.045 A 
DOCKED: ATOM     24  C   UNL d   1      -4.648 -12.613  15.018 -0.22 +0.01    -0.022 A 
DOCKED: ATOM     25  C   UNL d   1      -6.450  -8.317  14.015 -0.27 -0.01    +0.049 A 
DOCKED: ATOM     26  C   UNL d   1      -7.215  -6.172  14.165 -0.30 +0.00    -0.018 A 
DOCKED: ATOM     27  C   UNL d   1      -7.447  -7.455  13.580 -0.26 -0.00    +0.003 A 
DOCKED: ATOM     28  C   UNL d   1      -6.106  -9.645  13.642 -0.31 -0.01    +0.052 C 
DOCKED: ATOM     29  C   UNL d   1      -4.182 -14.028  15.077 -0.20 -0.02    +0.046 C 
DOCKED: ATOM     30  C   UNL d   1      -8.025  -4.938  13.953 -0.23 -0.01    +0.046 C 
DOCKED: ATOM     31  H   UNL d   1      -5.205  -9.725  16.338 +0.05 -0.03    +0.166 HD
DOCKED: ATOM     32  H   UNL d   1      -4.842  -7.953  15.368 -0.06 -0.04    +0.166 HD
DOCKED: ENDROOT
DOCKED: BRANCH   7  33
DOCKED: ATOM     33  C   UNL d   1      -4.963  -3.384  18.165 -0.18 +0.02    +0.141 C 
DOCKED: BRANCH  33  34
DOCKED: ATOM     34  C   UNL d   1      -6.102  -3.887  19.010 -0.04 +0.03    +0.306 C 
DOCKED: ATOM     35  O   UNL d   1      -7.191  -4.258  18.605 -0.04 -0.04    -0.251 OA
DOCKED: BRANCH  34  36
DOCKED: ATOM     36  O   UNL d   1      -5.809  -3.899  20.322 +0.01 +0.00    -0.481 OA
DOCKED: ATOM     37  H   UNL d   1      -4.844  -4.076  20.358 +0.04 -0.01    +0.295 HD
DOCKED: ENDBRANCH  34  36
DOCKED: ENDBRANCH  33  34
DOCKED: ENDBRANCH   7  33
DOCKED: BRANCH  27  38
DOCKED: ATOM     38  C   UNL d   1      -8.505  -7.766  12.667 -0.26 -0.01    +0.017 C 
DOCKED: ATOM     39  C   UNL d   1      -8.362  -8.449  11.520 -0.12 -0.04    +0.092 C 
DOCKED: BRANCH  39  40
DOCKED: ATOM     40  C   UNL d   1      -9.532  -8.717  10.679 -0.11 -0.14    +0.330 C 
DOCKED: ATOM     41  O   UNL d   1     -10.008  -8.002   9.818 -0.20 +0.15    -0.246 OA
DOCKED: BRANCH  40  42
DOCKED: ATOM     42  O   UNL d   1     -10.049  -9.919  10.977 -0.01 +0.13    -0.477 OA
DOCKED: ATOM     43  H   UNL d   1      -9.263 -10.497  11.064 +0.11 -0.08    +0.295 HD
DOCKED: ENDBRANCH  40  42
DOCKED: ENDBRANCH  39  40
DOCKED: ENDBRANCH  27  38
DOCKED: BRANCH   8  44
DOCKED: ATOM     44  C   UNL d   1      -2.194  -9.947  21.298 -0.10 -0.02    +0.141 C 
DOCKED: BRANCH  44  45
DOCKED: ATOM     45  C   UNL d   1      -1.640 -11.258  21.790 -0.06 -0.04    +0.306 C 
DOCKED: ATOM     46  O   UNL d   1      -1.877 -11.791  22.860 -0.01 +0.02    -0.251 OA
DOCKED: BRANCH  45  47
DOCKED: ATOM     47  O   UNL d   1      -0.789 -11.819  20.912 -0.13 +0.05    -0.481 OA
DOCKED: ATOM     48  H   UNL d   1      -1.349 -12.410  20.365 +0.04 -0.05    +0.295 HD
DOCKED: ENDBRANCH  45  47
DOCKED: ENDBRANCH  44  45
DOCKED: ENDBRANCH   8  44
DOCKED: BRANCH  22  49
DOCKED: ATOM     49  C   UNL d   1      -5.506 -12.488  12.612 -0.25 -0.01    +0.048 C 
DOCKED: BRANCH  49  50
DOCKED: ATOM     50  C   UNL d   1      -6.903 -13.103  12.521 -0.25 -0.04    +0.125 C 
DOCKED: BRANCH  50  51
DOCKED: ATOM     51  C   UNL d   1      -7.901 -12.098  12.021 -0.16 -0.08    +0.305 C 
DOCKED: ATOM     52  O   UNL d   1      -8.647 -11.399  12.683 -0.07 +0.06    -0.251 OA
DOCKED: BRANCH  51  53
DOCKED: ATOM     53  O   UNL d   1      -7.917 -12.031  10.674 -0.12 +0.14    -0.481 OA
DOCKED: ATOM     54  H   UNL d   1      -8.052 -12.960  10.392 -0.44 -0.16    +0.295 HD
DOCKED: ENDBRANCH  51  53
DOCKED: ENDBRANCH  50  51
DOCKED: ENDBRANCH  49  50
DOCKED: ENDBRANCH  22  49
DOCKED: TORSDOF 13
DOCKED: TER
DOCKED: ENDMDL
________________________________________________________________________________


	BEGINNING GENETIC ALGORITHM DOCKING 61 of 100
Run: 61 Seed: 533741564 1990922652 [ Run 61 of 100 GA/GALS ]
Beginning LAMARCKIAN GENETIC ALGORITHM (LGA), with a maximum of 25000000 energy evaluations.

Final-Value: -14.048


	FINAL GENETIC ALGORITHM DOCKED STATE
	_______________________________________________


Detailed state:  trans 5.546 14.089 -12.244 quatxyzw 0.523411 0.455363 -0.681784 -0.232070 center 0.153 0.018 -0.028 ntor 13 73.6602 -177.3446 124.6896 14.0293 -138.6845 -56.5684 -48.2872 25.0302 56.4039 -151.0626 -60.6676 -5.0684 -4.9875
State:	  5.546  14.089 -12.244   0.538  0.468 -0.701 -153.162     73.66 -177.34  124.69   14.03 -138.68  -56.57  -48.29   25.03   56.40 -151.06  -60.67   -5.07   -4.99

DOCKED: MODEL       61
DOCKED: USER    Run = 61
DOCKED: USER    DPF = D:/Protein_go_brrr/autodock/final/mut_N102T/heme/dock.dpf
DOCKED: USER  
DOCKED: USER    Estimated Free Energy of Binding    =   -5.71 kcal/mol  [=(1)+(2)+(3)-(4)]
DOCKED: USER    Estimated Inhibition Constant, Ki   =   65.51 uM (micromolar)  [Temperature = 298.15 K]
DOCKED: USER    
DOCKED: USER    (1) Final Intermolecular Energy     =   -9.59 kcal/mol
DOCKED: USER        vdW + Hbond + desolv Energy     =   -9.40 kcal/mol
DOCKED: USER        Electrostatic Energy            =   -0.18 kcal/mol
DOCKED: USER    (2) Final Total Internal Energy     =   -4.46 kcal/mol
DOCKED: USER    (3) Torsional Free Energy           =   +3.88 kcal/mol
DOCKED: USER    (4) Unbound System's Energy  [=(2)] =   -4.46 kcal/mol
DOCKED: USER    
DOCKED: USER    
DOCKED: USER    NEWDPF move heme_opt.pdbqt
DOCKED: USER    NEWDPF about 0.153000 0.018000 -0.028000
DOCKED: USER    NEWDPF tran0 5.545575 14.089251 -12.244187
DOCKED: USER    NEWDPF quaternion0 0.523411 0.455363 -0.681784 -0.232070
DOCKED: USER    NEWDPF axisangle0 0.538101 0.468144 -0.700920 -153.162071
DOCKED: USER    NEWDPF quat0 0.538101 0.468144 -0.700920 -153.162071
DOCKED: USER    NEWDPF dihe0 73.66 -177.34 124.69 14.03 -138.68 -56.57 -48.29 25.03 56.40 -151.06 -60.67 -5.07 -4.99 
DOCKED: USER  keepresnum = 1 
DOCKED: USER  
DOCKED: REMARK  13 active torsions:
DOCKED: REMARK  status: ('A' for Active; 'I' for Inactive)
DOCKED: REMARK    1  A    between atoms: O_3  and  C_38 
DOCKED: REMARK    2  A    between atoms: O_4  and  C_40 
DOCKED: REMARK    3  A    between atoms: O_7  and  C_46 
DOCKED: REMARK    4  A    between atoms: O_9  and  C_48 
DOCKED: REMARK    5  A    between atoms: C_15  and  C_20 
DOCKED: REMARK    6  A    between atoms: C_16  and  C_23 
DOCKED: REMARK    7  A    between atoms: C_20  and  C_38 
DOCKED: REMARK    8  A    between atoms: C_23  and  C_40 
DOCKED: REMARK    9  A    between atoms: C_32  and  C_41 
DOCKED: REMARK   10  A    between atoms: C_37  and  C_45 
DOCKED: REMARK   11  A    between atoms: C_41  and  C_44 
DOCKED: REMARK   12  A    between atoms: C_44  and  C_46 
DOCKED: REMARK   13  A    between atoms: C_47  and  C_48 
DOCKED: USER                              x       y       z     vdW  Elec       q    Type
DOCKED: USER                           _______ _______ _______ _____ _____    ______ ____
DOCKED: ROOT
DOCKED: ATOM      1  O   UNL d   1       8.492  11.824  -7.668 -0.63 +0.24    -0.289 OA
DOCKED: ATOM      2  O   UNL d   1       3.410  17.342  -8.014 -0.11 +0.08    -0.289 OA
DOCKED: ATOM      3  N   UNL d   1       7.116  12.913 -10.637 -0.17 +0.09    -0.247 NA
DOCKED: ATOM      4  N   UNL d   1       5.044  14.853  -9.759 -0.17 +0.11    -0.247 NA
DOCKED: ATOM      5  N   UNL d   1       3.971  14.773 -12.425 +0.12 +0.18    -0.354 N 
DOCKED: ATOM      6  N   UNL d   1       6.112  12.745 -13.323 -0.13 +0.18    -0.354 N 
DOCKED: ATOM      7  C   UNL d   1       8.614  11.083  -9.994 -0.28 -0.03    +0.084 A 
DOCKED: ATOM      8  C   UNL d   1       5.387  15.957  -7.606 -0.17 -0.04    +0.084 A 
DOCKED: ATOM      9  C   UNL d   1       5.834  14.910  -8.632 -0.24 -0.03    +0.058 A 
DOCKED: ATOM     10  C   UNL d   1       7.842  11.824 -11.090 -0.26 -0.02    +0.058 A 
DOCKED: ATOM     11  C   UNL d   1       8.210  11.956  -8.845 +0.01 -0.08    +0.193 A 
DOCKED: ATOM     12  C   UNL d   1       7.324  13.044  -9.367 -0.16 -0.04    +0.109 A 
DOCKED: ATOM     13  C   UNL d   1       4.176  16.456  -8.342 -0.15 -0.07    +0.193 A 
DOCKED: ATOM     14  C   UNL d   1       8.067   9.672  -9.760 -0.50 -0.01    +0.026 C 
DOCKED: ATOM     15  C   UNL d   1       6.873  14.088  -8.424 -0.14 -0.03    +0.055 C 
DOCKED: ATOM     16  C   UNL d   1       6.397  17.101  -7.485 -0.06 -0.01    +0.026 C 
DOCKED: ATOM     17  C   UNL d   1       4.076  15.702  -9.628 -0.22 -0.04    +0.109 A 
DOCKED: ATOM     18  C   UNL d   1       7.954  11.477 -12.386 -0.27 -0.01    +0.050 C 
DOCKED: ATOM     19  C   UNL d   1       7.347  12.155 -13.474 -0.22 -0.02    +0.045 A 
DOCKED: ATOM     20  C   UNL d   1       2.977  15.473 -11.792 -0.23 -0.02    +0.045 A 
DOCKED: ATOM     21  C   UNL d   1       2.953  15.951 -10.544 -0.21 -0.02    +0.057 C 
DOCKED: ATOM     22  C   UNL d   1       2.303  14.996 -13.922 -0.29 +0.00    -0.019 A 
DOCKED: ATOM     23  C   UNL d   1       3.655  14.440 -13.715 -0.25 -0.02    +0.045 A 
DOCKED: ATOM     24  C   UNL d   1       1.907  15.608 -12.780 -0.27 +0.00    -0.022 A 
DOCKED: ATOM     25  C   UNL d   1       5.675  13.263 -14.520 -0.24 -0.03    +0.049 A 
DOCKED: ATOM     26  C   UNL d   1       7.738  12.326 -14.793 -0.16 +0.01    -0.018 A 
DOCKED: ATOM     27  C   UNL d   1       6.687  13.043 -15.444 -0.15 -0.00    +0.003 A 
DOCKED: ATOM     28  C   UNL d   1       4.359  13.784 -14.651 -0.32 -0.02    +0.052 C 
DOCKED: ATOM     29  C   UNL d   1       0.631  16.324 -12.500 -0.21 -0.00    +0.046 C 
DOCKED: ATOM     30  C   UNL d   1       9.009  11.855 -15.413 -0.13 -0.01    +0.046 C 
DOCKED: ATOM     31  H   UNL d   1       4.866  14.608 -11.977 -0.34 -0.10    +0.166 HD
DOCKED: ATOM     32  H   UNL d   1       5.596  12.750 -12.451 -0.44 -0.14    +0.166 HD
DOCKED: ENDROOT
DOCKED: BRANCH   7  33
DOCKED: ATOM     33  C   UNL d   1      10.138  11.075 -10.154 -0.18 -0.05    +0.141 C 
DOCKED: BRANCH  33  34
DOCKED: ATOM     34  C   UNL d   1      10.824  12.031  -9.216 -0.08 -0.14    +0.306 C 
DOCKED: ATOM     35  O   UNL d   1      11.001  13.223  -9.405 -0.03 +0.11    -0.251 OA
DOCKED: BRANCH  34  36
DOCKED: ATOM     36  O   UNL d   1      11.248  11.436  -8.088 -0.22 +0.31    -0.481 OA
DOCKED: ATOM     37  H   UNL d   1      10.649  11.775  -7.389 -0.27 -0.43    +0.295 HD
DOCKED: ENDBRANCH  34  36
DOCKED: ENDBRANCH  33  34
DOCKED: ENDBRANCH   7  33
DOCKED: BRANCH  27  38
DOCKED: ATOM     38  C   UNL d   1       6.676  13.418 -16.825 -0.09 -0.01    +0.017 C 
DOCKED: ATOM     39  C   UNL d   1       6.092  14.517 -17.325 -0.07 -0.03    +0.092 C 
DOCKED: BRANCH  39  40
DOCKED: ATOM     40  C   UNL d   1       6.169  14.796 -18.762 -0.01 -0.07    +0.330 C 
DOCKED: ATOM     41  O   UNL d   1       7.169  14.941 -19.439 -0.01 +0.03    -0.246 OA
DOCKED: BRANCH  40  42
DOCKED: ATOM     42  O   UNL d   1       4.935  14.870 -19.284 +0.01 +0.06    -0.477 OA
DOCKED: ATOM     43  H   UNL d   1       4.345  14.751 -18.511 +0.07 -0.04    +0.295 HD
DOCKED: ENDBRANCH  40  42
DOCKED: ENDBRANCH  39  40
DOCKED: ENDBRANCH  27  38
DOCKED: BRANCH   8  44
DOCKED: ATOM     44  C   UNL d   1       5.004  15.408  -6.227 -0.26 -0.09    +0.141 C 
DOCKED: BRANCH  44  45
DOCKED: ATOM     45  C   UNL d   1       5.054  16.447  -5.139 -0.10 -0.15    +0.306 C 
DOCKED: ATOM     46  O   UNL d   1       6.003  16.696  -4.415 -0.06 +0.14    -0.251 OA
DOCKED: BRANCH  45  47
DOCKED: ATOM     47  O   UNL d   1       3.889  17.105  -5.000 -0.45 +0.09    -0.481 OA
DOCKED: ATOM     48  H   UNL d   1       3.706  17.475  -5.890 +0.06 -0.06    +0.295 HD
DOCKED: ENDBRANCH  45  47
DOCKED: ENDBRANCH  44  45
DOCKED: ENDBRANCH   8  44
DOCKED: BRANCH  22  49
DOCKED: ATOM     49  C   UNL d   1       1.524  14.867 -15.198 -0.14 +0.01    +0.048 C 
DOCKED: BRANCH  49  50
DOCKED: ATOM     50  C   UNL d   1       1.828  16.009 -16.168 -0.21 +0.02    +0.125 C 
DOCKED: BRANCH  50  51
DOCKED: ATOM     51  C   UNL d   1       2.386  15.483 -17.459 -0.14 +0.05    +0.305 C 
DOCKED: ATOM     52  O   UNL d   1       2.310  14.347 -17.893 -0.26 -0.02    -0.251 OA
DOCKED: BRANCH  51  53
DOCKED: ATOM     53  O   UNL d   1       3.040  16.436 -18.151 -0.01 -0.08    -0.481 OA
DOCKED: ATOM     54  H   UNL d   1       3.156  16.046 -19.043 +0.06 +0.05    +0.295 HD
DOCKED: ENDBRANCH  51  53
DOCKED: ENDBRANCH  50  51
DOCKED: ENDBRANCH  49  50
DOCKED: ENDBRANCH  22  49
DOCKED: TORSDOF 13
DOCKED: TER
DOCKED: ENDMDL
________________________________________________________________________________


	BEGINNING GENETIC ALGORITHM DOCKING 62 of 100
Run: 62 Seed: 1500598655 1047041002 [ Run 62 of 100 GA/GALS ]
Beginning LAMARCKIAN GENETIC ALGORITHM (LGA), with a maximum of 25000000 energy evaluations.

Final-Value: -11.556


	FINAL GENETIC ALGORITHM DOCKED STATE
	_______________________________________________


Detailed state:  trans -8.599 11.129 11.084 quatxyzw 0.500634 -0.377825 -0.771607 -0.106002 center 0.153 0.018 -0.028 ntor 13 -121.5042 -124.7940 -104.2299 -156.7106 39.9853 18.7279 123.1928 59.9604 138.8449 -26.5083 -73.0563 -90.0358 7.4445
State:	 -8.599  11.129  11.084   0.503 -0.380 -0.776 -167.830   -121.50 -124.79 -104.23 -156.71   39.99   18.73  123.19   59.96  138.84  -26.51  -73.06  -90.04    7.44

DOCKED: MODEL       62
DOCKED: USER    Run = 62
DOCKED: USER    DPF = D:/Protein_go_brrr/autodock/final/mut_N102T/heme/dock.dpf
DOCKED: USER  
DOCKED: USER    Estimated Free Energy of Binding    =   -3.54 kcal/mol  [=(1)+(2)+(3)-(4)]
DOCKED: USER    Estimated Inhibition Constant, Ki   =    2.55 mM (millimolar)  [Temperature = 298.15 K]
DOCKED: USER    
DOCKED: USER    (1) Final Intermolecular Energy     =   -7.42 kcal/mol
DOCKED: USER        vdW + Hbond + desolv Energy     =   -7.26 kcal/mol
DOCKED: USER        Electrostatic Energy            =   -0.15 kcal/mol
DOCKED: USER    (2) Final Total Internal Energy     =   -4.14 kcal/mol
DOCKED: USER    (3) Torsional Free Energy           =   +3.88 kcal/mol
DOCKED: USER    (4) Unbound System's Energy  [=(2)] =   -4.14 kcal/mol
DOCKED: USER    
DOCKED: USER    
DOCKED: USER    NEWDPF move heme_opt.pdbqt
DOCKED: USER    NEWDPF about 0.153000 0.018000 -0.028000
DOCKED: USER    NEWDPF tran0 -8.599232 11.129137 11.084422
DOCKED: USER    NEWDPF quaternion0 0.500634 -0.377825 -0.771607 -0.106002
DOCKED: USER    NEWDPF axisangle0 0.503471 -0.379966 -0.775979 -167.830155
DOCKED: USER    NEWDPF quat0 0.503471 -0.379966 -0.775979 -167.830155
DOCKED: USER    NEWDPF dihe0 -121.50 -124.79 -104.23 -156.71 39.99 18.73 123.19 59.96 138.84 -26.51 -73.06 -90.04 7.44 
DOCKED: USER  keepresnum = 1 
DOCKED: USER  
DOCKED: REMARK  13 active torsions:
DOCKED: REMARK  status: ('A' for Active; 'I' for Inactive)
DOCKED: REMARK    1  A    between atoms: O_3  and  C_38 
DOCKED: REMARK    2  A    between atoms: O_4  and  C_40 
DOCKED: REMARK    3  A    between atoms: O_7  and  C_46 
DOCKED: REMARK    4  A    between atoms: O_9  and  C_48 
DOCKED: REMARK    5  A    between atoms: C_15  and  C_20 
DOCKED: REMARK    6  A    between atoms: C_16  and  C_23 
DOCKED: REMARK    7  A    between atoms: C_20  and  C_38 
DOCKED: REMARK    8  A    between atoms: C_23  and  C_40 
DOCKED: REMARK    9  A    between atoms: C_32  and  C_41 
DOCKED: REMARK   10  A    between atoms: C_37  and  C_45 
DOCKED: REMARK   11  A    between atoms: C_41  and  C_44 
DOCKED: REMARK   12  A    between atoms: C_44  and  C_46 
DOCKED: REMARK   13  A    between atoms: C_47  and  C_48 
DOCKED: USER                              x       y       z     vdW  Elec       q    Type
DOCKED: USER                           _______ _______ _______ _____ _____    ______ ____
DOCKED: ROOT
DOCKED: ATOM      1  O   UNL d   1      -6.842  13.310  16.272 -0.02 +0.03    -0.289 OA
DOCKED: ATOM      2  O   UNL d   1      -4.947  15.169   9.248 -0.19 +0.02    -0.289 OA
DOCKED: ATOM      3  N   UNL d   1      -8.046  11.636  13.507 +0.07 +0.00    -0.247 NA
DOCKED: ATOM      4  N   UNL d   1      -7.011  13.243  11.232 -0.11 +0.03    -0.247 NA
DOCKED: ATOM      5  N   UNL d   1      -8.831  11.821   9.520 -0.14 +0.06    -0.354 N 
DOCKED: ATOM      6  N   UNL d   1      -9.914  10.172  11.889 -0.04 -0.00    -0.354 N 
DOCKED: ATOM      7  C   UNL d   1      -8.495  11.545  15.915 -0.05 -0.00    +0.084 A 
DOCKED: ATOM      8  C   UNL d   1      -4.970  14.532  11.611 -0.25 -0.01    +0.084 A 
DOCKED: ATOM      9  C   UNL d   1      -6.082  13.637  12.169 -0.18 -0.01    +0.058 A 
DOCKED: ATOM     10  C   UNL d   1      -8.792  11.029  14.504 -0.10 -0.00    +0.058 A 
DOCKED: ATOM     11  C   UNL d   1      -7.436  12.538  15.542 -0.04 -0.02    +0.193 A 
DOCKED: ATOM     12  C   UNL d   1      -7.237  12.481  14.059 -0.09 -0.01    +0.109 A 
DOCKED: ATOM     13  C   UNL d   1      -5.460  14.602  10.192 -0.21 -0.02    +0.193 A 
DOCKED: ATOM     14  C   UNL d   1      -9.688  12.295  16.515 -0.02 -0.00    +0.026 C 
DOCKED: ATOM     15  C   UNL d   1      -6.169  13.312  13.468 -0.17 -0.01    +0.055 C 
DOCKED: ATOM     16  C   UNL d   1      -3.611  13.825  11.628 -0.56 -0.00    +0.026 C 
DOCKED: ATOM     17  C   UNL d   1      -6.708  13.785  10.096 -0.20 -0.02    +0.109 A 
DOCKED: ATOM     18  C   UNL d   1      -9.644  10.009  14.293 -0.15 +0.00    +0.050 C 
DOCKED: ATOM     19  C   UNL d   1      -9.917   9.411  13.036 -0.18 +0.00    +0.045 A 
DOCKED: ATOM     20  C   UNL d   1      -8.406  12.795   8.655 -0.25 -0.01    +0.045 A 
DOCKED: ATOM     21  C   UNL d   1      -7.441  13.704   8.824 -0.23 -0.01    +0.057 C 
DOCKED: ATOM     22  C   UNL d   1     -10.098  11.618   7.669 -0.21 +0.00    -0.019 A 
DOCKED: ATOM     23  C   UNL d   1      -9.850  11.060   9.013 -0.23 -0.01    +0.045 A 
DOCKED: ATOM     24  C   UNL d   1      -9.239  12.645   7.462 -0.22 +0.00    -0.022 A 
DOCKED: ATOM     25  C   UNL d   1     -10.290   9.414  10.805 -0.12 -0.00    +0.049 A 
DOCKED: ATOM     26  C   UNL d   1     -10.268   8.117  12.683 -0.28 -0.00    -0.018 A 
DOCKED: ATOM     27  C   UNL d   1     -10.483   8.121  11.270 -0.28 +0.00    +0.003 A 
DOCKED: ATOM     28  C   UNL d   1     -10.512  10.016   9.536 -0.24 -0.01    +0.052 C 
DOCKED: ATOM     29  C   UNL d   1      -9.094  13.512   6.258 -0.16 -0.00    +0.046 C 
DOCKED: ATOM     30  C   UNL d   1     -10.394   6.947  13.598 -0.28 +0.00    +0.046 C 
DOCKED: ATOM     31  H   UNL d   1      -8.359  11.659  10.403 +0.05 -0.02    +0.166 HD
DOCKED: ATOM     32  H   UNL d   1      -9.701  11.163  11.875 +0.03 -0.00    +0.166 HD
DOCKED: ENDROOT
DOCKED: BRANCH   7  33
DOCKED: ATOM     33  C   UNL d   1      -7.936  10.504  16.891 -0.05 -0.01    +0.141 C 
DOCKED: BRANCH  33  34
DOCKED: ATOM     34  C   UNL d   1      -7.815  11.033  18.295 -0.00 -0.02    +0.306 C 
DOCKED: ATOM     35  O   UNL d   1      -8.642  10.916  19.183 -0.00 +0.02    -0.251 OA
DOCKED: BRANCH  34  36
DOCKED: ATOM     36  O   UNL d   1      -6.655  11.680  18.506 +0.01 +0.05    -0.481 OA
DOCKED: ATOM     37  H   UNL d   1      -6.632  12.378  17.817 +0.03 -0.03    +0.295 HD
DOCKED: ENDBRANCH  34  36
DOCKED: ENDBRANCH  33  34
DOCKED: ENDBRANCH   7  33
DOCKED: BRANCH  27  38
DOCKED: ATOM     38  C   UNL d   1     -10.879   6.985  10.492 -0.36 +0.00    +0.017 C 
DOCKED: ATOM     39  C   UNL d   1     -11.931   6.945   9.661 -0.19 -0.00    +0.092 C 
DOCKED: BRANCH  39  40
DOCKED: ATOM     40  C   UNL d   1     -12.219   5.722   8.907 -0.12 -0.01    +0.330 C 
DOCKED: ATOM     41  O   UNL d   1     -11.795   4.601   9.118 -0.23 +0.00    -0.246 OA
DOCKED: BRANCH  40  42
DOCKED: ATOM     42  O   UNL d   1     -13.062   5.989   7.898 -0.01 +0.02    -0.477 OA
DOCKED: ATOM     43  H   UNL d   1     -12.615   6.705   7.401 +0.08 -0.01    +0.295 HD
DOCKED: ENDBRANCH  40  42
DOCKED: ENDBRANCH  39  40
DOCKED: ENDBRANCH  27  38
DOCKED: BRANCH   8  44
DOCKED: ATOM     44  C   UNL d   1      -4.875  15.931  12.228 -0.20 -0.01    +0.141 C 
DOCKED: BRANCH  44  45
DOCKED: ATOM     45  C   UNL d   1      -5.939  16.873  11.732 -0.07 -0.02    +0.306 C 
DOCKED: ATOM     46  O   UNL d   1      -7.100  16.916  12.101 -0.03 +0.02    -0.251 OA
DOCKED: BRANCH  45  47
DOCKED: ATOM     47  O   UNL d   1      -5.488  17.698  10.771 -0.05 +0.02    -0.481 OA
DOCKED: ATOM     48  H   UNL d   1      -5.424  17.135   9.970 +0.07 -0.01    +0.295 HD
DOCKED: ENDBRANCH  45  47
DOCKED: ENDBRANCH  44  45
DOCKED: ENDBRANCH   8  44
DOCKED: BRANCH  22  49
DOCKED: ATOM     49  C   UNL d   1     -11.150  11.112   6.726 -0.16 -0.01    +0.048 C 
DOCKED: BRANCH  49  50
DOCKED: ATOM     50  C   UNL d   1     -10.736   9.798   6.064 -0.19 -0.03    +0.125 C 
DOCKED: BRANCH  50  51
DOCKED: ATOM     51  C   UNL d   1     -11.528   8.647   6.616 -0.16 -0.04    +0.305 C 
DOCKED: ATOM     52  O   UNL d   1     -12.740   8.543   6.683 -0.06 +0.02    -0.251 OA
DOCKED: BRANCH  51  53
DOCKED: ATOM     53  O   UNL d   1     -10.731   7.663   7.078 -0.14 +0.08    -0.481 OA
DOCKED: ATOM     54  H   UNL d   1      -9.882   8.113   7.268 -0.38 -0.16    +0.295 HD
DOCKED: ENDBRANCH  51  53
DOCKED: ENDBRANCH  50  51
DOCKED: ENDBRANCH  49  50
DOCKED: ENDBRANCH  22  49
DOCKED: TORSDOF 13
DOCKED: TER
DOCKED: ENDMDL
________________________________________________________________________________


	BEGINNING GENETIC ALGORITHM DOCKING 63 of 100
Run: 63 Seed: 1727342023 763093945 [ Run 63 of 100 GA/GALS ]
Beginning LAMARCKIAN GENETIC ALGORITHM (LGA), with a maximum of 25000000 energy evaluations.

Final-Value: -13.160


	FINAL GENETIC ALGORITHM DOCKED STATE
	_______________________________________________


Detailed state:  trans 6.319 13.509 -12.839 quatxyzw -0.538732 -0.327176 0.703340 0.328687 center 0.153 0.018 -0.028 ntor 13 48.9607 -173.6407 176.8432 40.1558 -151.4301 -14.9491 149.7069 -85.0754 -127.0811 -4.6586 -107.4474 1.0122 -8.0973
State:	  6.319  13.509 -12.839  -0.570 -0.346  0.745 141.622     48.96 -173.64  176.84   40.16 -151.43  -14.95  149.71  -85.08 -127.08   -4.66 -107.45    1.01   -8.10

DOCKED: MODEL       63
DOCKED: USER    Run = 63
DOCKED: USER    DPF = D:/Protein_go_brrr/autodock/final/mut_N102T/heme/dock.dpf
DOCKED: USER  
DOCKED: USER    Estimated Free Energy of Binding    =   -5.51 kcal/mol  [=(1)+(2)+(3)-(4)]
DOCKED: USER    Estimated Inhibition Constant, Ki   =   91.46 uM (micromolar)  [Temperature = 298.15 K]
DOCKED: USER    
DOCKED: USER    (1) Final Intermolecular Energy     =   -9.39 kcal/mol
DOCKED: USER        vdW + Hbond + desolv Energy     =   -9.33 kcal/mol
DOCKED: USER        Electrostatic Energy            =   -0.06 kcal/mol
DOCKED: USER    (2) Final Total Internal Energy     =   -3.77 kcal/mol
DOCKED: USER    (3) Torsional Free Energy           =   +3.88 kcal/mol
DOCKED: USER    (4) Unbound System's Energy  [=(2)] =   -3.77 kcal/mol
DOCKED: USER    
DOCKED: USER    
DOCKED: USER    NEWDPF move heme_opt.pdbqt
DOCKED: USER    NEWDPF about 0.153000 0.018000 -0.028000
DOCKED: USER    NEWDPF tran0 6.319361 13.509270 -12.838668
DOCKED: USER    NEWDPF quaternion0 -0.538732 -0.327176 0.703340 0.328687
DOCKED: USER    NEWDPF axisangle0 -0.570426 -0.346424 0.744718 141.621751
DOCKED: USER    NEWDPF quat0 -0.570426 -0.346424 0.744718 141.621751
DOCKED: USER    NEWDPF dihe0 48.96 -173.64 176.84 40.16 -151.43 -14.95 149.71 -85.08 -127.08 -4.66 -107.45 1.01 -8.10 
DOCKED: USER  keepresnum = 1 
DOCKED: USER  
DOCKED: REMARK  13 active torsions:
DOCKED: REMARK  status: ('A' for Active; 'I' for Inactive)
DOCKED: REMARK    1  A    between atoms: O_3  and  C_38 
DOCKED: REMARK    2  A    between atoms: O_4  and  C_40 
DOCKED: REMARK    3  A    between atoms: O_7  and  C_46 
DOCKED: REMARK    4  A    between atoms: O_9  and  C_48 
DOCKED: REMARK    5  A    between atoms: C_15  and  C_20 
DOCKED: REMARK    6  A    between atoms: C_16  and  C_23 
DOCKED: REMARK    7  A    between atoms: C_20  and  C_38 
DOCKED: REMARK    8  A    between atoms: C_23  and  C_40 
DOCKED: REMARK    9  A    between atoms: C_32  and  C_41 
DOCKED: REMARK   10  A    between atoms: C_37  and  C_45 
DOCKED: REMARK   11  A    between atoms: C_41  and  C_44 
DOCKED: REMARK   12  A    between atoms: C_44  and  C_46 
DOCKED: REMARK   13  A    between atoms: C_47  and  C_48 
DOCKED: USER                              x       y       z     vdW  Elec       q    Type
DOCKED: USER                           _______ _______ _______ _____ _____    ______ ____
DOCKED: ROOT
DOCKED: ATOM      1  O   UNL d   1       8.486  12.635  -7.426 -0.51 +0.33    -0.289 OA
DOCKED: ATOM      2  O   UNL d   1       3.768  17.848 -10.064 -0.03 +0.06    -0.289 OA
DOCKED: ATOM      3  N   UNL d   1       7.592  12.835 -10.751 -0.14 +0.09    -0.247 NA
DOCKED: ATOM      4  N   UNL d   1       5.511  14.956 -10.773 -0.07 +0.11    -0.247 NA
DOCKED: ATOM      5  N   UNL d   1       4.819  14.120 -13.436 -0.04 +0.17    -0.354 N 
DOCKED: ATOM      6  N   UNL d   1       6.968  11.910 -13.397 -0.13 +0.14    -0.354 N 
DOCKED: ATOM      7  C   UNL d   1       8.897  11.258  -9.403 -0.27 -0.03    +0.084 A 
DOCKED: ATOM      8  C   UNL d   1       5.601  16.628  -8.994 -0.07 -0.03    +0.084 A 
DOCKED: ATOM      9  C   UNL d   1       6.137  15.330  -9.605 -0.16 -0.02    +0.058 A 
DOCKED: ATOM     10  C   UNL d   1       8.323  11.659 -10.765 -0.24 -0.02    +0.058 A 
DOCKED: ATOM     11  C   UNL d   1       8.378  12.427  -8.620 +0.05 -0.10    +0.193 A 
DOCKED: ATOM     12  C   UNL d   1       7.626  13.324  -9.554 -0.19 -0.04    +0.109 A 
DOCKED: ATOM     13  C   UNL d   1       4.529  16.902 -10.012 -0.06 -0.05    +0.193 A 
DOCKED: ATOM     14  C   UNL d   1       8.257   9.977  -8.863 -0.59 -0.01    +0.026 C 
DOCKED: ATOM     15  C   UNL d   1       7.097  14.596  -9.022 -0.20 -0.02    +0.055 C 
DOCKED: ATOM     16  C   UNL d   1       6.637  17.755  -9.054 -0.02 -0.01    +0.026 C 
DOCKED: ATOM     17  C   UNL d   1       4.575  15.812 -11.032 -0.14 -0.04    +0.109 A 
DOCKED: ATOM     18  C   UNL d   1       8.598  10.954 -11.879 -0.29 -0.01    +0.050 C 
DOCKED: ATOM     19  C   UNL d   1       8.182  11.295 -13.191 -0.22 -0.01    +0.045 A 
DOCKED: ATOM     20  C   UNL d   1       3.781  14.977 -13.181 -0.19 -0.02    +0.045 A 
DOCKED: ATOM     21  C   UNL d   1       3.605  15.793 -12.136 -0.21 -0.02    +0.057 C 
DOCKED: ATOM     22  C   UNL d   1       3.390  13.914 -15.164 -0.29 +0.01    -0.019 A 
DOCKED: ATOM     23  C   UNL d   1       4.672  13.433 -14.611 -0.30 -0.02    +0.045 A 
DOCKED: ATOM     24  C   UNL d   1       2.868  14.829 -14.313 -0.29 +0.00    -0.022 A 
DOCKED: ATOM     25  C   UNL d   1       6.727  12.065 -14.743 -0.24 -0.03    +0.049 A 
DOCKED: ATOM     26  C   UNL d   1       8.761  11.078 -14.432 -0.21 +0.00    -0.018 A 
DOCKED: ATOM     27  C   UNL d   1       7.847  11.584 -15.407 -0.20 -0.00    +0.003 A 
DOCKED: ATOM     28  C   UNL d   1       5.468  12.533 -15.208 -0.21 -0.05    +0.052 C 
DOCKED: ATOM     29  C   UNL d   1       1.599  15.602 -14.438 -0.26 +0.00    +0.046 C 
DOCKED: ATOM     30  C   UNL d   1      10.084  10.443 -14.698 -0.20 -0.00    +0.046 C 
DOCKED: ATOM     31  H   UNL d   1       5.634  14.087 -12.832 -0.14 -0.08    +0.166 HD
DOCKED: ATOM     32  H   UNL d   1       6.335  12.166 -12.648 -0.06 -0.08    +0.166 HD
DOCKED: ENDROOT
DOCKED: BRANCH   7  33
DOCKED: ATOM     33  C   UNL d   1      10.427  11.197  -9.327 -0.21 -0.06    +0.141 C 
DOCKED: BRANCH  33  34
DOCKED: ATOM     34  C   UNL d   1      10.986   9.930  -9.916 -0.16 -0.10    +0.306 C 
DOCKED: ATOM     35  O   UNL d   1      11.308   8.930  -9.297 -0.23 +0.07    -0.251 OA
DOCKED: BRANCH  34  36
DOCKED: ATOM     36  O   UNL d   1      11.107   9.989 -11.254 -0.06 +0.16    -0.481 OA
DOCKED: ATOM     37  H   UNL d   1      10.731   9.142 -11.573 -0.44 -0.18    +0.295 HD
DOCKED: ENDBRANCH  34  36
DOCKED: ENDBRANCH  33  34
DOCKED: ENDBRANCH   7  33
DOCKED: BRANCH  27  38
DOCKED: ATOM     38  C   UNL d   1       8.048  11.547 -16.824 -0.10 -0.01    +0.017 C 
DOCKED: ATOM     39  C   UNL d   1       7.693  12.516 -17.682 -0.03 -0.06    +0.092 C 
DOCKED: BRANCH  39  40
DOCKED: ATOM     40  C   UNL d   1       7.971  12.363 -19.112 -0.05 -0.10    +0.330 C 
DOCKED: ATOM     41  O   UNL d   1       8.744  11.586 -19.640 -0.06 +0.02    -0.246 OA
DOCKED: BRANCH  40  42
DOCKED: ATOM     42  O   UNL d   1       7.226  13.223 -19.823 -0.01 +0.12    -0.477 OA
DOCKED: ATOM     43  H   UNL d   1       6.787  13.772 -19.141 +0.03 -0.09    +0.295 HD
DOCKED: ENDBRANCH  40  42
DOCKED: ENDBRANCH  39  40
DOCKED: ENDBRANCH  27  38
DOCKED: BRANCH   8  44
DOCKED: ATOM     44  C   UNL d   1       5.002  16.500  -7.589 -0.14 -0.05    +0.141 C 
DOCKED: BRANCH  44  45
DOCKED: ATOM     45  C   UNL d   1       3.924  15.453  -7.496 -0.25 -0.14    +0.306 C 
DOCKED: ATOM     46  O   UNL d   1       4.021  14.354  -6.979 -0.40 +0.16    -0.251 OA
DOCKED: BRANCH  45  47
DOCKED: ATOM     47  O   UNL d   1       2.779  15.840  -8.087 -0.18 +0.24    -0.481 OA
DOCKED: ATOM     48  H   UNL d   1       2.948  16.763  -8.375 +0.09 -0.10    +0.295 HD
DOCKED: ENDBRANCH  45  47
DOCKED: ENDBRANCH  44  45
DOCKED: ENDBRANCH   8  44
DOCKED: BRANCH  22  49
DOCKED: ATOM     49  C   UNL d   1       2.793  13.428 -16.452 -0.34 -0.01    +0.048 C 
DOCKED: BRANCH  49  50
DOCKED: ATOM     50  C   UNL d   1       3.222  14.290 -17.639 -0.25 -0.01    +0.125 C 
DOCKED: BRANCH  50  51
DOCKED: ATOM     51  C   UNL d   1       4.656  14.026 -18.003 -0.08 -0.12    +0.305 C 
DOCKED: ATOM     52  O   UNL d   1       5.646  14.606 -17.592 -0.05 +0.08    -0.251 OA
DOCKED: BRANCH  51  53
DOCKED: ATOM     53  O   UNL d   1       4.773  13.027 -18.899 -0.05 +0.31    -0.481 OA
DOCKED: ATOM     54  H   UNL d   1       5.561  12.528 -18.599 -0.26 -0.37    +0.295 HD
DOCKED: ENDBRANCH  51  53
DOCKED: ENDBRANCH  50  51
DOCKED: ENDBRANCH  49  50
DOCKED: ENDBRANCH  22  49
DOCKED: TORSDOF 13
DOCKED: TER
DOCKED: ENDMDL
________________________________________________________________________________


	BEGINNING GENETIC ALGORITHM DOCKING 64 of 100
Run: 64 Seed: 1387632726 1809001096 [ Run 64 of 100 GA/GALS ]
Beginning LAMARCKIAN GENETIC ALGORITHM (LGA), with a maximum of 25000000 energy evaluations.

Final-Value: -9.981


	FINAL GENETIC ALGORITHM DOCKED STATE
	_______________________________________________


Detailed state:  trans 0.677 -13.414 -19.753 quatxyzw 0.731974 -0.262642 -0.379082 0.501527 center 0.153 0.018 -0.028 ntor 13 -179.9200 -37.4368 -163.4720 1.4520 -150.7132 -132.2296 -28.0940 90.1269 24.9828 -17.4288 123.6232 -92.8492 -134.4994
State:	  0.677 -13.414 -19.753   0.846 -0.304 -0.438 119.798   -179.92  -37.44 -163.47    1.45 -150.71 -132.23  -28.09   90.13   24.98  -17.43  123.62  -92.85 -134.50

DOCKED: MODEL       64
DOCKED: USER    Run = 64
DOCKED: USER    DPF = D:/Protein_go_brrr/autodock/final/mut_N102T/heme/dock.dpf
DOCKED: USER  
DOCKED: USER    Estimated Free Energy of Binding    =   -4.36 kcal/mol  [=(1)+(2)+(3)-(4)]
DOCKED: USER    Estimated Inhibition Constant, Ki   =  637.67 uM (micromolar)  [Temperature = 298.15 K]
DOCKED: USER    
DOCKED: USER    (1) Final Intermolecular Energy     =   -8.24 kcal/mol
DOCKED: USER        vdW + Hbond + desolv Energy     =   -7.94 kcal/mol
DOCKED: USER        Electrostatic Energy            =   -0.29 kcal/mol
DOCKED: USER    (2) Final Total Internal Energy     =   -1.74 kcal/mol
DOCKED: USER    (3) Torsional Free Energy           =   +3.88 kcal/mol
DOCKED: USER    (4) Unbound System's Energy  [=(2)] =   -1.74 kcal/mol
DOCKED: USER    
DOCKED: USER    
DOCKED: USER    NEWDPF move heme_opt.pdbqt
DOCKED: USER    NEWDPF about 0.153000 0.018000 -0.028000
DOCKED: USER    NEWDPF tran0 0.676641 -13.414171 -19.753493
DOCKED: USER    NEWDPF quaternion0 0.731974 -0.262642 -0.379082 0.501527
DOCKED: USER    NEWDPF axisangle0 0.846074 -0.303583 -0.438173 119.797808
DOCKED: USER    NEWDPF quat0 0.846074 -0.303583 -0.438173 119.797808
DOCKED: USER    NEWDPF dihe0 -179.92 -37.44 -163.47 1.45 -150.71 -132.23 -28.09 90.13 24.98 -17.43 123.62 -92.85 -134.50 
DOCKED: USER  keepresnum = 1 
DOCKED: USER  
DOCKED: REMARK  13 active torsions:
DOCKED: REMARK  status: ('A' for Active; 'I' for Inactive)
DOCKED: REMARK    1  A    between atoms: O_3  and  C_38 
DOCKED: REMARK    2  A    between atoms: O_4  and  C_40 
DOCKED: REMARK    3  A    between atoms: O_7  and  C_46 
DOCKED: REMARK    4  A    between atoms: O_9  and  C_48 
DOCKED: REMARK    5  A    between atoms: C_15  and  C_20 
DOCKED: REMARK    6  A    between atoms: C_16  and  C_23 
DOCKED: REMARK    7  A    between atoms: C_20  and  C_38 
DOCKED: REMARK    8  A    between atoms: C_23  and  C_40 
DOCKED: REMARK    9  A    between atoms: C_32  and  C_41 
DOCKED: REMARK   10  A    between atoms: C_37  and  C_45 
DOCKED: REMARK   11  A    between atoms: C_41  and  C_44 
DOCKED: REMARK   12  A    between atoms: C_44  and  C_46 
DOCKED: REMARK   13  A    between atoms: C_47  and  C_48 
DOCKED: USER                              x       y       z     vdW  Elec       q    Type
DOCKED: USER                           _______ _______ _______ _____ _____    ______ ____
DOCKED: ROOT
DOCKED: ATOM      1  O   UNL d   1      -4.028 -13.392 -16.201 -0.37 -0.08    -0.289 OA
DOCKED: ATOM      2  O   UNL d   1       3.316 -13.137 -14.655 -0.66 -0.25    -0.289 OA
DOCKED: ATOM      3  N   UNL d   1      -1.598 -13.568 -18.642 -0.09 +0.02    -0.247 NA
DOCKED: ATOM      4  N   UNL d   1       0.918 -13.089 -17.137 -0.07 -0.04    -0.247 NA
DOCKED: ATOM      5  N   UNL d   1       2.243 -12.696 -19.658 -0.06 -0.07    -0.354 N 
DOCKED: ATOM      6  N   UNL d   1      -0.376 -13.175 -21.211 -0.07 +0.00    -0.354 N 
DOCKED: ATOM      7  C   UNL d   1      -4.045 -13.419 -18.645 -0.17 -0.00    +0.084 A 
DOCKED: ATOM      8  C   UNL d   1       0.930 -13.672 -14.764 -0.21 +0.01    +0.084 A 
DOCKED: ATOM      9  C   UNL d   1       0.154 -13.522 -16.077 -0.17 +0.01    +0.058 A 
DOCKED: ATOM     10  C   UNL d   1      -2.733 -13.501 -19.432 -0.16 -0.00    +0.058 A 
DOCKED: ATOM     11  C   UNL d   1      -3.450 -13.470 -17.270 -0.23 +0.01    +0.193 A 
DOCKED: ATOM     12  C   UNL d   1      -1.963 -13.585 -17.402 -0.19 -0.00    +0.109 A 
DOCKED: ATOM     13  C   UNL d   1       2.268 -13.207 -15.266 -0.15 +0.10    +0.193 A 
DOCKED: ATOM     14  C   UNL d   1      -4.744 -12.070 -18.833 -0.32 -0.00    +0.026 C 
DOCKED: ATOM     15  C   UNL d   1      -1.166 -13.745 -16.169 -0.29 +0.00    +0.055 C 
DOCKED: ATOM     16  C   UNL d   1       1.046 -15.138 -14.337 -0.21 +0.00    +0.026 C 
DOCKED: ATOM     17  C   UNL d   1       2.124 -12.877 -16.716 -0.14 +0.06    +0.109 A 
DOCKED: ATOM     18  C   UNL d   1      -2.724 -13.590 -20.776 -0.15 -0.00    +0.050 C 
DOCKED: ATOM     19  C   UNL d   1      -1.569 -13.754 -21.581 -0.11 -0.00    +0.045 A 
DOCKED: ATOM     20  C   UNL d   1       3.233 -12.283 -18.805 -0.16 +0.03    +0.045 A 
DOCKED: ATOM     21  C   UNL d   1       3.272 -12.350 -17.470 +0.06 +0.06    +0.057 C 
DOCKED: ATOM     22  C   UNL d   1       3.879 -11.844 -20.952 -0.14 -0.00    -0.019 A 
DOCKED: ATOM     23  C   UNL d   1       2.542 -12.472 -20.976 -0.14 +0.01    +0.045 A 
DOCKED: ATOM     24  C   UNL d   1       4.283 -11.736 -19.664 -0.16 -0.01    -0.022 A 
DOCKED: ATOM     25  C   UNL d   1       0.582 -13.383 -22.176 -0.06 +0.00    +0.049 A 
DOCKED: ATOM     26  C   UNL d   1      -1.370 -14.387 -22.799 -0.07 +0.00    -0.018 A 
DOCKED: ATOM     27  C   UNL d   1      -0.005 -14.166 -23.160 -0.08 -0.00    +0.003 A 
DOCKED: ATOM     28  C   UNL d   1       1.851 -12.747 -22.092 +0.01 +0.00    +0.052 C 
DOCKED: ATOM     29  C   UNL d   1       5.560 -11.182 -19.131 -0.12 +0.04    +0.046 C 
DOCKED: ATOM     30  C   UNL d   1      -2.384 -15.152 -23.580 -0.03 -0.00    +0.046 C 
DOCKED: ATOM     31  H   UNL d   1       1.424 -13.186 -19.315 +0.05 +0.02    +0.166 HD
DOCKED: ATOM     32  H   UNL d   1      -0.254 -12.637 -20.361 +0.04 -0.00    +0.166 HD
DOCKED: ENDROOT
DOCKED: BRANCH   7  33
DOCKED: ATOM     33  C   UNL d   1      -5.012 -14.588 -18.857 -0.08 +0.00    +0.141 C 
DOCKED: BRANCH  33  34
DOCKED: ATOM     34  C   UNL d   1      -4.545 -15.854 -18.191 -0.05 +0.01    +0.306 C 
DOCKED: ATOM     35  O   UNL d   1      -3.932 -16.764 -18.723 -0.01 -0.00    -0.251 OA
DOCKED: BRANCH  34  36
DOCKED: ATOM     36  O   UNL d   1      -4.873 -15.906 -16.888 -0.22 -0.05    -0.481 OA
DOCKED: ATOM     37  H   UNL d   1      -5.314 -15.048 -16.710 +0.06 +0.04    +0.295 HD
DOCKED: ENDBRANCH  34  36
DOCKED: ENDBRANCH  33  34
DOCKED: ENDBRANCH   7  33
DOCKED: BRANCH  27  38
DOCKED: ATOM     38  C   UNL d   1       0.617 -14.637 -24.360 -0.05 -0.00    +0.017 C 
DOCKED: ATOM     39  C   UNL d   1       1.243 -13.866 -25.262 -0.05 -0.00    +0.092 C 
DOCKED: BRANCH  39  40
DOCKED: ATOM     40  C   UNL d   1       1.857 -14.476 -26.444 -0.01 -0.01    +0.330 C 
DOCKED: ATOM     41  O   UNL d   1       2.959 -14.255 -26.908 -0.00 +0.01    -0.246 OA
DOCKED: BRANCH  40  42
DOCKED: ATOM     42  O   UNL d   1       1.018 -15.371 -26.990 +0.00 +0.02    -0.477 OA
DOCKED: ATOM     43  H   UNL d   1       1.154 -15.262 -27.953 +0.00 -0.01    +0.295 HD
DOCKED: ENDBRANCH  40  42
DOCKED: ENDBRANCH  39  40
DOCKED: ENDBRANCH  27  38
DOCKED: BRANCH   8  44
DOCKED: ATOM     44  C   UNL d   1       0.444 -12.795 -13.606 -0.41 +0.01    +0.141 C 
DOCKED: BRANCH  44  45
DOCKED: ATOM     45  C   UNL d   1       0.668 -11.324 -13.839 -0.38 +0.06    +0.306 C 
DOCKED: ATOM     46  O   UNL d   1       1.738 -10.740 -13.816 -0.37 -0.11    -0.251 OA
DOCKED: BRANCH  45  47
DOCKED: ATOM     47  O   UNL d   1      -0.479 -10.658 -14.063 -0.59 -0.08    -0.481 OA
DOCKED: ATOM     48  H   UNL d   1      -1.184 -11.270 -13.763 -0.28 -0.01    +0.295 HD
DOCKED: ENDBRANCH  45  47
DOCKED: ENDBRANCH  44  45
DOCKED: ENDBRANCH   8  44
DOCKED: BRANCH  22  49
DOCKED: ATOM     49  C   UNL d   1       4.622 -11.399 -22.177 -0.10 +0.01    +0.048 C 
DOCKED: BRANCH  49  50
DOCKED: ATOM     50  C   UNL d   1       5.380 -10.093 -21.939 -0.10 +0.01    +0.125 C 
DOCKED: BRANCH  50  51
DOCKED: ATOM     51  C   UNL d   1       4.453  -9.016 -21.453 -0.16 +0.03    +0.305 C 
DOCKED: ATOM     52  O   UNL d   1       4.085  -8.813 -20.309 -0.31 -0.05    -0.251 OA
DOCKED: BRANCH  51  53
DOCKED: ATOM     53  O   UNL d   1       4.014  -8.236 -22.460 -0.10 +0.00    -0.481 OA
DOCKED: ATOM     54  H   UNL d   1       3.442  -7.575 -22.017 -0.14 -0.04    +0.295 HD
DOCKED: ENDBRANCH  51  53
DOCKED: ENDBRANCH  50  51
DOCKED: ENDBRANCH  49  50
DOCKED: ENDBRANCH  22  49
DOCKED: TORSDOF 13
DOCKED: TER
DOCKED: ENDMDL
________________________________________________________________________________


	BEGINNING GENETIC ALGORITHM DOCKING 65 of 100
Run: 65 Seed: 1859969001 122497164 [ Run 65 of 100 GA/GALS ]
Beginning LAMARCKIAN GENETIC ALGORITHM (LGA), with a maximum of 25000000 energy evaluations.

Final-Value: -9.723


	FINAL GENETIC ALGORITHM DOCKED STATE
	_______________________________________________


Detailed state:  trans 12.428 -2.210 10.632 quatxyzw 0.181774 0.006613 0.892838 -0.412013 center 0.153 0.018 -0.028 ntor 13 176.5793 -51.1861 108.8651 62.8714 -157.4952 -49.4536 -45.7488 100.3805 2.4790 -129.6254 159.1161 -177.0786 12.7193
State:	 12.428  -2.210  10.632   0.199  0.007  0.980 -131.337    176.58  -51.19  108.87   62.87 -157.50  -49.45  -45.75  100.38    2.48 -129.63  159.12 -177.08   12.72

DOCKED: MODEL       65
DOCKED: USER    Run = 65
DOCKED: USER    DPF = D:/Protein_go_brrr/autodock/final/mut_N102T/heme/dock.dpf
DOCKED: USER  
DOCKED: USER    Estimated Free Energy of Binding    =   -3.28 kcal/mol  [=(1)+(2)+(3)-(4)]
DOCKED: USER    Estimated Inhibition Constant, Ki   =    3.91 mM (millimolar)  [Temperature = 298.15 K]
DOCKED: USER    
DOCKED: USER    (1) Final Intermolecular Energy     =   -7.16 kcal/mol
DOCKED: USER        vdW + Hbond + desolv Energy     =   -6.75 kcal/mol
DOCKED: USER        Electrostatic Energy            =   -0.42 kcal/mol
DOCKED: USER    (2) Final Total Internal Energy     =   -2.56 kcal/mol
DOCKED: USER    (3) Torsional Free Energy           =   +3.88 kcal/mol
DOCKED: USER    (4) Unbound System's Energy  [=(2)] =   -2.56 kcal/mol
DOCKED: USER    
DOCKED: USER    
DOCKED: USER    NEWDPF move heme_opt.pdbqt
DOCKED: USER    NEWDPF about 0.153000 0.018000 -0.028000
DOCKED: USER    NEWDPF tran0 12.428224 -2.209745 10.632069
DOCKED: USER    NEWDPF quaternion0 0.181774 0.006613 0.892838 -0.412013
DOCKED: USER    NEWDPF axisangle0 0.199493 0.007257 0.979872 -131.337357
DOCKED: USER    NEWDPF quat0 0.199493 0.007257 0.979872 -131.337357
DOCKED: USER    NEWDPF dihe0 176.58 -51.19 108.87 62.87 -157.50 -49.45 -45.75 100.38 2.48 -129.63 159.12 -177.08 12.72 
DOCKED: USER  keepresnum = 1 
DOCKED: USER  
DOCKED: REMARK  13 active torsions:
DOCKED: REMARK  status: ('A' for Active; 'I' for Inactive)
DOCKED: REMARK    1  A    between atoms: O_3  and  C_38 
DOCKED: REMARK    2  A    between atoms: O_4  and  C_40 
DOCKED: REMARK    3  A    between atoms: O_7  and  C_46 
DOCKED: REMARK    4  A    between atoms: O_9  and  C_48 
DOCKED: REMARK    5  A    between atoms: C_15  and  C_20 
DOCKED: REMARK    6  A    between atoms: C_16  and  C_23 
DOCKED: REMARK    7  A    between atoms: C_20  and  C_38 
DOCKED: REMARK    8  A    between atoms: C_23  and  C_40 
DOCKED: REMARK    9  A    between atoms: C_32  and  C_41 
DOCKED: REMARK   10  A    between atoms: C_37  and  C_45 
DOCKED: REMARK   11  A    between atoms: C_41  and  C_44 
DOCKED: REMARK   12  A    between atoms: C_44  and  C_46 
DOCKED: REMARK   13  A    between atoms: C_47  and  C_48 
DOCKED: USER                              x       y       z     vdW  Elec       q    Type
DOCKED: USER                           _______ _______ _______ _____ _____    ______ ____
DOCKED: ROOT
DOCKED: ATOM      1  O   UNL d   1      14.739  -7.556   9.719 -0.00 -0.11    -0.289 OA
DOCKED: ATOM      2  O   UNL d   1      17.040  -0.753   7.527 -0.01 -0.06    -0.289 OA
DOCKED: ATOM      3  N   UNL d   1      12.960  -4.678  10.387 -0.12 -0.36    -0.247 NA
DOCKED: ATOM      4  N   UNL d   1      14.764  -2.521   9.423 -0.09 -0.16    -0.247 NA
DOCKED: ATOM      5  N   UNL d   1      13.111  -0.637  10.831 -0.01 -0.16    -0.354 N 
DOCKED: ATOM      6  N   UNL d   1      11.256  -2.882  11.842 -0.03 -0.23    -0.354 N 
DOCKED: ATOM      7  C   UNL d   1      12.742  -7.033  11.029 -0.05 +0.05    +0.084 A 
DOCKED: ATOM      8  C   UNL d   1      16.352  -3.098   7.658 -0.03 +0.03    +0.084 A 
DOCKED: ATOM      9  C   UNL d   1      15.279  -3.543   8.658 -0.07 +0.04    +0.058 A 
DOCKED: ATOM     10  C   UNL d   1      12.219  -5.596  11.112 -0.06 +0.05    +0.058 A 
DOCKED: ATOM     11  C   UNL d   1      13.900  -6.767  10.114 -0.03 +0.12    +0.193 A 
DOCKED: ATOM     12  C   UNL d   1      13.909  -5.309   9.776 -0.03 +0.12    +0.109 A 
DOCKED: ATOM     13  C   UNL d   1      16.376  -1.641   8.024 -0.01 +0.05    +0.193 A 
DOCKED: ATOM     14  C   UNL d   1      13.278  -7.527  12.375 -0.01 +0.01    +0.026 C 
DOCKED: ATOM     15  C   UNL d   1      14.914  -4.826   8.807 -0.07 +0.04    +0.055 C 
DOCKED: ATOM     16  C   UNL d   1      15.870  -3.234   6.210 -0.08 +0.01    +0.026 C 
DOCKED: ATOM     17  C   UNL d   1      15.374  -1.424   9.111 -0.03 +0.04    +0.109 A 
DOCKED: ATOM     18  C   UNL d   1      11.081  -5.298  11.767 -0.10 +0.04    +0.050 C 
DOCKED: ATOM     19  C   UNL d   1      10.477  -4.017  11.826 -0.09 +0.03    +0.045 A 
DOCKED: ATOM     20  C   UNL d   1      14.160   0.177  10.493 -0.05 +0.01    +0.045 A 
DOCKED: ATOM     21  C   UNL d   1      15.207  -0.089   9.704 -0.04 +0.02    +0.057 C 
DOCKED: ATOM     22  C   UNL d   1      12.753   1.325  11.878 -0.11 -0.01    -0.019 A 
DOCKED: ATOM     23  C   UNL d   1      12.209  -0.031  11.665 -0.09 +0.02    +0.045 A 
DOCKED: ATOM     24  C   UNL d   1      13.907   1.443  11.180 -0.08 -0.01    -0.022 A 
DOCKED: ATOM     25  C   UNL d   1      10.473  -1.761  11.993 -0.11 +0.02    +0.049 A 
DOCKED: ATOM     26  C   UNL d   1       9.153  -3.621  11.931 -0.14 -0.01    -0.018 A 
DOCKED: ATOM     27  C   UNL d   1       9.155  -2.194  12.017 -0.16 +0.00    +0.003 A 
DOCKED: ATOM     28  C   UNL d   1      11.062  -0.482  12.195 -0.15 +0.02    +0.052 C 
DOCKED: ATOM     29  C   UNL d   1      14.814   2.621  11.069 -0.09 +0.01    +0.046 C 
DOCKED: ATOM     30  C   UNL d   1       7.956  -4.511  11.950 -0.21 +0.02    +0.046 C 
DOCKED: ATOM     31  H   UNL d   1      13.006  -1.558  10.420 +0.03 +0.12    +0.166 HD
DOCKED: ATOM     32  H   UNL d   1      12.268  -2.896  11.791 +0.02 +0.11    +0.166 HD
DOCKED: ENDROOT
DOCKED: BRANCH   7  33
DOCKED: ATOM     33  C   UNL d   1      11.781  -8.047  10.400 -0.09 +0.08    +0.141 C 
DOCKED: BRANCH  33  34
DOCKED: ATOM     34  C   UNL d   1      11.229  -7.580   9.080 -0.08 +0.30    +0.306 C 
DOCKED: ATOM     35  O   UNL d   1      10.111  -7.134   8.884 -0.41 -0.27    -0.251 OA
DOCKED: BRANCH  34  36
DOCKED: ATOM     36  O   UNL d   1      12.116  -7.698   8.076 -0.37 -0.44    -0.481 OA
DOCKED: ATOM     37  H   UNL d   1      12.947  -7.980   8.514 +0.03 +0.19    +0.295 HD
DOCKED: ENDBRANCH  34  36
DOCKED: ENDBRANCH  33  34
DOCKED: ENDBRANCH   7  33
DOCKED: BRANCH  27  38
DOCKED: ATOM     38  C   UNL d   1       7.990  -1.374  12.154 -0.29 +0.00    +0.017 C 
DOCKED: ATOM     39  C   UNL d   1       6.925  -1.662  12.918 -0.27 +0.01    +0.092 C 
DOCKED: BRANCH  39  40
DOCKED: ATOM     40  C   UNL d   1       5.799  -0.727  12.985 -0.28 -0.02    +0.330 C 
DOCKED: ATOM     41  O   UNL d   1       5.837   0.465  13.225 -0.40 +0.02    -0.246 OA
DOCKED: BRANCH  40  42
DOCKED: ATOM     42  O   UNL d   1       4.649  -1.368  12.728 -0.16 +0.08    -0.477 OA
DOCKED: ATOM     43  H   UNL d   1       4.069  -1.119  13.476 -0.31 -0.16    +0.295 HD
DOCKED: ENDBRANCH  40  42
DOCKED: ENDBRANCH  39  40
DOCKED: ENDBRANCH  27  38
DOCKED: BRANCH   8  44
DOCKED: ATOM     44  C   UNL d   1      17.733  -3.734   7.844 -0.00 +0.03    +0.141 C 
DOCKED: BRANCH  44  45
DOCKED: ATOM     45  C   UNL d   1      18.751  -3.248   6.847 +0.00 +0.04    +0.306 C 
DOCKED: ATOM     46  O   UNL d   1      18.989  -3.736   5.756 -0.00 -0.02    -0.251 OA
DOCKED: BRANCH  45  47
DOCKED: ATOM     47  O   UNL d   1      19.438  -2.181   7.292 +0.00 -0.05    -0.481 OA
DOCKED: ATOM     48  H   UNL d   1      18.795  -1.441   7.262 +0.00 +0.03    +0.295 HD
DOCKED: ENDBRANCH  45  47
DOCKED: ENDBRANCH  44  45
DOCKED: ENDBRANCH   8  44
DOCKED: BRANCH  22  49
DOCKED: ATOM     49  C   UNL d   1      12.108   2.365  12.747 -0.26 +0.02    +0.048 C 
DOCKED: BRANCH  49  50
DOCKED: ATOM     50  C   UNL d   1      10.820   2.905  12.126 -0.33 +0.04    +0.125 C 
DOCKED: BRANCH  50  51
DOCKED: ATOM     51  C   UNL d   1      10.785   2.641  10.648 -0.35 +0.07    +0.305 C 
DOCKED: ATOM     52  O   UNL d   1      10.273   1.696  10.074 -0.48 -0.08    -0.251 OA
DOCKED: BRANCH  51  53
DOCKED: ATOM     53  O   UNL d   1      11.424   3.600   9.949 -0.23 -0.07    -0.481 OA
DOCKED: ATOM     54  H   UNL d   1      10.723   3.995   9.390 -0.38 -0.05    +0.295 HD
DOCKED: ENDBRANCH  51  53
DOCKED: ENDBRANCH  50  51
DOCKED: ENDBRANCH  49  50
DOCKED: ENDBRANCH  22  49
DOCKED: TORSDOF 13
DOCKED: TER
DOCKED: ENDMDL
________________________________________________________________________________


	BEGINNING GENETIC ALGORITHM DOCKING 66 of 100
Run: 66 Seed: 1577564052 52339642 [ Run 66 of 100 GA/GALS ]
Beginning LAMARCKIAN GENETIC ALGORITHM (LGA), with a maximum of 25000000 energy evaluations.

Final-Value: -12.211


	FINAL GENETIC ALGORITHM DOCKED STATE
	_______________________________________________


Detailed state:  trans -6.935 10.200 -11.949 quatxyzw -0.058854 0.622188 0.634986 0.454105 center 0.153 0.018 -0.028 ntor 13 117.5164 -171.6228 116.5980 32.3020 11.7354 -123.1414 -47.5816 81.1515 -178.6607 -132.1767 -54.1756 61.5386 13.8374
State:	 -6.935  10.200 -11.949  -0.066  0.698  0.713 125.985    117.52 -171.62  116.60   32.30   11.74 -123.14  -47.58   81.15 -178.66 -132.18  -54.18   61.54   13.84

DOCKED: MODEL       66
DOCKED: USER    Run = 66
DOCKED: USER    DPF = D:/Protein_go_brrr/autodock/final/mut_N102T/heme/dock.dpf
DOCKED: USER  
DOCKED: USER    Estimated Free Energy of Binding    =   -5.30 kcal/mol  [=(1)+(2)+(3)-(4)]
DOCKED: USER    Estimated Inhibition Constant, Ki   =  131.00 uM (micromolar)  [Temperature = 298.15 K]
DOCKED: USER    
DOCKED: USER    (1) Final Intermolecular Energy     =   -9.17 kcal/mol
DOCKED: USER        vdW + Hbond + desolv Energy     =   -8.98 kcal/mol
DOCKED: USER        Electrostatic Energy            =   -0.19 kcal/mol
DOCKED: USER    (2) Final Total Internal Energy     =   -3.04 kcal/mol
DOCKED: USER    (3) Torsional Free Energy           =   +3.88 kcal/mol
DOCKED: USER    (4) Unbound System's Energy  [=(2)] =   -3.04 kcal/mol
DOCKED: USER    
DOCKED: USER    
DOCKED: USER    NEWDPF move heme_opt.pdbqt
DOCKED: USER    NEWDPF about 0.153000 0.018000 -0.028000
DOCKED: USER    NEWDPF tran0 -6.934820 10.200254 -11.949079
DOCKED: USER    NEWDPF quaternion0 -0.058854 0.622188 0.634986 0.454105
DOCKED: USER    NEWDPF axisangle0 -0.066057 0.698344 0.712708 125.985278
DOCKED: USER    NEWDPF quat0 -0.066057 0.698344 0.712708 125.985278
DOCKED: USER    NEWDPF dihe0 117.52 -171.62 116.60 32.30 11.74 -123.14 -47.58 81.15 -178.66 -132.18 -54.18 61.54 13.84 
DOCKED: USER  keepresnum = 1 
DOCKED: USER  
DOCKED: REMARK  13 active torsions:
DOCKED: REMARK  status: ('A' for Active; 'I' for Inactive)
DOCKED: REMARK    1  A    between atoms: O_3  and  C_38 
DOCKED: REMARK    2  A    between atoms: O_4  and  C_40 
DOCKED: REMARK    3  A    between atoms: O_7  and  C_46 
DOCKED: REMARK    4  A    between atoms: O_9  and  C_48 
DOCKED: REMARK    5  A    between atoms: C_15  and  C_20 
DOCKED: REMARK    6  A    between atoms: C_16  and  C_23 
DOCKED: REMARK    7  A    between atoms: C_20  and  C_38 
DOCKED: REMARK    8  A    between atoms: C_23  and  C_40 
DOCKED: REMARK    9  A    between atoms: C_32  and  C_41 
DOCKED: REMARK   10  A    between atoms: C_37  and  C_45 
DOCKED: REMARK   11  A    between atoms: C_41  and  C_44 
DOCKED: REMARK   12  A    between atoms: C_44  and  C_46 
DOCKED: REMARK   13  A    between atoms: C_47  and  C_48 
DOCKED: USER                              x       y       z     vdW  Elec       q    Type
DOCKED: USER                           _______ _______ _______ _____ _____    ______ ____
DOCKED: ROOT
DOCKED: ATOM      1  O   UNL d   1      -3.241  14.640 -13.134 -0.14 -0.02    -0.289 OA
DOCKED: ATOM      2  O   UNL d   1      -6.822   9.859 -17.686 -0.13 -0.03    -0.289 OA
DOCKED: ATOM      3  N   UNL d   1      -5.228  12.076 -11.961 -0.10 +0.02    -0.247 NA
DOCKED: ATOM      4  N   UNL d   1      -6.427  10.953 -14.436 -0.09 +0.03    -0.247 NA
DOCKED: ATOM      5  N   UNL d   1      -8.293   9.530 -12.776 -0.05 +0.05    -0.354 N 
DOCKED: ATOM      6  N   UNL d   1      -7.056  10.714 -10.214 -0.03 +0.02    -0.354 N 
DOCKED: ATOM      7  C   UNL d   1      -4.042  13.956 -10.928 -0.17 -0.01    +0.084 A 
DOCKED: ATOM      8  C   UNL d   1      -5.174  11.240 -16.515 -0.33 -0.01    +0.084 A 
DOCKED: ATOM      9  C   UNL d   1      -5.323  11.536 -15.019 -0.26 -0.01    +0.058 A 
DOCKED: ATOM     10  C   UNL d   1      -4.944  12.728 -10.772 -0.17 -0.00    +0.058 A 
DOCKED: ATOM     11  C   UNL d   1      -3.851  13.872 -12.412 -0.14 -0.01    +0.193 A 
DOCKED: ATOM     12  C   UNL d   1      -4.598  12.676 -12.917 -0.19 -0.01    +0.109 A 
DOCKED: ATOM     13  C   UNL d   1      -6.417  10.412 -16.682 -0.21 -0.00    +0.193 A 
DOCKED: ATOM     14  C   UNL d   1      -4.780  15.256 -10.596 -0.07 -0.00    +0.026 C 
DOCKED: ATOM     15  C   UNL d   1      -4.479  12.336 -14.349 -0.27 -0.01    +0.055 C 
DOCKED: ATOM     16  C   UNL d   1      -3.954  10.359 -16.800 -0.44 -0.01    +0.026 C 
DOCKED: ATOM     17  C   UNL d   1      -7.090  10.320 -15.351 -0.20 -0.01    +0.109 A 
DOCKED: ATOM     18  C   UNL d   1      -5.336  12.293  -9.560 -0.19 -0.00    +0.050 C 
DOCKED: ATOM     19  C   UNL d   1      -6.097  11.122  -9.314 -0.12 -0.00    +0.045 A 
DOCKED: ATOM     20  C   UNL d   1      -8.850   9.300 -14.008 -0.17 -0.00    +0.045 A 
DOCKED: ATOM     21  C   UNL d   1      -8.365   9.601 -15.216 -0.19 -0.00    +0.057 C 
DOCKED: ATOM     22  C   UNL d   1     -10.263   8.506 -12.398 -0.12 +0.00    -0.019 A 
DOCKED: ATOM     23  C   UNL d   1      -9.074   9.085 -11.743 -0.12 -0.01    +0.045 A 
DOCKED: ATOM     24  C   UNL d   1     -10.125   8.635 -13.739 -0.14 +0.00    -0.022 A 
DOCKED: ATOM     25  C   UNL d   1      -7.732   9.616  -9.736 -0.14 -0.00    +0.049 A 
DOCKED: ATOM     26  C   UNL d   1      -6.126  10.245  -8.241 -0.18 +0.00    -0.018 A 
DOCKED: ATOM     27  C   UNL d   1      -7.147   9.284  -8.521 -0.22 -0.00    +0.003 A 
DOCKED: ATOM     28  C   UNL d   1      -8.872   9.108 -10.416 -0.14 -0.00    +0.052 C 
DOCKED: ATOM     29  C   UNL d   1     -11.053   8.195 -14.819 -0.13 +0.00    +0.046 C 
DOCKED: ATOM     30  C   UNL d   1      -5.259  10.292  -7.028 -0.28 -0.00    +0.046 C 
DOCKED: ATOM     31  H   UNL d   1      -7.360   9.918 -12.685 +0.06 -0.02    +0.166 HD
DOCKED: ATOM     32  H   UNL d   1      -7.249  11.196 -11.084 +0.04 -0.01    +0.166 HD
DOCKED: ENDROOT
DOCKED: BRANCH   7  33
DOCKED: ATOM     33  C   UNL d   1      -2.692  13.876 -10.207 -0.14 -0.03    +0.141 C 
DOCKED: BRANCH  33  34
DOCKED: ATOM     34  C   UNL d   1      -2.401  15.102  -9.384 -0.17 -0.01    +0.306 C 
DOCKED: ATOM     35  O   UNL d   1      -3.013  15.469  -8.396 -0.75 -0.03    -0.251 OA
DOCKED: BRANCH  34  36
DOCKED: ATOM     36  O   UNL d   1      -1.351  15.801  -9.851 -0.18 +0.07    -0.481 OA
DOCKED: ATOM     37  H   UNL d   1      -0.584  15.202  -9.732 -0.39 -0.12    +0.295 HD
DOCKED: ENDBRANCH  34  36
DOCKED: ENDBRANCH  33  34
DOCKED: ENDBRANCH   7  33
DOCKED: BRANCH  27  38
DOCKED: ATOM     38  C   UNL d   1      -7.521   8.202  -7.662 -0.29 -0.00    +0.017 C 
DOCKED: ATOM     39  C   UNL d   1      -6.882   7.025  -7.576 -0.38 -0.00    +0.092 C 
DOCKED: BRANCH  39  40
DOCKED: ATOM     40  C   UNL d   1      -7.358   6.003  -6.640 -0.20 -0.01    +0.330 C 
DOCKED: ATOM     41  O   UNL d   1      -6.723   5.440  -5.769 -0.36 +0.03    -0.246 OA
DOCKED: BRANCH  40  42
DOCKED: ATOM     42  O   UNL d   1      -8.657   5.746  -6.858 -0.07 -0.01    -0.477 OA
DOCKED: ATOM     43  H   UNL d   1      -8.858   6.236  -7.682 +0.09 +0.02    +0.295 HD
DOCKED: ENDBRANCH  40  42
DOCKED: ENDBRANCH  39  40
DOCKED: ENDBRANCH  27  38
DOCKED: BRANCH   8  44
DOCKED: ATOM     44  C   UNL d   1      -5.202  12.464 -17.436 -0.22 +0.01    +0.141 C 
DOCKED: BRANCH  44  45
DOCKED: ATOM     45  C   UNL d   1      -5.007  12.119 -18.889 -0.16 +0.03    +0.306 C 
DOCKED: ATOM     46  O   UNL d   1      -3.949  12.082 -19.492 -0.22 -0.03    -0.251 OA
DOCKED: BRANCH  45  47
DOCKED: ATOM     47  O   UNL d   1      -6.169  11.863 -19.517 -0.01 -0.05    -0.481 OA
DOCKED: ATOM     48  H   UNL d   1      -6.518  11.059 -19.076 +0.09 +0.03    +0.295 HD
DOCKED: ENDBRANCH  45  47
DOCKED: ENDBRANCH  44  45
DOCKED: ENDBRANCH   8  44
DOCKED: BRANCH  22  49
DOCKED: ATOM     49  C   UNL d   1     -11.421   7.899 -11.660 -0.08 -0.00    +0.048 C 
DOCKED: BRANCH  49  50
DOCKED: ATOM     50  C   UNL d   1     -11.038   6.580 -10.988 -0.09 -0.00    +0.125 C 
DOCKED: BRANCH  50  51
DOCKED: ATOM     51  C   UNL d   1     -11.385   6.603  -9.527 -0.05 +0.01    +0.305 C 
DOCKED: ATOM     52  O   UNL d   1     -12.490   6.503  -9.023 -0.02 -0.00    -0.251 OA
DOCKED: BRANCH  51  53
DOCKED: ATOM     53  O   UNL d   1     -10.294   6.766  -8.752 -0.42 -0.07    -0.481 OA
DOCKED: ATOM     54  H   UNL d   1     -10.507   6.270  -7.934 +0.04 +0.02    +0.295 HD
DOCKED: ENDBRANCH  51  53
DOCKED: ENDBRANCH  50  51
DOCKED: ENDBRANCH  49  50
DOCKED: ENDBRANCH  22  49
DOCKED: TORSDOF 13
DOCKED: TER
DOCKED: ENDMDL
________________________________________________________________________________


	BEGINNING GENETIC ALGORITHM DOCKING 67 of 100
Run: 67 Seed: 789248538 292765708 [ Run 67 of 100 GA/GALS ]
Beginning LAMARCKIAN GENETIC ALGORITHM (LGA), with a maximum of 25000000 energy evaluations.

Final-Value: -10.133


	FINAL GENETIC ALGORITHM DOCKED STATE
	_______________________________________________


Detailed state:  trans -2.002 5.305 -21.437 quatxyzw 0.261984 -0.956751 0.109336 0.063537 center 0.153 0.018 -0.028 ntor 13 87.6443 15.2533 -179.8564 -71.0060 -145.7296 127.0851 143.1221 -60.8105 75.6527 -147.7302 139.1341 77.1580 -177.4596
State:	 -2.002   5.305 -21.437   0.263 -0.959  0.110 172.714     87.64   15.25 -179.86  -71.01 -145.73  127.09  143.12  -60.81   75.65 -147.73  139.13   77.16 -177.46

DOCKED: MODEL       67
DOCKED: USER    Run = 67
DOCKED: USER    DPF = D:/Protein_go_brrr/autodock/final/mut_N102T/heme/dock.dpf
DOCKED: USER  
DOCKED: USER    Estimated Free Energy of Binding    =   -4.60 kcal/mol  [=(1)+(2)+(3)-(4)]
DOCKED: USER    Estimated Inhibition Constant, Ki   =  425.77 uM (micromolar)  [Temperature = 298.15 K]
DOCKED: USER    
DOCKED: USER    (1) Final Intermolecular Energy     =   -8.48 kcal/mol
DOCKED: USER        vdW + Hbond + desolv Energy     =   -8.07 kcal/mol
DOCKED: USER        Electrostatic Energy            =   -0.41 kcal/mol
DOCKED: USER    (2) Final Total Internal Energy     =   -1.66 kcal/mol
DOCKED: USER    (3) Torsional Free Energy           =   +3.88 kcal/mol
DOCKED: USER    (4) Unbound System's Energy  [=(2)] =   -1.66 kcal/mol
DOCKED: USER    
DOCKED: USER    
DOCKED: USER    NEWDPF move heme_opt.pdbqt
DOCKED: USER    NEWDPF about 0.153000 0.018000 -0.028000
DOCKED: USER    NEWDPF tran0 -2.001561 5.304962 -21.436924
DOCKED: USER    NEWDPF quaternion0 0.261984 -0.956751 0.109336 0.063537
DOCKED: USER    NEWDPF axisangle0 0.262514 -0.958688 0.109557 172.714307
DOCKED: USER    NEWDPF quat0 0.262514 -0.958688 0.109557 172.714307
DOCKED: USER    NEWDPF dihe0 87.64 15.25 -179.86 -71.01 -145.73 127.09 143.12 -60.81 75.65 -147.73 139.13 77.16 -177.46 
DOCKED: USER  keepresnum = 1 
DOCKED: USER  
DOCKED: REMARK  13 active torsions:
DOCKED: REMARK  status: ('A' for Active; 'I' for Inactive)
DOCKED: REMARK    1  A    between atoms: O_3  and  C_38 
DOCKED: REMARK    2  A    between atoms: O_4  and  C_40 
DOCKED: REMARK    3  A    between atoms: O_7  and  C_46 
DOCKED: REMARK    4  A    between atoms: O_9  and  C_48 
DOCKED: REMARK    5  A    between atoms: C_15  and  C_20 
DOCKED: REMARK    6  A    between atoms: C_16  and  C_23 
DOCKED: REMARK    7  A    between atoms: C_20  and  C_38 
DOCKED: REMARK    8  A    between atoms: C_23  and  C_40 
DOCKED: REMARK    9  A    between atoms: C_32  and  C_41 
DOCKED: REMARK   10  A    between atoms: C_37  and  C_45 
DOCKED: REMARK   11  A    between atoms: C_41  and  C_44 
DOCKED: REMARK   12  A    between atoms: C_44  and  C_46 
DOCKED: REMARK   13  A    between atoms: C_47  and  C_48 
DOCKED: USER                              x       y       z     vdW  Elec       q    Type
DOCKED: USER                           _______ _______ _______ _____ _____    ______ ____
DOCKED: ROOT
DOCKED: ATOM      1  O   UNL d   1       2.087   9.499 -22.113 -0.07 +0.01    -0.289 OA
DOCKED: ATOM      2  O   UNL d   1       2.349   2.887 -18.562 -0.29 +0.01    -0.289 OA
DOCKED: ATOM      3  N   UNL d   1      -0.641   7.403 -21.863 -0.09 +0.00    -0.247 NA
DOCKED: ATOM      4  N   UNL d   1       0.484   4.965 -20.590 -0.12 +0.01    -0.247 NA
DOCKED: ATOM      5  N   UNL d   1      -1.932   3.585 -21.312 -0.12 -0.04    -0.354 N 
DOCKED: ATOM      6  N   UNL d   1      -3.084   6.113 -22.647 -0.06 -0.04    -0.354 N 
DOCKED: ATOM      7  C   UNL d   1      -0.175   9.502 -23.040 -0.07 +0.00    +0.084 A 
DOCKED: ATOM      8  C   UNL d   1       2.471   5.248 -19.195 -0.27 -0.01    +0.084 A 
DOCKED: ATOM      9  C   UNL d   1       1.443   5.854 -20.157 -0.23 -0.01    +0.058 A 
DOCKED: ATOM     10  C   UNL d   1      -1.154   8.370 -22.711 -0.10 +0.00    +0.058 A 
DOCKED: ATOM     11  C   UNL d   1       0.975   9.012 -22.213 -0.08 -0.01    +0.193 A 
DOCKED: ATOM     12  C   UNL d   1       0.560   7.747 -21.528 -0.16 -0.01    +0.109 A 
DOCKED: ATOM     13  C   UNL d   1       1.939   3.843 -19.192 -0.21 -0.01    +0.193 A 
DOCKED: ATOM     14  C   UNL d   1       0.237   9.495 -24.514 -0.03 +0.00    +0.026 C 
DOCKED: ATOM     15  C   UNL d   1       1.506   7.126 -20.579 -0.26 -0.01    +0.055 C 
DOCKED: ATOM     16  C   UNL d   1       2.338   5.828 -17.784 -0.30 -0.01    +0.026 C 
DOCKED: ATOM     17  C   UNL d   1       0.740   3.803 -20.082 -0.14 -0.00    +0.109 A 
DOCKED: ATOM     18  C   UNL d   1      -2.426   8.391 -23.152 -0.09 +0.00    +0.050 C 
DOCKED: ATOM     19  C   UNL d   1      -3.423   7.435 -22.830 -0.06 +0.00    +0.045 A 
DOCKED: ATOM     20  C   UNL d   1      -1.171   2.524 -20.894 -0.22 +0.00    +0.045 A 
DOCKED: ATOM     21  C   UNL d   1       0.030   2.535 -20.308 -0.10 +0.00    +0.057 C 
DOCKED: ATOM     22  C   UNL d   1      -3.111   1.729 -21.801 -0.21 -0.00    -0.019 A 
DOCKED: ATOM     23  C   UNL d   1      -3.122   3.203 -21.874 -0.23 +0.01    +0.045 A 
DOCKED: ATOM     24  C   UNL d   1      -1.954   1.333 -21.219 -0.24 -0.00    -0.022 A 
DOCKED: ATOM     25  C   UNL d   1      -4.210   5.351 -22.436 -0.20 +0.01    +0.049 A 
DOCKED: ATOM     26  C   UNL d   1      -4.799   7.540 -22.698 -0.12 -0.00    -0.018 A 
DOCKED: ATOM     27  C   UNL d   1      -5.288   6.225 -22.429 -0.21 +0.00    +0.003 A 
DOCKED: ATOM     28  C   UNL d   1      -4.130   3.933 -22.376 -0.23 +0.01    +0.052 C 
DOCKED: ATOM     29  C   UNL d   1      -1.488  -0.051 -20.915 -0.30 -0.00    +0.046 C 
DOCKED: ATOM     30  C   UNL d   1      -5.611   8.785 -22.811 -0.10 +0.00    +0.046 C 
DOCKED: ATOM     31  H   UNL d   1      -1.646   4.541 -21.132 +0.06 +0.02    +0.166 HD
DOCKED: ATOM     32  H   UNL d   1      -2.135   5.764 -22.706 +0.04 +0.01    +0.166 HD
DOCKED: ENDROOT
DOCKED: BRANCH   7  33
DOCKED: ATOM     33  C   UNL d   1      -0.610  10.899 -22.584 -0.12 +0.01    +0.141 C 
DOCKED: BRANCH  33  34
DOCKED: ATOM     34  C   UNL d   1       0.402  11.555 -21.683 -0.15 +0.02    +0.306 C 
DOCKED: ATOM     35  O   UNL d   1       0.428  11.496 -20.466 -0.24 -0.00    -0.251 OA
DOCKED: BRANCH  34  36
DOCKED: ATOM     36  O   UNL d   1       1.331  12.248 -22.365 -0.01 -0.04    -0.481 OA
DOCKED: ATOM     37  H   UNL d   1       2.080  11.623 -22.468 +0.06 +0.01    +0.295 HD
DOCKED: ENDBRANCH  34  36
DOCKED: ENDBRANCH  33  34
DOCKED: ENDBRANCH   7  33
DOCKED: BRANCH  27  38
DOCKED: ATOM     38  C   UNL d   1      -6.665   5.879 -22.239 -0.24 +0.00    +0.017 C 
DOCKED: ATOM     39  C   UNL d   1      -7.429   6.281 -21.212 -0.26 +0.02    +0.092 C 
DOCKED: BRANCH  39  40
DOCKED: ATOM     40  C   UNL d   1      -8.834   5.870 -21.142 -0.15 +0.04    +0.330 C 
DOCKED: ATOM     41  O   UNL d   1      -9.397   5.300 -20.228 -0.23 -0.04    -0.246 OA
DOCKED: BRANCH  40  42
DOCKED: ATOM     42  O   UNL d   1      -9.474   6.223 -22.267 -0.02 -0.03    -0.477 OA
DOCKED: ATOM     43  H   UNL d   1     -10.422   6.142 -22.034 +0.05 +0.02    +0.295 HD
DOCKED: ENDBRANCH  40  42
DOCKED: ENDBRANCH  39  40
DOCKED: ENDBRANCH  27  38
DOCKED: BRANCH   8  44
DOCKED: ATOM     44  C   UNL d   1       3.925   5.284 -19.675 -0.23 +0.00    +0.141 C 
DOCKED: BRANCH  44  45
DOCKED: ATOM     45  C   UNL d   1       4.922   5.074 -18.566 -0.29 +0.08    +0.306 C 
DOCKED: ATOM     46  O   UNL d   1       5.489   4.032 -18.286 -0.34 -0.06    -0.251 OA
DOCKED: BRANCH  45  47
DOCKED: ATOM     47  O   UNL d   1       5.132   6.190 -17.844 -0.42 -0.20    -0.481 OA
DOCKED: ATOM     48  H   UNL d   1       4.560   6.868 -18.264 -0.42 -0.20    +0.295 HD
DOCKED: ENDBRANCH  45  47
DOCKED: ENDBRANCH  44  45
DOCKED: ENDBRANCH   8  44
DOCKED: BRANCH  22  49
DOCKED: ATOM     49  C   UNL d   1      -4.214   0.852 -22.315 -0.14 +0.00    +0.048 C 
DOCKED: BRANCH  49  50
DOCKED: ATOM     50  C   UNL d   1      -3.891   0.281 -23.696 -0.07 -0.00    +0.125 C 
DOCKED: BRANCH  50  51
DOCKED: ATOM     51  C   UNL d   1      -3.223   1.314 -24.560 -0.02 -0.01    +0.305 C 
DOCKED: ATOM     52  O   UNL d   1      -3.710   2.340 -25.002 -0.01 +0.00    -0.251 OA
DOCKED: BRANCH  51  53
DOCKED: ATOM     53  O   UNL d   1      -1.946   0.987 -24.841 +0.01 +0.02    -0.481 OA
DOCKED: ATOM     54  H   UNL d   1      -1.966   0.743 -25.790 +0.02 -0.01    +0.295 HD
DOCKED: ENDBRANCH  51  53
DOCKED: ENDBRANCH  50  51
DOCKED: ENDBRANCH  49  50
DOCKED: ENDBRANCH  22  49
DOCKED: TORSDOF 13
DOCKED: TER
DOCKED: ENDMDL
________________________________________________________________________________


	BEGINNING GENETIC ALGORITHM DOCKING 68 of 100
Run: 68 Seed: 1554704781 93033843 [ Run 68 of 100 GA/GALS ]
Beginning LAMARCKIAN GENETIC ALGORITHM (LGA), with a maximum of 25000000 energy evaluations.

Final-Value: -10.463


	FINAL GENETIC ALGORITHM DOCKED STATE
	_______________________________________________


Detailed state:  trans -5.075 11.717 -7.997 quatxyzw 0.061502 0.647135 0.442417 0.617820 center 0.153 0.018 -0.028 ntor 13 -106.0885 -101.9172 140.6145 -99.2302 35.7979 -71.3872 -65.7551 -34.2545 134.4880 -161.2223 99.8671 -96.0368 -180.0000
State:	 -5.075  11.717  -7.997   0.078  0.823  0.563 103.686   -106.09 -101.92  140.61  -99.23   35.80  -71.39  -65.76  -34.25  134.49 -161.22   99.87  -96.04 -180.00

DOCKED: MODEL       68
DOCKED: USER    Run = 68
DOCKED: USER    DPF = D:/Protein_go_brrr/autodock/final/mut_N102T/heme/dock.dpf
DOCKED: USER  
DOCKED: USER    Estimated Free Energy of Binding    =   -4.16 kcal/mol  [=(1)+(2)+(3)-(4)]
DOCKED: USER    Estimated Inhibition Constant, Ki   =  898.00 uM (micromolar)  [Temperature = 298.15 K]
DOCKED: USER    
DOCKED: USER    (1) Final Intermolecular Energy     =   -8.03 kcal/mol
DOCKED: USER        vdW + Hbond + desolv Energy     =   -7.89 kcal/mol
DOCKED: USER        Electrostatic Energy            =   -0.15 kcal/mol
DOCKED: USER    (2) Final Total Internal Energy     =   -2.43 kcal/mol
DOCKED: USER    (3) Torsional Free Energy           =   +3.88 kcal/mol
DOCKED: USER    (4) Unbound System's Energy  [=(2)] =   -2.43 kcal/mol
DOCKED: USER    
DOCKED: USER    
DOCKED: USER    NEWDPF move heme_opt.pdbqt
DOCKED: USER    NEWDPF about 0.153000 0.018000 -0.028000
DOCKED: USER    NEWDPF tran0 -5.075290 11.716682 -7.996737
DOCKED: USER    NEWDPF quaternion0 0.061502 0.647135 0.442417 0.617820
DOCKED: USER    NEWDPF axisangle0 0.078215 0.822992 0.562642 103.685770
DOCKED: USER    NEWDPF quat0 0.078215 0.822992 0.562642 103.685770
DOCKED: USER    NEWDPF dihe0 -106.09 -101.92 140.61 -99.23 35.80 -71.39 -65.76 -34.25 134.49 -161.22 99.87 -96.04 -180.00 
DOCKED: USER  keepresnum = 1 
DOCKED: USER  
DOCKED: REMARK  13 active torsions:
DOCKED: REMARK  status: ('A' for Active; 'I' for Inactive)
DOCKED: REMARK    1  A    between atoms: O_3  and  C_38 
DOCKED: REMARK    2  A    between atoms: O_4  and  C_40 
DOCKED: REMARK    3  A    between atoms: O_7  and  C_46 
DOCKED: REMARK    4  A    between atoms: O_9  and  C_48 
DOCKED: REMARK    5  A    between atoms: C_15  and  C_20 
DOCKED: REMARK    6  A    between atoms: C_16  and  C_23 
DOCKED: REMARK    7  A    between atoms: C_20  and  C_38 
DOCKED: REMARK    8  A    between atoms: C_23  and  C_40 
DOCKED: REMARK    9  A    between atoms: C_32  and  C_41 
DOCKED: REMARK   10  A    between atoms: C_37  and  C_45 
DOCKED: REMARK   11  A    between atoms: C_41  and  C_44 
DOCKED: REMARK   12  A    between atoms: C_44  and  C_46 
DOCKED: REMARK   13  A    between atoms: C_47  and  C_48 
DOCKED: USER                              x       y       z     vdW  Elec       q    Type
DOCKED: USER                           _______ _______ _______ _____ _____    ______ ____
DOCKED: ROOT
DOCKED: ATOM      1  O   UNL d   1      -3.215  15.773 -11.850 -0.06 -0.00    -0.289 OA
DOCKED: ATOM      2  O   UNL d   1      -6.325   9.021 -12.917 -0.24 +0.09    -0.289 OA
DOCKED: ATOM      3  N   UNL d   1      -4.030  13.659  -9.249 -0.17 +0.01    -0.247 NA
DOCKED: ATOM      4  N   UNL d   1      -5.447  11.426 -10.602 -0.09 +0.01    -0.247 NA
DOCKED: ATOM      5  N   UNL d   1      -6.351  10.554  -8.016 -0.07 +0.01    -0.354 N 
DOCKED: ATOM      6  N   UNL d   1      -4.894  12.886  -6.622 -0.07 -0.01    -0.354 N 
DOCKED: ATOM      7  C   UNL d   1      -3.205  15.961  -9.413 -0.14 +0.00    +0.084 A 
DOCKED: ATOM      8  C   UNL d   1      -4.896  11.008 -12.946 -0.31 -0.02    +0.084 A 
DOCKED: ATOM      9  C   UNL d   1      -4.739  11.877 -11.693 -0.23 -0.01    +0.058 A 
DOCKED: ATOM     10  C   UNL d   1      -3.652  14.786  -8.538 -0.21 +0.00    +0.058 A 
DOCKED: ATOM     11  C   UNL d   1      -3.380  15.293 -10.743 -0.10 -0.01    +0.193 A 
DOCKED: ATOM     12  C   UNL d   1      -3.860  13.894 -10.509 -0.19 -0.01    +0.109 A 
DOCKED: ATOM     13  C   UNL d   1      -5.853  10.001 -12.374 -0.20 -0.04    +0.193 A 
DOCKED: ATOM     14  C   UNL d   1      -4.172  17.145  -9.322 -0.05 +0.00    +0.026 C 
DOCKED: ATOM     15  C   UNL d   1      -4.016  13.007 -11.680 -0.28 -0.01    +0.055 C 
DOCKED: ATOM     16  C   UNL d   1      -3.590  10.295 -13.309 -0.16 -0.01    +0.026 C 
DOCKED: ATOM     17  C   UNL d   1      -6.113  10.371 -10.950 -0.14 -0.01    +0.109 A 
DOCKED: ATOM     18  C   UNL d   1      -3.584  14.843  -7.195 -0.18 +0.01    +0.050 C 
DOCKED: ATOM     19  C   UNL d   1      -3.895  13.780  -6.309 -0.22 +0.00    +0.045 A 
DOCKED: ATOM     20  C   UNL d   1      -7.113   9.744  -8.817 -0.16 -0.00    +0.045 A 
DOCKED: ATOM     21  C   UNL d   1      -7.055   9.582 -10.142 -0.22 -0.01    +0.057 C 
DOCKED: ATOM     22  C   UNL d   1      -7.788   9.485  -6.650 -0.13 +0.00    -0.019 A 
DOCKED: ATOM     23  C   UNL d   1      -6.686  10.467  -6.691 -0.17 +0.00    +0.045 A 
DOCKED: ATOM     24  C   UNL d   1      -8.035   9.060  -7.911 -0.15 +0.00    -0.022 A 
DOCKED: ATOM     25  C   UNL d   1      -5.087  11.998  -5.589 -0.22 +0.00    +0.049 A 
DOCKED: ATOM     26  C   UNL d   1      -3.402  13.442  -5.059 -0.28 -0.00    -0.018 A 
DOCKED: ATOM     27  C   UNL d   1      -4.145  12.304  -4.617 -0.30 +0.00    +0.003 A 
DOCKED: ATOM     28  C   UNL d   1      -6.170  11.077  -5.612 -0.18 +0.00    +0.052 C 
DOCKED: ATOM     29  C   UNL d   1      -9.043   8.065  -8.380 -0.14 +0.00    +0.046 C 
DOCKED: ATOM     30  C   UNL d   1      -2.306  14.131  -4.318 -0.15 +0.01    +0.046 C 
DOCKED: ATOM     31  H   UNL d   1      -5.575  11.087  -8.393 +0.07 -0.00    +0.166 HD
DOCKED: ATOM     32  H   UNL d   1      -5.429  12.920  -7.481 +0.05 -0.00    +0.166 HD
DOCKED: ENDROOT
DOCKED: BRANCH   7  33
DOCKED: ATOM     33  C   UNL d   1      -1.751  16.407  -9.222 -0.12 -0.00    +0.141 C 
DOCKED: BRANCH  33  34
DOCKED: ATOM     34  C   UNL d   1      -1.393  17.596 -10.071 -0.07 -0.02    +0.306 C 
DOCKED: ATOM     35  O   UNL d   1      -1.502  18.768  -9.753 -0.03 +0.01    -0.251 OA
DOCKED: BRANCH  34  36
DOCKED: ATOM     36  O   UNL d   1      -0.915  17.245 -11.278 -0.00 +0.03    -0.481 OA
DOCKED: ATOM     37  H   UNL d   1      -1.695  16.900 -11.762 +0.08 -0.00    +0.295 HD
DOCKED: ENDBRANCH  34  36
DOCKED: ENDBRANCH  33  34
DOCKED: ENDBRANCH   7  33
DOCKED: BRANCH  27  38
DOCKED: ATOM     38  C   UNL d   1      -3.967  11.639  -3.362 -0.36 +0.01    +0.017 C 
DOCKED: ATOM     39  C   UNL d   1      -4.914  11.488  -2.424 -0.23 +0.03    +0.092 C 
DOCKED: BRANCH  39  40
DOCKED: ATOM     40  C   UNL d   1      -4.607  10.768  -1.185 -0.20 +0.13    +0.330 C 
DOCKED: ATOM     41  O   UNL d   1      -4.459   9.570  -1.038 -0.32 -0.07    -0.246 OA
DOCKED: BRANCH  40  42
DOCKED: ATOM     42  O   UNL d   1      -4.491  11.633  -0.165 -0.44 -0.32    -0.477 OA
DOCKED: ATOM     43  H   UNL d   1      -5.418  11.849   0.066 +0.11 +0.11    +0.295 HD
DOCKED: ENDBRANCH  40  42
DOCKED: ENDBRANCH  39  40
DOCKED: ENDBRANCH  27  38
DOCKED: BRANCH   8  44
DOCKED: ATOM     44  C   UNL d   1      -5.501  11.710 -14.166 -0.20 -0.02    +0.141 C 
DOCKED: BRANCH  44  45
DOCKED: ATOM     45  C   UNL d   1      -4.996  11.167 -15.476 -0.25 -0.06    +0.306 C 
DOCKED: ATOM     46  O   UNL d   1      -4.257  11.734 -16.261 -0.32 +0.03    -0.251 OA
DOCKED: BRANCH  45  47
DOCKED: ATOM     47  O   UNL d   1      -5.476   9.939 -15.742 -0.15 +0.11    -0.481 OA
DOCKED: ATOM     48  H   UNL d   1      -5.455   9.472 -14.880 -0.24 -0.14    +0.295 HD
DOCKED: ENDBRANCH  45  47
DOCKED: ENDBRANCH  44  45
DOCKED: ENDBRANCH   8  44
DOCKED: BRANCH  22  49
DOCKED: ATOM     49  C   UNL d   1      -8.500   9.070  -5.396 +0.06 -0.00    +0.048 C 
DOCKED: BRANCH  49  50
DOCKED: ATOM     50  C   UNL d   1      -9.796   9.853  -5.191 -0.04 -0.00    +0.125 C 
DOCKED: BRANCH  50  51
DOCKED: ATOM     51  C   UNL d   1      -9.515  11.218  -4.630 -0.02 +0.00    +0.305 C 
DOCKED: ATOM     52  O   UNL d   1      -8.704  11.516  -3.771 -0.03 -0.01    -0.251 OA
DOCKED: BRANCH  51  53
DOCKED: ATOM     53  O   UNL d   1     -10.300  12.163  -5.185 -0.00 -0.00    -0.481 OA
DOCKED: ATOM     54  H   UNL d   1     -11.151  12.077  -4.707 +0.00 -0.00    +0.295 HD
DOCKED: ENDBRANCH  51  53
DOCKED: ENDBRANCH  50  51
DOCKED: ENDBRANCH  49  50
DOCKED: ENDBRANCH  22  49
DOCKED: TORSDOF 13
DOCKED: TER
DOCKED: ENDMDL
________________________________________________________________________________


	BEGINNING GENETIC ALGORITHM DOCKING 69 of 100
Run: 69 Seed: 831874570 1318577718 [ Run 69 of 100 GA/GALS ]
Beginning LAMARCKIAN GENETIC ALGORITHM (LGA), with a maximum of 25000000 energy evaluations.

Final-Value: -12.482


	FINAL GENETIC ALGORITHM DOCKED STATE
	_______________________________________________


Detailed state:  trans -8.568 -14.153 11.333 quatxyzw -0.723886 -0.620933 -0.246642 0.172040 center 0.153 0.018 -0.028 ntor 13 120.4454 -126.7991 -124.9506 72.1538 -131.6400 19.4801 -71.4101 -61.6119 30.3390 -28.6071 -90.9627 -59.0334 -15.3417
State:	 -8.568 -14.153  11.333  -0.735 -0.630 -0.250 160.187    120.45 -126.80 -124.95   72.15 -131.64   19.48  -71.41  -61.61   30.34  -28.61  -90.96  -59.03  -15.34

DOCKED: MODEL       69
DOCKED: USER    Run = 69
DOCKED: USER    DPF = D:/Protein_go_brrr/autodock/final/mut_N102T/heme/dock.dpf
DOCKED: USER  
DOCKED: USER    Estimated Free Energy of Binding    =   -4.45 kcal/mol  [=(1)+(2)+(3)-(4)]
DOCKED: USER    Estimated Inhibition Constant, Ki   =  546.90 uM (micromolar)  [Temperature = 298.15 K]
DOCKED: USER    
DOCKED: USER    (1) Final Intermolecular Energy     =   -8.33 kcal/mol
DOCKED: USER        vdW + Hbond + desolv Energy     =   -7.98 kcal/mol
DOCKED: USER        Electrostatic Energy            =   -0.35 kcal/mol
DOCKED: USER    (2) Final Total Internal Energy     =   -4.15 kcal/mol
DOCKED: USER    (3) Torsional Free Energy           =   +3.88 kcal/mol
DOCKED: USER    (4) Unbound System's Energy  [=(2)] =   -4.15 kcal/mol
DOCKED: USER    
DOCKED: USER    
DOCKED: USER    NEWDPF move heme_opt.pdbqt
DOCKED: USER    NEWDPF about 0.153000 0.018000 -0.028000
DOCKED: USER    NEWDPF tran0 -8.567502 -14.152999 11.332689
DOCKED: USER    NEWDPF quaternion0 -0.723886 -0.620933 -0.246642 0.172040
DOCKED: USER    NEWDPF axisangle0 -0.734843 -0.630332 -0.250375 160.187097
DOCKED: USER    NEWDPF quat0 -0.734843 -0.630332 -0.250375 160.187097
DOCKED: USER    NEWDPF dihe0 120.45 -126.80 -124.95 72.15 -131.64 19.48 -71.41 -61.61 30.34 -28.61 -90.96 -59.03 -15.34 
DOCKED: USER  keepresnum = 1 
DOCKED: USER  
DOCKED: REMARK  13 active torsions:
DOCKED: REMARK  status: ('A' for Active; 'I' for Inactive)
DOCKED: REMARK    1  A    between atoms: O_3  and  C_38 
DOCKED: REMARK    2  A    between atoms: O_4  and  C_40 
DOCKED: REMARK    3  A    between atoms: O_7  and  C_46 
DOCKED: REMARK    4  A    between atoms: O_9  and  C_48 
DOCKED: REMARK    5  A    between atoms: C_15  and  C_20 
DOCKED: REMARK    6  A    between atoms: C_16  and  C_23 
DOCKED: REMARK    7  A    between atoms: C_20  and  C_38 
DOCKED: REMARK    8  A    between atoms: C_23  and  C_40 
DOCKED: REMARK    9  A    between atoms: C_32  and  C_41 
DOCKED: REMARK   10  A    between atoms: C_37  and  C_45 
DOCKED: REMARK   11  A    between atoms: C_41  and  C_44 
DOCKED: REMARK   12  A    between atoms: C_44  and  C_46 
DOCKED: REMARK   13  A    between atoms: C_47  and  C_48 
DOCKED: USER                              x       y       z     vdW  Elec       q    Type
DOCKED: USER                           _______ _______ _______ _____ _____    ______ ____
DOCKED: ROOT
DOCKED: ATOM      1  O   UNL d   1      -7.424 -19.923  10.935 -0.09 +0.23    -0.289 OA
DOCKED: ATOM      2  O   UNL d   1     -13.699 -16.035   9.554 -0.01 +0.06    -0.289 OA
DOCKED: ATOM      3  N   UNL d   1      -7.664 -16.520  11.446 -0.14 +0.16    -0.247 NA
DOCKED: ATOM      4  N   UNL d   1     -10.348 -15.854  10.358 -0.18 +0.13    -0.247 NA
DOCKED: ATOM      5  N   UNL d   1      -9.596 -13.080  10.454 -0.05 +0.16    -0.354 N 
DOCKED: ATOM      6  N   UNL d   1      -6.807 -13.782  11.565 -0.06 +0.14    -0.354 N 
DOCKED: ATOM      7  C   UNL d   1      -5.847 -18.162  11.556 -0.18 -0.05    +0.084 A 
DOCKED: ATOM      8  C   UNL d   1     -12.022 -17.634  10.343 -0.06 -0.03    +0.084 A 
DOCKED: ATOM      9  C   UNL d   1     -10.577 -17.190  10.598 -0.15 -0.03    +0.058 A 
DOCKED: ATOM     10  C   UNL d   1      -6.315 -16.709  11.691 -0.25 -0.03    +0.058 A 
DOCKED: ATOM     11  C   UNL d   1      -7.176 -18.763  11.210 -0.13 -0.15    +0.193 A 
DOCKED: ATOM     12  C   UNL d   1      -8.200 -17.671  11.200 -0.18 -0.08    +0.109 A 
DOCKED: ATOM     13  C   UNL d   1     -12.560 -16.310   9.879 -0.05 -0.05    +0.193 A 
DOCKED: ATOM     14  C   UNL d   1      -4.894 -18.351  10.373 -0.18 -0.02    +0.026 C 
DOCKED: ATOM     15  C   UNL d   1      -9.611 -18.043  10.972 -0.16 -0.04    +0.055 C 
DOCKED: ATOM     16  C   UNL d   1     -12.733 -18.026  11.642 -0.01 -0.01    +0.026 C 
DOCKED: ATOM     17  C   UNL d   1     -11.444 -15.318   9.927 -0.15 -0.03    +0.109 A 
DOCKED: ATOM     18  C   UNL d   1      -5.479 -15.737  12.103 -0.31 -0.03    +0.050 C 
DOCKED: ATOM     19  C   UNL d   1      -5.841 -14.386  12.337 -0.29 -0.02    +0.045 A 
DOCKED: ATOM     20  C   UNL d   1     -10.765 -12.983   9.746 -0.18 -0.01    +0.045 A 
DOCKED: ATOM     21  C   UNL d   1     -11.668 -13.934   9.483 -0.17 -0.01    +0.057 C 
DOCKED: ATOM     22  C   UNL d   1      -9.749 -10.937   9.778 -0.25 +0.00    -0.019 A 
DOCKED: ATOM     23  C   UNL d   1      -8.912 -11.896  10.527 -0.28 -0.01    +0.045 A 
DOCKED: ATOM     24  C   UNL d   1     -10.845 -11.587   9.319 -0.17 +0.01    -0.022 A 
DOCKED: ATOM     25  C   UNL d   1      -6.934 -12.454  11.901 -0.14 -0.01    +0.049 A 
DOCKED: ATOM     26  C   UNL d   1      -5.354 -13.437  13.222 -0.27 +0.01    -0.018 A 
DOCKED: ATOM     27  C   UNL d   1      -6.062 -12.224  12.956 -0.24 -0.00    +0.003 A 
DOCKED: ATOM     28  C   UNL d   1      -7.758 -11.584  11.136 -0.18 -0.01    +0.052 C 
DOCKED: ATOM     29  C   UNL d   1     -11.984 -11.046   8.523 -0.11 -0.01    +0.046 C 
DOCKED: ATOM     30  C   UNL d   1      -4.298 -13.642  14.255 -0.26 -0.02    +0.046 C 
DOCKED: ATOM     31  H   UNL d   1      -9.338 -13.939  10.929 -0.30 -0.09    +0.166 HD
DOCKED: ATOM     32  H   UNL d   1      -7.313 -14.258  10.827 -0.41 -0.13    +0.166 HD
DOCKED: ENDROOT
DOCKED: BRANCH   7  33
DOCKED: ATOM     33  C   UNL d   1      -5.288 -18.793  12.836 -0.05 -0.06    +0.141 C 
DOCKED: BRANCH  33  34
DOCKED: ATOM     34  C   UNL d   1      -6.369 -19.217  13.793 +0.00 -0.09    +0.306 C 
DOCKED: ATOM     35  O   UNL d   1      -7.007 -18.484  14.529 -0.00 +0.07    -0.251 OA
DOCKED: BRANCH  34  36
DOCKED: ATOM     36  O   UNL d   1      -6.592 -20.543  13.770 +0.01 +0.13    -0.481 OA
DOCKED: ATOM     37  H   UNL d   1      -6.892 -20.727  12.854 +0.02 -0.10    +0.295 HD
DOCKED: ENDBRANCH  34  36
DOCKED: ENDBRANCH  33  34
DOCKED: ENDBRANCH   7  33
DOCKED: BRANCH  27  38
DOCKED: ATOM     38  C   UNL d   1      -5.856 -10.982  13.637 -0.29 -0.00    +0.017 C 
DOCKED: ATOM     39  C   UNL d   1      -6.173  -9.771  13.153 -0.30 -0.02    +0.092 C 
DOCKED: BRANCH  39  40
DOCKED: ATOM     40  C   UNL d   1      -5.926  -8.574  13.961 -0.21 -0.08    +0.330 C 
DOCKED: ATOM     41  O   UNL d   1      -5.199  -8.468  14.930 -0.24 +0.05    -0.246 OA
DOCKED: BRANCH  40  42
DOCKED: ATOM     42  O   UNL d   1      -6.630  -7.539  13.479 -0.14 +0.13    -0.477 OA
DOCKED: ATOM     43  H   UNL d   1      -7.548  -7.878  13.436 +0.13 -0.08    +0.295 HD
DOCKED: ENDBRANCH  40  42
DOCKED: ENDBRANCH  39  40
DOCKED: ENDBRANCH  27  38
DOCKED: BRANCH   8  44
DOCKED: ATOM     44  C   UNL d   1     -12.202 -18.708   9.266 -0.07 -0.07    +0.141 C 
DOCKED: BRANCH  44  45
DOCKED: ATOM     45  C   UNL d   1     -12.125 -18.164   7.864 -0.10 -0.16    +0.306 C 
DOCKED: ATOM     46  O   UNL d   1     -13.022 -18.148   7.040 -0.04 +0.08    -0.251 OA
DOCKED: BRANCH  45  47
DOCKED: ATOM     47  O   UNL d   1     -10.902 -17.689   7.564 -0.06 +0.44    -0.481 OA
DOCKED: ATOM     48  H   UNL d   1     -10.293 -18.432   7.758 -0.49 -0.62    +0.295 HD
DOCKED: ENDBRANCH  45  47
DOCKED: ENDBRANCH  44  45
DOCKED: ENDBRANCH   8  44
DOCKED: BRANCH  22  49
DOCKED: ATOM     49  C   UNL d   1      -9.396  -9.494   9.570 -0.21 -0.01    +0.048 C 
DOCKED: BRANCH  49  50
DOCKED: ATOM     50  C   UNL d   1     -10.120  -8.582  10.560 -0.17 -0.05    +0.125 C 
DOCKED: BRANCH  50  51
DOCKED: ATOM     51  C   UNL d   1      -9.308  -8.396  11.810 -0.12 -0.13    +0.305 C 
DOCKED: ATOM     52  O   UNL d   1      -9.045  -9.232  12.657 -0.07 +0.07    -0.251 OA
DOCKED: BRANCH  51  53
DOCKED: ATOM     53  O   UNL d   1      -8.867  -7.129  11.941 -0.13 +0.36    -0.481 OA
DOCKED: ATOM     54  H   UNL d   1      -7.905  -7.192  11.765 +0.14 -0.19    +0.295 HD
DOCKED: ENDBRANCH  51  53
DOCKED: ENDBRANCH  50  51
DOCKED: ENDBRANCH  49  50
DOCKED: ENDBRANCH  22  49
DOCKED: TORSDOF 13
DOCKED: TER
DOCKED: ENDMDL
________________________________________________________________________________


	BEGINNING GENETIC ALGORITHM DOCKING 70 of 100
Run: 70 Seed: 2062543186 1923717234 [ Run 70 of 100 GA/GALS ]
Beginning LAMARCKIAN GENETIC ALGORITHM (LGA), with a maximum of 25000000 energy evaluations.

Final-Value: -13.330


	FINAL GENETIC ALGORITHM DOCKED STATE
	_______________________________________________


Detailed state:  trans -5.000 7.819 17.369 quatxyzw 0.878209 -0.421515 0.200517 -0.104247 center 0.153 0.018 -0.028 ntor 13 113.9679 -121.3320 -173.8616 -52.0380 -130.7066 -95.1995 143.4772 -129.2192 30.8366 -3.2969 -98.2706 13.8832 -3.7793
State:	 -5.000   7.819  17.369   0.883 -0.424  0.202 -168.032    113.97 -121.33 -173.86  -52.04 -130.71  -95.20  143.48 -129.22   30.84   -3.30  -98.27   13.88   -3.78

DOCKED: MODEL       70
DOCKED: USER    Run = 70
DOCKED: USER    DPF = D:/Protein_go_brrr/autodock/final/mut_N102T/heme/dock.dpf
DOCKED: USER  
DOCKED: USER    Estimated Free Energy of Binding    =   -4.75 kcal/mol  [=(1)+(2)+(3)-(4)]
DOCKED: USER    Estimated Inhibition Constant, Ki   =  327.17 uM (micromolar)  [Temperature = 298.15 K]
DOCKED: USER    
DOCKED: USER    (1) Final Intermolecular Energy     =   -8.63 kcal/mol
DOCKED: USER        vdW + Hbond + desolv Energy     =   -8.24 kcal/mol
DOCKED: USER        Electrostatic Energy            =   -0.40 kcal/mol
DOCKED: USER    (2) Final Total Internal Energy     =   -4.70 kcal/mol
DOCKED: USER    (3) Torsional Free Energy           =   +3.88 kcal/mol
DOCKED: USER    (4) Unbound System's Energy  [=(2)] =   -4.70 kcal/mol
DOCKED: USER    
DOCKED: USER    
DOCKED: USER    NEWDPF move heme_opt.pdbqt
DOCKED: USER    NEWDPF about 0.153000 0.018000 -0.028000
DOCKED: USER    NEWDPF tran0 -4.999912 7.818650 17.368524
DOCKED: USER    NEWDPF quaternion0 0.878209 -0.421515 0.200517 -0.104247
DOCKED: USER    NEWDPF axisangle0 0.883020 -0.423824 0.201615 -168.032485
DOCKED: USER    NEWDPF quat0 0.883020 -0.423824 0.201615 -168.032485
DOCKED: USER    NEWDPF dihe0 113.97 -121.33 -173.86 -52.04 -130.71 -95.20 143.48 -129.22 30.84 -3.30 -98.27 13.88 -3.78 
DOCKED: USER  keepresnum = 1 
DOCKED: USER  
DOCKED: REMARK  13 active torsions:
DOCKED: REMARK  status: ('A' for Active; 'I' for Inactive)
DOCKED: REMARK    1  A    between atoms: O_3  and  C_38 
DOCKED: REMARK    2  A    between atoms: O_4  and  C_40 
DOCKED: REMARK    3  A    between atoms: O_7  and  C_46 
DOCKED: REMARK    4  A    between atoms: O_9  and  C_48 
DOCKED: REMARK    5  A    between atoms: C_15  and  C_20 
DOCKED: REMARK    6  A    between atoms: C_16  and  C_23 
DOCKED: REMARK    7  A    between atoms: C_20  and  C_38 
DOCKED: REMARK    8  A    between atoms: C_23  and  C_40 
DOCKED: REMARK    9  A    between atoms: C_32  and  C_41 
DOCKED: REMARK   10  A    between atoms: C_37  and  C_45 
DOCKED: REMARK   11  A    between atoms: C_41  and  C_44 
DOCKED: REMARK   12  A    between atoms: C_44  and  C_46 
DOCKED: REMARK   13  A    between atoms: C_47  and  C_48 
DOCKED: USER                              x       y       z     vdW  Elec       q    Type
DOCKED: USER                           _______ _______ _______ _____ _____    ______ ____
DOCKED: ROOT
DOCKED: ATOM      1  O   UNL d   1      -9.316  10.458  14.341 -0.09 +0.00    -0.289 OA
DOCKED: ATOM      2  O   UNL d   1      -3.126  13.249  17.549 -0.15 +0.05    -0.289 OA
DOCKED: ATOM      3  N   UNL d   1      -7.113   8.518  16.153 -0.14 +0.01    -0.247 NA
DOCKED: ATOM      4  N   UNL d   1      -4.883  10.390  16.746 -0.09 +0.05    -0.247 NA
DOCKED: ATOM      5  N   UNL d   1      -3.308   8.117  17.534 -0.09 +0.09    -0.354 N 
DOCKED: ATOM      6  N   UNL d   1      -5.620   6.180  16.897 -0.15 +0.03    -0.354 N 
DOCKED: ATOM      7  C   UNL d   1      -9.102   8.065  14.794 -0.23 +0.00    +0.084 A 
DOCKED: ATOM      8  C   UNL d   1      -5.413  12.774  16.818 -0.07 -0.01    +0.084 A 
DOCKED: ATOM      9  C   UNL d   1      -5.861  11.336  16.536 -0.09 -0.01    +0.058 A 
DOCKED: ATOM     10  C   UNL d   1      -7.960   7.536  15.666 -0.24 +0.00    +0.058 A 
DOCKED: ATOM     11  C   UNL d   1      -8.763   9.522  14.890 -0.10 +0.00    +0.193 A 
DOCKED: ATOM     12  C   UNL d   1      -7.553   9.669  15.761 -0.13 -0.00    +0.109 A 
DOCKED: ATOM     13  C   UNL d   1      -3.989  12.472  17.190 -0.12 -0.04    +0.193 A 
DOCKED: ATOM     14  C   UNL d   1      -8.967   7.620  13.336 -0.25 +0.00    +0.026 C 
DOCKED: ATOM     15  C   UNL d   1      -7.085  11.034  16.076 -0.11 -0.00    +0.055 C 
DOCKED: ATOM     16  C   UNL d   1      -6.127  13.362  18.039 -0.03 -0.00    +0.026 C 
DOCKED: ATOM     17  C   UNL d   1      -3.794  10.994  17.099 -0.16 -0.03    +0.109 A 
DOCKED: ATOM     18  C   UNL d   1      -7.867   6.232  15.987 -0.13 +0.00    +0.050 C 
DOCKED: ATOM     19  C   UNL d   1      -6.896   5.666  16.853 -0.23 +0.00    +0.045 A 
DOCKED: ATOM     20  C   UNL d   1      -2.338   9.086  17.530 -0.12 -0.02    +0.045 A 
DOCKED: ATOM     21  C   UNL d   1      -2.473  10.406  17.367 -0.19 -0.02    +0.057 C 
DOCKED: ATOM     22  C   UNL d   1      -1.351   7.054  17.871 -0.31 +0.01    -0.019 A 
DOCKED: ATOM     23  C   UNL d   1      -2.808   6.858  17.731 -0.28 -0.01    +0.045 A 
DOCKED: ATOM     24  C   UNL d   1      -1.079   8.375  17.752 -0.25 +0.01    -0.022 A 
DOCKED: ATOM     25  C   UNL d   1      -4.824   5.428  17.730 -0.28 -0.00    +0.049 A 
DOCKED: ATOM     26  C   UNL d   1      -6.941   4.574  17.706 -0.20 -0.00    -0.018 A 
DOCKED: ATOM     27  C   UNL d   1      -5.635   4.440  18.272 -0.22 -0.00    +0.003 A 
DOCKED: ATOM     28  C   UNL d   1      -3.426   5.670  17.817 -0.34 -0.01    +0.052 C 
DOCKED: ATOM     29  C   UNL d   1       0.239   9.068  17.832 -0.39 -0.01    +0.046 C 
DOCKED: ATOM     30  C   UNL d   1      -8.122   3.707  17.982 -0.15 +0.01    +0.046 C 
DOCKED: ATOM     31  H   UNL d   1      -4.291   8.357  17.474 +0.06 -0.03    +0.166 HD
DOCKED: ATOM     32  H   UNL d   1      -5.319   6.979  16.352 +0.03 -0.03    +0.166 HD
DOCKED: ENDROOT
DOCKED: BRANCH   7  33
DOCKED: ATOM     33  C   UNL d   1     -10.514   7.806  15.333 -0.09 +0.00    +0.141 C 
DOCKED: BRANCH  33  34
DOCKED: ATOM     34  C   UNL d   1     -10.902   8.764  16.426 -0.01 -0.01    +0.306 C 
DOCKED: ATOM     35  O   UNL d   1     -10.524   8.726  17.585 -0.01 +0.01    -0.251 OA
DOCKED: BRANCH  34  36
DOCKED: ATOM     36  O   UNL d   1     -11.744   9.722  16.001 +0.01 +0.01    -0.481 OA
DOCKED: ATOM     37  H   UNL d   1     -11.204  10.276  15.398 +0.03 -0.01    +0.295 HD
DOCKED: ENDBRANCH  34  36
DOCKED: ENDBRANCH  33  34
DOCKED: ENDBRANCH   7  33
DOCKED: BRANCH  27  38
DOCKED: ATOM     38  C   UNL d   1      -5.238   3.424  19.199 -0.16 -0.00    +0.017 C 
DOCKED: ATOM     39  C   UNL d   1      -4.609   3.643  20.364 -0.11 -0.02    +0.092 C 
DOCKED: BRANCH  39  40
DOCKED: ATOM     40  C   UNL d   1      -4.272   2.513  21.234 -0.06 -0.13    +0.330 C 
DOCKED: ATOM     41  O   UNL d   1      -4.895   2.103  22.195 -0.02 +0.07    -0.246 OA
DOCKED: BRANCH  40  42
DOCKED: ATOM     42  O   UNL d   1      -3.131   1.938  20.823 -0.08 +0.44    -0.477 OA
DOCKED: ATOM     43  H   UNL d   1      -2.474   2.664  20.864 -0.35 -0.44    +0.295 HD
DOCKED: ENDBRANCH  40  42
DOCKED: ENDBRANCH  39  40
DOCKED: ENDBRANCH  27  38
DOCKED: BRANCH   8  44
DOCKED: ATOM     44  C   UNL d   1      -5.478  13.732  15.624 -0.11 -0.03    +0.141 C 
DOCKED: BRANCH  44  45
DOCKED: ATOM     45  C   UNL d   1      -4.754  13.216  14.409 -0.16 -0.07    +0.306 C 
DOCKED: ATOM     46  O   UNL d   1      -5.255  12.669  13.442 -0.18 +0.04    -0.251 OA
DOCKED: BRANCH  45  47
DOCKED: ATOM     47  O   UNL d   1      -3.423  13.393  14.489 -0.09 +0.20    -0.481 OA
DOCKED: ATOM     48  H   UNL d   1      -3.274  13.750  15.390 -0.25 -0.17    +0.295 HD
DOCKED: ENDBRANCH  45  47
DOCKED: ENDBRANCH  44  45
DOCKED: ENDBRANCH   8  44
DOCKED: BRANCH  22  49
DOCKED: ATOM     49  C   UNL d   1      -0.368   5.942  18.089 -0.45 -0.02    +0.048 C 
DOCKED: BRANCH  49  50
DOCKED: ATOM     50  C   UNL d   1      -0.198   5.616  19.573 -0.18 -0.05    +0.125 C 
DOCKED: BRANCH  50  51
DOCKED: ATOM     51  C   UNL d   1      -1.291   4.702  20.050 -0.08 -0.22    +0.305 C 
DOCKED: ATOM     52  O   UNL d   1      -1.938   4.791  21.079 -0.12 +0.17    -0.251 OA
DOCKED: BRANCH  51  53
DOCKED: ATOM     53  O   UNL d   1      -1.512   3.688  19.189 -0.05 +0.41    -0.481 OA
DOCKED: ATOM     54  H   UNL d   1      -1.457   2.885  19.749 -0.46 -0.60    +0.295 HD
DOCKED: ENDBRANCH  51  53
DOCKED: ENDBRANCH  50  51
DOCKED: ENDBRANCH  49  50
DOCKED: ENDBRANCH  22  49
DOCKED: TORSDOF 13
DOCKED: TER
DOCKED: ENDMDL
________________________________________________________________________________


	BEGINNING GENETIC ALGORITHM DOCKING 71 of 100
Run: 71 Seed: 206586134 75072324 [ Run 71 of 100 GA/GALS ]
Beginning LAMARCKIAN GENETIC ALGORITHM (LGA), with a maximum of 25000000 energy evaluations.

Final-Value: -12.175


	FINAL GENETIC ALGORITHM DOCKED STATE
	_______________________________________________


Detailed state:  trans -8.789 10.867 11.014 quatxyzw -0.543576 0.353080 0.756986 0.082654 center 0.153 0.018 -0.028 ntor 13 138.7522 -117.0025 -94.6297 -13.9235 -140.8585 -12.8527 122.2433 155.3708 9.9894 -36.6412 -53.2804 -56.2708 -0.2995
State:	 -8.789  10.867  11.014  -0.545  0.354  0.760 170.518    138.75 -117.00  -94.63  -13.92 -140.86  -12.85  122.24  155.37    9.99  -36.64  -53.28  -56.27   -0.30

DOCKED: MODEL       71
DOCKED: USER    Run = 71
DOCKED: USER    DPF = D:/Protein_go_brrr/autodock/final/mut_N102T/heme/dock.dpf
DOCKED: USER  
DOCKED: USER    Estimated Free Energy of Binding    =   -3.68 kcal/mol  [=(1)+(2)+(3)-(4)]
DOCKED: USER    Estimated Inhibition Constant, Ki   =    2.01 mM (millimolar)  [Temperature = 298.15 K]
DOCKED: USER    
DOCKED: USER    (1) Final Intermolecular Energy     =   -7.56 kcal/mol
DOCKED: USER        vdW + Hbond + desolv Energy     =   -7.49 kcal/mol
DOCKED: USER        Electrostatic Energy            =   -0.07 kcal/mol
DOCKED: USER    (2) Final Total Internal Energy     =   -4.62 kcal/mol
DOCKED: USER    (3) Torsional Free Energy           =   +3.88 kcal/mol
DOCKED: USER    (4) Unbound System's Energy  [=(2)] =   -4.62 kcal/mol
DOCKED: USER    
DOCKED: USER    
DOCKED: USER    NEWDPF move heme_opt.pdbqt
DOCKED: USER    NEWDPF about 0.153000 0.018000 -0.028000
DOCKED: USER    NEWDPF tran0 -8.789250 10.866978 11.014245
DOCKED: USER    NEWDPF quaternion0 -0.543576 0.353080 0.756986 0.082654
DOCKED: USER    NEWDPF axisangle0 -0.545442 0.354292 0.759586 170.517704
DOCKED: USER    NEWDPF quat0 -0.545442 0.354292 0.759586 170.517704
DOCKED: USER    NEWDPF dihe0 138.75 -117.00 -94.63 -13.92 -140.86 -12.85 122.24 155.37 9.99 -36.64 -53.28 -56.27 -0.30 
DOCKED: USER  keepresnum = 1 
DOCKED: USER  
DOCKED: REMARK  13 active torsions:
DOCKED: REMARK  status: ('A' for Active; 'I' for Inactive)
DOCKED: REMARK    1  A    between atoms: O_3  and  C_38 
DOCKED: REMARK    2  A    between atoms: O_4  and  C_40 
DOCKED: REMARK    3  A    between atoms: O_7  and  C_46 
DOCKED: REMARK    4  A    between atoms: O_9  and  C_48 
DOCKED: REMARK    5  A    between atoms: C_15  and  C_20 
DOCKED: REMARK    6  A    between atoms: C_16  and  C_23 
DOCKED: REMARK    7  A    between atoms: C_20  and  C_38 
DOCKED: REMARK    8  A    between atoms: C_23  and  C_40 
DOCKED: REMARK    9  A    between atoms: C_32  and  C_41 
DOCKED: REMARK   10  A    between atoms: C_37  and  C_45 
DOCKED: REMARK   11  A    between atoms: C_41  and  C_44 
DOCKED: REMARK   12  A    between atoms: C_44  and  C_46 
DOCKED: REMARK   13  A    between atoms: C_47  and  C_48 
DOCKED: USER                              x       y       z     vdW  Elec       q    Type
DOCKED: USER                           _______ _______ _______ _____ _____    ______ ____
DOCKED: ROOT
DOCKED: ATOM      1  O   UNL d   1      -7.579  12.766  16.462 -0.01 +0.02    -0.289 OA
DOCKED: ATOM      2  O   UNL d   1      -5.093  15.089   9.768 -0.20 +0.02    -0.289 OA
DOCKED: ATOM      3  N   UNL d   1      -8.476  11.238  13.504 +0.07 -0.00    -0.247 NA
DOCKED: ATOM      4  N   UNL d   1      -7.279  13.001  11.433 -0.08 +0.03    -0.247 NA
DOCKED: ATOM      5  N   UNL d   1      -8.894  11.647   9.478 -0.16 +0.07    -0.354 N 
DOCKED: ATOM      6  N   UNL d   1     -10.146   9.835  11.635 -0.05 -0.00    -0.354 N 
DOCKED: ATOM      7  C   UNL d   1      -9.144  10.991  15.849 -0.05 -0.00    +0.084 A 
DOCKED: ATOM      8  C   UNL d   1      -5.317  14.308  12.077 -0.21 -0.01    +0.084 A 
DOCKED: ATOM      9  C   UNL d   1      -6.452  13.358  12.475 -0.15 -0.01    +0.058 A 
DOCKED: ATOM     10  C   UNL d   1      -9.295  10.556  14.389 -0.11 -0.00    +0.058 A 
DOCKED: ATOM     11  C   UNL d   1      -8.082  12.028  15.636 -0.04 -0.01    +0.193 A 
DOCKED: ATOM     12  C   UNL d   1      -7.744  12.065  14.177 -0.07 -0.01    +0.109 A 
DOCKED: ATOM     13  C   UNL d   1      -5.676  14.454  10.625 -0.19 -0.03    +0.193 A 
DOCKED: ATOM     14  C   UNL d   1     -10.406  11.677  16.378 -0.02 -0.00    +0.026 C 
DOCKED: ATOM     15  C   UNL d   1      -6.649  12.953  13.739 -0.14 -0.01    +0.055 C 
DOCKED: ATOM     16  C   UNL d   1      -3.947  13.631  12.180 -0.50 -0.00    +0.026 C 
DOCKED: ATOM     17  C   UNL d   1      -6.887  13.618  10.365 -0.20 -0.02    +0.109 A 
DOCKED: ATOM     18  C   UNL d   1     -10.096   9.532  14.040 -0.15 +0.00    +0.050 C 
DOCKED: ATOM     19  C   UNL d   1     -10.234   9.006  12.730 -0.20 +0.00    +0.045 A 
DOCKED: ATOM     20  C   UNL d   1      -8.418  12.681   8.715 -0.26 -0.01    +0.045 A 
DOCKED: ATOM     21  C   UNL d   1      -7.497  13.598   9.027 -0.24 -0.01    +0.057 C 
DOCKED: ATOM     22  C   UNL d   1      -9.979  11.530   7.507 -0.20 +0.00    -0.019 A 
DOCKED: ATOM     23  C   UNL d   1      -9.841  10.896   8.834 -0.20 -0.01    +0.045 A 
DOCKED: ATOM     24  C   UNL d   1      -9.132  12.585   7.442 -0.24 +0.00    -0.022 A 
DOCKED: ATOM     25  C   UNL d   1     -10.400   9.136  10.478 -0.16 -0.00    +0.049 A 
DOCKED: ATOM     26  C   UNL d   1     -10.516   7.729  12.270 -0.29 -0.00    -0.018 A 
DOCKED: ATOM     27  C   UNL d   1     -10.600   7.813  10.846 -0.32 +0.00    +0.003 A 
DOCKED: ATOM     28  C   UNL d   1     -10.520   9.809   9.231 -0.24 -0.01    +0.052 C 
DOCKED: ATOM     29  C   UNL d   1      -8.900  13.527   6.310 -0.18 -0.00    +0.046 C 
DOCKED: ATOM     30  C   UNL d   1     -10.695   6.503  13.100 -0.27 +0.00    +0.046 C 
DOCKED: ATOM     31  H   UNL d   1      -8.502  11.443  10.391 +0.06 -0.02    +0.166 HD
DOCKED: ATOM     32  H   UNL d   1      -9.960  10.829  11.698 +0.04 -0.00    +0.166 HD
DOCKED: ENDROOT
DOCKED: BRANCH   7  33
DOCKED: ATOM     33  C   UNL d   1      -8.649   9.905  16.811 -0.05 -0.01    +0.141 C 
DOCKED: BRANCH  33  34
DOCKED: ATOM     34  C   UNL d   1      -7.320   9.331  16.402 -0.09 -0.02    +0.306 C 
DOCKED: ATOM     35  O   UNL d   1      -7.143   8.407  15.625 -0.21 +0.00    -0.251 OA
DOCKED: BRANCH  34  36
DOCKED: ATOM     36  O   UNL d   1      -6.283   9.952  16.990 -0.01 +0.05    -0.481 OA
DOCKED: ATOM     37  H   UNL d   1      -6.499  10.907  16.926 +0.06 -0.03    +0.295 HD
DOCKED: ENDBRANCH  34  36
DOCKED: ENDBRANCH  33  34
DOCKED: ENDBRANCH   7  33
DOCKED: BRANCH  27  38
DOCKED: ATOM     38  C   UNL d   1     -10.891   6.719   9.970 -0.38 -0.00    +0.017 C 
DOCKED: ATOM     39  C   UNL d   1     -11.334   6.833   8.708 -0.31 -0.00    +0.092 C 
DOCKED: BRANCH  39  40
DOCKED: ATOM     40  C   UNL d   1     -11.578   5.630   7.908 -0.12 -0.00    +0.330 C 
DOCKED: ATOM     41  O   UNL d   1     -11.204   4.496   8.138 -0.62 -0.02    -0.246 OA
DOCKED: BRANCH  40  42
DOCKED: ATOM     42  O   UNL d   1     -12.315   5.935   6.829 -0.06 +0.01    -0.477 OA
DOCKED: ATOM     43  H   UNL d   1     -11.747   6.552   6.324 +0.10 -0.01    +0.295 HD
DOCKED: ENDBRANCH  40  42
DOCKED: ENDBRANCH  39  40
DOCKED: ENDBRANCH  27  38
DOCKED: BRANCH   8  44
DOCKED: ATOM     44  C   UNL d   1      -5.318  15.669  12.781 -0.17 -0.02    +0.141 C 
DOCKED: BRANCH  44  45
DOCKED: ATOM     45  C   UNL d   1      -6.180  16.694  12.094 -0.06 -0.03    +0.306 C 
DOCKED: ATOM     46  O   UNL d   1      -7.394  16.778  12.151 -0.02 +0.02    -0.251 OA
DOCKED: BRANCH  45  47
DOCKED: ATOM     47  O   UNL d   1      -5.463  17.549  11.342 -0.04 +0.03    -0.481 OA
DOCKED: ATOM     48  H   UNL d   1      -5.347  17.087  10.484 +0.07 -0.01    +0.295 HD
DOCKED: ENDBRANCH  45  47
DOCKED: ENDBRANCH  44  45
DOCKED: ENDBRANCH   8  44
DOCKED: BRANCH  22  49
DOCKED: ATOM     49  C   UNL d   1     -10.925  11.060   6.443 -0.18 -0.01    +0.048 C 
DOCKED: BRANCH  49  50
DOCKED: ATOM     50  C   UNL d   1     -10.333   9.915   5.620 -0.08 -0.02    +0.125 C 
DOCKED: BRANCH  50  51
DOCKED: ATOM     51  C   UNL d   1     -11.274   8.745   5.574 -0.18 -0.03    +0.305 C 
DOCKED: ATOM     52  O   UNL d   1     -11.407   7.934   4.675 -0.17 +0.00    -0.251 OA
DOCKED: BRANCH  51  53
DOCKED: ATOM     53  O   UNL d   1     -12.029   8.661   6.688 -0.05 +0.05    -0.481 OA
DOCKED: ATOM     54  H   UNL d   1     -12.740   8.031   6.446 +0.07 -0.01    +0.295 HD
DOCKED: ENDBRANCH  51  53
DOCKED: ENDBRANCH  50  51
DOCKED: ENDBRANCH  49  50
DOCKED: ENDBRANCH  22  49
DOCKED: TORSDOF 13
DOCKED: TER
DOCKED: ENDMDL
________________________________________________________________________________


	BEGINNING GENETIC ALGORITHM DOCKING 72 of 100
Run: 72 Seed: 1190516441 968987873 [ Run 72 of 100 GA/GALS ]
Beginning LAMARCKIAN GENETIC ALGORITHM (LGA), with a maximum of 25000000 energy evaluations.

Final-Value: -12.253


	FINAL GENETIC ALGORITHM DOCKED STATE
	_______________________________________________


Detailed state:  trans -8.417 11.446 12.287 quatxyzw -0.510611 -0.251104 0.037991 -0.821450 center 0.153 0.018 -0.028 ntor 13 42.2154 -179.8998 -113.7560 53.9756 -140.4345 -93.2867 120.6474 28.4834 -11.8560 -27.9338 -91.4981 28.4488 2.5042
State:	 -8.417  11.446  12.287  -0.895 -0.440  0.067 -69.540     42.22 -179.90 -113.76   53.98 -140.43  -93.29  120.65   28.48  -11.86  -27.93  -91.50   28.45    2.50

DOCKED: MODEL       72
DOCKED: USER    Run = 72
DOCKED: USER    DPF = D:/Protein_go_brrr/autodock/final/mut_N102T/heme/dock.dpf
DOCKED: USER  
DOCKED: USER    Estimated Free Energy of Binding    =   -4.14 kcal/mol  [=(1)+(2)+(3)-(4)]
DOCKED: USER    Estimated Inhibition Constant, Ki   =  929.40 uM (micromolar)  [Temperature = 298.15 K]
DOCKED: USER    
DOCKED: USER    (1) Final Intermolecular Energy     =   -8.01 kcal/mol
DOCKED: USER        vdW + Hbond + desolv Energy     =   -7.87 kcal/mol
DOCKED: USER        Electrostatic Energy            =   -0.14 kcal/mol
DOCKED: USER    (2) Final Total Internal Energy     =   -4.24 kcal/mol
DOCKED: USER    (3) Torsional Free Energy           =   +3.88 kcal/mol
DOCKED: USER    (4) Unbound System's Energy  [=(2)] =   -4.24 kcal/mol
DOCKED: USER    
DOCKED: USER    
DOCKED: USER    NEWDPF move heme_opt.pdbqt
DOCKED: USER    NEWDPF about 0.153000 0.018000 -0.028000
DOCKED: USER    NEWDPF tran0 -8.416972 11.446429 12.286683
DOCKED: USER    NEWDPF quaternion0 -0.510611 -0.251104 0.037991 -0.821450
DOCKED: USER    NEWDPF axisangle0 -0.895368 -0.440316 0.066618 -69.539643
DOCKED: USER    NEWDPF quat0 -0.895368 -0.440316 0.066618 -69.539643
DOCKED: USER    NEWDPF dihe0 42.22 -179.90 -113.76 53.98 -140.43 -93.29 120.65 28.48 -11.86 -27.93 -91.50 28.45 2.50 
DOCKED: USER  keepresnum = 1 
DOCKED: USER  
DOCKED: REMARK  13 active torsions:
DOCKED: REMARK  status: ('A' for Active; 'I' for Inactive)
DOCKED: REMARK    1  A    between atoms: O_3  and  C_38 
DOCKED: REMARK    2  A    between atoms: O_4  and  C_40 
DOCKED: REMARK    3  A    between atoms: O_7  and  C_46 
DOCKED: REMARK    4  A    between atoms: O_9  and  C_48 
DOCKED: REMARK    5  A    between atoms: C_15  and  C_20 
DOCKED: REMARK    6  A    between atoms: C_16  and  C_23 
DOCKED: REMARK    7  A    between atoms: C_20  and  C_38 
DOCKED: REMARK    8  A    between atoms: C_23  and  C_40 
DOCKED: REMARK    9  A    between atoms: C_32  and  C_41 
DOCKED: REMARK   10  A    between atoms: C_37  and  C_45 
DOCKED: REMARK   11  A    between atoms: C_41  and  C_44 
DOCKED: REMARK   12  A    between atoms: C_44  and  C_46 
DOCKED: REMARK   13  A    between atoms: C_47  and  C_48 
DOCKED: USER                              x       y       z     vdW  Elec       q    Type
DOCKED: USER                           _______ _______ _______ _____ _____    ______ ____
DOCKED: ROOT
DOCKED: ATOM      1  O   UNL d   1     -13.269  10.992   8.969 -0.01 +0.02    -0.289 OA
DOCKED: ATOM      2  O   UNL d   1     -10.959   7.000  14.895 -0.06 -0.01    -0.289 OA
DOCKED: ATOM      3  N   UNL d   1     -10.244  11.546  10.530 -0.09 +0.02    -0.247 NA
DOCKED: ATOM      4  N   UNL d   1     -10.351   9.740  12.887 -0.10 -0.00    -0.247 NA
DOCKED: ATOM      5  N   UNL d   1      -8.084  11.150  13.954 +0.07 -0.00    -0.354 N 
DOCKED: ATOM      6  N   UNL d   1      -7.992  13.032  11.515 -0.06 +0.03    -0.354 N 
DOCKED: ATOM      7  C   UNL d   1     -11.499  12.663   8.745 -0.04 -0.01    +0.084 A 
DOCKED: ATOM      8  C   UNL d   1     -11.770   7.758  12.713 -0.09 +0.00    +0.084 A 
DOCKED: ATOM      9  C   UNL d   1     -11.271   9.075  12.108 -0.12 -0.00    +0.058 A 
DOCKED: ATOM     10  C   UNL d   1     -10.256  12.605   9.638 -0.10 -0.01    +0.058 A 
DOCKED: ATOM     11  C   UNL d   1     -12.179  11.438   9.278 -0.03 -0.01    +0.193 A 
DOCKED: ATOM     12  C   UNL d   1     -11.307  10.836  10.337 -0.09 -0.01    +0.109 A 
DOCKED: ATOM     13  C   UNL d   1     -10.990   7.818  13.996 -0.09 +0.00    +0.193 A 
DOCKED: ATOM     14  C   UNL d   1     -12.369  13.885   9.050 -0.01 -0.00    +0.026 C 
DOCKED: ATOM     15  C   UNL d   1     -11.733   9.560  10.945 -0.11 -0.00    +0.055 C 
DOCKED: ATOM     16  C   UNL d   1     -11.296   6.546  11.905 -0.24 +0.00    +0.026 C 
DOCKED: ATOM     17  C   UNL d   1     -10.175   9.070  13.981 -0.14 +0.00    +0.109 A 
DOCKED: ATOM     18  C   UNL d   1      -9.237  13.471   9.481 -0.13 -0.01    +0.050 C 
DOCKED: ATOM     19  C   UNL d   1      -8.015  13.443  10.201 -0.17 -0.01    +0.045 A 
DOCKED: ATOM     20  C   UNL d   1      -8.425  10.393  15.045 -0.11 -0.00    +0.045 A 
DOCKED: ATOM     21  C   UNL d   1      -9.337   9.420  15.137 -0.14 -0.00    +0.057 C 
DOCKED: ATOM     22  C   UNL d   1      -6.779  11.858  15.649 -0.10 +0.00    -0.019 A 
DOCKED: ATOM     23  C   UNL d   1      -7.098  12.063  14.221 -0.07 -0.00    +0.045 A 
DOCKED: ATOM     24  C   UNL d   1      -7.567  10.867  16.130 -0.09 +0.00    -0.022 A 
DOCKED: ATOM     25  C   UNL d   1      -6.729  13.169  12.042 -0.09 -0.01    +0.049 A 
DOCKED: ATOM     26  C   UNL d   1      -6.727  13.821   9.855 -0.23 +0.00    -0.018 A 
DOCKED: ATOM     27  C   UNL d   1      -5.915  13.628  11.015 -0.29 -0.00    +0.003 A 
DOCKED: ATOM     28  C   UNL d   1      -6.490  12.956  13.427 -0.16 -0.01    +0.052 C 
DOCKED: ATOM     29  C   UNL d   1      -7.608  10.293  17.505 -0.05 -0.00    +0.046 C 
DOCKED: ATOM     30  C   UNL d   1      -6.275  14.330   8.528 -0.26 -0.01    +0.046 C 
DOCKED: ATOM     31  H   UNL d   1      -8.485  10.967  13.041 +0.05 +0.01    +0.166 HD
DOCKED: ATOM     32  H   UNL d   1      -8.813  12.715  12.017 +0.03 -0.01    +0.166 HD
DOCKED: ENDROOT
DOCKED: BRANCH   7  33
DOCKED: ATOM     33  C   UNL d   1     -11.236  12.521   7.242 -0.06 -0.01    +0.141 C 
DOCKED: BRANCH  33  34
DOCKED: ATOM     34  C   UNL d   1     -10.115  11.564   6.938 -0.14 -0.05    +0.306 C 
DOCKED: ATOM     35  O   UNL d   1      -8.927  11.836   6.899 -0.25 +0.05    -0.251 OA
DOCKED: BRANCH  34  36
DOCKED: ATOM     36  O   UNL d   1     -10.550  10.314   6.703 -0.07 +0.12    -0.481 OA
DOCKED: ATOM     37  H   UNL d   1      -9.890   9.736   7.144 -0.45 -0.19    +0.295 HD
DOCKED: ENDBRANCH  34  36
DOCKED: ENDBRANCH  33  34
DOCKED: ENDBRANCH   7  33
DOCKED: BRANCH  27  38
DOCKED: ATOM     38  C   UNL d   1      -4.515  13.912  11.099 -0.46 -0.00    +0.017 C 
DOCKED: ATOM     39  C   UNL d   1      -3.549  12.999  11.285 -0.59 -0.02    +0.092 C 
DOCKED: BRANCH  39  40
DOCKED: ATOM     40  C   UNL d   1      -2.146  13.419  11.335 -0.44 -0.07    +0.330 C 
DOCKED: ATOM     41  O   UNL d   1      -1.340  13.428  10.425 -0.47 +0.04    -0.246 OA
DOCKED: BRANCH  40  42
DOCKED: ATOM     42  O   UNL d   1      -1.831  13.828  12.574 -0.25 +0.17    -0.477 OA
DOCKED: ATOM     43  H   UNL d   1      -2.663  13.715  13.077 +0.16 -0.10    +0.295 HD
DOCKED: ENDBRANCH  40  42
DOCKED: ENDBRANCH  39  40
DOCKED: ENDBRANCH  27  38
DOCKED: BRANCH   8  44
DOCKED: ATOM     44  C   UNL d   1     -13.275   7.686  12.989 -0.02 -0.00    +0.141 C 
DOCKED: BRANCH  44  45
DOCKED: ATOM     45  C   UNL d   1     -13.688   8.428  14.233 -0.00 -0.01    +0.306 C 
DOCKED: ATOM     46  O   UNL d   1     -13.801   9.635  14.355 -0.00 +0.01    -0.251 OA
DOCKED: BRANCH  45  47
DOCKED: ATOM     47  O   UNL d   1     -13.910   7.605  15.273 +0.00 +0.01    -0.481 OA
DOCKED: ATOM     48  H   UNL d   1     -13.033   7.213  15.471 +0.02 -0.00    +0.295 HD
DOCKED: ENDBRANCH  45  47
DOCKED: ENDBRANCH  44  45
DOCKED: ENDBRANCH   8  44
DOCKED: BRANCH  22  49
DOCKED: ATOM     49  C   UNL d   1      -5.755  12.651  16.405 -0.09 -0.01    +0.048 C 
DOCKED: BRANCH  49  50
DOCKED: ATOM     50  C   UNL d   1      -4.338  12.137  16.155 -0.21 -0.03    +0.125 C 
DOCKED: BRANCH  50  51
DOCKED: ATOM     51  C   UNL d   1      -3.721  12.821  14.968 -0.20 -0.10    +0.305 C 
DOCKED: ATOM     52  O   UNL d   1      -4.029  13.897  14.487 -0.17 +0.09    -0.251 OA
DOCKED: BRANCH  51  53
DOCKED: ATOM     53  O   UNL d   1      -2.728  12.089  14.424 -0.66 +0.18    -0.481 OA
DOCKED: ATOM     54  H   UNL d   1      -1.965  12.704  14.400 -0.38 -0.21    +0.295 HD
DOCKED: ENDBRANCH  51  53
DOCKED: ENDBRANCH  50  51
DOCKED: ENDBRANCH  49  50
DOCKED: ENDBRANCH  22  49
DOCKED: TORSDOF 13
DOCKED: TER
DOCKED: ENDMDL
________________________________________________________________________________


	BEGINNING GENETIC ALGORITHM DOCKING 73 of 100
Run: 73 Seed: 921865612 2069590332 [ Run 73 of 100 GA/GALS ]
Beginning LAMARCKIAN GENETIC ALGORITHM (LGA), with a maximum of 25000000 energy evaluations.

Final-Value: -11.430


	FINAL GENETIC ALGORITHM DOCKED STATE
	_______________________________________________


Detailed state:  trans -8.656 10.983 11.101 quatxyzw 0.503870 -0.390784 -0.758838 -0.132542 center 0.153 0.018 -0.028 ntor 13 83.8635 152.2611 -97.8917 -178.5136 180.0000 104.7801 121.2266 82.7177 103.5830 -34.4170 -77.5661 -110.6850 7.9641
State:	 -8.656  10.983  11.101   0.508 -0.394 -0.766 -164.767     83.86  152.26  -97.89 -178.51  180.00  104.78  121.23   82.72  103.58  -34.42  -77.57 -110.68    7.96

DOCKED: MODEL       73
DOCKED: USER    Run = 73
DOCKED: USER    DPF = D:/Protein_go_brrr/autodock/final/mut_N102T/heme/dock.dpf
DOCKED: USER  
DOCKED: USER    Estimated Free Energy of Binding    =   -3.60 kcal/mol  [=(1)+(2)+(3)-(4)]
DOCKED: USER    Estimated Inhibition Constant, Ki   =    2.29 mM (millimolar)  [Temperature = 298.15 K]
DOCKED: USER    
DOCKED: USER    (1) Final Intermolecular Energy     =   -7.48 kcal/mol
DOCKED: USER        vdW + Hbond + desolv Energy     =   -7.33 kcal/mol
DOCKED: USER        Electrostatic Energy            =   -0.15 kcal/mol
DOCKED: USER    (2) Final Total Internal Energy     =   -3.95 kcal/mol
DOCKED: USER    (3) Torsional Free Energy           =   +3.88 kcal/mol
DOCKED: USER    (4) Unbound System's Energy  [=(2)] =   -3.95 kcal/mol
DOCKED: USER    
DOCKED: USER    
DOCKED: USER    NEWDPF move heme_opt.pdbqt
DOCKED: USER    NEWDPF about 0.153000 0.018000 -0.028000
DOCKED: USER    NEWDPF tran0 -8.656021 10.982943 11.100562
DOCKED: USER    NEWDPF quaternion0 0.503870 -0.390784 -0.758838 -0.132542
DOCKED: USER    NEWDPF axisangle0 0.508355 -0.394263 -0.765592 -164.767019
DOCKED: USER    NEWDPF quat0 0.508355 -0.394263 -0.765592 -164.767019
DOCKED: USER    NEWDPF dihe0 83.86 152.26 -97.89 -178.51 180.00 104.78 121.23 82.72 103.58 -34.42 -77.57 -110.68 7.96 
DOCKED: USER  keepresnum = 1 
DOCKED: USER  
DOCKED: REMARK  13 active torsions:
DOCKED: REMARK  status: ('A' for Active; 'I' for Inactive)
DOCKED: REMARK    1  A    between atoms: O_3  and  C_38 
DOCKED: REMARK    2  A    between atoms: O_4  and  C_40 
DOCKED: REMARK    3  A    between atoms: O_7  and  C_46 
DOCKED: REMARK    4  A    between atoms: O_9  and  C_48 
DOCKED: REMARK    5  A    between atoms: C_15  and  C_20 
DOCKED: REMARK    6  A    between atoms: C_16  and  C_23 
DOCKED: REMARK    7  A    between atoms: C_20  and  C_38 
DOCKED: REMARK    8  A    between atoms: C_23  and  C_40 
DOCKED: REMARK    9  A    between atoms: C_32  and  C_41 
DOCKED: REMARK   10  A    between atoms: C_37  and  C_45 
DOCKED: REMARK   11  A    between atoms: C_41  and  C_44 
DOCKED: REMARK   12  A    between atoms: C_44  and  C_46 
DOCKED: REMARK   13  A    between atoms: C_47  and  C_48 
DOCKED: USER                              x       y       z     vdW  Elec       q    Type
DOCKED: USER                           _______ _______ _______ _____ _____    ______ ____
DOCKED: ROOT
DOCKED: ATOM      1  O   UNL d   1      -6.979  13.505  16.158 -0.02 +0.03    -0.289 OA
DOCKED: ATOM      2  O   UNL d   1      -5.137  15.034   9.041 -0.19 +0.02    -0.289 OA
DOCKED: ATOM      3  N   UNL d   1      -8.123  11.642  13.491 +0.06 +0.00    -0.247 NA
DOCKED: ATOM      4  N   UNL d   1      -7.139  13.153  11.130 -0.11 +0.04    -0.247 NA
DOCKED: ATOM      5  N   UNL d   1      -8.909  11.579   9.500 -0.14 +0.06    -0.354 N 
DOCKED: ATOM      6  N   UNL d   1      -9.939  10.029  11.958 -0.04 -0.00    -0.354 N 
DOCKED: ATOM      7  C   UNL d   1      -8.573  11.670  15.901 -0.05 -0.00    +0.084 A 
DOCKED: ATOM      8  C   UNL d   1      -5.142  14.528  11.436 -0.24 -0.01    +0.084 A 
DOCKED: ATOM      9  C   UNL d   1      -6.225  13.630  12.043 -0.18 -0.01    +0.058 A 
DOCKED: ATOM     10  C   UNL d   1      -8.850  11.067  14.520 -0.10 -0.00    +0.058 A 
DOCKED: ATOM     11  C   UNL d   1      -7.547  12.675  15.472 -0.04 -0.02    +0.193 A 
DOCKED: ATOM     12  C   UNL d   1      -7.343  12.542  13.995 -0.09 -0.01    +0.109 A 
DOCKED: ATOM     13  C   UNL d   1      -5.632  14.503  10.016 -0.21 -0.03    +0.193 A 
DOCKED: ATOM     14  C   UNL d   1      -9.790  12.411  16.459 -0.02 -0.00    +0.026 C 
DOCKED: ATOM     15  C   UNL d   1      -6.302  13.374  13.358 -0.16 -0.01    +0.055 C 
DOCKED: ATOM     16  C   UNL d   1      -3.760  13.868  11.491 -0.54 -0.00    +0.026 C 
DOCKED: ATOM     17  C   UNL d   1      -6.852  13.641   9.966 -0.19 -0.02    +0.109 A 
DOCKED: ATOM     18  C   UNL d   1      -9.668  10.008  14.367 -0.14 -0.00    +0.050 C 
DOCKED: ATOM     19  C   UNL d   1      -9.919   9.333  13.145 -0.18 +0.00    +0.045 A 
DOCKED: ATOM     20  C   UNL d   1      -8.515  12.517   8.582 -0.28 -0.01    +0.045 A 
DOCKED: ATOM     21  C   UNL d   1      -7.580  13.465   8.701 -0.26 -0.01    +0.057 C 
DOCKED: ATOM     22  C   UNL d   1     -10.165  11.232   7.664 -0.19 +0.00    -0.019 A 
DOCKED: ATOM     23  C   UNL d   1      -9.901  10.757   9.037 -0.23 -0.01    +0.045 A 
DOCKED: ATOM     24  C   UNL d   1      -9.341  12.273   7.400 -0.24 +0.00    -0.022 A 
DOCKED: ATOM     25  C   UNL d   1     -10.288   9.200  10.917 -0.13 -0.00    +0.049 A 
DOCKED: ATOM     26  C   UNL d   1     -10.226   8.011  12.864 -0.28 -0.00    -0.018 A 
DOCKED: ATOM     27  C   UNL d   1     -10.439   7.929  11.453 -0.31 +0.00    +0.003 A 
DOCKED: ATOM     28  C   UNL d   1     -10.529   9.723   9.618 -0.25 -0.01    +0.052 C 
DOCKED: ATOM     29  C   UNL d   1      -9.223  13.076   6.149 -0.20 -0.00    +0.046 C 
DOCKED: ATOM     30  C   UNL d   1     -10.315   6.890  13.844 -0.27 +0.00    +0.046 C 
DOCKED: ATOM     31  H   UNL d   1      -8.433  11.482  10.391 +0.07 -0.02    +0.166 HD
DOCKED: ATOM     32  H   UNL d   1      -9.759  11.024  11.888 +0.03 -0.00    +0.166 HD
DOCKED: ENDROOT
DOCKED: BRANCH   7  33
DOCKED: ATOM     33  C   UNL d   1      -7.981  10.704  16.933 -0.04 -0.01    +0.141 C 
DOCKED: BRANCH  33  34
DOCKED: ATOM     34  C   UNL d   1      -7.120  11.400  17.951 -0.01 -0.03    +0.306 C 
DOCKED: ATOM     35  O   UNL d   1      -5.966  11.123  18.230 -0.02 +0.03    -0.251 OA
DOCKED: BRANCH  34  36
DOCKED: ATOM     36  O   UNL d   1      -7.759  12.413  18.564 +0.00 +0.04    -0.481 OA
DOCKED: ATOM     37  H   UNL d   1      -7.455  13.218  18.092 +0.01 -0.03    +0.295 HD
DOCKED: ENDBRANCH  34  36
DOCKED: ENDBRANCH  33  34
DOCKED: ENDBRANCH   7  33
DOCKED: BRANCH  27  38
DOCKED: ATOM     38  C   UNL d   1     -10.796   6.739  10.741 -0.34 +0.00    +0.017 C 
DOCKED: ATOM     39  C   UNL d   1     -12.011   6.473  10.238 -0.18 -0.00    +0.092 C 
DOCKED: BRANCH  39  40
DOCKED: ATOM     40  C   UNL d   1     -12.242   5.222   9.511 -0.11 -0.01    +0.330 C 
DOCKED: ATOM     41  O   UNL d   1     -12.802   4.220   9.914 -0.10 +0.01    -0.246 OA
DOCKED: BRANCH  40  42
DOCKED: ATOM     42  O   UNL d   1     -11.744   5.312   8.268 -0.13 +0.00    -0.477 OA
DOCKED: ATOM     43  H   UNL d   1     -11.791   6.268   8.065 +0.11 -0.01    +0.295 HD
DOCKED: ENDBRANCH  40  42
DOCKED: ENDBRANCH  39  40
DOCKED: ENDBRANCH  27  38
DOCKED: BRANCH   8  44
DOCKED: ATOM     44  C   UNL d   1      -5.094  15.961  11.975 -0.18 -0.01    +0.141 C 
DOCKED: BRANCH  44  45
DOCKED: ATOM     45  C   UNL d   1      -6.065  16.886  11.290 -0.07 -0.02    +0.306 C 
DOCKED: ATOM     46  O   UNL d   1      -7.267  16.947  11.479 -0.03 +0.02    -0.251 OA
DOCKED: BRANCH  45  47
DOCKED: ATOM     47  O   UNL d   1      -5.469  17.673  10.376 -0.05 +0.02    -0.481 OA
DOCKED: ATOM     48  H   UNL d   1      -5.386  17.107   9.579 +0.07 -0.01    +0.295 HD
DOCKED: ENDBRANCH  45  47
DOCKED: ENDBRANCH  44  45
DOCKED: ENDBRANCH   8  44
DOCKED: BRANCH  22  49
DOCKED: ATOM     49  C   UNL d   1     -11.199  10.640   6.751 -0.18 -0.01    +0.048 C 
DOCKED: BRANCH  49  50
DOCKED: ATOM     50  C   UNL d   1     -10.746   9.299   6.173 -0.15 -0.03    +0.125 C 
DOCKED: BRANCH  50  51
DOCKED: ATOM     51  C   UNL d   1     -11.429   8.156   6.869 -0.17 -0.04    +0.305 C 
DOCKED: ATOM     52  O   UNL d   1     -12.575   7.772   6.717 -0.09 +0.01    -0.251 OA
DOCKED: BRANCH  51  53
DOCKED: ATOM     53  O   UNL d   1     -10.615   7.546   7.753 -0.15 +0.08    -0.481 OA
DOCKED: ATOM     54  H   UNL d   1      -9.780   8.055   7.699 -0.41 -0.16    +0.295 HD
DOCKED: ENDBRANCH  51  53
DOCKED: ENDBRANCH  50  51
DOCKED: ENDBRANCH  49  50
DOCKED: ENDBRANCH  22  49
DOCKED: TORSDOF 13
DOCKED: TER
DOCKED: ENDMDL
________________________________________________________________________________


	BEGINNING GENETIC ALGORITHM DOCKING 74 of 100
Run: 74 Seed: 1282149766 1393202524 [ Run 74 of 100 GA/GALS ]
Beginning LAMARCKIAN GENETIC ALGORITHM (LGA), with a maximum of 25000000 energy evaluations.

Final-Value: -10.314


	FINAL GENETIC ALGORITHM DOCKED STATE
	_______________________________________________


Detailed state:  trans -9.282 11.317 6.763 quatxyzw 0.646932 0.310204 -0.205659 0.665550 center 0.153 0.018 -0.028 ntor 13 158.8393 74.6293 103.6520 132.2989 -142.8233 15.0589 -38.2089 -59.7327 17.2501 -124.5249 96.5290 -78.9567 11.1442
State:	 -9.282  11.317   6.763   0.867  0.416 -0.276 96.551    158.84   74.63  103.65  132.30 -142.82   15.06  -38.21  -59.73   17.25 -124.52   96.53  -78.96   11.14

DOCKED: MODEL       74
DOCKED: USER    Run = 74
DOCKED: USER    DPF = D:/Protein_go_brrr/autodock/final/mut_N102T/heme/dock.dpf
DOCKED: USER  
DOCKED: USER    Estimated Free Energy of Binding    =   -3.85 kcal/mol  [=(1)+(2)+(3)-(4)]
DOCKED: USER    Estimated Inhibition Constant, Ki   =    1.50 mM (millimolar)  [Temperature = 298.15 K]
DOCKED: USER    
DOCKED: USER    (1) Final Intermolecular Energy     =   -7.73 kcal/mol
DOCKED: USER        vdW + Hbond + desolv Energy     =   -7.60 kcal/mol
DOCKED: USER        Electrostatic Energy            =   -0.13 kcal/mol
DOCKED: USER    (2) Final Total Internal Energy     =   -2.58 kcal/mol
DOCKED: USER    (3) Torsional Free Energy           =   +3.88 kcal/mol
DOCKED: USER    (4) Unbound System's Energy  [=(2)] =   -2.58 kcal/mol
DOCKED: USER    
DOCKED: USER    
DOCKED: USER    NEWDPF move heme_opt.pdbqt
DOCKED: USER    NEWDPF about 0.153000 0.018000 -0.028000
DOCKED: USER    NEWDPF tran0 -9.282095 11.317492 6.762774
DOCKED: USER    NEWDPF quaternion0 0.646932 0.310204 -0.205659 0.665550
DOCKED: USER    NEWDPF axisangle0 0.866791 0.415627 -0.275551 96.550999
DOCKED: USER    NEWDPF quat0 0.866791 0.415627 -0.275551 96.550999
DOCKED: USER    NEWDPF dihe0 158.84 74.63 103.65 132.30 -142.82 15.06 -38.21 -59.73 17.25 -124.52 96.53 -78.96 11.14 
DOCKED: USER  keepresnum = 1 
DOCKED: USER  
DOCKED: REMARK  13 active torsions:
DOCKED: REMARK  status: ('A' for Active; 'I' for Inactive)
DOCKED: REMARK    1  A    between atoms: O_3  and  C_38 
DOCKED: REMARK    2  A    between atoms: O_4  and  C_40 
DOCKED: REMARK    3  A    between atoms: O_7  and  C_46 
DOCKED: REMARK    4  A    between atoms: O_9  and  C_48 
DOCKED: REMARK    5  A    between atoms: C_15  and  C_20 
DOCKED: REMARK    6  A    between atoms: C_16  and  C_23 
DOCKED: REMARK    7  A    between atoms: C_20  and  C_38 
DOCKED: REMARK    8  A    between atoms: C_23  and  C_40 
DOCKED: REMARK    9  A    between atoms: C_32  and  C_41 
DOCKED: REMARK   10  A    between atoms: C_37  and  C_45 
DOCKED: REMARK   11  A    between atoms: C_41  and  C_44 
DOCKED: REMARK   12  A    between atoms: C_44  and  C_46 
DOCKED: REMARK   13  A    between atoms: C_47  and  C_48 
DOCKED: USER                              x       y       z     vdW  Elec       q    Type
DOCKED: USER                           _______ _______ _______ _____ _____    ______ ____
DOCKED: ROOT
DOCKED: ATOM      1  O   UNL d   1     -13.563   8.137   4.250 -0.03 +0.00    -0.289 OA
DOCKED: ATOM      2  O   UNL d   1     -10.749   7.986  11.211 -0.17 -0.00    -0.289 OA
DOCKED: ATOM      3  N   UNL d   1     -10.926  10.126   5.242 -0.14 +0.03    -0.247 NA
DOCKED: ATOM      4  N   UNL d   1     -10.734   9.600   8.161 -0.13 +0.06    -0.247 NA
DOCKED: ATOM      5  N   UNL d   1      -9.014  11.895   8.367 -0.17 +0.08    -0.354 N 
DOCKED: ATOM      6  N   UNL d   1      -9.234  12.444   5.342 -0.12 +0.02    -0.354 N 
DOCKED: ATOM      7  C   UNL d   1     -12.288   9.946   3.213 -0.06 -0.00    +0.084 A 
DOCKED: ATOM      8  C   UNL d   1     -11.559   7.445   8.965 -0.22 -0.01    +0.084 A 
DOCKED: ATOM      9  C   UNL d   1     -11.381   8.436   7.810 -0.22 -0.01    +0.058 A 
DOCKED: ATOM     10  C   UNL d   1     -11.148  10.631   3.972 -0.12 -0.00    +0.058 A 
DOCKED: ATOM     11  C   UNL d   1     -12.659   8.952   4.271 -0.07 -0.00    +0.193 A 
DOCKED: ATOM     12  C   UNL d   1     -11.744   9.145   5.441 -0.16 -0.01    +0.109 A 
DOCKED: ATOM     13  C   UNL d   1     -10.926   8.277  10.044 -0.20 -0.01    +0.193 A 
DOCKED: ATOM     14  C   UNL d   1     -13.472  10.889   2.982 -0.02 -0.00    +0.026 C 
DOCKED: ATOM     15  C   UNL d   1     -11.862   8.209   6.578 -0.22 -0.00    +0.055 C 
DOCKED: ATOM     16  C   UNL d   1     -10.718   6.180   8.761 -0.38 -0.00    +0.026 C 
DOCKED: ATOM     17  C   UNL d   1     -10.474   9.562   9.428 -0.20 -0.02    +0.109 A 
DOCKED: ATOM     18  C   UNL d   1     -10.387  11.579   3.393 -0.13 -0.00    +0.050 C 
DOCKED: ATOM     19  C   UNL d   1      -9.262  12.206   3.987 -0.15 -0.00    +0.045 A 
DOCKED: ATOM     20  C   UNL d   1      -9.227  11.639   9.697 -0.21 -0.01    +0.045 A 
DOCKED: ATOM     21  C   UNL d   1      -9.852  10.601  10.261 -0.11 -0.00    +0.057 C 
DOCKED: ATOM     22  C   UNL d   1      -8.082  13.606   9.497 -0.19 +0.00    -0.019 A 
DOCKED: ATOM     23  C   UNL d   1      -8.331  13.061   8.147 -0.25 -0.01    +0.045 A 
DOCKED: ATOM     24  C   UNL d   1      -8.614  12.759  10.410 -0.17 +0.00    -0.022 A 
DOCKED: ATOM     25  C   UNL d   1      -8.098  13.139   5.688 -0.25 -0.00    +0.049 A 
DOCKED: ATOM     26  C   UNL d   1      -8.098  12.726   3.443 -0.10 -0.00    -0.018 A 
DOCKED: ATOM     27  C   UNL d   1      -7.357  13.297   4.524 -0.15 +0.00    +0.003 A 
DOCKED: ATOM     28  C   UNL d   1      -7.921  13.637   7.007 -0.26 -0.01    +0.052 C 
DOCKED: ATOM     29  C   UNL d   1      -8.609  12.868  11.897 -0.11 -0.00    +0.046 C 
DOCKED: ATOM     30  C   UNL d   1      -7.694  12.695   2.008 -0.12 +0.00    +0.046 C 
DOCKED: ATOM     31  H   UNL d   1      -9.279  11.224   7.654 -0.19 -0.05    +0.166 HD
DOCKED: ATOM     32  H   UNL d   1      -9.978  12.174   5.974 +0.04 -0.02    +0.166 HD
DOCKED: ENDROOT
DOCKED: BRANCH   7  33
DOCKED: ATOM     33  C   UNL d   1     -11.879   9.230   1.921 -0.08 +0.00    +0.141 C 
DOCKED: BRANCH  33  34
DOCKED: ATOM     34  C   UNL d   1     -10.964   8.062   2.171 -0.11 +0.01    +0.306 C 
DOCKED: ATOM     35  O   UNL d   1      -9.746   8.102   2.232 -0.14 +0.02    -0.251 OA
DOCKED: BRANCH  34  36
DOCKED: ATOM     36  O   UNL d   1     -11.631   6.906   2.335 -0.30 -0.11    -0.481 OA
DOCKED: ATOM     37  H   UNL d   1     -12.527   7.178   2.629 +0.05 +0.02    +0.295 HD
DOCKED: ENDBRANCH  34  36
DOCKED: ENDBRANCH  33  34
DOCKED: ENDBRANCH   7  33
DOCKED: BRANCH  27  38
DOCKED: ATOM     38  C   UNL d   1      -6.093  13.958   4.401 -0.23 +0.00    +0.017 C 
DOCKED: ATOM     39  C   UNL d   1      -5.747  15.090   5.032 -0.16 +0.00    +0.092 C 
DOCKED: BRANCH  39  40
DOCKED: ATOM     40  C   UNL d   1      -4.410  15.657   4.833 -0.06 +0.01    +0.330 C 
DOCKED: ATOM     41  O   UNL d   1      -3.594  15.356   3.982 -0.11 -0.02    -0.246 OA
DOCKED: BRANCH  40  42
DOCKED: ATOM     42  O   UNL d   1      -4.173  16.612   5.745 -0.06 +0.01    -0.477 OA
DOCKED: ATOM     43  H   UNL d   1      -4.253  17.446   5.237 +0.05 -0.01    +0.295 HD
DOCKED: ENDBRANCH  40  42
DOCKED: ENDBRANCH  39  40
DOCKED: ENDBRANCH  27  38
DOCKED: BRANCH   8  44
DOCKED: ATOM     44  C   UNL d   1     -13.008   7.096   9.319 -0.07 -0.01    +0.141 C 
DOCKED: BRANCH  44  45
DOCKED: ATOM     45  C   UNL d   1     -13.128   6.231  10.545 -0.04 -0.01    +0.306 C 
DOCKED: ATOM     46  O   UNL d   1     -13.001   5.019  10.595 -0.07 +0.01    -0.251 OA
DOCKED: BRANCH  45  47
DOCKED: ATOM     47  O   UNL d   1     -13.431   6.939  11.648 +0.01 +0.01    -0.481 OA
DOCKED: ATOM     48  H   UNL d   1     -12.587   7.365  11.909 +0.06 -0.00    +0.295 HD
DOCKED: ENDBRANCH  45  47
DOCKED: ENDBRANCH  44  45
DOCKED: ENDBRANCH   8  44
DOCKED: BRANCH  22  49
DOCKED: ATOM     49  C   UNL d   1      -7.368  14.898   9.766 -0.15 -0.01    +0.048 C 
DOCKED: BRANCH  49  50
DOCKED: ATOM     50  C   UNL d   1      -5.868  14.786   9.494 -0.25 -0.02    +0.125 C 
DOCKED: BRANCH  50  51
DOCKED: ATOM     51  C   UNL d   1      -5.153  14.184  10.671 -0.23 -0.04    +0.305 C 
DOCKED: ATOM     52  O   UNL d   1      -5.020  14.663  11.784 -0.17 +0.03    -0.251 OA
DOCKED: BRANCH  51  53
DOCKED: ATOM     53  O   UNL d   1      -4.618  12.983  10.376 -0.18 +0.12    -0.481 OA
DOCKED: ATOM     54  H   UNL d   1      -5.346  12.500   9.933 -0.42 -0.18    +0.295 HD
DOCKED: ENDBRANCH  51  53
DOCKED: ENDBRANCH  50  51
DOCKED: ENDBRANCH  49  50
DOCKED: ENDBRANCH  22  49
DOCKED: TORSDOF 13
DOCKED: TER
DOCKED: ENDMDL
________________________________________________________________________________


	BEGINNING GENETIC ALGORITHM DOCKING 75 of 100
Run: 75 Seed: 1403930529 105894907 [ Run 75 of 100 GA/GALS ]
Beginning LAMARCKIAN GENETIC ALGORITHM (LGA), with a maximum of 25000000 energy evaluations.

Final-Value: -10.142


	FINAL GENETIC ALGORITHM DOCKED STATE
	_______________________________________________


Detailed state:  trans 12.820 -9.729 -1.145 quatxyzw -0.817294 0.320743 0.463003 -0.121583 center 0.153 0.018 -0.028 ntor 13 108.0756 149.4268 -147.4396 -117.2015 -133.3199 138.4337 132.3009 65.3152 32.2895 -9.0136 60.6322 -158.9380 129.0909
State:	 12.820  -9.729  -1.145  -0.823  0.323  0.466 -166.033    108.08  149.43 -147.44 -117.20 -133.32  138.43  132.30   65.32   32.29   -9.01   60.63 -158.94  129.09

DOCKED: MODEL       75
DOCKED: USER    Run = 75
DOCKED: USER    DPF = D:/Protein_go_brrr/autodock/final/mut_N102T/heme/dock.dpf
DOCKED: USER  
DOCKED: USER    Estimated Free Energy of Binding    =   -2.92 kcal/mol  [=(1)+(2)+(3)-(4)]
DOCKED: USER    Estimated Inhibition Constant, Ki   =    7.20 mM (millimolar)  [Temperature = 298.15 K]
DOCKED: USER    
DOCKED: USER    (1) Final Intermolecular Energy     =   -6.80 kcal/mol
DOCKED: USER        vdW + Hbond + desolv Energy     =   -6.86 kcal/mol
DOCKED: USER        Electrostatic Energy            =   +0.06 kcal/mol
DOCKED: USER    (2) Final Total Internal Energy     =   -3.34 kcal/mol
DOCKED: USER    (3) Torsional Free Energy           =   +3.88 kcal/mol
DOCKED: USER    (4) Unbound System's Energy  [=(2)] =   -3.34 kcal/mol
DOCKED: USER    
DOCKED: USER    
DOCKED: USER    NEWDPF move heme_opt.pdbqt
DOCKED: USER    NEWDPF about 0.153000 0.018000 -0.028000
DOCKED: USER    NEWDPF tran0 12.819867 -9.729026 -1.144932
DOCKED: USER    NEWDPF quaternion0 -0.817294 0.320743 0.463003 -0.121583
DOCKED: USER    NEWDPF axisangle0 -0.823403 0.323141 0.466463 -166.033103
DOCKED: USER    NEWDPF quat0 -0.823403 0.323141 0.466463 -166.033103
DOCKED: USER    NEWDPF dihe0 108.08 149.43 -147.44 -117.20 -133.32 138.43 132.30 65.32 32.29 -9.01 60.63 -158.94 129.09 
DOCKED: USER  keepresnum = 1 
DOCKED: USER  
DOCKED: REMARK  13 active torsions:
DOCKED: REMARK  status: ('A' for Active; 'I' for Inactive)
DOCKED: REMARK    1  A    between atoms: O_3  and  C_38 
DOCKED: REMARK    2  A    between atoms: O_4  and  C_40 
DOCKED: REMARK    3  A    between atoms: O_7  and  C_46 
DOCKED: REMARK    4  A    between atoms: O_9  and  C_48 
DOCKED: REMARK    5  A    between atoms: C_15  and  C_20 
DOCKED: REMARK    6  A    between atoms: C_16  and  C_23 
DOCKED: REMARK    7  A    between atoms: C_20  and  C_38 
DOCKED: REMARK    8  A    between atoms: C_23  and  C_40 
DOCKED: REMARK    9  A    between atoms: C_32  and  C_41 
DOCKED: REMARK   10  A    between atoms: C_37  and  C_45 
DOCKED: REMARK   11  A    between atoms: C_41  and  C_44 
DOCKED: REMARK   12  A    between atoms: C_44  and  C_46 
DOCKED: REMARK   13  A    between atoms: C_47  and  C_48 
DOCKED: USER                              x       y       z     vdW  Elec       q    Type
DOCKED: USER                           _______ _______ _______ _____ _____    ______ ____
DOCKED: ROOT
DOCKED: ATOM      1  O   UNL d   1       9.253  -8.389   3.354 -0.18 -0.01    -0.289 OA
DOCKED: ATOM      2  O   UNL d   1      16.007  -5.712   1.452 -0.00 +0.03    -0.289 OA
DOCKED: ATOM      3  N   UNL d   1      11.051  -9.592   0.667 -0.09 +0.15    -0.247 NA
DOCKED: ATOM      4  N   UNL d   1      13.385  -7.759   0.531 -0.06 +0.18    -0.247 NA
DOCKED: ATOM      5  N   UNL d   1      13.947  -8.818  -2.082 +0.02 +0.47    -0.354 N 
DOCKED: ATOM      6  N   UNL d   1      11.512 -10.703  -1.941 -0.08 +0.27    -0.354 N 
DOCKED: ATOM      7  C   UNL d   1       8.800  -9.982   1.556 -0.34 -0.02    +0.084 A 
DOCKED: ATOM      8  C   UNL d   1      14.069  -6.663   2.606 -0.03 -0.01    +0.084 A 
DOCKED: ATOM      9  C   UNL d   1      13.072  -7.554   1.857 -0.07 -0.02    +0.058 A 
DOCKED: ATOM     10  C   UNL d   1       9.862 -10.281   0.494 -0.25 -0.02    +0.058 A 
DOCKED: ATOM     11  C   UNL d   1       9.606  -9.015   2.371 -0.18 -0.02    +0.193 A 
DOCKED: ATOM     12  C   UNL d   1      10.959  -8.883   1.745 -0.13 -0.04    +0.109 A 
DOCKED: ATOM     13  C   UNL d   1      14.985  -6.370   1.451 -0.01 -0.04    +0.193 A 
DOCKED: ATOM     14  C   UNL d   1       7.592  -9.248   0.970 -0.37 -0.00    +0.026 C 
DOCKED: ATOM     15  C   UNL d   1      11.965  -8.047   2.432 -0.11 -0.01    +0.055 C 
DOCKED: ATOM     16  C   UNL d   1      14.848  -7.449   3.665 -0.02 +0.00    +0.026 C 
DOCKED: ATOM     17  C   UNL d   1      14.456  -7.087   0.252 -0.06 -0.06    +0.109 A 
DOCKED: ATOM     18  C   UNL d   1       9.660 -11.208  -0.461 -0.26 -0.02    +0.050 C 
DOCKED: ATOM     19  C   UNL d   1      10.613 -11.611  -1.431 -0.23 -0.02    +0.045 A 
DOCKED: ATOM     20  C   UNL d   1      14.822  -7.763  -2.062 -0.08 -0.04    +0.045 A 
DOCKED: ATOM     21  C   UNL d   1      15.130  -6.948  -1.048 -0.08 -0.03    +0.057 C 
DOCKED: ATOM     22  C   UNL d   1      14.827  -8.686  -4.151 -0.07 +0.02    -0.019 A 
DOCKED: ATOM     23  C   UNL d   1      13.881  -9.437  -3.301 +0.01 -0.05    +0.045 A 
DOCKED: ATOM     24  C   UNL d   1      15.382  -7.697  -3.411 -0.07 +0.02    -0.022 A 
DOCKED: ATOM     25  C   UNL d   1      12.277 -11.281  -2.927 -0.18 -0.03    +0.049 A 
DOCKED: ATOM     26  C   UNL d   1      10.823 -12.820  -2.076 -0.21 +0.00    -0.018 A 
DOCKED: ATOM     27  C   UNL d   1      11.889 -12.611  -3.005 -0.16 -0.00    +0.003 A 
DOCKED: ATOM     28  C   UNL d   1      13.170 -10.499  -3.710 -0.17 -0.04    +0.052 C 
DOCKED: ATOM     29  C   UNL d   1      16.398  -6.685  -3.819 -0.04 -0.02    +0.046 C 
DOCKED: ATOM     30  C   UNL d   1      10.083 -14.094  -1.843 -0.25 -0.01    +0.046 C 
DOCKED: ATOM     31  H   UNL d   1      13.477  -9.127  -1.238 -0.10 -0.21    +0.166 HD
DOCKED: ATOM     32  H   UNL d   1      11.559  -9.735  -1.645 -0.11 -0.27    +0.166 HD
DOCKED: ENDROOT
DOCKED: BRANCH   7  33
DOCKED: ATOM     33  C   UNL d   1       8.371 -11.179   2.411 -0.42 -0.01    +0.141 C 
DOCKED: BRANCH  33  34
DOCKED: ATOM     34  C   UNL d   1       9.347 -11.482   3.515 -0.25 +0.01    +0.306 C 
DOCKED: ATOM     35  O   UNL d   1      10.403 -12.080   3.399 -0.15 -0.00    -0.251 OA
DOCKED: BRANCH  34  36
DOCKED: ATOM     36  O   UNL d   1       8.942 -11.013   4.709 -0.19 -0.06    -0.481 OA
DOCKED: ATOM     37  H   UNL d   1       9.087 -10.045   4.656 +0.13 +0.04    +0.295 HD
DOCKED: ENDBRANCH  34  36
DOCKED: ENDBRANCH  33  34
DOCKED: ENDBRANCH   7  33
DOCKED: BRANCH  27  38
DOCKED: ATOM     38  C   UNL d   1      12.417 -13.603  -3.892 -0.14 -0.00    +0.017 C 
DOCKED: ATOM     39  C   UNL d   1      11.708 -14.279  -4.809 -0.15 -0.02    +0.092 C 
DOCKED: BRANCH  39  40
DOCKED: ATOM     40  C   UNL d   1      12.374 -15.260  -5.670 -0.07 -0.05    +0.330 C 
DOCKED: ATOM     41  O   UNL d   1      11.981 -16.370  -5.974 -0.07 +0.03    -0.246 OA
DOCKED: BRANCH  40  42
DOCKED: ATOM     42  O   UNL d   1      13.536 -14.763  -6.122 -0.04 +0.06    -0.477 OA
DOCKED: ATOM     43  H   UNL d   1      13.374 -13.799  -6.176 +0.04 -0.03    +0.295 HD
DOCKED: ENDBRANCH  40  42
DOCKED: ENDBRANCH  39  40
DOCKED: ENDBRANCH  27  38
DOCKED: BRANCH   8  44
DOCKED: ATOM     44  C   UNL d   1      13.490  -5.370   3.190 -0.11 +0.02    +0.141 C 
DOCKED: BRANCH  44  45
DOCKED: ATOM     45  C   UNL d   1      12.868  -4.476   2.150 -0.17 -0.01    +0.306 C 
DOCKED: ATOM     46  O   UNL d   1      11.714  -4.510   1.759 -0.31 +0.04    -0.251 OA
DOCKED: BRANCH  45  47
DOCKED: ATOM     47  O   UNL d   1      13.747  -3.597   1.635 -0.04 +0.01    -0.481 OA
DOCKED: ATOM     48  H   UNL d   1      14.609  -4.064   1.660 +0.07 -0.01    +0.295 HD
DOCKED: ENDBRANCH  45  47
DOCKED: ENDBRANCH  44  45
DOCKED: ENDBRANCH   8  44
DOCKED: BRANCH  22  49
DOCKED: ATOM     49  C   UNL d   1      15.086  -8.993  -5.597 -0.08 -0.02    +0.048 C 
DOCKED: BRANCH  49  50
DOCKED: ATOM     50  C   UNL d   1      13.789  -9.223  -6.371 -0.17 -0.07    +0.125 C 
DOCKED: BRANCH  50  51
DOCKED: ATOM     51  C   UNL d   1      13.742 -10.614  -6.938 -0.06 -0.06    +0.305 C 
DOCKED: ATOM     52  O   UNL d   1      13.798 -11.667  -6.328 -0.66 +0.02    -0.251 OA
DOCKED: BRANCH  51  53
DOCKED: ATOM     53  O   UNL d   1      13.636 -10.608  -8.282 -0.10 +0.08    -0.481 OA
DOCKED: ATOM     54  H   UNL d   1      14.458 -10.167  -8.583 +0.06 -0.05    +0.295 HD
DOCKED: ENDBRANCH  51  53
DOCKED: ENDBRANCH  50  51
DOCKED: ENDBRANCH  49  50
DOCKED: ENDBRANCH  22  49
DOCKED: TORSDOF 13
DOCKED: TER
DOCKED: ENDMDL
________________________________________________________________________________


	BEGINNING GENETIC ALGORITHM DOCKING 76 of 100
Run: 76 Seed: 1897201431 1429912629 [ Run 76 of 100 GA/GALS ]
Beginning LAMARCKIAN GENETIC ALGORITHM (LGA), with a maximum of 25000000 energy evaluations.

Final-Value: -12.986


	FINAL GENETIC ALGORITHM DOCKED STATE
	_______________________________________________


Detailed state:  trans 9.518 16.911 11.286 quatxyzw 0.199134 -0.810506 0.284842 -0.471478 center 0.153 0.018 -0.028 ntor 13 142.1275 151.5537 -109.2690 55.1642 -136.1398 76.9358 171.2621 -44.3107 21.9118 23.4707 -94.6471 -86.8523 -10.1007
State:	  9.518  16.911  11.286   0.226 -0.919  0.323 -123.740    142.13  151.55 -109.27   55.16 -136.14   76.94  171.26  -44.31   21.91   23.47  -94.65  -86.85  -10.10

DOCKED: MODEL       76
DOCKED: USER    Run = 76
DOCKED: USER    DPF = D:/Protein_go_brrr/autodock/final/mut_N102T/heme/dock.dpf
DOCKED: USER  
DOCKED: USER    Estimated Free Energy of Binding    =   -4.90 kcal/mol  [=(1)+(2)+(3)-(4)]
DOCKED: USER    Estimated Inhibition Constant, Ki   =  257.06 uM (micromolar)  [Temperature = 298.15 K]
DOCKED: USER    
DOCKED: USER    (1) Final Intermolecular Energy     =   -8.78 kcal/mol
DOCKED: USER        vdW + Hbond + desolv Energy     =   -7.92 kcal/mol
DOCKED: USER        Electrostatic Energy            =   -0.85 kcal/mol
DOCKED: USER    (2) Final Total Internal Energy     =   -4.21 kcal/mol
DOCKED: USER    (3) Torsional Free Energy           =   +3.88 kcal/mol
DOCKED: USER    (4) Unbound System's Energy  [=(2)] =   -4.21 kcal/mol
DOCKED: USER    
DOCKED: USER    
DOCKED: USER    NEWDPF move heme_opt.pdbqt
DOCKED: USER    NEWDPF about 0.153000 0.018000 -0.028000
DOCKED: USER    NEWDPF tran0 9.517538 16.910564 11.285738
DOCKED: USER    NEWDPF quaternion0 0.199134 -0.810506 0.284842 -0.471478
DOCKED: USER    NEWDPF axisangle0 0.225807 -0.919068 0.322995 -123.739501
DOCKED: USER    NEWDPF quat0 0.225807 -0.919068 0.322995 -123.739501
DOCKED: USER    NEWDPF dihe0 142.13 151.55 -109.27 55.16 -136.14 76.94 171.26 -44.31 21.91 23.47 -94.65 -86.85 -10.10 
DOCKED: USER  keepresnum = 1 
DOCKED: USER  
DOCKED: REMARK  13 active torsions:
DOCKED: REMARK  status: ('A' for Active; 'I' for Inactive)
DOCKED: REMARK    1  A    between atoms: O_3  and  C_38 
DOCKED: REMARK    2  A    between atoms: O_4  and  C_40 
DOCKED: REMARK    3  A    between atoms: O_7  and  C_46 
DOCKED: REMARK    4  A    between atoms: O_9  and  C_48 
DOCKED: REMARK    5  A    between atoms: C_15  and  C_20 
DOCKED: REMARK    6  A    between atoms: C_16  and  C_23 
DOCKED: REMARK    7  A    between atoms: C_20  and  C_38 
DOCKED: REMARK    8  A    between atoms: C_23  and  C_40 
DOCKED: REMARK    9  A    between atoms: C_32  and  C_41 
DOCKED: REMARK   10  A    between atoms: C_37  and  C_45 
DOCKED: REMARK   11  A    between atoms: C_41  and  C_44 
DOCKED: REMARK   12  A    between atoms: C_44  and  C_46 
DOCKED: REMARK   13  A    between atoms: C_47  and  C_48 
DOCKED: USER                              x       y       z     vdW  Elec       q    Type
DOCKED: USER                           _______ _______ _______ _____ _____    ______ ____
DOCKED: ROOT
DOCKED: ATOM      1  O   UNL d   1      10.768  18.075   5.643 -0.04 -0.13    -0.289 OA
DOCKED: ATOM      2  O   UNL d   1      14.676  14.405  10.902 -0.09 -0.03    -0.289 OA
DOCKED: ATOM      3  N   UNL d   1       9.676  17.754   8.899 -0.07 -0.03    -0.247 NA
DOCKED: ATOM      4  N   UNL d   1      11.683  15.933  10.117 -0.07 -0.00    -0.247 NA
DOCKED: ATOM      5  N   UNL d   1       9.893  15.597  12.341 -0.11 +0.03    -0.354 N 
DOCKED: ATOM      6  N   UNL d   1       7.807  17.473  11.062 -0.16 +0.07    -0.354 N 
DOCKED: ATOM      7  C   UNL d   1       8.714  18.656   6.833 -0.09 +0.01    +0.084 A 
DOCKED: ATOM      8  C   UNL d   1      13.916  15.906   9.124 -0.07 +0.01    +0.084 A 
DOCKED: ATOM      9  C   UNL d   1      12.465  16.397   9.083 -0.12 +0.01    +0.058 A 
DOCKED: ATOM     10  C   UNL d   1       8.566  18.353   8.327 -0.14 +0.00    +0.058 A 
DOCKED: ATOM     11  C   UNL d   1      10.111  18.140   6.666 -0.07 +0.07    +0.193 A 
DOCKED: ATOM     12  C   UNL d   1      10.594  17.645   7.994 -0.11 +0.03    +0.109 A 
DOCKED: ATOM     13  C   UNL d   1      13.803  15.047  10.352 -0.11 +0.02    +0.193 A 
DOCKED: ATOM     14  C   UNL d   1       7.768  17.809   5.978 -0.23 +0.00    +0.026 C 
DOCKED: ATOM     15  C   UNL d   1      11.989  17.171   8.095 -0.12 +0.02    +0.055 C 
DOCKED: ATOM     16  C   UNL d   1      14.895  17.048   9.411 -0.02 +0.00    +0.026 C 
DOCKED: ATOM     17  C   UNL d   1      12.398  15.144  10.853 -0.17 +0.00    +0.109 A 
DOCKED: ATOM     18  C   UNL d   1       7.473  18.730   9.016 -0.24 -0.01    +0.050 C 
DOCKED: ATOM     19  C   UNL d   1       7.284  18.568  10.413 -0.20 -0.01    +0.045 A 
DOCKED: ATOM     20  C   UNL d   1      10.814  14.625  12.632 -0.22 +0.00    +0.045 A 
DOCKED: ATOM     21  C   UNL d   1      11.979  14.367  12.029 +0.04 +0.00    +0.057 C 
DOCKED: ATOM     22  C   UNL d   1       9.070  14.451  14.097 -0.28 +0.00    -0.019 A 
DOCKED: ATOM     23  C   UNL d   1       8.805  15.571  13.172 -0.26 -0.01    +0.045 A 
DOCKED: ATOM     24  C   UNL d   1      10.262  13.896  13.773 -0.26 +0.00    -0.022 A 
DOCKED: ATOM     25  C   UNL d   1       7.430  17.469  12.384 -0.23 -0.01    +0.049 A 
DOCKED: ATOM     26  C   UNL d   1       6.580  19.314  11.345 -0.21 +0.00    -0.018 A 
DOCKED: ATOM     27  C   UNL d   1       6.692  18.626  12.592 -0.22 -0.00    +0.003 A 
DOCKED: ATOM     28  C   UNL d   1       7.718  16.357  13.222 -0.28 -0.01    +0.052 C 
DOCKED: ATOM     29  C   UNL d   1      10.964  12.750  14.419 -0.25 +0.00    +0.046 C 
DOCKED: ATOM     30  C   UNL d   1       5.850  20.590  11.096 -0.11 -0.02    +0.046 C 
DOCKED: ATOM     31  H   UNL d   1      10.072  16.296  11.629 +0.05 -0.01    +0.166 HD
DOCKED: ATOM     32  H   UNL d   1       8.357  16.758  10.600 +0.06 -0.01    +0.166 HD
DOCKED: ENDROOT
DOCKED: BRANCH   7  33
DOCKED: ATOM     33  C   UNL d   1       8.639  20.139   6.453 -0.02 -0.01    +0.141 C 
DOCKED: BRANCH  33  34
DOCKED: ATOM     34  C   UNL d   1       9.836  20.919   6.925 +0.01 -0.01    +0.306 C 
DOCKED: ATOM     35  O   UNL d   1      10.007  21.369   8.045 -0.00 +0.01    -0.251 OA
DOCKED: BRANCH  34  36
DOCKED: ATOM     36  O   UNL d   1      10.757  21.088   5.959 +0.01 -0.00    -0.481 OA
DOCKED: ATOM     37  H   UNL d   1      10.784  20.227   5.490 +0.01 +0.02    +0.295 HD
DOCKED: ENDBRANCH  34  36
DOCKED: ENDBRANCH  33  34
DOCKED: ENDBRANCH   7  33
DOCKED: BRANCH  27  38
DOCKED: ATOM     38  C   UNL d   1       6.096  19.048  13.824 -0.20 -0.01    +0.017 C 
DOCKED: ATOM     39  C   UNL d   1       5.355  18.273  14.631 -0.16 -0.06    +0.092 C 
DOCKED: BRANCH  39  40
DOCKED: ATOM     40  C   UNL d   1       4.815  18.823  15.877 -0.10 -0.25    +0.330 C 
DOCKED: ATOM     41  O   UNL d   1       3.879  19.588  16.007 -0.11 +0.12    -0.246 OA
DOCKED: BRANCH  40  42
DOCKED: ATOM     42  O   UNL d   1       5.505  18.352  16.927 -0.01 +0.52    -0.477 OA
DOCKED: ATOM     43  H   UNL d   1       5.825  17.477  16.625 -0.46 -0.53    +0.295 HD
DOCKED: ENDBRANCH  40  42
DOCKED: ENDBRANCH  39  40
DOCKED: ENDBRANCH  27  38
DOCKED: BRANCH   8  44
DOCKED: ATOM     44  C   UNL d   1      14.368  15.079   7.915 -0.08 +0.04    +0.141 C 
DOCKED: BRANCH  44  45
DOCKED: ATOM     45  C   UNL d   1      13.234  14.370   7.224 -0.13 +0.25    +0.306 C 
DOCKED: ATOM     46  O   UNL d   1      12.963  14.419   6.037 -0.27 -0.40    -0.251 OA
DOCKED: BRANCH  45  47
DOCKED: ATOM     47  O   UNL d   1      12.480  13.651   8.075 -0.43 -0.28    -0.481 OA
DOCKED: ATOM     48  H   UNL d   1      12.007  14.321   8.613 -0.45 +0.07    +0.295 HD
DOCKED: ENDBRANCH  45  47
DOCKED: ENDBRANCH  44  45
DOCKED: ENDBRANCH   8  44
DOCKED: BRANCH  22  49
DOCKED: ATOM     49  C   UNL d   1       8.138  14.023  15.192 -0.37 -0.01    +0.048 C 
DOCKED: BRANCH  49  50
DOCKED: ATOM     50  C   UNL d   1       8.482  14.687  16.525 -0.16 -0.03    +0.125 C 
DOCKED: BRANCH  50  51
DOCKED: ATOM     51  C   UNL d   1       7.820  16.031  16.641 -0.04 -0.19    +0.305 C 
DOCKED: ATOM     52  O   UNL d   1       7.837  16.940  15.831 -0.10 +0.13    -0.251 OA
DOCKED: BRANCH  51  53
DOCKED: ATOM     53  O   UNL d   1       7.162  16.169  17.810 +0.01 +0.47    -0.481 OA
DOCKED: ATOM     54  H   UNL d   1       6.251  16.412  17.543 -0.47 -0.71    +0.295 HD
DOCKED: ENDBRANCH  51  53
DOCKED: ENDBRANCH  50  51
DOCKED: ENDBRANCH  49  50
DOCKED: ENDBRANCH  22  49
DOCKED: TORSDOF 13
DOCKED: TER
DOCKED: ENDMDL
________________________________________________________________________________


	BEGINNING GENETIC ALGORITHM DOCKING 77 of 100
Run: 77 Seed: 1219886634 760298675 [ Run 77 of 100 GA/GALS ]
Beginning LAMARCKIAN GENETIC ALGORITHM (LGA), with a maximum of 25000000 energy evaluations.

Final-Value: -12.386


	FINAL GENETIC ALGORITHM DOCKED STATE
	_______________________________________________


Detailed state:  trans -4.496 5.258 18.792 quatxyzw -0.055685 -0.933279 0.230844 0.269446 center 0.153 0.018 -0.028 ntor 13 158.6449 -168.9536 178.3818 -55.3501 70.8488 59.4618 -42.5386 -79.0602 152.5996 -87.6609 -100.4375 -58.3167 -11.2888
State:	 -4.496   5.258  18.792  -0.058 -0.969  0.240 148.737    158.64 -168.95  178.38  -55.35   70.85   59.46  -42.54  -79.06  152.60  -87.66 -100.44  -58.32  -11.29

DOCKED: MODEL       77
DOCKED: USER    Run = 77
DOCKED: USER    DPF = D:/Protein_go_brrr/autodock/final/mut_N102T/heme/dock.dpf
DOCKED: USER  
DOCKED: USER    Estimated Free Energy of Binding    =   -4.82 kcal/mol  [=(1)+(2)+(3)-(4)]
DOCKED: USER    Estimated Inhibition Constant, Ki   =  290.71 uM (micromolar)  [Temperature = 298.15 K]
DOCKED: USER    
DOCKED: USER    (1) Final Intermolecular Energy     =   -8.70 kcal/mol
DOCKED: USER        vdW + Hbond + desolv Energy     =   -8.16 kcal/mol
DOCKED: USER        Electrostatic Energy            =   -0.55 kcal/mol
DOCKED: USER    (2) Final Total Internal Energy     =   -3.68 kcal/mol
DOCKED: USER    (3) Torsional Free Energy           =   +3.88 kcal/mol
DOCKED: USER    (4) Unbound System's Energy  [=(2)] =   -3.68 kcal/mol
DOCKED: USER    
DOCKED: USER    
DOCKED: USER    NEWDPF move heme_opt.pdbqt
DOCKED: USER    NEWDPF about 0.153000 0.018000 -0.028000
DOCKED: USER    NEWDPF tran0 -4.496200 5.257550 18.791953
DOCKED: USER    NEWDPF quaternion0 -0.055685 -0.933279 0.230844 0.269446
DOCKED: USER    NEWDPF axisangle0 -0.057824 -0.969121 0.239710 148.737358
DOCKED: USER    NEWDPF quat0 -0.057824 -0.969121 0.239710 148.737358
DOCKED: USER    NEWDPF dihe0 158.64 -168.95 178.38 -55.35 70.85 59.46 -42.54 -79.06 152.60 -87.66 -100.44 -58.32 -11.29 
DOCKED: USER  keepresnum = 1 
DOCKED: USER  
DOCKED: REMARK  13 active torsions:
DOCKED: REMARK  status: ('A' for Active; 'I' for Inactive)
DOCKED: REMARK    1  A    between atoms: O_3  and  C_38 
DOCKED: REMARK    2  A    between atoms: O_4  and  C_40 
DOCKED: REMARK    3  A    between atoms: O_7  and  C_46 
DOCKED: REMARK    4  A    between atoms: O_9  and  C_48 
DOCKED: REMARK    5  A    between atoms: C_15  and  C_20 
DOCKED: REMARK    6  A    between atoms: C_16  and  C_23 
DOCKED: REMARK    7  A    between atoms: C_20  and  C_38 
DOCKED: REMARK    8  A    between atoms: C_23  and  C_40 
DOCKED: REMARK    9  A    between atoms: C_32  and  C_41 
DOCKED: REMARK   10  A    between atoms: C_37  and  C_45 
DOCKED: REMARK   11  A    between atoms: C_41  and  C_44 
DOCKED: REMARK   12  A    between atoms: C_44  and  C_46 
DOCKED: REMARK   13  A    between atoms: C_47  and  C_48 
DOCKED: USER                              x       y       z     vdW  Elec       q    Type
DOCKED: USER                           _______ _______ _______ _____ _____    ______ ____
DOCKED: ROOT
DOCKED: ATOM      1  O   UNL d   1       0.960   6.572  20.596 -0.12 +0.10    -0.289 OA
DOCKED: ATOM      2  O   UNL d   1      -4.102   1.740  23.321 -0.02 +0.10    -0.289 OA
DOCKED: ATOM      3  N   UNL d   1      -2.205   6.235  19.268 -0.08 +0.07    -0.247 NA
DOCKED: ATOM      4  N   UNL d   1      -3.335   3.934  20.769 -0.09 +0.12    -0.247 NA
DOCKED: ATOM      5  N   UNL d   1      -5.443   3.814  18.818 -0.07 +0.01    -0.354 N 
DOCKED: ATOM      6  N   UNL d   1      -4.253   6.190  17.255 -0.17 +0.05    -0.354 N 
DOCKED: ATOM      7  C   UNL d   1      -0.191   7.485  18.642 -0.20 -0.02    +0.084 A 
DOCKED: ATOM      8  C   UNL d   1      -2.437   3.506  23.002 -0.07 -0.06    +0.084 A 
DOCKED: ATOM      9  C   UNL d   1      -2.380   4.300  21.692 -0.10 -0.04    +0.058 A 
DOCKED: ATOM     10  C   UNL d   1      -1.644   7.102  18.345 -0.22 -0.01    +0.058 A 
DOCKED: ATOM     11  C   UNL d   1      -0.036   6.696  19.908 -0.11 -0.06    +0.193 A 
DOCKED: ATOM     12  C   UNL d   1      -1.333   6.003  20.194 -0.13 -0.04    +0.109 A 
DOCKED: ATOM     13  C   UNL d   1      -3.576   2.597  22.637 -0.04 -0.10    +0.193 A 
DOCKED: ATOM     14  C   UNL d   1       0.776   6.932  17.592 -0.53 -0.01    +0.026 C 
DOCKED: ATOM     15  C   UNL d   1      -1.448   5.234  21.449 -0.13 -0.03    +0.055 C 
DOCKED: ATOM     16  C   UNL d   1      -2.867   4.385  24.180 -0.02 -0.01    +0.026 C 
DOCKED: ATOM     17  C   UNL d   1      -4.025   2.953  21.257 -0.09 -0.05    +0.109 A 
DOCKED: ATOM     18  C   UNL d   1      -2.318   7.649  17.316 -0.24 -0.01    +0.050 C 
DOCKED: ATOM     19  C   UNL d   1      -3.685   7.421  17.015 -0.30 -0.01    +0.045 A 
DOCKED: ATOM     20  C   UNL d   1      -5.682   2.646  19.495 -0.12 +0.00    +0.045 A 
DOCKED: ATOM     21  C   UNL d   1      -5.107   2.194  20.613 -0.11 -0.01    +0.057 C 
DOCKED: ATOM     22  C   UNL d   1      -7.052   2.735  17.669 -0.25 -0.01    -0.019 A 
DOCKED: ATOM     23  C   UNL d   1      -6.222   3.957  17.701 -0.26 +0.00    +0.045 A 
DOCKED: ATOM     24  C   UNL d   1      -6.728   1.965  18.734 -0.16 -0.01    -0.022 A 
DOCKED: ATOM     25  C   UNL d   1      -5.553   6.162  16.807 -0.32 -0.00    +0.049 A 
DOCKED: ATOM     26  C   UNL d   1      -4.651   8.224  16.429 -0.31 +0.00    -0.018 A 
DOCKED: ATOM     27  C   UNL d   1      -5.834   7.430  16.318 -0.28 -0.00    +0.003 A 
DOCKED: ATOM     28  C   UNL d   1      -6.297   4.951  16.803 -0.32 +0.00    +0.052 C 
DOCKED: ATOM     29  C   UNL d   1      -7.296   0.647  19.139 -0.14 +0.02    +0.046 C 
DOCKED: ATOM     30  C   UNL d   1      -4.488   9.643  15.999 -0.30 -0.01    +0.046 C 
DOCKED: ATOM     31  H   UNL d   1      -4.805   4.513  19.184 +0.05 -0.02    +0.166 HD
DOCKED: ATOM     32  H   UNL d   1      -3.752   5.413  17.669 +0.07 -0.02    +0.166 HD
DOCKED: ENDROOT
DOCKED: BRANCH   7  33
DOCKED: ATOM     33  C   UNL d   1       0.055   8.974  18.904 -0.18 -0.04    +0.141 C 
DOCKED: BRANCH  33  34
DOCKED: ATOM     34  C   UNL d   1       1.495   9.367  18.708 -0.22 -0.10    +0.306 C 
DOCKED: ATOM     35  O   UNL d   1       1.908  10.249  17.975 -0.70 +0.06    -0.251 OA
DOCKED: BRANCH  34  36
DOCKED: ATOM     36  O   UNL d   1       2.339   8.627  19.450 -0.07 +0.17    -0.481 OA
DOCKED: ATOM     37  H   UNL d   1       1.792   8.301  20.196 +0.13 -0.08    +0.295 HD
DOCKED: ENDBRANCH  34  36
DOCKED: ENDBRANCH  33  34
DOCKED: ENDBRANCH   7  33
DOCKED: BRANCH  27  38
DOCKED: ATOM     38  C   UNL d   1      -7.073   7.871  15.751 -0.29 -0.00    +0.017 C 
DOCKED: ATOM     39  C   UNL d   1      -8.033   7.067  15.269 -0.18 +0.00    +0.092 C 
DOCKED: BRANCH  39  40
DOCKED: ATOM     40  C   UNL d   1      -9.267   7.645  14.729 -0.18 +0.02    +0.330 C 
DOCKED: ATOM     41  O   UNL d   1      -9.377   8.451  13.825 -0.23 -0.02    -0.246 OA
DOCKED: BRANCH  40  42
DOCKED: ATOM     42  O   UNL d   1     -10.331   7.149  15.378 -0.03 -0.02    -0.477 OA
DOCKED: ATOM     43  H   UNL d   1      -9.942   6.679  16.144 +0.06 +0.01    +0.295 HD
DOCKED: ENDBRANCH  40  42
DOCKED: ENDBRANCH  39  40
DOCKED: ENDBRANCH  27  38
DOCKED: BRANCH   8  44
DOCKED: ATOM     44  C   UNL d   1      -1.178   2.701  23.341 +0.09 -0.17    +0.141 C 
DOCKED: BRANCH  44  45
DOCKED: ATOM     45  C   UNL d   1      -1.478   1.322  23.865 -0.05 -0.28    +0.306 C 
DOCKED: ATOM     46  O   UNL d   1      -1.700   1.018  25.025 -0.02 +0.12    -0.251 OA
DOCKED: BRANCH  45  47
DOCKED: ATOM     47  O   UNL d   1      -1.456   0.388  22.898 -0.05 +0.60    -0.481 OA
DOCKED: ATOM     48  H   UNL d   1      -1.281   0.889  22.073 -0.51 -0.79    +0.295 HD
DOCKED: ENDBRANCH  45  47
DOCKED: ENDBRANCH  44  45
DOCKED: ENDBRANCH   8  44
DOCKED: BRANCH  22  49
DOCKED: ATOM     49  C   UNL d   1      -8.063   2.432  16.603 -0.33 +0.02    +0.048 C 
DOCKED: BRANCH  49  50
DOCKED: ATOM     50  C   UNL d   1      -9.469   2.872  17.011 -0.14 +0.03    +0.125 C 
DOCKED: BRANCH  50  51
DOCKED: ATOM     51  C   UNL d   1      -9.655   4.346  16.791 -0.07 +0.04    +0.305 C 
DOCKED: ATOM     52  O   UNL d   1      -9.359   5.253  17.550 -0.05 -0.01    -0.251 OA
DOCKED: BRANCH  51  53
DOCKED: ATOM     53  O   UNL d   1     -10.230   4.611  15.601 -0.04 -0.06    -0.481 OA
DOCKED: ATOM     54  H   UNL d   1     -11.021   5.141  15.832 +0.06 +0.02    +0.295 HD
DOCKED: ENDBRANCH  51  53
DOCKED: ENDBRANCH  50  51
DOCKED: ENDBRANCH  49  50
DOCKED: ENDBRANCH  22  49
DOCKED: TORSDOF 13
DOCKED: TER
DOCKED: ENDMDL
________________________________________________________________________________


	BEGINNING GENETIC ALGORITHM DOCKING 78 of 100
Run: 78 Seed: 744344169 100178520 [ Run 78 of 100 GA/GALS ]
Beginning LAMARCKIAN GENETIC ALGORITHM (LGA), with a maximum of 25000000 energy evaluations.

Final-Value: -12.304


	FINAL GENETIC ALGORITHM DOCKED STATE
	_______________________________________________


Detailed state:  trans -10.535 4.586 13.453 quatxyzw -0.548316 -0.135818 0.754673 -0.333723 center 0.153 0.018 -0.028 ntor 13 -78.9004 147.5098 -169.9339 31.7400 -78.0501 6.7943 138.7412 84.5054 13.9677 -12.3209 -79.6174 -24.0894 -16.9147
State:	-10.535   4.586  13.453  -0.582 -0.144  0.801 -141.010    -78.90  147.51 -169.93   31.74  -78.05    6.79  138.74   84.51   13.97  -12.32  -79.62  -24.09  -16.91

DOCKED: MODEL       78
DOCKED: USER    Run = 78
DOCKED: USER    DPF = D:/Protein_go_brrr/autodock/final/mut_N102T/heme/dock.dpf
DOCKED: USER  
DOCKED: USER    Estimated Free Energy of Binding    =   -4.39 kcal/mol  [=(1)+(2)+(3)-(4)]
DOCKED: USER    Estimated Inhibition Constant, Ki   =  602.90 uM (micromolar)  [Temperature = 298.15 K]
DOCKED: USER    
DOCKED: USER    (1) Final Intermolecular Energy     =   -8.27 kcal/mol
DOCKED: USER        vdW + Hbond + desolv Energy     =   -7.76 kcal/mol
DOCKED: USER        Electrostatic Energy            =   -0.52 kcal/mol
DOCKED: USER    (2) Final Total Internal Energy     =   -4.03 kcal/mol
DOCKED: USER    (3) Torsional Free Energy           =   +3.88 kcal/mol
DOCKED: USER    (4) Unbound System's Energy  [=(2)] =   -4.03 kcal/mol
DOCKED: USER    
DOCKED: USER    
DOCKED: USER    NEWDPF move heme_opt.pdbqt
DOCKED: USER    NEWDPF about 0.153000 0.018000 -0.028000
DOCKED: USER    NEWDPF tran0 -10.535158 4.585659 13.453358
DOCKED: USER    NEWDPF quaternion0 -0.548316 -0.135818 0.754673 -0.333723
DOCKED: USER    NEWDPF axisangle0 -0.581662 -0.144078 0.800569 -141.010143
DOCKED: USER    NEWDPF quat0 -0.581662 -0.144078 0.800569 -141.010143
DOCKED: USER    NEWDPF dihe0 -78.90 147.51 -169.93 31.74 -78.05 6.79 138.74 84.51 13.97 -12.32 -79.62 -24.09 -16.91 
DOCKED: USER  keepresnum = 1 
DOCKED: USER  
DOCKED: REMARK  13 active torsions:
DOCKED: REMARK  status: ('A' for Active; 'I' for Inactive)
DOCKED: REMARK    1  A    between atoms: O_3  and  C_38 
DOCKED: REMARK    2  A    between atoms: O_4  and  C_40 
DOCKED: REMARK    3  A    between atoms: O_7  and  C_46 
DOCKED: REMARK    4  A    between atoms: O_9  and  C_48 
DOCKED: REMARK    5  A    between atoms: C_15  and  C_20 
DOCKED: REMARK    6  A    between atoms: C_16  and  C_23 
DOCKED: REMARK    7  A    between atoms: C_20  and  C_38 
DOCKED: REMARK    8  A    between atoms: C_23  and  C_40 
DOCKED: REMARK    9  A    between atoms: C_32  and  C_41 
DOCKED: REMARK   10  A    between atoms: C_37  and  C_45 
DOCKED: REMARK   11  A    between atoms: C_41  and  C_44 
DOCKED: REMARK   12  A    between atoms: C_44  and  C_46 
DOCKED: REMARK   13  A    between atoms: C_47  and  C_48 
DOCKED: USER                              x       y       z     vdW  Elec       q    Type
DOCKED: USER                           _______ _______ _______ _____ _____    ______ ____
DOCKED: ROOT
DOCKED: ATOM      1  O   UNL d   1     -10.742  -0.223  16.858 -0.17 -0.12    -0.289 OA
DOCKED: ATOM      2  O   UNL d   1      -6.899   6.185  17.607 -0.08 +0.01    -0.289 OA
DOCKED: ATOM      3  N   UNL d   1     -10.834   2.297  14.505 -0.13 -0.04    -0.247 NA
DOCKED: ATOM      4  N   UNL d   1      -9.289   4.487  15.788 +0.07 -0.05    -0.247 NA
DOCKED: ATOM      5  N   UNL d   1     -10.323   6.267  13.780 -0.13 -0.04    -0.354 N 
DOCKED: ATOM      6  N   UNL d   1     -11.938   3.994  12.467 -0.09 -0.00    -0.354 N 
DOCKED: ATOM      7  C   UNL d   1     -12.016   0.171  14.810 -0.06 +0.01    +0.084 A 
DOCKED: ATOM      8  C   UNL d   1      -7.611   3.849  17.445 -0.19 +0.01    +0.084 A 
DOCKED: ATOM      9  C   UNL d   1      -8.750   3.442  16.505 -0.17 +0.01    +0.058 A 
DOCKED: ATOM     10  C   UNL d   1     -11.796   1.445  13.988 -0.13 +0.00    +0.058 A 
DOCKED: ATOM     11  C   UNL d   1     -10.995   0.446  15.873 -0.07 +0.06    +0.193 A 
DOCKED: ATOM     12  C   UNL d   1     -10.329   1.750  15.562 -0.17 +0.03    +0.109 A 
DOCKED: ATOM     13  C   UNL d   1      -7.628   5.323  17.156 -0.13 +0.01    +0.193 A 
DOCKED: ATOM     14  C   UNL d   1     -13.404   0.136  15.454 -0.01 +0.00    +0.026 C 
DOCKED: ATOM     15  C   UNL d   1      -9.214   2.185  16.428 -0.25 +0.02    +0.055 C 
DOCKED: ATOM     16  C   UNL d   1      -6.266   3.274  16.989 -0.32 +0.01    +0.026 C 
DOCKED: ATOM     17  C   UNL d   1      -8.695   5.581  16.142 -0.11 +0.01    +0.109 A 
DOCKED: ATOM     18  C   UNL d   1     -12.434   1.647  12.820 -0.14 -0.00    +0.050 C 
DOCKED: ATOM     19  C   UNL d   1     -12.232   2.751  11.953 -0.18 -0.00    +0.045 A 
DOCKED: ATOM     20  C   UNL d   1      -9.741   7.177  14.625 -0.23 +0.00    +0.045 A 
DOCKED: ATOM     21  C   UNL d   1      -8.973   6.954  15.696 -0.23 +0.00    +0.057 C 
DOCKED: ATOM     22  C   UNL d   1     -10.908   8.304  13.017 -0.17 -0.00    -0.019 A 
DOCKED: ATOM     23  C   UNL d   1     -11.048   6.853  12.778 -0.21 +0.00    +0.045 A 
DOCKED: ATOM     24  C   UNL d   1     -10.132   8.489  14.111 -0.19 -0.00    -0.022 A 
DOCKED: ATOM     25  C   UNL d   1     -11.874   4.930  11.462 -0.05 -0.00    +0.049 A 
DOCKED: ATOM     26  C   UNL d   1     -12.325   2.876  10.575 -0.20 +0.00    -0.018 A 
DOCKED: ATOM     27  C   UNL d   1     -12.078   4.250  10.269 -0.18 -0.00    +0.003 A 
DOCKED: ATOM     28  C   UNL d   1     -11.738   6.313  11.761 -0.20 +0.00    +0.052 C 
DOCKED: ATOM     29  C   UNL d   1      -9.696   9.768  14.739 -0.13 -0.00    +0.046 C 
DOCKED: ATOM     30  C   UNL d   1     -12.622   1.787   9.601 -0.19 -0.01    +0.046 C 
DOCKED: ATOM     31  H   UNL d   1     -10.143   5.273  13.874 +0.07 +0.03    +0.166 HD
DOCKED: ATOM     32  H   UNL d   1     -11.829   4.179  13.457 +0.04 +0.01    +0.166 HD
DOCKED: ENDROOT
DOCKED: BRANCH   7  33
DOCKED: ATOM     33  C   UNL d   1     -11.699  -1.141  14.085 -0.10 +0.01    +0.141 C 
DOCKED: BRANCH  33  34
DOCKED: ATOM     34  C   UNL d   1     -10.256  -1.239  13.670 -0.14 +0.08    +0.306 C 
DOCKED: ATOM     35  O   UNL d   1      -9.495  -0.305  13.481 -0.30 -0.12    -0.251 OA
DOCKED: BRANCH  34  36
DOCKED: ATOM     36  O   UNL d   1      -9.845  -2.511  13.518 -0.57 +0.01    -0.481 OA
DOCKED: ATOM     37  H   UNL d   1      -9.899  -2.673  12.552 -0.43 -0.41    +0.295 HD
DOCKED: ENDBRANCH  34  36
DOCKED: ENDBRANCH  33  34
DOCKED: ENDBRANCH   7  33
DOCKED: BRANCH  27  38
DOCKED: ATOM     38  C   UNL d   1     -12.094   4.818   8.955 -0.26 -0.00    +0.017 C 
DOCKED: ATOM     39  C   UNL d   1     -11.635   6.038   8.633 -0.28 -0.00    +0.092 C 
DOCKED: BRANCH  39  40
DOCKED: ATOM     40  C   UNL d   1     -11.693   6.496   7.243 -0.08 -0.01    +0.330 C 
DOCKED: ATOM     41  O   UNL d   1     -12.194   5.926   6.292 -0.13 +0.00    -0.246 OA
DOCKED: BRANCH  40  42
DOCKED: ATOM     42  O   UNL d   1     -11.101   7.695   7.127 -0.13 +0.06    -0.477 OA
DOCKED: ATOM     43  H   UNL d   1     -11.282   8.130   7.985 +0.10 -0.04    +0.295 HD
DOCKED: ENDBRANCH  40  42
DOCKED: ENDBRANCH  39  40
DOCKED: ENDBRANCH  27  38
DOCKED: BRANCH   8  44
DOCKED: ATOM     44  C   UNL d   1      -7.854   3.578  18.933 -0.06 +0.01    +0.141 C 
DOCKED: BRANCH  44  45
DOCKED: ATOM     45  C   UNL d   1      -9.028   4.336  19.491 -0.00 +0.01    +0.306 C 
DOCKED: ATOM     46  O   UNL d   1     -10.172   3.928  19.600 -0.00 -0.01    -0.251 OA
DOCKED: BRANCH  45  47
DOCKED: ATOM     47  O   UNL d   1      -8.704   5.588  19.860 +0.01 +0.01    -0.481 OA
DOCKED: ATOM     48  H   UNL d   1      -7.794   5.720  19.520 +0.03 -0.01    +0.295 HD
DOCKED: ENDBRANCH  45  47
DOCKED: ENDBRANCH  44  45
DOCKED: ENDBRANCH   8  44
DOCKED: BRANCH  22  49
DOCKED: ATOM     49  C   UNL d   1     -11.551   9.363  12.171 -0.11 -0.00    +0.048 C 
DOCKED: BRANCH  49  50
DOCKED: ATOM     50  C   UNL d   1     -10.565   9.972  11.175 -0.15 -0.00    +0.125 C 
DOCKED: BRANCH  50  51
DOCKED: ATOM     51  C   UNL d   1     -10.764   9.397   9.802 -0.15 -0.03    +0.305 C 
DOCKED: ATOM     52  O   UNL d   1     -11.629   9.684   8.994 -0.09 +0.03    -0.251 OA
DOCKED: BRANCH  51  53
DOCKED: ATOM     53  O   UNL d   1      -9.845   8.454   9.512 -0.13 +0.06    -0.481 OA
DOCKED: ATOM     54  H   UNL d   1      -9.725   8.528   8.542 -0.43 -0.13    +0.295 HD
DOCKED: ENDBRANCH  51  53
DOCKED: ENDBRANCH  50  51
DOCKED: ENDBRANCH  49  50
DOCKED: ENDBRANCH  22  49
DOCKED: TORSDOF 13
DOCKED: TER
DOCKED: ENDMDL
________________________________________________________________________________


	BEGINNING GENETIC ALGORITHM DOCKING 79 of 100
Run: 79 Seed: 392966647 1426321970 [ Run 79 of 100 GA/GALS ]
Beginning LAMARCKIAN GENETIC ALGORITHM (LGA), with a maximum of 25000000 energy evaluations.

Final-Value: -11.389


	FINAL GENETIC ALGORITHM DOCKED STATE
	_______________________________________________


Detailed state:  trans 9.516 16.347 11.431 quatxyzw -0.415953 0.425152 0.232526 -0.769519 center 0.153 0.018 -0.028 ntor 13 148.5357 -60.6392 -93.4255 92.6231 69.4952 132.3687 179.6271 -59.2961 144.4668 -116.5157 126.2051 -52.9370 18.5503
State:	  9.516  16.347  11.431  -0.651  0.666  0.364 -79.379    148.54  -60.64  -93.43   92.62   69.50  132.37  179.63  -59.30  144.47 -116.52  126.21  -52.94   18.55

DOCKED: MODEL       79
DOCKED: USER    Run = 79
DOCKED: USER    DPF = D:/Protein_go_brrr/autodock/final/mut_N102T/heme/dock.dpf
DOCKED: USER  
DOCKED: USER    Estimated Free Energy of Binding    =   -5.39 kcal/mol  [=(1)+(2)+(3)-(4)]
DOCKED: USER    Estimated Inhibition Constant, Ki   =  111.70 uM (micromolar)  [Temperature = 298.15 K]
DOCKED: USER    
DOCKED: USER    (1) Final Intermolecular Energy     =   -9.27 kcal/mol
DOCKED: USER        vdW + Hbond + desolv Energy     =   -8.58 kcal/mol
DOCKED: USER        Electrostatic Energy            =   -0.69 kcal/mol
DOCKED: USER    (2) Final Total Internal Energy     =   -2.12 kcal/mol
DOCKED: USER    (3) Torsional Free Energy           =   +3.88 kcal/mol
DOCKED: USER    (4) Unbound System's Energy  [=(2)] =   -2.12 kcal/mol
DOCKED: USER    
DOCKED: USER    
DOCKED: USER    NEWDPF move heme_opt.pdbqt
DOCKED: USER    NEWDPF about 0.153000 0.018000 -0.028000
DOCKED: USER    NEWDPF tran0 9.515609 16.346994 11.430757
DOCKED: USER    NEWDPF quaternion0 -0.415953 0.425152 0.232526 -0.769519
DOCKED: USER    NEWDPF axisangle0 -0.651328 0.665732 0.364105 -79.378530
DOCKED: USER    NEWDPF quat0 -0.651328 0.665732 0.364105 -79.378530
DOCKED: USER    NEWDPF dihe0 148.54 -60.64 -93.43 92.62 69.50 132.37 179.63 -59.30 144.47 -116.52 126.21 -52.94 18.55 
DOCKED: USER  keepresnum = 1 
DOCKED: USER  
DOCKED: REMARK  13 active torsions:
DOCKED: REMARK  status: ('A' for Active; 'I' for Inactive)
DOCKED: REMARK    1  A    between atoms: O_3  and  C_38 
DOCKED: REMARK    2  A    between atoms: O_4  and  C_40 
DOCKED: REMARK    3  A    between atoms: O_7  and  C_46 
DOCKED: REMARK    4  A    between atoms: O_9  and  C_48 
DOCKED: REMARK    5  A    between atoms: C_15  and  C_20 
DOCKED: REMARK    6  A    between atoms: C_16  and  C_23 
DOCKED: REMARK    7  A    between atoms: C_20  and  C_38 
DOCKED: REMARK    8  A    between atoms: C_23  and  C_40 
DOCKED: REMARK    9  A    between atoms: C_32  and  C_41 
DOCKED: REMARK   10  A    between atoms: C_37  and  C_45 
DOCKED: REMARK   11  A    between atoms: C_41  and  C_44 
DOCKED: REMARK   12  A    between atoms: C_44  and  C_46 
DOCKED: REMARK   13  A    between atoms: C_47  and  C_48 
DOCKED: USER                              x       y       z     vdW  Elec       q    Type
DOCKED: USER                           _______ _______ _______ _____ _____    ______ ____
DOCKED: ROOT
DOCKED: ATOM      1  O   UNL d   1       5.637  17.788  15.630 -0.08 +0.32    -0.289 OA
DOCKED: ATOM      2  O   UNL d   1      10.827  12.368  15.366 -0.11 -0.02    -0.289 OA
DOCKED: ATOM      3  N   UNL d   1       7.619  17.233  12.862 -0.15 +0.06    -0.247 NA
DOCKED: ATOM      4  N   UNL d   1       9.519  15.146  13.791 -0.09 +0.03    -0.247 NA
DOCKED: ATOM      5  N   UNL d   1      11.112  15.690  11.460 -0.10 +0.01    -0.354 N 
DOCKED: ATOM      6  N   UNL d   1       9.146  17.868  10.514 -0.06 +0.02    -0.354 N 
DOCKED: ATOM      7  C   UNL d   1       5.973  18.935  13.497 -0.18 -0.03    +0.084 A 
DOCKED: ATOM      8  C   UNL d   1       8.773  13.679  15.597 -0.25 -0.01    +0.084 A 
DOCKED: ATOM      9  C   UNL d   1       8.517  14.896  14.702 -0.23 -0.01    +0.058 A 
DOCKED: ATOM     10  C   UNL d   1       6.972  18.393  12.470 -0.20 -0.02    +0.058 A 
DOCKED: ATOM     11  C   UNL d   1       6.157  17.865  14.532 -0.09 -0.11    +0.193 A 
DOCKED: ATOM     12  C   UNL d   1       7.160  16.879  14.018 -0.17 -0.04    +0.109 A 
DOCKED: ATOM     13  C   UNL d   1      10.121  13.306  15.049 -0.14 -0.00    +0.193 A 
DOCKED: ATOM     14  C   UNL d   1       6.423  20.275  14.085 -0.07 -0.01    +0.026 C 
DOCKED: ATOM     15  C   UNL d   1       7.435  15.679  14.834 -0.29 -0.03    +0.055 C 
DOCKED: ATOM     16  C   UNL d   1       7.790  12.541  15.302 -0.30 -0.01    +0.026 C 
DOCKED: ATOM     17  C   UNL d   1      10.462  14.277  13.966 -0.16 -0.00    +0.109 A 
DOCKED: ATOM     18  C   UNL d   1       7.118  18.967  11.261 -0.23 -0.01    +0.050 C 
DOCKED: ATOM     19  C   UNL d   1       7.953  18.489  10.219 -0.20 -0.01    +0.045 A 
DOCKED: ATOM     20  C   UNL d   1      11.974  14.878  12.150 -0.17 +0.00    +0.045 A 
DOCKED: ATOM     21  C   UNL d   1      11.755  14.184  13.271 -0.12 +0.00    +0.057 C 
DOCKED: ATOM     22  C   UNL d   1      13.056  15.721  10.323 -0.14 -0.00    -0.019 A 
DOCKED: ATOM     23  C   UNL d   1      11.676  16.245  10.342 -0.13 +0.00    +0.045 A 
DOCKED: ATOM     24  C   UNL d   1      13.226  14.911  11.395 -0.16 -0.00    -0.022 A 
DOCKED: ATOM     25  C   UNL d   1       9.832  17.568   9.361 -0.10 +0.01    +0.049 A 
DOCKED: ATOM     26  C   UNL d   1       7.845  18.561   8.839 -0.20 +0.00    -0.018 A 
DOCKED: ATOM     27  C   UNL d   1       9.025  17.961   8.302 -0.07 +0.00    +0.003 A 
DOCKED: ATOM     28  C   UNL d   1      11.161  17.065   9.413 -0.14 +0.01    +0.052 C 
DOCKED: ATOM     29  C   UNL d   1      14.437  14.142  11.801 -0.13 +0.01    +0.046 C 
DOCKED: ATOM     30  C   UNL d   1       6.714  19.149   8.064 -0.25 -0.01    +0.046 C 
DOCKED: ATOM     31  H   UNL d   1      10.140  15.781  11.736 +0.06 -0.01    +0.166 HD
DOCKED: ATOM     32  H   UNL d   1       9.473  17.702  11.459 +0.05 -0.01    +0.166 HD
DOCKED: ENDROOT
DOCKED: BRANCH   7  33
DOCKED: ATOM     33  C   UNL d   1       4.514  18.987  13.031 -0.14 -0.05    +0.141 C 
DOCKED: BRANCH  33  34
DOCKED: ATOM     34  C   UNL d   1       3.638  19.787  13.957 -0.00 -0.07    +0.306 C 
DOCKED: ATOM     35  O   UNL d   1       2.951  20.746  13.649 -0.58 +0.06    -0.251 OA
DOCKED: BRANCH  34  36
DOCKED: ATOM     36  O   UNL d   1       3.673  19.335  15.223 -0.11 +0.21    -0.481 OA
DOCKED: ATOM     37  H   UNL d   1       3.777  18.363  15.135 +0.09 -0.22    +0.295 HD
DOCKED: ENDBRANCH  34  36
DOCKED: ENDBRANCH  33  34
DOCKED: ENDBRANCH   7  33
DOCKED: BRANCH  27  38
DOCKED: ATOM     38  C   UNL d   1       9.328  17.839   6.908 -0.17 +0.01    +0.017 C 
DOCKED: ATOM     39  C   UNL d   1      10.540  17.568   6.399 -0.13 +0.05    +0.092 C 
DOCKED: BRANCH  39  40
DOCKED: ATOM     40  C   UNL d   1      10.714  17.452   4.949 -0.05 +0.25    +0.330 C 
DOCKED: ATOM     41  O   UNL d   1      11.552  17.995   4.255 -0.02 -0.10    -0.246 OA
DOCKED: BRANCH  40  42
DOCKED: ATOM     42  O   UNL d   1       9.792  16.621   4.438 -0.38 -0.68    -0.477 OA
DOCKED: ATOM     43  H   UNL d   1       9.292  17.182   3.811 +0.05 +0.18    +0.295 HD
DOCKED: ENDBRANCH  40  42
DOCKED: ENDBRANCH  39  40
DOCKED: ENDBRANCH  27  38
DOCKED: BRANCH   8  44
DOCKED: ATOM     44  C   UNL d   1       8.851  13.968  17.099 -0.14 -0.02    +0.141 C 
DOCKED: BRANCH  44  45
DOCKED: ATOM     45  C   UNL d   1       9.423  12.825  17.895 -0.10 +0.02    +0.306 C 
DOCKED: ATOM     46  O   UNL d   1      10.254  12.902  18.783 -0.05 -0.01    -0.251 OA
DOCKED: BRANCH  45  47
DOCKED: ATOM     47  O   UNL d   1       8.933  11.633  17.509 -0.66 -0.14    -0.481 OA
DOCKED: ATOM     48  H   UNL d   1       9.507  11.360  16.761 +0.11 +0.04    +0.295 HD
DOCKED: ENDBRANCH  45  47
DOCKED: ENDBRANCH  44  45
DOCKED: ENDBRANCH   8  44
DOCKED: BRANCH  22  49
DOCKED: ATOM     49  C   UNL d   1      14.075  16.068   9.278 -0.07 +0.01    +0.048 C 
DOCKED: BRANCH  49  50
DOCKED: ATOM     50  C   UNL d   1      13.670  15.554   7.896 -0.11 +0.05    +0.125 C 
DOCKED: BRANCH  50  51
DOCKED: ATOM     51  C   UNL d   1      13.355  14.086   7.941 -0.19 +0.15    +0.305 C 
DOCKED: ATOM     52  O   UNL d   1      14.121  13.169   8.178 -0.18 -0.09    -0.251 OA
DOCKED: BRANCH  51  53
DOCKED: ATOM     53  O   UNL d   1      12.059  13.840   7.666 -0.69 -0.50    -0.481 OA
DOCKED: ATOM     54  H   UNL d   1      11.614  13.905   8.537 -0.40 +0.02    +0.295 HD
DOCKED: ENDBRANCH  51  53
DOCKED: ENDBRANCH  50  51
DOCKED: ENDBRANCH  49  50
DOCKED: ENDBRANCH  22  49
DOCKED: TORSDOF 13
DOCKED: TER
DOCKED: ENDMDL
________________________________________________________________________________


	BEGINNING GENETIC ALGORITHM DOCKING 80 of 100
Run: 80 Seed: 935627322 2088947099 [ Run 80 of 100 GA/GALS ]
Beginning LAMARCKIAN GENETIC ALGORITHM (LGA), with a maximum of 25000000 energy evaluations.

Final-Value: -11.153


	FINAL GENETIC ALGORITHM DOCKED STATE
	_______________________________________________


Detailed state:  trans -8.755 -15.188 10.414 quatxyzw -0.196708 0.047251 0.731019 0.651678 center 0.153 0.018 -0.028 ntor 13 -85.3236 -155.1796 -122.7962 -108.3661 -129.8561 42.1954 122.6712 -93.8546 171.2668 -25.5729 -149.1746 -50.3861 151.6407
State:	 -8.755 -15.188  10.414  -0.259  0.062  0.964 98.664    -85.32 -155.18 -122.80 -108.37 -129.86   42.20  122.67  -93.85  171.27  -25.57 -149.17  -50.39  151.64

DOCKED: MODEL       80
DOCKED: USER    Run = 80
DOCKED: USER    DPF = D:/Protein_go_brrr/autodock/final/mut_N102T/heme/dock.dpf
DOCKED: USER  
DOCKED: USER    Estimated Free Energy of Binding    =   -5.32 kcal/mol  [=(1)+(2)+(3)-(4)]
DOCKED: USER    Estimated Inhibition Constant, Ki   =  127.01 uM (micromolar)  [Temperature = 298.15 K]
DOCKED: USER    
DOCKED: USER    (1) Final Intermolecular Energy     =   -9.19 kcal/mol
DOCKED: USER        vdW + Hbond + desolv Energy     =   -8.61 kcal/mol
DOCKED: USER        Electrostatic Energy            =   -0.59 kcal/mol
DOCKED: USER    (2) Final Total Internal Energy     =   -1.96 kcal/mol
DOCKED: USER    (3) Torsional Free Energy           =   +3.88 kcal/mol
DOCKED: USER    (4) Unbound System's Energy  [=(2)] =   -1.96 kcal/mol
DOCKED: USER    
DOCKED: USER    
DOCKED: USER    NEWDPF move heme_opt.pdbqt
DOCKED: USER    NEWDPF about 0.153000 0.018000 -0.028000
DOCKED: USER    NEWDPF tran0 -8.755420 -15.187611 10.413570
DOCKED: USER    NEWDPF quaternion0 -0.196708 0.047251 0.731019 0.651678
DOCKED: USER    NEWDPF axisangle0 -0.259340 0.062296 0.963775 98.663505
DOCKED: USER    NEWDPF quat0 -0.259340 0.062296 0.963775 98.663505
DOCKED: USER    NEWDPF dihe0 -85.32 -155.18 -122.80 -108.37 -129.86 42.20 122.67 -93.85 171.27 -25.57 -149.17 -50.39 151.64 
DOCKED: USER  keepresnum = 1 
DOCKED: USER  
DOCKED: REMARK  13 active torsions:
DOCKED: REMARK  status: ('A' for Active; 'I' for Inactive)
DOCKED: REMARK    1  A    between atoms: O_3  and  C_38 
DOCKED: REMARK    2  A    between atoms: O_4  and  C_40 
DOCKED: REMARK    3  A    between atoms: O_7  and  C_46 
DOCKED: REMARK    4  A    between atoms: O_9  and  C_48 
DOCKED: REMARK    5  A    between atoms: C_15  and  C_20 
DOCKED: REMARK    6  A    between atoms: C_16  and  C_23 
DOCKED: REMARK    7  A    between atoms: C_20  and  C_38 
DOCKED: REMARK    8  A    between atoms: C_23  and  C_40 
DOCKED: REMARK    9  A    between atoms: C_32  and  C_41 
DOCKED: REMARK   10  A    between atoms: C_37  and  C_45 
DOCKED: REMARK   11  A    between atoms: C_41  and  C_44 
DOCKED: REMARK   12  A    between atoms: C_44  and  C_46 
DOCKED: REMARK   13  A    between atoms: C_47  and  C_48 
DOCKED: USER                              x       y       z     vdW  Elec       q    Type
DOCKED: USER                           _______ _______ _______ _____ _____    ______ ____
DOCKED: ROOT
DOCKED: ATOM      1  O   UNL d   1      -6.993 -10.106  12.826 -0.15 +0.07    -0.289 OA
DOCKED: ATOM      2  O   UNL d   1     -12.537 -11.603   7.987 -0.06 +0.05    -0.289 OA
DOCKED: ATOM      3  N   UNL d   1      -7.572 -13.264  11.568 -0.15 +0.10    -0.247 NA
DOCKED: ATOM      4  N   UNL d   1     -10.089 -12.933  10.023 -0.16 +0.09    -0.247 NA
DOCKED: ATOM      5  N   UNL d   1     -10.291 -15.799   9.916 -0.12 +0.20    -0.354 N 
DOCKED: ATOM      6  N   UNL d   1      -7.690 -16.133  11.536 -0.03 +0.22    -0.354 N 
DOCKED: ATOM      7  C   UNL d   1      -6.068 -12.326  13.261 -0.20 -0.02    +0.084 A 
DOCKED: ATOM      8  C   UNL d   1     -10.581 -10.704   9.153 -0.16 -0.02    +0.084 A 
DOCKED: ATOM      9  C   UNL d   1      -9.690 -11.615  10.004 -0.25 -0.02    +0.058 A 
DOCKED: ATOM     10  C   UNL d   1      -6.583 -13.548  12.495 -0.25 -0.02    +0.058 A 
DOCKED: ATOM     11  C   UNL d   1      -6.928 -11.298  12.589 -0.11 -0.04    +0.193 A 
DOCKED: ATOM     12  C   UNL d   1      -7.776 -11.987  11.566 -0.21 -0.03    +0.109 A 
DOCKED: ATOM     13  C   UNL d   1     -11.580 -11.741   8.724 -0.06 -0.04    +0.193 A 
DOCKED: ATOM     14  C   UNL d   1      -6.433 -12.383  14.747 -0.12 -0.01    +0.026 C 
DOCKED: ATOM     15  C   UNL d   1      -8.645 -11.156  10.708 -0.32 -0.01    +0.055 C 
DOCKED: ATOM     16  C   UNL d   1      -9.844 -10.187   7.913 -0.30 -0.01    +0.026 C 
DOCKED: ATOM     17  C   UNL d   1     -11.172 -13.047   9.324 -0.12 -0.03    +0.109 A 
DOCKED: ATOM     18  C   UNL d   1      -6.037 -14.767  12.667 -0.27 -0.02    +0.050 C 
DOCKED: ATOM     19  C   UNL d   1      -6.390 -15.935  11.945 -0.24 -0.02    +0.045 A 
DOCKED: ATOM     20  C   UNL d   1     -11.525 -15.458   9.427 -0.16 -0.01    +0.045 A 
DOCKED: ATOM     21  C   UNL d   1     -11.995 -14.247   9.110 -0.14 -0.01    +0.057 C 
DOCKED: ATOM     22  C   UNL d   1     -11.450 -17.721   9.725 -0.14 +0.01    -0.019 A 
DOCKED: ATOM     23  C   UNL d   1     -10.151 -17.145  10.128 -0.19 -0.03    +0.045 A 
DOCKED: ATOM     24  C   UNL d   1     -12.258 -16.717   9.310 -0.12 +0.01    -0.022 A 
DOCKED: ATOM     25  C   UNL d   1      -7.826 -17.364  10.937 -0.20 -0.04    +0.049 A 
DOCKED: ATOM     26  C   UNL d   1      -5.656 -17.049  11.569 -0.27 +0.01    -0.018 A 
DOCKED: ATOM     27  C   UNL d   1      -6.563 -17.940  10.916 -0.28 -0.00    +0.003 A 
DOCKED: ATOM     28  C   UNL d   1      -9.107 -17.860  10.573 -0.17 -0.05    +0.052 C 
DOCKED: ATOM     29  C   UNL d   1     -13.656 -16.797   8.798 -0.05 -0.01    +0.046 C 
DOCKED: ATOM     30  C   UNL d   1      -4.199 -17.274  11.799 -0.18 -0.03    +0.046 C 
DOCKED: ATOM     31  H   UNL d   1      -9.556 -15.108  10.020 -0.53 -0.15    +0.166 HD
DOCKED: ATOM     32  H   UNL d   1      -8.437 -15.469  11.702 -0.06 -0.09    +0.166 HD
DOCKED: ENDROOT
DOCKED: BRANCH   7  33
DOCKED: ATOM     33  C   UNL d   1      -4.584 -12.002  13.058 -0.32 -0.04    +0.141 C 
DOCKED: BRANCH  33  34
DOCKED: ATOM     34  C   UNL d   1      -3.913 -11.544  14.325 -0.21 -0.08    +0.306 C 
DOCKED: ATOM     35  O   UNL d   1      -4.028 -10.447  14.845 -0.55 +0.04    -0.251 OA
DOCKED: BRANCH  34  36
DOCKED: ATOM     36  O   UNL d   1      -3.134 -12.494  14.872 -0.57 +0.17    -0.481 OA
DOCKED: ATOM     37  H   UNL d   1      -2.244 -12.332  14.493 -0.17 -0.22    +0.295 HD
DOCKED: ENDBRANCH  34  36
DOCKED: ENDBRANCH  33  34
DOCKED: ENDBRANCH   7  33
DOCKED: BRANCH  27  38
DOCKED: ATOM     38  C   UNL d   1      -6.219 -19.223  10.382 -0.23 -0.02    +0.017 C 
DOCKED: ATOM     39  C   UNL d   1      -7.097 -20.166  10.006 -0.02 -0.11    +0.092 C 
DOCKED: BRANCH  39  40
DOCKED: ATOM     40  C   UNL d   1      -6.614 -21.435   9.457 -0.05 -0.29    +0.330 C 
DOCKED: ATOM     41  O   UNL d   1      -5.659 -22.091   9.828 -0.03 +0.12    -0.246 OA
DOCKED: BRANCH  40  42
DOCKED: ATOM     42  O   UNL d   1      -7.396 -21.825   8.438 -0.06 +0.51    -0.477 OA
DOCKED: ATOM     43  H   UNL d   1      -7.788 -20.989   8.110 -0.51 -0.64    +0.295 HD
DOCKED: ENDBRANCH  40  42
DOCKED: ENDBRANCH  39  40
DOCKED: ENDBRANCH  27  38
DOCKED: BRANCH   8  44
DOCKED: ATOM     44  C   UNL d   1     -11.267  -9.560   9.907 -0.08 -0.04    +0.141 C 
DOCKED: BRANCH  44  45
DOCKED: ATOM     45  C   UNL d   1     -12.430 -10.016  10.747 +0.00 -0.06    +0.306 C 
DOCKED: ATOM     46  O   UNL d   1     -12.371 -10.555  11.839 -0.00 +0.05    -0.251 OA
DOCKED: BRANCH  45  47
DOCKED: ATOM     47  O   UNL d   1     -13.615  -9.792  10.151 +0.01 +0.08    -0.481 OA
DOCKED: ATOM     48  H   UNL d   1     -13.550 -10.255   9.289 +0.02 -0.05    +0.295 HD
DOCKED: ENDBRANCH  45  47
DOCKED: ENDBRANCH  44  45
DOCKED: ENDBRANCH   8  44
DOCKED: BRANCH  22  49
DOCKED: ATOM     49  C   UNL d   1     -11.782 -19.183   9.796 -0.07 -0.03    +0.048 C 
DOCKED: BRANCH  49  50
DOCKED: ATOM     50  C   UNL d   1     -11.878 -19.674  11.240 -0.02 -0.04    +0.125 C 
DOCKED: BRANCH  50  51
DOCKED: ATOM     51  C   UNL d   1     -12.376 -18.584  12.146 +0.01 -0.07    +0.305 C 
DOCKED: ATOM     52  O   UNL d   1     -11.717 -17.870  12.881 -0.00 +0.06    -0.251 OA
DOCKED: BRANCH  51  53
DOCKED: ATOM     53  O   UNL d   1     -13.716 -18.453  12.087 +0.01 +0.08    -0.481 OA
DOCKED: ATOM     54  H   UNL d   1     -14.054 -19.253  12.541 +0.00 -0.04    +0.295 HD
DOCKED: ENDBRANCH  51  53
DOCKED: ENDBRANCH  50  51
DOCKED: ENDBRANCH  49  50
DOCKED: ENDBRANCH  22  49
DOCKED: TORSDOF 13
DOCKED: TER
DOCKED: ENDMDL
________________________________________________________________________________


	BEGINNING GENETIC ALGORITHM DOCKING 81 of 100
Run: 81 Seed: 567394920 1954520980 [ Run 81 of 100 GA/GALS ]
Beginning LAMARCKIAN GENETIC ALGORITHM (LGA), with a maximum of 25000000 energy evaluations.

Final-Value: -12.155


	FINAL GENETIC ALGORITHM DOCKED STATE
	_______________________________________________


Detailed state:  trans 12.552 8.612 -12.723 quatxyzw 0.579911 -0.206546 -0.277079 -0.737746 center 0.153 0.018 -0.028 ntor 13 163.4018 -176.7639 -96.0986 -53.1278 -8.6604 50.6736 -56.7515 -100.4369 -28.9924 -91.3923 -95.4637 -52.0621 -12.6350
State:	 12.552   8.612 -12.723   0.859 -0.306 -0.410 -84.920    163.40 -176.76  -96.10  -53.13   -8.66   50.67  -56.75 -100.44  -28.99  -91.39  -95.46  -52.06  -12.64

DOCKED: MODEL       81
DOCKED: USER    Run = 81
DOCKED: USER    DPF = D:/Protein_go_brrr/autodock/final/mut_N102T/heme/dock.dpf
DOCKED: USER  
DOCKED: USER    Estimated Free Energy of Binding    =   -5.14 kcal/mol  [=(1)+(2)+(3)-(4)]
DOCKED: USER    Estimated Inhibition Constant, Ki   =  169.84 uM (micromolar)  [Temperature = 298.15 K]
DOCKED: USER    
DOCKED: USER    (1) Final Intermolecular Energy     =   -9.02 kcal/mol
DOCKED: USER        vdW + Hbond + desolv Energy     =   -8.07 kcal/mol
DOCKED: USER        Electrostatic Energy            =   -0.95 kcal/mol
DOCKED: USER    (2) Final Total Internal Energy     =   -3.13 kcal/mol
DOCKED: USER    (3) Torsional Free Energy           =   +3.88 kcal/mol
DOCKED: USER    (4) Unbound System's Energy  [=(2)] =   -3.13 kcal/mol
DOCKED: USER    
DOCKED: USER    
DOCKED: USER    NEWDPF move heme_opt.pdbqt
DOCKED: USER    NEWDPF about 0.153000 0.018000 -0.028000
DOCKED: USER    NEWDPF tran0 12.551505 8.611658 -12.722939
DOCKED: USER    NEWDPF quaternion0 0.579911 -0.206546 -0.277079 -0.737746
DOCKED: USER    NEWDPF axisangle0 0.859028 -0.305959 -0.410439 -84.920448
DOCKED: USER    NEWDPF quat0 0.859028 -0.305959 -0.410439 -84.920448
DOCKED: USER    NEWDPF dihe0 163.40 -176.76 -96.10 -53.13 -8.66 50.67 -56.75 -100.44 -28.99 -91.39 -95.46 -52.06 -12.64 
DOCKED: USER  keepresnum = 1 
DOCKED: USER  
DOCKED: REMARK  13 active torsions:
DOCKED: REMARK  status: ('A' for Active; 'I' for Inactive)
DOCKED: REMARK    1  A    between atoms: O_3  and  C_38 
DOCKED: REMARK    2  A    between atoms: O_4  and  C_40 
DOCKED: REMARK    3  A    between atoms: O_7  and  C_46 
DOCKED: REMARK    4  A    between atoms: O_9  and  C_48 
DOCKED: REMARK    5  A    between atoms: C_15  and  C_20 
DOCKED: REMARK    6  A    between atoms: C_16  and  C_23 
DOCKED: REMARK    7  A    between atoms: C_20  and  C_38 
DOCKED: REMARK    8  A    between atoms: C_23  and  C_40 
DOCKED: REMARK    9  A    between atoms: C_32  and  C_41 
DOCKED: REMARK   10  A    between atoms: C_37  and  C_45 
DOCKED: REMARK   11  A    between atoms: C_41  and  C_44 
DOCKED: REMARK   12  A    between atoms: C_44  and  C_46 
DOCKED: REMARK   13  A    between atoms: C_47  and  C_48 
DOCKED: USER                              x       y       z     vdW  Elec       q    Type
DOCKED: USER                           _______ _______ _______ _____ _____    ______ ____
DOCKED: ROOT
DOCKED: ATOM      1  O   UNL d   1       8.161  12.063 -10.834 -0.13 +0.09    -0.289 OA
DOCKED: ATOM      2  O   UNL d   1      10.698  10.662 -17.762 -0.05 -0.02    -0.289 OA
DOCKED: ATOM      3  N   UNL d   1      10.888  10.044 -11.453 -0.10 +0.08    -0.247 NA
DOCKED: ATOM      4  N   UNL d   1      10.935   9.849 -14.417 -0.13 +0.01    -0.247 NA
DOCKED: ATOM      5  N   UNL d   1      12.798   7.675 -14.152 -0.13 +0.03    -0.354 N 
DOCKED: ATOM      6  N   UNL d   1      12.729   7.872 -11.076 -0.09 +0.11    -0.354 N 
DOCKED: ATOM      7  C   UNL d   1       9.593  10.639  -9.458 -0.29 -0.03    +0.084 A 
DOCKED: ATOM      8  C   UNL d   1       9.937  11.691 -15.675 -0.06 -0.01    +0.084 A 
DOCKED: ATOM      9  C   UNL d   1      10.224  11.024 -14.325 -0.12 -0.01    +0.058 A 
DOCKED: ATOM     10  C   UNL d   1      10.748   9.854 -10.088 -0.20 -0.02    +0.058 A 
DOCKED: ATOM     11  C   UNL d   1       9.117  11.321 -10.705 -0.14 -0.06    +0.193 A 
DOCKED: ATOM     12  C   UNL d   1       9.998  10.899 -11.840 -0.15 -0.03    +0.109 A 
DOCKED: ATOM     13  C   UNL d   1      10.585  10.656 -16.552 -0.08 +0.00    +0.193 A 
DOCKED: ATOM     14  C   UNL d   1       8.485   9.716  -8.944 -0.59 -0.01    +0.026 C 
DOCKED: ATOM     15  C   UNL d   1       9.775  11.519 -13.162 -0.13 -0.01    +0.055 C 
DOCKED: ATOM     16  C   UNL d   1      10.697  13.012 -15.829 -0.02 -0.00    +0.026 C 
DOCKED: ATOM     17  C   UNL d   1      11.145   9.590 -15.668 -0.13 +0.01    +0.109 A 
DOCKED: ATOM     18  C   UNL d   1      11.593   9.123  -9.337 -0.03 -0.01    +0.050 C 
DOCKED: ATOM     19  C   UNL d   1      12.735   8.434  -9.819 -0.27 -0.01    +0.045 A 
DOCKED: ATOM     20  C   UNL d   1      12.519   7.584 -15.491 -0.18 +0.00    +0.045 A 
DOCKED: ATOM     21  C   UNL d   1      11.805   8.415 -16.256 -0.15 +0.01    +0.057 C 
DOCKED: ATOM     22  C   UNL d   1      13.802   5.795 -14.880 -0.17 +0.00    -0.019 A 
DOCKED: ATOM     23  C   UNL d   1      13.567   6.639 -13.692 -0.20 -0.01    +0.045 A 
DOCKED: ATOM     24  C   UNL d   1      13.180   6.360 -15.942 -0.18 +0.00    -0.022 A 
DOCKED: ATOM     25  C   UNL d   1      13.896   7.179 -11.302 -0.20 -0.01    +0.049 A 
DOCKED: ATOM     26  C   UNL d   1      13.951   8.130  -9.228 -0.22 +0.00    -0.018 A 
DOCKED: ATOM     27  C   UNL d   1      14.688   7.354 -10.176 -0.13 -0.00    +0.003 A 
DOCKED: ATOM     28  C   UNL d   1      14.057   6.384 -12.469 -0.21 -0.01    +0.052 C 
DOCKED: ATOM     29  C   UNL d   1      13.137   5.890 -17.356 -0.12 +0.00    +0.046 C 
DOCKED: ATOM     30  C   UNL d   1      14.405   8.535  -7.866 -0.08 -0.01    +0.046 C 
DOCKED: ATOM     31  H   UNL d   1      12.515   8.484 -13.609 +0.04 -0.02    +0.166 HD
DOCKED: ATOM     32  H   UNL d   1      11.945   7.937 -11.715 -0.32 -0.07    +0.166 HD
DOCKED: ENDROOT
DOCKED: BRANCH   7  33
DOCKED: ATOM     33  C   UNL d   1      10.000  11.672  -8.402 -0.25 -0.10    +0.141 C 
DOCKED: BRANCH  33  34
DOCKED: ATOM     34  C   UNL d   1      11.455  12.047  -8.489 -0.10 -0.17    +0.306 C 
DOCKED: ATOM     35  O   UNL d   1      12.071  12.313  -9.507 -0.04 +0.08    -0.251 OA
DOCKED: BRANCH  34  36
DOCKED: ATOM     36  O   UNL d   1      12.057  12.070  -7.287 -0.64 +0.38    -0.481 OA
DOCKED: ATOM     37  H   UNL d   1      11.320  12.138  -6.643 -0.48 -0.68    +0.295 HD
DOCKED: ENDBRANCH  34  36
DOCKED: ENDBRANCH  33  34
DOCKED: ENDBRANCH   7  33
DOCKED: BRANCH  27  38
DOCKED: ATOM     38  C   UNL d   1      15.998   6.817  -9.963 -0.05 -0.00    +0.017 C 
DOCKED: ATOM     39  C   UNL d   1      16.573   5.861 -10.708 -0.02 -0.01    +0.092 C 
DOCKED: BRANCH  39  40
DOCKED: ATOM     40  C   UNL d   1      17.931   5.409 -10.394 +0.00 -0.03    +0.330 C 
DOCKED: ATOM     41  O   UNL d   1      18.374   5.083  -9.309 -0.00 +0.02    -0.246 OA
DOCKED: BRANCH  40  42
DOCKED: ATOM     42  O   UNL d   1      18.678   5.383 -11.509 +0.00 +0.03    -0.477 OA
DOCKED: ATOM     43  H   UNL d   1      18.080   5.733 -12.200 +0.00 -0.02    +0.295 HD
DOCKED: ENDBRANCH  40  42
DOCKED: ENDBRANCH  39  40
DOCKED: ENDBRANCH  27  38
DOCKED: BRANCH   8  44
DOCKED: ATOM     44  C   UNL d   1       8.456  11.859 -16.027 -0.13 -0.05    +0.141 C 
DOCKED: BRANCH  44  45
DOCKED: ATOM     45  C   UNL d   1       8.158  11.606 -17.481 -0.02 -0.17    +0.306 C 
DOCKED: ATOM     46  O   UNL d   1       7.986  12.449 -18.345 -0.07 +0.11    -0.251 OA
DOCKED: BRANCH  45  47
DOCKED: ATOM     47  O   UNL d   1       8.064  10.295 -17.767 -0.68 +0.03    -0.481 OA
DOCKED: ATOM     48  H   UNL d   1       7.144  10.054 -17.525 -0.46 -0.36    +0.295 HD
DOCKED: ENDBRANCH  45  47
DOCKED: ENDBRANCH  44  45
DOCKED: ENDBRANCH   8  44
DOCKED: BRANCH  22  49
DOCKED: ATOM     49  C   UNL d   1      14.591   4.519 -14.865 -0.10 -0.01    +0.048 C 
DOCKED: BRANCH  49  50
DOCKED: ATOM     50  C   UNL d   1      16.042   4.743 -15.290 -0.03 -0.01    +0.125 C 
DOCKED: BRANCH  50  51
DOCKED: ATOM     51  C   UNL d   1      16.885   5.167 -14.120 -0.01 -0.03    +0.305 C 
DOCKED: ATOM     52  O   UNL d   1      17.333   6.277 -13.890 -0.00 +0.02    -0.251 OA
DOCKED: BRANCH  51  53
DOCKED: ATOM     53  O   UNL d   1      17.137   4.142 -13.282 +0.00 +0.04    -0.481 OA
DOCKED: ATOM     54  H   UNL d   1      18.113   4.139 -13.197 +0.01 -0.02    +0.295 HD
DOCKED: ENDBRANCH  51  53
DOCKED: ENDBRANCH  50  51
DOCKED: ENDBRANCH  49  50
DOCKED: ENDBRANCH  22  49
DOCKED: TORSDOF 13
DOCKED: TER
DOCKED: ENDMDL
________________________________________________________________________________


	BEGINNING GENETIC ALGORITHM DOCKING 82 of 100
Run: 82 Seed: 2026582516 910693694 [ Run 82 of 100 GA/GALS ]
Beginning LAMARCKIAN GENETIC ALGORITHM (LGA), with a maximum of 25000000 energy evaluations.

Final-Value: -10.490


	FINAL GENETIC ALGORITHM DOCKED STATE
	_______________________________________________


Detailed state:  trans 14.516 3.979 7.576 quatxyzw -0.117433 -0.618191 0.049418 0.775634 center 0.153 0.018 -0.028 ntor 13 -110.7099 -33.5961 -107.8483 -5.4540 45.3877 -163.4863 -6.2034 147.6247 142.2924 141.2028 86.4419 50.1863 164.2548
State:	 14.516   3.979   7.576  -0.186 -0.979  0.078 78.275   -110.71  -33.60 -107.85   -5.45   45.39 -163.49   -6.20  147.62  142.29  141.20   86.44   50.19  164.25

DOCKED: MODEL       82
DOCKED: USER    Run = 82
DOCKED: USER    DPF = D:/Protein_go_brrr/autodock/final/mut_N102T/heme/dock.dpf
DOCKED: USER  
DOCKED: USER    Estimated Free Energy of Binding    =   -4.83 kcal/mol  [=(1)+(2)+(3)-(4)]
DOCKED: USER    Estimated Inhibition Constant, Ki   =  287.96 uM (micromolar)  [Temperature = 298.15 K]
DOCKED: USER    
DOCKED: USER    (1) Final Intermolecular Energy     =   -8.71 kcal/mol
DOCKED: USER        vdW + Hbond + desolv Energy     =   -8.15 kcal/mol
DOCKED: USER        Electrostatic Energy            =   -0.56 kcal/mol
DOCKED: USER    (2) Final Total Internal Energy     =   -1.78 kcal/mol
DOCKED: USER    (3) Torsional Free Energy           =   +3.88 kcal/mol
DOCKED: USER    (4) Unbound System's Energy  [=(2)] =   -1.78 kcal/mol
DOCKED: USER    
DOCKED: USER    
DOCKED: USER    NEWDPF move heme_opt.pdbqt
DOCKED: USER    NEWDPF about 0.153000 0.018000 -0.028000
DOCKED: USER    NEWDPF tran0 14.515676 3.978719 7.575554
DOCKED: USER    NEWDPF quaternion0 -0.117433 -0.618191 0.049418 0.775634
DOCKED: USER    NEWDPF axisangle0 -0.186052 -0.979416 0.078294 78.274959
DOCKED: USER    NEWDPF quat0 -0.186052 -0.979416 0.078294 78.274959
DOCKED: USER    NEWDPF dihe0 -110.71 -33.60 -107.85 -5.45 45.39 -163.49 -6.20 147.62 142.29 141.20 86.44 50.19 164.25 
DOCKED: USER  keepresnum = 1 
DOCKED: USER  
DOCKED: REMARK  13 active torsions:
DOCKED: REMARK  status: ('A' for Active; 'I' for Inactive)
DOCKED: REMARK    1  A    between atoms: O_3  and  C_38 
DOCKED: REMARK    2  A    between atoms: O_4  and  C_40 
DOCKED: REMARK    3  A    between atoms: O_7  and  C_46 
DOCKED: REMARK    4  A    between atoms: O_9  and  C_48 
DOCKED: REMARK    5  A    between atoms: C_15  and  C_20 
DOCKED: REMARK    6  A    between atoms: C_16  and  C_23 
DOCKED: REMARK    7  A    between atoms: C_20  and  C_38 
DOCKED: REMARK    8  A    between atoms: C_23  and  C_40 
DOCKED: REMARK    9  A    between atoms: C_32  and  C_41 
DOCKED: REMARK   10  A    between atoms: C_37  and  C_45 
DOCKED: REMARK   11  A    between atoms: C_41  and  C_44 
DOCKED: REMARK   12  A    between atoms: C_44  and  C_46 
DOCKED: REMARK   13  A    between atoms: C_47  and  C_48 
DOCKED: USER                              x       y       z     vdW  Elec       q    Type
DOCKED: USER                           _______ _______ _______ _____ _____    ______ ____
DOCKED: ROOT
DOCKED: ATOM      1  O   UNL d   1      14.209   5.071  13.361 -0.13 -0.14    -0.289 OA
DOCKED: ATOM      2  O   UNL d   1      11.331  -0.508   9.239 -0.61 -0.22    -0.289 OA
DOCKED: ATOM      3  N   UNL d   1      14.542   4.918   9.931 +0.00 -0.05    -0.247 NA
DOCKED: ATOM      4  N   UNL d   1      13.377   2.271   9.249 -0.12 -0.06    -0.247 NA
DOCKED: ATOM      5  N   UNL d   1      14.554   2.530   6.639 +0.00 -0.07    -0.354 N 
DOCKED: ATOM      6  N   UNL d   1      15.776   5.266   7.361 +0.20 -0.06    -0.354 N 
DOCKED: ATOM      7  C   UNL d   1      15.430   6.374  11.692 -0.16 +0.02    +0.084 A 
DOCKED: ATOM      8  C   UNL d   1      11.704   1.359  10.778 -0.25 +0.03    +0.084 A 
DOCKED: ATOM      9  C   UNL d   1      12.732   2.447  10.452 -0.26 +0.01    +0.058 A 
DOCKED: ATOM     10  C   UNL d   1      15.352   6.008  10.207 -0.19 +0.01    +0.058 A 
DOCKED: ATOM     11  C   UNL d   1      14.507   5.310  12.205 -0.15 +0.06    +0.193 A 
DOCKED: ATOM     12  C   UNL d   1      14.015   4.510  11.039 -0.22 +0.03    +0.109 A 
DOCKED: ATOM     13  C   UNL d   1      11.913   0.512   9.554 -0.22 +0.09    +0.193 A 
DOCKED: ATOM     14  C   UNL d   1      16.828   6.138  12.269 -0.07 +0.00    +0.026 C 
DOCKED: ATOM     15  C   UNL d   1      13.013   3.455  11.293 -0.31 +0.02    +0.055 C 
DOCKED: ATOM     16  C   UNL d   1      10.273   1.905  10.761 -0.43 +0.01    +0.026 C 
DOCKED: ATOM     17  C   UNL d   1      12.957   1.171   8.713 -0.25 +0.03    +0.109 A 
DOCKED: ATOM     18  C   UNL d   1      15.956   6.756   9.265 -0.18 +0.01    +0.050 C 
DOCKED: ATOM     19  C   UNL d   1      15.871   6.543   7.866 -0.11 +0.01    +0.045 A 
DOCKED: ATOM     20  C   UNL d   1      14.144   1.223   6.584 -0.25 +0.01    +0.045 A 
DOCKED: ATOM     21  C   UNL d   1      13.402   0.540   7.462 -0.32 +0.02    +0.057 C 
DOCKED: ATOM     22  C   UNL d   1      15.381   1.687   4.720 -0.24 -0.00    -0.019 A 
DOCKED: ATOM     23  C   UNL d   1      15.307   2.901   5.557 -0.22 +0.01    +0.045 A 
DOCKED: ATOM     24  C   UNL d   1      14.689   0.697   5.333 -0.27 -0.00    -0.022 A 
DOCKED: ATOM     25  C   UNL d   1      15.796   5.287   5.986 -0.07 +0.01    +0.049 A 
DOCKED: ATOM     26  C   UNL d   1      15.916   7.419   6.792 -0.16 -0.00    -0.018 A 
DOCKED: ATOM     27  C   UNL d   1      15.849   6.621   5.608 -0.16 +0.00    +0.003 A 
DOCKED: ATOM     28  C   UNL d   1      15.867   4.079   5.240 -0.22 +0.01    +0.052 C 
DOCKED: ATOM     29  C   UNL d   1      14.464  -0.704   4.876 -0.24 +0.01    +0.046 C 
DOCKED: ATOM     30  C   UNL d   1      16.014   8.905   6.858 -0.15 +0.01    +0.046 C 
DOCKED: ATOM     31  H   UNL d   1      14.243   3.148   7.380 +0.14 +0.04    +0.166 HD
DOCKED: ATOM     32  H   UNL d   1      15.739   4.436   7.941 +0.04 +0.03    +0.166 HD
DOCKED: ENDROOT
DOCKED: BRANCH   7  33
DOCKED: ATOM     33  C   UNL d   1      14.900   7.766  12.054 -0.25 +0.04    +0.141 C 
DOCKED: BRANCH  33  34
DOCKED: ATOM     34  C   UNL d   1      15.221   8.157  13.471 -0.13 +0.09    +0.306 C 
DOCKED: ATOM     35  O   UNL d   1      16.133   8.883  13.829 -0.06 -0.05    -0.251 OA
DOCKED: BRANCH  34  36
DOCKED: ATOM     36  O   UNL d   1      14.373   7.615  14.363 -0.06 -0.27    -0.481 OA
DOCKED: ATOM     37  H   UNL d   1      14.554   6.652  14.322 +0.07 +0.18    +0.295 HD
DOCKED: ENDBRANCH  34  36
DOCKED: ENDBRANCH  33  34
DOCKED: ENDBRANCH   7  33
DOCKED: BRANCH  27  38
DOCKED: ATOM     38  C   UNL d   1      15.883   7.127   4.269 -0.19 +0.00    +0.017 C 
DOCKED: ATOM     39  C   UNL d   1      14.806   7.430   3.528 -0.28 +0.00    +0.092 C 
DOCKED: BRANCH  39  40
DOCKED: ATOM     40  C   UNL d   1      14.977   7.958   2.172 -0.12 -0.07    +0.330 C 
DOCKED: ATOM     41  O   UNL d   1      14.141   8.500   1.474 -0.20 +0.06    -0.246 OA
DOCKED: BRANCH  40  42
DOCKED: ATOM     42  O   UNL d   1      16.242   7.776   1.762 -0.04 +0.15    -0.477 OA
DOCKED: ATOM     43  H   UNL d   1      16.156   7.618   0.799 -0.45 -0.41    +0.295 HD
DOCKED: ENDBRANCH  40  42
DOCKED: ENDBRANCH  39  40
DOCKED: ENDBRANCH  27  38
DOCKED: BRANCH   8  44
DOCKED: ATOM     44  C   UNL d   1      11.975   0.555  12.054 -0.11 +0.04    +0.141 C 
DOCKED: BRANCH  44  45
DOCKED: ATOM     45  C   UNL d   1      11.313   1.137  13.275 -0.10 +0.09    +0.306 C 
DOCKED: ATOM     46  O   UNL d   1      11.368   2.296  13.649 -0.22 -0.10    -0.251 OA
DOCKED: BRANCH  45  47
DOCKED: ATOM     47  O   UNL d   1      10.634   0.215  13.981 -0.02 -0.13    -0.481 OA
DOCKED: ATOM     48  H   UNL d   1      11.329  -0.342  14.393 +0.06 +0.08    +0.295 HD
DOCKED: ENDBRANCH  45  47
DOCKED: ENDBRANCH  44  45
DOCKED: ENDBRANCH   8  44
DOCKED: BRANCH  22  49
DOCKED: ATOM     49  C   UNL d   1      16.125   1.604   3.420 -0.08 +0.02    +0.048 C 
DOCKED: BRANCH  49  50
DOCKED: ATOM     50  C   UNL d   1      17.623   1.387   3.635 -0.09 +0.04    +0.125 C 
DOCKED: BRANCH  50  51
DOCKED: ATOM     51  C   UNL d   1      18.355   2.698   3.669 -0.05 +0.12    +0.305 C 
DOCKED: ATOM     52  O   UNL d   1      19.287   3.011   4.389 -0.01 -0.06    -0.251 OA
DOCKED: BRANCH  51  53
DOCKED: ATOM     53  O   UNL d   1      17.855   3.578   2.778 -0.28 -0.48    -0.481 OA
DOCKED: ATOM     54  H   UNL d   1      18.343   4.408   2.963 +0.03 +0.23    +0.295 HD
DOCKED: ENDBRANCH  51  53
DOCKED: ENDBRANCH  50  51
DOCKED: ENDBRANCH  49  50
DOCKED: ENDBRANCH  22  49
DOCKED: TORSDOF 13
DOCKED: TER
DOCKED: ENDMDL
________________________________________________________________________________


	BEGINNING GENETIC ALGORITHM DOCKING 83 of 100
Run: 83 Seed: 840412757 1348557303 [ Run 83 of 100 GA/GALS ]
Beginning LAMARCKIAN GENETIC ALGORITHM (LGA), with a maximum of 25000000 energy evaluations.

Final-Value: -12.322


	FINAL GENETIC ALGORITHM DOCKED STATE
	_______________________________________________


Detailed state:  trans -9.112 -7.945 12.391 quatxyzw -0.858206 0.306726 -0.298656 -0.283208 center 0.153 0.018 -0.028 ntor 13 134.1005 -122.1760 -150.6647 -51.0525 -135.3127 26.1161 136.0900 168.1962 20.5571 -44.0651 -33.5042 -100.9072 31.2903
State:	 -9.112  -7.945  12.391  -0.895  0.320 -0.311 -147.096    134.10 -122.18 -150.66  -51.05 -135.31   26.12  136.09  168.20   20.56  -44.07  -33.50 -100.91   31.29

DOCKED: MODEL       83
DOCKED: USER    Run = 83
DOCKED: USER    DPF = D:/Protein_go_brrr/autodock/final/mut_N102T/heme/dock.dpf
DOCKED: USER  
DOCKED: USER    Estimated Free Energy of Binding    =   -5.11 kcal/mol  [=(1)+(2)+(3)-(4)]
DOCKED: USER    Estimated Inhibition Constant, Ki   =  178.94 uM (micromolar)  [Temperature = 298.15 K]
DOCKED: USER    
DOCKED: USER    (1) Final Intermolecular Energy     =   -8.99 kcal/mol
DOCKED: USER        vdW + Hbond + desolv Energy     =   -8.76 kcal/mol
DOCKED: USER        Electrostatic Energy            =   -0.23 kcal/mol
DOCKED: USER    (2) Final Total Internal Energy     =   -3.33 kcal/mol
DOCKED: USER    (3) Torsional Free Energy           =   +3.88 kcal/mol
DOCKED: USER    (4) Unbound System's Energy  [=(2)] =   -3.33 kcal/mol
DOCKED: USER    
DOCKED: USER    
DOCKED: USER    NEWDPF move heme_opt.pdbqt
DOCKED: USER    NEWDPF about 0.153000 0.018000 -0.028000
DOCKED: USER    NEWDPF tran0 -9.111541 -7.944961 12.391429
DOCKED: USER    NEWDPF quaternion0 -0.858206 0.306726 -0.298656 -0.283208
DOCKED: USER    NEWDPF axisangle0 -0.894842 0.319820 -0.311405 -147.096423
DOCKED: USER    NEWDPF quat0 -0.894842 0.319820 -0.311405 -147.096423
DOCKED: USER    NEWDPF dihe0 134.10 -122.18 -150.66 -51.05 -135.31 26.12 136.09 168.20 20.56 -44.07 -33.50 -100.91 31.29 
DOCKED: USER  keepresnum = 1 
DOCKED: USER  
DOCKED: REMARK  13 active torsions:
DOCKED: REMARK  status: ('A' for Active; 'I' for Inactive)
DOCKED: REMARK    1  A    between atoms: O_3  and  C_38 
DOCKED: REMARK    2  A    between atoms: O_4  and  C_40 
DOCKED: REMARK    3  A    between atoms: O_7  and  C_46 
DOCKED: REMARK    4  A    between atoms: O_9  and  C_48 
DOCKED: REMARK    5  A    between atoms: C_15  and  C_20 
DOCKED: REMARK    6  A    between atoms: C_16  and  C_23 
DOCKED: REMARK    7  A    between atoms: C_20  and  C_38 
DOCKED: REMARK    8  A    between atoms: C_23  and  C_40 
DOCKED: REMARK    9  A    between atoms: C_32  and  C_41 
DOCKED: REMARK   10  A    between atoms: C_37  and  C_45 
DOCKED: REMARK   11  A    between atoms: C_41  and  C_44 
DOCKED: REMARK   12  A    between atoms: C_44  and  C_46 
DOCKED: REMARK   13  A    between atoms: C_47  and  C_48 
DOCKED: USER                              x       y       z     vdW  Elec       q    Type
DOCKED: USER                           _______ _______ _______ _____ _____    ______ ____
DOCKED: ROOT
DOCKED: ATOM      1  O   UNL d   1     -12.825  -4.946   8.931 -0.05 +0.15    -0.289 OA
DOCKED: ATOM      2  O   UNL d   1     -10.147  -3.418  15.779 -0.24 -0.10    -0.289 OA
DOCKED: ATOM      3  N   UNL d   1     -10.747  -7.098  10.648 -0.12 +0.19    -0.247 NA
DOCKED: ATOM      4  N   UNL d   1      -9.989  -5.538  13.060 -0.01 +0.22    -0.247 NA
DOCKED: ATOM      5  N   UNL d   1      -7.921  -7.474  13.549 -0.08 +0.11    -0.354 N 
DOCKED: ATOM      6  N   UNL d   1      -8.702  -9.077  11.034 -0.07 +0.12    -0.354 N 
DOCKED: ATOM      7  C   UNL d   1     -11.701  -7.048   8.390 -0.12 -0.04    +0.084 A 
DOCKED: ATOM      8  C   UNL d   1     -11.549  -3.813  13.811 -0.06 -0.03    +0.084 A 
DOCKED: ATOM      9  C   UNL d   1     -11.155  -4.865  12.769 +0.00 -0.05    +0.058 A 
DOCKED: ATOM     10  C   UNL d   1     -10.820  -7.750   9.428 -0.18 -0.03    +0.058 A 
DOCKED: ATOM     11  C   UNL d   1     -12.128  -5.893   9.246 -0.09 -0.12    +0.193 A 
DOCKED: ATOM     12  C   UNL d   1     -11.505  -6.051  10.598 -0.10 -0.09    +0.109 A 
DOCKED: ATOM     13  C   UNL d   1     -10.371  -3.987  14.728 -0.09 -0.01    +0.193 A 
DOCKED: ATOM     14  C   UNL d   1     -10.885  -6.515   7.210 -0.32 -0.02    +0.026 C 
DOCKED: ATOM     15  C   UNL d   1     -11.859  -5.073  11.646 -0.09 -0.04    +0.055 C 
DOCKED: ATOM     16  C   UNL d   1     -12.822  -4.209  14.564 -0.01 -0.00    +0.026 C 
DOCKED: ATOM     17  C   UNL d   1      -9.498  -5.056  14.156 -0.11 -0.04    +0.109 A 
DOCKED: ATOM     18  C   UNL d   1     -10.252  -8.944   9.175 -0.23 -0.02    +0.050 C 
DOCKED: ATOM     19  C   UNL d   1      -9.493  -9.706  10.100 -0.21 -0.01    +0.045 A 
DOCKED: ATOM     20  C   UNL d   1      -7.574  -6.521  14.471 -0.19 -0.01    +0.045 A 
DOCKED: ATOM     21  C   UNL d   1      -8.238  -5.415  14.823 -0.21 -0.00    +0.057 C 
DOCKED: ATOM     22  C   UNL d   1      -5.944  -8.121  14.414 -0.30 +0.00    -0.019 A 
DOCKED: ATOM     23  C   UNL d   1      -6.998  -8.480  13.444 -0.25 -0.01    +0.045 A 
DOCKED: ATOM     24  C   UNL d   1      -6.292  -6.960  15.020 -0.24 +0.00    -0.022 A 
DOCKED: ATOM     25  C   UNL d   1      -7.988  -9.999  11.764 -0.23 -0.01    +0.049 A 
DOCKED: ATOM     26  C   UNL d   1      -9.317 -11.073  10.250 -0.27 +0.00    -0.018 A 
DOCKED: ATOM     27  C   UNL d   1      -8.381 -11.253  11.315 -0.27 -0.00    +0.003 A 
DOCKED: ATOM     28  C   UNL d   1      -6.986  -9.585  12.682 -0.30 -0.01    +0.052 C 
DOCKED: ATOM     29  C   UNL d   1      -5.560  -6.204  16.076 -0.24 -0.01    +0.046 C 
DOCKED: ATOM     30  C   UNL d   1      -9.979 -12.148   9.457 -0.28 -0.01    +0.046 C 
DOCKED: ATOM     31  H   UNL d   1      -8.816  -7.445  13.074 +0.06 -0.07    +0.166 HD
DOCKED: ATOM     32  H   UNL d   1      -8.637  -8.070  11.127 +0.06 -0.09    +0.166 HD
DOCKED: ENDROOT
DOCKED: BRANCH   7  33
DOCKED: ATOM     33  C   UNL d   1     -12.920  -7.846   7.916 -0.03 -0.04    +0.141 C 
DOCKED: BRANCH  33  34
DOCKED: ATOM     34  C   UNL d   1     -13.954  -8.021   8.996 +0.01 -0.07    +0.306 C 
DOCKED: ATOM     35  O   UNL d   1     -13.930  -8.852   9.888 -0.00 +0.05    -0.251 OA
DOCKED: BRANCH  34  36
DOCKED: ATOM     36  O   UNL d   1     -14.963  -7.138   8.895 +0.01 +0.09    -0.481 OA
DOCKED: ATOM     37  H   UNL d   1     -14.520  -6.270   8.782 +0.02 -0.07    +0.295 HD
DOCKED: ENDBRANCH  34  36
DOCKED: ENDBRANCH  33  34
DOCKED: ENDBRANCH   7  33
DOCKED: BRANCH  27  38
DOCKED: ATOM     38  C   UNL d   1      -7.905 -12.517  11.791 -0.28 -0.01    +0.017 C 
DOCKED: ATOM     39  C   UNL d   1      -6.633 -12.940  11.723 -0.20 -0.03    +0.092 C 
DOCKED: BRANCH  39  40
DOCKED: ATOM     40  C   UNL d   1      -6.271 -14.253  12.263 -0.19 -0.13    +0.330 C 
DOCKED: ATOM     41  O   UNL d   1      -6.997 -15.216  12.426 -0.16 +0.11    -0.246 OA
DOCKED: BRANCH  40  42
DOCKED: ATOM     42  O   UNL d   1      -4.965 -14.282  12.571 -0.11 +0.22    -0.477 OA
DOCKED: ATOM     43  H   UNL d   1      -4.859 -13.547  13.210 +0.11 -0.11    +0.295 HD
DOCKED: ENDBRANCH  40  42
DOCKED: ENDBRANCH  39  40
DOCKED: ENDBRANCH  27  38
DOCKED: BRANCH   8  44
DOCKED: ATOM     44  C   UNL d   1     -11.635  -2.373  13.296 -0.10 -0.04    +0.141 C 
DOCKED: BRANCH  44  45
DOCKED: ATOM     45  C   UNL d   1     -10.360  -1.595  13.489 -0.15 +0.03    +0.306 C 
DOCKED: ATOM     46  O   UNL d   1      -9.445  -1.489  12.690 -0.37 +0.03    -0.251 OA
DOCKED: BRANCH  45  47
DOCKED: ATOM     47  O   UNL d   1     -10.291  -1.012  14.699 -0.34 -0.32    -0.481 OA
DOCKED: ATOM     48  H   UNL d   1     -10.825  -1.590  15.284 +0.06 +0.14    +0.295 HD
DOCKED: ENDBRANCH  45  47
DOCKED: ENDBRANCH  44  45
DOCKED: ENDBRANCH   8  44
DOCKED: BRANCH  22  49
DOCKED: ATOM     49  C   UNL d   1      -4.702  -8.929  14.646 -0.21 -0.01    +0.048 C 
DOCKED: BRANCH  49  50
DOCKED: ATOM     50  C   UNL d   1      -5.022 -10.396  14.929 -0.28 -0.02    +0.125 C 
DOCKED: BRANCH  50  51
DOCKED: ATOM     51  C   UNL d   1      -3.941 -11.294  14.397 -0.20 -0.07    +0.305 C 
DOCKED: ATOM     52  O   UNL d   1      -3.720 -12.453  14.701 -0.57 +0.08    -0.251 OA
DOCKED: BRANCH  51  53
DOCKED: ATOM     53  O   UNL d   1      -3.164 -10.665  13.492 -0.58 +0.14    -0.481 OA
DOCKED: ATOM     54  H   UNL d   1      -2.251 -10.823  13.812 -0.36 -0.18    +0.295 HD
DOCKED: ENDBRANCH  51  53
DOCKED: ENDBRANCH  50  51
DOCKED: ENDBRANCH  49  50
DOCKED: ENDBRANCH  22  49
DOCKED: TORSDOF 13
DOCKED: TER
DOCKED: ENDMDL
________________________________________________________________________________


	BEGINNING GENETIC ALGORITHM DOCKING 84 of 100
Run: 84 Seed: 69103151 363686982 [ Run 84 of 100 GA/GALS ]
Beginning LAMARCKIAN GENETIC ALGORITHM (LGA), with a maximum of 25000000 energy evaluations.

Final-Value: -11.295


	FINAL GENETIC ALGORITHM DOCKED STATE
	_______________________________________________


Detailed state:  trans -8.467 -11.468 11.465 quatxyzw -0.218471 0.162299 0.614480 0.740502 center 0.153 0.018 -0.028 ntor 13 -119.1210 155.8682 -55.9823 10.3610 41.3829 -45.5000 122.2415 -134.0602 135.4689 128.0857 54.5966 -16.6487 104.1629
State:	 -8.467 -11.468  11.465  -0.325  0.241  0.914 84.452   -119.12  155.87  -55.98   10.36   41.38  -45.50  122.24 -134.06  135.47  128.09   54.60  -16.65  104.16

DOCKED: MODEL       84
DOCKED: USER    Run = 84
DOCKED: USER    DPF = D:/Protein_go_brrr/autodock/final/mut_N102T/heme/dock.dpf
DOCKED: USER  
DOCKED: USER    Estimated Free Energy of Binding    =   -4.19 kcal/mol  [=(1)+(2)+(3)-(4)]
DOCKED: USER    Estimated Inhibition Constant, Ki   =  850.55 uM (micromolar)  [Temperature = 298.15 K]
DOCKED: USER    
DOCKED: USER    (1) Final Intermolecular Energy     =   -8.07 kcal/mol
DOCKED: USER        vdW + Hbond + desolv Energy     =   -7.66 kcal/mol
DOCKED: USER        Electrostatic Energy            =   -0.41 kcal/mol
DOCKED: USER    (2) Final Total Internal Energy     =   -3.23 kcal/mol
DOCKED: USER    (3) Torsional Free Energy           =   +3.88 kcal/mol
DOCKED: USER    (4) Unbound System's Energy  [=(2)] =   -3.23 kcal/mol
DOCKED: USER    
DOCKED: USER    
DOCKED: USER    NEWDPF move heme_opt.pdbqt
DOCKED: USER    NEWDPF about 0.153000 0.018000 -0.028000
DOCKED: USER    NEWDPF tran0 -8.467226 -11.467922 11.464962
DOCKED: USER    NEWDPF quaternion0 -0.218471 0.162299 0.614480 0.740502
DOCKED: USER    NEWDPF axisangle0 -0.325080 0.241497 0.914332 84.451552
DOCKED: USER    NEWDPF quat0 -0.325080 0.241497 0.914332 84.451552
DOCKED: USER    NEWDPF dihe0 -119.12 155.87 -55.98 10.36 41.38 -45.50 122.24 -134.06 135.47 128.09 54.60 -16.65 104.16 
DOCKED: USER  keepresnum = 1 
DOCKED: USER  
DOCKED: REMARK  13 active torsions:
DOCKED: REMARK  status: ('A' for Active; 'I' for Inactive)
DOCKED: REMARK    1  A    between atoms: O_3  and  C_38 
DOCKED: REMARK    2  A    between atoms: O_4  and  C_40 
DOCKED: REMARK    3  A    between atoms: O_7  and  C_46 
DOCKED: REMARK    4  A    between atoms: O_9  and  C_48 
DOCKED: REMARK    5  A    between atoms: C_15  and  C_20 
DOCKED: REMARK    6  A    between atoms: C_16  and  C_23 
DOCKED: REMARK    7  A    between atoms: C_20  and  C_38 
DOCKED: REMARK    8  A    between atoms: C_23  and  C_40 
DOCKED: REMARK    9  A    between atoms: C_32  and  C_41 
DOCKED: REMARK   10  A    between atoms: C_37  and  C_45 
DOCKED: REMARK   11  A    between atoms: C_41  and  C_44 
DOCKED: REMARK   12  A    between atoms: C_44  and  C_46 
DOCKED: REMARK   13  A    between atoms: C_47  and  C_48 
DOCKED: USER                              x       y       z     vdW  Elec       q    Type
DOCKED: USER                           _______ _______ _______ _____ _____    ______ ____
DOCKED: ROOT
DOCKED: ATOM      1  O   UNL d   1      -8.458  -5.792  13.058 -0.14 +0.23    -0.289 OA
DOCKED: ATOM      2  O   UNL d   1     -12.241  -9.389   7.660 -0.03 +0.07    -0.289 OA
DOCKED: ATOM      3  N   UNL d   1      -8.032  -9.150  12.399 -0.13 +0.07    -0.247 NA
DOCKED: ATOM      4  N   UNL d   1     -10.120  -9.717  10.363 -0.08 +0.07    -0.247 NA
DOCKED: ATOM      5  N   UNL d   1      -9.673 -12.521  10.819 -0.09 +0.12    -0.354 N 
DOCKED: ATOM      6  N   UNL d   1      -7.522 -11.924  12.945 -0.06 +0.08    -0.354 N 
DOCKED: ATOM      7  C   UNL d   1      -7.210  -7.607  14.117 -0.18 -0.02    +0.084 A 
DOCKED: ATOM      8  C   UNL d   1     -10.857  -7.851   8.968 -0.17 -0.04    +0.084 A 
DOCKED: ATOM      9  C   UNL d   1     -10.020  -8.361  10.146 -0.20 -0.03    +0.058 A 
DOCKED: ATOM     10  C   UNL d   1      -7.255  -9.025  13.538 -0.18 -0.01    +0.058 A 
DOCKED: ATOM     11  C   UNL d   1      -8.085  -6.950  13.092 -0.17 -0.09    +0.193 A 
DOCKED: ATOM     12  C   UNL d   1      -8.498  -7.984  12.091 -0.22 -0.05    +0.109 A 
DOCKED: ATOM     13  C   UNL d   1     -11.479  -9.163   8.580 -0.06 -0.05    +0.193 A 
DOCKED: ATOM     14  C   UNL d   1      -7.896  -7.522  15.482 -0.08 -0.00    +0.026 C 
DOCKED: ATOM     15  C   UNL d   1      -9.295  -7.546  10.928 -0.21 -0.04    +0.055 C 
DOCKED: ATOM     16  C   UNL d   1      -9.975  -7.364   7.814 -0.36 -0.02    +0.026 C 
DOCKED: ATOM     17  C   UNL d   1     -10.956 -10.211   9.507 -0.10 -0.03    +0.109 A 
DOCKED: ATOM     18  C   UNL d   1      -6.517 -10.022  14.063 -0.21 -0.01    +0.050 C 
DOCKED: ATOM     19  C   UNL d   1      -6.430 -11.340  13.546 -0.18 -0.01    +0.045 A 
DOCKED: ATOM     20  C   UNL d   1     -10.799 -12.585  10.040 -0.17 -0.01    +0.045 A 
DOCKED: ATOM     21  C   UNL d   1     -11.428 -11.599   9.393 -0.13 -0.01    +0.057 C 
DOCKED: ATOM     22  C   UNL d   1     -10.315 -14.680  10.813 -0.13 +0.01    -0.019 A 
DOCKED: ATOM     23  C   UNL d   1      -9.303 -13.736  11.330 -0.03 -0.02    +0.045 A 
DOCKED: ATOM     24  C   UNL d   1     -11.197 -13.993  10.049 -0.17 +0.01    -0.022 A 
DOCKED: ATOM     25  C   UNL d   1      -7.245 -13.227  12.601 -0.21 -0.01    +0.049 A 
DOCKED: ATOM     26  C   UNL d   1      -5.406 -12.274  13.560 -0.26 +0.00    -0.018 A 
DOCKED: ATOM     27  C   UNL d   1      -5.920 -13.457  12.944 -0.27 -0.00    +0.003 A 
DOCKED: ATOM     28  C   UNL d   1      -8.266 -14.083  12.108 -0.16 -0.02    +0.052 C 
DOCKED: ATOM     29  C   UNL d   1     -12.383 -14.504   9.305 -0.13 -0.01    +0.046 C 
DOCKED: ATOM     30  C   UNL d   1      -4.033 -12.082  14.109 -0.43 -0.01    +0.046 C 
DOCKED: ATOM     31  H   UNL d   1      -9.150 -11.657  10.916 +0.06 -0.05    +0.166 HD
DOCKED: ATOM     32  H   UNL d   1      -8.411 -11.454  12.820 +0.05 -0.04    +0.166 HD
DOCKED: ENDROOT
DOCKED: BRANCH   7  33
DOCKED: ATOM     33  C   UNL d   1      -5.825  -6.951  14.142 -0.29 -0.04    +0.141 C 
DOCKED: BRANCH  33  34
DOCKED: ATOM     34  C   UNL d   1      -5.839  -5.593  14.789 -0.23 -0.03    +0.306 C 
DOCKED: ATOM     35  O   UNL d   1      -5.571  -5.348  15.953 -0.21 +0.00    -0.251 OA
DOCKED: BRANCH  34  36
DOCKED: ATOM     36  O   UNL d   1      -6.186  -4.615  13.935 -0.21 -0.11    -0.481 OA
DOCKED: ATOM     37  H   UNL d   1      -7.076  -4.874  13.612 +0.13 -0.02    +0.295 HD
DOCKED: ENDBRANCH  34  36
DOCKED: ENDBRANCH  33  34
DOCKED: ENDBRANCH   7  33
DOCKED: BRANCH  27  38
DOCKED: ATOM     38  C   UNL d   1      -5.193 -14.677  12.767 -0.28 -0.01    +0.017 C 
DOCKED: ATOM     39  C   UNL d   1      -5.500 -15.641  11.884 -0.30 -0.05    +0.092 C 
DOCKED: BRANCH  39  40
DOCKED: ATOM     40  C   UNL d   1      -4.661 -16.838  11.789 -0.08 -0.23    +0.330 C 
DOCKED: ATOM     41  O   UNL d   1      -3.448 -16.893  11.720 -0.18 +0.21    -0.246 OA
DOCKED: BRANCH  40  42
DOCKED: ATOM     42  O   UNL d   1      -5.427 -17.940  11.797 -0.06 +0.29    -0.477 OA
DOCKED: ATOM     43  H   UNL d   1      -6.247 -17.653  12.248 +0.08 -0.15    +0.295 HD
DOCKED: ENDBRANCH  40  42
DOCKED: ENDBRANCH  39  40
DOCKED: ENDBRANCH  27  38
DOCKED: BRANCH   8  44
DOCKED: ATOM     44  C   UNL d   1     -11.931  -6.817   9.320 -0.10 -0.08    +0.141 C 
DOCKED: BRANCH  44  45
DOCKED: ATOM     45  C   UNL d   1     -11.379  -5.431   9.520 -0.09 -0.32    +0.306 C 
DOCKED: ATOM     46  O   UNL d   1     -11.053  -4.645   8.647 -0.20 +0.29    -0.251 OA
DOCKED: BRANCH  45  47
DOCKED: ATOM     47  O   UNL d   1     -11.239  -5.115  10.820 -0.03 +0.61    -0.481 OA
DOCKED: ATOM     48  H   UNL d   1     -10.291  -4.883  10.918 -0.34 -0.83    +0.295 HD
DOCKED: ENDBRANCH  45  47
DOCKED: ENDBRANCH  44  45
DOCKED: ENDBRANCH   8  44
DOCKED: BRANCH  22  49
DOCKED: ATOM     49  C   UNL d   1     -10.333 -16.148  11.122 -0.16 -0.02    +0.048 C 
DOCKED: BRANCH  49  50
DOCKED: ATOM     50  C   UNL d   1      -9.540 -16.473  12.387 -0.08 -0.05    +0.125 C 
DOCKED: BRANCH  50  51
DOCKED: ATOM     51  C   UNL d   1      -8.483 -17.504  12.109 -0.08 -0.15    +0.305 C 
DOCKED: ATOM     52  O   UNL d   1      -8.149 -18.436  12.819 -0.02 +0.10    -0.251 OA
DOCKED: BRANCH  51  53
DOCKED: ATOM     53  O   UNL d   1      -7.876 -17.296  10.923 -0.15 +0.39    -0.481 OA
DOCKED: ATOM     54  H   UNL d   1      -7.341 -18.105  10.785 +0.08 -0.27    +0.295 HD
DOCKED: ENDBRANCH  51  53
DOCKED: ENDBRANCH  50  51
DOCKED: ENDBRANCH  49  50
DOCKED: ENDBRANCH  22  49
DOCKED: TORSDOF 13
DOCKED: TER
DOCKED: ENDMDL
________________________________________________________________________________


	BEGINNING GENETIC ALGORITHM DOCKING 85 of 100
Run: 85 Seed: 1279619379 55830780 [ Run 85 of 100 GA/GALS ]
Beginning LAMARCKIAN GENETIC ALGORITHM (LGA), with a maximum of 25000000 energy evaluations.

Final-Value: -12.663


	FINAL GENETIC ALGORITHM DOCKED STATE
	_______________________________________________


Detailed state:  trans 10.851 10.377 -13.278 quatxyzw 0.663351 0.000982 -0.320643 -0.676130 center 0.153 0.018 -0.028 ntor 13 110.4165 176.4625 -83.3608 -80.6399 11.8086 28.7281 124.7035 -59.3214 -18.6357 -33.6352 68.9128 -85.4886 141.9394
State:	 10.851  10.377 -13.278   0.900  0.001 -0.435 -94.916    110.42  176.46  -83.36  -80.64   11.81   28.73  124.70  -59.32  -18.64  -33.64   68.91  -85.49  141.94

DOCKED: MODEL       85
DOCKED: USER    Run = 85
DOCKED: USER    DPF = D:/Protein_go_brrr/autodock/final/mut_N102T/heme/dock.dpf
DOCKED: USER  
DOCKED: USER    Estimated Free Energy of Binding    =   -5.85 kcal/mol  [=(1)+(2)+(3)-(4)]
DOCKED: USER    Estimated Inhibition Constant, Ki   =   51.86 uM (micromolar)  [Temperature = 298.15 K]
DOCKED: USER    
DOCKED: USER    (1) Final Intermolecular Energy     =   -9.72 kcal/mol
DOCKED: USER        vdW + Hbond + desolv Energy     =   -9.11 kcal/mol
DOCKED: USER        Electrostatic Energy            =   -0.61 kcal/mol
DOCKED: USER    (2) Final Total Internal Energy     =   -2.94 kcal/mol
DOCKED: USER    (3) Torsional Free Energy           =   +3.88 kcal/mol
DOCKED: USER    (4) Unbound System's Energy  [=(2)] =   -2.94 kcal/mol
DOCKED: USER    
DOCKED: USER    
DOCKED: USER    NEWDPF move heme_opt.pdbqt
DOCKED: USER    NEWDPF about 0.153000 0.018000 -0.028000
DOCKED: USER    NEWDPF tran0 10.850814 10.377074 -13.278234
DOCKED: USER    NEWDPF quaternion0 0.663351 0.000982 -0.320643 -0.676130
DOCKED: USER    NEWDPF axisangle0 0.900336 0.001332 -0.435194 -94.916029
DOCKED: USER    NEWDPF quat0 0.900336 0.001332 -0.435194 -94.916029
DOCKED: USER    NEWDPF dihe0 110.42 176.46 -83.36 -80.64 11.81 28.73 124.70 -59.32 -18.64 -33.64 68.91 -85.49 141.94 
DOCKED: USER  keepresnum = 1 
DOCKED: USER  
DOCKED: REMARK  13 active torsions:
DOCKED: REMARK  status: ('A' for Active; 'I' for Inactive)
DOCKED: REMARK    1  A    between atoms: O_3  and  C_38 
DOCKED: REMARK    2  A    between atoms: O_4  and  C_40 
DOCKED: REMARK    3  A    between atoms: O_7  and  C_46 
DOCKED: REMARK    4  A    between atoms: O_9  and  C_48 
DOCKED: REMARK    5  A    between atoms: C_15  and  C_20 
DOCKED: REMARK    6  A    between atoms: C_16  and  C_23 
DOCKED: REMARK    7  A    between atoms: C_20  and  C_38 
DOCKED: REMARK    8  A    between atoms: C_23  and  C_40 
DOCKED: REMARK    9  A    between atoms: C_32  and  C_41 
DOCKED: REMARK   10  A    between atoms: C_37  and  C_45 
DOCKED: REMARK   11  A    between atoms: C_41  and  C_44 
DOCKED: REMARK   12  A    between atoms: C_44  and  C_46 
DOCKED: REMARK   13  A    between atoms: C_47  and  C_48 
DOCKED: USER                              x       y       z     vdW  Elec       q    Type
DOCKED: USER                           _______ _______ _______ _____ _____    ______ ____
DOCKED: ROOT
DOCKED: ATOM      1  O   UNL d   1       6.853  12.076  -9.292 -0.51 +0.07    -0.289 OA
DOCKED: ATOM      2  O   UNL d   1       7.302  13.358 -16.678 -0.06 +0.15    -0.289 OA
DOCKED: ATOM      3  N   UNL d   1       9.491  10.975 -11.223 -0.12 +0.07    -0.247 NA
DOCKED: ATOM      4  N   UNL d   1       8.652  11.672 -13.987 -0.08 +0.06    -0.247 NA
DOCKED: ATOM      5  N   UNL d   1      10.764   9.978 -14.955 -0.08 +0.01    -0.354 N 
DOCKED: ATOM      6  N   UNL d   1      11.614   9.244 -12.085 -0.02 +0.11    -0.354 N 
DOCKED: ATOM      7  C   UNL d   1       8.805  10.660  -8.891 -0.37 -0.03    +0.084 A 
DOCKED: ATOM      8  C   UNL d   1       7.095  13.537 -14.245 -0.10 -0.03    +0.084 A 
DOCKED: ATOM      9  C   UNL d   1       7.862  12.584 -13.323 -0.14 -0.02    +0.058 A 
DOCKED: ATOM     10  C   UNL d   1       9.800  10.367 -10.017 -0.29 -0.02    +0.058 A 
DOCKED: ATOM     11  C   UNL d   1       7.888  11.556  -9.668 -0.23 -0.06    +0.193 A 
DOCKED: ATOM     12  C   UNL d   1       8.425  11.689 -11.059 -0.19 -0.03    +0.109 A 
DOCKED: ATOM     13  C   UNL d   1       7.567  12.973 -15.556 -0.06 -0.09    +0.193 A 
DOCKED: ATOM     14  C   UNL d   1       8.032   9.409  -8.467 -0.67 -0.01    +0.026 C 
DOCKED: ATOM     15  C   UNL d   1       7.733  12.605 -11.987 -0.21 -0.02    +0.055 C 
DOCKED: ATOM     16  C   UNL d   1       7.599  14.978 -14.119 -0.04 -0.01    +0.026 C 
DOCKED: ATOM     17  C   UNL d   1       8.499  11.844 -15.260 -0.12 -0.04    +0.109 A 
DOCKED: ATOM     18  C   UNL d   1      10.918   9.650  -9.798 -0.20 -0.02    +0.050 C 
DOCKED: ATOM     19  C   UNL d   1      11.935   9.400 -10.755 -0.14 -0.01    +0.045 A 
DOCKED: ATOM     20  C   UNL d   1      10.102  10.225 -16.130 -0.16 +0.00    +0.045 A 
DOCKED: ATOM     21  C   UNL d   1       9.090  11.067 -16.361 -0.19 -0.01    +0.057 C 
DOCKED: ATOM     22  C   UNL d   1      11.723   8.661 -16.510 -0.14 -0.00    -0.019 A 
DOCKED: ATOM     23  C   UNL d   1      11.759   9.047 -15.086 -0.17 +0.00    +0.045 A 
DOCKED: ATOM     24  C   UNL d   1      10.741   9.363 -17.124 -0.14 -0.01    -0.022 A 
DOCKED: ATOM     25  C   UNL d   1      12.733   8.921 -12.817 -0.17 -0.01    +0.049 A 
DOCKED: ATOM     26  C   UNL d   1      13.302   9.209 -10.625 -0.16 +0.00    -0.018 A 
DOCKED: ATOM     27  C   UNL d   1      13.804   8.927 -11.933 -0.11 -0.00    +0.003 A 
DOCKED: ATOM     28  C   UNL d   1      12.628   8.558 -14.187 -0.20 -0.00    +0.052 C 
DOCKED: ATOM     29  C   UNL d   1      10.326   9.331 -18.555 -0.11 +0.02    +0.046 C 
DOCKED: ATOM     30  C   UNL d   1      14.096   9.286  -9.366 -0.16 -0.01    +0.046 C 
DOCKED: ATOM     31  H   UNL d   1      10.561  10.510 -14.116 +0.04 -0.02    +0.166 HD
DOCKED: ATOM     32  H   UNL d   1      10.671   9.321 -12.446 -0.25 -0.06    +0.166 HD
DOCKED: ENDROOT
DOCKED: BRANCH   7  33
DOCKED: ATOM     33  C   UNL d   1       9.382  11.401  -7.680 -0.14 -0.14    +0.141 C 
DOCKED: BRANCH  33  34
DOCKED: ATOM     34  C   UNL d   1      10.539  12.292  -8.044 -0.06 -0.29    +0.306 C 
DOCKED: ATOM     35  O   UNL d   1      10.488  13.288  -8.746 -0.07 +0.16    -0.251 OA
DOCKED: BRANCH  34  36
DOCKED: ATOM     36  O   UNL d   1      11.700  11.883  -7.502 -0.56 +0.40    -0.481 OA
DOCKED: ATOM     37  H   UNL d   1      11.613  12.091  -6.548 -0.48 -0.57    +0.295 HD
DOCKED: ENDBRANCH  34  36
DOCKED: ENDBRANCH  33  34
DOCKED: ENDBRANCH   7  33
DOCKED: BRANCH  27  38
DOCKED: ATOM     38  C   UNL d   1      15.173   8.650 -12.250 -0.05 -0.00    +0.017 C 
DOCKED: ATOM     39  C   UNL d   1      15.602   7.620 -12.995 -0.04 -0.01    +0.092 C 
DOCKED: BRANCH  39  40
DOCKED: ATOM     40  C   UNL d   1      17.034   7.458 -13.260 -0.00 -0.03    +0.330 C 
DOCKED: ATOM     41  O   UNL d   1      17.965   7.841 -12.578 -0.00 +0.02    -0.246 OA
DOCKED: BRANCH  40  42
DOCKED: ATOM     42  O   UNL d   1      17.218   6.789 -14.409 +0.00 +0.03    -0.477 OA
DOCKED: ATOM     43  H   UNL d   1      16.310   6.558 -14.694 +0.02 -0.02    +0.295 HD
DOCKED: ENDBRANCH  40  42
DOCKED: ENDBRANCH  39  40
DOCKED: ENDBRANCH  27  38
DOCKED: BRANCH   8  44
DOCKED: ATOM     44  C   UNL d   1       5.568  13.473 -14.138 -0.23 -0.07    +0.141 C 
DOCKED: BRANCH  44  45
DOCKED: ATOM     45  C   UNL d   1       4.961  12.367 -14.960 -0.19 -0.25    +0.306 C 
DOCKED: ATOM     46  O   UNL d   1       4.891  11.189 -14.655 -0.36 +0.21    -0.251 OA
DOCKED: BRANCH  45  47
DOCKED: ATOM     47  O   UNL d   1       4.494  12.802 -16.144 -0.03 +0.47    -0.481 OA
DOCKED: ATOM     48  H   UNL d   1       5.221  12.624 -16.778 -0.45 -0.50    +0.295 HD
DOCKED: ENDBRANCH  45  47
DOCKED: ENDBRANCH  44  45
DOCKED: ENDBRANCH   8  44
DOCKED: BRANCH  22  49
DOCKED: ATOM     49  C   UNL d   1      12.633   7.641 -17.131 -0.13 +0.01    +0.048 C 
DOCKED: BRANCH  49  50
DOCKED: ATOM     50  C   UNL d   1      12.505   6.278 -16.452 -0.18 +0.01    +0.125 C 
DOCKED: BRANCH  50  51
DOCKED: ATOM     51  C   UNL d   1      13.745   5.950 -15.669 -0.11 -0.02    +0.305 C 
DOCKED: ATOM     52  O   UNL d   1      14.866   5.751 -16.102 -0.04 +0.02    -0.251 OA
DOCKED: BRANCH  51  53
DOCKED: ATOM     53  O   UNL d   1      13.500   5.876 -14.346 -0.10 +0.11    -0.481 OA
DOCKED: ATOM     54  H   UNL d   1      13.411   4.915 -14.173 -0.38 -0.16    +0.295 HD
DOCKED: ENDBRANCH  51  53
DOCKED: ENDBRANCH  50  51
DOCKED: ENDBRANCH  49  50
DOCKED: ENDBRANCH  22  49
DOCKED: TORSDOF 13
DOCKED: TER
DOCKED: ENDMDL
________________________________________________________________________________


	BEGINNING GENETIC ALGORITHM DOCKING 86 of 100
Run: 86 Seed: 78426969 1349500753 [ Run 86 of 100 GA/GALS ]
Beginning LAMARCKIAN GENETIC ALGORITHM (LGA), with a maximum of 25000000 energy evaluations.

Final-Value: -11.044


	FINAL GENETIC ALGORITHM DOCKED STATE
	_______________________________________________


Detailed state:  trans -6.183 11.460 -7.950 quatxyzw -0.499434 0.429998 -0.725060 0.199887 center 0.153 0.018 -0.028 ntor 13 -129.6425 0.6895 -179.6019 -125.1810 51.6330 -135.9085 -54.8077 -14.6423 161.0967 -127.0992 52.9236 -90.9537 -37.3834
State:	 -6.183  11.460  -7.950  -0.510  0.439 -0.740 156.939   -129.64    0.69 -179.60 -125.18   51.63 -135.91  -54.81  -14.64  161.10 -127.10   52.92  -90.95  -37.38

DOCKED: MODEL       86
DOCKED: USER    Run = 86
DOCKED: USER    DPF = D:/Protein_go_brrr/autodock/final/mut_N102T/heme/dock.dpf
DOCKED: USER  
DOCKED: USER    Estimated Free Energy of Binding    =   -5.09 kcal/mol  [=(1)+(2)+(3)-(4)]
DOCKED: USER    Estimated Inhibition Constant, Ki   =  186.60 uM (micromolar)  [Temperature = 298.15 K]
DOCKED: USER    
DOCKED: USER    (1) Final Intermolecular Energy     =   -8.97 kcal/mol
DOCKED: USER        vdW + Hbond + desolv Energy     =   -8.66 kcal/mol
DOCKED: USER        Electrostatic Energy            =   -0.31 kcal/mol
DOCKED: USER    (2) Final Total Internal Energy     =   -2.08 kcal/mol
DOCKED: USER    (3) Torsional Free Energy           =   +3.88 kcal/mol
DOCKED: USER    (4) Unbound System's Energy  [=(2)] =   -2.08 kcal/mol
DOCKED: USER    
DOCKED: USER    
DOCKED: USER    NEWDPF move heme_opt.pdbqt
DOCKED: USER    NEWDPF about 0.153000 0.018000 -0.028000
DOCKED: USER    NEWDPF tran0 -6.182778 11.460319 -7.950079
DOCKED: USER    NEWDPF quaternion0 -0.499434 0.429998 -0.725060 0.199887
DOCKED: USER    NEWDPF axisangle0 -0.509721 0.438855 -0.739994 156.939322
DOCKED: USER    NEWDPF quat0 -0.509721 0.438855 -0.739994 156.939322
DOCKED: USER    NEWDPF dihe0 -129.64 0.69 -179.60 -125.18 51.63 -135.91 -54.81 -14.64 161.10 -127.10 52.92 -90.95 -37.38 
DOCKED: USER  keepresnum = 1 
DOCKED: USER  
DOCKED: REMARK  13 active torsions:
DOCKED: REMARK  status: ('A' for Active; 'I' for Inactive)
DOCKED: REMARK    1  A    between atoms: O_3  and  C_38 
DOCKED: REMARK    2  A    between atoms: O_4  and  C_40 
DOCKED: REMARK    3  A    between atoms: O_7  and  C_46 
DOCKED: REMARK    4  A    between atoms: O_9  and  C_48 
DOCKED: REMARK    5  A    between atoms: C_15  and  C_20 
DOCKED: REMARK    6  A    between atoms: C_16  and  C_23 
DOCKED: REMARK    7  A    between atoms: C_20  and  C_38 
DOCKED: REMARK    8  A    between atoms: C_23  and  C_40 
DOCKED: REMARK    9  A    between atoms: C_32  and  C_41 
DOCKED: REMARK   10  A    between atoms: C_37  and  C_45 
DOCKED: REMARK   11  A    between atoms: C_41  and  C_44 
DOCKED: REMARK   12  A    between atoms: C_44  and  C_46 
DOCKED: REMARK   13  A    between atoms: C_47  and  C_48 
DOCKED: USER                              x       y       z     vdW  Elec       q    Type
DOCKED: USER                           _______ _______ _______ _____ _____    ______ ____
DOCKED: ROOT
DOCKED: ATOM      1  O   UNL d   1      -4.676  10.781 -13.609 -0.27 +0.08    -0.289 OA
DOCKED: ATOM      2  O   UNL d   1      -2.450  15.798  -8.484 -0.60 -0.05    -0.289 OA
DOCKED: ATOM      3  N   UNL d   1      -5.954  10.873 -10.407 -0.08 +0.01    -0.247 NA
DOCKED: ATOM      4  N   UNL d   1      -4.288  12.936  -9.066 -0.18 +0.01    -0.247 NA
DOCKED: ATOM      5  N   UNL d   1      -5.337  12.016  -6.552 -0.09 -0.00    -0.354 N 
DOCKED: ATOM      6  N   UNL d   1      -7.047   9.865  -7.950 -0.07 +0.01    -0.354 N 
DOCKED: ATOM      7  C   UNL d   1      -6.200   9.366 -12.324 -0.29 -0.02    +0.084 A 
DOCKED: ATOM      8  C   UNL d   1      -3.282  14.655 -10.482 -0.20 -0.01    +0.084 A 
DOCKED: ATOM      9  C   UNL d   1      -4.086  13.356 -10.362 -0.22 -0.01    +0.058 A 
DOCKED: ATOM     10  C   UNL d   1      -6.554   9.717 -10.876 -0.21 -0.01    +0.058 A 
DOCKED: ATOM     11  C   UNL d   1      -5.308  10.540 -12.597 -0.22 -0.03    +0.193 A 
DOCKED: ATOM     12  C   UNL d   1      -5.260  11.392 -11.367 -0.16 -0.01    +0.109 A 
DOCKED: ATOM     13  C   UNL d   1      -3.034  14.874  -9.017 -0.18 +0.00    +0.193 A 
DOCKED: ATOM     14  C   UNL d   1      -5.372   8.082 -12.418 -0.21 -0.01    +0.026 C 
DOCKED: ATOM     15  C   UNL d   1      -4.510  12.663 -11.430 -0.25 -0.01    +0.055 C 
DOCKED: ATOM     16  C   UNL d   1      -4.140  15.806 -11.014 -0.08 -0.00    +0.026 C 
DOCKED: ATOM     17  C   UNL d   1      -3.689  13.760  -8.267 -0.23 +0.00    +0.109 A 
DOCKED: ATOM     18  C   UNL d   1      -7.447   8.992 -10.175 -0.23 -0.01    +0.050 C 
DOCKED: ATOM     19  C   UNL d   1      -7.899   9.289  -8.864 -0.15 -0.00    +0.045 A 
DOCKED: ATOM     20  C   UNL d   1      -4.347  12.851  -6.103 -0.25 +0.00    +0.045 A 
DOCKED: ATOM     21  C   UNL d   1      -3.574  13.687  -6.803 -0.26 +0.00    +0.057 C 
DOCKED: ATOM     22  C   UNL d   1      -5.230  11.728  -4.320 -0.18 -0.00    -0.019 A 
DOCKED: ATOM     23  C   UNL d   1      -5.928  11.296  -5.548 -0.17 +0.00    +0.045 A 
DOCKED: ATOM     24  C   UNL d   1      -4.296  12.649  -4.655 -0.25 -0.00    -0.022 A 
DOCKED: ATOM     25  C   UNL d   1      -7.660   9.980  -6.723 -0.12 -0.00    +0.049 A 
DOCKED: ATOM     26  C   UNL d   1      -9.108   9.057  -8.226 -0.09 +0.00    -0.018 A 
DOCKED: ATOM     27  C   UNL d   1      -8.957   9.513  -6.881 -0.08 -0.00    +0.003 A 
DOCKED: ATOM     28  C   UNL d   1      -6.929  10.403  -5.580 +0.00 +0.00    +0.052 C 
DOCKED: ATOM     29  C   UNL d   1      -3.351  13.385  -3.767 -0.30 +0.02    +0.046 C 
DOCKED: ATOM     30  C   UNL d   1     -10.330   8.450  -8.828 -0.08 +0.00    +0.046 C 
DOCKED: ATOM     31  H   UNL d   1      -5.627  12.019  -7.524 +0.06 -0.00    +0.166 HD
DOCKED: ATOM     32  H   UNL d   1      -6.090  10.124  -8.161 +0.07 -0.00    +0.166 HD
DOCKED: ENDROOT
DOCKED: BRANCH   7  33
DOCKED: ATOM     33  C   UNL d   1      -7.379   9.348 -13.303 -0.23 -0.03    +0.141 C 
DOCKED: BRANCH  33  34
DOCKED: ATOM     34  C   UNL d   1      -7.169   8.392 -14.446 -0.27 -0.07    +0.306 C 
DOCKED: ATOM     35  O   UNL d   1      -7.714   7.311 -14.591 -0.26 +0.04    -0.251 OA
DOCKED: BRANCH  34  36
DOCKED: ATOM     36  O   UNL d   1      -6.283   8.850 -15.348 -0.16 +0.11    -0.481 OA
DOCKED: ATOM     37  H   UNL d   1      -5.519   9.154 -14.812 -0.31 -0.16    +0.295 HD
DOCKED: ENDBRANCH  34  36
DOCKED: ENDBRANCH  33  34
DOCKED: ENDBRANCH   7  33
DOCKED: BRANCH  27  38
DOCKED: ATOM     38  C   UNL d   1      -9.968   9.446  -5.869 -0.05 -0.00    +0.017 C 
DOCKED: ATOM     39  C   UNL d   1      -9.820   8.876  -4.663 -0.05 -0.00    +0.092 C 
DOCKED: BRANCH  39  40
DOCKED: ATOM     40  C   UNL d   1     -10.931   8.890  -3.707 -0.01 -0.00    +0.330 C 
DOCKED: ATOM     41  O   UNL d   1     -10.880   9.103  -2.511 -0.01 -0.00    -0.246 OA
DOCKED: BRANCH  40  42
DOCKED: ATOM     42  O   UNL d   1     -12.086   8.634  -4.339 +0.00 -0.00    -0.477 OA
DOCKED: ATOM     43  H   UNL d   1     -12.757   8.675  -3.627 +0.00 +0.00    +0.295 HD
DOCKED: ENDBRANCH  40  42
DOCKED: ENDBRANCH  39  40
DOCKED: ENDBRANCH  27  38
DOCKED: BRANCH   8  44
DOCKED: ATOM     44  C   UNL d   1      -1.962  14.545 -11.252 -0.21 -0.02    +0.141 C 
DOCKED: BRANCH  44  45
DOCKED: ATOM     45  C   UNL d   1      -1.178  15.830 -11.273 -0.16 -0.03    +0.306 C 
DOCKED: ATOM     46  O   UNL d   1      -1.143  16.646 -12.178 -0.08 +0.00    -0.251 OA
DOCKED: BRANCH  45  47
DOCKED: ATOM     47  O   UNL d   1      -0.452  16.008 -10.155 -0.12 +0.13    -0.481 OA
DOCKED: ATOM     48  H   UNL d   1      -0.646  15.219  -9.605 -0.35 -0.11    +0.295 HD
DOCKED: ENDBRANCH  45  47
DOCKED: ENDBRANCH  44  45
DOCKED: ENDBRANCH   8  44
DOCKED: BRANCH  22  49
DOCKED: ATOM     49  C   UNL d   1      -5.528  11.194  -2.950 -0.14 +0.01    +0.048 C 
DOCKED: BRANCH  49  50
DOCKED: ATOM     50  C   UNL d   1      -5.955  12.302  -1.988 -0.12 +0.03    +0.125 C 
DOCKED: BRANCH  50  51
DOCKED: ATOM     51  C   UNL d   1      -5.109  12.291  -0.747 -0.04 +0.15    +0.305 C 
DOCKED: ATOM     52  O   UNL d   1      -4.448  11.367  -0.306 -0.53 -0.15    -0.251 OA
DOCKED: BRANCH  51  53
DOCKED: ATOM     53  O   UNL d   1      -5.148  13.473  -0.100 -0.03 -0.26    -0.481 OA
DOCKED: ATOM     54  H   UNL d   1      -6.104  13.636   0.040 +0.05 +0.08    +0.295 HD
DOCKED: ENDBRANCH  51  53
DOCKED: ENDBRANCH  50  51
DOCKED: ENDBRANCH  49  50
DOCKED: ENDBRANCH  22  49
DOCKED: TORSDOF 13
DOCKED: TER
DOCKED: ENDMDL
________________________________________________________________________________


	BEGINNING GENETIC ALGORITHM DOCKING 87 of 100
Run: 87 Seed: 51773959 52655414 [ Run 87 of 100 GA/GALS ]
Beginning LAMARCKIAN GENETIC ALGORITHM (LGA), with a maximum of 25000000 energy evaluations.

Final-Value: -10.910


	FINAL GENETIC ALGORITHM DOCKED STATE
	_______________________________________________


Detailed state:  trans 14.897 5.646 13.632 quatxyzw 0.665497 0.327558 -0.372471 0.557749 center 0.153 0.018 -0.028 ntor 13 82.0475 147.2643 -168.0481 33.3884 -169.5858 126.8450 139.0298 41.9986 99.4180 -9.2480 -87.5232 -118.2618 3.8529
State:	 14.897   5.646  13.632   0.802  0.395 -0.449 112.199     82.05  147.26 -168.05   33.39 -169.59  126.85  139.03   42.00   99.42   -9.25  -87.52 -118.26    3.85

DOCKED: MODEL       87
DOCKED: USER    Run = 87
DOCKED: USER    DPF = D:/Protein_go_brrr/autodock/final/mut_N102T/heme/dock.dpf
DOCKED: USER  
DOCKED: USER    Estimated Free Energy of Binding    =   -2.52 kcal/mol  [=(1)+(2)+(3)-(4)]
DOCKED: USER    Estimated Inhibition Constant, Ki   =   14.30 mM (millimolar)  [Temperature = 298.15 K]
DOCKED: USER    
DOCKED: USER    (1) Final Intermolecular Energy     =   -6.39 kcal/mol
DOCKED: USER        vdW + Hbond + desolv Energy     =   -6.10 kcal/mol
DOCKED: USER        Electrostatic Energy            =   -0.29 kcal/mol
DOCKED: USER    (2) Final Total Internal Energy     =   -4.52 kcal/mol
DOCKED: USER    (3) Torsional Free Energy           =   +3.88 kcal/mol
DOCKED: USER    (4) Unbound System's Energy  [=(2)] =   -4.52 kcal/mol
DOCKED: USER    
DOCKED: USER    
DOCKED: USER    NEWDPF move heme_opt.pdbqt
DOCKED: USER    NEWDPF about 0.153000 0.018000 -0.028000
DOCKED: USER    NEWDPF tran0 14.896975 5.646189 13.632367
DOCKED: USER    NEWDPF quaternion0 0.665497 0.327558 -0.372471 0.557749
DOCKED: USER    NEWDPF axisangle0 0.801795 0.394644 -0.448755 112.199405
DOCKED: USER    NEWDPF quat0 0.801795 0.394644 -0.448755 112.199405
DOCKED: USER    NEWDPF dihe0 82.05 147.26 -168.05 33.39 -169.59 126.85 139.03 42.00 99.42 -9.25 -87.52 -118.26 3.85 
DOCKED: USER  keepresnum = 1 
DOCKED: USER  
DOCKED: REMARK  13 active torsions:
DOCKED: REMARK  status: ('A' for Active; 'I' for Inactive)
DOCKED: REMARK    1  A    between atoms: O_3  and  C_38 
DOCKED: REMARK    2  A    between atoms: O_4  and  C_40 
DOCKED: REMARK    3  A    between atoms: O_7  and  C_46 
DOCKED: REMARK    4  A    between atoms: O_9  and  C_48 
DOCKED: REMARK    5  A    between atoms: C_15  and  C_20 
DOCKED: REMARK    6  A    between atoms: C_16  and  C_23 
DOCKED: REMARK    7  A    between atoms: C_20  and  C_38 
DOCKED: REMARK    8  A    between atoms: C_23  and  C_40 
DOCKED: REMARK    9  A    between atoms: C_32  and  C_41 
DOCKED: REMARK   10  A    between atoms: C_37  and  C_45 
DOCKED: REMARK   11  A    between atoms: C_41  and  C_44 
DOCKED: REMARK   12  A    between atoms: C_44  and  C_46 
DOCKED: REMARK   13  A    between atoms: C_47  and  C_48 
DOCKED: USER                              x       y       z     vdW  Elec       q    Type
DOCKED: USER                           _______ _______ _______ _____ _____    ______ ____
DOCKED: ROOT
DOCKED: ATOM      1  O   UNL d   1      11.523   0.916  12.633 -0.08 -0.09    -0.289 OA
DOCKED: ATOM      2  O   UNL d   1      14.808   3.388  18.917 -0.01 -0.11    -0.289 OA
DOCKED: ATOM      3  N   UNL d   1      13.549   3.706  12.709 -0.13 -0.09    -0.247 NA
DOCKED: ATOM      4  N   UNL d   1      14.115   4.061  15.604 -0.02 -0.19    -0.247 NA
DOCKED: ATOM      5  N   UNL d   1      15.115   6.686  14.993 -0.05 -0.19    -0.354 N 
DOCKED: ATOM      6  N   UNL d   1      14.506   6.318  11.993 -0.14 -0.10    -0.354 N 
DOCKED: ATOM      7  C   UNL d   1      12.138   2.639  11.012 -0.31 +0.02    +0.084 A 
DOCKED: ATOM      8  C   UNL d   1      14.012   2.069  17.015 -0.05 +0.03    +0.084 A 
DOCKED: ATOM      9  C   UNL d   1      13.804   2.720  15.644 -0.10 +0.03    +0.058 A 
DOCKED: ATOM     10  C   UNL d   1      13.090   3.773  11.404 -0.27 +0.02    +0.058 A 
DOCKED: ATOM     11  C   UNL d   1      12.154   1.909  12.321 -0.13 +0.06    +0.193 A 
DOCKED: ATOM     12  C   UNL d   1      13.065   2.640  13.258 -0.14 +0.04    +0.109 A 
DOCKED: ATOM     13  C   UNL d   1      14.463   3.296  17.755 -0.05 +0.10    +0.193 A 
DOCKED: ATOM     14  C   UNL d   1      10.719   3.147  10.745 -0.53 +0.01    +0.026 C 
DOCKED: ATOM     15  C   UNL d   1      13.312   2.051  14.590 -0.12 +0.02    +0.055 C 
DOCKED: ATOM     16  C   UNL d   1      15.161   1.056  16.995 -0.01 +0.01    +0.026 C 
DOCKED: ATOM     17  C   UNL d   1      14.476   4.436  16.789 -0.02 +0.09    +0.109 A 
DOCKED: ATOM     18  C   UNL d   1      13.499   4.690  10.506 -0.18 +0.01    +0.050 C 
DOCKED: ATOM     19  C   UNL d   1      14.440   5.721  10.755 -0.28 +0.01    +0.045 A 
DOCKED: ATOM     20  C   UNL d   1      15.091   6.756  16.361 -0.02 +0.03    +0.045 A 
DOCKED: ATOM     21  C   UNL d   1      14.838   5.786  17.246 -0.05 +0.05    +0.057 C 
DOCKED: ATOM     22  C   UNL d   1      15.603   8.819  15.526 -0.08 -0.01    -0.019 A 
DOCKED: ATOM     23  C   UNL d   1      15.415   7.883  14.399 -0.13 +0.02    +0.045 A 
DOCKED: ATOM     24  C   UNL d   1      15.412   8.146  16.684 -0.07 -0.01    -0.022 A 
DOCKED: ATOM     25  C   UNL d   1      15.418   7.347  11.986 -0.20 +0.01    +0.049 A 
DOCKED: ATOM     26  C   UNL d   1      15.358   6.355   9.932 -0.22 -0.00    -0.018 A 
DOCKED: ATOM     27  C   UNL d   1      15.987   7.367  10.720 -0.18 +0.00    +0.003 A 
DOCKED: ATOM     28  C   UNL d   1      15.550   8.213  13.106 -0.18 +0.01    +0.052 C 
DOCKED: ATOM     29  C   UNL d   1      15.503   8.652  18.084 -0.03 +0.01    +0.046 C 
DOCKED: ATOM     30  C   UNL d   1      15.639   6.039   8.502 -0.03 +0.01    +0.046 C 
DOCKED: ATOM     31  H   UNL d   1      14.998   5.802  14.509 +0.03 +0.09    +0.166 HD
DOCKED: ATOM     32  H   UNL d   1      13.924   6.048  12.777 +0.05 +0.08    +0.166 HD
DOCKED: ENDROOT
DOCKED: BRANCH   7  33
DOCKED: ATOM     33  C   UNL d   1      12.631   1.728   9.882 -0.25 +0.04    +0.141 C 
DOCKED: BRANCH  33  34
DOCKED: ATOM     34  C   UNL d   1      12.166   0.306  10.041 -0.14 +0.13    +0.306 C 
DOCKED: ATOM     35  O   UNL d   1      12.876  -0.667  10.231 -0.07 -0.13    -0.251 OA
DOCKED: BRANCH  34  36
DOCKED: ATOM     36  O   UNL d   1      10.830   0.185   9.954 -0.67 -0.30    -0.481 OA
DOCKED: ATOM     37  H   UNL d   1      10.527   0.118  10.885 +0.13 +0.14    +0.295 HD
DOCKED: ENDBRANCH  34  36
DOCKED: ENDBRANCH  33  34
DOCKED: ENDBRANCH   7  33
DOCKED: BRANCH  27  38
DOCKED: ATOM     38  C   UNL d   1      16.995   8.271  10.252 -0.11 +0.00    +0.017 C 
DOCKED: ATOM     39  C   UNL d   1      16.777   9.533   9.851 -0.11 +0.01    +0.092 C 
DOCKED: BRANCH  39  40
DOCKED: ATOM     40  C   UNL d   1      17.901  10.362   9.409 -0.03 +0.03    +0.330 C 
DOCKED: ATOM     41  O   UNL d   1      18.022  10.947   8.349 -0.02 -0.02    -0.246 OA
DOCKED: BRANCH  40  42
DOCKED: ATOM     42  O   UNL d   1      18.839  10.417  10.367 -0.00 -0.03    -0.477 OA
DOCKED: ATOM     43  H   UNL d   1      18.326  10.373  11.200 +0.02 +0.02    +0.295 HD
DOCKED: ENDBRANCH  40  42
DOCKED: ENDBRANCH  39  40
DOCKED: ENDBRANCH  27  38
DOCKED: BRANCH   8  44
DOCKED: ATOM     44  C   UNL d   1      12.756   1.470  17.659 -0.07 +0.06    +0.141 C 
DOCKED: BRANCH  44  45
DOCKED: ATOM     45  C   UNL d   1      11.659   2.478  17.870 -0.15 +0.24    +0.306 C 
DOCKED: ATOM     46  O   UNL d   1      10.724   2.702  17.121 -0.70 -0.23    -0.251 OA
DOCKED: BRANCH  45  47
DOCKED: ATOM     47  O   UNL d   1      11.813   3.176  19.010 -0.11 -0.39    -0.481 OA
DOCKED: ATOM     48  H   UNL d   1      12.718   2.955  19.315 +0.04 +0.17    +0.295 HD
DOCKED: ENDBRANCH  45  47
DOCKED: ENDBRANCH  44  45
DOCKED: ENDBRANCH   8  44
DOCKED: BRANCH  22  49
DOCKED: ATOM     49  C   UNL d   1      15.935  10.274  15.366 -0.06 +0.01    +0.048 C 
DOCKED: BRANCH  49  50
DOCKED: ATOM     50  C   UNL d   1      17.421  10.490  15.079 -0.02 +0.01    +0.125 C 
DOCKED: BRANCH  50  51
DOCKED: ATOM     51  C   UNL d   1      17.679  10.553  13.601 -0.02 +0.03    +0.305 C 
DOCKED: ATOM     52  O   UNL d   1      16.963  11.036  12.741 -0.05 -0.03    -0.251 OA
DOCKED: BRANCH  51  53
DOCKED: ATOM     53  O   UNL d   1      18.852   9.977  13.268 +0.00 -0.04    -0.481 OA
DOCKED: ATOM     54  H   UNL d   1      19.167  10.502  12.503 +0.01 +0.02    +0.295 HD
DOCKED: ENDBRANCH  51  53
DOCKED: ENDBRANCH  50  51
DOCKED: ENDBRANCH  49  50
DOCKED: ENDBRANCH  22  49
DOCKED: TORSDOF 13
DOCKED: TER
DOCKED: ENDMDL
________________________________________________________________________________


	BEGINNING GENETIC ALGORITHM DOCKING 88 of 100
Run: 88 Seed: 1474898036 153808421 [ Run 88 of 100 GA/GALS ]
Beginning LAMARCKIAN GENETIC ALGORITHM (LGA), with a maximum of 25000000 energy evaluations.

Final-Value: -13.747


	FINAL GENETIC ALGORITHM DOCKED STATE
	_______________________________________________


Detailed state:  trans 5.658 14.087 -12.250 quatxyzw -0.534018 -0.462424 0.668752 0.231862 center 0.153 0.018 -0.028 ntor 13 72.1594 174.8758 132.8245 114.8810 -139.6486 0.4636 -52.1331 153.3238 56.9504 -155.5249 -46.5253 -81.3594 46.4604
State:	  5.658  14.087 -12.250  -0.549 -0.475  0.687 153.187     72.16  174.88  132.82  114.88 -139.65    0.46  -52.13  153.32   56.95 -155.52  -46.53  -81.36   46.46

DOCKED: MODEL       88
DOCKED: USER    Run = 88
DOCKED: USER    DPF = D:/Protein_go_brrr/autodock/final/mut_N102T/heme/dock.dpf
DOCKED: USER  
DOCKED: USER    Estimated Free Energy of Binding    =   -6.94 kcal/mol  [=(1)+(2)+(3)-(4)]
DOCKED: USER    Estimated Inhibition Constant, Ki   =    8.12 uM (micromolar)  [Temperature = 298.15 K]
DOCKED: USER    
DOCKED: USER    (1) Final Intermolecular Energy     =  -10.82 kcal/mol
DOCKED: USER        vdW + Hbond + desolv Energy     =  -10.39 kcal/mol
DOCKED: USER        Electrostatic Energy            =   -0.43 kcal/mol
DOCKED: USER    (2) Final Total Internal Energy     =   -2.92 kcal/mol
DOCKED: USER    (3) Torsional Free Energy           =   +3.88 kcal/mol
DOCKED: USER    (4) Unbound System's Energy  [=(2)] =   -2.92 kcal/mol
DOCKED: USER    
DOCKED: USER    
DOCKED: USER    NEWDPF move heme_opt.pdbqt
DOCKED: USER    NEWDPF about 0.153000 0.018000 -0.028000
DOCKED: USER    NEWDPF tran0 5.658409 14.086765 -12.250329
DOCKED: USER    NEWDPF quaternion0 -0.534018 -0.462424 0.668752 0.231862
DOCKED: USER    NEWDPF axisangle0 -0.548978 -0.475379 0.687487 153.186595
DOCKED: USER    NEWDPF quat0 -0.548978 -0.475379 0.687487 153.186595
DOCKED: USER    NEWDPF dihe0 72.16 174.88 132.82 114.88 -139.65 0.46 -52.13 153.32 56.95 -155.52 -46.53 -81.36 46.46 
DOCKED: USER  keepresnum = 1 
DOCKED: USER  
DOCKED: REMARK  13 active torsions:
DOCKED: REMARK  status: ('A' for Active; 'I' for Inactive)
DOCKED: REMARK    1  A    between atoms: O_3  and  C_38 
DOCKED: REMARK    2  A    between atoms: O_4  and  C_40 
DOCKED: REMARK    3  A    between atoms: O_7  and  C_46 
DOCKED: REMARK    4  A    between atoms: O_9  and  C_48 
DOCKED: REMARK    5  A    between atoms: C_15  and  C_20 
DOCKED: REMARK    6  A    between atoms: C_16  and  C_23 
DOCKED: REMARK    7  A    between atoms: C_20  and  C_38 
DOCKED: REMARK    8  A    between atoms: C_23  and  C_40 
DOCKED: REMARK    9  A    between atoms: C_32  and  C_41 
DOCKED: REMARK   10  A    between atoms: C_37  and  C_45 
DOCKED: REMARK   11  A    between atoms: C_41  and  C_44 
DOCKED: REMARK   12  A    between atoms: C_44  and  C_46 
DOCKED: REMARK   13  A    between atoms: C_47  and  C_48 
DOCKED: USER                              x       y       z     vdW  Elec       q    Type
DOCKED: USER                           _______ _______ _______ _____ _____    ______ ____
DOCKED: ROOT
DOCKED: ATOM      1  O   UNL d   1       8.500  11.709  -7.665 -0.63 +0.23    -0.289 OA
DOCKED: ATOM      2  O   UNL d   1       3.407  17.219  -7.989 -0.12 +0.08    -0.289 OA
DOCKED: ATOM      3  N   UNL d   1       7.194  12.873 -10.637 -0.17 +0.09    -0.247 NA
DOCKED: ATOM      4  N   UNL d   1       5.093  14.782  -9.759 -0.17 +0.11    -0.247 NA
DOCKED: ATOM      5  N   UNL d   1       4.086  14.770 -12.452 +0.12 +0.18    -0.354 N 
DOCKED: ATOM      6  N   UNL d   1       6.257  12.774 -13.350 -0.13 +0.17    -0.354 N 
DOCKED: ATOM      7  C   UNL d   1       8.682  11.031 -10.006 -0.28 -0.03    +0.084 A 
DOCKED: ATOM      8  C   UNL d   1       5.378  15.829  -7.569 -0.19 -0.04    +0.084 A 
DOCKED: ATOM      9  C   UNL d   1       5.854  14.812  -8.612 -0.25 -0.03    +0.058 A 
DOCKED: ATOM     10  C   UNL d   1       7.935  11.799 -11.100 -0.26 -0.02    +0.058 A 
DOCKED: ATOM     11  C   UNL d   1       8.247  11.872  -8.844 -0.02 -0.08    +0.193 A 
DOCKED: ATOM     12  C   UNL d   1       7.369  12.971  -9.359 -0.16 -0.04    +0.109 A 
DOCKED: ATOM     13  C   UNL d   1       4.184  16.345  -8.321 -0.17 -0.07    +0.193 A 
DOCKED: ATOM     14  C   UNL d   1       8.135   9.613  -9.823 -0.46 -0.01    +0.026 C 
DOCKED: ATOM     15  C   UNL d   1       6.892  13.988  -8.400 -0.10 -0.03    +0.055 C 
DOCKED: ATOM     16  C   UNL d   1       6.381  16.974  -7.393 -0.07 -0.01    +0.026 C 
DOCKED: ATOM     17  C   UNL d   1       4.119  15.624  -9.629 -0.23 -0.04    +0.109 A 
DOCKED: ATOM     18  C   UNL d   1       8.080  11.487 -12.402 -0.26 -0.01    +0.050 C 
DOCKED: ATOM     19  C   UNL d   1       7.497  12.192 -13.486 -0.20 -0.02    +0.045 A 
DOCKED: ATOM     20  C   UNL d   1       3.074  15.450 -11.825 -0.22 -0.02    +0.045 A 
DOCKED: ATOM     21  C   UNL d   1       3.018  15.894 -10.565 -0.22 -0.02    +0.057 C 
DOCKED: ATOM     22  C   UNL d   1       2.454  15.028 -13.983 -0.29 +0.00    -0.019 A 
DOCKED: ATOM     23  C   UNL d   1       3.803  14.470 -13.758 -0.25 -0.02    +0.045 A 
DOCKED: ATOM     24  C   UNL d   1       2.029  15.607 -12.835 -0.27 +0.00    -0.022 A 
DOCKED: ATOM     25  C   UNL d   1       5.846  13.322 -14.543 -0.22 -0.02    +0.049 A 
DOCKED: ATOM     26  C   UNL d   1       7.919  12.399 -14.790 -0.14 +0.01    -0.018 A 
DOCKED: ATOM     27  C   UNL d   1       6.882  13.130 -15.447 -0.13 -0.00    +0.003 A 
DOCKED: ATOM     28  C   UNL d   1       4.532  13.842 -14.693 -0.30 -0.02    +0.052 C 
DOCKED: ATOM     29  C   UNL d   1       0.743  16.312 -12.567 -0.21 -0.00    +0.046 C 
DOCKED: ATOM     30  C   UNL d   1       9.208  11.948 -15.391 -0.11 -0.01    +0.046 C 
DOCKED: ATOM     31  H   UNL d   1       4.970  14.596 -11.986 -0.33 -0.10    +0.166 HD
DOCKED: ATOM     32  H   UNL d   1       5.719  12.753 -12.491 -0.42 -0.12    +0.166 HD
DOCKED: ENDROOT
DOCKED: BRANCH   7  33
DOCKED: ATOM     33  C   UNL d   1      10.210  11.032 -10.128 -0.19 -0.05    +0.141 C 
DOCKED: BRANCH  33  34
DOCKED: ATOM     34  C   UNL d   1      10.869  11.955  -9.140 -0.08 -0.14    +0.306 C 
DOCKED: ATOM     35  O   UNL d   1      11.062  13.150  -9.288 -0.04 +0.11    -0.251 OA
DOCKED: BRANCH  34  36
DOCKED: ATOM     36  O   UNL d   1      11.249  11.324  -8.015 -0.24 +0.30    -0.481 OA
DOCKED: ATOM     37  H   UNL d   1      10.644  11.668  -7.323 -0.28 -0.44    +0.295 HD
DOCKED: ENDBRANCH  34  36
DOCKED: ENDBRANCH  33  34
DOCKED: ENDBRANCH   7  33
DOCKED: BRANCH  27  38
DOCKED: ATOM     38  C   UNL d   1       6.904  13.541 -16.819 -0.09 -0.01    +0.017 C 
DOCKED: ATOM     39  C   UNL d   1       5.878  13.431 -17.677 +0.00 -0.07    +0.092 C 
DOCKED: BRANCH  39  40
DOCKED: ATOM     40  C   UNL d   1       6.024  13.908 -19.054 -0.04 -0.11    +0.330 C 
DOCKED: ATOM     41  O   UNL d   1       6.994  14.445 -19.556 -0.01 +0.04    -0.246 OA
DOCKED: BRANCH  40  42
DOCKED: ATOM     42  O   UNL d   1       4.903  13.664 -19.749 -0.03 +0.12    -0.477 OA
DOCKED: ATOM     43  H   UNL d   1       4.347  13.153 -19.125 +0.06 -0.13    +0.295 HD
DOCKED: ENDBRANCH  40  42
DOCKED: ENDBRANCH  39  40
DOCKED: ENDBRANCH  27  38
DOCKED: BRANCH   8  44
DOCKED: ATOM     44  C   UNL d   1       4.964  15.243  -6.216 -0.27 -0.09    +0.141 C 
DOCKED: BRANCH  44  45
DOCKED: ATOM     45  C   UNL d   1       5.086  16.224  -5.080 -0.12 -0.17    +0.306 C 
DOCKED: ATOM     46  O   UNL d   1       6.024  16.331  -4.310 -0.09 +0.17    -0.251 OA
DOCKED: BRANCH  45  47
DOCKED: ATOM     47  O   UNL d   1       3.998  17.006  -4.957 -0.47 +0.11    -0.481 OA
DOCKED: ATOM     48  H   UNL d   1       3.819  17.327  -5.866 +0.07 -0.06    +0.295 HD
DOCKED: ENDBRANCH  45  47
DOCKED: ENDBRANCH  44  45
DOCKED: ENDBRANCH   8  44
DOCKED: BRANCH  22  49
DOCKED: ATOM     49  C   UNL d   1       1.708  14.930 -15.281 -0.27 +0.01    +0.048 C 
DOCKED: BRANCH  49  50
DOCKED: ATOM     50  C   UNL d   1       2.641  15.064 -16.485 -0.25 +0.00    +0.125 C 
DOCKED: BRANCH  50  51
DOCKED: ATOM     51  C   UNL d   1       2.341  14.013 -17.515 -0.27 +0.01    +0.305 C 
DOCKED: ATOM     52  O   UNL d   1       2.441  14.110 -18.726 -0.21 -0.02    -0.251 OA
DOCKED: BRANCH  51  53
DOCKED: ATOM     53  O   UNL d   1       1.907  12.867 -16.955 -0.41 +0.02    -0.481 OA
DOCKED: ATOM     54  H   UNL d   1       2.680  12.542 -16.448 -0.31 -0.15    +0.295 HD
DOCKED: ENDBRANCH  51  53
DOCKED: ENDBRANCH  50  51
DOCKED: ENDBRANCH  49  50
DOCKED: ENDBRANCH  22  49
DOCKED: TORSDOF 13
DOCKED: TER
DOCKED: ENDMDL
________________________________________________________________________________


	BEGINNING GENETIC ALGORITHM DOCKING 89 of 100
Run: 89 Seed: 1367334286 994270019 [ Run 89 of 100 GA/GALS ]
Beginning LAMARCKIAN GENETIC ALGORITHM (LGA), with a maximum of 25000000 energy evaluations.

Final-Value: -12.164


	FINAL GENETIC ALGORITHM DOCKED STATE
	_______________________________________________


Detailed state:  trans -5.504 7.533 17.122 quatxyzw 0.867345 -0.434190 0.212876 -0.117795 center 0.153 0.018 -0.028 ntor 13 -79.1787 -103.6913 180.0000 134.4614 32.8670 -14.1799 142.2310 -59.9352 130.4123 -16.8512 -122.7970 -47.5129 -8.0555
State:	 -5.504   7.533  17.122   0.873 -0.437  0.214 -166.470    -79.18 -103.69  180.00  134.46   32.87  -14.18  142.23  -59.94  130.41  -16.85 -122.80  -47.51   -8.06

DOCKED: MODEL       89
DOCKED: USER    Run = 89
DOCKED: USER    DPF = D:/Protein_go_brrr/autodock/final/mut_N102T/heme/dock.dpf
DOCKED: USER  
DOCKED: USER    Estimated Free Energy of Binding    =   -4.48 kcal/mol  [=(1)+(2)+(3)-(4)]
DOCKED: USER    Estimated Inhibition Constant, Ki   =  522.95 uM (micromolar)  [Temperature = 298.15 K]
DOCKED: USER    
DOCKED: USER    (1) Final Intermolecular Energy     =   -8.35 kcal/mol
DOCKED: USER        vdW + Hbond + desolv Energy     =   -8.23 kcal/mol
DOCKED: USER        Electrostatic Energy            =   -0.12 kcal/mol
DOCKED: USER    (2) Final Total Internal Energy     =   -3.81 kcal/mol
DOCKED: USER    (3) Torsional Free Energy           =   +3.88 kcal/mol
DOCKED: USER    (4) Unbound System's Energy  [=(2)] =   -3.81 kcal/mol
DOCKED: USER    
DOCKED: USER    
DOCKED: USER    NEWDPF move heme_opt.pdbqt
DOCKED: USER    NEWDPF about 0.153000 0.018000 -0.028000
DOCKED: USER    NEWDPF tran0 -5.503865 7.533438 17.122339
DOCKED: USER    NEWDPF quaternion0 0.867345 -0.434190 0.212876 -0.117795
DOCKED: USER    NEWDPF axisangle0 0.873426 -0.437234 0.214368 -166.470268
DOCKED: USER    NEWDPF quat0 0.873426 -0.437234 0.214368 -166.470268
DOCKED: USER    NEWDPF dihe0 -79.18 -103.69 180.00 134.46 32.87 -14.18 142.23 -59.94 130.41 -16.85 -122.80 -47.51 -8.06 
DOCKED: USER  keepresnum = 1 
DOCKED: USER  
DOCKED: REMARK  13 active torsions:
DOCKED: REMARK  status: ('A' for Active; 'I' for Inactive)
DOCKED: REMARK    1  A    between atoms: O_3  and  C_38 
DOCKED: REMARK    2  A    between atoms: O_4  and  C_40 
DOCKED: REMARK    3  A    between atoms: O_7  and  C_46 
DOCKED: REMARK    4  A    between atoms: O_9  and  C_48 
DOCKED: REMARK    5  A    between atoms: C_15  and  C_20 
DOCKED: REMARK    6  A    between atoms: C_16  and  C_23 
DOCKED: REMARK    7  A    between atoms: C_20  and  C_38 
DOCKED: REMARK    8  A    between atoms: C_23  and  C_40 
DOCKED: REMARK    9  A    between atoms: C_32  and  C_41 
DOCKED: REMARK   10  A    between atoms: C_37  and  C_45 
DOCKED: REMARK   11  A    between atoms: C_41  and  C_44 
DOCKED: REMARK   12  A    between atoms: C_44  and  C_46 
DOCKED: REMARK   13  A    between atoms: C_47  and  C_48 
DOCKED: USER                              x       y       z     vdW  Elec       q    Type
DOCKED: USER                           _______ _______ _______ _____ _____    ______ ____
DOCKED: ROOT
DOCKED: ATOM      1  O   UNL d   1      -9.675  10.221  13.938 -0.10 -0.00    -0.289 OA
DOCKED: ATOM      2  O   UNL d   1      -3.447  12.900  17.167 -0.16 +0.06    -0.289 OA
DOCKED: ATOM      3  N   UNL d   1      -7.571   8.265  15.848 -0.16 +0.00    -0.247 NA
DOCKED: ATOM      4  N   UNL d   1      -5.287  10.078  16.422 -0.11 +0.04    -0.247 NA
DOCKED: ATOM      5  N   UNL d   1      -3.805   7.779  17.308 -0.11 +0.08    -0.354 N 
DOCKED: ATOM      6  N   UNL d   1      -6.172   5.903  16.691 -0.16 +0.01    -0.354 N 
DOCKED: ATOM      7  C   UNL d   1      -9.552   7.838  14.469 -0.23 +0.00    +0.084 A 
DOCKED: ATOM      8  C   UNL d   1      -5.737  12.480  16.411 -0.07 -0.01    +0.084 A 
DOCKED: ATOM      9  C   UNL d   1      -6.229  11.050  16.166 -0.11 -0.01    +0.058 A 
DOCKED: ATOM     10  C   UNL d   1      -8.443   7.298  15.377 -0.25 +0.00    +0.058 A 
DOCKED: ATOM     11  C   UNL d   1      -9.164   9.285  14.525 -0.12 +0.00    +0.193 A 
DOCKED: ATOM     12  C   UNL d   1      -7.965   9.418  15.413 -0.10 -0.00    +0.109 A 
DOCKED: ATOM     13  C   UNL d   1      -4.330  12.142  16.817 -0.12 -0.04    +0.193 A 
DOCKED: ATOM     14  C   UNL d   1      -9.407   7.342  13.028 -0.37 +0.00    +0.026 C 
DOCKED: ATOM     15  C   UNL d   1      -7.455  10.775  15.694 -0.12 -0.00    +0.055 C 
DOCKED: ATOM     16  C   UNL d   1      -6.450  13.130  17.600 -0.03 -0.00    +0.026 C 
DOCKED: ATOM     17  C   UNL d   1      -4.184  10.655  16.776 -0.16 -0.03    +0.109 A 
DOCKED: ATOM     18  C   UNL d   1      -8.400   6.002  15.740 -0.07 +0.01    +0.050 C 
DOCKED: ATOM     19  C   UNL d   1      -7.464   5.431  16.640 -0.21 +0.00    +0.045 A 
DOCKED: ATOM     20  C   UNL d   1      -2.803   8.714  17.292 -0.02 -0.02    +0.045 A 
DOCKED: ATOM     21  C   UNL d   1      -2.889  10.032  17.086 -0.07 -0.02    +0.057 C 
DOCKED: ATOM     22  C   UNL d   1      -1.892   6.662  17.713 -0.31 +0.00    -0.019 A 
DOCKED: ATOM     23  C   UNL d   1      -3.352   6.510  17.554 -0.31 -0.01    +0.045 A 
DOCKED: ATOM     24  C   UNL d   1      -1.573   7.968  17.558 -0.26 +0.01    -0.022 A 
DOCKED: ATOM     25  C   UNL d   1      -5.417   5.151  17.561 -0.28 -0.00    +0.049 A 
DOCKED: ATOM     26  C   UNL d   1      -7.561   4.369  17.526 -0.19 -0.00    -0.018 A 
DOCKED: ATOM     27  C   UNL d   1      -6.270   4.209  18.119 -0.21 +0.00    +0.003 A 
DOCKED: ATOM     28  C   UNL d   1      -4.013   5.348  17.665 -0.36 -0.01    +0.052 C 
DOCKED: ATOM     29  C   UNL d   1      -0.234   8.618  17.640 -0.37 -0.02    +0.046 C 
DOCKED: ATOM     30  C   UNL d   1      -8.776   3.552  17.807 -0.13 +0.01    +0.046 C 
DOCKED: ATOM     31  H   UNL d   1      -4.779   8.051  17.224 +0.06 -0.03    +0.166 HD
DOCKED: ATOM     32  H   UNL d   1      -5.835   6.674  16.127 +0.01 -0.02    +0.166 HD
DOCKED: ENDROOT
DOCKED: BRANCH   7  33
DOCKED: ATOM     33  C   UNL d   1     -10.980   7.644  14.990 -0.08 +0.00    +0.141 C 
DOCKED: BRANCH  33  34
DOCKED: ATOM     34  C   UNL d   1     -12.016   8.236  14.074 -0.02 -0.00    +0.306 C 
DOCKED: ATOM     35  O   UNL d   1     -12.536   7.682  13.120 -0.03 +0.00    -0.251 OA
DOCKED: BRANCH  34  36
DOCKED: ATOM     36  O   UNL d   1     -12.345   9.496  14.410 +0.01 +0.01    -0.481 OA
DOCKED: ATOM     37  H   UNL d   1     -11.812  10.059  13.808 +0.03 -0.01    +0.295 HD
DOCKED: ENDBRANCH  34  36
DOCKED: ENDBRANCH  33  34
DOCKED: ENDBRANCH   7  33
DOCKED: BRANCH  27  38
DOCKED: ATOM     38  C   UNL d   1      -5.924   3.210  19.084 -0.17 +0.00    +0.017 C 
DOCKED: ATOM     39  C   UNL d   1      -4.677   2.924  19.489 -0.05 -0.01    +0.092 C 
DOCKED: BRANCH  39  40
DOCKED: ATOM     40  C   UNL d   1      -4.458   1.886  20.500 -0.08 -0.09    +0.330 C 
DOCKED: ATOM     41  O   UNL d   1      -5.278   1.396  21.253 -0.04 +0.04    -0.246 OA
DOCKED: BRANCH  40  42
DOCKED: ATOM     42  O   UNL d   1      -3.171   1.505  20.499 -0.10 +0.40    -0.477 OA
DOCKED: ATOM     43  H   UNL d   1      -2.709   2.237  20.958 -0.33 -0.39    +0.295 HD
DOCKED: ENDBRANCH  40  42
DOCKED: ENDBRANCH  39  40
DOCKED: ENDBRANCH  27  38
DOCKED: BRANCH   8  44
DOCKED: ATOM     44  C   UNL d   1      -5.748  13.401  15.186 -0.11 -0.02    +0.141 C 
DOCKED: BRANCH  44  45
DOCKED: ATOM     45  C   UNL d   1      -4.767  12.987  14.122 -0.18 -0.06    +0.306 C 
DOCKED: ATOM     46  O   UNL d   1      -5.013  12.339  13.120 -0.22 +0.03    -0.251 OA
DOCKED: BRANCH  45  47
DOCKED: ATOM     47  O   UNL d   1      -3.513  13.390  14.393 -0.14 +0.19    -0.481 OA
DOCKED: ATOM     48  H   UNL d   1      -3.587  13.877  15.241 -0.29 -0.15    +0.295 HD
DOCKED: ENDBRANCH  45  47
DOCKED: ENDBRANCH  44  45
DOCKED: ENDBRANCH   8  44
DOCKED: BRANCH  22  49
DOCKED: ATOM     49  C   UNL d   1      -0.952   5.524  17.984 -0.41 -0.02    +0.048 C 
DOCKED: BRANCH  49  50
DOCKED: ATOM     50  C   UNL d   1      -0.737   5.308  19.481 -0.22 -0.06    +0.125 C 
DOCKED: BRANCH  50  51
DOCKED: ATOM     51  C   UNL d   1      -2.042   5.041  20.177 -0.13 -0.16    +0.305 C 
DOCKED: ATOM     52  O   UNL d   1      -2.978   5.808  20.321 -0.05 +0.07    -0.251 OA
DOCKED: BRANCH  51  53
DOCKED: ATOM     53  O   UNL d   1      -2.099   3.792  20.681 +0.02 +0.53    -0.481 OA
DOCKED: ATOM     54  H   UNL d   1      -1.769   3.226  19.952 -0.42 -0.45    +0.295 HD
DOCKED: ENDBRANCH  51  53
DOCKED: ENDBRANCH  50  51
DOCKED: ENDBRANCH  49  50
DOCKED: ENDBRANCH  22  49
DOCKED: TORSDOF 13
DOCKED: TER
DOCKED: ENDMDL
________________________________________________________________________________


	BEGINNING GENETIC ALGORITHM DOCKING 90 of 100
Run: 90 Seed: 1456099222 672602245 [ Run 90 of 100 GA/GALS ]
Beginning LAMARCKIAN GENETIC ALGORITHM (LGA), with a maximum of 25000000 energy evaluations.

Final-Value: -11.404


	FINAL GENETIC ALGORITHM DOCKED STATE
	_______________________________________________


Detailed state:  trans -11.954 2.786 10.544 quatxyzw 0.403676 -0.725223 0.257575 0.494724 center 0.153 0.018 -0.028 ntor 13 -113.3151 146.2321 -102.7124 33.1053 30.7094 114.1233 131.7646 90.8800 137.1051 -62.5141 -82.7106 -110.3523 -1.7135
State:	-11.954   2.786  10.544   0.465 -0.835  0.296 120.697   -113.32  146.23 -102.71   33.11   30.71  114.12  131.76   90.88  137.11  -62.51  -82.71 -110.35   -1.71

DOCKED: MODEL       90
DOCKED: USER    Run = 90
DOCKED: USER    DPF = D:/Protein_go_brrr/autodock/final/mut_N102T/heme/dock.dpf
DOCKED: USER  
DOCKED: USER    Estimated Free Energy of Binding    =   -3.06 kcal/mol  [=(1)+(2)+(3)-(4)]
DOCKED: USER    Estimated Inhibition Constant, Ki   =    5.70 mM (millimolar)  [Temperature = 298.15 K]
DOCKED: USER    
DOCKED: USER    (1) Final Intermolecular Energy     =   -6.94 kcal/mol
DOCKED: USER        vdW + Hbond + desolv Energy     =   -6.76 kcal/mol
DOCKED: USER        Electrostatic Energy            =   -0.18 kcal/mol
DOCKED: USER    (2) Final Total Internal Energy     =   -4.46 kcal/mol
DOCKED: USER    (3) Torsional Free Energy           =   +3.88 kcal/mol
DOCKED: USER    (4) Unbound System's Energy  [=(2)] =   -4.46 kcal/mol
DOCKED: USER    
DOCKED: USER    
DOCKED: USER    NEWDPF move heme_opt.pdbqt
DOCKED: USER    NEWDPF about 0.153000 0.018000 -0.028000
DOCKED: USER    NEWDPF tran0 -11.953580 2.786206 10.543784
DOCKED: USER    NEWDPF quaternion0 0.403676 -0.725223 0.257575 0.494724
DOCKED: USER    NEWDPF axisangle0 0.464502 -0.834501 0.296387 120.696871
DOCKED: USER    NEWDPF quat0 0.464502 -0.834501 0.296387 120.696871
DOCKED: USER    NEWDPF dihe0 -113.32 146.23 -102.71 33.11 30.71 114.12 131.76 90.88 137.11 -62.51 -82.71 -110.35 -1.71 
DOCKED: USER  keepresnum = 1 
DOCKED: USER  
DOCKED: REMARK  13 active torsions:
DOCKED: REMARK  status: ('A' for Active; 'I' for Inactive)
DOCKED: REMARK    1  A    between atoms: O_3  and  C_38 
DOCKED: REMARK    2  A    between atoms: O_4  and  C_40 
DOCKED: REMARK    3  A    between atoms: O_7  and  C_46 
DOCKED: REMARK    4  A    between atoms: O_9  and  C_48 
DOCKED: REMARK    5  A    between atoms: C_15  and  C_20 
DOCKED: REMARK    6  A    between atoms: C_16  and  C_23 
DOCKED: REMARK    7  A    between atoms: C_20  and  C_38 
DOCKED: REMARK    8  A    between atoms: C_23  and  C_40 
DOCKED: REMARK    9  A    between atoms: C_32  and  C_41 
DOCKED: REMARK   10  A    between atoms: C_37  and  C_45 
DOCKED: REMARK   11  A    between atoms: C_41  and  C_44 
DOCKED: REMARK   12  A    between atoms: C_44  and  C_46 
DOCKED: REMARK   13  A    between atoms: C_47  and  C_48 
DOCKED: USER                              x       y       z     vdW  Elec       q    Type
DOCKED: USER                           _______ _______ _______ _____ _____    ______ ____
DOCKED: ROOT
DOCKED: ATOM      1  O   UNL d   1     -10.877   8.433  11.853 -0.13 -0.00    -0.289 OA
DOCKED: ATOM      2  O   UNL d   1     -11.322   2.355  16.240 -0.04 -0.04    -0.289 OA
DOCKED: ATOM      3  N   UNL d   1     -11.676   5.306  10.637 -0.09 +0.00    -0.247 NA
DOCKED: ATOM      4  N   UNL d   1     -11.312   3.541  13.000 -0.11 -0.02    -0.247 NA
DOCKED: ATOM      5  N   UNL d   1     -11.427   1.287  11.218 -0.15 +0.04    -0.354 N 
DOCKED: ATOM      6  N   UNL d   1     -11.784   3.126   8.770 -0.12 +0.02    -0.354 N 
DOCKED: ATOM      7  C   UNL d   1     -11.229   7.492   9.624 -0.25 -0.00    +0.084 A 
DOCKED: ATOM      8  C   UNL d   1     -11.569   4.559  15.206 -0.09 +0.01    +0.084 A 
DOCKED: ATOM      9  C   UNL d   1     -11.503   4.721  13.684 -0.14 +0.00    +0.058 A 
DOCKED: ATOM     10  C   UNL d   1     -11.576   6.011   9.450 -0.25 -0.00    +0.058 A 
DOCKED: ATOM     11  C   UNL d   1     -11.167   7.503  11.122 -0.17 +0.00    +0.193 A 
DOCKED: ATOM     12  C   UNL d   1     -11.482   6.126  11.618 -0.14 +0.00    +0.109 A 
DOCKED: ATOM     13  C   UNL d   1     -11.344   3.075  15.261 -0.08 +0.02    +0.193 A 
DOCKED: ATOM     14  C   UNL d   1      -9.841   7.826   9.069 -0.23 -0.00    +0.026 C 
DOCKED: ATOM     15  C   UNL d   1     -11.572   5.915  13.077 -0.19 +0.00    +0.055 C 
DOCKED: ATOM     16  C   UNL d   1     -12.968   4.866  15.749 -0.03 +0.00    +0.026 C 
DOCKED: ATOM     17  C   UNL d   1     -11.196   2.580  13.859 -0.16 +0.01    +0.109 A 
DOCKED: ATOM     18  C   UNL d   1     -11.846   5.490   8.238 -0.28 -0.00    +0.050 C 
DOCKED: ATOM     19  C   UNL d   1     -12.257   4.156   7.989 -0.22 -0.00    +0.045 A 
DOCKED: ATOM     20  C   UNL d   1     -11.028   0.658  12.369 -0.27 -0.00    +0.045 A 
DOCKED: ATOM     21  C   UNL d   1     -10.921   1.158  13.603 -0.28 +0.01    +0.057 C 
DOCKED: ATOM     22  C   UNL d   1     -10.964  -0.842  10.647 -0.30 +0.01    -0.019 A 
DOCKED: ATOM     23  C   UNL d   1     -11.420   0.462  10.125 -0.24 -0.01    +0.045 A 
DOCKED: ATOM     24  C   UNL d   1     -10.735  -0.720  11.976 -0.30 +0.01    -0.022 A 
DOCKED: ATOM     25  C   UNL d   1     -12.236   1.915   8.299 -0.22 -0.01    +0.049 A 
DOCKED: ATOM     26  C   UNL d   1     -13.066   3.604   7.008 -0.13 +0.00    -0.018 A 
DOCKED: ATOM     27  C   UNL d   1     -13.065   2.191   7.221 -0.13 -0.00    +0.003 A 
DOCKED: ATOM     28  C   UNL d   1     -11.756   0.695   8.847 -0.29 -0.01    +0.052 C 
DOCKED: ATOM     29  C   UNL d   1     -10.276  -1.758  12.942 -0.26 -0.01    +0.046 C 
DOCKED: ATOM     30  C   UNL d   1     -13.799   4.342   5.939 -0.08 -0.00    +0.046 C 
DOCKED: ATOM     31  H   UNL d   1     -11.763   2.244  11.231 +0.04 -0.02    +0.166 HD
DOCKED: ATOM     32  H   UNL d   1     -11.156   3.260   9.554 +0.07 -0.02    +0.166 HD
DOCKED: ENDROOT
DOCKED: BRANCH   7  33
DOCKED: ATOM     33  C   UNL d   1     -12.288   8.479   9.122 -0.10 -0.01    +0.141 C 
DOCKED: BRANCH  33  34
DOCKED: ATOM     34  C   UNL d   1     -11.836   9.912   9.218 -0.06 -0.03    +0.306 C 
DOCKED: ATOM     35  O   UNL d   1     -11.169  10.513   8.393 -0.11 +0.04    -0.251 OA
DOCKED: BRANCH  34  36
DOCKED: ATOM     36  O   UNL d   1     -12.252  10.512  10.347 +0.00 +0.03    -0.481 OA
DOCKED: ATOM     37  H   UNL d   1     -11.803  10.020  11.067 +0.06 -0.01    +0.295 HD
DOCKED: ENDBRANCH  34  36
DOCKED: ENDBRANCH  33  34
DOCKED: ENDBRANCH   7  33
DOCKED: BRANCH  27  38
DOCKED: ATOM     38  C   UNL d   1     -13.766   1.235   6.418 -0.11 -0.00    +0.017 C 
DOCKED: ATOM     39  C   UNL d   1     -13.197   0.397   5.538 -0.14 -0.04    +0.092 C 
DOCKED: BRANCH  39  40
DOCKED: ATOM     40  C   UNL d   1     -14.028  -0.549   4.788 -0.05 -0.15    +0.330 C 
DOCKED: ATOM     41  O   UNL d   1     -14.262  -0.550   3.594 -0.13 +0.04    -0.246 OA
DOCKED: BRANCH  40  42
DOCKED: ATOM     42  O   UNL d   1     -14.528  -1.480   5.615 -0.04 +0.19    -0.477 OA
DOCKED: ATOM     43  H   UNL d   1     -13.822  -1.605   6.282 +0.06 -0.15    +0.295 HD
DOCKED: ENDBRANCH  40  42
DOCKED: ENDBRANCH  39  40
DOCKED: ENDBRANCH  27  38
DOCKED: BRANCH   8  44
DOCKED: ATOM     44  C   UNL d   1     -10.491   5.308  15.997 -0.10 +0.01    +0.141 C 
DOCKED: BRANCH  44  45
DOCKED: ATOM     45  C   UNL d   1      -9.508   4.391  16.675 -0.08 +0.04    +0.306 C 
DOCKED: ATOM     46  O   UNL d   1      -8.485   3.939  16.192 -0.16 -0.06    -0.251 OA
DOCKED: BRANCH  45  47
DOCKED: ATOM     47  O   UNL d   1      -9.883   4.068  17.926 +0.01 -0.04    -0.481 OA
DOCKED: ATOM     48  H   UNL d   1     -10.593   3.402  17.808 +0.04 +0.03    +0.295 HD
DOCKED: ENDBRANCH  45  47
DOCKED: ENDBRANCH  44  45
DOCKED: ENDBRANCH   8  44
DOCKED: BRANCH  22  49
DOCKED: ATOM     49  C   UNL d   1     -10.783  -2.070   9.804 -0.29 -0.04    +0.048 C 
DOCKED: BRANCH  49  50
DOCKED: ATOM     50  C   UNL d   1     -12.090  -2.844   9.637 -0.17 -0.08    +0.125 C 
DOCKED: BRANCH  50  51
DOCKED: ATOM     51  C   UNL d   1     -12.747  -2.511   8.328 -0.08 -0.14    +0.305 C 
DOCKED: ATOM     52  O   UNL d   1     -12.526  -3.008   7.237 -0.14 +0.16    -0.251 OA
DOCKED: BRANCH  51  53
DOCKED: ATOM     53  O   UNL d   1     -13.667  -1.534   8.459 -0.00 +0.15    -0.481 OA
DOCKED: ATOM     54  H   UNL d   1     -14.348  -1.757   7.791 +0.05 -0.09    +0.295 HD
DOCKED: ENDBRANCH  51  53
DOCKED: ENDBRANCH  50  51
DOCKED: ENDBRANCH  49  50
DOCKED: ENDBRANCH  22  49
DOCKED: TORSDOF 13
DOCKED: TER
DOCKED: ENDMDL
________________________________________________________________________________


	BEGINNING GENETIC ALGORITHM DOCKING 91 of 100
Run: 91 Seed: 287724815 538525983 [ Run 91 of 100 GA/GALS ]
Beginning LAMARCKIAN GENETIC ALGORITHM (LGA), with a maximum of 25000000 energy evaluations.

Final-Value: -9.827


	FINAL GENETIC ALGORITHM DOCKED STATE
	_______________________________________________


Detailed state:  trans -8.421 12.025 12.967 quatxyzw -0.111633 -0.937526 0.254671 0.209109 center 0.153 0.018 -0.028 ntor 13 -136.6792 -10.6916 -97.8403 52.3591 -150.6767 -135.1448 135.8551 104.4928 -23.5200 -61.4706 162.0806 -89.7762 180.0000
State:	 -8.421  12.025  12.967  -0.114 -0.959  0.260 155.860   -136.68  -10.69  -97.84   52.36 -150.68 -135.14  135.86  104.49  -23.52  -61.47  162.08  -89.78  180.00

DOCKED: MODEL       91
DOCKED: USER    Run = 91
DOCKED: USER    DPF = D:/Protein_go_brrr/autodock/final/mut_N102T/heme/dock.dpf
DOCKED: USER  
DOCKED: USER    Estimated Free Energy of Binding    =   -3.89 kcal/mol  [=(1)+(2)+(3)-(4)]
DOCKED: USER    Estimated Inhibition Constant, Ki   =    1.41 mM (millimolar)  [Temperature = 298.15 K]
DOCKED: USER    
DOCKED: USER    (1) Final Intermolecular Energy     =   -7.77 kcal/mol
DOCKED: USER        vdW + Hbond + desolv Energy     =   -7.55 kcal/mol
DOCKED: USER        Electrostatic Energy            =   -0.22 kcal/mol
DOCKED: USER    (2) Final Total Internal Energy     =   -2.06 kcal/mol
DOCKED: USER    (3) Torsional Free Energy           =   +3.88 kcal/mol
DOCKED: USER    (4) Unbound System's Energy  [=(2)] =   -2.06 kcal/mol
DOCKED: USER    
DOCKED: USER    
DOCKED: USER    NEWDPF move heme_opt.pdbqt
DOCKED: USER    NEWDPF about 0.153000 0.018000 -0.028000
DOCKED: USER    NEWDPF tran0 -8.421443 12.024519 12.967212
DOCKED: USER    NEWDPF quaternion0 -0.111633 -0.937526 0.254671 0.209109
DOCKED: USER    NEWDPF axisangle0 -0.114156 -0.958721 0.260429 155.859733
DOCKED: USER    NEWDPF quat0 -0.114156 -0.958721 0.260429 155.859733
DOCKED: USER    NEWDPF dihe0 -136.68 -10.69 -97.84 52.36 -150.68 -135.14 135.86 104.49 -23.52 -61.47 162.08 -89.78 180.00 
DOCKED: USER  keepresnum = 1 
DOCKED: USER  
DOCKED: REMARK  13 active torsions:
DOCKED: REMARK  status: ('A' for Active; 'I' for Inactive)
DOCKED: REMARK    1  A    between atoms: O_3  and  C_38 
DOCKED: REMARK    2  A    between atoms: O_4  and  C_40 
DOCKED: REMARK    3  A    between atoms: O_7  and  C_46 
DOCKED: REMARK    4  A    between atoms: O_9  and  C_48 
DOCKED: REMARK    5  A    between atoms: C_15  and  C_20 
DOCKED: REMARK    6  A    between atoms: C_16  and  C_23 
DOCKED: REMARK    7  A    between atoms: C_20  and  C_38 
DOCKED: REMARK    8  A    between atoms: C_23  and  C_40 
DOCKED: REMARK    9  A    between atoms: C_32  and  C_41 
DOCKED: REMARK   10  A    between atoms: C_37  and  C_45 
DOCKED: REMARK   11  A    between atoms: C_41  and  C_44 
DOCKED: REMARK   12  A    between atoms: C_44  and  C_46 
DOCKED: REMARK   13  A    between atoms: C_47  and  C_48 
DOCKED: USER                              x       y       z     vdW  Elec       q    Type
DOCKED: USER                           _______ _______ _______ _____ _____    ______ ____
DOCKED: ROOT
DOCKED: ATOM      1  O   UNL d   1      -2.690  12.536  14.251 -0.89 +0.11    -0.289 OA
DOCKED: ATOM      2  O   UNL d   1      -8.123   8.482  17.484 -0.03 +0.01    -0.289 OA
DOCKED: ATOM      3  N   UNL d   1      -5.979  12.661  13.220 -0.10 +0.03    -0.247 NA
DOCKED: ATOM      4  N   UNL d   1      -7.286  10.545  14.847 +0.12 +0.00    -0.247 NA
DOCKED: ATOM      5  N   UNL d   1      -9.559  10.733  13.097 -0.05 -0.00    -0.354 N 
DOCKED: ATOM      6  N   UNL d   1      -8.189  12.914  11.403 -0.04 +0.03    -0.354 N 
DOCKED: ATOM      7  C   UNL d   1      -3.873  13.607  12.399 -0.40 -0.02    +0.084 A 
DOCKED: ATOM      8  C   UNL d   1      -6.258   9.990  16.993 -0.09 -0.01    +0.084 A 
DOCKED: ATOM      9  C   UNL d   1      -6.208  10.769  15.674 -0.13 -0.01    +0.058 A 
DOCKED: ATOM     10  C   UNL d   1      -5.386  13.438  12.240 -0.25 -0.01    +0.058 A 
DOCKED: ATOM     11  C   UNL d   1      -3.717  12.802  13.655 -0.29 -0.05    +0.193 A 
DOCKED: ATOM     12  C   UNL d   1      -5.068  12.304  14.066 -0.22 -0.02    +0.109 A 
DOCKED: ATOM     13  C   UNL d   1      -7.544   9.255  16.745 -0.07 -0.01    +0.193 A 
DOCKED: ATOM     14  C   UNL d   1      -3.096  12.921  11.272 -0.71 -0.00    +0.026 C 
DOCKED: ATOM     15  C   UNL d   1      -5.177  11.559  15.336 -0.24 -0.01    +0.055 C 
DOCKED: ATOM     16  C   UNL d   1      -6.447  10.921  18.195 -0.04 -0.00    +0.026 C 
DOCKED: ATOM     17  C   UNL d   1      -8.062   9.674  15.407 -0.11 -0.00    +0.109 A 
DOCKED: ATOM     18  C   UNL d   1      -6.067  14.078  11.270 -0.25 -0.01    +0.050 C 
DOCKED: ATOM     19  C   UNL d   1      -7.474  14.050  11.097 -0.13 -0.01    +0.045 A 
DOCKED: ATOM     20  C   UNL d   1      -9.901   9.611  13.807 -0.15 +0.00    +0.045 A 
DOCKED: ATOM     21  C   UNL d   1      -9.297   9.079  14.874 -0.18 +0.00    +0.057 C 
DOCKED: ATOM     22  C   UNL d   1     -11.406   9.899  12.112 -0.10 +0.00    -0.019 A 
DOCKED: ATOM     23  C   UNL d   1     -10.409  10.988  12.054 -0.12 -0.00    +0.045 A 
DOCKED: ATOM     24  C   UNL d   1     -11.100   9.088  13.153 -0.12 +0.00    -0.022 A 
DOCKED: ATOM     25  C   UNL d   1      -9.515  13.074  11.075 -0.09 -0.00    +0.049 A 
DOCKED: ATOM     26  C   UNL d   1      -8.364  14.985  10.592 -0.06 +0.00    -0.018 A 
DOCKED: ATOM     27  C   UNL d   1      -9.655  14.370  10.599 -0.05 -0.00    +0.003 A 
DOCKED: ATOM     28  C   UNL d   1     -10.423  11.983  11.154 -0.11 -0.00    +0.052 C 
DOCKED: ATOM     29  C   UNL d   1     -11.812   7.866  13.624 -0.09 +0.00    +0.046 C 
DOCKED: ATOM     30  C   UNL d   1      -8.039  16.366  10.132 -0.05 -0.00    +0.046 C 
DOCKED: ATOM     31  H   UNL d   1      -8.797  11.332  13.394 +0.03 -0.00    +0.166 HD
DOCKED: ATOM     32  H   UNL d   1      -7.769  12.072  11.779 +0.09 -0.01    +0.166 HD
DOCKED: ENDROOT
DOCKED: BRANCH   7  33
DOCKED: ATOM     33  C   UNL d   1      -3.391  15.045  12.619 -0.16 -0.03    +0.141 C 
DOCKED: BRANCH  33  34
DOCKED: ATOM     34  C   UNL d   1      -4.459  15.930  13.204 -0.17 -0.06    +0.306 C 
DOCKED: ATOM     35  O   UNL d   1      -5.196  16.676  12.583 -0.12 +0.03    -0.251 OA
DOCKED: BRANCH  34  36
DOCKED: ATOM     36  O   UNL d   1      -4.543  15.825  14.542 -0.05 +0.16    -0.481 OA
DOCKED: ATOM     37  H   UNL d   1      -3.611  15.783  14.846 -0.46 -0.25    +0.295 HD
DOCKED: ENDBRANCH  34  36
DOCKED: ENDBRANCH  33  34
DOCKED: ENDBRANCH   7  33
DOCKED: BRANCH  27  38
DOCKED: ATOM     38  C   UNL d   1     -10.864  14.985  10.142 -0.02 -0.00    +0.017 C 
DOCKED: ATOM     39  C   UNL d   1     -11.708  14.459   9.241 -0.01 -0.01    +0.092 C 
DOCKED: BRANCH  39  40
DOCKED: ATOM     40  C   UNL d   1     -12.925  15.185   8.870 -0.00 -0.02    +0.330 C 
DOCKED: ATOM     41  O   UNL d   1     -14.044  14.733   8.719 -0.00 +0.01    -0.246 OA
DOCKED: BRANCH  40  42
DOCKED: ATOM     42  O   UNL d   1     -12.655  16.490   8.714 +0.00 +0.02    -0.477 OA
DOCKED: ATOM     43  H   UNL d   1     -13.468  16.851   8.302 +0.00 -0.01    +0.295 HD
DOCKED: ENDBRANCH  40  42
DOCKED: ENDBRANCH  39  40
DOCKED: ENDBRANCH  27  38
DOCKED: BRANCH   8  44
DOCKED: ATOM     44  C   UNL d   1      -5.102   9.011  17.226 -0.16 -0.02    +0.141 C 
DOCKED: BRANCH  44  45
DOCKED: ATOM     45  C   UNL d   1      -5.528   7.568  17.178 -0.14 -0.04    +0.306 C 
DOCKED: ATOM     46  O   UNL d   1      -5.528   6.843  16.199 -0.28 +0.04    -0.251 OA
DOCKED: BRANCH  45  47
DOCKED: ATOM     47  O   UNL d   1      -5.959   7.119  18.371 +0.01 +0.04    -0.481 OA
DOCKED: ATOM     48  H   UNL d   1      -6.887   7.429  18.432 +0.06 -0.02    +0.295 HD
DOCKED: ENDBRANCH  45  47
DOCKED: ENDBRANCH  44  45
DOCKED: ENDBRANCH   8  44
DOCKED: BRANCH  22  49
DOCKED: ATOM     49  C   UNL d   1     -12.544   9.746  11.147 -0.05 -0.00    +0.048 C 
DOCKED: BRANCH  49  50
DOCKED: ATOM     50  C   UNL d   1     -12.208   8.765  10.023 -0.09 -0.01    +0.125 C 
DOCKED: BRANCH  50  51
DOCKED: ATOM     51  C   UNL d   1     -10.726   8.533   9.938 -0.19 -0.02    +0.305 C 
DOCKED: ATOM     52  O   UNL d   1     -10.091   7.603  10.403 -0.33 -0.00    -0.251 OA
DOCKED: BRANCH  51  53
DOCKED: ATOM     53  O   UNL d   1     -10.100   9.518   9.264 -0.10 +0.10    -0.481 OA
DOCKED: ATOM     54  H   UNL d   1      -9.571   9.045   8.588 -0.38 -0.16    +0.295 HD
DOCKED: ENDBRANCH  51  53
DOCKED: ENDBRANCH  50  51
DOCKED: ENDBRANCH  49  50
DOCKED: ENDBRANCH  22  49
DOCKED: TORSDOF 13
DOCKED: TER
DOCKED: ENDMDL
________________________________________________________________________________


	BEGINNING GENETIC ALGORITHM DOCKING 92 of 100
Run: 92 Seed: 1264140799 1621447176 [ Run 92 of 100 GA/GALS ]
Beginning LAMARCKIAN GENETIC ALGORITHM (LGA), with a maximum of 25000000 energy evaluations.

Final-Value: -10.537


	FINAL GENETIC ALGORITHM DOCKED STATE
	_______________________________________________


Detailed state:  trans -12.285 -5.138 5.118 quatxyzw -0.619245 -0.299134 -0.717080 -0.113359 center 0.153 0.018 -0.028 ntor 13 120.6721 167.2711 83.9355 1.2205 -131.3649 62.7418 -42.7220 -89.9484 41.9876 -113.4533 61.8258 -139.8226 158.4860
State:	-12.285  -5.138   5.118  -0.623 -0.301 -0.722 -166.982    120.67  167.27   83.94    1.22 -131.36   62.74  -42.72  -89.95   41.99 -113.45   61.83 -139.82  158.49

DOCKED: MODEL       92
DOCKED: USER    Run = 92
DOCKED: USER    DPF = D:/Protein_go_brrr/autodock/final/mut_N102T/heme/dock.dpf
DOCKED: USER  
DOCKED: USER    Estimated Free Energy of Binding    =   -4.17 kcal/mol  [=(1)+(2)+(3)-(4)]
DOCKED: USER    Estimated Inhibition Constant, Ki   =  874.52 uM (micromolar)  [Temperature = 298.15 K]
DOCKED: USER    
DOCKED: USER    (1) Final Intermolecular Energy     =   -8.05 kcal/mol
DOCKED: USER        vdW + Hbond + desolv Energy     =   -7.58 kcal/mol
DOCKED: USER        Electrostatic Energy            =   -0.47 kcal/mol
DOCKED: USER    (2) Final Total Internal Energy     =   -2.49 kcal/mol
DOCKED: USER    (3) Torsional Free Energy           =   +3.88 kcal/mol
DOCKED: USER    (4) Unbound System's Energy  [=(2)] =   -2.49 kcal/mol
DOCKED: USER    
DOCKED: USER    
DOCKED: USER    NEWDPF move heme_opt.pdbqt
DOCKED: USER    NEWDPF about 0.153000 0.018000 -0.028000
DOCKED: USER    NEWDPF tran0 -12.285434 -5.137541 5.118162
DOCKED: USER    NEWDPF quaternion0 -0.619245 -0.299134 -0.717080 -0.113359
DOCKED: USER    NEWDPF axisangle0 -0.623263 -0.301075 -0.721733 -166.982006
DOCKED: USER    NEWDPF quat0 -0.623263 -0.301075 -0.721733 -166.982006
DOCKED: USER    NEWDPF dihe0 120.67 167.27 83.94 1.22 -131.36 62.74 -42.72 -89.95 41.99 -113.45 61.83 -139.82 158.49 
DOCKED: USER  keepresnum = 1 
DOCKED: USER  
DOCKED: REMARK  13 active torsions:
DOCKED: REMARK  status: ('A' for Active; 'I' for Inactive)
DOCKED: REMARK    1  A    between atoms: O_3  and  C_38 
DOCKED: REMARK    2  A    between atoms: O_4  and  C_40 
DOCKED: REMARK    3  A    between atoms: O_7  and  C_46 
DOCKED: REMARK    4  A    between atoms: O_9  and  C_48 
DOCKED: REMARK    5  A    between atoms: C_15  and  C_20 
DOCKED: REMARK    6  A    between atoms: C_16  and  C_23 
DOCKED: REMARK    7  A    between atoms: C_20  and  C_38 
DOCKED: REMARK    8  A    between atoms: C_23  and  C_40 
DOCKED: REMARK    9  A    between atoms: C_32  and  C_41 
DOCKED: REMARK   10  A    between atoms: C_37  and  C_45 
DOCKED: REMARK   11  A    between atoms: C_41  and  C_44 
DOCKED: REMARK   12  A    between atoms: C_44  and  C_46 
DOCKED: REMARK   13  A    between atoms: C_47  and  C_48 
DOCKED: USER                              x       y       z     vdW  Elec       q    Type
DOCKED: USER                           _______ _______ _______ _____ _____    ______ ____
DOCKED: ROOT
DOCKED: ATOM      1  O   UNL d   1      -9.690  -7.278   0.277 -0.13 +0.04    -0.289 OA
DOCKED: ATOM      2  O   UNL d   1     -15.613  -2.735   1.094 -0.02 -0.01    -0.289 OA
DOCKED: ATOM      3  N   UNL d   1     -10.951  -6.389   3.362 -0.12 +0.15    -0.247 NA
DOCKED: ATOM      4  N   UNL d   1     -13.036  -4.380   2.694 -0.15 +0.12    -0.247 NA
DOCKED: ATOM      5  N   UNL d   1     -13.099  -3.658   5.477 +0.03 +0.32    -0.354 N 
DOCKED: ATOM      6  N   UNL d   1     -10.922  -5.732   6.157 -0.08 +0.29    -0.354 N 
DOCKED: ATOM      7  C   UNL d   1      -8.990  -7.642   2.591 -0.23 -0.02    +0.084 A 
DOCKED: ATOM      8  C   UNL d   1     -14.062  -4.527   0.481 -0.07 +0.00    +0.084 A 
DOCKED: ATOM      9  C   UNL d   1     -13.004  -5.019   1.475 -0.13 -0.01    +0.058 A 
DOCKED: ATOM     10  C   UNL d   1      -9.816  -7.080   3.752 -0.26 -0.02    +0.058 A 
DOCKED: ATOM     11  C   UNL d   1      -9.870  -7.163   1.476 -0.12 -0.04    +0.193 A 
DOCKED: ATOM     12  C   UNL d   1     -11.038  -6.440   2.072 -0.14 -0.03    +0.109 A 
DOCKED: ATOM     13  C   UNL d   1     -14.675  -3.464   1.350 -0.07 +0.00    +0.193 A 
DOCKED: ATOM     14  C   UNL d   1      -7.625  -6.960   2.473 -0.56 -0.01    +0.026 C 
DOCKED: ATOM     15  C   UNL d   1     -12.095  -5.955   1.162 -0.13 -0.01    +0.055 C 
DOCKED: ATOM     16  C   UNL d   1     -15.117  -5.600   0.197 -0.01 -0.00    +0.026 C 
DOCKED: ATOM     17  C   UNL d   1     -13.958  -3.473   2.661 -0.16 -0.03    +0.109 A 
DOCKED: ATOM     18  C   UNL d   1      -9.488  -7.331   5.033 -0.35 -0.02    +0.050 C 
DOCKED: ATOM     19  C   UNL d   1     -10.236  -6.925   6.168 -0.31 -0.02    +0.045 A 
DOCKED: ATOM     20  C   UNL d   1     -13.866  -2.649   4.954 -0.10 -0.03    +0.045 A 
DOCKED: ATOM     21  C   UNL d   1     -14.317  -2.501   3.704 -0.17 -0.02    +0.057 C 
DOCKED: ATOM     22  C   UNL d   1     -13.491  -2.221   7.166 -0.12 +0.01    -0.019 A 
DOCKED: ATOM     23  C   UNL d   1     -12.821  -3.487   6.806 -0.04 -0.03    +0.045 A 
DOCKED: ATOM     24  C   UNL d   1     -14.108  -1.730   6.066 -0.11 +0.01    -0.022 A 
DOCKED: ATOM     25  C   UNL d   1     -11.499  -5.495   7.383 -0.17 -0.04    +0.049 A 
DOCKED: ATOM     26  C   UNL d   1     -10.402  -7.496   7.421 -0.30 +0.01    -0.018 A 
DOCKED: ATOM     27  C   UNL d   1     -11.216  -6.598   8.177 -0.23 -0.00    +0.003 A 
DOCKED: ATOM     28  C   UNL d   1     -12.129  -4.252   7.665 -0.15 -0.03    +0.052 C 
DOCKED: ATOM     29  C   UNL d   1     -14.921  -0.488   5.928 -0.07 -0.01    +0.046 C 
DOCKED: ATOM     30  C   UNL d   1      -9.841  -8.796   7.888 -0.25 -0.01    +0.046 C 
DOCKED: ATOM     31  H   UNL d   1     -12.853  -4.472   4.924 +0.02 -0.16    +0.166 HD
DOCKED: ATOM     32  H   UNL d   1     -10.951  -5.109   5.359 -0.30 -0.25    +0.166 HD
DOCKED: ENDROOT
DOCKED: BRANCH   7  33
DOCKED: ATOM     33  C   UNL d   1      -8.861  -9.169   2.555 -0.23 -0.02    +0.141 C 
DOCKED: BRANCH  33  34
DOCKED: ATOM     34  C   UNL d   1      -9.965  -9.826   1.771 -0.08 -0.04    +0.306 C 
DOCKED: ATOM     35  O   UNL d   1     -11.109 -10.007   2.152 -0.05 +0.03    -0.251 OA
DOCKED: BRANCH  34  36
DOCKED: ATOM     36  O   UNL d   1      -9.569 -10.217   0.547 -0.02 +0.10    -0.481 OA
DOCKED: ATOM     37  H   UNL d   1      -9.308  -9.386   0.095 -0.41 -0.13    +0.295 HD
DOCKED: ENDBRANCH  34  36
DOCKED: ENDBRANCH  33  34
DOCKED: ENDBRANCH   7  33
DOCKED: BRANCH  27  38
DOCKED: ATOM     38  C   UNL d   1     -11.620  -6.796   9.537 -0.16 -0.01    +0.017 C 
DOCKED: ATOM     39  C   UNL d   1     -10.839  -6.607  10.611 -0.16 -0.09    +0.092 C 
DOCKED: BRANCH  39  40
DOCKED: ATOM     40  C   UNL d   1     -11.380  -6.829  11.955 -0.05 -0.18    +0.330 C 
DOCKED: ATOM     41  O   UNL d   1     -11.828  -7.862  12.415 -0.02 +0.08    -0.246 OA
DOCKED: BRANCH  40  42
DOCKED: ATOM     42  O   UNL d   1     -11.314  -5.696  12.672 -0.03 +0.30    -0.477 OA
DOCKED: ATOM     43  H   UNL d   1     -10.729  -5.117  12.142 -0.21 -0.39    +0.295 HD
DOCKED: ENDBRANCH  40  42
DOCKED: ENDBRANCH  39  40
DOCKED: ENDBRANCH  27  38
DOCKED: BRANCH   8  44
DOCKED: ATOM     44  C   UNL d   1     -13.518  -3.926  -0.819 -0.09 +0.03    +0.141 C 
DOCKED: BRANCH  44  45
DOCKED: ATOM     45  C   UNL d   1     -14.535  -3.106  -1.566 -0.02 +0.05    +0.306 C 
DOCKED: ATOM     46  O   UNL d   1     -15.347  -3.518  -2.376 -0.00 -0.02    -0.251 OA
DOCKED: BRANCH  45  47
DOCKED: ATOM     47  O   UNL d   1     -14.457  -1.796  -1.272 -0.03 -0.14    -0.481 OA
DOCKED: ATOM     48  H   UNL d   1     -15.144  -1.654  -0.586 +0.03 +0.06    +0.295 HD
DOCKED: ENDBRANCH  45  47
DOCKED: ENDBRANCH  44  45
DOCKED: ENDBRANCH   8  44
DOCKED: BRANCH  22  49
DOCKED: ATOM     49  C   UNL d   1     -13.452  -1.607   8.535 -0.10 -0.02    +0.048 C 
DOCKED: BRANCH  49  50
DOCKED: ATOM     50  C   UNL d   1     -12.100  -0.958   8.829 -0.19 -0.05    +0.125 C 
DOCKED: BRANCH  50  51
DOCKED: ATOM     51  C   UNL d   1     -11.422  -1.632   9.988 -0.17 -0.18    +0.305 C 
DOCKED: ATOM     52  O   UNL d   1     -11.432  -1.289  11.157 -0.16 +0.11    -0.251 OA
DOCKED: BRANCH  51  53
DOCKED: ATOM     53  O   UNL d   1     -10.738  -2.728   9.603 -0.12 +0.57    -0.481 OA
DOCKED: ATOM     54  H   UNL d   1     -10.359  -3.077  10.437 -0.34 -0.70    +0.295 HD
DOCKED: ENDBRANCH  51  53
DOCKED: ENDBRANCH  50  51
DOCKED: ENDBRANCH  49  50
DOCKED: ENDBRANCH  22  49
DOCKED: TORSDOF 13
DOCKED: TER
DOCKED: ENDMDL
________________________________________________________________________________


	BEGINNING GENETIC ALGORITHM DOCKING 93 of 100
Run: 93 Seed: 1736862602 589332330 [ Run 93 of 100 GA/GALS ]
Beginning LAMARCKIAN GENETIC ALGORITHM (LGA), with a maximum of 25000000 energy evaluations.

Final-Value: -11.844


	FINAL GENETIC ALGORITHM DOCKED STATE
	_______________________________________________


Detailed state:  trans -6.451 8.133 16.563 quatxyzw 0.828603 -0.513077 0.218722 -0.048269 center 0.153 0.018 -0.028 ntor 13 135.0730 145.1647 167.0815 14.5205 -136.4339 72.1370 153.3642 113.1979 17.2736 -5.1798 -84.0291 -68.3458 -15.8690
State:	 -6.451   8.133  16.563   0.830 -0.514  0.219 -174.467    135.07  145.16  167.08   14.52 -136.43   72.14  153.36  113.20   17.27   -5.18  -84.03  -68.35  -15.87

DOCKED: MODEL       93
DOCKED: USER    Run = 93
DOCKED: USER    DPF = D:/Protein_go_brrr/autodock/final/mut_N102T/heme/dock.dpf
DOCKED: USER  
DOCKED: USER    Estimated Free Energy of Binding    =   -3.41 kcal/mol  [=(1)+(2)+(3)-(4)]
DOCKED: USER    Estimated Inhibition Constant, Ki   =    3.14 mM (millimolar)  [Temperature = 298.15 K]
DOCKED: USER    
DOCKED: USER    (1) Final Intermolecular Energy     =   -7.29 kcal/mol
DOCKED: USER        vdW + Hbond + desolv Energy     =   -7.27 kcal/mol
DOCKED: USER        Electrostatic Energy            =   -0.02 kcal/mol
DOCKED: USER    (2) Final Total Internal Energy     =   -4.55 kcal/mol
DOCKED: USER    (3) Torsional Free Energy           =   +3.88 kcal/mol
DOCKED: USER    (4) Unbound System's Energy  [=(2)] =   -4.55 kcal/mol
DOCKED: USER    
DOCKED: USER    
DOCKED: USER    NEWDPF move heme_opt.pdbqt
DOCKED: USER    NEWDPF about 0.153000 0.018000 -0.028000
DOCKED: USER    NEWDPF tran0 -6.451344 8.133008 16.562835
DOCKED: USER    NEWDPF quaternion0 0.828603 -0.513077 0.218722 -0.048269
DOCKED: USER    NEWDPF axisangle0 0.829570 -0.513676 0.218978 -174.466653
DOCKED: USER    NEWDPF quat0 0.829570 -0.513676 0.218978 -174.466653
DOCKED: USER    NEWDPF dihe0 135.07 145.16 167.08 14.52 -136.43 72.14 153.36 113.20 17.27 -5.18 -84.03 -68.35 -15.87 
DOCKED: USER  keepresnum = 1 
DOCKED: USER  
DOCKED: REMARK  13 active torsions:
DOCKED: REMARK  status: ('A' for Active; 'I' for Inactive)
DOCKED: REMARK    1  A    between atoms: O_3  and  C_38 
DOCKED: REMARK    2  A    between atoms: O_4  and  C_40 
DOCKED: REMARK    3  A    between atoms: O_7  and  C_46 
DOCKED: REMARK    4  A    between atoms: O_9  and  C_48 
DOCKED: REMARK    5  A    between atoms: C_15  and  C_20 
DOCKED: REMARK    6  A    between atoms: C_16  and  C_23 
DOCKED: REMARK    7  A    between atoms: C_20  and  C_38 
DOCKED: REMARK    8  A    between atoms: C_23  and  C_40 
DOCKED: REMARK    9  A    between atoms: C_32  and  C_41 
DOCKED: REMARK   10  A    between atoms: C_37  and  C_45 
DOCKED: REMARK   11  A    between atoms: C_41  and  C_44 
DOCKED: REMARK   12  A    between atoms: C_44  and  C_46 
DOCKED: REMARK   13  A    between atoms: C_47  and  C_48 
DOCKED: USER                              x       y       z     vdW  Elec       q    Type
DOCKED: USER                           _______ _______ _______ _____ _____    ______ ____
DOCKED: ROOT
DOCKED: ATOM      1  O   UNL d   1      -9.840  11.796  13.424 -0.06 +0.01    -0.289 OA
DOCKED: ATOM      2  O   UNL d   1      -3.727  13.089  17.589 -0.12 +0.05    -0.289 OA
DOCKED: ATOM      3  N   UNL d   1      -8.244   9.320  15.218 -0.11 -0.00    -0.247 NA
DOCKED: ATOM      4  N   UNL d   1      -5.824  10.689  16.266 -0.08 +0.03    -0.247 NA
DOCKED: ATOM      5  N   UNL d   1      -4.768   8.101  16.943 -0.12 +0.07    -0.354 N 
DOCKED: ATOM      6  N   UNL d   1      -7.274   6.689  15.836 -0.12 -0.00    -0.354 N 
DOCKED: ATOM      7  C   UNL d   1     -10.093   9.372  13.610 -0.15 +0.00    +0.084 A 
DOCKED: ATOM      8  C   UNL d   1      -5.950  13.111  16.565 -0.05 -0.01    +0.084 A 
DOCKED: ATOM      9  C   UNL d   1      -6.594  11.812  16.067 -0.08 -0.01    +0.058 A 
DOCKED: ATOM     10  C   UNL d   1      -9.176   8.561  14.530 -0.21 +0.00    +0.058 A 
DOCKED: ATOM     11  C   UNL d   1      -9.527  10.727  13.914 -0.08 -0.00    +0.193 A 
DOCKED: ATOM     12  C   UNL d   1      -8.431  10.565  14.921 -0.09 -0.00    +0.109 A 
DOCKED: ATOM     13  C   UNL d   1      -4.656  12.520  17.049 -0.08 -0.04    +0.193 A 
DOCKED: ATOM     14  C   UNL d   1      -9.851   9.055  12.132 -0.10 +0.00    +0.026 C 
DOCKED: ATOM     15  C   UNL d   1      -7.783  11.784  15.445 -0.09 -0.00    +0.055 C 
DOCKED: ATOM     16  C   UNL d   1      -6.703  13.696  17.763 -0.03 -0.00    +0.026 C 
DOCKED: ATOM     17  C   UNL d   1      -4.703  11.047  16.804 -0.13 -0.02    +0.109 A 
DOCKED: ATOM     18  C   UNL d   1      -9.346   7.237  14.702 -0.29 +0.00    +0.050 C 
DOCKED: ATOM     19  C   UNL d   1      -8.603   6.421  15.593 -0.15 +0.00    +0.045 A 
DOCKED: ATOM     20  C   UNL d   1      -3.656   8.874  17.160 -0.20 -0.01    +0.045 A 
DOCKED: ATOM     21  C   UNL d   1      -3.545  10.206  17.141 -0.20 -0.02    +0.057 C 
DOCKED: ATOM     22  C   UNL d   1      -3.077   6.673  17.360 -0.32 +0.00    -0.019 A 
DOCKED: ATOM     23  C   UNL d   1      -4.517   6.759  17.043 -0.32 -0.01    +0.045 A 
DOCKED: ATOM     24  C   UNL d   1      -2.574   7.928  17.430 -0.22 +0.01    -0.022 A 
DOCKED: ATOM     25  C   UNL d   1      -6.729   5.726  16.654 -0.24 +0.00    +0.049 A 
DOCKED: ATOM     26  C   UNL d   1      -8.938   5.277  16.301 -0.15 -0.00    -0.018 A 
DOCKED: ATOM     27  C   UNL d   1      -7.757   4.854  16.984 -0.21 +0.00    +0.003 A 
DOCKED: ATOM     28  C   UNL d   1      -5.333   5.701  16.919 -0.40 -0.00    +0.052 C 
DOCKED: ATOM     29  C   UNL d   1      -1.179   8.358  17.732 -0.28 -0.02    +0.046 C 
DOCKED: ATOM     30  C   UNL d   1     -10.275   4.617  16.343 -0.13 +0.00    +0.046 C 
DOCKED: ATOM     31  H   UNL d   1      -5.681   8.521  16.807 +0.06 -0.02    +0.166 HD
DOCKED: ATOM     32  H   UNL d   1      -6.776   7.469  15.425 +0.05 -0.01    +0.166 HD
DOCKED: ENDROOT
DOCKED: BRANCH   7  33
DOCKED: ATOM     33  C   UNL d   1     -11.585   9.322  13.958 -0.05 -0.00    +0.141 C 
DOCKED: BRANCH  33  34
DOCKED: ATOM     34  C   UNL d   1     -11.890   9.953  15.290 -0.01 -0.01    +0.306 C 
DOCKED: ATOM     35  O   UNL d   1     -11.776   9.422  16.382 -0.01 +0.01    -0.251 OA
DOCKED: BRANCH  34  36
DOCKED: ATOM     36  O   UNL d   1     -12.321  11.221  15.175 +0.00 +0.02    -0.481 OA
DOCKED: ATOM     37  H   UNL d   1     -11.685  11.643  14.559 +0.02 -0.01    +0.295 HD
DOCKED: ENDBRANCH  34  36
DOCKED: ENDBRANCH  33  34
DOCKED: ENDBRANCH   7  33
DOCKED: BRANCH  27  38
DOCKED: ATOM     38  C   UNL d   1      -7.657   3.697  17.821 -0.21 +0.00    +0.017 C 
DOCKED: ATOM     39  C   UNL d   1      -6.556   2.947  17.979 -0.23 +0.02    +0.092 C 
DOCKED: BRANCH  39  40
DOCKED: ATOM     40  C   UNL d   1      -6.580   1.794  18.883 -0.09 +0.08    +0.330 C 
DOCKED: ATOM     41  O   UNL d   1      -7.169   0.741  18.728 -0.54 -0.13    -0.246 OA
DOCKED: BRANCH  40  42
DOCKED: ATOM     42  O   UNL d   1      -5.826   2.040  19.965 -0.03 +0.00    -0.477 OA
DOCKED: ATOM     43  H   UNL d   1      -5.086   2.579  19.618 +0.08 -0.02    +0.295 HD
DOCKED: ENDBRANCH  40  42
DOCKED: ENDBRANCH  39  40
DOCKED: ENDBRANCH  27  38
DOCKED: BRANCH   8  44
DOCKED: ATOM     44  C   UNL d   1      -5.700  14.177  15.493 -0.09 -0.03    +0.141 C 
DOCKED: BRANCH  44  45
DOCKED: ATOM     45  C   UNL d   1      -4.886  13.672  14.331 -0.13 -0.07    +0.306 C 
DOCKED: ATOM     46  O   UNL d   1      -5.287  13.465  13.199 -0.14 +0.04    -0.251 OA
DOCKED: BRANCH  45  47
DOCKED: ATOM     47  O   UNL d   1      -3.607  13.426  14.667 -0.10 +0.19    -0.481 OA
DOCKED: ATOM     48  H   UNL d   1      -3.492  13.857  15.540 -0.33 -0.15    +0.295 HD
DOCKED: ENDBRANCH  45  47
DOCKED: ENDBRANCH  44  45
DOCKED: ENDBRANCH   8  44
DOCKED: BRANCH  22  49
DOCKED: ATOM     49  C   UNL d   1      -2.332   5.385  17.550 -0.17 -0.01    +0.048 C 
DOCKED: BRANCH  49  50
DOCKED: ATOM     50  C   UNL d   1      -2.155   5.042  19.029 -0.28 -0.05    +0.125 C 
DOCKED: BRANCH  50  51
DOCKED: ATOM     51  C   UNL d   1      -3.216   4.083  19.488 -0.13 -0.11    +0.305 C 
DOCKED: ATOM     52  O   UNL d   1      -3.087   2.899  19.745 -0.19 +0.15    -0.251 OA
DOCKED: BRANCH  51  53
DOCKED: ATOM     53  O   UNL d   1      -4.422   4.677  19.592 -0.02 +0.09    -0.481 OA
DOCKED: ATOM     54  H   UNL d   1      -4.958   4.038  20.106 +0.07 -0.05    +0.295 HD
DOCKED: ENDBRANCH  51  53
DOCKED: ENDBRANCH  50  51
DOCKED: ENDBRANCH  49  50
DOCKED: ENDBRANCH  22  49
DOCKED: TORSDOF 13
DOCKED: TER
DOCKED: ENDMDL
________________________________________________________________________________


	BEGINNING GENETIC ALGORITHM DOCKING 94 of 100
Run: 94 Seed: 1306947134 2066469543 [ Run 94 of 100 GA/GALS ]
Beginning LAMARCKIAN GENETIC ALGORITHM (LGA), with a maximum of 25000000 energy evaluations.

Final-Value: -12.284


	FINAL GENETIC ALGORITHM DOCKED STATE
	_______________________________________________


Detailed state:  trans 12.519 8.596 -12.798 quatxyzw -0.564385 0.201671 0.256168 0.758404 center 0.153 0.018 -0.028 ntor 13 142.2308 152.0327 -81.9090 54.8416 10.6150 95.1136 -39.6538 51.8056 -34.0312 -106.8213 -84.8423 -106.2449 4.5437
State:	 12.519   8.596 -12.798  -0.866  0.309  0.393 81.353    142.23  152.03  -81.91   54.84   10.61   95.11  -39.65   51.81  -34.03 -106.82  -84.84 -106.24    4.54

DOCKED: MODEL       94
DOCKED: USER    Run = 94
DOCKED: USER    DPF = D:/Protein_go_brrr/autodock/final/mut_N102T/heme/dock.dpf
DOCKED: USER  
DOCKED: USER    Estimated Free Energy of Binding    =   -5.11 kcal/mol  [=(1)+(2)+(3)-(4)]
DOCKED: USER    Estimated Inhibition Constant, Ki   =  179.55 uM (micromolar)  [Temperature = 298.15 K]
DOCKED: USER    
DOCKED: USER    (1) Final Intermolecular Energy     =   -8.99 kcal/mol
DOCKED: USER        vdW + Hbond + desolv Energy     =   -7.84 kcal/mol
DOCKED: USER        Electrostatic Energy            =   -1.15 kcal/mol
DOCKED: USER    (2) Final Total Internal Energy     =   -3.30 kcal/mol
DOCKED: USER    (3) Torsional Free Energy           =   +3.88 kcal/mol
DOCKED: USER    (4) Unbound System's Energy  [=(2)] =   -3.30 kcal/mol
DOCKED: USER    
DOCKED: USER    
DOCKED: USER    NEWDPF move heme_opt.pdbqt
DOCKED: USER    NEWDPF about 0.153000 0.018000 -0.028000
DOCKED: USER    NEWDPF tran0 12.519427 8.595662 -12.797693
DOCKED: USER    NEWDPF quaternion0 -0.564385 0.201671 0.256168 0.758404
DOCKED: USER    NEWDPF axisangle0 -0.865907 0.309413 0.393025 81.352629
DOCKED: USER    NEWDPF quat0 -0.865907 0.309413 0.393025 81.352629
DOCKED: USER    NEWDPF dihe0 142.23 152.03 -81.91 54.84 10.61 95.11 -39.65 51.81 -34.03 -106.82 -84.84 -106.24 4.54 
DOCKED: USER  keepresnum = 1 
DOCKED: USER  
DOCKED: REMARK  13 active torsions:
DOCKED: REMARK  status: ('A' for Active; 'I' for Inactive)
DOCKED: REMARK    1  A    between atoms: O_3  and  C_38 
DOCKED: REMARK    2  A    between atoms: O_4  and  C_40 
DOCKED: REMARK    3  A    between atoms: O_7  and  C_46 
DOCKED: REMARK    4  A    between atoms: O_9  and  C_48 
DOCKED: REMARK    5  A    between atoms: C_15  and  C_20 
DOCKED: REMARK    6  A    between atoms: C_16  and  C_23 
DOCKED: REMARK    7  A    between atoms: C_20  and  C_38 
DOCKED: REMARK    8  A    between atoms: C_23  and  C_40 
DOCKED: REMARK    9  A    between atoms: C_32  and  C_41 
DOCKED: REMARK   10  A    between atoms: C_37  and  C_45 
DOCKED: REMARK   11  A    between atoms: C_41  and  C_44 
DOCKED: REMARK   12  A    between atoms: C_44  and  C_46 
DOCKED: REMARK   13  A    between atoms: C_47  and  C_48 
DOCKED: USER                              x       y       z     vdW  Elec       q    Type
DOCKED: USER                           _______ _______ _______ _____ _____    ______ ____
DOCKED: ROOT
DOCKED: ATOM      1  O   UNL d   1       7.987  11.957 -11.089 -0.15 +0.09    -0.289 OA
DOCKED: ATOM      2  O   UNL d   1      10.587  10.299 -17.936 -0.07 -0.04    -0.289 OA
DOCKED: ATOM      3  N   UNL d   1      10.797  10.023 -11.603 -0.10 +0.08    -0.247 NA
DOCKED: ATOM      4  N   UNL d   1      10.855   9.673 -14.553 -0.14 +0.01    -0.247 NA
DOCKED: ATOM      5  N   UNL d   1      12.806   7.596 -14.175 -0.13 +0.03    -0.354 N 
DOCKED: ATOM      6  N   UNL d   1      12.725   7.952 -11.114 -0.10 +0.11    -0.354 N 
DOCKED: ATOM      7  C   UNL d   1       9.476  10.668  -9.641 -0.28 -0.03    +0.084 A 
DOCKED: ATOM      8  C   UNL d   1       9.783  11.403 -15.905 -0.09 -0.01    +0.084 A 
DOCKED: ATOM      9  C   UNL d   1      10.096  10.822 -14.522 -0.14 -0.01    +0.058 A 
DOCKED: ATOM     10  C   UNL d   1      10.663   9.900 -10.230 -0.17 -0.02    +0.058 A 
DOCKED: ATOM     11  C   UNL d   1       8.973  11.262 -10.922 -0.15 -0.06    +0.193 A 
DOCKED: ATOM     12  C   UNL d   1       9.873  10.818 -12.034 -0.17 -0.03    +0.109 A 
DOCKED: ATOM     13  C   UNL d   1      10.473  10.352 -16.727 -0.10 +0.01    +0.193 A 
DOCKED: ATOM     14  C   UNL d   1       8.407   9.729  -9.077 -0.59 -0.01    +0.026 C 
DOCKED: ATOM     15  C   UNL d   1       9.625  11.358 -13.386 -0.15 -0.01    +0.055 C 
DOCKED: ATOM     16  C   UNL d   1      10.487  12.745 -16.129 -0.03 -0.00    +0.026 C 
DOCKED: ATOM     17  C   UNL d   1      11.076   9.358 -15.788 -0.13 +0.01    +0.109 A 
DOCKED: ATOM     18  C   UNL d   1      11.537   9.244  -9.443 -0.10 -0.01    +0.050 C 
DOCKED: ATOM     19  C   UNL d   1      12.707   8.579  -9.889 -0.26 -0.01    +0.045 A 
DOCKED: ATOM     20  C   UNL d   1      12.533   7.423 -15.507 -0.18 +0.00    +0.045 A 
DOCKED: ATOM     21  C   UNL d   1      11.785   8.182 -16.315 -0.12 +0.01    +0.057 C 
DOCKED: ATOM     22  C   UNL d   1      13.888   5.723 -14.805 -0.16 +0.00    -0.019 A 
DOCKED: ATOM     23  C   UNL d   1      13.617   6.618 -13.662 -0.20 -0.01    +0.045 A 
DOCKED: ATOM     24  C   UNL d   1      13.244   6.205 -15.894 -0.18 +0.00    -0.022 A 
DOCKED: ATOM     25  C   UNL d   1      13.920   7.297 -11.305 -0.19 -0.01    +0.049 A 
DOCKED: ATOM     26  C   UNL d   1      13.935   8.357  -9.283 -0.21 +0.00    -0.018 A 
DOCKED: ATOM     27  C   UNL d   1      14.704   7.564 -10.190 -0.12 -0.00    +0.003 A 
DOCKED: ATOM     28  C   UNL d   1      14.116   6.449 -12.428 -0.20 -0.01    +0.052 C 
DOCKED: ATOM     29  C   UNL d   1      13.222   5.660 -17.282 -0.13 +0.00    +0.046 C 
DOCKED: ATOM     30  C   UNL d   1      14.370   8.852  -7.946 -0.11 -0.01    +0.046 C 
DOCKED: ATOM     31  H   UNL d   1      12.489   8.420 -13.676 +0.03 -0.02    +0.166 HD
DOCKED: ATOM     32  H   UNL d   1      11.940   7.950 -11.755 -0.33 -0.07    +0.166 HD
DOCKED: ENDROOT
DOCKED: BRANCH   7  33
DOCKED: ATOM     33  C   UNL d   1       9.839  11.771  -8.641 -0.23 -0.09    +0.141 C 
DOCKED: BRANCH  33  34
DOCKED: ATOM     34  C   UNL d   1      11.303  12.117  -8.666 -0.10 -0.17    +0.306 C 
DOCKED: ATOM     35  O   UNL d   1      11.911  12.611  -9.600 -0.03 +0.08    -0.251 OA
DOCKED: BRANCH  34  36
DOCKED: ATOM     36  O   UNL d   1      11.924  11.823  -7.510 -0.63 +0.33    -0.481 OA
DOCKED: ATOM     37  H   UNL d   1      11.285  12.084  -6.813 -0.47 -0.60    +0.295 HD
DOCKED: ENDBRANCH  34  36
DOCKED: ENDBRANCH  33  34
DOCKED: ENDBRANCH   7  33
DOCKED: BRANCH  27  38
DOCKED: ATOM     38  C   UNL d   1      16.034   7.093  -9.951 -0.05 -0.00    +0.017 C 
DOCKED: ATOM     39  C   UNL d   1      16.376   5.814  -9.737 -0.03 -0.01    +0.092 C 
DOCKED: BRANCH  39  40
DOCKED: ATOM     40  C   UNL d   1      17.782   5.460  -9.521 +0.00 -0.03    +0.330 C 
DOCKED: ATOM     41  O   UNL d   1      18.368   5.358  -8.460 -0.00 +0.02    -0.246 OA
DOCKED: BRANCH  40  42
DOCKED: ATOM     42  O   UNL d   1      18.388   5.237 -10.697 +0.00 +0.04    -0.477 OA
DOCKED: ATOM     43  H   UNL d   1      17.663   4.931 -11.281 +0.01 -0.03    +0.295 HD
DOCKED: ENDBRANCH  40  42
DOCKED: ENDBRANCH  39  40
DOCKED: ENDBRANCH  27  38
DOCKED: BRANCH   8  44
DOCKED: ATOM     44  C   UNL d   1       8.296  11.491 -16.264 -0.15 -0.07    +0.141 C 
DOCKED: BRANCH  44  45
DOCKED: ATOM     45  C   UNL d   1       8.043  11.517 -17.747 +0.01 -0.17    +0.306 C 
DOCKED: ATOM     46  O   UNL d   1       8.080  12.495 -18.474 -0.07 +0.10    -0.251 OA
DOCKED: BRANCH  45  47
DOCKED: ATOM     47  O   UNL d   1       7.726  10.305 -18.237 -0.55 +0.09    -0.481 OA
DOCKED: ATOM     48  H   UNL d   1       6.746  10.302 -18.278 -0.25 -0.62    +0.295 HD
DOCKED: ENDBRANCH  45  47
DOCKED: ENDBRANCH  44  45
DOCKED: ENDBRANCH   8  44
DOCKED: BRANCH  22  49
DOCKED: ATOM     49  C   UNL d   1      14.730   4.484 -14.723 -0.11 -0.01    +0.048 C 
DOCKED: BRANCH  49  50
DOCKED: ATOM     50  C   UNL d   1      16.223   4.808 -14.745 -0.03 -0.01    +0.125 C 
DOCKED: BRANCH  50  51
DOCKED: ATOM     51  C   UNL d   1      16.779   4.871 -13.351 -0.01 -0.03    +0.305 C 
DOCKED: ATOM     52  O   UNL d   1      16.588   4.087 -12.438 -0.02 +0.03    -0.251 OA
DOCKED: BRANCH  51  53
DOCKED: ATOM     53  O   UNL d   1      17.558   5.956 -13.167 +0.00 +0.04    -0.481 OA
DOCKED: ATOM     54  H   UNL d   1      18.405   5.588 -12.839 +0.00 -0.02    +0.295 HD
DOCKED: ENDBRANCH  51  53
DOCKED: ENDBRANCH  50  51
DOCKED: ENDBRANCH  49  50
DOCKED: ENDBRANCH  22  49
DOCKED: TORSDOF 13
DOCKED: TER
DOCKED: ENDMDL
________________________________________________________________________________


	BEGINNING GENETIC ALGORITHM DOCKING 95 of 100
Run: 95 Seed: 1612309673 1676897962 [ Run 95 of 100 GA/GALS ]
Beginning LAMARCKIAN GENETIC ALGORITHM (LGA), with a maximum of 25000000 energy evaluations.

Final-Value: -12.616


	FINAL GENETIC ALGORITHM DOCKED STATE
	_______________________________________________


Detailed state:  trans 11.617 8.404 -13.042 quatxyzw -0.719415 0.331068 -0.295016 -0.534604 center 0.153 0.018 -0.028 ntor 13 -178.4601 179.7484 54.0434 13.4770 41.5206 97.6296 -56.1944 -116.5329 137.0588 -99.3651 -115.3641 -76.4134 -18.5682
State:	 11.617   8.404 -13.042  -0.851  0.392 -0.349 -115.366   -178.46  179.75   54.04   13.48   41.52   97.63  -56.19 -116.53  137.06  -99.37 -115.36  -76.41  -18.57

DOCKED: MODEL       95
DOCKED: USER    Run = 95
DOCKED: USER    DPF = D:/Protein_go_brrr/autodock/final/mut_N102T/heme/dock.dpf
DOCKED: USER  
DOCKED: USER    Estimated Free Energy of Binding    =   -5.43 kcal/mol  [=(1)+(2)+(3)-(4)]
DOCKED: USER    Estimated Inhibition Constant, Ki   =  104.96 uM (micromolar)  [Temperature = 298.15 K]
DOCKED: USER    
DOCKED: USER    (1) Final Intermolecular Energy     =   -9.31 kcal/mol
DOCKED: USER        vdW + Hbond + desolv Energy     =   -9.07 kcal/mol
DOCKED: USER        Electrostatic Energy            =   -0.24 kcal/mol
DOCKED: USER    (2) Final Total Internal Energy     =   -3.31 kcal/mol
DOCKED: USER    (3) Torsional Free Energy           =   +3.88 kcal/mol
DOCKED: USER    (4) Unbound System's Energy  [=(2)] =   -3.31 kcal/mol
DOCKED: USER    
DOCKED: USER    
DOCKED: USER    NEWDPF move heme_opt.pdbqt
DOCKED: USER    NEWDPF about 0.153000 0.018000 -0.028000
DOCKED: USER    NEWDPF tran0 11.617336 8.403989 -13.041818
DOCKED: USER    NEWDPF quaternion0 -0.719415 0.331068 -0.295016 -0.534604
DOCKED: USER    NEWDPF axisangle0 -0.851275 0.391749 -0.349089 -115.365832
DOCKED: USER    NEWDPF quat0 -0.851275 0.391749 -0.349089 -115.365832
DOCKED: USER    NEWDPF dihe0 -178.46 179.75 54.04 13.48 41.52 97.63 -56.19 -116.53 137.06 -99.37 -115.36 -76.41 -18.57 
DOCKED: USER  keepresnum = 1 
DOCKED: USER  
DOCKED: REMARK  13 active torsions:
DOCKED: REMARK  status: ('A' for Active; 'I' for Inactive)
DOCKED: REMARK    1  A    between atoms: O_3  and  C_38 
DOCKED: REMARK    2  A    between atoms: O_4  and  C_40 
DOCKED: REMARK    3  A    between atoms: O_7  and  C_46 
DOCKED: REMARK    4  A    between atoms: O_9  and  C_48 
DOCKED: REMARK    5  A    between atoms: C_15  and  C_20 
DOCKED: REMARK    6  A    between atoms: C_16  and  C_23 
DOCKED: REMARK    7  A    between atoms: C_20  and  C_38 
DOCKED: REMARK    8  A    between atoms: C_23  and  C_40 
DOCKED: REMARK    9  A    between atoms: C_32  and  C_41 
DOCKED: REMARK   10  A    between atoms: C_37  and  C_45 
DOCKED: REMARK   11  A    between atoms: C_41  and  C_44 
DOCKED: REMARK   12  A    between atoms: C_44  and  C_46 
DOCKED: REMARK   13  A    between atoms: C_47  and  C_48 
DOCKED: USER                              x       y       z     vdW  Elec       q    Type
DOCKED: USER                           _______ _______ _______ _____ _____    ______ ____
DOCKED: ROOT
DOCKED: ATOM      1  O   UNL d   1       8.446  12.865 -15.231 -0.04 +0.09    -0.289 OA
DOCKED: ATOM      2  O   UNL d   1       9.556  10.615  -8.153 -0.34 +0.16    -0.289 OA
DOCKED: ATOM      3  N   UNL d   1      10.303  10.072 -14.428 -0.14 +0.02    -0.247 NA
DOCKED: ATOM      4  N   UNL d   1      10.430  10.166 -11.461 -0.11 +0.08    -0.247 NA
DOCKED: ATOM      5  N   UNL d   1      12.508   8.182 -11.580 -0.08 +0.11    -0.354 N 
DOCKED: ATOM      6  N   UNL d   1      12.383   8.105 -14.659 -0.11 +0.01    -0.354 N 
DOCKED: ATOM      7  C   UNL d   1       9.823  11.293 -16.499 -0.09 -0.01    +0.084 A 
DOCKED: ATOM      8  C   UNL d   1       8.616  11.320 -10.301 -0.24 -0.03    +0.084 A 
DOCKED: ATOM      9  C   UNL d   1       9.296  10.931 -11.617 -0.21 -0.02    +0.058 A 
DOCKED: ATOM     10  C   UNL d   1      10.531  10.133 -15.793 -0.14 +0.00    +0.058 A 
DOCKED: ATOM     11  C   UNL d   1       9.139  11.867 -15.294 -0.07 -0.04    +0.193 A 
DOCKED: ATOM     12  C   UNL d   1       9.488  11.024 -14.107 -0.15 -0.02    +0.109 A 
DOCKED: ATOM     13  C   UNL d   1       9.595  10.666  -9.367 -0.23 -0.07    +0.193 A 
DOCKED: ATOM     14  C   UNL d   1      10.813  12.324 -17.044 -0.03 -0.00    +0.026 C 
DOCKED: ATOM     15  C   UNL d   1       8.852  11.345 -12.814 -0.21 -0.01    +0.055 C 
DOCKED: ATOM     16  C   UNL d   1       7.253  10.639 -10.142 -0.48 -0.01    +0.026 C 
DOCKED: ATOM     17  C   UNL d   1      10.650  10.007 -10.196 -0.17 -0.04    +0.109 A 
DOCKED: ATOM     18  C   UNL d   1      11.233   9.214 -16.482 -0.16 +0.01    +0.050 C 
DOCKED: ATOM     19  C   UNL d   1      11.850   8.064 -15.927 -0.07 +0.01    +0.045 A 
DOCKED: ATOM     20  C   UNL d   1      12.584   8.524 -10.255 -0.24 -0.01    +0.045 A 
DOCKED: ATOM     21  C   UNL d   1      11.775   9.318  -9.546 -0.21 -0.01    +0.057 C 
DOCKED: ATOM     22  C   UNL d   1      14.316   7.121 -10.756 -0.17 +0.00    -0.019 A 
DOCKED: ATOM     23  C   UNL d   1      13.512   7.339 -11.975 -0.22 -0.01    +0.045 A 
DOCKED: ATOM     24  C   UNL d   1      13.760   7.824  -9.740 -0.24 +0.00    -0.022 A 
DOCKED: ATOM     25  C   UNL d   1      13.008   6.917 -14.358 -0.21 -0.00    +0.049 A 
DOCKED: ATOM     26  C   UNL d   1      12.102   6.805 -16.450 -0.04 -0.00    -0.018 A 
DOCKED: ATOM     27  C   UNL d   1      12.816   6.079 -15.448 -0.21 -0.00    +0.003 A 
DOCKED: ATOM     28  C   UNL d   1      13.767   6.774 -13.165 -0.22 -0.01    +0.052 C 
DOCKED: ATOM     29  C   UNL d   1      14.200   7.915  -8.319 -0.21 -0.01    +0.046 C 
DOCKED: ATOM     30  C   UNL d   1      11.704   6.304 -17.797 -0.12 +0.01    +0.046 C 
DOCKED: ATOM     31  H   UNL d   1      11.727   8.479 -12.156 -0.35 -0.06    +0.166 HD
DOCKED: ATOM     32  H   UNL d   1      12.345   8.923 -14.062 +0.04 -0.01    +0.166 HD
DOCKED: ENDROOT
DOCKED: BRANCH   7  33
DOCKED: ATOM     33  C   UNL d   1       8.793  10.887 -17.559 -0.16 -0.02    +0.141 C 
DOCKED: BRANCH  33  34
DOCKED: ATOM     34  C   UNL d   1       8.219  12.069 -18.291 -0.06 -0.12    +0.306 C 
DOCKED: ATOM     35  O   UNL d   1       8.601  12.508 -19.362 -0.03 +0.04    -0.251 OA
DOCKED: BRANCH  34  36
DOCKED: ATOM     36  O   UNL d   1       7.190  12.635 -17.635 +0.01 +0.42    -0.481 OA
DOCKED: ATOM     37  H   UNL d   1       7.080  12.088 -16.829 -0.44 -0.39    +0.295 HD
DOCKED: ENDBRANCH  34  36
DOCKED: ENDBRANCH  33  34
DOCKED: ENDBRANCH   7  33
DOCKED: BRANCH  27  38
DOCKED: ATOM     38  C   UNL d   1      13.289   4.734 -15.582 -0.16 -0.00    +0.017 C 
DOCKED: ATOM     39  C   UNL d   1      14.469   4.279 -15.134 -0.11 -0.02    +0.092 C 
DOCKED: BRANCH  39  40
DOCKED: ATOM     40  C   UNL d   1      14.827   2.871 -15.321 -0.06 -0.04    +0.330 C 
DOCKED: ATOM     41  O   UNL d   1      15.493   2.385 -16.215 -0.02 +0.02    -0.246 OA
DOCKED: BRANCH  40  42
DOCKED: ATOM     42  O   UNL d   1      14.314   2.128 -14.327 -0.06 +0.08    -0.477 OA
DOCKED: ATOM     43  H   UNL d   1      13.849   2.780 -13.764 -0.50 -0.13    +0.295 HD
DOCKED: ENDBRANCH  40  42
DOCKED: ENDBRANCH  39  40
DOCKED: ENDBRANCH  27  38
DOCKED: BRANCH   8  44
DOCKED: ATOM     44  C   UNL d   1       8.519  12.825 -10.027 -0.15 -0.05    +0.141 C 
DOCKED: BRANCH  44  45
DOCKED: ATOM     45  C   UNL d   1       8.564  13.166  -8.562 -0.13 -0.19    +0.306 C 
DOCKED: ATOM     46  O   UNL d   1       7.612  13.431  -7.847 -0.34 +0.18    -0.251 OA
DOCKED: BRANCH  45  47
DOCKED: ATOM     47  O   UNL d   1       9.818  13.183  -8.075 -0.07 +0.47    -0.481 OA
DOCKED: ATOM     48  H   UNL d   1       9.790  12.586  -7.298 -0.26 -0.54    +0.295 HD
DOCKED: ENDBRANCH  45  47
DOCKED: ENDBRANCH  44  45
DOCKED: ENDBRANCH   8  44
DOCKED: BRANCH  22  49
DOCKED: ATOM     49  C   UNL d   1      15.548   6.267 -10.700 -0.07 -0.01    +0.048 C 
DOCKED: BRANCH  49  50
DOCKED: ATOM     50  C   UNL d   1      15.266   4.902 -10.074 -0.09 -0.02    +0.125 C 
DOCKED: BRANCH  50  51
DOCKED: ATOM     51  C   UNL d   1      14.333   4.099 -10.935 -0.11 -0.09    +0.305 C 
DOCKED: ATOM     52  O   UNL d   1      13.257   3.622 -10.621 -0.26 +0.11    -0.251 OA
DOCKED: BRANCH  51  53
DOCKED: ATOM     53  O   UNL d   1      14.821   3.922 -12.179 -0.04 +0.14    -0.481 OA
DOCKED: ATOM     54  H   UNL d   1      14.055   3.587 -12.690 -0.48 -0.18    +0.295 HD
DOCKED: ENDBRANCH  51  53
DOCKED: ENDBRANCH  50  51
DOCKED: ENDBRANCH  49  50
DOCKED: ENDBRANCH  22  49
DOCKED: TORSDOF 13
DOCKED: TER
DOCKED: ENDMDL
________________________________________________________________________________


	BEGINNING GENETIC ALGORITHM DOCKING 96 of 100
Run: 96 Seed: 1834318956 1470098780 [ Run 96 of 100 GA/GALS ]
Beginning LAMARCKIAN GENETIC ALGORITHM (LGA), with a maximum of 25000000 energy evaluations.

Final-Value: -13.581


	FINAL GENETIC ALGORITHM DOCKED STATE
	_______________________________________________


Detailed state:  trans 4.726 14.332 -11.123 quatxyzw -0.782003 -0.004116 -0.438414 -0.442998 center 0.153 0.018 -0.028 ntor 13 102.7391 61.7886 -179.8914 176.2542 -148.9944 -175.8144 148.9843 117.8738 77.9790 -1.5762 57.2610 27.0225 -149.2542
State:	  4.726  14.332 -11.123  -0.872 -0.005 -0.489 -127.409    102.74   61.79 -179.89  176.25 -148.99 -175.81  148.98  117.87   77.98   -1.58   57.26   27.02 -149.25

DOCKED: MODEL       96
DOCKED: USER    Run = 96
DOCKED: USER    DPF = D:/Protein_go_brrr/autodock/final/mut_N102T/heme/dock.dpf
DOCKED: USER  
DOCKED: USER    Estimated Free Energy of Binding    =   -7.51 kcal/mol  [=(1)+(2)+(3)-(4)]
DOCKED: USER    Estimated Inhibition Constant, Ki   =    3.12 uM (micromolar)  [Temperature = 298.15 K]
DOCKED: USER    
DOCKED: USER    (1) Final Intermolecular Energy     =  -11.39 kcal/mol
DOCKED: USER        vdW + Hbond + desolv Energy     =  -10.79 kcal/mol
DOCKED: USER        Electrostatic Energy            =   -0.60 kcal/mol
DOCKED: USER    (2) Final Total Internal Energy     =   -2.19 kcal/mol
DOCKED: USER    (3) Torsional Free Energy           =   +3.88 kcal/mol
DOCKED: USER    (4) Unbound System's Energy  [=(2)] =   -2.19 kcal/mol
DOCKED: USER    
DOCKED: USER    
DOCKED: USER    NEWDPF move heme_opt.pdbqt
DOCKED: USER    NEWDPF about 0.153000 0.018000 -0.028000
DOCKED: USER    NEWDPF tran0 4.726465 14.332345 -11.122773
DOCKED: USER    NEWDPF quaternion0 -0.782003 -0.004116 -0.438414 -0.442998
DOCKED: USER    NEWDPF axisangle0 -0.872263 -0.004591 -0.489016 -127.409322
DOCKED: USER    NEWDPF quat0 -0.872263 -0.004591 -0.489016 -127.409322
DOCKED: USER    NEWDPF dihe0 102.74 61.79 -179.89 176.25 -148.99 -175.81 148.98 117.87 77.98 -1.58 57.26 27.02 -149.25 
DOCKED: USER  keepresnum = 1 
DOCKED: USER  
DOCKED: REMARK  13 active torsions:
DOCKED: REMARK  status: ('A' for Active; 'I' for Inactive)
DOCKED: REMARK    1  A    between atoms: O_3  and  C_38 
DOCKED: REMARK    2  A    between atoms: O_4  and  C_40 
DOCKED: REMARK    3  A    between atoms: O_7  and  C_46 
DOCKED: REMARK    4  A    between atoms: O_9  and  C_48 
DOCKED: REMARK    5  A    between atoms: C_15  and  C_20 
DOCKED: REMARK    6  A    between atoms: C_16  and  C_23 
DOCKED: REMARK    7  A    between atoms: C_20  and  C_38 
DOCKED: REMARK    8  A    between atoms: C_23  and  C_40 
DOCKED: REMARK    9  A    between atoms: C_32  and  C_41 
DOCKED: REMARK   10  A    between atoms: C_37  and  C_45 
DOCKED: REMARK   11  A    between atoms: C_41  and  C_44 
DOCKED: REMARK   12  A    between atoms: C_44  and  C_46 
DOCKED: REMARK   13  A    between atoms: C_47  and  C_48 
DOCKED: USER                              x       y       z     vdW  Elec       q    Type
DOCKED: USER                           _______ _______ _______ _____ _____    ______ ____
DOCKED: ROOT
DOCKED: ATOM      1  O   UNL d   1       2.381  15.901 -16.299 -0.12 -0.03    -0.289 OA
DOCKED: ATOM      2  O   UNL d   1       0.100  17.191  -9.262 -0.16 +0.06    -0.289 OA
DOCKED: ATOM      3  N   UNL d   1       4.032  14.650 -13.541 -0.15 +0.09    -0.247 NA
DOCKED: ATOM      4  N   UNL d   1       2.606  15.912 -11.261 -0.16 +0.09    -0.247 NA
DOCKED: ATOM      5  N   UNL d   1       4.768  15.070  -9.563 -0.14 +0.15    -0.354 N 
DOCKED: ATOM      6  N   UNL d   1       6.250  13.780 -11.938 +0.05 +0.18    -0.354 N 
DOCKED: ATOM      7  C   UNL d   1       4.468  14.675 -15.953 -0.13 -0.02    +0.084 A 
DOCKED: ATOM      8  C   UNL d   1       0.281  16.572 -11.623 -0.15 -0.01    +0.084 A 
DOCKED: ATOM      9  C   UNL d   1       1.595  16.024 -12.190 -0.22 -0.01    +0.058 A 
DOCKED: ATOM     10  C   UNL d   1       4.910  14.272 -14.544 -0.19 -0.02    +0.058 A 
DOCKED: ATOM     11  C   UNL d   1       3.175  15.332 -15.572 -0.13 -0.02    +0.193 A 
DOCKED: ATOM     12  C   UNL d   1       3.013  15.229 -14.087 -0.21 -0.02    +0.109 A 
DOCKED: ATOM     13  C   UNL d   1       0.744  16.786 -10.210 -0.12 -0.05    +0.193 A 
DOCKED: ATOM     14  C   UNL d   1       5.395  15.727 -16.568 -0.05 -0.00    +0.026 C 
DOCKED: ATOM     15  C   UNL d   1       1.759  15.730 -13.488 -0.26 -0.00    +0.055 C 
DOCKED: ATOM     16  C   UNL d   1      -0.824  15.512 -11.625 -0.25 -0.00    +0.026 C 
DOCKED: ATOM     17  C   UNL d   1       2.172  16.354 -10.124 -0.04 -0.04    +0.109 A 
DOCKED: ATOM     18  C   UNL d   1       6.017  13.533 -14.338 -0.22 -0.02    +0.050 C 
DOCKED: ATOM     19  C   UNL d   1       6.457  13.043 -13.082 -0.17 -0.02    +0.045 A 
DOCKED: ATOM     20  C   UNL d   1       4.093  15.890  -8.696 -0.28 -0.02    +0.045 A 
DOCKED: ATOM     21  C   UNL d   1       2.909  16.489  -8.859 -0.28 -0.02    +0.057 C 
DOCKED: ATOM     22  C   UNL d   1       6.056  15.243  -7.723 -0.22 +0.01    -0.019 A 
DOCKED: ATOM     23  C   UNL d   1       5.964  14.630  -9.064 -0.25 -0.02    +0.045 A 
DOCKED: ATOM     24  C   UNL d   1       4.945  15.987  -7.511 -0.23 +0.01    -0.022 A 
DOCKED: ATOM     25  C   UNL d   1       6.834  13.164 -10.855 -0.14 -0.02    +0.049 A 
DOCKED: ATOM     26  C   UNL d   1       7.161  11.903 -12.728 -0.28 +0.01    -0.018 A 
DOCKED: ATOM     27  C   UNL d   1       7.379  11.975 -11.318 -0.31 -0.00    +0.003 A 
DOCKED: ATOM     28  C   UNL d   1       6.888  13.812  -9.591 -0.26 -0.02    +0.052 C 
DOCKED: ATOM     29  C   UNL d   1       4.572  16.785  -6.308 -0.17 -0.02    +0.046 C 
DOCKED: ATOM     30  C   UNL d   1       7.604  10.811 -13.642 -0.18 -0.02    +0.046 C 
DOCKED: ATOM     31  H   UNL d   1       4.353  14.777 -10.441 -0.29 -0.09    +0.166 HD
DOCKED: ATOM     32  H   UNL d   1       5.767  14.670 -11.924 -0.09 -0.07    +0.166 HD
DOCKED: ENDROOT
DOCKED: BRANCH   7  33
DOCKED: ATOM     33  C   UNL d   1       4.216  13.513 -16.921 -0.21 -0.08    +0.141 C 
DOCKED: BRANCH  33  34
DOCKED: ATOM     34  C   UNL d   1       2.846  13.563 -17.541 -0.27 -0.05    +0.306 C 
DOCKED: ATOM     35  O   UNL d   1       1.853  12.979 -17.141 -0.62 +0.00    -0.251 OA
DOCKED: BRANCH  34  36
DOCKED: ATOM     36  O   UNL d   1       2.799  14.348 -18.632 -0.09 -0.02    -0.481 OA
DOCKED: ATOM     37  H   UNL d   1       2.737  15.260 -18.277 +0.09 +0.04    +0.295 HD
DOCKED: ENDBRANCH  34  36
DOCKED: ENDBRANCH  33  34
DOCKED: ENDBRANCH   7  33
DOCKED: BRANCH  27  38
DOCKED: ATOM     38  C   UNL d   1       8.085  11.001 -10.541 -0.41 -0.01    +0.017 C 
DOCKED: ATOM     39  C   UNL d   1       7.549  10.252  -9.566 -0.49 -0.02    +0.092 C 
DOCKED: BRANCH  39  40
DOCKED: ATOM     40  C   UNL d   1       8.379   9.275  -8.856 -0.27 -0.05    +0.330 C 
DOCKED: ATOM     41  O   UNL d   1       8.035   8.503  -7.981 -0.96 +0.00    -0.246 OA
DOCKED: BRANCH  40  42
DOCKED: ATOM     42  O   UNL d   1       9.640   9.322  -9.312 -0.52 +0.12    -0.477 OA
DOCKED: ATOM     43  H   UNL d   1       9.791   8.427  -9.679 -0.41 -0.15    +0.295 HD
DOCKED: ENDBRANCH  40  42
DOCKED: ENDBRANCH  39  40
DOCKED: ENDBRANCH  27  38
DOCKED: BRANCH   8  44
DOCKED: ATOM     44  C   UNL d   1      -0.209  17.885 -12.244 -0.05 -0.00    +0.141 C 
DOCKED: BRANCH  44  45
DOCKED: ATOM     45  C   UNL d   1       0.843  18.961 -12.266 +0.00 -0.01    +0.306 C 
DOCKED: ATOM     46  O   UNL d   1       1.474  19.342 -13.237 -0.00 -0.00    -0.251 OA
DOCKED: BRANCH  45  47
DOCKED: ATOM     47  O   UNL d   1       1.067  19.487 -11.048 +0.01 +0.03    -0.481 OA
DOCKED: ATOM     48  H   UNL d   1       0.447  19.012 -10.455 +0.04 -0.02    +0.295 HD
DOCKED: ENDBRANCH  45  47
DOCKED: ENDBRANCH  44  45
DOCKED: ENDBRANCH   8  44
DOCKED: BRANCH  22  49
DOCKED: ATOM     49  C   UNL d   1       7.217  15.059  -6.790 -0.18 -0.05    +0.048 C 
DOCKED: BRANCH  49  50
DOCKED: ATOM     50  C   UNL d   1       7.775  16.397  -6.306 -0.08 -0.09    +0.125 C 
DOCKED: BRANCH  50  51
DOCKED: ATOM     51  C   UNL d   1       9.229  16.531  -6.660 -0.03 -0.21    +0.305 C 
DOCKED: ATOM     52  O   UNL d   1       9.731  17.296  -7.465 -0.01 +0.10    -0.251 OA
DOCKED: BRANCH  51  53
DOCKED: ATOM     53  O   UNL d   1       9.998  15.662  -5.973 -0.04 +0.60    -0.481 OA
DOCKED: ATOM     54  H   UNL d   1       9.370  15.218  -5.365 -0.51 -0.72    +0.295 HD
DOCKED: ENDBRANCH  51  53
DOCKED: ENDBRANCH  50  51
DOCKED: ENDBRANCH  49  50
DOCKED: ENDBRANCH  22  49
DOCKED: TORSDOF 13
DOCKED: TER
DOCKED: ENDMDL
________________________________________________________________________________


	BEGINNING GENETIC ALGORITHM DOCKING 97 of 100
Run: 97 Seed: 443932790 559127576 [ Run 97 of 100 GA/GALS ]
Beginning LAMARCKIAN GENETIC ALGORITHM (LGA), with a maximum of 25000000 energy evaluations.

Final-Value: -11.649


	FINAL GENETIC ALGORITHM DOCKED STATE
	_______________________________________________


Detailed state:  trans -8.270 -14.313 10.864 quatxyzw 0.217616 0.161741 -0.646039 0.713524 center 0.153 0.018 -0.028 ntor 13 -127.9745 -18.4623 102.3681 32.1530 179.7892 -10.4213 -46.1772 -22.9454 -30.3614 -121.2764 41.0539 -75.1610 119.9262
State:	 -8.270 -14.313  10.864   0.311  0.231 -0.922 88.955   -127.97  -18.46  102.37   32.15  179.79  -10.42  -46.18  -22.95  -30.36 -121.28   41.05  -75.16  119.93

DOCKED: MODEL       97
DOCKED: USER    Run = 97
DOCKED: USER    DPF = D:/Protein_go_brrr/autodock/final/mut_N102T/heme/dock.dpf
DOCKED: USER  
DOCKED: USER    Estimated Free Energy of Binding    =   -5.35 kcal/mol  [=(1)+(2)+(3)-(4)]
DOCKED: USER    Estimated Inhibition Constant, Ki   =  120.19 uM (micromolar)  [Temperature = 298.15 K]
DOCKED: USER    
DOCKED: USER    (1) Final Intermolecular Energy     =   -9.23 kcal/mol
DOCKED: USER        vdW + Hbond + desolv Energy     =   -8.72 kcal/mol
DOCKED: USER        Electrostatic Energy            =   -0.50 kcal/mol
DOCKED: USER    (2) Final Total Internal Energy     =   -2.42 kcal/mol
DOCKED: USER    (3) Torsional Free Energy           =   +3.88 kcal/mol
DOCKED: USER    (4) Unbound System's Energy  [=(2)] =   -2.42 kcal/mol
DOCKED: USER    
DOCKED: USER    
DOCKED: USER    NEWDPF move heme_opt.pdbqt
DOCKED: USER    NEWDPF about 0.153000 0.018000 -0.028000
DOCKED: USER    NEWDPF tran0 -8.269760 -14.312853 10.863619
DOCKED: USER    NEWDPF quaternion0 0.217616 0.161741 -0.646039 0.713524
DOCKED: USER    NEWDPF axisangle0 0.310600 0.230851 -0.922082 88.955291
DOCKED: USER    NEWDPF quat0 0.310600 0.230851 -0.922082 88.955291
DOCKED: USER    NEWDPF dihe0 -127.97 -18.46 102.37 32.15 179.79 -10.42 -46.18 -22.95 -30.36 -121.28 41.05 -75.16 119.93 
DOCKED: USER  keepresnum = 1 
DOCKED: USER  
DOCKED: REMARK  13 active torsions:
DOCKED: REMARK  status: ('A' for Active; 'I' for Inactive)
DOCKED: REMARK    1  A    between atoms: O_3  and  C_38 
DOCKED: REMARK    2  A    between atoms: O_4  and  C_40 
DOCKED: REMARK    3  A    between atoms: O_7  and  C_46 
DOCKED: REMARK    4  A    between atoms: O_9  and  C_48 
DOCKED: REMARK    5  A    between atoms: C_15  and  C_20 
DOCKED: REMARK    6  A    between atoms: C_16  and  C_23 
DOCKED: REMARK    7  A    between atoms: C_20  and  C_38 
DOCKED: REMARK    8  A    between atoms: C_23  and  C_40 
DOCKED: REMARK    9  A    between atoms: C_32  and  C_41 
DOCKED: REMARK   10  A    between atoms: C_37  and  C_45 
DOCKED: REMARK   11  A    between atoms: C_41  and  C_44 
DOCKED: REMARK   12  A    between atoms: C_44  and  C_46 
DOCKED: REMARK   13  A    between atoms: C_47  and  C_48 
DOCKED: USER                              x       y       z     vdW  Elec       q    Type
DOCKED: USER                           _______ _______ _______ _____ _____    ______ ____
DOCKED: ROOT
DOCKED: ATOM      1  O   UNL d   1     -10.674 -19.696  10.821 -0.04 +0.16    -0.289 OA
DOCKED: ATOM      2  O   UNL d   1      -3.635 -17.452  12.168 -0.14 +0.20    -0.289 OA
DOCKED: ATOM      3  N   UNL d   1      -9.689 -16.398  10.597 -0.12 +0.17    -0.247 NA
DOCKED: ATOM      4  N   UNL d   1      -6.886 -16.454  11.580 -0.17 +0.15    -0.247 NA
DOCKED: ATOM      5  N   UNL d   1      -6.993 -13.587  11.771 -0.15 +0.13    -0.354 N 
DOCKED: ATOM      6  N   UNL d   1      -9.908 -13.540  10.768 -0.08 +0.15    -0.354 N 
DOCKED: ATOM      7  C   UNL d   1     -11.833 -17.576  10.450 -0.06 -0.03    +0.084 A 
DOCKED: ATOM      8  C   UNL d   1      -5.659 -18.553  11.341 -0.17 -0.06    +0.084 A 
DOCKED: ATOM      9  C   UNL d   1      -6.973 -17.777  11.211 -0.24 -0.04    +0.058 A 
DOCKED: ATOM     10  C   UNL d   1     -11.055 -16.258  10.415 -0.15 -0.02    +0.058 A 
DOCKED: ATOM     11  C   UNL d   1     -10.663 -18.489  10.664 -0.07 -0.12    +0.193 A 
DOCKED: ATOM     12  C   UNL d   1      -9.418 -17.658  10.710 -0.16 -0.09    +0.109 A 
DOCKED: ATOM     13  C   UNL d   1      -4.817 -17.434  11.888 -0.14 -0.12    +0.193 A 
DOCKED: ATOM     14  C   UNL d   1     -12.759 -17.665  11.665 -0.02 -0.01    +0.026 C 
DOCKED: ATOM     15  C   UNL d   1      -8.121 -18.354  10.821 -0.20 -0.05    +0.055 C 
DOCKED: ATOM     16  C   UNL d   1      -5.104 -18.964   9.974 -0.28 -0.02    +0.026 C 
DOCKED: ATOM     17  C   UNL d   1      -5.681 -16.219  11.992 -0.23 -0.06    +0.109 A 
DOCKED: ATOM     18  C   UNL d   1     -11.663 -15.089  10.140 -0.15 -0.01    +0.050 C 
DOCKED: ATOM     19  C   UNL d   1     -11.014 -13.836  10.004 -0.17 -0.01    +0.045 A 
DOCKED: ATOM     20  C   UNL d   1      -5.806 -13.821  12.415 -0.30 -0.02    +0.045 A 
DOCKED: ATOM     21  C   UNL d   1      -5.134 -14.970  12.541 -0.27 -0.03    +0.057 C 
DOCKED: ATOM     22  C   UNL d   1      -6.334 -11.608  12.622 -0.12 +0.00    -0.019 A 
DOCKED: ATOM     23  C   UNL d   1      -7.393 -12.279  11.842 -0.22 -0.01    +0.045 A 
DOCKED: ATOM     24  C   UNL d   1      -5.397 -12.526  12.957 -0.28 +0.01    -0.022 A 
DOCKED: ATOM     25  C   UNL d   1      -9.496 -12.247  10.543 -0.23 -0.02    +0.049 A 
DOCKED: ATOM     26  C   UNL d   1     -11.306 -12.720   9.235 -0.14 +0.00    -0.018 A 
DOCKED: ATOM     27  C   UNL d   1     -10.333 -11.726   9.565 -0.23 -0.00    +0.003 A 
DOCKED: ATOM     28  C   UNL d   1      -8.469 -11.660  11.331 -0.28 -0.01    +0.052 C 
DOCKED: ATOM     29  C   UNL d   1      -4.136 -12.333  13.729 -0.41 -0.02    +0.046 C 
DOCKED: ATOM     30  C   UNL d   1     -12.419 -12.583   8.252 -0.08 -0.01    +0.046 C 
DOCKED: ATOM     31  H   UNL d   1      -7.456 -14.316  11.239 -0.40 -0.11    +0.166 HD
DOCKED: ATOM     32  H   UNL d   1      -9.495 -14.186  11.431 -0.06 -0.08    +0.166 HD
DOCKED: ENDROOT
DOCKED: BRANCH   7  33
DOCKED: ATOM     33  C   UNL d   1     -12.568 -17.939   9.155 -0.07 -0.05    +0.141 C 
DOCKED: BRANCH  33  34
DOCKED: ATOM     34  C   UNL d   1     -12.067 -17.163   7.967 -0.14 -0.13    +0.306 C 
DOCKED: ATOM     35  O   UNL d   1     -12.744 -16.496   7.205 -0.13 +0.07    -0.251 OA
DOCKED: BRANCH  34  36
DOCKED: ATOM     36  O   UNL d   1     -10.736 -17.268   7.804 -0.13 +0.38    -0.481 OA
DOCKED: ATOM     37  H   UNL d   1     -10.556 -18.231   7.851 -0.43 -0.46    +0.295 HD
DOCKED: ENDBRANCH  34  36
DOCKED: ENDBRANCH  33  34
DOCKED: ENDBRANCH   7  33
DOCKED: BRANCH  27  38
DOCKED: ATOM     38  C   UNL d   1     -10.277 -10.409   9.007 -0.25 -0.00    +0.017 C 
DOCKED: ATOM     39  C   UNL d   1      -9.959  -9.295   9.684 -0.21 -0.03    +0.092 C 
DOCKED: BRANCH  39  40
DOCKED: ATOM     40  C   UNL d   1      -9.921  -8.005   8.990 -0.13 -0.19    +0.330 C 
DOCKED: ATOM     41  O   UNL d   1      -9.944  -7.805   7.791 -0.27 +0.12    -0.246 OA
DOCKED: BRANCH  40  42
DOCKED: ATOM     42  O   UNL d   1      -9.863  -7.003   9.881 -0.09 +0.56    -0.477 OA
DOCKED: ATOM     43  H   UNL d   1      -9.540  -6.241   9.357 -0.32 -0.70    +0.295 HD
DOCKED: ENDBRANCH  40  42
DOCKED: ENDBRANCH  39  40
DOCKED: ENDBRANCH  27  38
DOCKED: BRANCH   8  44
DOCKED: ATOM     44  C   UNL d   1      -5.686 -19.742  12.308 -0.04 -0.06    +0.141 C 
DOCKED: BRANCH  44  45
DOCKED: ATOM     45  C   UNL d   1      -4.324 -20.332  12.563 +0.00 -0.10    +0.306 C 
DOCKED: ATOM     46  O   UNL d   1      -3.793 -21.231  11.935 -0.01 +0.07    -0.251 OA
DOCKED: BRANCH  45  47
DOCKED: ATOM     47  O   UNL d   1      -3.711 -19.772  13.621 +0.01 +0.16    -0.481 OA
DOCKED: ATOM     48  H   UNL d   1      -3.366 -18.917  13.285 +0.06 -0.14    +0.295 HD
DOCKED: ENDBRANCH  45  47
DOCKED: ENDBRANCH  44  45
DOCKED: ENDBRANCH   8  44
DOCKED: BRANCH  22  49
DOCKED: ATOM     49  C   UNL d   1      -6.343 -10.150  12.976 -0.28 -0.01    +0.048 C 
DOCKED: BRANCH  49  50
DOCKED: ATOM     50  C   UNL d   1      -7.755  -9.647  13.277 -0.15 -0.03    +0.125 C 
DOCKED: BRANCH  50  51
DOCKED: ATOM     51  C   UNL d   1      -7.986  -8.296  12.662 -0.16 -0.10    +0.305 C 
DOCKED: ATOM     52  O   UNL d   1      -7.158  -7.429  12.441 -0.32 +0.10    -0.251 OA
DOCKED: BRANCH  51  53
DOCKED: ATOM     53  O   UNL d   1      -9.284  -8.095  12.359 -0.04 +0.20    -0.481 OA
DOCKED: ATOM     54  H   UNL d   1      -9.257  -7.518  11.567 +0.11 -0.20    +0.295 HD
DOCKED: ENDBRANCH  51  53
DOCKED: ENDBRANCH  50  51
DOCKED: ENDBRANCH  49  50
DOCKED: ENDBRANCH  22  49
DOCKED: TORSDOF 13
DOCKED: TER
DOCKED: ENDMDL
________________________________________________________________________________


	BEGINNING GENETIC ALGORITHM DOCKING 98 of 100
Run: 98 Seed: 393880894 599094880 [ Run 98 of 100 GA/GALS ]
Beginning LAMARCKIAN GENETIC ALGORITHM (LGA), with a maximum of 25000000 energy evaluations.

Final-Value: -11.314


	FINAL GENETIC ALGORITHM DOCKED STATE
	_______________________________________________


Detailed state:  trans 12.961 -2.252 -8.177 quatxyzw -0.431976 0.281703 0.757111 0.401028 center 0.153 0.018 -0.028 ntor 13 126.9667 179.9882 164.4759 29.9099 -136.7132 -2.6681 104.8833 164.7023 17.5013 103.4301 -31.5639 -179.7949 -157.1066
State:	 12.961  -2.252  -8.177  -0.472  0.308  0.826 132.715    126.97  179.99  164.48   29.91 -136.71   -2.67  104.88  164.70   17.50  103.43  -31.56 -179.79 -157.11

DOCKED: MODEL       98
DOCKED: USER    Run = 98
DOCKED: USER    DPF = D:/Protein_go_brrr/autodock/final/mut_N102T/heme/dock.dpf
DOCKED: USER  
DOCKED: USER    Estimated Free Energy of Binding    =   -5.86 kcal/mol  [=(1)+(2)+(3)-(4)]
DOCKED: USER    Estimated Inhibition Constant, Ki   =   50.94 uM (micromolar)  [Temperature = 298.15 K]
DOCKED: USER    
DOCKED: USER    (1) Final Intermolecular Energy     =   -9.73 kcal/mol
DOCKED: USER        vdW + Hbond + desolv Energy     =   -9.35 kcal/mol
DOCKED: USER        Electrostatic Energy            =   -0.38 kcal/mol
DOCKED: USER    (2) Final Total Internal Energy     =   -1.58 kcal/mol
DOCKED: USER    (3) Torsional Free Energy           =   +3.88 kcal/mol
DOCKED: USER    (4) Unbound System's Energy  [=(2)] =   -1.58 kcal/mol
DOCKED: USER    
DOCKED: USER    
DOCKED: USER    NEWDPF move heme_opt.pdbqt
DOCKED: USER    NEWDPF about 0.153000 0.018000 -0.028000
DOCKED: USER    NEWDPF tran0 12.961024 -2.251677 -8.177346
DOCKED: USER    NEWDPF quaternion0 -0.431976 0.281703 0.757111 0.401028
DOCKED: USER    NEWDPF axisangle0 -0.471556 0.307514 0.826481 132.715101
DOCKED: USER    NEWDPF quat0 -0.471556 0.307514 0.826481 132.715101
DOCKED: USER    NEWDPF dihe0 126.97 179.99 164.48 29.91 -136.71 -2.67 104.88 164.70 17.50 103.43 -31.56 -179.79 -157.11 
DOCKED: USER  keepresnum = 1 
DOCKED: USER  
DOCKED: REMARK  13 active torsions:
DOCKED: REMARK  status: ('A' for Active; 'I' for Inactive)
DOCKED: REMARK    1  A    between atoms: O_3  and  C_38 
DOCKED: REMARK    2  A    between atoms: O_4  and  C_40 
DOCKED: REMARK    3  A    between atoms: O_7  and  C_46 
DOCKED: REMARK    4  A    between atoms: O_9  and  C_48 
DOCKED: REMARK    5  A    between atoms: C_15  and  C_20 
DOCKED: REMARK    6  A    between atoms: C_16  and  C_23 
DOCKED: REMARK    7  A    between atoms: C_20  and  C_38 
DOCKED: REMARK    8  A    between atoms: C_23  and  C_40 
DOCKED: REMARK    9  A    between atoms: C_32  and  C_41 
DOCKED: REMARK   10  A    between atoms: C_37  and  C_45 
DOCKED: REMARK   11  A    between atoms: C_41  and  C_44 
DOCKED: REMARK   12  A    between atoms: C_44  and  C_46 
DOCKED: REMARK   13  A    between atoms: C_47  and  C_48 
DOCKED: USER                              x       y       z     vdW  Elec       q    Type
DOCKED: USER                           _______ _______ _______ _____ _____    ______ ____
DOCKED: ROOT
DOCKED: ATOM      1  O   UNL d   1      14.718   1.695  -4.166 -0.14 +0.04    -0.289 OA
DOCKED: ATOM      2  O   UNL d   1      13.398   2.400 -11.525 -0.04 +0.10    -0.289 OA
DOCKED: ATOM      3  N   UNL d   1      13.821  -0.967  -6.167 -0.08 +0.02    -0.247 NA
DOCKED: ATOM      4  N   UNL d   1      13.230   0.312  -8.782 -0.07 +0.04    -0.247 NA
DOCKED: ATOM      5  N   UNL d   1      11.992  -2.150  -9.602 -0.07 +0.04    -0.354 N 
DOCKED: ATOM      6  N   UNL d   1      12.592  -3.463  -6.879 +0.09 +0.06    -0.354 N 
DOCKED: ATOM      7  C   UNL d   1      14.161  -0.650  -3.760 -0.15 -0.01    +0.084 A 
DOCKED: ATOM      8  C   UNL d   1      14.351   2.428  -9.270 -0.11 -0.02    +0.084 A 
DOCKED: ATOM      9  C   UNL d   1      14.047   1.300  -8.279 -0.11 -0.01    +0.058 A 
DOCKED: ATOM     10  C   UNL d   1      13.792  -1.576  -4.923 -0.16 -0.01    +0.058 A 
DOCKED: ATOM     11  C   UNL d   1      14.422   0.585  -4.569 -0.09 -0.02    +0.193 A 
DOCKED: ATOM     12  C   UNL d   1      14.207   0.258  -6.014 -0.10 -0.01    +0.109 A 
DOCKED: ATOM     13  C   UNL d   1      13.525   1.917 -10.417 -0.15 -0.05    +0.193 A 
DOCKED: ATOM     14  C   UNL d   1      12.972  -0.392  -2.831 -0.25 -0.00    +0.026 C 
DOCKED: ATOM     15  C   UNL d   1      14.497   1.304  -7.015 -0.12 -0.01    +0.055 C 
DOCKED: ATOM     16  C   UNL d   1      15.824   2.435  -9.689 -0.04 -0.00    +0.026 C 
DOCKED: ATOM     17  C   UNL d   1      12.892   0.632  -9.990 -0.19 -0.02    +0.109 A 
DOCKED: ATOM     18  C   UNL d   1      13.554  -2.887  -4.730 -0.23 -0.01    +0.050 C 
DOCKED: ATOM     19  C   UNL d   1      13.289  -3.834  -5.751 -0.17 -0.02    +0.045 A 
DOCKED: ATOM     20  C   UNL d   1      11.609  -1.337 -10.637 -0.25 -0.01    +0.045 A 
DOCKED: ATOM     21  C   UNL d   1      11.985  -0.082 -10.901 -0.31 -0.01    +0.057 C 
DOCKED: ATOM     22  C   UNL d   1      10.551  -3.351 -10.849 -0.26 +0.00    -0.019 A 
DOCKED: ATOM     23  C   UNL d   1      11.405  -3.386  -9.645 -0.24 -0.01    +0.045 A 
DOCKED: ATOM     24  C   UNL d   1      10.677  -2.135 -11.433 -0.25 +0.00    -0.022 A 
DOCKED: ATOM     25  C   UNL d   1      12.370  -4.552  -7.690 -0.19 -0.01    +0.049 A 
DOCKED: ATOM     26  C   UNL d   1      13.560  -5.190  -5.850 -0.18 +0.01    -0.018 A 
DOCKED: ATOM     27  C   UNL d   1      12.994  -5.634  -7.085 -0.24 -0.00    +0.003 A 
DOCKED: ATOM     28  C   UNL d   1      11.536  -4.449  -8.836 -0.29 -0.01    +0.052 C 
DOCKED: ATOM     29  C   UNL d   1      10.026  -1.625 -12.673 -0.44 -0.00    +0.046 C 
DOCKED: ATOM     30  C   UNL d   1      14.300  -6.024  -4.860 +0.09 -0.05    +0.046 C 
DOCKED: ATOM     31  H   UNL d   1      12.702  -1.858  -8.939 +0.06 -0.02    +0.166 HD
DOCKED: ATOM     32  H   UNL d   1      12.260  -2.521  -7.048 +0.08 -0.00    +0.166 HD
DOCKED: ENDROOT
DOCKED: BRANCH   7  33
DOCKED: ATOM     33  C   UNL d   1      15.413  -1.051  -2.972 -0.06 -0.01    +0.141 C 
DOCKED: BRANCH  33  34
DOCKED: ATOM     34  C   UNL d   1      16.667  -0.973  -3.799 +0.00 -0.01    +0.306 C 
DOCKED: ATOM     35  O   UNL d   1      17.075  -1.824  -4.571 -0.00 +0.02    -0.251 OA
DOCKED: BRANCH  34  36
DOCKED: ATOM     36  O   UNL d   1      17.341   0.176  -3.611 +0.01 -0.00    -0.481 OA
DOCKED: ATOM     37  H   UNL d   1      16.688   0.880  -3.808 +0.05 -0.00    +0.295 HD
DOCKED: ENDBRANCH  34  36
DOCKED: ENDBRANCH  33  34
DOCKED: ENDBRANCH   7  33
DOCKED: BRANCH  27  38
DOCKED: ATOM     38  C   UNL d   1      13.032  -6.979  -7.574 -0.25 -0.01    +0.017 C 
DOCKED: ATOM     39  C   UNL d   1      12.926  -8.081  -6.817 -0.24 -0.07    +0.092 C 
DOCKED: BRANCH  39  40
DOCKED: ATOM     40  C   UNL d   1      12.963  -9.405  -7.444 -0.15 -0.12    +0.330 C 
DOCKED: ATOM     41  O   UNL d   1      13.005  -9.663  -8.632 -0.14 +0.05    -0.246 OA
DOCKED: BRANCH  40  42
DOCKED: ATOM     42  O   UNL d   1      12.953 -10.362  -6.504 -0.46 +0.14    -0.477 OA
DOCKED: ATOM     43  H   UNL d   1      12.926  -9.864  -5.662 +0.09 -0.19    +0.295 HD
DOCKED: ENDBRANCH  40  42
DOCKED: ENDBRANCH  39  40
DOCKED: ENDBRANCH  27  38
DOCKED: BRANCH   8  44
DOCKED: ATOM     44  C   UNL d   1      13.890   3.825  -8.842 -0.20 -0.04    +0.141 C 
DOCKED: BRANCH  44  45
DOCKED: ATOM     45  C   UNL d   1      14.398   4.229  -7.484 -0.15 -0.06    +0.306 C 
DOCKED: ATOM     46  O   UNL d   1      15.564   4.344  -7.149 -0.06 +0.04    -0.251 OA
DOCKED: BRANCH  45  47
DOCKED: ATOM     47  O   UNL d   1      13.402   4.441  -6.604 -0.78 +0.02    -0.481 OA
DOCKED: ATOM     48  H   UNL d   1      12.598   4.533  -7.158 -0.43 -0.09    +0.295 HD
DOCKED: ENDBRANCH  45  47
DOCKED: ENDBRANCH  44  45
DOCKED: ENDBRANCH   8  44
DOCKED: BRANCH  22  49
DOCKED: ATOM     49  C   UNL d   1       9.688  -4.491 -11.303 -0.38 -0.00    +0.048 C 
DOCKED: BRANCH  49  50
DOCKED: ATOM     50  C   UNL d   1       8.209  -4.105 -11.342 -0.39 -0.01    +0.125 C 
DOCKED: BRANCH  50  51
DOCKED: ATOM     51  C   UNL d   1       7.484  -4.864 -12.417 -0.34 -0.03    +0.305 C 
DOCKED: ATOM     52  O   UNL d   1       6.288  -5.082 -12.495 -0.48 +0.03    -0.251 OA
DOCKED: BRANCH  51  53
DOCKED: ATOM     53  O   UNL d   1       8.327  -5.334 -13.358 -0.08 +0.06    -0.481 OA
DOCKED: ATOM     54  H   UNL d   1       7.785  -5.356 -14.174 -0.34 -0.11    +0.295 HD
DOCKED: ENDBRANCH  51  53
DOCKED: ENDBRANCH  50  51
DOCKED: ENDBRANCH  49  50
DOCKED: ENDBRANCH  22  49
DOCKED: TORSDOF 13
DOCKED: TER
DOCKED: ENDMDL
________________________________________________________________________________


	BEGINNING GENETIC ALGORITHM DOCKING 99 of 100
Run: 99 Seed: 1022914136 1432717931 [ Run 99 of 100 GA/GALS ]
Beginning LAMARCKIAN GENETIC ALGORITHM (LGA), with a maximum of 25000000 energy evaluations.

Final-Value: -12.162


	FINAL GENETIC ALGORITHM DOCKED STATE
	_______________________________________________


Detailed state:  trans -8.121 -12.253 11.376 quatxyzw 0.321820 0.134520 -0.642778 0.682036 center 0.153 0.018 -0.028 ntor 13 -117.3700 -98.4587 -175.8166 -69.2727 63.1265 37.7658 142.9367 81.0287 29.4713 -9.3673 -39.3898 -140.2101 -175.5594
State:	 -8.121 -12.253  11.376   0.440  0.184 -0.879 93.994   -117.37  -98.46 -175.82  -69.27   63.13   37.77  142.94   81.03   29.47   -9.37  -39.39 -140.21 -175.56

DOCKED: MODEL       99
DOCKED: USER    Run = 99
DOCKED: USER    DPF = D:/Protein_go_brrr/autodock/final/mut_N102T/heme/dock.dpf
DOCKED: USER  
DOCKED: USER    Estimated Free Energy of Binding    =   -6.12 kcal/mol  [=(1)+(2)+(3)-(4)]
DOCKED: USER    Estimated Inhibition Constant, Ki   =   32.60 uM (micromolar)  [Temperature = 298.15 K]
DOCKED: USER    
DOCKED: USER    (1) Final Intermolecular Energy     =  -10.00 kcal/mol
DOCKED: USER        vdW + Hbond + desolv Energy     =   -9.42 kcal/mol
DOCKED: USER        Electrostatic Energy            =   -0.58 kcal/mol
DOCKED: USER    (2) Final Total Internal Energy     =   -2.16 kcal/mol
DOCKED: USER    (3) Torsional Free Energy           =   +3.88 kcal/mol
DOCKED: USER    (4) Unbound System's Energy  [=(2)] =   -2.16 kcal/mol
DOCKED: USER    
DOCKED: USER    
DOCKED: USER    NEWDPF move heme_opt.pdbqt
DOCKED: USER    NEWDPF about 0.153000 0.018000 -0.028000
DOCKED: USER    NEWDPF tran0 -8.121137 -12.253361 11.376437
DOCKED: USER    NEWDPF quaternion0 0.321820 0.134520 -0.642778 0.682036
DOCKED: USER    NEWDPF axisangle0 0.440054 0.183942 -0.878930 93.994147
DOCKED: USER    NEWDPF quat0 0.440054 0.183942 -0.878930 93.994147
DOCKED: USER    NEWDPF dihe0 -117.37 -98.46 -175.82 -69.27 63.13 37.77 142.94 81.03 29.47 -9.37 -39.39 -140.21 -175.56 
DOCKED: USER  keepresnum = 1 
DOCKED: USER  
DOCKED: REMARK  13 active torsions:
DOCKED: REMARK  status: ('A' for Active; 'I' for Inactive)
DOCKED: REMARK    1  A    between atoms: O_3  and  C_38 
DOCKED: REMARK    2  A    between atoms: O_4  and  C_40 
DOCKED: REMARK    3  A    between atoms: O_7  and  C_46 
DOCKED: REMARK    4  A    between atoms: O_9  and  C_48 
DOCKED: REMARK    5  A    between atoms: C_15  and  C_20 
DOCKED: REMARK    6  A    between atoms: C_16  and  C_23 
DOCKED: REMARK    7  A    between atoms: C_20  and  C_38 
DOCKED: REMARK    8  A    between atoms: C_23  and  C_40 
DOCKED: REMARK    9  A    between atoms: C_32  and  C_41 
DOCKED: REMARK   10  A    between atoms: C_37  and  C_45 
DOCKED: REMARK   11  A    between atoms: C_41  and  C_44 
DOCKED: REMARK   12  A    between atoms: C_44  and  C_46 
DOCKED: REMARK   13  A    between atoms: C_47  and  C_48 
DOCKED: USER                              x       y       z     vdW  Elec       q    Type
DOCKED: USER                           _______ _______ _______ _____ _____    ______ ____
DOCKED: ROOT
DOCKED: ATOM      1  O   UNL d   1     -10.614 -17.543  12.125 -0.02 +0.10    -0.289 OA
DOCKED: ATOM      2  O   UNL d   1      -3.714 -15.071  13.759 -0.11 +0.17    -0.289 OA
DOCKED: ATOM      3  N   UNL d   1      -9.545 -14.352  11.369 -0.06 +0.12    -0.247 NA
DOCKED: ATOM      4  N   UNL d   1      -6.864 -14.211  12.641 -0.14 +0.09    -0.247 NA
DOCKED: ATOM      5  N   UNL d   1      -6.934 -11.362  12.257 -0.05 +0.08    -0.354 N 
DOCKED: ATOM      6  N   UNL d   1      -9.724 -11.516  10.957 -0.06 +0.09    -0.354 N 
DOCKED: ATOM      7  C   UNL d   1     -11.685 -15.539  11.225 -0.06 -0.02    +0.084 A 
DOCKED: ATOM      8  C   UNL d   1      -5.661 -16.315  12.949 -0.14 -0.04    +0.084 A 
DOCKED: ATOM      9  C   UNL d   1      -6.938 -15.581  12.530 -0.17 -0.02    +0.058 A 
DOCKED: ATOM     10  C   UNL d   1     -10.881 -14.251  11.019 -0.12 -0.02    +0.058 A 
DOCKED: ATOM     11  C   UNL d   1     -10.563 -16.390  11.738 -0.05 -0.07    +0.193 A 
DOCKED: ATOM     12  C   UNL d   1      -9.314 -15.565  11.754 -0.10 -0.05    +0.109 A 
DOCKED: ATOM     13  C   UNL d   1      -4.860 -15.110  13.354 -0.11 -0.09    +0.193 A 
DOCKED: ATOM     14  C   UNL d   1     -12.737 -15.389  12.328 -0.01 -0.00    +0.026 C 
DOCKED: ATOM     15  C   UNL d   1      -8.049 -16.224  12.138 -0.17 -0.03    +0.055 C 
DOCKED: ATOM     16  C   UNL d   1      -4.973 -16.985  11.756 -0.26 -0.02    +0.026 C 
DOCKED: ATOM     17  C   UNL d   1      -5.705 -13.899  13.126 -0.20 -0.04    +0.109 A 
DOCKED: ATOM     18  C   UNL d   1     -11.434 -13.160  10.456 -0.13 -0.01    +0.050 C 
DOCKED: ATOM     19  C   UNL d   1     -10.749 -11.957  10.150 -0.14 -0.01    +0.045 A 
DOCKED: ATOM     20  C   UNL d   1      -5.826 -11.465  13.058 -0.22 -0.01    +0.045 A 
DOCKED: ATOM     21  C   UNL d   1      -5.194 -12.566  13.477 -0.31 -0.02    +0.057 C 
DOCKED: ATOM     22  C   UNL d   1      -6.328  -9.255  12.772 -0.34 +0.00    -0.019 A 
DOCKED: ATOM     23  C   UNL d   1      -7.312 -10.066  12.028 -0.20 -0.01    +0.045 A 
DOCKED: ATOM     24  C   UNL d   1      -5.450 -10.088  13.379 -0.31 +0.00    -0.022 A 
DOCKED: ATOM     25  C   UNL d   1      -9.265 -10.291  10.529 -0.21 -0.01    +0.049 A 
DOCKED: ATOM     26  C   UNL d   1     -10.935 -11.013   9.151 -0.15 +0.00    -0.018 A 
DOCKED: ATOM     27  C   UNL d   1      -9.983  -9.974   9.384 -0.23 -0.00    +0.003 A 
DOCKED: ATOM     28  C   UNL d   1      -8.316  -9.561  11.294 -0.25 -0.01    +0.052 C 
DOCKED: ATOM     29  C   UNL d   1      -4.275  -9.746  14.230 -0.38 -0.01    +0.046 C 
DOCKED: ATOM     30  C   UNL d   1     -11.935 -11.072   8.046 -0.11 -0.01    +0.046 C 
DOCKED: ATOM     31  H   UNL d   1      -7.352 -12.182  11.830 +0.06 -0.05    +0.166 HD
DOCKED: ATOM     32  H   UNL d   1      -9.397 -12.019  11.773 +0.05 -0.04    +0.166 HD
DOCKED: ENDROOT
DOCKED: BRANCH   7  33
DOCKED: ATOM     33  C   UNL d   1     -12.286 -16.149   9.954 -0.09 -0.04    +0.141 C 
DOCKED: BRANCH  33  34
DOCKED: ATOM     34  C   UNL d   1     -11.267 -16.882   9.126 -0.16 -0.16    +0.306 C 
DOCKED: ATOM     35  O   UNL d   1     -11.273 -18.073   8.863 -0.15 +0.19    -0.251 OA
DOCKED: BRANCH  34  36
DOCKED: ATOM     36  O   UNL d   1     -10.293 -16.075   8.668 -0.47 +0.23    -0.481 OA
DOCKED: ATOM     37  H   UNL d   1      -9.876 -15.708   9.477 -0.46 -0.22    +0.295 HD
DOCKED: ENDBRANCH  34  36
DOCKED: ENDBRANCH  33  34
DOCKED: ENDBRANCH   7  33
DOCKED: BRANCH  27  38
DOCKED: ATOM     38  C   UNL d   1      -9.842  -8.790   8.590 -0.26 -0.01    +0.017 C 
DOCKED: ATOM     39  C   UNL d   1     -10.659  -7.727   8.634 -0.24 -0.05    +0.092 C 
DOCKED: BRANCH  39  40
DOCKED: ATOM     40  C   UNL d   1     -10.394  -6.567   7.779 -0.21 -0.26    +0.330 C 
DOCKED: ATOM     41  O   UNL d   1      -9.946  -6.564   6.648 -0.34 +0.16    -0.246 OA
DOCKED: BRANCH  40  42
DOCKED: ATOM     42  O   UNL d   1     -10.729  -5.436   8.418 -0.14 +0.57    -0.477 OA
DOCKED: ATOM     43  H   UNL d   1      -9.957  -5.253   8.993 -0.42 -0.80    +0.295 HD
DOCKED: ENDBRANCH  40  42
DOCKED: ENDBRANCH  39  40
DOCKED: ENDBRANCH  27  38
DOCKED: BRANCH   8  44
DOCKED: ATOM     44  C   UNL d   1      -5.814 -17.291  14.121 -0.03 -0.05    +0.141 C 
DOCKED: BRANCH  44  45
DOCKED: ATOM     45  C   UNL d   1      -6.313 -16.635  15.380 -0.00 -0.08    +0.306 C 
DOCKED: ATOM     46  O   UNL d   1      -7.461 -16.629  15.790 -0.00 +0.05    -0.251 OA
DOCKED: BRANCH  45  47
DOCKED: ATOM     47  O   UNL d   1      -5.338 -15.992  16.047 +0.01 +0.12    -0.481 OA
DOCKED: ATOM     48  H   UNL d   1      -4.544 -16.087  15.478 +0.05 -0.10    +0.295 HD
DOCKED: ENDBRANCH  45  47
DOCKED: ENDBRANCH  44  45
DOCKED: ENDBRANCH   8  44
DOCKED: BRANCH  22  49
DOCKED: ATOM     49  C   UNL d   1      -6.346  -7.756  12.832 -0.45 -0.02    +0.048 C 
DOCKED: BRANCH  49  50
DOCKED: ATOM     50  C   UNL d   1      -6.944  -7.246  14.143 -0.25 -0.03    +0.125 C 
DOCKED: BRANCH  50  51
DOCKED: ATOM     51  C   UNL d   1      -6.200  -6.038  14.638 -0.23 -0.04    +0.305 C 
DOCKED: ATOM     52  O   UNL d   1      -6.258  -4.901  14.204 -0.38 -0.03    -0.251 OA
DOCKED: BRANCH  51  53
DOCKED: ATOM     53  O   UNL d   1      -5.391  -6.333  15.675 -0.08 +0.10    -0.481 OA
DOCKED: ATOM     54  H   UNL d   1      -4.488  -6.246  15.305 -0.41 -0.19    +0.295 HD
DOCKED: ENDBRANCH  51  53
DOCKED: ENDBRANCH  50  51
DOCKED: ENDBRANCH  49  50
DOCKED: ENDBRANCH  22  49
DOCKED: TORSDOF 13
DOCKED: TER
DOCKED: ENDMDL
________________________________________________________________________________


	BEGINNING GENETIC ALGORITHM DOCKING 100 of 100
Run: 100 Seed: 684160440 1818582615 [ Run 100 of 100 GA/GALS ]
Beginning LAMARCKIAN GENETIC ALGORITHM (LGA), with a maximum of 25000000 energy evaluations.

Final-Value: -11.870


	FINAL GENETIC ALGORITHM DOCKED STATE
	_______________________________________________


Detailed state:  trans 4.669 14.239 -12.209 quatxyzw -0.160839 0.739859 0.507391 -0.411453 center 0.153 0.018 -0.028 ntor 13 60.1587 102.8838 102.8276 92.1781 158.1812 -30.5597 -15.8712 156.3747 111.0868 178.9889 -92.1990 -70.0666 -47.9469
State:	  4.669  14.239 -12.209  -0.176  0.812  0.557 -131.408     60.16  102.88  102.83   92.18  158.18  -30.56  -15.87  156.37  111.09  178.99  -92.20  -70.07  -47.95

DOCKED: MODEL      100
DOCKED: USER    Run = 100
DOCKED: USER    DPF = D:/Protein_go_brrr/autodock/final/mut_N102T/heme/dock.dpf
DOCKED: USER  
DOCKED: USER    Estimated Free Energy of Binding    =   -6.72 kcal/mol  [=(1)+(2)+(3)-(4)]
DOCKED: USER    Estimated Inhibition Constant, Ki   =   11.78 uM (micromolar)  [Temperature = 298.15 K]
DOCKED: USER    
DOCKED: USER    (1) Final Intermolecular Energy     =  -10.60 kcal/mol
DOCKED: USER        vdW + Hbond + desolv Energy     =  -10.32 kcal/mol
DOCKED: USER        Electrostatic Energy            =   -0.28 kcal/mol
DOCKED: USER    (2) Final Total Internal Energy     =   -1.27 kcal/mol
DOCKED: USER    (3) Torsional Free Energy           =   +3.88 kcal/mol
DOCKED: USER    (4) Unbound System's Energy  [=(2)] =   -1.27 kcal/mol
DOCKED: USER    
DOCKED: USER    
DOCKED: USER    NEWDPF move heme_opt.pdbqt
DOCKED: USER    NEWDPF about 0.153000 0.018000 -0.028000
DOCKED: USER    NEWDPF tran0 4.669042 14.238504 -12.209499
DOCKED: USER    NEWDPF quaternion0 -0.160839 0.739859 0.507391 -0.411453
DOCKED: USER    NEWDPF axisangle0 -0.176469 0.811756 0.556697 -131.407775
DOCKED: USER    NEWDPF quat0 -0.176469 0.811756 0.556697 -131.407775
DOCKED: USER    NEWDPF dihe0 60.16 102.88 102.83 92.18 158.18 -30.56 -15.87 156.37 111.09 178.99 -92.20 -70.07 -47.95 
DOCKED: USER  keepresnum = 1 
DOCKED: USER  
DOCKED: REMARK  13 active torsions:
DOCKED: REMARK  status: ('A' for Active; 'I' for Inactive)
DOCKED: REMARK    1  A    between atoms: O_3  and  C_38 
DOCKED: REMARK    2  A    between atoms: O_4  and  C_40 
DOCKED: REMARK    3  A    between atoms: O_7  and  C_46 
DOCKED: REMARK    4  A    between atoms: O_9  and  C_48 
DOCKED: REMARK    5  A    between atoms: C_15  and  C_20 
DOCKED: REMARK    6  A    between atoms: C_16  and  C_23 
DOCKED: REMARK    7  A    between atoms: C_20  and  C_38 
DOCKED: REMARK    8  A    between atoms: C_23  and  C_40 
DOCKED: REMARK    9  A    between atoms: C_32  and  C_41 
DOCKED: REMARK   10  A    between atoms: C_37  and  C_45 
DOCKED: REMARK   11  A    between atoms: C_41  and  C_44 
DOCKED: REMARK   12  A    between atoms: C_44  and  C_46 
DOCKED: REMARK   13  A    between atoms: C_47  and  C_48 
DOCKED: USER                              x       y       z     vdW  Elec       q    Type
DOCKED: USER                           _______ _______ _______ _____ _____    ______ ____
DOCKED: ROOT
DOCKED: ATOM      1  O   UNL d   1       7.271  14.535  -6.928 -0.16 +0.30    -0.289 OA
DOCKED: ATOM      2  O   UNL d   1       8.762  10.267 -12.924 -0.22 +0.07    -0.289 OA
DOCKED: ATOM      3  N   UNL d   1       5.361  14.614  -9.799 -0.14 +0.11    -0.247 NA
DOCKED: ATOM      4  N   UNL d   1       6.866  12.863 -11.669 -0.12 +0.11    -0.247 NA
DOCKED: ATOM      5  N   UNL d   1       5.244  13.904 -13.802 -0.10 +0.16    -0.354 N 
DOCKED: ATOM      6  N   UNL d   1       3.701  15.732 -11.858 -0.09 +0.12    -0.354 N 
DOCKED: ATOM      7  C   UNL d   1       5.405  15.904  -7.715 -0.17 -0.04    +0.084 A 
DOCKED: ATOM      8  C   UNL d   1       8.280  11.130 -10.684 -0.28 -0.03    +0.084 A 
DOCKED: ATOM      9  C   UNL d   1       7.368  12.347 -10.495 -0.28 -0.02    +0.058 A 
DOCKED: ATOM     10  C   UNL d   1       4.784  15.656  -9.092 -0.23 -0.02    +0.058 A 
DOCKED: ATOM     11  C   UNL d   1       6.424  14.806  -7.760 -0.15 -0.12    +0.193 A 
DOCKED: ATOM     12  C   UNL d   1       6.280  14.080  -9.062 -0.19 -0.05    +0.109 A 
DOCKED: ATOM     13  C   UNL d   1       8.232  11.074 -12.185 -0.16 -0.05    +0.193 A 
DOCKED: ATOM     14  C   UNL d   1       6.130  17.250  -7.645 -0.06 -0.01    +0.026 C 
DOCKED: ATOM     15  C   UNL d   1       7.125  12.891  -9.293 -0.13 -0.02    +0.055 C 
DOCKED: ATOM     16  C   UNL d   1       7.646   9.853 -10.123 -0.24 -0.01    +0.026 C 
DOCKED: ATOM     17  C   UNL d   1       7.348  12.182 -12.658 -0.21 -0.04    +0.109 A 
DOCKED: ATOM     18  C   UNL d   1       3.709  16.349  -9.514 -0.24 -0.02    +0.050 C 
DOCKED: ATOM     19  C   UNL d   1       3.017  16.132 -10.733 -0.21 -0.02    +0.045 A 
DOCKED: ATOM     20  C   UNL d   1       6.180  13.218 -14.531 -0.20 -0.02    +0.045 A 
DOCKED: ATOM     21  C   UNL d   1       7.146  12.401 -14.098 -0.23 -0.02    +0.057 C 
DOCKED: ATOM     22  C   UNL d   1       4.857  14.408 -15.963 -0.15 +0.01    -0.019 A 
DOCKED: ATOM     23  C   UNL d   1       4.400  14.651 -14.580 -0.19 -0.01    +0.045 A 
DOCKED: ATOM     24  C   UNL d   1       5.910  13.557 -15.928 -0.14 +0.01    -0.022 A 
DOCKED: ATOM     25  C   UNL d   1       2.855  15.671 -12.941 -0.22 -0.01    +0.049 A 
DOCKED: ATOM     26  C   UNL d   1       1.687  16.300 -11.085 -0.18 +0.01    -0.018 A 
DOCKED: ATOM     27  C   UNL d   1       1.587  15.988 -12.476 -0.24 -0.00    +0.003 A 
DOCKED: ATOM     28  C   UNL d   1       3.361  15.432 -14.248 -0.21 -0.01    +0.052 C 
DOCKED: ATOM     29  C   UNL d   1       6.702  13.006 -17.064 +0.15 -0.04    +0.046 C 
DOCKED: ATOM     30  C   UNL d   1       0.574  16.722 -10.186 -0.20 -0.01    +0.046 C 
DOCKED: ATOM     31  H   UNL d   1       5.165  13.781 -12.799 -0.43 -0.11    +0.166 HD
DOCKED: ATOM     32  H   UNL d   1       4.698  15.552 -11.874 +0.01 -0.06    +0.166 HD
DOCKED: ENDROOT
DOCKED: BRANCH   7  33
DOCKED: ATOM     33  C   UNL d   1       4.460  15.712  -6.523 -0.27 -0.07    +0.141 C 
DOCKED: BRANCH  33  34
DOCKED: ATOM     34  C   UNL d   1       5.196  15.464  -5.235 -0.16 -0.23    +0.306 C 
DOCKED: ATOM     35  O   UNL d   1       4.812  14.771  -4.308 -0.29 +0.27    -0.251 OA
DOCKED: BRANCH  34  36
DOCKED: ATOM     36  O   UNL d   1       6.380  16.100  -5.183 -0.04 +0.37    -0.481 OA
DOCKED: ATOM     37  H   UNL d   1       7.037  15.386  -5.037 -0.11 -0.40    +0.295 HD
DOCKED: ENDBRANCH  34  36
DOCKED: ENDBRANCH  33  34
DOCKED: ENDBRANCH   7  33
DOCKED: BRANCH  27  38
DOCKED: ATOM     38  C   UNL d   1       0.384  16.048 -13.251 -0.18 +0.00    +0.017 C 
DOCKED: ATOM     39  C   UNL d   1       0.314  16.385 -14.548 -0.20 +0.02    +0.092 C 
DOCKED: BRANCH  39  40
DOCKED: ATOM     40  C   UNL d   1      -0.981  16.390 -15.232 -0.14 +0.11    +0.330 C 
DOCKED: ATOM     41  O   UNL d   1      -1.934  15.663 -15.025 -0.23 -0.08    -0.246 OA
DOCKED: BRANCH  40  42
DOCKED: ATOM     42  O   UNL d   1      -1.006  17.353 -16.166 -0.09 -0.24    -0.477 OA
DOCKED: ATOM     43  H   UNL d   1      -1.142  18.175 -15.652 +0.05 +0.11    +0.295 HD
DOCKED: ENDBRANCH  40  42
DOCKED: ENDBRANCH  39  40
DOCKED: ENDBRANCH  27  38
DOCKED: BRANCH   8  44
DOCKED: ATOM     44  C   UNL d   1       9.719  11.299 -10.187 -0.18 -0.05    +0.141 C 
DOCKED: BRANCH  44  45
DOCKED: ATOM     45  C   UNL d   1      10.173  10.180  -9.288 -0.21 -0.10    +0.306 C 
DOCKED: ATOM     46  O   UNL d   1       9.672   9.852  -8.226 -0.59 +0.07    -0.251 OA
DOCKED: BRANCH  45  47
DOCKED: ATOM     47  O   UNL d   1      11.259   9.545  -9.764 -0.14 +0.15    -0.481 OA
DOCKED: ATOM     48  H   UNL d   1      10.914   8.956 -10.468 -0.38 -0.18    +0.295 HD
DOCKED: ENDBRANCH  45  47
DOCKED: ENDBRANCH  44  45
DOCKED: ENDBRANCH   8  44
DOCKED: BRANCH  22  49
DOCKED: ATOM     49  C   UNL d   1       4.237  15.034 -17.177 -0.12 -0.01    +0.048 C 
DOCKED: BRANCH  49  50
DOCKED: ATOM     50  C   UNL d   1       3.941  14.000 -18.263 -0.17 -0.03    +0.125 C 
DOCKED: BRANCH  50  51
DOCKED: ATOM     51  C   UNL d   1       2.574  13.405 -18.080 -0.25 -0.03    +0.305 C 
DOCKED: ATOM     52  O   UNL d   1       1.828  12.976 -18.943 -0.27 -0.02    -0.251 OA
DOCKED: BRANCH  51  53
DOCKED: ATOM     53  O   UNL d   1       2.199  13.392 -16.786 -0.39 +0.05    -0.481 OA
DOCKED: ATOM     54  H   UNL d   1       2.546  12.541 -16.446 -0.32 -0.14    +0.295 HD
DOCKED: ENDBRANCH  51  53
DOCKED: ENDBRANCH  50  51
DOCKED: ENDBRANCH  49  50
DOCKED: ENDBRANCH  22  49
DOCKED: TORSDOF 13
DOCKED: TER
DOCKED: ENDMDL
________________________________________________________________________________

DPF> analysis                             # perform a ranked cluster analysis


		CLUSTER ANALYSIS OF CONFORMATIONS
		_________________________________

Number of conformations = 100

RMSD cluster analysis will be performed using the ligand atoms only (54 / 54 total atoms).

Outputting structurally similar clusters, ranked in order of increasing energy.


________________________________________________________________________________

Number of distinct conformational clusters found = 58,  out of 100 runs,
Using an rmsd-tolerance of 2.0 A


	CLUSTERING HISTOGRAM
	____________________

________________________________________________________________________________
     |           |     |           |     |                                    
Clus | Lowest    | Run | Mean      | Num | Histogram                          
-ter | Binding   |     | Binding   | in  |                                    
Rank | Energy    |     | Energy    | Clus|    5    10   15   20   25   30   35
_____|___________|_____|___________|_____|____:____|____:____|____:____|____:___
   1 |     -8.69 |  16 |     -7.56 |   8 |########
   2 |     -7.12 |  30 |     -5.95 |   5 |#####
   3 |     -6.94 |  88 |     -6.05 |   3 |###
   4 |     -6.72 | 100 |     -6.72 |   1 |#
   5 |     -6.20 |   9 |     -5.69 |   4 |####
   6 |     -6.12 |  99 |     -6.12 |   1 |#
   7 |     -5.89 |  31 |     -5.26 |   4 |####
   8 |     -5.86 |  98 |     -5.86 |   1 |#
   9 |     -5.85 |  85 |     -5.75 |   3 |###
  10 |     -5.76 |   3 |     -5.76 |   1 |#
  11 |     -5.75 |  48 |     -5.75 |   1 |#
  12 |     -5.75 |  39 |     -4.97 |   2 |##
  13 |     -5.43 |  95 |     -5.23 |   3 |###
  14 |     -5.42 |  50 |     -5.42 |   1 |#
  15 |     -5.39 |  79 |     -5.39 |   1 |#
  16 |     -5.38 |   2 |     -5.38 |   1 |#
  17 |     -5.30 |  66 |     -4.94 |   2 |##
  18 |     -5.13 |  55 |     -5.13 |   1 |#
  19 |     -5.11 |  83 |     -4.62 |   2 |##
  20 |     -5.09 |  86 |     -4.62 |   2 |##
  21 |     -4.90 |  76 |     -4.90 |   1 |#
  22 |     -4.88 |  23 |     -4.88 |   1 |#
  23 |     -4.83 |  82 |     -4.83 |   1 |#
  24 |     -4.82 |  77 |     -4.56 |   2 |##
  25 |     -4.75 |  70 |     -4.22 |   3 |###
  26 |     -4.69 |  56 |     -4.69 |   1 |#
  27 |     -4.66 |  25 |     -4.05 |   2 |##
  28 |     -4.63 |  43 |     -4.63 |   1 |#
  29 |     -4.60 |  14 |     -4.50 |   2 |##
  30 |     -4.60 |  67 |     -4.60 |   1 |#
  31 |     -4.59 |  15 |     -4.43 |   2 |##
  32 |     -4.36 |  64 |     -4.36 |   1 |#
  33 |     -4.26 |   1 |     -3.72 |   5 |#####
  34 |     -4.25 |  46 |     -4.01 |   2 |##
  35 |     -4.17 |  92 |     -4.17 |   1 |#
  36 |     -4.14 |  72 |     -4.14 |   1 |#
  37 |     -4.12 |  32 |     -4.12 |   1 |#
  38 |     -3.99 |  13 |     -3.99 |   1 |#
  39 |     -3.94 |  53 |     -3.94 |   1 |#
  40 |     -3.89 |  91 |     -3.89 |   1 |#
  41 |     -3.88 |  33 |     -3.88 |   1 |#
  42 |     -3.87 |   4 |     -3.87 |   1 |#
  43 |     -3.85 |  74 |     -3.51 |   2 |##
  44 |     -3.83 |  29 |     -3.77 |   2 |##
  45 |     -3.77 |  60 |     -3.77 |   1 |#
  46 |     -3.70 |  19 |     -3.70 |   1 |#
  47 |     -3.61 |   5 |     -3.61 |   1 |#
  48 |     -3.58 |  40 |     -3.58 |   1 |#
  49 |     -3.53 |  59 |     -3.53 |   1 |#
  50 |     -3.52 |  47 |     -3.30 |   2 |##
  51 |     -3.46 |  27 |     -3.46 |   1 |#
  52 |     -3.28 |  65 |     -3.28 |   1 |#
  53 |     -3.11 |   8 |     -3.11 |   1 |#
  54 |     -3.09 |  17 |     -3.01 |   2 |##
  55 |     -3.06 |  90 |     -3.06 |   1 |#
  56 |     -2.72 |  35 |     -2.72 |   1 |#
  57 |     -2.60 |  24 |     -2.60 |   1 |#
  58 |     -2.52 |  87 |     -2.52 |   1 |#
_____|___________|_____|___________|_____|______________________________________


Number of multi-member conformational clusters found = 22, out of 100 runs.

	RMSD TABLE
	__________

_____________________________________________________________________
     |      |      |           |         |                 |
Rank | Sub- | Run  | Binding   | Cluster | Reference       | Grep
     | Rank |      | Energy    | RMSD    | RMSD            | Pattern
_____|______|______|___________|_________|_________________|___________
   1      1     16       -8.69      0.00     16.51           RANKING
   1      2     41       -7.96      1.43     16.20           RANKING
   1      3     42       -7.76      1.62     16.30           RANKING
   1      4     96       -7.51      1.30     16.39           RANKING
   1      5     10       -7.49      1.07     16.40           RANKING
   1      6     51       -7.25      1.56     16.46           RANKING
   1      7     18       -7.25      1.38     16.42           RANKING
   1      8     26       -6.54      1.93     16.50           RANKING
   2      1     30       -7.12      0.00     16.81           RANKING
   2      2     52       -6.56      0.91     16.93           RANKING
   2      3     36       -5.83      1.12     17.19           RANKING
   2      4     80       -5.32      1.73     17.23           RANKING
   2      5     22       -4.91      1.67     17.41           RANKING
   3      1     88       -6.94      0.00     16.52           RANKING
   3      2     61       -5.71      0.72     16.71           RANKING
   3      3     63       -5.51      1.75     16.80           RANKING
   4      1    100       -6.72      0.00     16.38           RANKING
   5      1      9       -6.20      0.00     11.87           RANKING
   5      2     37       -5.96      1.86     11.85           RANKING
   5      3     45       -5.63      1.51     12.08           RANKING
   5      4      6       -4.98      1.83     11.58           RANKING
   6      1     99       -6.12      0.00     16.03           RANKING
   7      1     31       -5.89      0.00     16.61           RANKING
   7      2     21       -5.38      1.18     16.71           RANKING
   7      3     97       -5.35      1.19     16.73           RANKING
   7      4     69       -4.45      1.64     16.93           RANKING
   8      1     98       -5.86      0.00     12.16           RANKING
   9      1     85       -5.85      0.00     16.43           RANKING
   9      2      7       -5.74      1.28     16.47           RANKING
   9      3     20       -5.67      1.50     16.35           RANKING
  10      1      3       -5.76      0.00     10.04           RANKING
  11      1     48       -5.75      0.00     16.70           RANKING
  12      1     39       -5.75      0.00     15.42           RANKING
  12      2     84       -4.19      1.56     15.35           RANKING
  13      1     95       -5.43      0.00     16.19           RANKING
  13      2     81       -5.14      1.97     16.38           RANKING
  13      3     94       -5.11      2.00     16.34           RANKING
  14      1     50       -5.42      0.00     17.70           RANKING
  15      1     79       -5.39      0.00     19.33           RANKING
  16      1      2       -5.38      0.00     12.33           RANKING
  17      1     66       -5.30      0.00     14.67           RANKING
  17      2     58       -4.59      0.85     14.63           RANKING
  18      1     55       -5.13      0.00     11.57           RANKING
  19      1     83       -5.11      0.00     14.48           RANKING
  19      2     44       -4.12      0.91     14.58           RANKING
  20      1     86       -5.09      0.00     12.43           RANKING
  20      2     68       -4.16      1.81     12.87           RANKING
  21      1     76       -4.90      0.00     19.44           RANKING
  22      1     23       -4.88      0.00     19.55           RANKING
  23      1     82       -4.83      0.00     14.17           RANKING
  24      1     77       -4.82      0.00     18.39           RANKING
  24      2     49       -4.30      0.97     18.19           RANKING
  25      1     70       -4.75      0.00     17.61           RANKING
  25      2     89       -4.48      0.93     17.24           RANKING
  25      3     93       -3.41      1.67     17.18           RANKING
  26      1     56       -4.69      0.00     16.13           RANKING
  27      1     25       -4.66      0.00     14.13           RANKING
  27      2     38       -3.45      1.18     14.09           RANKING
  28      1     43       -4.63      0.00     18.24           RANKING
  29      1     14       -4.60      0.00     14.84           RANKING
  29      2     78       -4.39      1.14     14.84           RANKING
  30      1     67       -4.60      0.00     21.09           RANKING
  31      1     15       -4.59      0.00     15.65           RANKING
  31      2     12       -4.28      0.76     15.74           RANKING
  32      1     64       -4.36      0.00     21.33           RANKING
  33      1      1       -4.26      0.00     14.84           RANKING
  33      2     71       -3.68      0.56     14.81           RANKING
  33      3     73       -3.60      1.09     15.12           RANKING
  33      4     62       -3.54      0.91     15.17           RANKING
  33      5     57       -3.53      0.82     15.07           RANKING
  34      1     46       -4.25      0.00     16.86           RANKING
  34      2     54       -3.77      1.32     16.62           RANKING
  35      1     92       -4.17      0.00     10.41           RANKING
  36      1     72       -4.14      0.00     15.57           RANKING
  37      1     32       -4.12      0.00     14.73           RANKING
  38      1     13       -3.99      0.00     12.97           RANKING
  39      1     53       -3.94      0.00     19.05           RANKING
  40      1     91       -3.89      0.00     16.26           RANKING
  41      1     33       -3.88      0.00     17.26           RANKING
  42      1      4       -3.87      0.00     10.45           RANKING
  43      1     74       -3.85      0.00     12.60           RANKING
  43      2     34       -3.18      1.85     12.83           RANKING
  44      1     29       -3.83      0.00     10.75           RANKING
  44      2     11       -3.70      1.50     10.21           RANKING
  45      1     60       -3.77      0.00     17.54           RANKING
  46      1     19       -3.70      0.00     16.24           RANKING
  47      1      5       -3.61      0.00     19.77           RANKING
  48      1     40       -3.58      0.00     19.68           RANKING
  49      1     59       -3.53      0.00     15.69           RANKING
  50      1     47       -3.52      0.00     14.89           RANKING
  50      2     28       -3.08      1.25     14.78           RANKING
  51      1     27       -3.46      0.00     16.36           RANKING
  52      1     65       -3.28      0.00     13.33           RANKING
  53      1      8       -3.11      0.00     11.66           RANKING
  54      1     17       -3.09      0.00     12.25           RANKING
  54      2     75       -2.92      1.82     11.64           RANKING
  55      1     90       -3.06      0.00     13.11           RANKING
  56      1     35       -2.72      0.00     13.60           RANKING
  57      1     24       -2.60      0.00     20.00           RANKING
  58      1     87       -2.52      0.00     17.93           RANKING
_______________________________________________________________________



	INFORMATION ENTROPY ANALYSIS FOR THIS CLUSTERING
	________________________________________________


Information entropy for this clustering = 0.84  (rmstol = 2.00 Angstrom)

_______________________________________________________________________


	STATISTICAL MECHANICAL ANALYSIS
	_______________________________


Partition function, Q =   100.81            at Temperature, T = 298.15 K
Free energy,        A ~ -2733.28 kcal/mol   at Temperature, T = 298.15 K
Internal energy,    U =    -4.81 kcal/mol   at Temperature, T = 298.15 K
Entropy,            S =     9.15 kcal/mol/K at Temperature, T = 298.15 K

_______________________________________________________________________


	LOWEST ENERGY DOCKED CONFORMATION from EACH CLUSTER
	___________________________________________________



Keeping original residue number (specified in the input PDBQ file) for outputting.

MODEL       16
USER    Run = 16
USER    Cluster Rank = 1
USER    Number of conformations in this cluster = 8
USER  
USER    RMSD from reference structure       = 16.514 A
USER  
USER    Estimated Free Energy of Binding    =   -8.69 kcal/mol  [=(1)+(2)+(3)-(4)]
USER    Estimated Inhibition Constant, Ki   =  427.43 nM (nanomolar)  [Temperature = 298.15 K]
USER    
USER    (1) Final Intermolecular Energy     =  -12.57 kcal/mol
USER        vdW + Hbond + desolv Energy     =  -11.46 kcal/mol
USER        Electrostatic Energy            =   -1.11 kcal/mol
USER    (2) Final Total Internal Energy     =   -1.94 kcal/mol
USER    (3) Torsional Free Energy           =   +3.88 kcal/mol
USER    (4) Unbound System's Energy  [=(2)] =   -1.94 kcal/mol
USER    
USER    
USER  
USER    DPF = D:/Protein_go_brrr/autodock/final/mut_N102T/heme/dock.dpf
USER    NEWDPF move	heme_opt.pdbqt
USER    NEWDPF about	0.153000 0.018000 -0.028000
USER    NEWDPF tran0	4.533616 14.521453 -11.531289
USER    NEWDPF axisangle0	-0.927018 0.017966 -0.374586 -129.982129
USER    NEWDPF quaternion0	-0.840103 0.016282 -0.339465 -0.422760
USER    NEWDPF dihe0	-161.86 54.69 -161.00 -100.39 -141.25 -167.74 137.06 -86.48 175.82 -9.83 -78.15 25.67 1.33 
USER  
USER                              x       y       z    vdW   Elec        q     RMS 
ATOM      1  O   UNL d   1       1.036  15.654 -16.140 -0.72 -0.10    -0.289    16.514
ATOM      2  O   UNL d   1       0.310  17.364  -8.864 -0.13 +0.06    -0.289    16.514
ATOM      3  N   UNL d   1       3.309  14.648 -13.749 -0.20 +0.07    -0.247    16.514
ATOM      4  N   UNL d   1       2.367  16.024 -11.289 -0.15 +0.08    -0.247    16.514
ATOM      5  N   UNL d   1       4.885  15.367 -10.068 -0.10 +0.14    -0.354    16.514
ATOM      6  N   UNL d   1       5.863  13.959 -12.630 +0.06 +0.18    -0.354    16.514
ATOM      7  C   UNL d   1       3.200  14.518 -16.194 -0.25 -0.01    +0.084    16.514
ATOM      8  C   UNL d   1      -0.008  16.587 -11.163 -0.17 -0.01    +0.084    16.514
ATOM      9  C   UNL d   1       1.172  16.041 -11.974 -0.22 -0.01    +0.058    16.514
ATOM     10  C   UNL d   1       3.960  14.228 -14.896 -0.25 -0.02    +0.058    16.514
ATOM     11  C   UNL d   1       1.995  15.161 -15.575 -0.22 +0.02    +0.193    16.514
ATOM     12  C   UNL d   1       2.169  15.157 -14.088 -0.24 -0.01    +0.109    16.514
ATOM     13  C   UNL d   1       0.746  16.912  -9.905 -0.13 -0.05    +0.193    16.514
ATOM     14  C   UNL d   1       3.921  15.552 -17.063 -0.10 -0.00    +0.026    16.514
ATOM     15  C   UNL d   1       1.058  15.661 -13.256 -0.20 -0.00    +0.055    16.514
ATOM     16  C   UNL d   1      -1.037  15.496 -10.853 -0.30 -0.00    +0.026    16.514
ATOM     17  C   UNL d   1       2.175  16.530 -10.113 -0.15 -0.04    +0.109    16.514
ATOM     18  C   UNL d   1       5.117  13.539 -14.898 -0.28 -0.03    +0.050    16.514
ATOM     19  C   UNL d   1       5.845  13.151 -13.745 -0.24 -0.02    +0.045    16.514
ATOM     20  C   UNL d   1       4.383  16.225  -9.125 -0.20 -0.02    +0.045    16.514
ATOM     21  C   UNL d   1       3.167  16.776  -9.056 -0.24 -0.02    +0.057    16.514
ATOM     22  C   UNL d   1       6.539  15.707  -8.577 -0.13 +0.01    -0.019    16.514
ATOM     23  C   UNL d   1       6.181  14.999  -9.823 -0.18 -0.02    +0.045    16.514
ATOM     24  C   UNL d   1       5.470  16.430  -8.168 -0.12 +0.01    -0.022    16.514
ATOM     25  C   UNL d   1       6.698  13.438 -11.669 -0.09 -0.02    +0.049    16.514
ATOM     26  C   UNL d   1       6.660  12.060 -13.488 -0.30 +0.01    -0.018    16.514
ATOM     27  C   UNL d   1       7.180  12.237 -12.169 -0.28 -0.00    +0.003    16.514
ATOM     28  C   UNL d   1       7.002  14.174 -10.491 -0.19 -0.02    +0.052    16.514
ATOM     29  C   UNL d   1       5.337  17.298  -6.964 -0.09 -0.02    +0.046    16.514
ATOM     30  C   UNL d   1       6.938  10.920 -14.408 -0.19 -0.03    +0.046    16.514
ATOM     31  H   UNL d   1       4.300  15.002 -10.812 -0.21 -0.09    +0.166    16.514
ATOM     32  H   UNL d   1       5.355  14.834 -12.564 -0.04 -0.07    +0.166    16.514
ATOM     33  C   UNL d   1       2.793  13.285 -17.007 -0.33 -0.04    +0.141    16.514
ATOM     34  C   UNL d   1       3.040  13.456 -18.482 -0.20 -0.05    +0.306    16.514
ATOM     35  O   UNL d   1       2.273  13.954 -19.288 -0.21 -0.03    -0.251    16.514
ATOM     36  O   UNL d   1       4.244  12.992 -18.862 -0.07 +0.26    -0.481    16.514
ATOM     37  H   UNL d   1       4.541  12.433 -18.113 -0.35 -0.41    +0.295    16.514
ATOM     38  C   UNL d   1       8.083  11.341 -11.511 -0.32 -0.01    +0.017    16.514
ATOM     39  C   UNL d   1       7.819  10.665 -10.382 -0.41 -0.03    +0.092    16.514
ATOM     40  C   UNL d   1       8.826   9.763  -9.818 -0.25 -0.10    +0.330    16.514
ATOM     41  O   UNL d   1       8.684   8.961  -8.915 -1.02 +0.02    -0.246    16.514
ATOM     42  O   UNL d   1       9.997   9.922 -10.455 -0.10 +0.19    -0.477    16.514
ATOM     43  H   UNL d   1      10.225   9.018 -10.756 -0.40 -0.24    +0.295    16.514
ATOM     44  C   UNL d   1      -0.681  17.838 -11.738 -0.05 -0.00    +0.141    16.514
ATOM     45  C   UNL d   1       0.256  19.007 -11.876 +0.00 -0.01    +0.306    16.514
ATOM     46  O   UNL d   1       0.902  19.309 -12.865 -0.00 -0.00    -0.251    16.514
ATOM     47  O   UNL d   1       0.353  19.726 -10.743 +0.01 +0.02    -0.481    16.514
ATOM     48  H   UNL d   1       0.014  19.130 -10.041 +0.04 -0.02    +0.295    16.514
ATOM     49  C   UNL d   1       7.884  15.623  -7.917 -0.11 -0.03    +0.048    16.514
ATOM     50  C   UNL d   1       8.017  14.369  -7.054 -0.10 -0.15    +0.125    16.514
ATOM     51  C   UNL d   1       8.836  13.320  -7.752 -0.09 -0.33    +0.305    16.514
ATOM     52  O   UNL d   1       8.435  12.414  -8.461 -0.74 +0.14    -0.251    16.514
ATOM     53  O   UNL d   1      10.153  13.463  -7.505 -0.05 +0.65    -0.481    16.514
ATOM     54  H   UNL d   1      10.273  13.072  -6.614 -0.46 -0.91    +0.295    16.514
TER
ENDMDL
MODEL       30
USER    Run = 30
USER    Cluster Rank = 2
USER    Number of conformations in this cluster = 5
USER  
USER    RMSD from reference structure       = 16.809 A
USER  
USER    Estimated Free Energy of Binding    =   -7.12 kcal/mol  [=(1)+(2)+(3)-(4)]
USER    Estimated Inhibition Constant, Ki   =    6.02 uM (micromolar)  [Temperature = 298.15 K]
USER    
USER    (1) Final Intermolecular Energy     =  -11.00 kcal/mol
USER        vdW + Hbond + desolv Energy     =   -9.78 kcal/mol
USER        Electrostatic Energy            =   -1.22 kcal/mol
USER    (2) Final Total Internal Energy     =   -2.02 kcal/mol
USER    (3) Torsional Free Energy           =   +3.88 kcal/mol
USER    (4) Unbound System's Energy  [=(2)] =   -2.02 kcal/mol
USER    
USER    
USER  
USER    DPF = D:/Protein_go_brrr/autodock/final/mut_N102T/heme/dock.dpf
USER    NEWDPF move	heme_opt.pdbqt
USER    NEWDPF about	0.153000 0.018000 -0.028000
USER    NEWDPF tran0	-8.726185 -14.996935 10.569718
USER    NEWDPF axisangle0	0.250637 -0.077312 -0.964989 -102.922968
USER    NEWDPF quaternion0	0.196046 -0.060473 -0.754804 -0.623041
USER    NEWDPF dihe0	100.18 -143.98 -12.11 -119.61 -3.13 -122.92 -42.86 21.88 126.54 136.09 -61.63 70.56 20.03 
USER  
USER                              x       y       z    vdW   Elec        q     RMS 
ATOM      1  O   UNL d   1      -6.595 -10.051  12.968 -0.16 +0.07    -0.289    16.809
ATOM      2  O   UNL d   1     -12.193 -11.145   8.084 -0.06 +0.05    -0.289    16.809
ATOM      3  N   UNL d   1      -7.407 -13.164  11.724 -0.19 +0.09    -0.247    16.809
ATOM      4  N   UNL d   1      -9.876 -12.648  10.152 -0.16 +0.09    -0.247    16.809
ATOM      5  N   UNL d   1     -10.300 -15.490  10.061 -0.09 +0.19    -0.354    16.809
ATOM      6  N   UNL d   1      -7.748 -16.015  11.709 -0.09 +0.21    -0.354    16.809
ATOM      7  C   UNL d   1      -5.850 -12.334  13.425 -0.20 -0.02    +0.084    16.809
ATOM      8  C   UNL d   1     -10.184 -10.393   9.263 -0.19 -0.02    +0.084    16.809
ATOM      9  C   UNL d   1      -9.375 -11.365  10.128 -0.26 -0.02    +0.058    16.809
ATOM     10  C   UNL d   1      -6.452 -13.517  12.663 -0.25 -0.02    +0.058    16.809
ATOM     11  C   UNL d   1      -6.621 -11.246  12.739 -0.09 -0.04    +0.193    16.809
ATOM     12  C   UNL d   1      -7.511 -11.875  11.712 -0.17 -0.03    +0.109    16.809
ATOM     13  C   UNL d   1     -11.257 -11.353   8.830 -0.08 -0.04    +0.193    16.809
ATOM     14  C   UNL d   1      -6.232 -12.351  14.908 -0.12 -0.01    +0.026    16.809
ATOM     15  C   UNL d   1      -8.304 -10.984  10.840 -0.31 -0.01    +0.055    16.809
ATOM     16  C   UNL d   1      -9.398  -9.944   8.027 -0.17 -0.01    +0.026    16.809
ATOM     17  C   UNL d   1     -10.958 -12.682   9.443 -0.15 -0.03    +0.109    16.809
ATOM     18  C   UNL d   1      -6.005 -14.774  12.847 -0.25 -0.02    +0.050    16.809
ATOM     19  C   UNL d   1      -6.441 -15.916  12.129 -0.23 -0.02    +0.045    16.809
ATOM     20  C   UNL d   1     -11.499 -15.057   9.558 -0.17 -0.01    +0.045    16.809
ATOM     21  C   UNL d   1     -11.870 -13.815   9.228 -0.14 -0.01    +0.057    16.809
ATOM     22  C   UNL d   1     -11.604 -17.317   9.870 -0.13 +0.01    -0.019    16.809
ATOM     23  C   UNL d   1     -10.268 -16.841  10.283 -0.20 -0.03    +0.045    16.809
ATOM     24  C   UNL d   1     -12.327 -16.256   9.441 -0.12 +0.01    -0.022    16.809
ATOM     25  C   UNL d   1      -7.974 -17.236  11.116 -0.19 -0.04    +0.049    16.809
ATOM     26  C   UNL d   1      -5.792 -17.086  11.767 -0.25 +0.01    -0.018    16.809
ATOM     27  C   UNL d   1      -6.760 -17.908  11.111 -0.26 -0.00    +0.003    16.809
ATOM     28  C   UNL d   1      -9.287 -17.633  10.743 -0.20 -0.04    +0.052    16.809
ATOM     29  C   UNL d   1     -13.722 -16.230   8.916 -0.05 -0.01    +0.046    16.809
ATOM     30  C   UNL d   1      -4.360 -17.423  12.013 -0.21 -0.03    +0.046    16.809
ATOM     31  H   UNL d   1      -9.515 -14.857  10.167 -0.51 -0.15    +0.166    16.809
ATOM     32  H   UNL d   1      -8.443 -15.293  11.863 -0.04 -0.09    +0.166    16.809
ATOM     33  C   UNL d   1      -4.344 -12.128  13.235 -0.34 -0.05    +0.141    16.809
ATOM     34  C   UNL d   1      -3.843 -10.872  13.897 -0.32 -0.07    +0.306    16.809
ATOM     35  O   UNL d   1      -4.041 -10.539  15.053 -0.50 +0.04    -0.251    16.809
ATOM     36  O   UNL d   1      -3.116 -10.104  13.067 -0.33 +0.12    -0.481    16.809
ATOM     37  H   UNL d   1      -2.218 -10.498  13.088 -0.32 -0.15    +0.295    16.809
ATOM     38  C   UNL d   1      -6.512 -19.218  10.588 -0.21 -0.02    +0.017    16.809
ATOM     39  C   UNL d   1      -5.801 -19.489   9.484 +0.02 -0.12    +0.092    16.809
ATOM     40  C   UNL d   1      -5.606 -20.880   9.064 -0.05 -0.32    +0.330    16.809
ATOM     41  O   UNL d   1      -4.554 -21.452   8.852 -0.06 +0.13    -0.246    16.809
ATOM     42  O   UNL d   1      -6.792 -21.495   8.940 -0.06 +0.50    -0.477    16.809
ATOM     43  H   UNL d   1      -7.384 -20.796   8.593 -0.34 -0.60    +0.295    16.809
ATOM     44  C   UNL d   1     -10.786  -9.194  10.003 -0.12 -0.05    +0.141    16.809
ATOM     45  C   UNL d   1      -9.840  -8.028  10.113 -0.15 -0.18    +0.306    16.809
ATOM     46  O   UNL d   1      -9.011  -7.845  10.988 -0.23 +0.16    -0.251    16.809
ATOM     47  O   UNL d   1     -10.009  -7.133   9.123 -0.17 +0.46    -0.481    16.809
ATOM     48  H   UNL d   1      -9.506  -6.343   9.415 -0.29 -0.67    +0.295    16.809
ATOM     49  C   UNL d   1     -12.049 -18.748   9.948 -0.07 -0.02    +0.048    16.809
ATOM     50  C   UNL d   1     -11.219 -19.652   9.037 -0.05 -0.11    +0.125    16.809
ATOM     51  C   UNL d   1     -10.506 -20.707   9.834 -0.03 -0.23    +0.305    16.809
ATOM     52  O   UNL d   1     -10.729 -21.049  10.982 -0.02 +0.11    -0.251    16.809
ATOM     53  O   UNL d   1      -9.512 -21.286   9.130 -0.00 +0.53    -0.481    16.809
ATOM     54  H   UNL d   1      -8.912 -20.543   8.912 -0.48 -0.70    +0.295    16.809
TER
ENDMDL
MODEL       88
USER    Run = 88
USER    Cluster Rank = 3
USER    Number of conformations in this cluster = 3
USER  
USER    RMSD from reference structure       = 16.516 A
USER  
USER    Estimated Free Energy of Binding    =   -6.94 kcal/mol  [=(1)+(2)+(3)-(4)]
USER    Estimated Inhibition Constant, Ki   =    8.12 uM (micromolar)  [Temperature = 298.15 K]
USER    
USER    (1) Final Intermolecular Energy     =  -10.82 kcal/mol
USER        vdW + Hbond + desolv Energy     =  -10.39 kcal/mol
USER        Electrostatic Energy            =   -0.43 kcal/mol
USER    (2) Final Total Internal Energy     =   -2.92 kcal/mol
USER    (3) Torsional Free Energy           =   +3.88 kcal/mol
USER    (4) Unbound System's Energy  [=(2)] =   -2.92 kcal/mol
USER    
USER    
USER  
USER    DPF = D:/Protein_go_brrr/autodock/final/mut_N102T/heme/dock.dpf
USER    NEWDPF move	heme_opt.pdbqt
USER    NEWDPF about	0.153000 0.018000 -0.028000
USER    NEWDPF tran0	5.658409 14.086765 -12.250329
USER    NEWDPF axisangle0	-0.548978 -0.475379 0.687487 153.186595
USER    NEWDPF quaternion0	-0.534018 -0.462424 0.668752 0.231862
USER    NEWDPF dihe0	72.16 174.88 132.82 114.88 -139.65 0.46 -52.13 153.32 56.95 -155.52 -46.53 -81.36 46.46 
USER  
USER                              x       y       z    vdW   Elec        q     RMS 
ATOM      1  O   UNL d   1       8.500  11.709  -7.665 -0.63 +0.23    -0.289    16.516
ATOM      2  O   UNL d   1       3.407  17.219  -7.989 -0.12 +0.08    -0.289    16.516
ATOM      3  N   UNL d   1       7.194  12.873 -10.637 -0.17 +0.09    -0.247    16.516
ATOM      4  N   UNL d   1       5.093  14.782  -9.759 -0.17 +0.11    -0.247    16.516
ATOM      5  N   UNL d   1       4.086  14.770 -12.452 +0.12 +0.18    -0.354    16.516
ATOM      6  N   UNL d   1       6.257  12.774 -13.350 -0.13 +0.17    -0.354    16.516
ATOM      7  C   UNL d   1       8.682  11.031 -10.006 -0.28 -0.03    +0.084    16.516
ATOM      8  C   UNL d   1       5.378  15.829  -7.569 -0.19 -0.04    +0.084    16.516
ATOM      9  C   UNL d   1       5.854  14.812  -8.612 -0.25 -0.03    +0.058    16.516
ATOM     10  C   UNL d   1       7.935  11.799 -11.100 -0.26 -0.02    +0.058    16.516
ATOM     11  C   UNL d   1       8.247  11.872  -8.844 -0.02 -0.08    +0.193    16.516
ATOM     12  C   UNL d   1       7.369  12.971  -9.359 -0.16 -0.04    +0.109    16.516
ATOM     13  C   UNL d   1       4.184  16.345  -8.321 -0.17 -0.07    +0.193    16.516
ATOM     14  C   UNL d   1       8.135   9.613  -9.823 -0.46 -0.01    +0.026    16.516
ATOM     15  C   UNL d   1       6.892  13.988  -8.400 -0.10 -0.03    +0.055    16.516
ATOM     16  C   UNL d   1       6.381  16.974  -7.393 -0.07 -0.01    +0.026    16.516
ATOM     17  C   UNL d   1       4.119  15.624  -9.629 -0.23 -0.04    +0.109    16.516
ATOM     18  C   UNL d   1       8.080  11.487 -12.402 -0.26 -0.01    +0.050    16.516
ATOM     19  C   UNL d   1       7.497  12.192 -13.486 -0.20 -0.02    +0.045    16.516
ATOM     20  C   UNL d   1       3.074  15.450 -11.825 -0.22 -0.02    +0.045    16.516
ATOM     21  C   UNL d   1       3.018  15.894 -10.565 -0.22 -0.02    +0.057    16.516
ATOM     22  C   UNL d   1       2.454  15.028 -13.983 -0.29 +0.00    -0.019    16.516
ATOM     23  C   UNL d   1       3.803  14.470 -13.758 -0.25 -0.02    +0.045    16.516
ATOM     24  C   UNL d   1       2.029  15.607 -12.835 -0.27 +0.00    -0.022    16.516
ATOM     25  C   UNL d   1       5.846  13.322 -14.543 -0.22 -0.02    +0.049    16.516
ATOM     26  C   UNL d   1       7.919  12.399 -14.790 -0.14 +0.01    -0.018    16.516
ATOM     27  C   UNL d   1       6.882  13.130 -15.447 -0.13 -0.00    +0.003    16.516
ATOM     28  C   UNL d   1       4.532  13.842 -14.693 -0.30 -0.02    +0.052    16.516
ATOM     29  C   UNL d   1       0.743  16.312 -12.567 -0.21 -0.00    +0.046    16.516
ATOM     30  C   UNL d   1       9.208  11.948 -15.391 -0.11 -0.01    +0.046    16.516
ATOM     31  H   UNL d   1       4.970  14.596 -11.986 -0.33 -0.10    +0.166    16.516
ATOM     32  H   UNL d   1       5.719  12.753 -12.491 -0.42 -0.12    +0.166    16.516
ATOM     33  C   UNL d   1      10.210  11.032 -10.128 -0.19 -0.05    +0.141    16.516
ATOM     34  C   UNL d   1      10.869  11.955  -9.140 -0.08 -0.14    +0.306    16.516
ATOM     35  O   UNL d   1      11.062  13.150  -9.288 -0.04 +0.11    -0.251    16.516
ATOM     36  O   UNL d   1      11.249  11.324  -8.015 -0.24 +0.30    -0.481    16.516
ATOM     37  H   UNL d   1      10.644  11.668  -7.323 -0.28 -0.44    +0.295    16.516
ATOM     38  C   UNL d   1       6.904  13.541 -16.819 -0.09 -0.01    +0.017    16.516
ATOM     39  C   UNL d   1       5.878  13.431 -17.677 +0.00 -0.07    +0.092    16.516
ATOM     40  C   UNL d   1       6.024  13.908 -19.054 -0.04 -0.11    +0.330    16.516
ATOM     41  O   UNL d   1       6.994  14.445 -19.556 -0.01 +0.04    -0.246    16.516
ATOM     42  O   UNL d   1       4.903  13.664 -19.749 -0.03 +0.12    -0.477    16.516
ATOM     43  H   UNL d   1       4.347  13.153 -19.125 +0.06 -0.13    +0.295    16.516
ATOM     44  C   UNL d   1       4.964  15.243  -6.216 -0.27 -0.09    +0.141    16.516
ATOM     45  C   UNL d   1       5.086  16.224  -5.080 -0.12 -0.17    +0.306    16.516
ATOM     46  O   UNL d   1       6.024  16.331  -4.310 -0.09 +0.17    -0.251    16.516
ATOM     47  O   UNL d   1       3.998  17.006  -4.957 -0.47 +0.11    -0.481    16.516
ATOM     48  H   UNL d   1       3.819  17.327  -5.866 +0.07 -0.06    +0.295    16.516
ATOM     49  C   UNL d   1       1.708  14.930 -15.281 -0.27 +0.01    +0.048    16.516
ATOM     50  C   UNL d   1       2.641  15.064 -16.485 -0.25 +0.00    +0.125    16.516
ATOM     51  C   UNL d   1       2.341  14.013 -17.515 -0.27 +0.01    +0.305    16.516
ATOM     52  O   UNL d   1       2.441  14.110 -18.726 -0.21 -0.02    -0.251    16.516
ATOM     53  O   UNL d   1       1.907  12.867 -16.955 -0.41 +0.02    -0.481    16.516
ATOM     54  H   UNL d   1       2.680  12.542 -16.448 -0.31 -0.15    +0.295    16.516
TER
ENDMDL
MODEL      100
USER    Run = 100
USER    Cluster Rank = 4
USER    Number of conformations in this cluster = 1
USER  
USER    RMSD from reference structure       = 16.376 A
USER  
USER    Estimated Free Energy of Binding    =   -6.72 kcal/mol  [=(1)+(2)+(3)-(4)]
USER    Estimated Inhibition Constant, Ki   =   11.78 uM (micromolar)  [Temperature = 298.15 K]
USER    
USER    (1) Final Intermolecular Energy     =  -10.60 kcal/mol
USER        vdW + Hbond + desolv Energy     =  -10.32 kcal/mol
USER        Electrostatic Energy            =   -0.28 kcal/mol
USER    (2) Final Total Internal Energy     =   -1.27 kcal/mol
USER    (3) Torsional Free Energy           =   +3.88 kcal/mol
USER    (4) Unbound System's Energy  [=(2)] =   -1.27 kcal/mol
USER    
USER    
USER  
USER    DPF = D:/Protein_go_brrr/autodock/final/mut_N102T/heme/dock.dpf
USER    NEWDPF move	heme_opt.pdbqt
USER    NEWDPF about	0.153000 0.018000 -0.028000
USER    NEWDPF tran0	4.669042 14.238504 -12.209499
USER    NEWDPF axisangle0	-0.176469 0.811756 0.556697 -131.407775
USER    NEWDPF quaternion0	-0.160839 0.739859 0.507391 -0.411453
USER    NEWDPF dihe0	60.16 102.88 102.83 92.18 158.18 -30.56 -15.87 156.37 111.09 178.99 -92.20 -70.07 -47.95 
USER  
USER                              x       y       z    vdW   Elec        q     RMS 
ATOM      1  O   UNL d   1       7.271  14.535  -6.928 -0.16 +0.30    -0.289    16.376
ATOM      2  O   UNL d   1       8.762  10.267 -12.924 -0.22 +0.07    -0.289    16.376
ATOM      3  N   UNL d   1       5.361  14.614  -9.799 -0.14 +0.11    -0.247    16.376
ATOM      4  N   UNL d   1       6.866  12.863 -11.669 -0.12 +0.11    -0.247    16.376
ATOM      5  N   UNL d   1       5.244  13.904 -13.802 -0.10 +0.16    -0.354    16.376
ATOM      6  N   UNL d   1       3.701  15.732 -11.858 -0.09 +0.12    -0.354    16.376
ATOM      7  C   UNL d   1       5.405  15.904  -7.715 -0.17 -0.04    +0.084    16.376
ATOM      8  C   UNL d   1       8.280  11.130 -10.684 -0.28 -0.03    +0.084    16.376
ATOM      9  C   UNL d   1       7.368  12.347 -10.495 -0.28 -0.02    +0.058    16.376
ATOM     10  C   UNL d   1       4.784  15.656  -9.092 -0.23 -0.02    +0.058    16.376
ATOM     11  C   UNL d   1       6.424  14.806  -7.760 -0.15 -0.12    +0.193    16.376
ATOM     12  C   UNL d   1       6.280  14.080  -9.062 -0.19 -0.05    +0.109    16.376
ATOM     13  C   UNL d   1       8.232  11.074 -12.185 -0.16 -0.05    +0.193    16.376
ATOM     14  C   UNL d   1       6.130  17.250  -7.645 -0.06 -0.01    +0.026    16.376
ATOM     15  C   UNL d   1       7.125  12.891  -9.293 -0.13 -0.02    +0.055    16.376
ATOM     16  C   UNL d   1       7.646   9.853 -10.123 -0.24 -0.01    +0.026    16.376
ATOM     17  C   UNL d   1       7.348  12.182 -12.658 -0.21 -0.04    +0.109    16.376
ATOM     18  C   UNL d   1       3.709  16.349  -9.514 -0.24 -0.02    +0.050    16.376
ATOM     19  C   UNL d   1       3.017  16.132 -10.733 -0.21 -0.02    +0.045    16.376
ATOM     20  C   UNL d   1       6.180  13.218 -14.531 -0.20 -0.02    +0.045    16.376
ATOM     21  C   UNL d   1       7.146  12.401 -14.098 -0.23 -0.02    +0.057    16.376
ATOM     22  C   UNL d   1       4.857  14.408 -15.963 -0.15 +0.01    -0.019    16.376
ATOM     23  C   UNL d   1       4.400  14.651 -14.580 -0.19 -0.01    +0.045    16.376
ATOM     24  C   UNL d   1       5.910  13.557 -15.928 -0.14 +0.01    -0.022    16.376
ATOM     25  C   UNL d   1       2.855  15.671 -12.941 -0.22 -0.01    +0.049    16.376
ATOM     26  C   UNL d   1       1.687  16.300 -11.085 -0.18 +0.01    -0.018    16.376
ATOM     27  C   UNL d   1       1.587  15.988 -12.476 -0.24 -0.00    +0.003    16.376
ATOM     28  C   UNL d   1       3.361  15.432 -14.248 -0.21 -0.01    +0.052    16.376
ATOM     29  C   UNL d   1       6.702  13.006 -17.064 +0.15 -0.04    +0.046    16.376
ATOM     30  C   UNL d   1       0.574  16.722 -10.186 -0.20 -0.01    +0.046    16.376
ATOM     31  H   UNL d   1       5.165  13.781 -12.799 -0.43 -0.11    +0.166    16.376
ATOM     32  H   UNL d   1       4.698  15.552 -11.874 +0.01 -0.06    +0.166    16.376
ATOM     33  C   UNL d   1       4.460  15.712  -6.523 -0.27 -0.07    +0.141    16.376
ATOM     34  C   UNL d   1       5.196  15.464  -5.235 -0.16 -0.23    +0.306    16.376
ATOM     35  O   UNL d   1       4.812  14.771  -4.308 -0.29 +0.27    -0.251    16.376
ATOM     36  O   UNL d   1       6.380  16.100  -5.183 -0.04 +0.37    -0.481    16.376
ATOM     37  H   UNL d   1       7.037  15.386  -5.037 -0.11 -0.40    +0.295    16.376
ATOM     38  C   UNL d   1       0.384  16.048 -13.251 -0.18 +0.00    +0.017    16.376
ATOM     39  C   UNL d   1       0.314  16.385 -14.548 -0.20 +0.02    +0.092    16.376
ATOM     40  C   UNL d   1      -0.981  16.390 -15.232 -0.14 +0.11    +0.330    16.376
ATOM     41  O   UNL d   1      -1.934  15.663 -15.025 -0.23 -0.08    -0.246    16.376
ATOM     42  O   UNL d   1      -1.006  17.353 -16.166 -0.09 -0.24    -0.477    16.376
ATOM     43  H   UNL d   1      -1.142  18.175 -15.652 +0.05 +0.11    +0.295    16.376
ATOM     44  C   UNL d   1       9.719  11.299 -10.187 -0.18 -0.05    +0.141    16.376
ATOM     45  C   UNL d   1      10.173  10.180  -9.288 -0.21 -0.10    +0.306    16.376
ATOM     46  O   UNL d   1       9.672   9.852  -8.226 -0.59 +0.07    -0.251    16.376
ATOM     47  O   UNL d   1      11.259   9.545  -9.764 -0.14 +0.15    -0.481    16.376
ATOM     48  H   UNL d   1      10.914   8.956 -10.468 -0.38 -0.18    +0.295    16.376
ATOM     49  C   UNL d   1       4.237  15.034 -17.177 -0.12 -0.01    +0.048    16.376
ATOM     50  C   UNL d   1       3.941  14.000 -18.263 -0.17 -0.03    +0.125    16.376
ATOM     51  C   UNL d   1       2.574  13.405 -18.080 -0.25 -0.03    +0.305    16.376
ATOM     52  O   UNL d   1       1.828  12.976 -18.943 -0.27 -0.02    -0.251    16.376
ATOM     53  O   UNL d   1       2.199  13.392 -16.786 -0.39 +0.05    -0.481    16.376
ATOM     54  H   UNL d   1       2.546  12.541 -16.446 -0.32 -0.14    +0.295    16.376
TER
ENDMDL
MODEL        9
USER    Run = 9
USER    Cluster Rank = 5
USER    Number of conformations in this cluster = 4
USER  
USER    RMSD from reference structure       = 11.873 A
USER  
USER    Estimated Free Energy of Binding    =   -6.20 kcal/mol  [=(1)+(2)+(3)-(4)]
USER    Estimated Inhibition Constant, Ki   =   28.63 uM (micromolar)  [Temperature = 298.15 K]
USER    
USER    (1) Final Intermolecular Energy     =  -10.08 kcal/mol
USER        vdW + Hbond + desolv Energy     =   -9.60 kcal/mol
USER        Electrostatic Energy            =   -0.47 kcal/mol
USER    (2) Final Total Internal Energy     =   -1.71 kcal/mol
USER    (3) Torsional Free Energy           =   +3.88 kcal/mol
USER    (4) Unbound System's Energy  [=(2)] =   -1.71 kcal/mol
USER    
USER    
USER  
USER    DPF = D:/Protein_go_brrr/autodock/final/mut_N102T/heme/dock.dpf
USER    NEWDPF move	heme_opt.pdbqt
USER    NEWDPF about	0.153000 0.018000 -0.028000
USER    NEWDPF tran0	12.957190 -2.588552 -7.504359
USER    NEWDPF axisangle0	-0.493952 -0.719987 0.487474 -86.751832
USER    NEWDPF quaternion0	-0.339237 -0.494474 0.334788 -0.726863
USER    NEWDPF dihe0	20.37 145.62 132.18 -47.12 74.87 -67.99 -40.82 102.51 -108.91 -109.35 162.53 -75.50 9.93 
USER  
USER                              x       y       z    vdW   Elec        q     RMS 
ATOM      1  O   UNL d   1      10.479  -6.175 -11.473 -0.16 +0.03    -0.289    11.873
ATOM      2  O   UNL d   1      14.422  -7.673  -5.260 -0.05 +0.31    -0.289    11.873
ATOM      3  N   UNL d   1      11.869  -3.709  -9.502 -0.10 +0.03    -0.247    11.873
ATOM      4  N   UNL d   1      12.938  -5.216  -7.175 -0.14 +0.11    -0.247    11.873
ATOM      5  N   UNL d   1      13.236  -2.706  -5.805 -0.05 +0.06    -0.354    11.873
ATOM      6  N   UNL d   1      12.108  -1.152  -8.217 -0.12 +0.03    -0.354    11.873
ATOM      7  C   UNL d   1      10.384  -3.733 -11.453 -0.22 -0.01    +0.084    11.873
ATOM      8  C   UNL d   1      13.533  -7.558  -7.538 -0.14 -0.04    +0.084    11.873
ATOM      9  C   UNL d   1      12.919  -6.260  -8.073 -0.18 -0.02    +0.058    11.873
ATOM     10  C   UNL d   1      11.147  -2.932 -10.393 -0.21 -0.01    +0.058    11.873
ATOM     11  C   UNL d   1      10.818  -5.099 -11.015 -0.15 -0.02    +0.193    11.873
ATOM     12  C   UNL d   1      11.735  -4.950  -9.841 -0.16 -0.02    +0.109    11.873
ATOM     13  C   UNL d   1      13.870  -7.068  -6.158 -0.01 -0.18    +0.193    11.873
ATOM     14  C   UNL d   1       8.867  -3.616 -11.280 -0.49 -0.00    +0.026    11.873
ATOM     15  C   UNL d   1      12.366  -6.167  -9.292 -0.18 -0.01    +0.055    11.873
ATOM     16  C   UNL d   1      14.834  -7.913  -8.265 -0.06 -0.01    +0.026    11.873
ATOM     17  C   UNL d   1      13.451  -5.636  -6.064 -0.12 -0.09    +0.109    11.873
ATOM     18  C   UNL d   1      11.167  -1.586 -10.408 -0.15 -0.01    +0.050    11.873
ATOM     19  C   UNL d   1      11.910  -0.765  -9.522 -0.25 -0.01    +0.045    11.873
ATOM     20  C   UNL d   1      13.482  -3.570  -4.770 -0.22 -0.02    +0.045    11.873
ATOM     21  C   UNL d   1      13.619  -4.900  -4.803 -0.19 -0.05    +0.057    11.873
ATOM     22  C   UNL d   1      13.382  -1.442  -3.947 -0.26 +0.00    -0.019    11.873
ATOM     23  C   UNL d   1      13.158  -1.399  -5.406 -0.20 -0.00    +0.045    11.873
ATOM     24  C   UNL d   1      13.575  -2.730  -3.577 -0.21 +0.01    -0.022    11.873
ATOM     25  C   UNL d   1      12.771  -0.172  -7.517 -0.22 -0.00    +0.049    11.873
ATOM     26  C   UNL d   1      12.491   0.484  -9.685 -0.28 +0.00    -0.018    11.873
ATOM     27  C   UNL d   1      13.050   0.844  -8.420 -0.21 -0.00    +0.003    11.873
ATOM     28  C   UNL d   1      12.953  -0.275  -6.111 -0.22 -0.00    +0.052    11.873
ATOM     29  C   UNL d   1      13.849  -3.279  -2.218 -0.20 -0.01    +0.046    11.873
ATOM     30  C   UNL d   1      12.527   1.293 -10.937 -0.22 -0.01    +0.046    11.873
ATOM     31  H   UNL d   1      13.203  -3.031  -6.765 +0.06 -0.03    +0.166    11.873
ATOM     32  H   UNL d   1      11.768  -2.026  -7.834 +0.08 -0.00    +0.166    11.873
ATOM     33  C   UNL d   1      10.807  -3.473 -12.902 -0.17 -0.01    +0.141    11.873
ATOM     34  C   UNL d   1      10.598  -2.042 -13.319 -0.21 -0.02    +0.306    11.873
ATOM     35  O   UNL d   1      11.425  -1.317 -13.846 -0.20 +0.01    -0.251    11.873
ATOM     36  O   UNL d   1       9.356  -1.601 -13.052 -0.20 +0.06    -0.481    11.873
ATOM     37  H   UNL d   1       9.252  -0.802 -13.612 -0.39 -0.11    +0.295    11.873
ATOM     38  C   UNL d   1      13.735   2.071  -8.140 -0.22 -0.00    +0.017    11.873
ATOM     39  C   UNL d   1      13.631   2.773  -7.002 -0.20 -0.01    +0.092    11.873
ATOM     40  C   UNL d   1      14.401   4.008  -6.833 -0.16 -0.05    +0.330    11.873
ATOM     41  O   UNL d   1      15.604   4.121  -6.692 -0.06 +0.04    -0.246    11.873
ATOM     42  O   UNL d   1      13.581   5.071  -6.862 -0.59 +0.05    -0.477    11.873
ATOM     43  H   UNL d   1      12.887   4.814  -7.503 -0.44 -0.12    +0.295    11.873
ATOM     44  C   UNL d   1      12.586  -8.761  -7.478 -0.15 -0.06    +0.141    11.873
ATOM     45  C   UNL d   1      13.042  -9.828  -6.518 -0.17 -0.13    +0.306    11.873
ATOM     46  O   UNL d   1      13.832 -10.726  -6.752 -0.40 +0.05    -0.251    11.873
ATOM     47  O   UNL d   1      12.452  -9.723  -5.314 -0.18 +0.41    -0.481    11.873
ATOM     48  H   UNL d   1      12.553  -8.778  -5.070 -0.18 -0.58    +0.295    11.873
ATOM     49  C   UNL d   1      13.372  -0.234  -3.057 -0.29 -0.00    +0.048    11.873
ATOM     50  C   UNL d   1      14.630   0.616  -3.237 -0.19 -0.01    +0.125    11.873
ATOM     51  C   UNL d   1      15.708  -0.163  -3.935 -0.02 -0.02    +0.305    11.873
ATOM     52  O   UNL d   1      15.977  -0.159  -5.124 -0.02 +0.02    -0.251    11.873
ATOM     53  O   UNL d   1      16.404  -0.938  -3.080 +0.02 +0.01    -0.481    11.873
ATOM     54  H   UNL d   1      16.439  -1.811  -3.525 +0.04 -0.02    +0.295    11.873
TER
ENDMDL
MODEL       99
USER    Run = 99
USER    Cluster Rank = 6
USER    Number of conformations in this cluster = 1
USER  
USER    RMSD from reference structure       = 16.028 A
USER  
USER    Estimated Free Energy of Binding    =   -6.12 kcal/mol  [=(1)+(2)+(3)-(4)]
USER    Estimated Inhibition Constant, Ki   =   32.60 uM (micromolar)  [Temperature = 298.15 K]
USER    
USER    (1) Final Intermolecular Energy     =  -10.00 kcal/mol
USER        vdW + Hbond + desolv Energy     =   -9.42 kcal/mol
USER        Electrostatic Energy            =   -0.58 kcal/mol
USER    (2) Final Total Internal Energy     =   -2.16 kcal/mol
USER    (3) Torsional Free Energy           =   +3.88 kcal/mol
USER    (4) Unbound System's Energy  [=(2)] =   -2.16 kcal/mol
USER    
USER    
USER  
USER    DPF = D:/Protein_go_brrr/autodock/final/mut_N102T/heme/dock.dpf
USER    NEWDPF move	heme_opt.pdbqt
USER    NEWDPF about	0.153000 0.018000 -0.028000
USER    NEWDPF tran0	-8.121137 -12.253361 11.376437
USER    NEWDPF axisangle0	0.440054 0.183942 -0.878930 93.994147
USER    NEWDPF quaternion0	0.321820 0.134520 -0.642778 0.682036
USER    NEWDPF dihe0	-117.37 -98.46 -175.82 -69.27 63.13 37.77 142.94 81.03 29.47 -9.37 -39.39 -140.21 -175.56 
USER  
USER                              x       y       z    vdW   Elec        q     RMS 
ATOM      1  O   UNL d   1     -10.614 -17.543  12.125 -0.02 +0.10    -0.289    16.028
ATOM      2  O   UNL d   1      -3.714 -15.071  13.759 -0.11 +0.17    -0.289    16.028
ATOM      3  N   UNL d   1      -9.545 -14.352  11.369 -0.06 +0.12    -0.247    16.028
ATOM      4  N   UNL d   1      -6.864 -14.211  12.641 -0.14 +0.09    -0.247    16.028
ATOM      5  N   UNL d   1      -6.934 -11.362  12.257 -0.05 +0.08    -0.354    16.028
ATOM      6  N   UNL d   1      -9.724 -11.516  10.957 -0.06 +0.09    -0.354    16.028
ATOM      7  C   UNL d   1     -11.685 -15.539  11.225 -0.06 -0.02    +0.084    16.028
ATOM      8  C   UNL d   1      -5.661 -16.315  12.949 -0.14 -0.04    +0.084    16.028
ATOM      9  C   UNL d   1      -6.938 -15.581  12.530 -0.17 -0.02    +0.058    16.028
ATOM     10  C   UNL d   1     -10.881 -14.251  11.019 -0.12 -0.02    +0.058    16.028
ATOM     11  C   UNL d   1     -10.563 -16.390  11.738 -0.05 -0.07    +0.193    16.028
ATOM     12  C   UNL d   1      -9.314 -15.565  11.754 -0.10 -0.05    +0.109    16.028
ATOM     13  C   UNL d   1      -4.860 -15.110  13.354 -0.11 -0.09    +0.193    16.028
ATOM     14  C   UNL d   1     -12.737 -15.389  12.328 -0.01 -0.00    +0.026    16.028
ATOM     15  C   UNL d   1      -8.049 -16.224  12.138 -0.17 -0.03    +0.055    16.028
ATOM     16  C   UNL d   1      -4.973 -16.985  11.756 -0.26 -0.02    +0.026    16.028
ATOM     17  C   UNL d   1      -5.705 -13.899  13.126 -0.20 -0.04    +0.109    16.028
ATOM     18  C   UNL d   1     -11.434 -13.160  10.456 -0.13 -0.01    +0.050    16.028
ATOM     19  C   UNL d   1     -10.749 -11.957  10.150 -0.14 -0.01    +0.045    16.028
ATOM     20  C   UNL d   1      -5.826 -11.465  13.058 -0.22 -0.01    +0.045    16.028
ATOM     21  C   UNL d   1      -5.194 -12.566  13.477 -0.31 -0.02    +0.057    16.028
ATOM     22  C   UNL d   1      -6.328  -9.255  12.772 -0.34 +0.00    -0.019    16.028
ATOM     23  C   UNL d   1      -7.312 -10.066  12.028 -0.20 -0.01    +0.045    16.028
ATOM     24  C   UNL d   1      -5.450 -10.088  13.379 -0.31 +0.00    -0.022    16.028
ATOM     25  C   UNL d   1      -9.265 -10.291  10.529 -0.21 -0.01    +0.049    16.028
ATOM     26  C   UNL d   1     -10.935 -11.013   9.151 -0.15 +0.00    -0.018    16.028
ATOM     27  C   UNL d   1      -9.983  -9.974   9.384 -0.23 -0.00    +0.003    16.028
ATOM     28  C   UNL d   1      -8.316  -9.561  11.294 -0.25 -0.01    +0.052    16.028
ATOM     29  C   UNL d   1      -4.275  -9.746  14.230 -0.38 -0.01    +0.046    16.028
ATOM     30  C   UNL d   1     -11.935 -11.072   8.046 -0.11 -0.01    +0.046    16.028
ATOM     31  H   UNL d   1      -7.352 -12.182  11.830 +0.06 -0.05    +0.166    16.028
ATOM     32  H   UNL d   1      -9.397 -12.019  11.773 +0.05 -0.04    +0.166    16.028
ATOM     33  C   UNL d   1     -12.286 -16.149   9.954 -0.09 -0.04    +0.141    16.028
ATOM     34  C   UNL d   1     -11.267 -16.882   9.126 -0.16 -0.16    +0.306    16.028
ATOM     35  O   UNL d   1     -11.273 -18.073   8.863 -0.15 +0.19    -0.251    16.028
ATOM     36  O   UNL d   1     -10.293 -16.075   8.668 -0.47 +0.23    -0.481    16.028
ATOM     37  H   UNL d   1      -9.876 -15.708   9.477 -0.46 -0.22    +0.295    16.028
ATOM     38  C   UNL d   1      -9.842  -8.790   8.590 -0.26 -0.01    +0.017    16.028
ATOM     39  C   UNL d   1     -10.659  -7.727   8.634 -0.24 -0.05    +0.092    16.028
ATOM     40  C   UNL d   1     -10.394  -6.567   7.779 -0.21 -0.26    +0.330    16.028
ATOM     41  O   UNL d   1      -9.946  -6.564   6.648 -0.34 +0.16    -0.246    16.028
ATOM     42  O   UNL d   1     -10.729  -5.436   8.418 -0.14 +0.57    -0.477    16.028
ATOM     43  H   UNL d   1      -9.957  -5.253   8.993 -0.42 -0.80    +0.295    16.028
ATOM     44  C   UNL d   1      -5.814 -17.291  14.121 -0.03 -0.05    +0.141    16.028
ATOM     45  C   UNL d   1      -6.313 -16.635  15.380 -0.00 -0.08    +0.306    16.028
ATOM     46  O   UNL d   1      -7.461 -16.629  15.790 -0.00 +0.05    -0.251    16.028
ATOM     47  O   UNL d   1      -5.338 -15.992  16.047 +0.01 +0.12    -0.481    16.028
ATOM     48  H   UNL d   1      -4.544 -16.087  15.478 +0.05 -0.10    +0.295    16.028
ATOM     49  C   UNL d   1      -6.346  -7.756  12.832 -0.45 -0.02    +0.048    16.028
ATOM     50  C   UNL d   1      -6.944  -7.246  14.143 -0.25 -0.03    +0.125    16.028
ATOM     51  C   UNL d   1      -6.200  -6.038  14.638 -0.23 -0.04    +0.305    16.028
ATOM     52  O   UNL d   1      -6.258  -4.901  14.204 -0.38 -0.03    -0.251    16.028
ATOM     53  O   UNL d   1      -5.391  -6.333  15.675 -0.08 +0.10    -0.481    16.028
ATOM     54  H   UNL d   1      -4.488  -6.246  15.305 -0.41 -0.19    +0.295    16.028
TER
ENDMDL
MODEL       31
USER    Run = 31
USER    Cluster Rank = 7
USER    Number of conformations in this cluster = 4
USER  
USER    RMSD from reference structure       = 16.609 A
USER  
USER    Estimated Free Energy of Binding    =   -5.89 kcal/mol  [=(1)+(2)+(3)-(4)]
USER    Estimated Inhibition Constant, Ki   =   48.53 uM (micromolar)  [Temperature = 298.15 K]
USER    
USER    (1) Final Intermolecular Energy     =   -9.76 kcal/mol
USER        vdW + Hbond + desolv Energy     =   -9.27 kcal/mol
USER        Electrostatic Energy            =   -0.50 kcal/mol
USER    (2) Final Total Internal Energy     =   -2.44 kcal/mol
USER    (3) Torsional Free Energy           =   +3.88 kcal/mol
USER    (4) Unbound System's Energy  [=(2)] =   -2.44 kcal/mol
USER    
USER    
USER  
USER    DPF = D:/Protein_go_brrr/autodock/final/mut_N102T/heme/dock.dpf
USER    NEWDPF move	heme_opt.pdbqt
USER    NEWDPF about	0.153000 0.018000 -0.028000
USER    NEWDPF tran0	-8.626979 -13.936489 10.833942
USER    NEWDPF axisangle0	-0.292422 -0.317098 0.902185 -88.937712
USER    NEWDPF quaternion0	-0.204848 -0.222134 0.632000 -0.713631
USER    NEWDPF dihe0	83.11 -25.90 -163.47 -10.79 -151.08 -139.55 134.36 -118.39 28.34 -16.57 25.77 56.66 -9.24 
USER  
USER                              x       y       z    vdW   Elec        q     RMS 
ATOM      1  O   UNL d   1     -10.945 -19.303  10.069 -0.07 +0.21    -0.289    16.609
ATOM      2  O   UNL d   1      -4.060 -17.161  12.166 -0.14 +0.20    -0.289    16.609
ATOM      3  N   UNL d   1      -9.993 -15.993  10.252 -0.11 +0.16    -0.247    16.609
ATOM      4  N   UNL d   1      -7.271 -16.130  11.435 -0.06 +0.16    -0.247    16.609
ATOM      5  N   UNL d   1      -7.433 -13.298  11.904 -0.13 +0.13    -0.354    16.609
ATOM      6  N   UNL d   1     -10.264 -13.168  10.692 -0.08 +0.12    -0.354    16.609
ATOM      7  C   UNL d   1     -12.103 -17.164   9.825 -0.08 -0.03    +0.084    16.609
ATOM      8  C   UNL d   1      -6.000 -18.187  11.082 -0.23 -0.06    +0.084    16.609
ATOM      9  C   UNL d   1      -7.312 -17.410  10.930 -0.23 -0.05    +0.058    16.609
ATOM     10  C   UNL d   1     -11.343 -15.844   9.982 -0.17 -0.02    +0.058    16.609
ATOM     11  C   UNL d   1     -10.940 -18.086  10.035 -0.10 -0.13    +0.193    16.609
ATOM     12  C   UNL d   1      -9.714 -17.256  10.258 -0.15 -0.09    +0.109    16.609
ATOM     13  C   UNL d   1      -5.218 -17.123  11.800 -0.17 -0.12    +0.193    16.609
ATOM     14  C   UNL d   1     -13.117 -17.381  10.951 -0.02 -0.01    +0.026    16.609
ATOM     15  C   UNL d   1      -8.418 -17.951  10.398 -0.08 -0.06    +0.055    16.609
ATOM     16  C   UNL d   1      -5.338 -18.454   9.726 -0.20 -0.03    +0.026    16.609
ATOM     17  C   UNL d   1      -6.104 -15.930  11.959 -0.23 -0.06    +0.109    16.609
ATOM     18  C   UNL d   1     -11.945 -14.657   9.780 -0.15 -0.01    +0.050    16.609
ATOM     19  C   UNL d   1     -11.305 -13.392   9.820 -0.16 -0.01    +0.045    16.609
ATOM     20  C   UNL d   1      -6.294 -13.588  12.610 -0.27 -0.01    +0.045    16.609
ATOM     21  C   UNL d   1      -5.617 -14.739  12.670 -0.29 -0.02    +0.057    16.609
ATOM     22  C   UNL d   1      -6.867 -11.411  12.996 -0.20 +0.00    -0.019    16.609
ATOM     23  C   UNL d   1      -7.855 -12.006  12.075 -0.23 -0.01    +0.045    16.609
ATOM     24  C   UNL d   1      -5.945 -12.352  13.308 -0.23 +0.01    -0.022    16.609
ATOM     25  C   UNL d   1      -9.855 -11.856  10.629 -0.19 -0.01    +0.049    16.609
ATOM     26  C   UNL d   1     -11.554 -12.206   9.147 -0.13 +0.00    -0.018    16.609
ATOM     27  C   UNL d   1     -10.623 -11.245   9.648 -0.17 -0.00    +0.003    16.609
ATOM     28  C   UNL d   1      -8.898 -11.346  11.548 -0.22 -0.01    +0.052    16.609
ATOM     29  C   UNL d   1      -4.748 -12.230  14.190 -0.32 -0.01    +0.046    16.609
ATOM     30  C   UNL d   1     -12.592 -11.978   8.100 -0.10 -0.01    +0.046    16.609
ATOM     31  H   UNL d   1      -7.844 -13.972  11.268 -0.43 -0.10    +0.166    16.609
ATOM     32  H   UNL d   1      -9.893 -13.875  11.316 -0.00 -0.07    +0.166    16.609
ATOM     33  C   UNL d   1     -12.734 -17.399   8.448 -0.09 -0.05    +0.141    16.609
ATOM     34  C   UNL d   1     -11.721 -17.794   7.407 -0.13 -0.18    +0.306    16.609
ATOM     35  O   UNL d   1     -11.185 -17.049   6.605 -0.13 +0.13    -0.251    16.609
ATOM     36  O   UNL d   1     -11.436 -19.108   7.434 -0.06 +0.43    -0.481    16.609
ATOM     37  H   UNL d   1     -10.593 -19.167   7.932 -0.51 -0.56    +0.295    16.609
ATOM     38  C   UNL d   1     -10.544  -9.878   9.231 -0.20 -0.00    +0.017    16.609
ATOM     39  C   UNL d   1      -9.839  -9.427   8.182 -0.23 -0.02    +0.092    16.609
ATOM     40  C   UNL d   1      -9.856  -8.000   7.850 -0.15 -0.15    +0.330    16.609
ATOM     41  O   UNL d   1      -9.876  -7.494   6.744 -0.29 +0.11    -0.246    16.609
ATOM     42  O   UNL d   1      -9.856  -7.265   8.973 -0.19 +0.43    -0.477    16.609
ATOM     43  H   UNL d   1      -9.449  -6.417   8.698 -0.36 -0.52    +0.295    16.609
ATOM     44  C   UNL d   1      -6.083 -19.467  11.920 -0.07 -0.07    +0.141    16.609
ATOM     45  C   UNL d   1      -6.386 -19.208  13.371 +0.00 -0.10    +0.306    16.609
ATOM     46  O   UNL d   1      -7.490 -19.148  13.884 -0.00 +0.07    -0.251    16.609
ATOM     47  O   UNL d   1      -5.274 -19.009  14.102 +0.01 +0.15    -0.481    16.609
ATOM     48  H   UNL d   1      -4.571 -18.835  13.440 +0.05 -0.11    +0.295    16.609
ATOM     49  C   UNL d   1      -6.923  -9.996  13.493 -0.22 -0.01    +0.048    16.609
ATOM     50  C   UNL d   1      -6.109  -9.051  12.611 -0.35 -0.03    +0.125    16.609
ATOM     51  C   UNL d   1      -5.635  -7.860  13.395 -0.28 -0.10    +0.305    16.609
ATOM     52  O   UNL d   1      -5.817  -6.682  13.141 -0.35 +0.08    -0.251    16.609
ATOM     53  O   UNL d   1      -4.925  -8.222  14.482 -0.11 +0.13    -0.481    16.609
ATOM     54  H   UNL d   1      -4.525  -7.384  14.795 -0.24 -0.15    +0.295    16.609
TER
ENDMDL
MODEL       98
USER    Run = 98
USER    Cluster Rank = 8
USER    Number of conformations in this cluster = 1
USER  
USER    RMSD from reference structure       = 12.157 A
USER  
USER    Estimated Free Energy of Binding    =   -5.86 kcal/mol  [=(1)+(2)+(3)-(4)]
USER    Estimated Inhibition Constant, Ki   =   50.94 uM (micromolar)  [Temperature = 298.15 K]
USER    
USER    (1) Final Intermolecular Energy     =   -9.73 kcal/mol
USER        vdW + Hbond + desolv Energy     =   -9.35 kcal/mol
USER        Electrostatic Energy            =   -0.38 kcal/mol
USER    (2) Final Total Internal Energy     =   -1.58 kcal/mol
USER    (3) Torsional Free Energy           =   +3.88 kcal/mol
USER    (4) Unbound System's Energy  [=(2)] =   -1.58 kcal/mol
USER    
USER    
USER  
USER    DPF = D:/Protein_go_brrr/autodock/final/mut_N102T/heme/dock.dpf
USER    NEWDPF move	heme_opt.pdbqt
USER    NEWDPF about	0.153000 0.018000 -0.028000
USER    NEWDPF tran0	12.961024 -2.251677 -8.177346
USER    NEWDPF axisangle0	-0.471556 0.307514 0.826481 132.715101
USER    NEWDPF quaternion0	-0.431976 0.281703 0.757111 0.401028
USER    NEWDPF dihe0	126.97 179.99 164.48 29.91 -136.71 -2.67 104.88 164.70 17.50 103.43 -31.56 -179.79 -157.11 
USER  
USER                              x       y       z    vdW   Elec        q     RMS 
ATOM      1  O   UNL d   1      14.718   1.695  -4.166 -0.14 +0.04    -0.289    12.157
ATOM      2  O   UNL d   1      13.398   2.400 -11.525 -0.04 +0.10    -0.289    12.157
ATOM      3  N   UNL d   1      13.821  -0.967  -6.167 -0.08 +0.02    -0.247    12.157
ATOM      4  N   UNL d   1      13.230   0.312  -8.782 -0.07 +0.04    -0.247    12.157
ATOM      5  N   UNL d   1      11.992  -2.150  -9.602 -0.07 +0.04    -0.354    12.157
ATOM      6  N   UNL d   1      12.592  -3.463  -6.879 +0.09 +0.06    -0.354    12.157
ATOM      7  C   UNL d   1      14.161  -0.650  -3.760 -0.15 -0.01    +0.084    12.157
ATOM      8  C   UNL d   1      14.351   2.428  -9.270 -0.11 -0.02    +0.084    12.157
ATOM      9  C   UNL d   1      14.047   1.300  -8.279 -0.11 -0.01    +0.058    12.157
ATOM     10  C   UNL d   1      13.792  -1.576  -4.923 -0.16 -0.01    +0.058    12.157
ATOM     11  C   UNL d   1      14.422   0.585  -4.569 -0.09 -0.02    +0.193    12.157
ATOM     12  C   UNL d   1      14.207   0.258  -6.014 -0.10 -0.01    +0.109    12.157
ATOM     13  C   UNL d   1      13.525   1.917 -10.417 -0.15 -0.05    +0.193    12.157
ATOM     14  C   UNL d   1      12.972  -0.392  -2.831 -0.25 -0.00    +0.026    12.157
ATOM     15  C   UNL d   1      14.497   1.304  -7.015 -0.12 -0.01    +0.055    12.157
ATOM     16  C   UNL d   1      15.824   2.435  -9.689 -0.04 -0.00    +0.026    12.157
ATOM     17  C   UNL d   1      12.892   0.632  -9.990 -0.19 -0.02    +0.109    12.157
ATOM     18  C   UNL d   1      13.554  -2.887  -4.730 -0.23 -0.01    +0.050    12.157
ATOM     19  C   UNL d   1      13.289  -3.834  -5.751 -0.17 -0.02    +0.045    12.157
ATOM     20  C   UNL d   1      11.609  -1.337 -10.637 -0.25 -0.01    +0.045    12.157
ATOM     21  C   UNL d   1      11.985  -0.082 -10.901 -0.31 -0.01    +0.057    12.157
ATOM     22  C   UNL d   1      10.551  -3.351 -10.849 -0.26 +0.00    -0.019    12.157
ATOM     23  C   UNL d   1      11.405  -3.386  -9.645 -0.24 -0.01    +0.045    12.157
ATOM     24  C   UNL d   1      10.677  -2.135 -11.433 -0.25 +0.00    -0.022    12.157
ATOM     25  C   UNL d   1      12.370  -4.552  -7.690 -0.19 -0.01    +0.049    12.157
ATOM     26  C   UNL d   1      13.560  -5.190  -5.850 -0.18 +0.01    -0.018    12.157
ATOM     27  C   UNL d   1      12.994  -5.634  -7.085 -0.24 -0.00    +0.003    12.157
ATOM     28  C   UNL d   1      11.536  -4.449  -8.836 -0.29 -0.01    +0.052    12.157
ATOM     29  C   UNL d   1      10.026  -1.625 -12.673 -0.44 -0.00    +0.046    12.157
ATOM     30  C   UNL d   1      14.300  -6.024  -4.860 +0.09 -0.05    +0.046    12.157
ATOM     31  H   UNL d   1      12.702  -1.858  -8.939 +0.06 -0.02    +0.166    12.157
ATOM     32  H   UNL d   1      12.260  -2.521  -7.048 +0.08 -0.00    +0.166    12.157
ATOM     33  C   UNL d   1      15.413  -1.051  -2.972 -0.06 -0.01    +0.141    12.157
ATOM     34  C   UNL d   1      16.667  -0.973  -3.799 +0.00 -0.01    +0.306    12.157
ATOM     35  O   UNL d   1      17.075  -1.824  -4.571 -0.00 +0.02    -0.251    12.157
ATOM     36  O   UNL d   1      17.341   0.176  -3.611 +0.01 -0.00    -0.481    12.157
ATOM     37  H   UNL d   1      16.688   0.880  -3.808 +0.05 -0.00    +0.295    12.157
ATOM     38  C   UNL d   1      13.032  -6.979  -7.574 -0.25 -0.01    +0.017    12.157
ATOM     39  C   UNL d   1      12.926  -8.081  -6.817 -0.24 -0.07    +0.092    12.157
ATOM     40  C   UNL d   1      12.963  -9.405  -7.444 -0.15 -0.12    +0.330    12.157
ATOM     41  O   UNL d   1      13.005  -9.663  -8.632 -0.14 +0.05    -0.246    12.157
ATOM     42  O   UNL d   1      12.953 -10.362  -6.504 -0.46 +0.14    -0.477    12.157
ATOM     43  H   UNL d   1      12.926  -9.864  -5.662 +0.09 -0.19    +0.295    12.157
ATOM     44  C   UNL d   1      13.890   3.825  -8.842 -0.20 -0.04    +0.141    12.157
ATOM     45  C   UNL d   1      14.398   4.229  -7.484 -0.15 -0.06    +0.306    12.157
ATOM     46  O   UNL d   1      15.564   4.344  -7.149 -0.06 +0.04    -0.251    12.157
ATOM     47  O   UNL d   1      13.402   4.441  -6.604 -0.78 +0.02    -0.481    12.157
ATOM     48  H   UNL d   1      12.598   4.533  -7.158 -0.43 -0.09    +0.295    12.157
ATOM     49  C   UNL d   1       9.688  -4.491 -11.303 -0.38 -0.00    +0.048    12.157
ATOM     50  C   UNL d   1       8.209  -4.105 -11.342 -0.39 -0.01    +0.125    12.157
ATOM     51  C   UNL d   1       7.484  -4.864 -12.417 -0.34 -0.03    +0.305    12.157
ATOM     52  O   UNL d   1       6.288  -5.082 -12.495 -0.48 +0.03    -0.251    12.157
ATOM     53  O   UNL d   1       8.327  -5.334 -13.358 -0.08 +0.06    -0.481    12.157
ATOM     54  H   UNL d   1       7.785  -5.356 -14.174 -0.34 -0.11    +0.295    12.157
TER
ENDMDL
MODEL       85
USER    Run = 85
USER    Cluster Rank = 9
USER    Number of conformations in this cluster = 3
USER  
USER    RMSD from reference structure       = 16.428 A
USER  
USER    Estimated Free Energy of Binding    =   -5.85 kcal/mol  [=(1)+(2)+(3)-(4)]
USER    Estimated Inhibition Constant, Ki   =   51.86 uM (micromolar)  [Temperature = 298.15 K]
USER    
USER    (1) Final Intermolecular Energy     =   -9.72 kcal/mol
USER        vdW + Hbond + desolv Energy     =   -9.11 kcal/mol
USER        Electrostatic Energy            =   -0.61 kcal/mol
USER    (2) Final Total Internal Energy     =   -2.94 kcal/mol
USER    (3) Torsional Free Energy           =   +3.88 kcal/mol
USER    (4) Unbound System's Energy  [=(2)] =   -2.94 kcal/mol
USER    
USER    
USER  
USER    DPF = D:/Protein_go_brrr/autodock/final/mut_N102T/heme/dock.dpf
USER    NEWDPF move	heme_opt.pdbqt
USER    NEWDPF about	0.153000 0.018000 -0.028000
USER    NEWDPF tran0	10.850814 10.377074 -13.278234
USER    NEWDPF axisangle0	0.900336 0.001332 -0.435194 -94.916029
USER    NEWDPF quaternion0	0.663351 0.000982 -0.320643 -0.676130
USER    NEWDPF dihe0	110.42 176.46 -83.36 -80.64 11.81 28.73 124.70 -59.32 -18.64 -33.64 68.91 -85.49 141.94 
USER  
USER                              x       y       z    vdW   Elec        q     RMS 
ATOM      1  O   UNL d   1       6.853  12.076  -9.292 -0.51 +0.07    -0.289    16.428
ATOM      2  O   UNL d   1       7.302  13.358 -16.678 -0.06 +0.15    -0.289    16.428
ATOM      3  N   UNL d   1       9.491  10.975 -11.223 -0.12 +0.07    -0.247    16.428
ATOM      4  N   UNL d   1       8.652  11.672 -13.987 -0.08 +0.06    -0.247    16.428
ATOM      5  N   UNL d   1      10.764   9.978 -14.955 -0.08 +0.01    -0.354    16.428
ATOM      6  N   UNL d   1      11.614   9.244 -12.085 -0.02 +0.11    -0.354    16.428
ATOM      7  C   UNL d   1       8.805  10.660  -8.891 -0.37 -0.03    +0.084    16.428
ATOM      8  C   UNL d   1       7.095  13.537 -14.245 -0.10 -0.03    +0.084    16.428
ATOM      9  C   UNL d   1       7.862  12.584 -13.323 -0.14 -0.02    +0.058    16.428
ATOM     10  C   UNL d   1       9.800  10.367 -10.017 -0.29 -0.02    +0.058    16.428
ATOM     11  C   UNL d   1       7.888  11.556  -9.668 -0.23 -0.06    +0.193    16.428
ATOM     12  C   UNL d   1       8.425  11.689 -11.059 -0.19 -0.03    +0.109    16.428
ATOM     13  C   UNL d   1       7.567  12.973 -15.556 -0.06 -0.09    +0.193    16.428
ATOM     14  C   UNL d   1       8.032   9.409  -8.467 -0.67 -0.01    +0.026    16.428
ATOM     15  C   UNL d   1       7.733  12.605 -11.987 -0.21 -0.02    +0.055    16.428
ATOM     16  C   UNL d   1       7.599  14.978 -14.119 -0.04 -0.01    +0.026    16.428
ATOM     17  C   UNL d   1       8.499  11.844 -15.260 -0.12 -0.04    +0.109    16.428
ATOM     18  C   UNL d   1      10.918   9.650  -9.798 -0.20 -0.02    +0.050    16.428
ATOM     19  C   UNL d   1      11.935   9.400 -10.755 -0.14 -0.01    +0.045    16.428
ATOM     20  C   UNL d   1      10.102  10.225 -16.130 -0.16 +0.00    +0.045    16.428
ATOM     21  C   UNL d   1       9.090  11.067 -16.361 -0.19 -0.01    +0.057    16.428
ATOM     22  C   UNL d   1      11.723   8.661 -16.510 -0.14 -0.00    -0.019    16.428
ATOM     23  C   UNL d   1      11.759   9.047 -15.086 -0.17 +0.00    +0.045    16.428
ATOM     24  C   UNL d   1      10.741   9.363 -17.124 -0.14 -0.01    -0.022    16.428
ATOM     25  C   UNL d   1      12.733   8.921 -12.817 -0.17 -0.01    +0.049    16.428
ATOM     26  C   UNL d   1      13.302   9.209 -10.625 -0.16 +0.00    -0.018    16.428
ATOM     27  C   UNL d   1      13.804   8.927 -11.933 -0.11 -0.00    +0.003    16.428
ATOM     28  C   UNL d   1      12.628   8.558 -14.187 -0.20 -0.00    +0.052    16.428
ATOM     29  C   UNL d   1      10.326   9.331 -18.555 -0.11 +0.02    +0.046    16.428
ATOM     30  C   UNL d   1      14.096   9.286  -9.366 -0.16 -0.01    +0.046    16.428
ATOM     31  H   UNL d   1      10.561  10.510 -14.116 +0.04 -0.02    +0.166    16.428
ATOM     32  H   UNL d   1      10.671   9.321 -12.446 -0.25 -0.06    +0.166    16.428
ATOM     33  C   UNL d   1       9.382  11.401  -7.680 -0.14 -0.14    +0.141    16.428
ATOM     34  C   UNL d   1      10.539  12.292  -8.044 -0.06 -0.29    +0.306    16.428
ATOM     35  O   UNL d   1      10.488  13.288  -8.746 -0.07 +0.16    -0.251    16.428
ATOM     36  O   UNL d   1      11.700  11.883  -7.502 -0.56 +0.40    -0.481    16.428
ATOM     37  H   UNL d   1      11.613  12.091  -6.548 -0.48 -0.57    +0.295    16.428
ATOM     38  C   UNL d   1      15.173   8.650 -12.250 -0.05 -0.00    +0.017    16.428
ATOM     39  C   UNL d   1      15.602   7.620 -12.995 -0.04 -0.01    +0.092    16.428
ATOM     40  C   UNL d   1      17.034   7.458 -13.260 -0.00 -0.03    +0.330    16.428
ATOM     41  O   UNL d   1      17.965   7.841 -12.578 -0.00 +0.02    -0.246    16.428
ATOM     42  O   UNL d   1      17.218   6.789 -14.409 +0.00 +0.03    -0.477    16.428
ATOM     43  H   UNL d   1      16.310   6.558 -14.694 +0.02 -0.02    +0.295    16.428
ATOM     44  C   UNL d   1       5.568  13.473 -14.138 -0.23 -0.07    +0.141    16.428
ATOM     45  C   UNL d   1       4.961  12.367 -14.960 -0.19 -0.25    +0.306    16.428
ATOM     46  O   UNL d   1       4.891  11.189 -14.655 -0.36 +0.21    -0.251    16.428
ATOM     47  O   UNL d   1       4.494  12.802 -16.144 -0.03 +0.47    -0.481    16.428
ATOM     48  H   UNL d   1       5.221  12.624 -16.778 -0.45 -0.50    +0.295    16.428
ATOM     49  C   UNL d   1      12.633   7.641 -17.131 -0.13 +0.01    +0.048    16.428
ATOM     50  C   UNL d   1      12.505   6.278 -16.452 -0.18 +0.01    +0.125    16.428
ATOM     51  C   UNL d   1      13.745   5.950 -15.669 -0.11 -0.02    +0.305    16.428
ATOM     52  O   UNL d   1      14.866   5.751 -16.102 -0.04 +0.02    -0.251    16.428
ATOM     53  O   UNL d   1      13.500   5.876 -14.346 -0.10 +0.11    -0.481    16.428
ATOM     54  H   UNL d   1      13.411   4.915 -14.173 -0.38 -0.16    +0.295    16.428
TER
ENDMDL
MODEL        3
USER    Run = 3
USER    Cluster Rank = 10
USER    Number of conformations in this cluster = 1
USER  
USER    RMSD from reference structure       = 10.035 A
USER  
USER    Estimated Free Energy of Binding    =   -5.76 kcal/mol  [=(1)+(2)+(3)-(4)]
USER    Estimated Inhibition Constant, Ki   =   60.28 uM (micromolar)  [Temperature = 298.15 K]
USER    
USER    (1) Final Intermolecular Energy     =   -9.63 kcal/mol
USER        vdW + Hbond + desolv Energy     =   -8.85 kcal/mol
USER        Electrostatic Energy            =   -0.78 kcal/mol
USER    (2) Final Total Internal Energy     =   -1.71 kcal/mol
USER    (3) Torsional Free Energy           =   +3.88 kcal/mol
USER    (4) Unbound System's Energy  [=(2)] =   -1.71 kcal/mol
USER    
USER    
USER  
USER    DPF = D:/Protein_go_brrr/autodock/final/mut_N102T/heme/dock.dpf
USER    NEWDPF move	heme_opt.pdbqt
USER    NEWDPF about	0.153000 0.018000 -0.028000
USER    NEWDPF tran0	-9.361263 -9.497183 -0.719374
USER    NEWDPF axisangle0	0.425536 0.644841 -0.634901 103.039078
USER    NEWDPF quaternion0	0.333119 0.504794 -0.497014 0.622248
USER    NEWDPF dihe0	137.38 6.35 130.89 135.15 -134.07 -18.65 155.54 -76.43 25.37 165.73 -83.58 95.29 178.25 
USER  
USER                              x       y       z    vdW   Elec        q     RMS 
ATOM      1  O   UNL d   1     -10.439 -14.432  -3.760 +0.00 -0.07    -0.289    10.035
ATOM      2  O   UNL d   1      -6.469 -13.273   2.508 -0.39 +0.02    -0.289    10.035
ATOM      3  N   UNL d   1      -9.967 -11.297  -2.400 -0.03 -0.02    -0.247    10.035
ATOM      4  N   UNL d   1      -8.571 -11.867   0.160 -0.09 +0.01    -0.247    10.035
ATOM      5  N   UNL d   1      -9.125  -9.160   0.957 +0.08 +0.10    -0.354    10.035
ATOM      6  N   UNL d   1     -10.588  -8.584  -1.694 -0.06 +0.01    -0.354    10.035
ATOM      7  C   UNL d   1     -11.294 -12.196  -4.255 -0.02 +0.01    +0.084    10.035
ATOM      8  C   UNL d   1      -7.260 -13.925   0.285 -0.25 +0.02    +0.084    10.035
ATOM      9  C   UNL d   1      -8.228 -13.028  -0.494 -0.17 +0.01    +0.058    10.035
ATOM     10  C   UNL d   1     -10.861 -10.992  -3.413 -0.07 +0.01    +0.058    10.035
ATOM     11  C   UNL d   1     -10.472 -13.233  -3.551 -0.02 +0.04    +0.193    10.035
ATOM     12  C   UNL d   1      -9.693 -12.560  -2.463 -0.08 +0.02    +0.109    10.035
ATOM     13  C   UNL d   1      -7.147 -13.075   1.519 -0.30 +0.01    +0.193    10.035
ATOM     14  C   UNL d   1     -12.776 -12.526  -4.066 -0.00 +0.00    +0.026    10.035
ATOM     15  C   UNL d   1      -8.735 -13.373  -1.688 -0.14 +0.01    +0.055    10.035
ATOM     16  C   UNL d   1      -5.887 -13.999  -0.389 -0.31 +0.01    +0.026    10.035
ATOM     17  C   UNL d   1      -7.995 -11.861   1.319 -0.28 -0.00    +0.109    10.035
ATOM     18  C   UNL d   1     -11.262  -9.743  -3.714 -0.08 +0.01    +0.050    10.035
ATOM     19  C   UNL d   1     -10.848  -8.562  -3.046 -0.10 +0.00    +0.045    10.035
ATOM     20  C   UNL d   1      -8.662  -9.665   2.144 -0.25 -0.01    +0.045    10.035
ATOM     21  C   UNL d   1      -8.115 -10.860   2.390 -0.36 -0.00    +0.057    10.035
ATOM     22  C   UNL d   1      -9.454  -7.552   2.499 -0.22 +0.00    -0.019    10.035
ATOM     23  C   UNL d   1      -9.623  -7.890   1.072 -0.17 -0.01    +0.045    10.035
ATOM     24  C   UNL d   1      -8.883  -8.606   3.128 -0.26 +0.00    -0.022    10.035
ATOM     25  C   UNL d   1     -10.292  -7.320  -1.239 -0.14 -0.00    +0.049    10.035
ATOM     26  C   UNL d   1     -10.680  -7.259  -3.487 -0.11 -0.00    -0.018    10.035
ATOM     27  C   UNL d   1     -10.310  -6.482  -2.345 -0.16 +0.00    +0.003    10.035
ATOM     28  C   UNL d   1     -10.142  -7.063   0.151 -0.19 -0.00    +0.052    10.035
ATOM     29  C   UNL d   1      -8.503  -8.742   4.564 -0.12 -0.01    +0.046    10.035
ATOM     30  C   UNL d   1     -10.850  -6.762  -4.883 -0.08 +0.01    +0.046    10.035
ATOM     31  H   UNL d   1      -9.018  -9.674   0.089 -0.40 -0.09    +0.166    10.035
ATOM     32  H   UNL d   1     -10.653  -9.419  -1.124 -0.01 -0.01    +0.166    10.035
ATOM     33  C   UNL d   1     -10.918 -12.128  -5.739 -0.01 +0.02    +0.141    10.035
ATOM     34  C   UNL d   1      -9.447 -12.343  -5.975 -0.02 +0.09    +0.306    10.035
ATOM     35  O   UNL d   1      -8.566 -11.511  -5.835 -0.09 -0.09    -0.251    10.035
ATOM     36  O   UNL d   1      -9.163 -13.596  -6.371 +0.02 -0.19    -0.481    10.035
ATOM     37  H   UNL d   1      -9.685 -14.169  -5.770 +0.03 +0.10    +0.295    10.035
ATOM     38  C   UNL d   1     -10.055  -5.074  -2.353 -0.18 +0.00    +0.017    10.035
ATOM     39  C   UNL d   1      -9.270  -4.434  -3.233 -0.22 +0.02    +0.092    10.035
ATOM     40  C   UNL d   1      -9.104  -2.981  -3.142 -0.19 +0.11    +0.330    10.035
ATOM     41  O   UNL d   1      -9.836  -2.182  -2.589 -0.88 -0.16    -0.246    10.035
ATOM     42  O   UNL d   1      -7.979  -2.604  -3.769 -0.40 -0.11    -0.477    10.035
ATOM     43  H   UNL d   1      -7.906  -1.649  -3.566 -0.06 +0.02    +0.295    10.035
ATOM     44  C   UNL d   1      -7.785 -15.323   0.628 -0.17 +0.04    +0.141    10.035
ATOM     45  C   UNL d   1      -7.005 -16.429  -0.031 -0.10 +0.27    +0.306    10.035
ATOM     46  O   UNL d   1      -6.282 -17.239   0.524 -0.18 -0.27    -0.251    10.035
ATOM     47  O   UNL d   1      -7.156 -16.440  -1.367 -0.55 -0.66    -0.481    10.035
ATOM     48  H   UNL d   1      -8.126 -16.402  -1.508 +0.06 +0.22    +0.295    10.035
ATOM     49  C   UNL d   1      -9.875  -6.249   3.113 -0.34 -0.03    +0.048    10.035
ATOM     50  C   UNL d   1     -11.270  -6.335   3.730 -0.16 -0.08    +0.125    10.035
ATOM     51  C   UNL d   1     -11.188  -6.586   5.209 -0.14 -0.19    +0.305    10.035
ATOM     52  O   UNL d   1     -11.036  -7.654   5.775 -0.11 +0.09    -0.251    10.035
ATOM     53  O   UNL d   1     -11.317  -5.448   5.921 -0.09 +0.44    -0.481    10.035
ATOM     54  H   UNL d   1     -10.736  -4.810   5.457 -0.28 -0.53    +0.295    10.035
TER
ENDMDL
MODEL       48
USER    Run = 48
USER    Cluster Rank = 11
USER    Number of conformations in this cluster = 1
USER  
USER    RMSD from reference structure       = 16.700 A
USER  
USER    Estimated Free Energy of Binding    =   -5.75 kcal/mol  [=(1)+(2)+(3)-(4)]
USER    Estimated Inhibition Constant, Ki   =   60.60 uM (micromolar)  [Temperature = 298.15 K]
USER    
USER    (1) Final Intermolecular Energy     =   -9.63 kcal/mol
USER        vdW + Hbond + desolv Energy     =   -8.69 kcal/mol
USER        Electrostatic Energy            =   -0.94 kcal/mol
USER    (2) Final Total Internal Energy     =   -3.96 kcal/mol
USER    (3) Torsional Free Energy           =   +3.88 kcal/mol
USER    (4) Unbound System's Energy  [=(2)] =   -3.96 kcal/mol
USER    
USER    
USER  
USER    DPF = D:/Protein_go_brrr/autodock/final/mut_N102T/heme/dock.dpf
USER    NEWDPF move	heme_opt.pdbqt
USER    NEWDPF about	0.153000 0.018000 -0.028000
USER    NEWDPF tran0	5.985340 14.499603 -11.848551
USER    NEWDPF axisangle0	-0.270160 -0.684287 0.677322 -148.301230
USER    NEWDPF quaternion0	-0.259889 -0.658272 0.651572 -0.273110
USER    NEWDPF dihe0	152.06 172.93 174.50 49.27 -137.90 -76.75 146.88 44.48 150.70 -10.41 -88.09 17.91 -1.83 
USER  
USER                              x       y       z    vdW   Elec        q     RMS 
ATOM      1  O   UNL d   1       9.526  10.146 -13.656 -0.20 +0.05    -0.289    16.700
ATOM      2  O   UNL d   1       9.056  13.699  -7.056 -0.10 +0.49    -0.289    16.700
ATOM      3  N   UNL d   1       7.355  12.766 -13.095 -0.10 +0.09    -0.247    16.700
ATOM      4  N   UNL d   1       7.663  13.299 -10.188 -0.13 +0.09    -0.247    16.700
ATOM      5  N   UNL d   1       5.284  14.909 -10.325 -0.06 +0.16    -0.354    16.700
ATOM      6  N   UNL d   1       4.961  14.335 -13.336 -0.07 +0.16    -0.354    16.700
ATOM      7  C   UNL d   1       7.739  11.204 -14.944 -0.23 -0.04    +0.084    16.700
ATOM      8  C   UNL d   1       9.791  12.681  -9.158 -0.12 -0.04    +0.084    16.700
ATOM      9  C   UNL d   1       8.877  12.680 -10.388 -0.12 -0.02    +0.058    16.700
ATOM     10  C   UNL d   1       6.951  12.382 -14.363 -0.21 -0.03    +0.058    16.700
ATOM     11  C   UNL d   1       8.671  11.003 -13.788 -0.16 -0.05    +0.193    16.700
ATOM     12  C   UNL d   1       8.355  12.027 -12.742 -0.14 -0.03    +0.109    16.700
ATOM     13  C   UNL d   1       8.856  13.382  -8.213 -0.13 -0.16    +0.193    16.700
ATOM     14  C   UNL d   1       6.870   9.954 -15.103 -0.01 -0.02    +0.026    16.700
ATOM     15  C   UNL d   1       9.212  12.082 -11.541 -0.13 -0.01    +0.055    16.700
ATOM     16  C   UNL d   1      11.027  13.560  -9.370 -0.06 -0.01    +0.026    16.700
ATOM     17  C   UNL d   1       7.600  13.696  -8.958 -0.17 -0.05    +0.109    16.700
ATOM     18  C   UNL d   1       6.014  13.025 -15.084 -0.24 -0.03    +0.050    16.700
ATOM     19  C   UNL d   1       5.296  14.173 -14.662 -0.17 -0.02    +0.045    16.700
ATOM     20  C   UNL d   1       5.454  14.854  -8.966 -0.27 -0.02    +0.045    16.700
ATOM     21  C   UNL d   1       6.477  14.349  -8.269 -0.21 -0.03    +0.057    16.700
ATOM     22  C   UNL d   1       3.457  15.866  -9.421 -0.26 +0.01    -0.019    16.700
ATOM     23  C   UNL d   1       4.107  15.502 -10.696 -0.15 -0.02    +0.045    16.700
ATOM     24  C   UNL d   1       4.260  15.481  -8.401 -0.34 +0.01    -0.022    16.700
ATOM     25  C   UNL d   1       4.193  15.463 -13.166 -0.15 -0.01    +0.049    16.700
ATOM     26  C   UNL d   1       4.764  15.243 -15.365 -0.09 +0.00    -0.018    16.700
ATOM     27  C   UNL d   1       4.085  16.065 -14.412 -0.09 -0.00    +0.003    16.700
ATOM     28  C   UNL d   1       3.595  15.755 -11.910 -0.22 -0.02    +0.052    16.700
ATOM     29  C   UNL d   1       4.046  15.640  -6.934 -0.31 -0.02    +0.046    16.700
ATOM     30  C   UNL d   1       4.878  15.491 -16.831 -0.07 -0.01    +0.046    16.700
ATOM     31  H   UNL d   1       6.015  14.604 -10.959 -0.08 -0.07    +0.166    16.700
ATOM     32  H   UNL d   1       5.219  13.678 -12.609 -0.46 -0.12    +0.166    16.700
ATOM     33  C   UNL d   1       8.526  11.508 -16.224 -0.16 -0.05    +0.141    16.700
ATOM     34  C   UNL d   1       8.905  10.264 -16.980 -0.13 +0.02    +0.306    16.700
ATOM     35  O   UNL d   1       9.875   9.557 -16.764 -0.15 -0.07    -0.251    16.700
ATOM     36  O   UNL d   1       8.040   9.974 -17.968 -0.40 -0.23    -0.481    16.700
ATOM     37  H   UNL d   1       7.178  10.315 -17.648 -0.46 -0.44    +0.295    16.700
ATOM     38  C   UNL d   1       3.378  17.272 -14.718 -0.05 -0.00    +0.017    16.700
ATOM     39  C   UNL d   1       3.596  18.464 -14.143 -0.01 -0.00    +0.092    16.700
ATOM     40  C   UNL d   1       2.813  19.630 -14.560 +0.00 +0.01    +0.330    16.700
ATOM     41  O   UNL d   1       2.970  20.315 -15.553 -0.00 -0.02    -0.246    16.700
ATOM     42  O   UNL d   1       1.835  19.870 -13.674 +0.01 -0.01    -0.477    16.700
ATOM     43  H   UNL d   1       1.876  19.104 -13.066 +0.02 -0.00    +0.295    16.700
ATOM     44  C   UNL d   1      10.178  11.299  -8.622 -0.25 -0.08    +0.141    16.700
ATOM     45  C   UNL d   1       8.994  10.473  -8.198 -0.31 -0.14    +0.306    16.700
ATOM     46  O   UNL d   1       8.489   9.553  -8.818 -0.87 +0.05    -0.251    16.700
ATOM     47  O   UNL d   1       8.485  10.870  -7.017 -0.34 +0.45    -0.481    16.700
ATOM     48  H   UNL d   1       9.112  11.552  -6.695 -0.01 -0.60    +0.295    16.700
ATOM     49  C   UNL d   1       2.118  16.536  -9.319 -0.21 -0.02    +0.048    16.700
ATOM     50  C   UNL d   1       2.232  18.056  -9.435 -0.11 -0.02    +0.125    16.700
ATOM     51  C   UNL d   1       2.052  18.499 -10.859 -0.01 -0.03    +0.305    16.700
ATOM     52  O   UNL d   1       1.279  18.048 -11.686 -0.03 +0.02    -0.251    16.700
ATOM     53  O   UNL d   1       2.886  19.508 -11.183 +0.01 +0.04    -0.481    16.700
ATOM     54  H   UNL d   1       2.304  20.171 -11.609 +0.01 -0.01    +0.295    16.700
TER
ENDMDL
MODEL       39
USER    Run = 39
USER    Cluster Rank = 12
USER    Number of conformations in this cluster = 2
USER  
USER    RMSD from reference structure       = 15.421 A
USER  
USER    Estimated Free Energy of Binding    =   -5.75 kcal/mol  [=(1)+(2)+(3)-(4)]
USER    Estimated Inhibition Constant, Ki   =   61.39 uM (micromolar)  [Temperature = 298.15 K]
USER    
USER    (1) Final Intermolecular Energy     =   -9.62 kcal/mol
USER        vdW + Hbond + desolv Energy     =   -8.92 kcal/mol
USER        Electrostatic Energy            =   -0.70 kcal/mol
USER    (2) Final Total Internal Energy     =   -1.85 kcal/mol
USER    (3) Torsional Free Energy           =   +3.88 kcal/mol
USER    (4) Unbound System's Energy  [=(2)] =   -1.85 kcal/mol
USER    
USER    
USER  
USER    DPF = D:/Protein_go_brrr/autodock/final/mut_N102T/heme/dock.dpf
USER    NEWDPF move	heme_opt.pdbqt
USER    NEWDPF about	0.153000 0.018000 -0.028000
USER    NEWDPF tran0	-8.894667 -11.279950 11.400801
USER    NEWDPF axisangle0	-0.281248 0.174620 0.943614 84.691013
USER    NEWDPF quaternion0	-0.189448 0.117624 0.635618 0.739096
USER    NEWDPF dihe0	-109.75 72.72 -163.76 69.44 -141.45 -180.00 138.36 73.63 131.85 -7.41 87.50 -41.75 5.68 
USER  
USER                              x       y       z    vdW   Elec        q     RMS 
ATOM      1  O   UNL d   1      -8.574  -5.640  13.086 -0.05 +0.25    -0.289    15.421
ATOM      2  O   UNL d   1     -13.014  -9.042   8.075 -0.01 +0.06    -0.289    15.421
ATOM      3  N   UNL d   1      -8.304  -8.992  12.323 -0.12 +0.07    -0.247    15.421
ATOM      4  N   UNL d   1     -10.617  -9.471  10.520 -0.05 +0.07    -0.247    15.421
ATOM      5  N   UNL d   1     -10.189 -12.292  10.873 -0.06 +0.10    -0.354    15.421
ATOM      6  N   UNL d   1      -7.803 -11.787  12.758 -0.06 +0.08    -0.354    15.421
ATOM      7  C   UNL d   1      -7.260  -7.503  13.967 -0.20 -0.02    +0.084    15.421
ATOM      8  C   UNL d   1     -11.458  -7.561   9.249 -0.11 -0.04    +0.084    15.421
ATOM      9  C   UNL d   1     -10.509  -8.113  10.318 -0.16 -0.03    +0.058    15.421
ATOM     10  C   UNL d   1      -7.403  -8.907  13.371 -0.19 -0.01    +0.058    15.421
ATOM     11  C   UNL d   1      -8.227  -6.806  13.057 -0.17 -0.09    +0.193    15.421
ATOM     12  C   UNL d   1      -8.773  -7.810  12.090 -0.21 -0.05    +0.109    15.421
ATOM     13  C   UNL d   1     -12.150  -8.850   8.909 -0.02 -0.05    +0.193    15.421
ATOM     14  C   UNL d   1      -7.790  -7.431  15.401 -0.09 -0.00    +0.026    15.421
ATOM     15  C   UNL d   1      -9.683  -7.331  11.030 -0.22 -0.05    +0.055    15.421
ATOM     16  C   UNL d   1     -10.697  -7.070   8.014 -0.32 -0.02    +0.026    15.421
ATOM     17  C   UNL d   1     -11.554  -9.929   9.754 -0.05 -0.03    +0.109    15.421
ATOM     18  C   UNL d   1      -6.636  -9.931  13.792 -0.22 -0.01    +0.050    15.421
ATOM     19  C   UNL d   1      -6.638 -11.239  13.245 -0.19 -0.01    +0.045    15.421
ATOM     20  C   UNL d   1     -11.396 -12.316  10.223 -0.11 -0.01    +0.045    15.421
ATOM     21  C   UNL d   1     -12.068 -11.304   9.667 -0.08 -0.01    +0.057    15.421
ATOM     22  C   UNL d   1     -10.879 -14.436  10.899 -0.14 +0.01    -0.019    15.421
ATOM     23  C   UNL d   1      -9.795 -13.526  11.318 -0.14 -0.02    +0.045    15.421
ATOM     24  C   UNL d   1     -11.823 -13.715  10.250 -0.11 +0.01    -0.022    15.421
ATOM     25  C   UNL d   1      -7.597 -13.088  12.363 -0.21 -0.02    +0.049    15.421
ATOM     26  C   UNL d   1      -5.642 -12.196  13.129 -0.27 +0.00    -0.018    15.421
ATOM     27  C   UNL d   1      -6.248 -13.354  12.553 -0.30 -0.00    +0.003    15.421
ATOM     28  C   UNL d   1      -8.687 -13.912  11.970 -0.14 -0.02    +0.052    15.421
ATOM     29  C   UNL d   1     -13.096 -14.185   9.632 -0.07 -0.01    +0.046    15.421
ATOM     30  C   UNL d   1      -4.212 -12.045  13.526 -0.45 -0.01    +0.046    15.421
ATOM     31  H   UNL d   1      -9.638 -11.443  10.927 +0.05 -0.04    +0.166    15.421
ATOM     32  H   UNL d   1      -8.689 -11.295  12.741 +0.05 -0.04    +0.166    15.421
ATOM     33  C   UNL d   1      -5.866  -6.878  13.850 -0.32 -0.04    +0.141    15.421
ATOM     34  C   UNL d   1      -5.798  -5.497  14.443 -0.22 -0.03    +0.306    15.421
ATOM     35  O   UNL d   1      -6.057  -4.453  13.869 -0.37 -0.07    -0.251    15.421
ATOM     36  O   UNL d   1      -5.410  -5.505  15.731 -0.11 +0.04    -0.481    15.421
ATOM     37  H   UNL d   1      -4.475  -5.798  15.705 -0.42 -0.11    +0.295    15.421
ATOM     38  C   UNL d   1      -5.575 -14.586  12.274 -0.35 -0.01    +0.017    15.421
ATOM     39  C   UNL d   1      -6.162 -15.705  11.823 -0.28 -0.05    +0.092    15.421
ATOM     40  C   UNL d   1      -5.354 -16.899  11.559 -0.15 -0.22    +0.330    15.421
ATOM     41  O   UNL d   1      -5.739 -17.990  11.185 -0.20 +0.18    -0.246    15.421
ATOM     42  O   UNL d   1      -4.057 -16.637  11.783 -0.08 +0.38    -0.477    15.421
ATOM     43  H   UNL d   1      -3.667 -16.601  10.885 -0.37 -0.37    +0.295    15.421
ATOM     44  C   UNL d   1     -12.461  -6.511   9.737 -0.07 -0.07    +0.141    15.421
ATOM     45  C   UNL d   1     -13.332  -6.999  10.863 -0.00 -0.09    +0.306    15.421
ATOM     46  O   UNL d   1     -13.132  -6.846  12.056 -0.01 +0.07    -0.251    15.421
ATOM     47  O   UNL d   1     -14.404  -7.684  10.426 +0.01 +0.10    -0.481    15.421
ATOM     48  H   UNL d   1     -14.198  -7.896   9.490 +0.01 -0.06    +0.295    15.421
ATOM     49  C   UNL d   1     -10.898 -15.910  11.182 -0.12 -0.02    +0.048    15.421
ATOM     50  C   UNL d   1      -9.981 -16.683  10.235 -0.17 -0.09    +0.125    15.421
ATOM     51  C   UNL d   1     -10.732 -17.148   9.020 -0.12 -0.22    +0.305    15.421
ATOM     52  O   UNL d   1     -11.206 -16.462   8.132 -0.61 +0.10    -0.251    15.421
ATOM     53  O   UNL d   1     -10.863 -18.489   8.991 -0.04 +0.52    -0.481    15.421
ATOM     54  H   UNL d   1     -10.293 -18.768   8.244 -0.54 -0.67    +0.295    15.421
TER
ENDMDL
MODEL       95
USER    Run = 95
USER    Cluster Rank = 13
USER    Number of conformations in this cluster = 3
USER  
USER    RMSD from reference structure       = 16.186 A
USER  
USER    Estimated Free Energy of Binding    =   -5.43 kcal/mol  [=(1)+(2)+(3)-(4)]
USER    Estimated Inhibition Constant, Ki   =  104.96 uM (micromolar)  [Temperature = 298.15 K]
USER    
USER    (1) Final Intermolecular Energy     =   -9.31 kcal/mol
USER        vdW + Hbond + desolv Energy     =   -9.07 kcal/mol
USER        Electrostatic Energy            =   -0.24 kcal/mol
USER    (2) Final Total Internal Energy     =   -3.31 kcal/mol
USER    (3) Torsional Free Energy           =   +3.88 kcal/mol
USER    (4) Unbound System's Energy  [=(2)] =   -3.31 kcal/mol
USER    
USER    
USER  
USER    DPF = D:/Protein_go_brrr/autodock/final/mut_N102T/heme/dock.dpf
USER    NEWDPF move	heme_opt.pdbqt
USER    NEWDPF about	0.153000 0.018000 -0.028000
USER    NEWDPF tran0	11.617336 8.403989 -13.041818
USER    NEWDPF axisangle0	-0.851275 0.391749 -0.349089 -115.365832
USER    NEWDPF quaternion0	-0.719415 0.331068 -0.295016 -0.534604
USER    NEWDPF dihe0	-178.46 179.75 54.04 13.48 41.52 97.63 -56.19 -116.53 137.06 -99.37 -115.36 -76.41 -18.57 
USER  
USER                              x       y       z    vdW   Elec        q     RMS 
ATOM      1  O   UNL d   1       8.446  12.865 -15.231 -0.04 +0.09    -0.289    16.186
ATOM      2  O   UNL d   1       9.556  10.615  -8.153 -0.34 +0.16    -0.289    16.186
ATOM      3  N   UNL d   1      10.303  10.072 -14.428 -0.14 +0.02    -0.247    16.186
ATOM      4  N   UNL d   1      10.430  10.166 -11.461 -0.11 +0.08    -0.247    16.186
ATOM      5  N   UNL d   1      12.508   8.182 -11.580 -0.08 +0.11    -0.354    16.186
ATOM      6  N   UNL d   1      12.383   8.105 -14.659 -0.11 +0.01    -0.354    16.186
ATOM      7  C   UNL d   1       9.823  11.293 -16.499 -0.09 -0.01    +0.084    16.186
ATOM      8  C   UNL d   1       8.616  11.320 -10.301 -0.24 -0.03    +0.084    16.186
ATOM      9  C   UNL d   1       9.296  10.931 -11.617 -0.21 -0.02    +0.058    16.186
ATOM     10  C   UNL d   1      10.531  10.133 -15.793 -0.14 +0.00    +0.058    16.186
ATOM     11  C   UNL d   1       9.139  11.867 -15.294 -0.07 -0.04    +0.193    16.186
ATOM     12  C   UNL d   1       9.488  11.024 -14.107 -0.15 -0.02    +0.109    16.186
ATOM     13  C   UNL d   1       9.595  10.666  -9.367 -0.23 -0.07    +0.193    16.186
ATOM     14  C   UNL d   1      10.813  12.324 -17.044 -0.03 -0.00    +0.026    16.186
ATOM     15  C   UNL d   1       8.852  11.345 -12.814 -0.21 -0.01    +0.055    16.186
ATOM     16  C   UNL d   1       7.253  10.639 -10.142 -0.48 -0.01    +0.026    16.186
ATOM     17  C   UNL d   1      10.650  10.007 -10.196 -0.17 -0.04    +0.109    16.186
ATOM     18  C   UNL d   1      11.233   9.214 -16.482 -0.16 +0.01    +0.050    16.186
ATOM     19  C   UNL d   1      11.850   8.064 -15.927 -0.07 +0.01    +0.045    16.186
ATOM     20  C   UNL d   1      12.584   8.524 -10.255 -0.24 -0.01    +0.045    16.186
ATOM     21  C   UNL d   1      11.775   9.318  -9.546 -0.21 -0.01    +0.057    16.186
ATOM     22  C   UNL d   1      14.316   7.121 -10.756 -0.17 +0.00    -0.019    16.186
ATOM     23  C   UNL d   1      13.512   7.339 -11.975 -0.22 -0.01    +0.045    16.186
ATOM     24  C   UNL d   1      13.760   7.824  -9.740 -0.24 +0.00    -0.022    16.186
ATOM     25  C   UNL d   1      13.008   6.917 -14.358 -0.21 -0.00    +0.049    16.186
ATOM     26  C   UNL d   1      12.102   6.805 -16.450 -0.04 -0.00    -0.018    16.186
ATOM     27  C   UNL d   1      12.816   6.079 -15.448 -0.21 -0.00    +0.003    16.186
ATOM     28  C   UNL d   1      13.767   6.774 -13.165 -0.22 -0.01    +0.052    16.186
ATOM     29  C   UNL d   1      14.200   7.915  -8.319 -0.21 -0.01    +0.046    16.186
ATOM     30  C   UNL d   1      11.704   6.304 -17.797 -0.12 +0.01    +0.046    16.186
ATOM     31  H   UNL d   1      11.727   8.479 -12.156 -0.35 -0.06    +0.166    16.186
ATOM     32  H   UNL d   1      12.345   8.923 -14.062 +0.04 -0.01    +0.166    16.186
ATOM     33  C   UNL d   1       8.793  10.887 -17.559 -0.16 -0.02    +0.141    16.186
ATOM     34  C   UNL d   1       8.219  12.069 -18.291 -0.06 -0.12    +0.306    16.186
ATOM     35  O   UNL d   1       8.601  12.508 -19.362 -0.03 +0.04    -0.251    16.186
ATOM     36  O   UNL d   1       7.190  12.635 -17.635 +0.01 +0.42    -0.481    16.186
ATOM     37  H   UNL d   1       7.080  12.088 -16.829 -0.44 -0.39    +0.295    16.186
ATOM     38  C   UNL d   1      13.289   4.734 -15.582 -0.16 -0.00    +0.017    16.186
ATOM     39  C   UNL d   1      14.469   4.279 -15.134 -0.11 -0.02    +0.092    16.186
ATOM     40  C   UNL d   1      14.827   2.871 -15.321 -0.06 -0.04    +0.330    16.186
ATOM     41  O   UNL d   1      15.493   2.385 -16.215 -0.02 +0.02    -0.246    16.186
ATOM     42  O   UNL d   1      14.314   2.128 -14.327 -0.06 +0.08    -0.477    16.186
ATOM     43  H   UNL d   1      13.849   2.780 -13.764 -0.50 -0.13    +0.295    16.186
ATOM     44  C   UNL d   1       8.519  12.825 -10.027 -0.15 -0.05    +0.141    16.186
ATOM     45  C   UNL d   1       8.564  13.166  -8.562 -0.13 -0.19    +0.306    16.186
ATOM     46  O   UNL d   1       7.612  13.431  -7.847 -0.34 +0.18    -0.251    16.186
ATOM     47  O   UNL d   1       9.818  13.183  -8.075 -0.07 +0.47    -0.481    16.186
ATOM     48  H   UNL d   1       9.790  12.586  -7.298 -0.26 -0.54    +0.295    16.186
ATOM     49  C   UNL d   1      15.548   6.267 -10.700 -0.07 -0.01    +0.048    16.186
ATOM     50  C   UNL d   1      15.266   4.902 -10.074 -0.09 -0.02    +0.125    16.186
ATOM     51  C   UNL d   1      14.333   4.099 -10.935 -0.11 -0.09    +0.305    16.186
ATOM     52  O   UNL d   1      13.257   3.622 -10.621 -0.26 +0.11    -0.251    16.186
ATOM     53  O   UNL d   1      14.821   3.922 -12.179 -0.04 +0.14    -0.481    16.186
ATOM     54  H   UNL d   1      14.055   3.587 -12.690 -0.48 -0.18    +0.295    16.186
TER
ENDMDL
MODEL       50
USER    Run = 50
USER    Cluster Rank = 14
USER    Number of conformations in this cluster = 1
USER  
USER    RMSD from reference structure       = 17.700 A
USER  
USER    Estimated Free Energy of Binding    =   -5.42 kcal/mol  [=(1)+(2)+(3)-(4)]
USER    Estimated Inhibition Constant, Ki   =  106.71 uM (micromolar)  [Temperature = 298.15 K]
USER    
USER    (1) Final Intermolecular Energy     =   -9.30 kcal/mol
USER        vdW + Hbond + desolv Energy     =   -9.27 kcal/mol
USER        Electrostatic Energy            =   -0.03 kcal/mol
USER    (2) Final Total Internal Energy     =   -1.32 kcal/mol
USER    (3) Torsional Free Energy           =   +3.88 kcal/mol
USER    (4) Unbound System's Energy  [=(2)] =   -1.32 kcal/mol
USER    
USER    
USER  
USER    DPF = D:/Protein_go_brrr/autodock/final/mut_N102T/heme/dock.dpf
USER    NEWDPF move	heme_opt.pdbqt
USER    NEWDPF about	0.153000 0.018000 -0.028000
USER    NEWDPF tran0	-4.258824 7.345084 17.457151
USER    NEWDPF axisangle0	0.309967 -0.108697 -0.944513 141.139415
USER    NEWDPF quaternion0	0.292314 -0.102506 -0.890720 0.332660
USER    NEWDPF dihe0	56.39 -31.57 -50.74 47.66 -174.87 147.67 59.67 -75.55 86.03 -133.66 102.96 -54.89 -12.32 
USER  
USER                              x       y       z    vdW   Elec        q     RMS 
ATOM      1  O   UNL d   1      -2.244   3.321  21.265 +0.10 +0.38    -0.289    17.700
ATOM      2  O   UNL d   1       1.233   9.006  17.804 -0.31 +0.09    -0.289    17.700
ATOM      3  N   UNL d   1      -3.825   5.364  18.980 -0.10 +0.05    -0.247    17.700
ATOM      4  N   UNL d   1      -1.788   7.448  18.403 -0.11 +0.06    -0.247    17.700
ATOM      5  N   UNL d   1      -3.861   8.996  17.149 -0.09 +0.10    -0.354    17.700
ATOM      6  N   UNL d   1      -5.972   6.837  17.769 -0.04 +0.03    -0.354    17.700
ATOM      7  C   UNL d   1      -4.545   3.559  20.474 -0.09 -0.02    +0.084    17.700
ATOM      8  C   UNL d   1       0.558   6.835  18.710 -0.28 -0.02    +0.084    17.700
ATOM      9  C   UNL d   1      -0.925   6.470  18.843 -0.24 -0.02    +0.058    17.700
ATOM     10  C   UNL d   1      -4.901   4.611  19.420 -0.11 -0.01    +0.058    17.700
ATOM     11  C   UNL d   1      -3.073   3.838  20.539 -0.12 -0.11    +0.193    17.700
ATOM     12  C   UNL d   1      -2.757   4.933  19.568 -0.18 -0.04    +0.109    17.700
ATOM     13  C   UNL d   1       0.375   8.216  18.147 -0.22 -0.06    +0.193    17.700
ATOM     14  C   UNL d   1      -5.168   3.876  21.836 -0.03 -0.01    +0.026    17.700
ATOM     15  C   UNL d   1      -1.342   5.317  19.390 -0.31 -0.02    +0.055    17.700
ATOM     16  C   UNL d   1       1.264   5.967  17.664 -0.49 -0.01    +0.026    17.700
ATOM     17  C   UNL d   1      -1.092   8.469  18.017 -0.20 -0.03    +0.109    17.700
ATOM     18  C   UNL d   1      -6.146   4.710  18.918 -0.12 -0.00    +0.050    17.700
ATOM     19  C   UNL d   1      -6.549   5.593  17.884 -0.15 -0.00    +0.045    17.700
ATOM     20  C   UNL d   1      -2.856   9.928  17.177 -0.03 -0.02    +0.045    17.700
ATOM     21  C   UNL d   1      -1.576   9.769  17.529 -0.21 -0.02    +0.057    17.700
ATOM     22  C   UNL d   1      -4.776  10.936  16.461 -0.18 +0.00    -0.019    17.700
ATOM     23  C   UNL d   1      -5.059   9.512  16.731 -0.19 -0.01    +0.045    17.700
ATOM     24  C   UNL d   1      -3.470  11.175  16.725 -0.25 +0.01    -0.022    17.700
ATOM     25  C   UNL d   1      -6.571   7.557  16.761 -0.21 -0.00    +0.049    17.700
ATOM     26  C   UNL d   1      -7.522   5.486  16.902 -0.21 -0.00    -0.018    17.700
ATOM     27  C   UNL d   1      -7.518   6.722  16.184 -0.26 +0.00    +0.003    17.700
ATOM     28  C   UNL d   1      -6.253   8.927  16.555 -0.21 -0.00    +0.052    17.700
ATOM     29  C   UNL d   1      -2.711  12.452  16.596 -0.02 -0.01    +0.046    17.700
ATOM     30  C   UNL d   1      -8.401   4.310  16.643 -0.22 +0.01    +0.046    17.700
ATOM     31  H   UNL d   1      -3.678   8.019  17.348 +0.06 -0.04    +0.166    17.700
ATOM     32  H   UNL d   1      -5.237   7.173  18.381 +0.05 -0.02    +0.166    17.700
ATOM     33  C   UNL d   1      -4.799   2.105  20.064 -0.12 -0.02    +0.141    17.700
ATOM     34  C   UNL d   1      -3.642   1.200  20.389 -0.12 -0.16    +0.306    17.700
ATOM     35  O   UNL d   1      -3.003   0.533  19.593 -0.18 +0.15    -0.251    17.700
ATOM     36  O   UNL d   1      -3.348   1.186  21.702 -0.04 +0.36    -0.481    17.700
ATOM     37  H   UNL d   1      -2.393   1.405  21.743 -0.41 -0.47    +0.295    17.700
ATOM     38  C   UNL d   1      -8.385   7.044  15.090 -0.20 +0.00    +0.017    17.700
ATOM     39  C   UNL d   1      -8.636   8.282  14.639 -0.21 +0.00    +0.092    17.700
ATOM     40  C   UNL d   1      -9.532   8.475  13.497 -0.17 +0.02    +0.330    17.700
ATOM     41  O   UNL d   1     -10.302   9.397  13.303 -0.12 -0.00    -0.246    17.700
ATOM     42  O   UNL d   1      -9.395   7.463  12.626 -0.41 -0.08    -0.477    17.700
ATOM     43  H   UNL d   1     -10.287   7.370  12.232 +0.12 +0.02    +0.295    17.700
ATOM     44  C   UNL d   1       1.348   6.876  20.022 -0.21 -0.04    +0.141    17.700
ATOM     45  C   UNL d   1       2.813   7.161  19.824 -0.19 -0.10    +0.306    17.700
ATOM     46  O   UNL d   1       3.338   7.605  18.817 -0.30 +0.12    -0.251    17.700
ATOM     47  O   UNL d   1       3.550   6.844  20.904 -0.09 +0.16    -0.481    17.700
ATOM     48  H   UNL d   1       4.270   6.278  20.555 -0.44 -0.18    +0.295    17.700
ATOM     49  C   UNL d   1      -5.802  11.923  15.988 -0.13 -0.01    +0.048    17.700
ATOM     50  C   UNL d   1      -5.779  12.085  14.469 -0.17 -0.01    +0.125    17.700
ATOM     51  C   UNL d   1      -4.610  12.924  14.036 -0.20 -0.06    +0.305    17.700
ATOM     52  O   UNL d   1      -4.530  14.140  14.030 -0.17 +0.07    -0.251    17.700
ATOM     53  O   UNL d   1      -3.577  12.169  13.611 -0.57 +0.08    -0.481    17.700
ATOM     54  H   UNL d   1      -2.799  12.552  14.068 +0.04 -0.10    +0.295    17.700
TER
ENDMDL
MODEL       79
USER    Run = 79
USER    Cluster Rank = 15
USER    Number of conformations in this cluster = 1
USER  
USER    RMSD from reference structure       = 19.331 A
USER  
USER    Estimated Free Energy of Binding    =   -5.39 kcal/mol  [=(1)+(2)+(3)-(4)]
USER    Estimated Inhibition Constant, Ki   =  111.70 uM (micromolar)  [Temperature = 298.15 K]
USER    
USER    (1) Final Intermolecular Energy     =   -9.27 kcal/mol
USER        vdW + Hbond + desolv Energy     =   -8.58 kcal/mol
USER        Electrostatic Energy            =   -0.69 kcal/mol
USER    (2) Final Total Internal Energy     =   -2.12 kcal/mol
USER    (3) Torsional Free Energy           =   +3.88 kcal/mol
USER    (4) Unbound System's Energy  [=(2)] =   -2.12 kcal/mol
USER    
USER    
USER  
USER    DPF = D:/Protein_go_brrr/autodock/final/mut_N102T/heme/dock.dpf
USER    NEWDPF move	heme_opt.pdbqt
USER    NEWDPF about	0.153000 0.018000 -0.028000
USER    NEWDPF tran0	9.515609 16.346994 11.430757
USER    NEWDPF axisangle0	-0.651328 0.665732 0.364105 -79.378530
USER    NEWDPF quaternion0	-0.415953 0.425152 0.232526 -0.769519
USER    NEWDPF dihe0	148.54 -60.64 -93.43 92.62 69.50 132.37 179.63 -59.30 144.47 -116.52 126.21 -52.94 18.55 
USER  
USER                              x       y       z    vdW   Elec        q     RMS 
ATOM      1  O   UNL d   1       5.637  17.788  15.630 -0.08 +0.32    -0.289    19.331
ATOM      2  O   UNL d   1      10.827  12.368  15.366 -0.11 -0.02    -0.289    19.331
ATOM      3  N   UNL d   1       7.619  17.233  12.862 -0.15 +0.06    -0.247    19.331
ATOM      4  N   UNL d   1       9.519  15.146  13.791 -0.09 +0.03    -0.247    19.331
ATOM      5  N   UNL d   1      11.112  15.690  11.460 -0.10 +0.01    -0.354    19.331
ATOM      6  N   UNL d   1       9.146  17.868  10.514 -0.06 +0.02    -0.354    19.331
ATOM      7  C   UNL d   1       5.973  18.935  13.497 -0.18 -0.03    +0.084    19.331
ATOM      8  C   UNL d   1       8.773  13.679  15.597 -0.25 -0.01    +0.084    19.331
ATOM      9  C   UNL d   1       8.517  14.896  14.702 -0.23 -0.01    +0.058    19.331
ATOM     10  C   UNL d   1       6.972  18.393  12.470 -0.20 -0.02    +0.058    19.331
ATOM     11  C   UNL d   1       6.157  17.865  14.532 -0.09 -0.11    +0.193    19.331
ATOM     12  C   UNL d   1       7.160  16.879  14.018 -0.17 -0.04    +0.109    19.331
ATOM     13  C   UNL d   1      10.121  13.306  15.049 -0.14 -0.00    +0.193    19.331
ATOM     14  C   UNL d   1       6.423  20.275  14.085 -0.07 -0.01    +0.026    19.331
ATOM     15  C   UNL d   1       7.435  15.679  14.834 -0.29 -0.03    +0.055    19.331
ATOM     16  C   UNL d   1       7.790  12.541  15.302 -0.30 -0.01    +0.026    19.331
ATOM     17  C   UNL d   1      10.462  14.277  13.966 -0.16 -0.00    +0.109    19.331
ATOM     18  C   UNL d   1       7.118  18.967  11.261 -0.23 -0.01    +0.050    19.331
ATOM     19  C   UNL d   1       7.953  18.489  10.219 -0.20 -0.01    +0.045    19.331
ATOM     20  C   UNL d   1      11.974  14.878  12.150 -0.17 +0.00    +0.045    19.331
ATOM     21  C   UNL d   1      11.755  14.184  13.271 -0.12 +0.00    +0.057    19.331
ATOM     22  C   UNL d   1      13.056  15.721  10.323 -0.14 -0.00    -0.019    19.331
ATOM     23  C   UNL d   1      11.676  16.245  10.342 -0.13 +0.00    +0.045    19.331
ATOM     24  C   UNL d   1      13.226  14.911  11.395 -0.16 -0.00    -0.022    19.331
ATOM     25  C   UNL d   1       9.832  17.568   9.361 -0.10 +0.01    +0.049    19.331
ATOM     26  C   UNL d   1       7.845  18.561   8.839 -0.20 +0.00    -0.018    19.331
ATOM     27  C   UNL d   1       9.025  17.961   8.302 -0.07 +0.00    +0.003    19.331
ATOM     28  C   UNL d   1      11.161  17.065   9.413 -0.14 +0.01    +0.052    19.331
ATOM     29  C   UNL d   1      14.437  14.142  11.801 -0.13 +0.01    +0.046    19.331
ATOM     30  C   UNL d   1       6.714  19.149   8.064 -0.25 -0.01    +0.046    19.331
ATOM     31  H   UNL d   1      10.140  15.781  11.736 +0.06 -0.01    +0.166    19.331
ATOM     32  H   UNL d   1       9.473  17.702  11.459 +0.05 -0.01    +0.166    19.331
ATOM     33  C   UNL d   1       4.514  18.987  13.031 -0.14 -0.05    +0.141    19.331
ATOM     34  C   UNL d   1       3.638  19.787  13.957 -0.00 -0.07    +0.306    19.331
ATOM     35  O   UNL d   1       2.951  20.746  13.649 -0.58 +0.06    -0.251    19.331
ATOM     36  O   UNL d   1       3.673  19.335  15.223 -0.11 +0.21    -0.481    19.331
ATOM     37  H   UNL d   1       3.777  18.363  15.135 +0.09 -0.22    +0.295    19.331
ATOM     38  C   UNL d   1       9.328  17.839   6.908 -0.17 +0.01    +0.017    19.331
ATOM     39  C   UNL d   1      10.540  17.568   6.399 -0.13 +0.05    +0.092    19.331
ATOM     40  C   UNL d   1      10.714  17.452   4.949 -0.05 +0.25    +0.330    19.331
ATOM     41  O   UNL d   1      11.552  17.995   4.255 -0.02 -0.10    -0.246    19.331
ATOM     42  O   UNL d   1       9.792  16.621   4.438 -0.38 -0.68    -0.477    19.331
ATOM     43  H   UNL d   1       9.292  17.182   3.811 +0.05 +0.18    +0.295    19.331
ATOM     44  C   UNL d   1       8.851  13.968  17.099 -0.14 -0.02    +0.141    19.331
ATOM     45  C   UNL d   1       9.423  12.825  17.895 -0.10 +0.02    +0.306    19.331
ATOM     46  O   UNL d   1      10.254  12.902  18.783 -0.05 -0.01    -0.251    19.331
ATOM     47  O   UNL d   1       8.933  11.633  17.509 -0.66 -0.14    -0.481    19.331
ATOM     48  H   UNL d   1       9.507  11.360  16.761 +0.11 +0.04    +0.295    19.331
ATOM     49  C   UNL d   1      14.075  16.068   9.278 -0.07 +0.01    +0.048    19.331
ATOM     50  C   UNL d   1      13.670  15.554   7.896 -0.11 +0.05    +0.125    19.331
ATOM     51  C   UNL d   1      13.355  14.086   7.941 -0.19 +0.15    +0.305    19.331
ATOM     52  O   UNL d   1      14.121  13.169   8.178 -0.18 -0.09    -0.251    19.331
ATOM     53  O   UNL d   1      12.059  13.840   7.666 -0.69 -0.50    -0.481    19.331
ATOM     54  H   UNL d   1      11.614  13.905   8.537 -0.40 +0.02    +0.295    19.331
TER
ENDMDL
MODEL        2
USER    Run = 2
USER    Cluster Rank = 16
USER    Number of conformations in this cluster = 1
USER  
USER    RMSD from reference structure       = 12.326 A
USER  
USER    Estimated Free Energy of Binding    =   -5.38 kcal/mol  [=(1)+(2)+(3)-(4)]
USER    Estimated Inhibition Constant, Ki   =  114.52 uM (micromolar)  [Temperature = 298.15 K]
USER    
USER    (1) Final Intermolecular Energy     =   -9.25 kcal/mol
USER        vdW + Hbond + desolv Energy     =   -8.44 kcal/mol
USER        Electrostatic Energy            =   -0.82 kcal/mol
USER    (2) Final Total Internal Energy     =   -1.75 kcal/mol
USER    (3) Torsional Free Energy           =   +3.88 kcal/mol
USER    (4) Unbound System's Energy  [=(2)] =   -1.75 kcal/mol
USER    
USER    
USER  
USER    DPF = D:/Protein_go_brrr/autodock/final/mut_N102T/heme/dock.dpf
USER    NEWDPF move	heme_opt.pdbqt
USER    NEWDPF about	0.153000 0.018000 -0.028000
USER    NEWDPF tran0	13.000303 -0.764760 -8.630874
USER    NEWDPF axisangle0	0.673032 0.577710 0.461821 -113.670212
USER    NEWDPF quaternion0	0.563395 0.483601 0.386591 -0.547050
USER    NEWDPF dihe0	138.53 -130.94 112.05 -102.01 48.42 -75.48 -40.18 33.87 -161.58 -128.03 -87.14 -176.90 12.41 
USER  
USER                              x       y       z    vdW   Elec        q     RMS 
ATOM      1  O   UNL d   1      12.522  -6.241  -6.500 -0.23 +0.27    -0.289    12.326
ATOM      2  O   UNL d   1      10.266  -3.275 -13.020 -0.15 +0.01    -0.289    12.326
ATOM      3  N   UNL d   1      12.906  -2.900  -7.265 -0.08 +0.03    -0.247    12.326
ATOM      4  N   UNL d   1      12.021  -2.741 -10.097 -0.08 +0.03    -0.247    12.326
ATOM      5  N   UNL d   1      13.195  -0.119 -10.220 -0.04 +0.05    -0.354    12.326
ATOM      6  N   UNL d   1      14.127  -0.300  -7.287 -0.01 +0.03    -0.354    12.326
ATOM      7  C   UNL d   1      13.623  -4.345  -5.420 -0.17 -0.05    +0.084    12.326
ATOM      8  C   UNL d   1      10.432  -4.429 -10.867 -0.25 -0.01    +0.084    12.326
ATOM      9  C   UNL d   1      11.348  -3.894  -9.762 -0.23 -0.01    +0.058    12.326
ATOM     10  C   UNL d   1      13.599  -2.957  -6.067 -0.13 -0.01    +0.058    12.326
ATOM     11  C   UNL d   1      12.807  -5.058  -6.455 -0.16 -0.11    +0.193    12.326
ATOM     12  C   UNL d   1      12.410  -4.069  -7.507 -0.07 -0.02    +0.109    12.326
ATOM     13  C   UNL d   1      10.738  -3.386 -11.905 -0.13 -0.01    +0.193    12.326
ATOM     14  C   UNL d   1      15.032  -4.945  -5.400 -0.08 -0.01    +0.026    12.326
ATOM     15  C   UNL d   1      11.517  -4.527  -8.590 -0.29 -0.01    +0.055    12.326
ATOM     16  C   UNL d   1       8.953  -4.321 -10.482 -0.49 -0.00    +0.026    12.326
ATOM     17  C   UNL d   1      11.720  -2.426 -11.316 -0.14 -0.01    +0.109    12.326
ATOM     18  C   UNL d   1      14.135  -1.886  -5.453 -0.13 -0.01    +0.050    12.326
ATOM     19  C   UNL d   1      14.087  -0.552  -5.934 -0.12 -0.00    +0.045    12.326
ATOM     20  C   UNL d   1      12.919  -0.316 -11.548 -0.16 -0.00    +0.045    12.326
ATOM     21  C   UNL d   1      12.240  -1.314 -12.124 -0.20 -0.00    +0.057    12.326
ATOM     22  C   UNL d   1      14.123   1.612 -11.322 -0.14 +0.00    -0.019    12.326
ATOM     23  C   UNL d   1      13.919   1.020  -9.985 -0.12 -0.01    +0.045    12.326
ATOM     24  C   UNL d   1      13.528   0.817 -12.243 -0.12 +0.00    -0.022    12.326
ATOM     25  C   UNL d   1      14.160   1.054  -7.525 -0.10 -0.01    +0.049    12.326
ATOM     26  C   UNL d   1      14.056   0.668  -5.278 -0.14 +0.00    -0.018    12.326
ATOM     27  C   UNL d   1      14.082   1.679  -6.288 -0.13 -0.00    +0.003    12.326
ATOM     28  C   UNL d   1      14.360   1.559  -8.839 -0.11 -0.01    +0.052    12.326
ATOM     29  C   UNL d   1      13.451   0.998 -13.721 +0.03 -0.00    +0.046    12.326
ATOM     30  C   UNL d   1      14.003   0.886  -3.804 -0.20 -0.00    +0.046    12.326
ATOM     31  H   UNL d   1      12.815  -0.732  -9.507 +0.06 -0.02    +0.166    12.326
ATOM     32  H   UNL d   1      14.168  -1.027  -7.992 +0.04 -0.02    +0.166    12.326
ATOM     33  C   UNL d   1      12.953  -4.441  -4.045 -0.26 -0.13    +0.141    12.326
ATOM     34  C   UNL d   1      13.931  -4.745  -2.943 -0.13 -0.26    +0.306    12.326
ATOM     35  O   UNL d   1      14.380  -3.947  -2.138 -0.10 +0.10    -0.251    12.326
ATOM     36  O   UNL d   1      14.290  -6.040  -2.912 -0.04 +0.62    -0.481    12.326
ATOM     37  H   UNL d   1      13.451  -6.532  -3.032 -0.45 -0.87    +0.295    12.326
ATOM     38  C   UNL d   1      14.080   3.090  -6.044 -0.24 -0.00    +0.017    12.326
ATOM     39  C   UNL d   1      14.758   3.708  -5.065 -0.29 -0.02    +0.092    12.326
ATOM     40  C   UNL d   1      14.684   5.165  -4.933 -0.28 -0.11    +0.330    12.326
ATOM     41  O   UNL d   1      15.261   6.003  -5.601 -0.20 +0.07    -0.246    12.326
ATOM     42  O   UNL d   1      13.850   5.497  -3.936 -0.67 +0.25    -0.477    12.326
ATOM     43  H   UNL d   1      14.143   4.936  -3.188 -0.14 -0.47    +0.295    12.326
ATOM     44  C   UNL d   1      10.768  -5.832 -11.384 -0.19 -0.01    +0.141    12.326
ATOM     45  C   UNL d   1       9.872  -6.284 -12.505 -0.16 -0.02    +0.306    12.326
ATOM     46  O   UNL d   1       8.775  -6.804 -12.394 -0.27 +0.03    -0.251    12.326
ATOM     47  O   UNL d   1      10.420  -6.080 -13.717 -0.03 +0.01    -0.481    12.326
ATOM     48  H   UNL d   1      10.433  -5.105 -13.822 +0.09 -0.01    +0.295    12.326
ATOM     49  C   UNL d   1      14.886   2.879 -11.575 -0.12 -0.01    +0.048    12.326
ATOM     50  C   UNL d   1      14.127   4.109 -11.079 -0.13 -0.04    +0.125    12.326
ATOM     51  C   UNL d   1      14.546   4.471  -9.682 -0.11 -0.07    +0.305    12.326
ATOM     52  O   UNL d   1      15.620   4.257  -9.150 -0.03 +0.04    -0.251    12.326
ATOM     53  O   UNL d   1      13.559   5.090  -9.004 -0.09 +0.18    -0.481    12.326
ATOM     54  H   UNL d   1      12.956   4.363  -8.744 -0.30 -0.17    +0.295    12.326
TER
ENDMDL
MODEL       66
USER    Run = 66
USER    Cluster Rank = 17
USER    Number of conformations in this cluster = 2
USER  
USER    RMSD from reference structure       = 14.672 A
USER  
USER    Estimated Free Energy of Binding    =   -5.30 kcal/mol  [=(1)+(2)+(3)-(4)]
USER    Estimated Inhibition Constant, Ki   =  131.00 uM (micromolar)  [Temperature = 298.15 K]
USER    
USER    (1) Final Intermolecular Energy     =   -9.17 kcal/mol
USER        vdW + Hbond + desolv Energy     =   -8.98 kcal/mol
USER        Electrostatic Energy            =   -0.19 kcal/mol
USER    (2) Final Total Internal Energy     =   -3.04 kcal/mol
USER    (3) Torsional Free Energy           =   +3.88 kcal/mol
USER    (4) Unbound System's Energy  [=(2)] =   -3.04 kcal/mol
USER    
USER    
USER  
USER    DPF = D:/Protein_go_brrr/autodock/final/mut_N102T/heme/dock.dpf
USER    NEWDPF move	heme_opt.pdbqt
USER    NEWDPF about	0.153000 0.018000 -0.028000
USER    NEWDPF tran0	-6.934820 10.200254 -11.949079
USER    NEWDPF axisangle0	-0.066057 0.698344 0.712708 125.985278
USER    NEWDPF quaternion0	-0.058854 0.622188 0.634986 0.454105
USER    NEWDPF dihe0	117.52 -171.62 116.60 32.30 11.74 -123.14 -47.58 81.15 -178.66 -132.18 -54.18 61.54 13.84 
USER  
USER                              x       y       z    vdW   Elec        q     RMS 
ATOM      1  O   UNL d   1      -3.241  14.640 -13.134 -0.14 -0.02    -0.289    14.672
ATOM      2  O   UNL d   1      -6.822   9.859 -17.686 -0.13 -0.03    -0.289    14.672
ATOM      3  N   UNL d   1      -5.228  12.076 -11.961 -0.10 +0.02    -0.247    14.672
ATOM      4  N   UNL d   1      -6.427  10.953 -14.436 -0.09 +0.03    -0.247    14.672
ATOM      5  N   UNL d   1      -8.293   9.530 -12.776 -0.05 +0.05    -0.354    14.672
ATOM      6  N   UNL d   1      -7.056  10.714 -10.214 -0.03 +0.02    -0.354    14.672
ATOM      7  C   UNL d   1      -4.042  13.956 -10.928 -0.17 -0.01    +0.084    14.672
ATOM      8  C   UNL d   1      -5.174  11.240 -16.515 -0.33 -0.01    +0.084    14.672
ATOM      9  C   UNL d   1      -5.323  11.536 -15.019 -0.26 -0.01    +0.058    14.672
ATOM     10  C   UNL d   1      -4.944  12.728 -10.772 -0.17 -0.00    +0.058    14.672
ATOM     11  C   UNL d   1      -3.851  13.872 -12.412 -0.14 -0.01    +0.193    14.672
ATOM     12  C   UNL d   1      -4.598  12.676 -12.917 -0.19 -0.01    +0.109    14.672
ATOM     13  C   UNL d   1      -6.417  10.412 -16.682 -0.21 -0.00    +0.193    14.672
ATOM     14  C   UNL d   1      -4.780  15.256 -10.596 -0.07 -0.00    +0.026    14.672
ATOM     15  C   UNL d   1      -4.479  12.336 -14.349 -0.27 -0.01    +0.055    14.672
ATOM     16  C   UNL d   1      -3.954  10.359 -16.800 -0.44 -0.01    +0.026    14.672
ATOM     17  C   UNL d   1      -7.090  10.320 -15.351 -0.20 -0.01    +0.109    14.672
ATOM     18  C   UNL d   1      -5.336  12.293  -9.560 -0.19 -0.00    +0.050    14.672
ATOM     19  C   UNL d   1      -6.097  11.122  -9.314 -0.12 -0.00    +0.045    14.672
ATOM     20  C   UNL d   1      -8.850   9.300 -14.008 -0.17 -0.00    +0.045    14.672
ATOM     21  C   UNL d   1      -8.365   9.601 -15.216 -0.19 -0.00    +0.057    14.672
ATOM     22  C   UNL d   1     -10.263   8.506 -12.398 -0.12 +0.00    -0.019    14.672
ATOM     23  C   UNL d   1      -9.074   9.085 -11.743 -0.12 -0.01    +0.045    14.672
ATOM     24  C   UNL d   1     -10.125   8.635 -13.739 -0.14 +0.00    -0.022    14.672
ATOM     25  C   UNL d   1      -7.732   9.616  -9.736 -0.14 -0.00    +0.049    14.672
ATOM     26  C   UNL d   1      -6.126  10.245  -8.241 -0.18 +0.00    -0.018    14.672
ATOM     27  C   UNL d   1      -7.147   9.284  -8.521 -0.22 -0.00    +0.003    14.672
ATOM     28  C   UNL d   1      -8.872   9.108 -10.416 -0.14 -0.00    +0.052    14.672
ATOM     29  C   UNL d   1     -11.053   8.195 -14.819 -0.13 +0.00    +0.046    14.672
ATOM     30  C   UNL d   1      -5.259  10.292  -7.028 -0.28 -0.00    +0.046    14.672
ATOM     31  H   UNL d   1      -7.360   9.918 -12.685 +0.06 -0.02    +0.166    14.672
ATOM     32  H   UNL d   1      -7.249  11.196 -11.084 +0.04 -0.01    +0.166    14.672
ATOM     33  C   UNL d   1      -2.692  13.876 -10.207 -0.14 -0.03    +0.141    14.672
ATOM     34  C   UNL d   1      -2.401  15.102  -9.384 -0.17 -0.01    +0.306    14.672
ATOM     35  O   UNL d   1      -3.013  15.469  -8.396 -0.75 -0.03    -0.251    14.672
ATOM     36  O   UNL d   1      -1.351  15.801  -9.851 -0.18 +0.07    -0.481    14.672
ATOM     37  H   UNL d   1      -0.584  15.202  -9.732 -0.39 -0.12    +0.295    14.672
ATOM     38  C   UNL d   1      -7.521   8.202  -7.662 -0.29 -0.00    +0.017    14.672
ATOM     39  C   UNL d   1      -6.882   7.025  -7.576 -0.38 -0.00    +0.092    14.672
ATOM     40  C   UNL d   1      -7.358   6.003  -6.640 -0.20 -0.01    +0.330    14.672
ATOM     41  O   UNL d   1      -6.723   5.440  -5.769 -0.36 +0.03    -0.246    14.672
ATOM     42  O   UNL d   1      -8.657   5.746  -6.858 -0.07 -0.01    -0.477    14.672
ATOM     43  H   UNL d   1      -8.858   6.236  -7.682 +0.09 +0.02    +0.295    14.672
ATOM     44  C   UNL d   1      -5.202  12.464 -17.436 -0.22 +0.01    +0.141    14.672
ATOM     45  C   UNL d   1      -5.007  12.119 -18.889 -0.16 +0.03    +0.306    14.672
ATOM     46  O   UNL d   1      -3.949  12.082 -19.492 -0.22 -0.03    -0.251    14.672
ATOM     47  O   UNL d   1      -6.169  11.863 -19.517 -0.01 -0.05    -0.481    14.672
ATOM     48  H   UNL d   1      -6.518  11.059 -19.076 +0.09 +0.03    +0.295    14.672
ATOM     49  C   UNL d   1     -11.421   7.899 -11.660 -0.08 -0.00    +0.048    14.672
ATOM     50  C   UNL d   1     -11.038   6.580 -10.988 -0.09 -0.00    +0.125    14.672
ATOM     51  C   UNL d   1     -11.385   6.603  -9.527 -0.05 +0.01    +0.305    14.672
ATOM     52  O   UNL d   1     -12.490   6.503  -9.023 -0.02 -0.00    -0.251    14.672
ATOM     53  O   UNL d   1     -10.294   6.766  -8.752 -0.42 -0.07    -0.481    14.672
ATOM     54  H   UNL d   1     -10.507   6.270  -7.934 +0.04 +0.02    +0.295    14.672
TER
ENDMDL
MODEL       55
USER    Run = 55
USER    Cluster Rank = 18
USER    Number of conformations in this cluster = 1
USER  
USER    RMSD from reference structure       = 11.573 A
USER  
USER    Estimated Free Energy of Binding    =   -5.13 kcal/mol  [=(1)+(2)+(3)-(4)]
USER    Estimated Inhibition Constant, Ki   =  174.69 uM (micromolar)  [Temperature = 298.15 K]
USER    
USER    (1) Final Intermolecular Energy     =   -9.00 kcal/mol
USER        vdW + Hbond + desolv Energy     =   -8.64 kcal/mol
USER        Electrostatic Energy            =   -0.37 kcal/mol
USER    (2) Final Total Internal Energy     =   -2.16 kcal/mol
USER    (3) Torsional Free Energy           =   +3.88 kcal/mol
USER    (4) Unbound System's Energy  [=(2)] =   -2.16 kcal/mol
USER    
USER    
USER  
USER    DPF = D:/Protein_go_brrr/autodock/final/mut_N102T/heme/dock.dpf
USER    NEWDPF move	heme_opt.pdbqt
USER    NEWDPF about	0.153000 0.018000 -0.028000
USER    NEWDPF tran0	-10.303781 -10.272683 4.035183
USER    NEWDPF axisangle0	0.907781 -0.057295 -0.415512 162.007809
USER    NEWDPF quaternion0	0.896615 -0.056591 -0.410401 0.156367
USER    NEWDPF dihe0	106.49 121.22 -71.60 147.97 -139.37 0.46 -179.97 -78.77 45.90 -104.00 5.99 64.19 -178.54 
USER  
USER                              x       y       z    vdW   Elec        q     RMS 
ATOM      1  O   UNL d   1     -14.842 -11.807   7.471 -0.01 +0.03    -0.289    11.573
ATOM      2  O   UNL d   1      -9.801  -6.282   8.141 -0.40 +0.36    -0.289    11.573
ATOM      3  N   UNL d   1     -12.241 -11.372   5.248 -0.02 +0.04    -0.247    11.573
ATOM      4  N   UNL d   1     -11.002  -8.822   6.137 -0.08 +0.06    -0.247    11.573
ATOM      5  N   UNL d   1      -9.559  -8.764   3.651 -0.06 +0.06    -0.354    11.573
ATOM      6  N   UNL d   1     -10.863 -11.400   2.729 -0.06 +0.02    -0.354    11.573
ATOM      7  C   UNL d   1     -14.194 -12.849   5.357 -0.05 -0.01    +0.084    11.573
ATOM      8  C   UNL d   1     -11.276  -8.205   8.486 -0.12 -0.03    +0.084    11.573
ATOM      9  C   UNL d   1     -11.609  -9.152   7.328 -0.10 -0.01    +0.058    11.573
ATOM     10  C   UNL d   1     -12.938 -12.386   4.613 -0.09 -0.01    +0.058    11.573
ATOM     11  C   UNL d   1     -14.074 -11.930   6.535 -0.03 -0.03    +0.193    11.573
ATOM     12  C   UNL d   1     -12.837 -11.103   6.364 -0.06 -0.02    +0.109    11.573
ATOM     13  C   UNL d   1     -10.397  -7.255   7.722 -0.23 -0.11    +0.193    11.573
ATOM     14  C   UNL d   1     -15.474 -12.508   4.590 -0.01 -0.00    +0.026    11.573
ATOM     15  C   UNL d   1     -12.460 -10.182   7.455 -0.08 -0.01    +0.055    11.573
ATOM     16  C   UNL d   1     -10.433  -8.898   9.561 -0.21 -0.01    +0.026    11.573
ATOM     17  C   UNL d   1     -10.319  -7.736   6.310 -0.24 -0.04    +0.109    11.573
ATOM     18  C   UNL d   1     -12.523 -12.996   3.486 -0.12 -0.01    +0.050    11.573
ATOM     19  C   UNL d   1     -11.332 -12.693   2.778 -0.09 -0.00    +0.045    11.573
ATOM     20  C   UNL d   1      -9.273  -7.507   4.119 -0.30 -0.02    +0.045    11.573
ATOM     21  C   UNL d   1      -9.556  -6.972   5.311 -0.31 -0.03    +0.057    11.573
ATOM     22  C   UNL d   1      -8.473  -7.701   1.988 -0.31 +0.00    -0.019    11.573
ATOM     23  C   UNL d   1      -9.116  -8.974   2.373 -0.20 -0.01    +0.045    11.573
ATOM     24  C   UNL d   1      -8.569  -6.838   3.027 -0.40 +0.01    -0.022    11.573
ATOM     25  C   UNL d   1      -9.755 -11.318   1.918 -0.17 -0.00    +0.049    11.573
ATOM     26  C   UNL d   1     -10.486 -13.478   2.010 -0.10 +0.00    -0.018    11.573
ATOM     27  C   UNL d   1      -9.481 -12.609   1.486 -0.18 -0.00    +0.003    11.573
ATOM     28  C   UNL d   1      -9.185 -10.059   1.587 -0.21 -0.01    +0.052    11.573
ATOM     29  C   UNL d   1      -8.063  -5.439   3.126 -0.24 -0.02    +0.046    11.573
ATOM     30  C   UNL d   1     -10.601 -14.947   1.778 -0.13 -0.00    +0.046    11.573
ATOM     31  H   UNL d   1      -9.984  -9.464   4.250 +0.07 -0.02    +0.166    11.573
ATOM     32  H   UNL d   1     -11.312 -10.622   3.198 +0.03 -0.01    +0.166    11.573
ATOM     33  C   UNL d   1     -14.185 -14.312   5.814 -0.06 -0.02    +0.141    11.573
ATOM     34  C   UNL d   1     -13.688 -14.475   7.224 -0.06 -0.05    +0.306    11.573
ATOM     35  O   UNL d   1     -12.522 -14.571   7.571 -0.22 +0.05    -0.251    11.573
ATOM     36  O   UNL d   1     -14.685 -14.507   8.126 +0.01 +0.06    -0.481    11.573
ATOM     37  H   UNL d   1     -14.971 -13.573   8.211 +0.02 -0.04    +0.295    11.573
ATOM     38  C   UNL d   1      -8.410 -13.010   0.624 -0.27 +0.00    +0.017    11.573
ATOM     39  C   UNL d   1      -7.283 -13.619   1.021 -0.35 +0.01    +0.092    11.573
ATOM     40  C   UNL d   1      -6.269 -13.994   0.032 -0.20 +0.12    +0.330    11.573
ATOM     41  O   UNL d   1      -6.316 -13.847  -1.175 -0.26 -0.15    -0.246    11.573
ATOM     42  O   UNL d   1      -5.210 -14.547   0.643 -0.16 -0.18    -0.477    11.573
ATOM     43  H   UNL d   1      -4.902 -13.848   1.257 -0.29 -0.03    +0.295    11.573
ATOM     44  C   UNL d   1     -12.470  -7.472   9.104 -0.05 -0.05    +0.141    11.573
ATOM     45  C   UNL d   1     -12.097  -6.161   9.744 -0.07 -0.19    +0.306    11.573
ATOM     46  O   UNL d   1     -12.697  -5.106   9.642 -0.06 +0.14    -0.251    11.573
ATOM     47  O   UNL d   1     -10.962  -6.244  10.462 -0.07 +0.50    -0.481    11.573
ATOM     48  H   UNL d   1     -10.295  -5.761   9.929 -0.36 -0.58    +0.295    11.573
ATOM     49  C   UNL d   1      -7.845  -7.445   0.650 -0.19 -0.01    +0.048    11.573
ATOM     50  C   UNL d   1      -8.790  -6.692  -0.287 -0.28 -0.01    +0.125    11.573
ATOM     51  C   UNL d   1      -8.208  -6.592  -1.669 -0.25 -0.01    +0.305    11.573
ATOM     52  O   UNL d   1      -7.428  -5.756  -2.088 -0.33 -0.02    -0.251    11.573
ATOM     53  O   UNL d   1      -8.661  -7.571  -2.478 -0.21 +0.03    -0.481    11.573
ATOM     54  H   UNL d   1      -8.795  -8.334  -1.878 -0.41 -0.10    +0.295    11.573
TER
ENDMDL
MODEL       83
USER    Run = 83
USER    Cluster Rank = 19
USER    Number of conformations in this cluster = 2
USER  
USER    RMSD from reference structure       = 14.477 A
USER  
USER    Estimated Free Energy of Binding    =   -5.11 kcal/mol  [=(1)+(2)+(3)-(4)]
USER    Estimated Inhibition Constant, Ki   =  178.94 uM (micromolar)  [Temperature = 298.15 K]
USER    
USER    (1) Final Intermolecular Energy     =   -8.99 kcal/mol
USER        vdW + Hbond + desolv Energy     =   -8.76 kcal/mol
USER        Electrostatic Energy            =   -0.23 kcal/mol
USER    (2) Final Total Internal Energy     =   -3.33 kcal/mol
USER    (3) Torsional Free Energy           =   +3.88 kcal/mol
USER    (4) Unbound System's Energy  [=(2)] =   -3.33 kcal/mol
USER    
USER    
USER  
USER    DPF = D:/Protein_go_brrr/autodock/final/mut_N102T/heme/dock.dpf
USER    NEWDPF move	heme_opt.pdbqt
USER    NEWDPF about	0.153000 0.018000 -0.028000
USER    NEWDPF tran0	-9.111541 -7.944961 12.391429
USER    NEWDPF axisangle0	-0.894842 0.319820 -0.311405 -147.096423
USER    NEWDPF quaternion0	-0.858206 0.306726 -0.298656 -0.283208
USER    NEWDPF dihe0	134.10 -122.18 -150.66 -51.05 -135.31 26.12 136.09 168.20 20.56 -44.07 -33.50 -100.91 31.29 
USER  
USER                              x       y       z    vdW   Elec        q     RMS 
ATOM      1  O   UNL d   1     -12.825  -4.946   8.931 -0.05 +0.15    -0.289    14.477
ATOM      2  O   UNL d   1     -10.147  -3.418  15.779 -0.24 -0.10    -0.289    14.477
ATOM      3  N   UNL d   1     -10.747  -7.098  10.648 -0.12 +0.19    -0.247    14.477
ATOM      4  N   UNL d   1      -9.989  -5.538  13.060 -0.01 +0.22    -0.247    14.477
ATOM      5  N   UNL d   1      -7.921  -7.474  13.549 -0.08 +0.11    -0.354    14.477
ATOM      6  N   UNL d   1      -8.702  -9.077  11.034 -0.07 +0.12    -0.354    14.477
ATOM      7  C   UNL d   1     -11.701  -7.048   8.390 -0.12 -0.04    +0.084    14.477
ATOM      8  C   UNL d   1     -11.549  -3.813  13.811 -0.06 -0.03    +0.084    14.477
ATOM      9  C   UNL d   1     -11.155  -4.865  12.769 +0.00 -0.05    +0.058    14.477
ATOM     10  C   UNL d   1     -10.820  -7.750   9.428 -0.18 -0.03    +0.058    14.477
ATOM     11  C   UNL d   1     -12.128  -5.893   9.246 -0.09 -0.12    +0.193    14.477
ATOM     12  C   UNL d   1     -11.505  -6.051  10.598 -0.10 -0.09    +0.109    14.477
ATOM     13  C   UNL d   1     -10.371  -3.987  14.728 -0.09 -0.01    +0.193    14.477
ATOM     14  C   UNL d   1     -10.885  -6.515   7.210 -0.32 -0.02    +0.026    14.477
ATOM     15  C   UNL d   1     -11.859  -5.073  11.646 -0.09 -0.04    +0.055    14.477
ATOM     16  C   UNL d   1     -12.822  -4.209  14.564 -0.01 -0.00    +0.026    14.477
ATOM     17  C   UNL d   1      -9.498  -5.056  14.156 -0.11 -0.04    +0.109    14.477
ATOM     18  C   UNL d   1     -10.252  -8.944   9.175 -0.23 -0.02    +0.050    14.477
ATOM     19  C   UNL d   1      -9.493  -9.706  10.100 -0.21 -0.01    +0.045    14.477
ATOM     20  C   UNL d   1      -7.574  -6.521  14.471 -0.19 -0.01    +0.045    14.477
ATOM     21  C   UNL d   1      -8.238  -5.415  14.823 -0.21 -0.00    +0.057    14.477
ATOM     22  C   UNL d   1      -5.944  -8.121  14.414 -0.30 +0.00    -0.019    14.477
ATOM     23  C   UNL d   1      -6.998  -8.480  13.444 -0.25 -0.01    +0.045    14.477
ATOM     24  C   UNL d   1      -6.292  -6.960  15.020 -0.24 +0.00    -0.022    14.477
ATOM     25  C   UNL d   1      -7.988  -9.999  11.764 -0.23 -0.01    +0.049    14.477
ATOM     26  C   UNL d   1      -9.317 -11.073  10.250 -0.27 +0.00    -0.018    14.477
ATOM     27  C   UNL d   1      -8.381 -11.253  11.315 -0.27 -0.00    +0.003    14.477
ATOM     28  C   UNL d   1      -6.986  -9.585  12.682 -0.30 -0.01    +0.052    14.477
ATOM     29  C   UNL d   1      -5.560  -6.204  16.076 -0.24 -0.01    +0.046    14.477
ATOM     30  C   UNL d   1      -9.979 -12.148   9.457 -0.28 -0.01    +0.046    14.477
ATOM     31  H   UNL d   1      -8.816  -7.445  13.074 +0.06 -0.07    +0.166    14.477
ATOM     32  H   UNL d   1      -8.637  -8.070  11.127 +0.06 -0.09    +0.166    14.477
ATOM     33  C   UNL d   1     -12.920  -7.846   7.916 -0.03 -0.04    +0.141    14.477
ATOM     34  C   UNL d   1     -13.954  -8.021   8.996 +0.01 -0.07    +0.306    14.477
ATOM     35  O   UNL d   1     -13.930  -8.852   9.888 -0.00 +0.05    -0.251    14.477
ATOM     36  O   UNL d   1     -14.963  -7.138   8.895 +0.01 +0.09    -0.481    14.477
ATOM     37  H   UNL d   1     -14.520  -6.270   8.782 +0.02 -0.07    +0.295    14.477
ATOM     38  C   UNL d   1      -7.905 -12.517  11.791 -0.28 -0.01    +0.017    14.477
ATOM     39  C   UNL d   1      -6.633 -12.940  11.723 -0.20 -0.03    +0.092    14.477
ATOM     40  C   UNL d   1      -6.271 -14.253  12.263 -0.19 -0.13    +0.330    14.477
ATOM     41  O   UNL d   1      -6.997 -15.216  12.426 -0.16 +0.11    -0.246    14.477
ATOM     42  O   UNL d   1      -4.965 -14.282  12.571 -0.11 +0.22    -0.477    14.477
ATOM     43  H   UNL d   1      -4.859 -13.547  13.210 +0.11 -0.11    +0.295    14.477
ATOM     44  C   UNL d   1     -11.635  -2.373  13.296 -0.10 -0.04    +0.141    14.477
ATOM     45  C   UNL d   1     -10.360  -1.595  13.489 -0.15 +0.03    +0.306    14.477
ATOM     46  O   UNL d   1      -9.445  -1.489  12.690 -0.37 +0.03    -0.251    14.477
ATOM     47  O   UNL d   1     -10.291  -1.012  14.699 -0.34 -0.32    -0.481    14.477
ATOM     48  H   UNL d   1     -10.825  -1.590  15.284 +0.06 +0.14    +0.295    14.477
ATOM     49  C   UNL d   1      -4.702  -8.929  14.646 -0.21 -0.01    +0.048    14.477
ATOM     50  C   UNL d   1      -5.022 -10.396  14.929 -0.28 -0.02    +0.125    14.477
ATOM     51  C   UNL d   1      -3.941 -11.294  14.397 -0.20 -0.07    +0.305    14.477
ATOM     52  O   UNL d   1      -3.720 -12.453  14.701 -0.57 +0.08    -0.251    14.477
ATOM     53  O   UNL d   1      -3.164 -10.665  13.492 -0.58 +0.14    -0.481    14.477
ATOM     54  H   UNL d   1      -2.251 -10.823  13.812 -0.36 -0.18    +0.295    14.477
TER
ENDMDL
MODEL       86
USER    Run = 86
USER    Cluster Rank = 20
USER    Number of conformations in this cluster = 2
USER  
USER    RMSD from reference structure       = 12.429 A
USER  
USER    Estimated Free Energy of Binding    =   -5.09 kcal/mol  [=(1)+(2)+(3)-(4)]
USER    Estimated Inhibition Constant, Ki   =  186.60 uM (micromolar)  [Temperature = 298.15 K]
USER    
USER    (1) Final Intermolecular Energy     =   -8.97 kcal/mol
USER        vdW + Hbond + desolv Energy     =   -8.66 kcal/mol
USER        Electrostatic Energy            =   -0.31 kcal/mol
USER    (2) Final Total Internal Energy     =   -2.08 kcal/mol
USER    (3) Torsional Free Energy           =   +3.88 kcal/mol
USER    (4) Unbound System's Energy  [=(2)] =   -2.08 kcal/mol
USER    
USER    
USER  
USER    DPF = D:/Protein_go_brrr/autodock/final/mut_N102T/heme/dock.dpf
USER    NEWDPF move	heme_opt.pdbqt
USER    NEWDPF about	0.153000 0.018000 -0.028000
USER    NEWDPF tran0	-6.182778 11.460319 -7.950079
USER    NEWDPF axisangle0	-0.509721 0.438855 -0.739994 156.939322
USER    NEWDPF quaternion0	-0.499434 0.429998 -0.725060 0.199887
USER    NEWDPF dihe0	-129.64 0.69 -179.60 -125.18 51.63 -135.91 -54.81 -14.64 161.10 -127.10 52.92 -90.95 -37.38 
USER  
USER                              x       y       z    vdW   Elec        q     RMS 
ATOM      1  O   UNL d   1      -4.676  10.781 -13.609 -0.27 +0.08    -0.289    12.429
ATOM      2  O   UNL d   1      -2.450  15.798  -8.484 -0.60 -0.05    -0.289    12.429
ATOM      3  N   UNL d   1      -5.954  10.873 -10.407 -0.08 +0.01    -0.247    12.429
ATOM      4  N   UNL d   1      -4.288  12.936  -9.066 -0.18 +0.01    -0.247    12.429
ATOM      5  N   UNL d   1      -5.337  12.016  -6.552 -0.09 -0.00    -0.354    12.429
ATOM      6  N   UNL d   1      -7.047   9.865  -7.950 -0.07 +0.01    -0.354    12.429
ATOM      7  C   UNL d   1      -6.200   9.366 -12.324 -0.29 -0.02    +0.084    12.429
ATOM      8  C   UNL d   1      -3.282  14.655 -10.482 -0.20 -0.01    +0.084    12.429
ATOM      9  C   UNL d   1      -4.086  13.356 -10.362 -0.22 -0.01    +0.058    12.429
ATOM     10  C   UNL d   1      -6.554   9.717 -10.876 -0.21 -0.01    +0.058    12.429
ATOM     11  C   UNL d   1      -5.308  10.540 -12.597 -0.22 -0.03    +0.193    12.429
ATOM     12  C   UNL d   1      -5.260  11.392 -11.367 -0.16 -0.01    +0.109    12.429
ATOM     13  C   UNL d   1      -3.034  14.874  -9.017 -0.18 +0.00    +0.193    12.429
ATOM     14  C   UNL d   1      -5.372   8.082 -12.418 -0.21 -0.01    +0.026    12.429
ATOM     15  C   UNL d   1      -4.510  12.663 -11.430 -0.25 -0.01    +0.055    12.429
ATOM     16  C   UNL d   1      -4.140  15.806 -11.014 -0.08 -0.00    +0.026    12.429
ATOM     17  C   UNL d   1      -3.689  13.760  -8.267 -0.23 +0.00    +0.109    12.429
ATOM     18  C   UNL d   1      -7.447   8.992 -10.175 -0.23 -0.01    +0.050    12.429
ATOM     19  C   UNL d   1      -7.899   9.289  -8.864 -0.15 -0.00    +0.045    12.429
ATOM     20  C   UNL d   1      -4.347  12.851  -6.103 -0.25 +0.00    +0.045    12.429
ATOM     21  C   UNL d   1      -3.574  13.687  -6.803 -0.26 +0.00    +0.057    12.429
ATOM     22  C   UNL d   1      -5.230  11.728  -4.320 -0.18 -0.00    -0.019    12.429
ATOM     23  C   UNL d   1      -5.928  11.296  -5.548 -0.17 +0.00    +0.045    12.429
ATOM     24  C   UNL d   1      -4.296  12.649  -4.655 -0.25 -0.00    -0.022    12.429
ATOM     25  C   UNL d   1      -7.660   9.980  -6.723 -0.12 -0.00    +0.049    12.429
ATOM     26  C   UNL d   1      -9.108   9.057  -8.226 -0.09 +0.00    -0.018    12.429
ATOM     27  C   UNL d   1      -8.957   9.513  -6.881 -0.08 -0.00    +0.003    12.429
ATOM     28  C   UNL d   1      -6.929  10.403  -5.580 +0.00 +0.00    +0.052    12.429
ATOM     29  C   UNL d   1      -3.351  13.385  -3.767 -0.30 +0.02    +0.046    12.429
ATOM     30  C   UNL d   1     -10.330   8.450  -8.828 -0.08 +0.00    +0.046    12.429
ATOM     31  H   UNL d   1      -5.627  12.019  -7.524 +0.06 -0.00    +0.166    12.429
ATOM     32  H   UNL d   1      -6.090  10.124  -8.161 +0.07 -0.00    +0.166    12.429
ATOM     33  C   UNL d   1      -7.379   9.348 -13.303 -0.23 -0.03    +0.141    12.429
ATOM     34  C   UNL d   1      -7.169   8.392 -14.446 -0.27 -0.07    +0.306    12.429
ATOM     35  O   UNL d   1      -7.714   7.311 -14.591 -0.26 +0.04    -0.251    12.429
ATOM     36  O   UNL d   1      -6.283   8.850 -15.348 -0.16 +0.11    -0.481    12.429
ATOM     37  H   UNL d   1      -5.519   9.154 -14.812 -0.31 -0.16    +0.295    12.429
ATOM     38  C   UNL d   1      -9.968   9.446  -5.869 -0.05 -0.00    +0.017    12.429
ATOM     39  C   UNL d   1      -9.820   8.876  -4.663 -0.05 -0.00    +0.092    12.429
ATOM     40  C   UNL d   1     -10.931   8.890  -3.707 -0.01 -0.00    +0.330    12.429
ATOM     41  O   UNL d   1     -10.880   9.103  -2.511 -0.01 -0.00    -0.246    12.429
ATOM     42  O   UNL d   1     -12.086   8.634  -4.339 +0.00 -0.00    -0.477    12.429
ATOM     43  H   UNL d   1     -12.757   8.675  -3.627 +0.00 +0.00    +0.295    12.429
ATOM     44  C   UNL d   1      -1.962  14.545 -11.252 -0.21 -0.02    +0.141    12.429
ATOM     45  C   UNL d   1      -1.178  15.830 -11.273 -0.16 -0.03    +0.306    12.429
ATOM     46  O   UNL d   1      -1.143  16.646 -12.178 -0.08 +0.00    -0.251    12.429
ATOM     47  O   UNL d   1      -0.452  16.008 -10.155 -0.12 +0.13    -0.481    12.429
ATOM     48  H   UNL d   1      -0.646  15.219  -9.605 -0.35 -0.11    +0.295    12.429
ATOM     49  C   UNL d   1      -5.528  11.194  -2.950 -0.14 +0.01    +0.048    12.429
ATOM     50  C   UNL d   1      -5.955  12.302  -1.988 -0.12 +0.03    +0.125    12.429
ATOM     51  C   UNL d   1      -5.109  12.291  -0.747 -0.04 +0.15    +0.305    12.429
ATOM     52  O   UNL d   1      -4.448  11.367  -0.306 -0.53 -0.15    -0.251    12.429
ATOM     53  O   UNL d   1      -5.148  13.473  -0.100 -0.03 -0.26    -0.481    12.429
ATOM     54  H   UNL d   1      -6.104  13.636   0.040 +0.05 +0.08    +0.295    12.429
TER
ENDMDL
MODEL       76
USER    Run = 76
USER    Cluster Rank = 21
USER    Number of conformations in this cluster = 1
USER  
USER    RMSD from reference structure       = 19.441 A
USER  
USER    Estimated Free Energy of Binding    =   -4.90 kcal/mol  [=(1)+(2)+(3)-(4)]
USER    Estimated Inhibition Constant, Ki   =  257.06 uM (micromolar)  [Temperature = 298.15 K]
USER    
USER    (1) Final Intermolecular Energy     =   -8.78 kcal/mol
USER        vdW + Hbond + desolv Energy     =   -7.92 kcal/mol
USER        Electrostatic Energy            =   -0.85 kcal/mol
USER    (2) Final Total Internal Energy     =   -4.21 kcal/mol
USER    (3) Torsional Free Energy           =   +3.88 kcal/mol
USER    (4) Unbound System's Energy  [=(2)] =   -4.21 kcal/mol
USER    
USER    
USER  
USER    DPF = D:/Protein_go_brrr/autodock/final/mut_N102T/heme/dock.dpf
USER    NEWDPF move	heme_opt.pdbqt
USER    NEWDPF about	0.153000 0.018000 -0.028000
USER    NEWDPF tran0	9.517538 16.910564 11.285738
USER    NEWDPF axisangle0	0.225807 -0.919068 0.322995 -123.739501
USER    NEWDPF quaternion0	0.199134 -0.810506 0.284842 -0.471478
USER    NEWDPF dihe0	142.13 151.55 -109.27 55.16 -136.14 76.94 171.26 -44.31 21.91 23.47 -94.65 -86.85 -10.10 
USER  
USER                              x       y       z    vdW   Elec        q     RMS 
ATOM      1  O   UNL d   1      10.768  18.075   5.643 -0.04 -0.13    -0.289    19.441
ATOM      2  O   UNL d   1      14.676  14.405  10.902 -0.09 -0.03    -0.289    19.441
ATOM      3  N   UNL d   1       9.676  17.754   8.899 -0.07 -0.03    -0.247    19.441
ATOM      4  N   UNL d   1      11.683  15.933  10.117 -0.07 -0.00    -0.247    19.441
ATOM      5  N   UNL d   1       9.893  15.597  12.341 -0.11 +0.03    -0.354    19.441
ATOM      6  N   UNL d   1       7.807  17.473  11.062 -0.16 +0.07    -0.354    19.441
ATOM      7  C   UNL d   1       8.714  18.656   6.833 -0.09 +0.01    +0.084    19.441
ATOM      8  C   UNL d   1      13.916  15.906   9.124 -0.07 +0.01    +0.084    19.441
ATOM      9  C   UNL d   1      12.465  16.397   9.083 -0.12 +0.01    +0.058    19.441
ATOM     10  C   UNL d   1       8.566  18.353   8.327 -0.14 +0.00    +0.058    19.441
ATOM     11  C   UNL d   1      10.111  18.140   6.666 -0.07 +0.07    +0.193    19.441
ATOM     12  C   UNL d   1      10.594  17.645   7.994 -0.11 +0.03    +0.109    19.441
ATOM     13  C   UNL d   1      13.803  15.047  10.352 -0.11 +0.02    +0.193    19.441
ATOM     14  C   UNL d   1       7.768  17.809   5.978 -0.23 +0.00    +0.026    19.441
ATOM     15  C   UNL d   1      11.989  17.171   8.095 -0.12 +0.02    +0.055    19.441
ATOM     16  C   UNL d   1      14.895  17.048   9.411 -0.02 +0.00    +0.026    19.441
ATOM     17  C   UNL d   1      12.398  15.144  10.853 -0.17 +0.00    +0.109    19.441
ATOM     18  C   UNL d   1       7.473  18.730   9.016 -0.24 -0.01    +0.050    19.441
ATOM     19  C   UNL d   1       7.284  18.568  10.413 -0.20 -0.01    +0.045    19.441
ATOM     20  C   UNL d   1      10.814  14.625  12.632 -0.22 +0.00    +0.045    19.441
ATOM     21  C   UNL d   1      11.979  14.367  12.029 +0.04 +0.00    +0.057    19.441
ATOM     22  C   UNL d   1       9.070  14.451  14.097 -0.28 +0.00    -0.019    19.441
ATOM     23  C   UNL d   1       8.805  15.571  13.172 -0.26 -0.01    +0.045    19.441
ATOM     24  C   UNL d   1      10.262  13.896  13.773 -0.26 +0.00    -0.022    19.441
ATOM     25  C   UNL d   1       7.430  17.469  12.384 -0.23 -0.01    +0.049    19.441
ATOM     26  C   UNL d   1       6.580  19.314  11.345 -0.21 +0.00    -0.018    19.441
ATOM     27  C   UNL d   1       6.692  18.626  12.592 -0.22 -0.00    +0.003    19.441
ATOM     28  C   UNL d   1       7.718  16.357  13.222 -0.28 -0.01    +0.052    19.441
ATOM     29  C   UNL d   1      10.964  12.750  14.419 -0.25 +0.00    +0.046    19.441
ATOM     30  C   UNL d   1       5.850  20.590  11.096 -0.11 -0.02    +0.046    19.441
ATOM     31  H   UNL d   1      10.072  16.296  11.629 +0.05 -0.01    +0.166    19.441
ATOM     32  H   UNL d   1       8.357  16.758  10.600 +0.06 -0.01    +0.166    19.441
ATOM     33  C   UNL d   1       8.639  20.139   6.453 -0.02 -0.01    +0.141    19.441
ATOM     34  C   UNL d   1       9.836  20.919   6.925 +0.01 -0.01    +0.306    19.441
ATOM     35  O   UNL d   1      10.007  21.369   8.045 -0.00 +0.01    -0.251    19.441
ATOM     36  O   UNL d   1      10.757  21.088   5.959 +0.01 -0.00    -0.481    19.441
ATOM     37  H   UNL d   1      10.784  20.227   5.490 +0.01 +0.02    +0.295    19.441
ATOM     38  C   UNL d   1       6.096  19.048  13.824 -0.20 -0.01    +0.017    19.441
ATOM     39  C   UNL d   1       5.355  18.273  14.631 -0.16 -0.06    +0.092    19.441
ATOM     40  C   UNL d   1       4.815  18.823  15.877 -0.10 -0.25    +0.330    19.441
ATOM     41  O   UNL d   1       3.879  19.588  16.007 -0.11 +0.12    -0.246    19.441
ATOM     42  O   UNL d   1       5.505  18.352  16.927 -0.01 +0.52    -0.477    19.441
ATOM     43  H   UNL d   1       5.825  17.477  16.625 -0.46 -0.53    +0.295    19.441
ATOM     44  C   UNL d   1      14.368  15.079   7.915 -0.08 +0.04    +0.141    19.441
ATOM     45  C   UNL d   1      13.234  14.370   7.224 -0.13 +0.25    +0.306    19.441
ATOM     46  O   UNL d   1      12.963  14.419   6.037 -0.27 -0.40    -0.251    19.441
ATOM     47  O   UNL d   1      12.480  13.651   8.075 -0.43 -0.28    -0.481    19.441
ATOM     48  H   UNL d   1      12.007  14.321   8.613 -0.45 +0.07    +0.295    19.441
ATOM     49  C   UNL d   1       8.138  14.023  15.192 -0.37 -0.01    +0.048    19.441
ATOM     50  C   UNL d   1       8.482  14.687  16.525 -0.16 -0.03    +0.125    19.441
ATOM     51  C   UNL d   1       7.820  16.031  16.641 -0.04 -0.19    +0.305    19.441
ATOM     52  O   UNL d   1       7.837  16.940  15.831 -0.10 +0.13    -0.251    19.441
ATOM     53  O   UNL d   1       7.162  16.169  17.810 +0.01 +0.47    -0.481    19.441
ATOM     54  H   UNL d   1       6.251  16.412  17.543 -0.47 -0.71    +0.295    19.441
TER
ENDMDL
MODEL       23
USER    Run = 23
USER    Cluster Rank = 22
USER    Number of conformations in this cluster = 1
USER  
USER    RMSD from reference structure       = 19.553 A
USER  
USER    Estimated Free Energy of Binding    =   -4.88 kcal/mol  [=(1)+(2)+(3)-(4)]
USER    Estimated Inhibition Constant, Ki   =  265.61 uM (micromolar)  [Temperature = 298.15 K]
USER    
USER    (1) Final Intermolecular Energy     =   -8.76 kcal/mol
USER        vdW + Hbond + desolv Energy     =   -8.58 kcal/mol
USER        Electrostatic Energy            =   -0.18 kcal/mol
USER    (2) Final Total Internal Energy     =   -3.12 kcal/mol
USER    (3) Torsional Free Energy           =   +3.88 kcal/mol
USER    (4) Unbound System's Energy  [=(2)] =   -3.12 kcal/mol
USER    
USER    
USER  
USER    DPF = D:/Protein_go_brrr/autodock/final/mut_N102T/heme/dock.dpf
USER    NEWDPF move	heme_opt.pdbqt
USER    NEWDPF about	0.153000 0.018000 -0.028000
USER    NEWDPF tran0	6.293375 12.778237 -16.599519
USER    NEWDPF axisangle0	0.412107 -0.782708 0.466408 -93.038259
USER    NEWDPF quaternion0	0.299027 -0.567936 0.338427 -0.688112
USER    NEWDPF dihe0	170.97 168.62 -139.07 -71.70 -149.53 130.64 128.18 -73.50 11.11 -29.38 49.00 -170.32 101.19 
USER  
USER                              x       y       z    vdW   Elec        q     RMS 
ATOM      1  O   UNL d   1       3.852  12.555 -21.961 -0.03 +0.01    -0.289    19.553
ATOM      2  O   UNL d   1      10.777  10.831 -19.623 -0.01 -0.03    -0.289    19.553
ATOM      3  N   UNL d   1       4.882  12.981 -18.697 -0.04 +0.19    -0.247    19.553
ATOM      4  N   UNL d   1       7.594  11.769 -18.673 -0.08 +0.15    -0.247    19.553
ATOM      5  N   UNL d   1       7.498  11.835 -15.800 -0.03 +0.27    -0.354    19.553
ATOM      6  N   UNL d   1       4.676  13.074 -15.834 -0.13 +0.27    -0.354    19.553
ATOM      7  C   UNL d   1       2.746  13.202 -19.879 -0.21 -0.00    +0.084    19.553
ATOM      8  C   UNL d   1       8.817  11.724 -20.788 -0.02 -0.00    +0.084    19.553
ATOM      9  C   UNL d   1       7.525  12.028 -20.024 -0.08 -0.01    +0.058    19.553
ATOM     10  C   UNL d   1       3.537  13.285 -18.570 -0.16 -0.02    +0.058    19.553
ATOM     11  C   UNL d   1       3.886  12.814 -20.772 -0.08 -0.03    +0.193    19.553
ATOM     12  C   UNL d   1       5.131  12.738 -19.943 -0.08 -0.05    +0.109    19.553
ATOM     13  C   UNL d   1       9.621  11.208 -19.628 -0.04 +0.01    +0.193    19.553
ATOM     14  C   UNL d   1       1.722  12.064 -19.860 -0.15 +0.00    +0.026    19.553
ATOM     15  C   UNL d   1       6.408  12.460 -20.629 -0.08 -0.01    +0.055    19.553
ATOM     16  C   UNL d   1       9.479  13.000 -21.317 -0.00 -0.00    +0.026    19.553
ATOM     17  C   UNL d   1       8.763  11.281 -18.406 -0.12 -0.01    +0.109    19.553
ATOM     18  C   UNL d   1       2.964  13.710 -17.428 -0.38 -0.01    +0.050    19.553
ATOM     19  C   UNL d   1       3.634  13.899 -16.193 -0.29 -0.02    +0.045    19.553
ATOM     20  C   UNL d   1       8.626  11.077 -15.981 -0.20 -0.01    +0.045    19.553
ATOM     21  C   UNL d   1       9.275  10.798 -17.115 -0.18 -0.00    +0.057    19.553
ATOM     22  C   UNL d   1       8.104  11.106 -13.757 -0.25 +0.01    -0.019    19.553
ATOM     23  C   UNL d   1       7.106  11.910 -14.490 -0.24 -0.02    +0.045    19.553
ATOM     24  C   UNL d   1       9.002  10.617 -14.644 -0.24 +0.00    -0.022    19.553
ATOM     25  C   UNL d   1       5.116  13.376 -14.566 -0.28 -0.02    +0.049    19.553
ATOM     26  C   UNL d   1       3.416  14.783 -15.147 -0.24 +0.00    -0.018    19.553
ATOM     27  C   UNL d   1       4.368  14.461 -14.131 -0.24 -0.00    +0.003    19.553
ATOM     28  C   UNL d   1       6.081  12.559 -13.916 -0.32 -0.03    +0.052    19.553
ATOM     29  C   UNL d   1      10.196   9.763 -14.388 -0.23 -0.00    +0.046    19.553
ATOM     30  C   UNL d   1       2.389  15.863 -15.093 -0.21 +0.00    +0.046    19.553
ATOM     31  H   UNL d   1       7.074  12.338 -16.572 -0.28 -0.18    +0.166    19.553
ATOM     32  H   UNL d   1       5.027  12.327 -16.421 -0.51 -0.32    +0.166    19.553
ATOM     33  C   UNL d   1       2.116  14.517 -20.351 -0.15 +0.03    +0.141    19.553
ATOM     34  C   UNL d   1       3.135  15.603 -20.566 -0.04 +0.06    +0.306    19.553
ATOM     35  O   UNL d   1       3.451  16.464 -19.762 -0.03 -0.05    -0.251    19.553
ATOM     36  O   UNL d   1       3.706  15.545 -21.782 +0.01 -0.06    -0.481    19.553
ATOM     37  H   UNL d   1       3.429  14.677 -22.143 +0.04 +0.03    +0.295    19.553
ATOM     38  C   UNL d   1       4.481  15.123 -12.866 -0.17 -0.01    +0.017    19.553
ATOM     39  C   UNL d   1       3.456  15.420 -12.053 -0.19 -0.03    +0.092    19.553
ATOM     40  C   UNL d   1       3.709  16.086 -10.773 -0.12 -0.11    +0.330    19.553
ATOM     41  O   UNL d   1       3.178  17.091 -10.340 -0.08 +0.06    -0.246    19.553
ATOM     42  O   UNL d   1       4.646  15.418 -10.082 -0.10 +0.19    -0.477    19.553
ATOM     43  H   UNL d   1       4.742  14.576 -10.572 -0.32 -0.18    +0.295    19.553
ATOM     44  C   UNL d   1       8.700  10.664 -21.888 -0.02 +0.01    +0.141    19.553
ATOM     45  C   UNL d   1       8.704   9.254 -21.358 -0.05 +0.11    +0.306    19.553
ATOM     46  O   UNL d   1       7.744   8.636 -20.930 -0.25 -0.21    -0.251    19.553
ATOM     47  O   UNL d   1       9.931   8.703 -21.370 -0.02 -0.15    -0.481    19.553
ATOM     48  H   UNL d   1      10.530   9.426 -21.088 +0.02 +0.06    +0.295    19.553
ATOM     49  C   UNL d   1       8.079  10.881 -12.274 -0.24 -0.01    +0.048    19.553
ATOM     50  C   UNL d   1       6.708  11.194 -11.674 -0.19 -0.05    +0.125    19.553
ATOM     51  C   UNL d   1       6.839  12.100 -10.482 -0.18 -0.11    +0.305    19.553
ATOM     52  O   UNL d   1       7.149  11.792  -9.345 -0.66 +0.06    -0.251    19.553
ATOM     53  O   UNL d   1       6.552  13.381 -10.789 -0.03 +0.23    -0.481    19.553
ATOM     54  H   UNL d   1       5.685  13.540 -10.361 -0.41 -0.19    +0.295    19.553
TER
ENDMDL
MODEL       82
USER    Run = 82
USER    Cluster Rank = 23
USER    Number of conformations in this cluster = 1
USER  
USER    RMSD from reference structure       = 14.171 A
USER  
USER    Estimated Free Energy of Binding    =   -4.83 kcal/mol  [=(1)+(2)+(3)-(4)]
USER    Estimated Inhibition Constant, Ki   =  287.96 uM (micromolar)  [Temperature = 298.15 K]
USER    
USER    (1) Final Intermolecular Energy     =   -8.71 kcal/mol
USER        vdW + Hbond + desolv Energy     =   -8.15 kcal/mol
USER        Electrostatic Energy            =   -0.56 kcal/mol
USER    (2) Final Total Internal Energy     =   -1.78 kcal/mol
USER    (3) Torsional Free Energy           =   +3.88 kcal/mol
USER    (4) Unbound System's Energy  [=(2)] =   -1.78 kcal/mol
USER    
USER    
USER  
USER    DPF = D:/Protein_go_brrr/autodock/final/mut_N102T/heme/dock.dpf
USER    NEWDPF move	heme_opt.pdbqt
USER    NEWDPF about	0.153000 0.018000 -0.028000
USER    NEWDPF tran0	14.515676 3.978719 7.575554
USER    NEWDPF axisangle0	-0.186052 -0.979416 0.078294 78.274959
USER    NEWDPF quaternion0	-0.117433 -0.618191 0.049418 0.775634
USER    NEWDPF dihe0	-110.71 -33.60 -107.85 -5.45 45.39 -163.49 -6.20 147.62 142.29 141.20 86.44 50.19 164.25 
USER  
USER                              x       y       z    vdW   Elec        q     RMS 
ATOM      1  O   UNL d   1      14.209   5.071  13.361 -0.13 -0.14    -0.289    14.171
ATOM      2  O   UNL d   1      11.331  -0.508   9.239 -0.61 -0.22    -0.289    14.171
ATOM      3  N   UNL d   1      14.542   4.918   9.931 +0.00 -0.05    -0.247    14.171
ATOM      4  N   UNL d   1      13.377   2.271   9.249 -0.12 -0.06    -0.247    14.171
ATOM      5  N   UNL d   1      14.554   2.530   6.639 +0.00 -0.07    -0.354    14.171
ATOM      6  N   UNL d   1      15.776   5.266   7.361 +0.20 -0.06    -0.354    14.171
ATOM      7  C   UNL d   1      15.430   6.374  11.692 -0.16 +0.02    +0.084    14.171
ATOM      8  C   UNL d   1      11.704   1.359  10.778 -0.25 +0.03    +0.084    14.171
ATOM      9  C   UNL d   1      12.732   2.447  10.452 -0.26 +0.01    +0.058    14.171
ATOM     10  C   UNL d   1      15.352   6.008  10.207 -0.19 +0.01    +0.058    14.171
ATOM     11  C   UNL d   1      14.507   5.310  12.205 -0.15 +0.06    +0.193    14.171
ATOM     12  C   UNL d   1      14.015   4.510  11.039 -0.22 +0.03    +0.109    14.171
ATOM     13  C   UNL d   1      11.913   0.512   9.554 -0.22 +0.09    +0.193    14.171
ATOM     14  C   UNL d   1      16.828   6.138  12.269 -0.07 +0.00    +0.026    14.171
ATOM     15  C   UNL d   1      13.013   3.455  11.293 -0.31 +0.02    +0.055    14.171
ATOM     16  C   UNL d   1      10.273   1.905  10.761 -0.43 +0.01    +0.026    14.171
ATOM     17  C   UNL d   1      12.957   1.171   8.713 -0.25 +0.03    +0.109    14.171
ATOM     18  C   UNL d   1      15.956   6.756   9.265 -0.18 +0.01    +0.050    14.171
ATOM     19  C   UNL d   1      15.871   6.543   7.866 -0.11 +0.01    +0.045    14.171
ATOM     20  C   UNL d   1      14.144   1.223   6.584 -0.25 +0.01    +0.045    14.171
ATOM     21  C   UNL d   1      13.402   0.540   7.462 -0.32 +0.02    +0.057    14.171
ATOM     22  C   UNL d   1      15.381   1.687   4.720 -0.24 -0.00    -0.019    14.171
ATOM     23  C   UNL d   1      15.307   2.901   5.557 -0.22 +0.01    +0.045    14.171
ATOM     24  C   UNL d   1      14.689   0.697   5.333 -0.27 -0.00    -0.022    14.171
ATOM     25  C   UNL d   1      15.796   5.287   5.986 -0.07 +0.01    +0.049    14.171
ATOM     26  C   UNL d   1      15.916   7.419   6.792 -0.16 -0.00    -0.018    14.171
ATOM     27  C   UNL d   1      15.849   6.621   5.608 -0.16 +0.00    +0.003    14.171
ATOM     28  C   UNL d   1      15.867   4.079   5.240 -0.22 +0.01    +0.052    14.171
ATOM     29  C   UNL d   1      14.464  -0.704   4.876 -0.24 +0.01    +0.046    14.171
ATOM     30  C   UNL d   1      16.014   8.905   6.858 -0.15 +0.01    +0.046    14.171
ATOM     31  H   UNL d   1      14.243   3.148   7.380 +0.14 +0.04    +0.166    14.171
ATOM     32  H   UNL d   1      15.739   4.436   7.941 +0.04 +0.03    +0.166    14.171
ATOM     33  C   UNL d   1      14.900   7.766  12.054 -0.25 +0.04    +0.141    14.171
ATOM     34  C   UNL d   1      15.221   8.157  13.471 -0.13 +0.09    +0.306    14.171
ATOM     35  O   UNL d   1      16.133   8.883  13.829 -0.06 -0.05    -0.251    14.171
ATOM     36  O   UNL d   1      14.373   7.615  14.363 -0.06 -0.27    -0.481    14.171
ATOM     37  H   UNL d   1      14.554   6.652  14.322 +0.07 +0.18    +0.295    14.171
ATOM     38  C   UNL d   1      15.883   7.127   4.269 -0.19 +0.00    +0.017    14.171
ATOM     39  C   UNL d   1      14.806   7.430   3.528 -0.28 +0.00    +0.092    14.171
ATOM     40  C   UNL d   1      14.977   7.958   2.172 -0.12 -0.07    +0.330    14.171
ATOM     41  O   UNL d   1      14.141   8.500   1.474 -0.20 +0.06    -0.246    14.171
ATOM     42  O   UNL d   1      16.242   7.776   1.762 -0.04 +0.15    -0.477    14.171
ATOM     43  H   UNL d   1      16.156   7.618   0.799 -0.45 -0.41    +0.295    14.171
ATOM     44  C   UNL d   1      11.975   0.555  12.054 -0.11 +0.04    +0.141    14.171
ATOM     45  C   UNL d   1      11.313   1.137  13.275 -0.10 +0.09    +0.306    14.171
ATOM     46  O   UNL d   1      11.368   2.296  13.649 -0.22 -0.10    -0.251    14.171
ATOM     47  O   UNL d   1      10.634   0.215  13.981 -0.02 -0.13    -0.481    14.171
ATOM     48  H   UNL d   1      11.329  -0.342  14.393 +0.06 +0.08    +0.295    14.171
ATOM     49  C   UNL d   1      16.125   1.604   3.420 -0.08 +0.02    +0.048    14.171
ATOM     50  C   UNL d   1      17.623   1.387   3.635 -0.09 +0.04    +0.125    14.171
ATOM     51  C   UNL d   1      18.355   2.698   3.669 -0.05 +0.12    +0.305    14.171
ATOM     52  O   UNL d   1      19.287   3.011   4.389 -0.01 -0.06    -0.251    14.171
ATOM     53  O   UNL d   1      17.855   3.578   2.778 -0.28 -0.48    -0.481    14.171
ATOM     54  H   UNL d   1      18.343   4.408   2.963 +0.03 +0.23    +0.295    14.171
TER
ENDMDL
MODEL       77
USER    Run = 77
USER    Cluster Rank = 24
USER    Number of conformations in this cluster = 2
USER  
USER    RMSD from reference structure       = 18.387 A
USER  
USER    Estimated Free Energy of Binding    =   -4.82 kcal/mol  [=(1)+(2)+(3)-(4)]
USER    Estimated Inhibition Constant, Ki   =  290.71 uM (micromolar)  [Temperature = 298.15 K]
USER    
USER    (1) Final Intermolecular Energy     =   -8.70 kcal/mol
USER        vdW + Hbond + desolv Energy     =   -8.16 kcal/mol
USER        Electrostatic Energy            =   -0.55 kcal/mol
USER    (2) Final Total Internal Energy     =   -3.68 kcal/mol
USER    (3) Torsional Free Energy           =   +3.88 kcal/mol
USER    (4) Unbound System's Energy  [=(2)] =   -3.68 kcal/mol
USER    
USER    
USER  
USER    DPF = D:/Protein_go_brrr/autodock/final/mut_N102T/heme/dock.dpf
USER    NEWDPF move	heme_opt.pdbqt
USER    NEWDPF about	0.153000 0.018000 -0.028000
USER    NEWDPF tran0	-4.496200 5.257550 18.791953
USER    NEWDPF axisangle0	-0.057824 -0.969121 0.239710 148.737358
USER    NEWDPF quaternion0	-0.055685 -0.933279 0.230844 0.269446
USER    NEWDPF dihe0	158.64 -168.95 178.38 -55.35 70.85 59.46 -42.54 -79.06 152.60 -87.66 -100.44 -58.32 -11.29 
USER  
USER                              x       y       z    vdW   Elec        q     RMS 
ATOM      1  O   UNL d   1       0.960   6.572  20.596 -0.12 +0.10    -0.289    18.387
ATOM      2  O   UNL d   1      -4.102   1.740  23.321 -0.02 +0.10    -0.289    18.387
ATOM      3  N   UNL d   1      -2.205   6.235  19.268 -0.08 +0.07    -0.247    18.387
ATOM      4  N   UNL d   1      -3.335   3.934  20.769 -0.09 +0.12    -0.247    18.387
ATOM      5  N   UNL d   1      -5.443   3.814  18.818 -0.07 +0.01    -0.354    18.387
ATOM      6  N   UNL d   1      -4.253   6.190  17.255 -0.17 +0.05    -0.354    18.387
ATOM      7  C   UNL d   1      -0.191   7.485  18.642 -0.20 -0.02    +0.084    18.387
ATOM      8  C   UNL d   1      -2.437   3.506  23.002 -0.07 -0.06    +0.084    18.387
ATOM      9  C   UNL d   1      -2.380   4.300  21.692 -0.10 -0.04    +0.058    18.387
ATOM     10  C   UNL d   1      -1.644   7.102  18.345 -0.22 -0.01    +0.058    18.387
ATOM     11  C   UNL d   1      -0.036   6.696  19.908 -0.11 -0.06    +0.193    18.387
ATOM     12  C   UNL d   1      -1.333   6.003  20.194 -0.13 -0.04    +0.109    18.387
ATOM     13  C   UNL d   1      -3.576   2.597  22.637 -0.04 -0.10    +0.193    18.387
ATOM     14  C   UNL d   1       0.776   6.932  17.592 -0.53 -0.01    +0.026    18.387
ATOM     15  C   UNL d   1      -1.448   5.234  21.449 -0.13 -0.03    +0.055    18.387
ATOM     16  C   UNL d   1      -2.867   4.385  24.180 -0.02 -0.01    +0.026    18.387
ATOM     17  C   UNL d   1      -4.025   2.953  21.257 -0.09 -0.05    +0.109    18.387
ATOM     18  C   UNL d   1      -2.318   7.649  17.316 -0.24 -0.01    +0.050    18.387
ATOM     19  C   UNL d   1      -3.685   7.421  17.015 -0.30 -0.01    +0.045    18.387
ATOM     20  C   UNL d   1      -5.682   2.646  19.495 -0.12 +0.00    +0.045    18.387
ATOM     21  C   UNL d   1      -5.107   2.194  20.613 -0.11 -0.01    +0.057    18.387
ATOM     22  C   UNL d   1      -7.052   2.735  17.669 -0.25 -0.01    -0.019    18.387
ATOM     23  C   UNL d   1      -6.222   3.957  17.701 -0.26 +0.00    +0.045    18.387
ATOM     24  C   UNL d   1      -6.728   1.965  18.734 -0.16 -0.01    -0.022    18.387
ATOM     25  C   UNL d   1      -5.553   6.162  16.807 -0.32 -0.00    +0.049    18.387
ATOM     26  C   UNL d   1      -4.651   8.224  16.429 -0.31 +0.00    -0.018    18.387
ATOM     27  C   UNL d   1      -5.834   7.430  16.318 -0.28 -0.00    +0.003    18.387
ATOM     28  C   UNL d   1      -6.297   4.951  16.803 -0.32 +0.00    +0.052    18.387
ATOM     29  C   UNL d   1      -7.296   0.647  19.139 -0.14 +0.02    +0.046    18.387
ATOM     30  C   UNL d   1      -4.488   9.643  15.999 -0.30 -0.01    +0.046    18.387
ATOM     31  H   UNL d   1      -4.805   4.513  19.184 +0.05 -0.02    +0.166    18.387
ATOM     32  H   UNL d   1      -3.752   5.413  17.669 +0.07 -0.02    +0.166    18.387
ATOM     33  C   UNL d   1       0.055   8.974  18.904 -0.18 -0.04    +0.141    18.387
ATOM     34  C   UNL d   1       1.495   9.367  18.708 -0.22 -0.10    +0.306    18.387
ATOM     35  O   UNL d   1       1.908  10.249  17.975 -0.70 +0.06    -0.251    18.387
ATOM     36  O   UNL d   1       2.339   8.627  19.450 -0.07 +0.17    -0.481    18.387
ATOM     37  H   UNL d   1       1.792   8.301  20.196 +0.13 -0.08    +0.295    18.387
ATOM     38  C   UNL d   1      -7.073   7.871  15.751 -0.29 -0.00    +0.017    18.387
ATOM     39  C   UNL d   1      -8.033   7.067  15.269 -0.18 +0.00    +0.092    18.387
ATOM     40  C   UNL d   1      -9.267   7.645  14.729 -0.18 +0.02    +0.330    18.387
ATOM     41  O   UNL d   1      -9.377   8.451  13.825 -0.23 -0.02    -0.246    18.387
ATOM     42  O   UNL d   1     -10.331   7.149  15.378 -0.03 -0.02    -0.477    18.387
ATOM     43  H   UNL d   1      -9.942   6.679  16.144 +0.06 +0.01    +0.295    18.387
ATOM     44  C   UNL d   1      -1.178   2.701  23.341 +0.09 -0.17    +0.141    18.387
ATOM     45  C   UNL d   1      -1.478   1.322  23.865 -0.05 -0.28    +0.306    18.387
ATOM     46  O   UNL d   1      -1.700   1.018  25.025 -0.02 +0.12    -0.251    18.387
ATOM     47  O   UNL d   1      -1.456   0.388  22.898 -0.05 +0.60    -0.481    18.387
ATOM     48  H   UNL d   1      -1.281   0.889  22.073 -0.51 -0.79    +0.295    18.387
ATOM     49  C   UNL d   1      -8.063   2.432  16.603 -0.33 +0.02    +0.048    18.387
ATOM     50  C   UNL d   1      -9.469   2.872  17.011 -0.14 +0.03    +0.125    18.387
ATOM     51  C   UNL d   1      -9.655   4.346  16.791 -0.07 +0.04    +0.305    18.387
ATOM     52  O   UNL d   1      -9.359   5.253  17.550 -0.05 -0.01    -0.251    18.387
ATOM     53  O   UNL d   1     -10.230   4.611  15.601 -0.04 -0.06    -0.481    18.387
ATOM     54  H   UNL d   1     -11.021   5.141  15.832 +0.06 +0.02    +0.295    18.387
TER
ENDMDL
MODEL       70
USER    Run = 70
USER    Cluster Rank = 25
USER    Number of conformations in this cluster = 3
USER  
USER    RMSD from reference structure       = 17.614 A
USER  
USER    Estimated Free Energy of Binding    =   -4.75 kcal/mol  [=(1)+(2)+(3)-(4)]
USER    Estimated Inhibition Constant, Ki   =  327.17 uM (micromolar)  [Temperature = 298.15 K]
USER    
USER    (1) Final Intermolecular Energy     =   -8.63 kcal/mol
USER        vdW + Hbond + desolv Energy     =   -8.24 kcal/mol
USER        Electrostatic Energy            =   -0.40 kcal/mol
USER    (2) Final Total Internal Energy     =   -4.70 kcal/mol
USER    (3) Torsional Free Energy           =   +3.88 kcal/mol
USER    (4) Unbound System's Energy  [=(2)] =   -4.70 kcal/mol
USER    
USER    
USER  
USER    DPF = D:/Protein_go_brrr/autodock/final/mut_N102T/heme/dock.dpf
USER    NEWDPF move	heme_opt.pdbqt
USER    NEWDPF about	0.153000 0.018000 -0.028000
USER    NEWDPF tran0	-4.999912 7.818650 17.368524
USER    NEWDPF axisangle0	0.883020 -0.423824 0.201615 -168.032485
USER    NEWDPF quaternion0	0.878209 -0.421515 0.200517 -0.104247
USER    NEWDPF dihe0	113.97 -121.33 -173.86 -52.04 -130.71 -95.20 143.48 -129.22 30.84 -3.30 -98.27 13.88 -3.78 
USER  
USER                              x       y       z    vdW   Elec        q     RMS 
ATOM      1  O   UNL d   1      -9.316  10.458  14.341 -0.09 +0.00    -0.289    17.614
ATOM      2  O   UNL d   1      -3.126  13.249  17.549 -0.15 +0.05    -0.289    17.614
ATOM      3  N   UNL d   1      -7.113   8.518  16.153 -0.14 +0.01    -0.247    17.614
ATOM      4  N   UNL d   1      -4.883  10.390  16.746 -0.09 +0.05    -0.247    17.614
ATOM      5  N   UNL d   1      -3.308   8.117  17.534 -0.09 +0.09    -0.354    17.614
ATOM      6  N   UNL d   1      -5.620   6.180  16.897 -0.15 +0.03    -0.354    17.614
ATOM      7  C   UNL d   1      -9.102   8.065  14.794 -0.23 +0.00    +0.084    17.614
ATOM      8  C   UNL d   1      -5.413  12.774  16.818 -0.07 -0.01    +0.084    17.614
ATOM      9  C   UNL d   1      -5.861  11.336  16.536 -0.09 -0.01    +0.058    17.614
ATOM     10  C   UNL d   1      -7.960   7.536  15.666 -0.24 +0.00    +0.058    17.614
ATOM     11  C   UNL d   1      -8.763   9.522  14.890 -0.10 +0.00    +0.193    17.614
ATOM     12  C   UNL d   1      -7.553   9.669  15.761 -0.13 -0.00    +0.109    17.614
ATOM     13  C   UNL d   1      -3.989  12.472  17.190 -0.12 -0.04    +0.193    17.614
ATOM     14  C   UNL d   1      -8.967   7.620  13.336 -0.25 +0.00    +0.026    17.614
ATOM     15  C   UNL d   1      -7.085  11.034  16.076 -0.11 -0.00    +0.055    17.614
ATOM     16  C   UNL d   1      -6.127  13.362  18.039 -0.03 -0.00    +0.026    17.614
ATOM     17  C   UNL d   1      -3.794  10.994  17.099 -0.16 -0.03    +0.109    17.614
ATOM     18  C   UNL d   1      -7.867   6.232  15.987 -0.13 +0.00    +0.050    17.614
ATOM     19  C   UNL d   1      -6.896   5.666  16.853 -0.23 +0.00    +0.045    17.614
ATOM     20  C   UNL d   1      -2.338   9.086  17.530 -0.12 -0.02    +0.045    17.614
ATOM     21  C   UNL d   1      -2.473  10.406  17.367 -0.19 -0.02    +0.057    17.614
ATOM     22  C   UNL d   1      -1.351   7.054  17.871 -0.31 +0.01    -0.019    17.614
ATOM     23  C   UNL d   1      -2.808   6.858  17.731 -0.28 -0.01    +0.045    17.614
ATOM     24  C   UNL d   1      -1.079   8.375  17.752 -0.25 +0.01    -0.022    17.614
ATOM     25  C   UNL d   1      -4.824   5.428  17.730 -0.28 -0.00    +0.049    17.614
ATOM     26  C   UNL d   1      -6.941   4.574  17.706 -0.20 -0.00    -0.018    17.614
ATOM     27  C   UNL d   1      -5.635   4.440  18.272 -0.22 -0.00    +0.003    17.614
ATOM     28  C   UNL d   1      -3.426   5.670  17.817 -0.34 -0.01    +0.052    17.614
ATOM     29  C   UNL d   1       0.239   9.068  17.832 -0.39 -0.01    +0.046    17.614
ATOM     30  C   UNL d   1      -8.122   3.707  17.982 -0.15 +0.01    +0.046    17.614
ATOM     31  H   UNL d   1      -4.291   8.357  17.474 +0.06 -0.03    +0.166    17.614
ATOM     32  H   UNL d   1      -5.319   6.979  16.352 +0.03 -0.03    +0.166    17.614
ATOM     33  C   UNL d   1     -10.514   7.806  15.333 -0.09 +0.00    +0.141    17.614
ATOM     34  C   UNL d   1     -10.902   8.764  16.426 -0.01 -0.01    +0.306    17.614
ATOM     35  O   UNL d   1     -10.524   8.726  17.585 -0.01 +0.01    -0.251    17.614
ATOM     36  O   UNL d   1     -11.744   9.722  16.001 +0.01 +0.01    -0.481    17.614
ATOM     37  H   UNL d   1     -11.204  10.276  15.398 +0.03 -0.01    +0.295    17.614
ATOM     38  C   UNL d   1      -5.238   3.424  19.199 -0.16 -0.00    +0.017    17.614
ATOM     39  C   UNL d   1      -4.609   3.643  20.364 -0.11 -0.02    +0.092    17.614
ATOM     40  C   UNL d   1      -4.272   2.513  21.234 -0.06 -0.13    +0.330    17.614
ATOM     41  O   UNL d   1      -4.895   2.103  22.195 -0.02 +0.07    -0.246    17.614
ATOM     42  O   UNL d   1      -3.131   1.938  20.823 -0.08 +0.44    -0.477    17.614
ATOM     43  H   UNL d   1      -2.474   2.664  20.864 -0.35 -0.44    +0.295    17.614
ATOM     44  C   UNL d   1      -5.478  13.732  15.624 -0.11 -0.03    +0.141    17.614
ATOM     45  C   UNL d   1      -4.754  13.216  14.409 -0.16 -0.07    +0.306    17.614
ATOM     46  O   UNL d   1      -5.255  12.669  13.442 -0.18 +0.04    -0.251    17.614
ATOM     47  O   UNL d   1      -3.423  13.393  14.489 -0.09 +0.20    -0.481    17.614
ATOM     48  H   UNL d   1      -3.274  13.750  15.390 -0.25 -0.17    +0.295    17.614
ATOM     49  C   UNL d   1      -0.368   5.942  18.089 -0.45 -0.02    +0.048    17.614
ATOM     50  C   UNL d   1      -0.198   5.616  19.573 -0.18 -0.05    +0.125    17.614
ATOM     51  C   UNL d   1      -1.291   4.702  20.050 -0.08 -0.22    +0.305    17.614
ATOM     52  O   UNL d   1      -1.938   4.791  21.079 -0.12 +0.17    -0.251    17.614
ATOM     53  O   UNL d   1      -1.512   3.688  19.189 -0.05 +0.41    -0.481    17.614
ATOM     54  H   UNL d   1      -1.457   2.885  19.749 -0.46 -0.60    +0.295    17.614
TER
ENDMDL
MODEL       56
USER    Run = 56
USER    Cluster Rank = 26
USER    Number of conformations in this cluster = 1
USER  
USER    RMSD from reference structure       = 16.133 A
USER  
USER    Estimated Free Energy of Binding    =   -4.69 kcal/mol  [=(1)+(2)+(3)-(4)]
USER    Estimated Inhibition Constant, Ki   =  363.78 uM (micromolar)  [Temperature = 298.15 K]
USER    
USER    (1) Final Intermolecular Energy     =   -8.57 kcal/mol
USER        vdW + Hbond + desolv Energy     =   -8.42 kcal/mol
USER        Electrostatic Energy            =   -0.15 kcal/mol
USER    (2) Final Total Internal Energy     =   -3.74 kcal/mol
USER    (3) Torsional Free Energy           =   +3.88 kcal/mol
USER    (4) Unbound System's Energy  [=(2)] =   -3.74 kcal/mol
USER    
USER    
USER  
USER    DPF = D:/Protein_go_brrr/autodock/final/mut_N102T/heme/dock.dpf
USER    NEWDPF move	heme_opt.pdbqt
USER    NEWDPF about	0.153000 0.018000 -0.028000
USER    NEWDPF tran0	6.551316 -5.587000 15.702124
USER    NEWDPF axisangle0	-0.551618 0.312644 -0.773286 -81.491647
USER    NEWDPF quaternion0	-0.360043 0.204064 -0.504728 -0.757613
USER    NEWDPF dihe0	-121.43 -154.88 -100.44 -5.18 64.10 -50.58 -180.00 -18.63 22.36 20.90 64.14 -42.39 122.80 
USER  
USER                              x       y       z    vdW   Elec        q     RMS 
ATOM      1  O   UNL d   1       5.746   0.139  14.554 -0.37 +0.04    -0.289    16.133
ATOM      2  O   UNL d   1       1.413  -4.821  18.162 -0.14 +0.08    -0.289    16.133
ATOM      3  N   UNL d   1       6.583  -3.192  14.869 -0.07 -0.01    -0.247    16.133
ATOM      4  N   UNL d   1       4.472  -4.260  16.665 -0.11 +0.03    -0.247    16.133
ATOM      5  N   UNL d   1       6.084  -6.616  17.007 -0.09 +0.01    -0.354    16.133
ATOM      6  N   UNL d   1       8.279  -5.492  15.157 -0.04 -0.05    -0.354    16.133
ATOM      7  C   UNL d   1       7.709  -1.201  13.986 -0.18 +0.01    +0.084    16.133
ATOM      8  C   UNL d   1       2.321  -3.100  16.677 -0.31 -0.02    +0.084    16.133
ATOM      9  C   UNL d   1       3.776  -3.168  16.199 -0.26 -0.01    +0.058    16.133
ATOM     10  C   UNL d   1       7.740  -2.703  14.284 -0.11 +0.01    +0.058    16.133
ATOM     11  C   UNL d   1       6.324  -0.930  14.490 -0.23 -0.01    +0.193    16.133
ATOM     12  C   UNL d   1       5.737  -2.220  14.975 -0.18 -0.01    +0.109    16.133
ATOM     13  C   UNL d   1       2.332  -4.336  17.531 -0.17 -0.05    +0.193    16.133
ATOM     14  C   UNL d   1       8.709  -0.425  14.847 -0.18 +0.01    +0.026    16.133
ATOM     15  C   UNL d   1       4.333  -2.216  15.435 -0.19 -0.01    +0.055    16.133
ATOM     16  C   UNL d   1       1.334  -3.307  15.524 -0.45 -0.01    +0.026    16.133
ATOM     17  C   UNL d   1       3.695  -4.943  17.444 -0.21 -0.02    +0.109    16.133
ATOM     18  C   UNL d   1       8.781  -3.473  13.913 -0.09 +0.01    +0.050    16.133
ATOM     19  C   UNL d   1       8.860  -4.880  14.070 -0.09 +0.01    +0.045    16.133
ATOM     20  C   UNL d   1       5.134  -6.840  17.969 -0.17 -0.01    +0.045    16.133
ATOM     21  C   UNL d   1       4.016  -6.151  18.219 -0.21 -0.01    +0.057    16.133
ATOM     22  C   UNL d   1       6.759  -8.435  18.151 -0.19 -0.00    -0.019    16.133
ATOM     23  C   UNL d   1       7.105  -7.528  17.038 -0.21 +0.00    +0.045    16.133
ATOM     24  C   UNL d   1       5.591  -8.023  18.698 -0.17 +0.00    -0.022    16.133
ATOM     25  C   UNL d   1       8.554  -6.839  15.158 -0.15 +0.01    +0.049    16.133
ATOM     26  C   UNL d   1       9.498  -5.860  13.325 -0.12 -0.01    -0.018    16.133
ATOM     27  C   UNL d   1       9.285  -7.098  14.006 -0.17 +0.00    +0.003    16.133
ATOM     28  C   UNL d   1       8.193  -7.657  16.263 -0.20 +0.01    +0.052    16.133
ATOM     29  C   UNL d   1       4.830  -8.618  19.833 -0.14 -0.01    +0.046    16.133
ATOM     30  C   UNL d   1      10.258  -5.662  12.058 -0.12 +0.03    +0.046    16.133
ATOM     31  H   UNL d   1       5.966  -5.889  16.310 +0.07 -0.00    +0.166    16.133
ATOM     32  H   UNL d   1       7.759  -4.993  15.869 +0.03 +0.01    +0.166    16.133
ATOM     33  C   UNL d   1       7.827  -0.822  12.506 -0.27 +0.02    +0.141    16.133
ATOM     34  C   UNL d   1       6.600  -1.187  11.715 -0.19 +0.02    +0.306    16.133
ATOM     35  O   UNL d   1       5.868  -0.413  11.122 -0.21 +0.01    -0.251    16.133
ATOM     36  O   UNL d   1       6.362  -2.511  11.710 -0.08 -0.06    -0.481    16.133
ATOM     37  H   UNL d   1       6.307  -2.755  12.659 +0.14 +0.02    +0.295    16.133
ATOM     38  C   UNL d   1       9.790  -8.370  13.584 -0.17 +0.01    +0.017    16.133
ATOM     39  C   UNL d   1       9.683  -9.514  14.277 -0.18 +0.06    +0.092    16.133
ATOM     40  C   UNL d   1      10.229 -10.756  13.724 -0.05 +0.38    +0.330    16.133
ATOM     41  O   UNL d   1      10.015 -11.239  12.628 -0.52 -0.26    -0.246    16.133
ATOM     42  O   UNL d   1      11.052 -11.335  14.612 -0.14 -0.67    -0.477    16.133
ATOM     43  H   UNL d   1      10.738 -10.999  15.476 +0.03 +0.39    +0.295    16.133
ATOM     44  C   UNL d   1       1.955  -1.864  17.505 -0.32 -0.05    +0.141    16.133
ATOM     45  C   UNL d   1       3.118  -1.300  18.277 -0.20 -0.11    +0.306    16.133
ATOM     46  O   UNL d   1       3.420  -0.124  18.380 -0.41 +0.09    -0.251    16.133
ATOM     47  O   UNL d   1       3.861  -2.258  18.861 +0.01 +0.12    -0.481    16.133
ATOM     48  H   UNL d   1       4.416  -2.617  18.137 +0.10 -0.05    +0.295    16.133
ATOM     49  C   UNL d   1       7.601  -9.599  18.583 -0.15 +0.01    +0.048    16.133
ATOM     50  C   UNL d   1       9.094  -9.271  18.533 -0.06 +0.03    +0.125    16.133
ATOM     51  C   UNL d   1       9.794 -10.113  17.504 -0.08 +0.15    +0.305    16.133
ATOM     52  O   UNL d   1       9.452 -11.203  17.078 -0.45 -0.26    -0.251    16.133
ATOM     53  O   UNL d   1      10.925  -9.531  17.061 -0.01 -0.18    -0.481    16.133
ATOM     54  H   UNL d   1      11.328 -10.207  16.477 +0.03 +0.16    +0.295    16.133
TER
ENDMDL
MODEL       25
USER    Run = 25
USER    Cluster Rank = 27
USER    Number of conformations in this cluster = 2
USER  
USER    RMSD from reference structure       = 14.129 A
USER  
USER    Estimated Free Energy of Binding    =   -4.66 kcal/mol  [=(1)+(2)+(3)-(4)]
USER    Estimated Inhibition Constant, Ki   =  384.39 uM (micromolar)  [Temperature = 298.15 K]
USER    
USER    (1) Final Intermolecular Energy     =   -8.54 kcal/mol
USER        vdW + Hbond + desolv Energy     =   -8.02 kcal/mol
USER        Electrostatic Energy            =   -0.52 kcal/mol
USER    (2) Final Total Internal Energy     =   -3.23 kcal/mol
USER    (3) Torsional Free Energy           =   +3.88 kcal/mol
USER    (4) Unbound System's Energy  [=(2)] =   -3.23 kcal/mol
USER    
USER    
USER  
USER    DPF = D:/Protein_go_brrr/autodock/final/mut_N102T/heme/dock.dpf
USER    NEWDPF move	heme_opt.pdbqt
USER    NEWDPF about	0.153000 0.018000 -0.028000
USER    NEWDPF tran0	-11.653206 4.307926 12.030615
USER    NEWDPF axisangle0	0.641339 0.278187 0.715050 -138.995234
USER    NEWDPF quaternion0	0.600715 0.260566 0.669757 -0.350246
USER    NEWDPF dihe0	-82.67 -171.17 -42.15 -45.28 9.97 -78.29 -18.98 -92.94 180.00 135.02 -101.09 32.16 -7.09 
USER  
USER                              x       y       z    vdW   Elec        q     RMS 
ATOM      1  O   UNL d   1     -11.092  -1.173   9.932 -0.23 +0.15    -0.289    14.129
ATOM      2  O   UNL d   1     -12.368   5.342   6.422 -0.12 +0.00    -0.289    14.129
ATOM      3  N   UNL d   1     -11.484   1.811  11.617 -0.18 +0.02    -0.247    14.129
ATOM      4  N   UNL d   1     -11.632   3.816   9.429 -0.12 +0.01    -0.247    14.129
ATOM      5  N   UNL d   1     -11.253   5.867  11.408 -0.03 -0.01    -0.354    14.129
ATOM      6  N   UNL d   1     -11.081   3.779  13.669 -0.02 -0.04    -0.354    14.129
ATOM      7  C   UNL d   1     -10.880  -0.474  12.265 -0.26 -0.01    +0.084    14.129
ATOM      8  C   UNL d   1     -12.434   3.041   7.254 -0.18 -0.01    +0.084    14.129
ATOM      9  C   UNL d   1     -12.015   2.717   8.692 -0.22 -0.01    +0.058    14.129
ATOM     10  C   UNL d   1     -11.130   0.982  12.668 -0.25 +0.00    +0.058    14.129
ATOM     11  C   UNL d   1     -11.174  -0.325  10.802 -0.20 -0.06    +0.193    14.129
ATOM     12  C   UNL d   1     -11.553   1.099  10.539 -0.20 -0.02    +0.109    14.129
ATOM     13  C   UNL d   1     -12.181   4.522   7.299 -0.16 -0.00    +0.193    14.129
ATOM     14  C   UNL d   1      -9.412  -0.874  12.437 +0.02 -0.00    +0.026    14.129
ATOM     15  C   UNL d   1     -11.977   1.465   9.173 -0.26 -0.01    +0.055    14.129
ATOM     16  C   UNL d   1     -13.930   2.803   7.031 -0.07 -0.00    +0.026    14.129
ATOM     17  C   UNL d   1     -11.692   4.863   8.669 -0.23 -0.00    +0.109    14.129
ATOM     18  C   UNL d   1     -11.090   1.372  13.956 -0.24 +0.01    +0.050    14.129
ATOM     19  C   UNL d   1     -11.389   2.675  14.431 -0.15 +0.00    +0.045    14.129
ATOM     20  C   UNL d   1     -11.117   6.614  10.266 -0.26 -0.00    +0.045    14.129
ATOM     21  C   UNL d   1     -11.319   6.247   8.996 -0.34 -0.00    +0.057    14.129
ATOM     22  C   UNL d   1     -10.603   7.920  12.068 -0.27 -0.00    -0.019    14.129
ATOM     23  C   UNL d   1     -10.963   6.571  12.546 -0.23 +0.00    +0.045    14.129
ATOM     24  C   UNL d   1     -10.697   7.940  10.717 -0.30 +0.00    -0.022    14.129
ATOM     25  C   UNL d   1     -11.372   4.936  14.355 -0.14 +0.00    +0.049    14.129
ATOM     26  C   UNL d   1     -11.927   3.124  15.627 -0.07 -0.00    -0.018    14.129
ATOM     27  C   UNL d   1     -11.932   4.552  15.566 -0.07 +0.00    +0.003    14.129
ATOM     28  C   UNL d   1     -10.996   6.205  13.837 -0.20 +0.00    +0.052    14.129
ATOM     29  C   UNL d   1     -10.446   9.072   9.781 -0.26 -0.00    +0.046    14.129
ATOM     30  C   UNL d   1     -12.410   2.280  16.758 -0.03 +0.00    +0.046    14.129
ATOM     31  H   UNL d   1     -11.613   4.919  11.377 +0.05 -0.00    +0.166    14.129
ATOM     32  H   UNL d   1     -10.661   3.726  12.749 +0.07 +0.02    +0.166    14.129
ATOM     33  C   UNL d   1     -11.821  -1.502  12.901 -0.11 -0.03    +0.141    14.129
ATOM     34  C   UNL d   1     -11.086  -2.684  13.473 -0.09 -0.09    +0.306    14.129
ATOM     35  O   UNL d   1     -10.294  -2.660  14.400 -0.66 -0.07    -0.251    14.129
ATOM     36  O   UNL d   1     -11.391  -3.836  12.849 -0.03 +0.34    -0.481    14.129
ATOM     37  H   UNL d   1     -10.690  -3.942  12.171 -0.45 -0.54    +0.295    14.129
ATOM     38  C   UNL d   1     -12.394   5.421  16.606 -0.03 +0.00    +0.017    14.129
ATOM     39  C   UNL d   1     -13.495   6.185  16.544 -0.01 -0.00    +0.092    14.129
ATOM     40  C   UNL d   1     -13.869   7.020  17.689 -0.00 -0.01    +0.330    14.129
ATOM     41  O   UNL d   1     -14.444   6.676  18.704 +0.00 +0.01    -0.246    14.129
ATOM     42  O   UNL d   1     -13.473   8.286  17.485 -0.00 +0.01    -0.477    14.129
ATOM     43  H   UNL d   1     -13.174   8.291  16.553 +0.00 -0.01    +0.295    14.129
ATOM     44  C   UNL d   1     -11.596   2.375   6.157 -0.30 -0.02    +0.141    14.129
ATOM     45  C   UNL d   1     -12.063   0.985   5.815 -0.16 -0.14    +0.306    14.129
ATOM     46  O   UNL d   1     -12.077   0.019   6.558 -0.19 +0.15    -0.251    14.129
ATOM     47  O   UNL d   1     -12.465   0.878   4.536 -0.12 +0.19    -0.481    14.129
ATOM     48  H   UNL d   1     -12.084   0.029   4.226 -0.45 -0.39    +0.295    14.129
ATOM     49  C   UNL d   1     -10.189   9.050  12.965 -0.22 +0.00    +0.048    14.129
ATOM     50  C   UNL d   1     -11.386   9.890  13.410 -0.07 -0.00    +0.125    14.129
ATOM     51  C   UNL d   1     -12.121   9.222  14.536 -0.01 -0.01    +0.305    14.129
ATOM     52  O   UNL d   1     -13.138   8.554  14.467 -0.01 +0.01    -0.251    14.129
ATOM     53  O   UNL d   1     -11.530   9.444  15.727 +0.01 +0.01    -0.481    14.129
ATOM     54  H   UNL d   1     -12.272   9.680  16.322 +0.01 -0.01    +0.295    14.129
TER
ENDMDL
MODEL       43
USER    Run = 43
USER    Cluster Rank = 28
USER    Number of conformations in this cluster = 1
USER  
USER    RMSD from reference structure       = 18.243 A
USER  
USER    Estimated Free Energy of Binding    =   -4.63 kcal/mol  [=(1)+(2)+(3)-(4)]
USER    Estimated Inhibition Constant, Ki   =  405.86 uM (micromolar)  [Temperature = 298.15 K]
USER    
USER    (1) Final Intermolecular Energy     =   -8.50 kcal/mol
USER        vdW + Hbond + desolv Energy     =   -8.42 kcal/mol
USER        Electrostatic Energy            =   -0.09 kcal/mol
USER    (2) Final Total Internal Energy     =   -3.75 kcal/mol
USER    (3) Torsional Free Energy           =   +3.88 kcal/mol
USER    (4) Unbound System's Energy  [=(2)] =   -3.75 kcal/mol
USER    
USER    
USER  
USER    DPF = D:/Protein_go_brrr/autodock/final/mut_N102T/heme/dock.dpf
USER    NEWDPF move	heme_opt.pdbqt
USER    NEWDPF about	0.153000 0.018000 -0.028000
USER    NEWDPF tran0	-4.128076 9.335934 17.410007
USER    NEWDPF axisangle0	-0.585792 -0.797582 -0.143914 161.664390
USER    NEWDPF quaternion0	-0.578309 -0.787394 -0.142075 0.159326
USER    NEWDPF dihe0	38.20 -179.53 -83.51 53.12 -148.92 -111.28 173.56 40.44 -146.16 -109.11 -90.62 37.74 6.73 
USER  
USER                              x       y       z    vdW   Elec        q     RMS 
ATOM      1  O   UNL d   1      -0.824   4.489  17.996 -0.23 +0.12    -0.289    18.243
ATOM      2  O   UNL d   1      -8.233   5.325  17.098 -0.10 -0.02    -0.289    18.243
ATOM      3  N   UNL d   1      -2.349   7.578  17.831 -0.14 +0.06    -0.247    18.243
ATOM      4  N   UNL d   1      -5.170   6.913  17.175 -0.15 +0.03    -0.247    18.243
ATOM      5  N   UNL d   1      -5.581   9.688  16.548 -0.08 +0.05    -0.354    18.243
ATOM      6  N   UNL d   1      -2.648  10.366  17.211 -0.09 +0.14    -0.354    18.243
ATOM      7  C   UNL d   1      -0.027   6.798  17.919 -0.35 -0.02    +0.084    18.243
ATOM      8  C   UNL d   1      -5.987   4.713  17.856 -0.21 +0.00    +0.084    18.243
ATOM      9  C   UNL d   1      -4.822   5.700  17.726 -0.26 -0.01    +0.058    18.243
ATOM     10  C   UNL d   1      -1.019   7.962  17.840 -0.25 -0.02    +0.058    18.243
ATOM     11  C   UNL d   1      -1.033   5.688  17.971 -0.26 -0.06    +0.193    18.243
ATOM     12  C   UNL d   1      -2.403   6.290  17.937 -0.26 -0.02    +0.109    18.243
ATOM     13  C   UNL d   1      -7.053   5.577  17.243 -0.15 +0.01    +0.193    18.243
ATOM     14  C   UNL d   1       0.798   6.658  16.638 -0.42 -0.01    +0.026    18.243
ATOM     15  C   UNL d   1      -3.564   5.387  18.072 -0.31 -0.01    +0.055    18.243
ATOM     16  C   UNL d   1      -6.348   4.451  19.321 -0.09 -0.00    +0.026    18.243
ATOM     17  C   UNL d   1      -6.427   6.880  16.866 -0.21 -0.01    +0.109    18.243
ATOM     18  C   UNL d   1      -0.604   9.243  17.871 -0.32 -0.02    +0.050    18.243
ATOM     19  C   UNL d   1      -1.449  10.381  17.887 -0.26 -0.01    +0.045    18.243
ATOM     20  C   UNL d   1      -6.757   9.164  16.078 -0.17 -0.00    +0.045    18.243
ATOM     21  C   UNL d   1      -7.227   7.918  16.199 -0.25 -0.00    +0.057    18.243
ATOM     22  C   UNL d   1      -6.644  11.368  15.487 -0.12 +0.00    -0.019    18.243
ATOM     23  C   UNL d   1      -5.424  11.013  16.240 -0.15 -0.01    +0.045    18.243
ATOM     24  C   UNL d   1      -7.430  10.269  15.396 -0.07 +0.00    -0.022    18.243
ATOM     25  C   UNL d   1      -3.260  11.596  17.284 -0.22 -0.01    +0.049    18.243
ATOM     26  C   UNL d   1      -1.295  11.641  18.445 -0.22 +0.00    -0.018    18.243
ATOM     27  C   UNL d   1      -2.451  12.398  18.077 -0.12 -0.00    +0.003    18.243
ATOM     28  C   UNL d   1      -4.435  11.872  16.533 -0.20 -0.01    +0.052    18.243
ATOM     29  C   UNL d   1      -8.763  10.127  14.745 -0.13 +0.00    +0.046    18.243
ATOM     30  C   UNL d   1      -0.147  12.115  19.270 -0.17 -0.01    +0.046    18.243
ATOM     31  H   UNL d   1      -4.956   9.141  17.130 +0.06 -0.03    +0.166    18.243
ATOM     32  H   UNL d   1      -2.994   9.561  16.701 -0.23 -0.09    +0.166    18.243
ATOM     33  C   UNL d   1       0.863   6.777  19.167 -0.26 -0.04    +0.141    18.243
ATOM     34  C   UNL d   1       2.230   7.353  18.913 -0.26 -0.10    +0.306    18.243
ATOM     35  O   UNL d   1       3.233   6.725  18.619 -0.31 +0.09    -0.251    18.243
ATOM     36  O   UNL d   1       2.260   8.691  19.041 -0.10 +0.18    -0.481    18.243
ATOM     37  H   UNL d   1       2.895   8.990  18.356 -0.32 -0.20    +0.295    18.243
ATOM     38  C   UNL d   1      -2.691  13.763  18.434 +0.06 -0.00    +0.017    18.243
ATOM     39  C   UNL d   1      -3.564  14.179  19.364 -0.09 -0.01    +0.092    18.243
ATOM     40  C   UNL d   1      -3.703  15.610  19.648 -0.04 -0.04    +0.330    18.243
ATOM     41  O   UNL d   1      -3.410  16.196  20.672 -0.02 +0.03    -0.246    18.243
ATOM     42  O   UNL d   1      -4.214  16.245  18.581 -0.03 +0.07    -0.477    18.243
ATOM     43  H   UNL d   1      -4.346  15.531  17.924 +0.04 -0.06    +0.295    18.243
ATOM     44  C   UNL d   1      -5.831   3.401  17.081 -0.15 +0.02    +0.141    18.243
ATOM     45  C   UNL d   1      -7.141   2.708  16.815 -0.17 +0.12    +0.306    18.243
ATOM     46  O   UNL d   1      -7.540   2.294  15.740 -0.37 -0.14    -0.251    18.243
ATOM     47  O   UNL d   1      -7.898   2.597  17.922 -0.09 -0.14    -0.481    18.243
ATOM     48  H   UNL d   1      -8.505   3.366  17.885 +0.08 +0.05    +0.295    18.243
ATOM     49  C   UNL d   1      -6.918  12.729  14.920 -0.11 -0.00    +0.048    18.243
ATOM     50  C   UNL d   1      -7.359  13.717  16.001 -0.03 -0.01    +0.125    18.243
ATOM     51  C   UNL d   1      -6.175  14.428  16.593 -0.02 -0.04    +0.305    18.243
ATOM     52  O   UNL d   1      -5.149  14.761  16.026 -0.09 +0.06    -0.251    18.243
ATOM     53  O   UNL d   1      -6.343  14.679  17.906 +0.00 +0.06    -0.481    18.243
ATOM     54  H   UNL d   1      -6.169  15.640  17.989 +0.02 -0.04    +0.295    18.243
TER
ENDMDL
MODEL       14
USER    Run = 14
USER    Cluster Rank = 29
USER    Number of conformations in this cluster = 2
USER  
USER    RMSD from reference structure       = 14.835 A
USER  
USER    Estimated Free Energy of Binding    =   -4.60 kcal/mol  [=(1)+(2)+(3)-(4)]
USER    Estimated Inhibition Constant, Ki   =  423.01 uM (micromolar)  [Temperature = 298.15 K]
USER    
USER    (1) Final Intermolecular Energy     =   -8.48 kcal/mol
USER        vdW + Hbond + desolv Energy     =   -8.24 kcal/mol
USER        Electrostatic Energy            =   -0.25 kcal/mol
USER    (2) Final Total Internal Energy     =   -3.58 kcal/mol
USER    (3) Torsional Free Energy           =   +3.88 kcal/mol
USER    (4) Unbound System's Energy  [=(2)] =   -3.58 kcal/mol
USER    
USER    
USER  
USER    DPF = D:/Protein_go_brrr/autodock/final/mut_N102T/heme/dock.dpf
USER    NEWDPF move	heme_opt.pdbqt
USER    NEWDPF about	0.153000 0.018000 -0.028000
USER    NEWDPF tran0	-10.473676 4.706709 13.366442
USER    NEWDPF axisangle0	-0.586507 -0.194437 0.786260 -139.369840
USER    NEWDPF quaternion0	-0.550025 -0.182342 0.737352 -0.347182
USER    NEWDPF dihe0	97.13 -163.15 175.70 -40.19 -176.16 27.98 12.60 -53.80 95.21 136.86 -102.82 -34.10 -14.58 
USER  
USER                              x       y       z    vdW   Elec        q     RMS 
ATOM      1  O   UNL d   1     -10.744  -0.388  16.321 -0.31 -0.15    -0.289    14.835
ATOM      2  O   UNL d   1      -7.075   5.990  17.820 -0.07 +0.00    -0.289    14.835
ATOM      3  N   UNL d   1     -10.776   2.329  14.197 -0.15 -0.04    -0.247    14.835
ATOM      4  N   UNL d   1      -9.340   4.422  15.742 +0.07 -0.05    -0.247    14.835
ATOM      5  N   UNL d   1     -10.312   6.356  13.850 -0.13 -0.04    -0.354    14.835
ATOM      6  N   UNL d   1     -11.815   4.182  12.264 -0.08 -0.00    -0.354    14.835
ATOM      7  C   UNL d   1     -11.926   0.166  14.254 -0.08 +0.01    +0.084    14.835
ATOM      8  C   UNL d   1      -7.730   3.666  17.418 -0.19 +0.01    +0.084    14.835
ATOM      9  C   UNL d   1      -8.814   3.326  16.390 -0.16 +0.02    +0.058    14.835
ATOM     10  C   UNL d   1     -11.693   1.511  13.560 -0.16 +0.00    +0.058    14.835
ATOM     11  C   UNL d   1     -10.963   0.361  15.386 -0.09 +0.06    +0.193    14.835
ATOM     12  C   UNL d   1     -10.310   1.699  15.225 -0.20 +0.03    +0.109    14.835
ATOM     13  C   UNL d   1      -7.764   5.160  17.260 -0.12 +0.01    +0.193    14.835
ATOM     14  C   UNL d   1     -13.342   0.050  14.823 -0.02 +0.00    +0.026    14.835
ATOM     15  C   UNL d   1      -9.248   2.074  16.180 -0.26 +0.02    +0.055    14.835
ATOM     16  C   UNL d   1      -6.353   3.156  16.981 -0.31 +0.01    +0.026    14.835
ATOM     17  C   UNL d   1      -8.786   5.489  16.221 -0.13 +0.01    +0.109    14.835
ATOM     18  C   UNL d   1     -12.278   1.805  12.383 -0.18 -0.00    +0.050    14.835
ATOM     19  C   UNL d   1     -12.058   2.985  11.628 -0.18 -0.00    +0.045    14.835
ATOM     20  C   UNL d   1      -9.791   7.196  14.799 -0.21 +0.00    +0.045    14.835
ATOM     21  C   UNL d   1      -9.071   6.892  15.884 -0.21 +0.00    +0.057    14.835
ATOM     22  C   UNL d   1     -10.903   8.442  13.240 -0.16 -0.00    -0.019    14.835
ATOM     23  C   UNL d   1     -11.001   7.017  12.868 -0.21 +0.00    +0.045    14.835
ATOM     24  C   UNL d   1     -10.184   8.542  14.384 -0.16 -0.00    -0.022    14.835
ATOM     25  C   UNL d   1     -11.722   5.205  11.349 -0.03 +0.00    +0.049    14.835
ATOM     26  C   UNL d   1     -12.087   3.230  10.264 -0.19 +0.00    -0.018    14.835
ATOM     27  C   UNL d   1     -11.855   4.630  10.092 -0.05 -0.00    +0.003    14.835
ATOM     28  C   UNL d   1     -11.629   6.558  11.775 -0.20 +0.00    +0.052    14.835
ATOM     29  C   UNL d   1      -9.805   9.768  15.144 -0.11 -0.00    +0.046    14.835
ATOM     30  C   UNL d   1     -12.314   2.228   9.184 -0.23 -0.01    +0.046    14.835
ATOM     31  H   UNL d   1     -10.117   5.361  13.865 +0.06 +0.03    +0.166    14.835
ATOM     32  H   UNL d   1     -11.757   4.280  13.270 +0.04 +0.01    +0.166    14.835
ATOM     33  C   UNL d   1     -11.547  -1.072  13.433 -0.13 -0.00    +0.141    14.835
ATOM     34  C   UNL d   1     -10.943  -2.163  14.275 -0.10 +0.04    +0.306    14.835
ATOM     35  O   UNL d   1      -9.842  -2.664  14.124 -0.71 -0.10    -0.251    14.835
ATOM     36  O   UNL d   1     -11.759  -2.564  15.266 -0.02 -0.04    -0.481    14.835
ATOM     37  H   UNL d   1     -11.585  -1.936  15.999 +0.04 +0.06    +0.295    14.835
ATOM     38  C   UNL d   1     -11.819   5.313   8.834 -0.29 -0.00    +0.017    14.835
ATOM     39  C   UNL d   1     -11.552   6.617   8.668 -0.28 -0.00    +0.092    14.835
ATOM     40  C   UNL d   1     -11.529   7.192   7.321 -0.13 -0.02    +0.330    14.835
ATOM     41  O   UNL d   1     -12.118   6.795   6.333 -0.14 +0.01    -0.246    14.835
ATOM     42  O   UNL d   1     -10.743   8.279   7.296 -0.13 +0.12    -0.477    14.835
ATOM     43  H   UNL d   1     -10.210   8.202   8.114 -0.27 -0.10    +0.295    14.835
ATOM     44  C   UNL d   1      -8.038   3.260  18.863 -0.07 +0.01    +0.141    14.835
ATOM     45  C   UNL d   1      -7.624   1.849  19.185 -0.07 +0.06    +0.306    14.835
ATOM     46  O   UNL d   1      -7.604   0.904  18.415 -0.69 -0.16    -0.251    14.835
ATOM     47  O   UNL d   1      -7.281   1.695  20.476 +0.00 -0.02    -0.481    14.835
ATOM     48  H   UNL d   1      -7.319   2.600  20.852 +0.03 -0.00    +0.295    14.835
ATOM     49  C   UNL d   1     -11.526   9.562  12.460 -0.10 -0.00    +0.048    14.835
ATOM     50  C   UNL d   1     -10.519  10.237  11.530 -0.14 -0.00    +0.125    14.835
ATOM     51  C   UNL d   1     -10.290   9.410  10.296 -0.07 -0.02    +0.305    14.835
ATOM     52  O   UNL d   1      -9.864   8.270  10.235 -0.18 +0.00    -0.251    14.835
ATOM     53  O   UNL d   1     -10.606  10.083   9.172 -0.08 +0.08    -0.481    14.835
ATOM     54  H   UNL d   1      -9.894   9.841   8.542 -0.27 -0.12    +0.295    14.835
TER
ENDMDL
MODEL       67
USER    Run = 67
USER    Cluster Rank = 30
USER    Number of conformations in this cluster = 1
USER  
USER    RMSD from reference structure       = 21.094 A
USER  
USER    Estimated Free Energy of Binding    =   -4.60 kcal/mol  [=(1)+(2)+(3)-(4)]
USER    Estimated Inhibition Constant, Ki   =  425.77 uM (micromolar)  [Temperature = 298.15 K]
USER    
USER    (1) Final Intermolecular Energy     =   -8.48 kcal/mol
USER        vdW + Hbond + desolv Energy     =   -8.07 kcal/mol
USER        Electrostatic Energy            =   -0.41 kcal/mol
USER    (2) Final Total Internal Energy     =   -1.66 kcal/mol
USER    (3) Torsional Free Energy           =   +3.88 kcal/mol
USER    (4) Unbound System's Energy  [=(2)] =   -1.66 kcal/mol
USER    
USER    
USER  
USER    DPF = D:/Protein_go_brrr/autodock/final/mut_N102T/heme/dock.dpf
USER    NEWDPF move	heme_opt.pdbqt
USER    NEWDPF about	0.153000 0.018000 -0.028000
USER    NEWDPF tran0	-2.001561 5.304962 -21.436924
USER    NEWDPF axisangle0	0.262514 -0.958688 0.109557 172.714307
USER    NEWDPF quaternion0	0.261984 -0.956751 0.109336 0.063537
USER    NEWDPF dihe0	87.64 15.25 -179.86 -71.01 -145.73 127.09 143.12 -60.81 75.65 -147.73 139.13 77.16 -177.46 
USER  
USER                              x       y       z    vdW   Elec        q     RMS 
ATOM      1  O   UNL d   1       2.087   9.499 -22.113 -0.07 +0.01    -0.289    21.094
ATOM      2  O   UNL d   1       2.349   2.887 -18.562 -0.29 +0.01    -0.289    21.094
ATOM      3  N   UNL d   1      -0.641   7.403 -21.863 -0.09 +0.00    -0.247    21.094
ATOM      4  N   UNL d   1       0.484   4.965 -20.590 -0.12 +0.01    -0.247    21.094
ATOM      5  N   UNL d   1      -1.932   3.585 -21.312 -0.12 -0.04    -0.354    21.094
ATOM      6  N   UNL d   1      -3.084   6.113 -22.647 -0.06 -0.04    -0.354    21.094
ATOM      7  C   UNL d   1      -0.175   9.502 -23.040 -0.07 +0.00    +0.084    21.094
ATOM      8  C   UNL d   1       2.471   5.248 -19.195 -0.27 -0.01    +0.084    21.094
ATOM      9  C   UNL d   1       1.443   5.854 -20.157 -0.23 -0.01    +0.058    21.094
ATOM     10  C   UNL d   1      -1.154   8.370 -22.711 -0.10 +0.00    +0.058    21.094
ATOM     11  C   UNL d   1       0.975   9.012 -22.213 -0.08 -0.01    +0.193    21.094
ATOM     12  C   UNL d   1       0.560   7.747 -21.528 -0.16 -0.01    +0.109    21.094
ATOM     13  C   UNL d   1       1.939   3.843 -19.192 -0.21 -0.01    +0.193    21.094
ATOM     14  C   UNL d   1       0.237   9.495 -24.514 -0.03 +0.00    +0.026    21.094
ATOM     15  C   UNL d   1       1.506   7.126 -20.579 -0.26 -0.01    +0.055    21.094
ATOM     16  C   UNL d   1       2.338   5.828 -17.784 -0.30 -0.01    +0.026    21.094
ATOM     17  C   UNL d   1       0.740   3.803 -20.082 -0.14 -0.00    +0.109    21.094
ATOM     18  C   UNL d   1      -2.426   8.391 -23.152 -0.09 +0.00    +0.050    21.094
ATOM     19  C   UNL d   1      -3.423   7.435 -22.830 -0.06 +0.00    +0.045    21.094
ATOM     20  C   UNL d   1      -1.171   2.524 -20.894 -0.22 +0.00    +0.045    21.094
ATOM     21  C   UNL d   1       0.030   2.535 -20.308 -0.10 +0.00    +0.057    21.094
ATOM     22  C   UNL d   1      -3.111   1.729 -21.801 -0.21 -0.00    -0.019    21.094
ATOM     23  C   UNL d   1      -3.122   3.203 -21.874 -0.23 +0.01    +0.045    21.094
ATOM     24  C   UNL d   1      -1.954   1.333 -21.219 -0.24 -0.00    -0.022    21.094
ATOM     25  C   UNL d   1      -4.210   5.351 -22.436 -0.20 +0.01    +0.049    21.094
ATOM     26  C   UNL d   1      -4.799   7.540 -22.698 -0.12 -0.00    -0.018    21.094
ATOM     27  C   UNL d   1      -5.288   6.225 -22.429 -0.21 +0.00    +0.003    21.094
ATOM     28  C   UNL d   1      -4.130   3.933 -22.376 -0.23 +0.01    +0.052    21.094
ATOM     29  C   UNL d   1      -1.488  -0.051 -20.915 -0.30 -0.00    +0.046    21.094
ATOM     30  C   UNL d   1      -5.611   8.785 -22.811 -0.10 +0.00    +0.046    21.094
ATOM     31  H   UNL d   1      -1.646   4.541 -21.132 +0.06 +0.02    +0.166    21.094
ATOM     32  H   UNL d   1      -2.135   5.764 -22.706 +0.04 +0.01    +0.166    21.094
ATOM     33  C   UNL d   1      -0.610  10.899 -22.584 -0.12 +0.01    +0.141    21.094
ATOM     34  C   UNL d   1       0.402  11.555 -21.683 -0.15 +0.02    +0.306    21.094
ATOM     35  O   UNL d   1       0.428  11.496 -20.466 -0.24 -0.00    -0.251    21.094
ATOM     36  O   UNL d   1       1.331  12.248 -22.365 -0.01 -0.04    -0.481    21.094
ATOM     37  H   UNL d   1       2.080  11.623 -22.468 +0.06 +0.01    +0.295    21.094
ATOM     38  C   UNL d   1      -6.665   5.879 -22.239 -0.24 +0.00    +0.017    21.094
ATOM     39  C   UNL d   1      -7.429   6.281 -21.212 -0.26 +0.02    +0.092    21.094
ATOM     40  C   UNL d   1      -8.834   5.870 -21.142 -0.15 +0.04    +0.330    21.094
ATOM     41  O   UNL d   1      -9.397   5.300 -20.228 -0.23 -0.04    -0.246    21.094
ATOM     42  O   UNL d   1      -9.474   6.223 -22.267 -0.02 -0.03    -0.477    21.094
ATOM     43  H   UNL d   1     -10.422   6.142 -22.034 +0.05 +0.02    +0.295    21.094
ATOM     44  C   UNL d   1       3.925   5.284 -19.675 -0.23 +0.00    +0.141    21.094
ATOM     45  C   UNL d   1       4.922   5.074 -18.566 -0.29 +0.08    +0.306    21.094
ATOM     46  O   UNL d   1       5.489   4.032 -18.286 -0.34 -0.06    -0.251    21.094
ATOM     47  O   UNL d   1       5.132   6.190 -17.844 -0.42 -0.20    -0.481    21.094
ATOM     48  H   UNL d   1       4.560   6.868 -18.264 -0.42 -0.20    +0.295    21.094
ATOM     49  C   UNL d   1      -4.214   0.852 -22.315 -0.14 +0.00    +0.048    21.094
ATOM     50  C   UNL d   1      -3.891   0.281 -23.696 -0.07 -0.00    +0.125    21.094
ATOM     51  C   UNL d   1      -3.223   1.314 -24.560 -0.02 -0.01    +0.305    21.094
ATOM     52  O   UNL d   1      -3.710   2.340 -25.002 -0.01 +0.00    -0.251    21.094
ATOM     53  O   UNL d   1      -1.946   0.987 -24.841 +0.01 +0.02    -0.481    21.094
ATOM     54  H   UNL d   1      -1.966   0.743 -25.790 +0.02 -0.01    +0.295    21.094
TER
ENDMDL
MODEL       15
USER    Run = 15
USER    Cluster Rank = 31
USER    Number of conformations in this cluster = 2
USER  
USER    RMSD from reference structure       = 15.650 A
USER  
USER    Estimated Free Energy of Binding    =   -4.59 kcal/mol  [=(1)+(2)+(3)-(4)]
USER    Estimated Inhibition Constant, Ki   =  432.73 uM (micromolar)  [Temperature = 298.15 K]
USER    
USER    (1) Final Intermolecular Energy     =   -8.47 kcal/mol
USER        vdW + Hbond + desolv Energy     =   -8.18 kcal/mol
USER        Electrostatic Energy            =   -0.29 kcal/mol
USER    (2) Final Total Internal Energy     =   -2.53 kcal/mol
USER    (3) Torsional Free Energy           =   +3.88 kcal/mol
USER    (4) Unbound System's Energy  [=(2)] =   -2.53 kcal/mol
USER    
USER    
USER  
USER    DPF = D:/Protein_go_brrr/autodock/final/mut_N102T/heme/dock.dpf
USER    NEWDPF move	heme_opt.pdbqt
USER    NEWDPF about	0.153000 0.018000 -0.028000
USER    NEWDPF tran0	14.174381 4.400731 -12.017259
USER    NEWDPF axisangle0	-0.270303 0.932661 0.238913 89.350451
USER    NEWDPF quaternion0	-0.190047 0.655742 0.167977 0.711104
USER    NEWDPF dihe0	122.32 -10.22 168.25 53.19 -132.79 34.17 152.95 95.95 26.58 -6.17 71.13 -174.20 179.15 
USER  
USER                              x       y       z    vdW   Elec        q     RMS 
ATOM      1  O   UNL d   1      13.042   8.579 -16.019 -0.06 -0.00    -0.289    15.650
ATOM      2  O   UNL d   1      15.576   1.554 -16.810 -0.01 +0.01    -0.289    15.650
ATOM      3  N   UNL d   1      13.691   6.514 -13.334 -0.15 +0.05    -0.247    15.650
ATOM      4  N   UNL d   1      14.338   3.912 -14.615 -0.03 +0.07    -0.247    15.650
ATOM      5  N   UNL d   1      14.065   2.678 -12.032 +0.23 +0.13    -0.354    15.650
ATOM      6  N   UNL d   1      13.375   5.379 -10.715 -0.21 +0.13    -0.354    15.650
ATOM      7  C   UNL d   1      12.705   8.741 -13.604 -0.16 -0.01    +0.084    15.650
ATOM      8  C   UNL d   1      15.229   3.976 -16.889 -0.03 -0.00    +0.084    15.650
ATOM      9  C   UNL d   1      14.630   4.720 -15.691 -0.09 -0.01    +0.058    15.650
ATOM     10  C   UNL d   1      13.120   7.593 -12.680 -0.21 -0.01    +0.058    15.650
ATOM     11  C   UNL d   1      13.158   8.128 -14.894 -0.11 -0.01    +0.193    15.650
ATOM     12  C   UNL d   1      13.762   6.791 -14.595 -0.15 -0.01    +0.109    15.650
ATOM     13  C   UNL d   1      15.189   2.591 -16.307 -0.03 -0.01    +0.193    15.650
ATOM     14  C   UNL d   1      11.185   8.922 -13.649 -0.15 -0.00    +0.026    15.650
ATOM     15  C   UNL d   1      14.366   6.035 -15.711 -0.11 -0.00    +0.055    15.650
ATOM     16  C   UNL d   1      16.691   4.367 -17.127 -0.01 -0.00    +0.026    15.650
ATOM     17  C   UNL d   1      14.621   2.688 -14.929 -0.08 -0.02    +0.109    15.650
ATOM     18  C   UNL d   1      13.011   7.692 -11.342 -0.26 -0.01    +0.050    15.650
ATOM     19  C   UNL d   1      13.445   6.718 -10.407 -0.31 -0.01    +0.045    15.650
ATOM     20  C   UNL d   1      14.150   1.559 -12.819 -0.07 -0.01    +0.045    15.650
ATOM     21  C   UNL d   1      14.421   1.473 -14.126 -0.11 -0.01    +0.057    15.650
ATOM     22  C   UNL d   1      13.654   0.922 -10.683 -0.16 +0.00    -0.019    15.650
ATOM     23  C   UNL d   1      13.769   2.394 -10.726 -0.19 -0.01    +0.045    15.650
ATOM     24  C   UNL d   1      13.882   0.434 -11.925 -0.13 +0.00    -0.022    15.650
ATOM     25  C   UNL d   1      13.759   4.614  -9.638 -0.24 -0.02    +0.049    15.650
ATOM     26  C   UNL d   1      13.922   6.828  -9.110 -0.27 +0.00    -0.018    15.650
ATOM     27  C   UNL d   1      14.138   5.497  -8.636 -0.25 -0.00    +0.003    15.650
ATOM     28  C   UNL d   1      13.622   3.199  -9.663 -0.28 -0.02    +0.052    15.650
ATOM     29  C   UNL d   1      13.889  -0.985 -12.383 -0.07 -0.00    +0.046    15.650
ATOM     30  C   UNL d   1      14.166   8.091  -8.355 -0.20 -0.01    +0.046    15.650
ATOM     31  H   UNL d   1      14.286   3.598 -12.399 -0.44 -0.08    +0.166    15.650
ATOM     32  H   UNL d   1      13.043   5.025 -11.605 -0.37 -0.09    +0.166    15.650
ATOM     33  C   UNL d   1      13.422  10.073 -13.360 -0.05 -0.01    +0.141    15.650
ATOM     34  C   UNL d   1      14.843  10.065 -13.855 -0.01 -0.02    +0.306    15.650
ATOM     35  O   UNL d   1      15.799   9.559 -13.293 -0.01 +0.02    -0.251    15.650
ATOM     36  O   UNL d   1      14.983  10.694 -15.036 +0.00 +0.03    -0.481    15.650
ATOM     37  H   UNL d   1      14.405  10.194 -15.652 +0.02 -0.01    +0.295    15.650
ATOM     38  C   UNL d   1      14.615   5.152  -7.331 -0.28 -0.00    +0.017    15.650
ATOM     39  C   UNL d   1      14.218   5.725  -6.185 -0.33 -0.01    +0.092    15.650
ATOM     40  C   UNL d   1      14.773   5.267  -4.909 -0.28 -0.11    +0.330    15.650
ATOM     41  O   UNL d   1      15.888   4.830  -4.697 -0.14 +0.08    -0.246    15.650
ATOM     42  O   UNL d   1      13.860   5.399  -3.934 -0.67 +0.26    -0.477    15.650
ATOM     43  H   UNL d   1      14.254   4.920  -3.177 -0.11 -0.49    +0.295    15.650
ATOM     44  C   UNL d   1      14.417   4.051 -18.186 -0.03 -0.00    +0.141    15.650
ATOM     45  C   UNL d   1      12.999   3.570 -18.027 -0.04 +0.00    +0.306    15.650
ATOM     46  O   UNL d   1      11.993   4.257 -18.039 -0.10 -0.02    -0.251    15.650
ATOM     47  O   UNL d   1      12.925   2.241 -17.834 -0.00 +0.01    -0.481    15.650
ATOM     48  H   UNL d   1      13.821   1.908 -18.053 +0.04 -0.01    +0.295    15.650
ATOM     49  C   UNL d   1      13.321   0.139  -9.447 -0.16 -0.01    +0.048    15.650
ATOM     50  C   UNL d   1      11.828  -0.179  -9.360 -0.29 -0.02    +0.125    15.650
ATOM     51  C   UNL d   1      11.167   0.640  -8.288 -0.23 -0.08    +0.305    15.650
ATOM     52  O   UNL d   1      10.659   1.741  -8.400 -0.52 +0.10    -0.251    15.650
ATOM     53  O   UNL d   1      11.191   0.017  -7.092 -0.21 +0.01    -0.481    15.650
ATOM     54  H   UNL d   1      10.255   0.024  -6.802 -0.07 -0.03    +0.295    15.650
TER
ENDMDL
MODEL       64
USER    Run = 64
USER    Cluster Rank = 32
USER    Number of conformations in this cluster = 1
USER  
USER    RMSD from reference structure       = 21.329 A
USER  
USER    Estimated Free Energy of Binding    =   -4.36 kcal/mol  [=(1)+(2)+(3)-(4)]
USER    Estimated Inhibition Constant, Ki   =  637.67 uM (micromolar)  [Temperature = 298.15 K]
USER    
USER    (1) Final Intermolecular Energy     =   -8.24 kcal/mol
USER        vdW + Hbond + desolv Energy     =   -7.94 kcal/mol
USER        Electrostatic Energy            =   -0.29 kcal/mol
USER    (2) Final Total Internal Energy     =   -1.74 kcal/mol
USER    (3) Torsional Free Energy           =   +3.88 kcal/mol
USER    (4) Unbound System's Energy  [=(2)] =   -1.74 kcal/mol
USER    
USER    
USER  
USER    DPF = D:/Protein_go_brrr/autodock/final/mut_N102T/heme/dock.dpf
USER    NEWDPF move	heme_opt.pdbqt
USER    NEWDPF about	0.153000 0.018000 -0.028000
USER    NEWDPF tran0	0.676641 -13.414171 -19.753493
USER    NEWDPF axisangle0	0.846074 -0.303583 -0.438173 119.797808
USER    NEWDPF quaternion0	0.731974 -0.262642 -0.379082 0.501527
USER    NEWDPF dihe0	-179.92 -37.44 -163.47 1.45 -150.71 -132.23 -28.09 90.13 24.98 -17.43 123.62 -92.85 -134.50 
USER  
USER                              x       y       z    vdW   Elec        q     RMS 
ATOM      1  O   UNL d   1      -4.028 -13.392 -16.201 -0.37 -0.08    -0.289    21.329
ATOM      2  O   UNL d   1       3.316 -13.137 -14.655 -0.66 -0.25    -0.289    21.329
ATOM      3  N   UNL d   1      -1.598 -13.568 -18.642 -0.09 +0.02    -0.247    21.329
ATOM      4  N   UNL d   1       0.918 -13.089 -17.137 -0.07 -0.04    -0.247    21.329
ATOM      5  N   UNL d   1       2.243 -12.696 -19.658 -0.06 -0.07    -0.354    21.329
ATOM      6  N   UNL d   1      -0.376 -13.175 -21.211 -0.07 +0.00    -0.354    21.329
ATOM      7  C   UNL d   1      -4.045 -13.419 -18.645 -0.17 -0.00    +0.084    21.329
ATOM      8  C   UNL d   1       0.930 -13.672 -14.764 -0.21 +0.01    +0.084    21.329
ATOM      9  C   UNL d   1       0.154 -13.522 -16.077 -0.17 +0.01    +0.058    21.329
ATOM     10  C   UNL d   1      -2.733 -13.501 -19.432 -0.16 -0.00    +0.058    21.329
ATOM     11  C   UNL d   1      -3.450 -13.470 -17.270 -0.23 +0.01    +0.193    21.329
ATOM     12  C   UNL d   1      -1.963 -13.585 -17.402 -0.19 -0.00    +0.109    21.329
ATOM     13  C   UNL d   1       2.268 -13.207 -15.266 -0.15 +0.10    +0.193    21.329
ATOM     14  C   UNL d   1      -4.744 -12.070 -18.833 -0.32 -0.00    +0.026    21.329
ATOM     15  C   UNL d   1      -1.166 -13.745 -16.169 -0.29 +0.00    +0.055    21.329
ATOM     16  C   UNL d   1       1.046 -15.138 -14.337 -0.21 +0.00    +0.026    21.329
ATOM     17  C   UNL d   1       2.124 -12.877 -16.716 -0.14 +0.06    +0.109    21.329
ATOM     18  C   UNL d   1      -2.724 -13.590 -20.776 -0.15 -0.00    +0.050    21.329
ATOM     19  C   UNL d   1      -1.569 -13.754 -21.581 -0.11 -0.00    +0.045    21.329
ATOM     20  C   UNL d   1       3.233 -12.283 -18.805 -0.16 +0.03    +0.045    21.329
ATOM     21  C   UNL d   1       3.272 -12.350 -17.470 +0.06 +0.06    +0.057    21.329
ATOM     22  C   UNL d   1       3.879 -11.844 -20.952 -0.14 -0.00    -0.019    21.329
ATOM     23  C   UNL d   1       2.542 -12.472 -20.976 -0.14 +0.01    +0.045    21.329
ATOM     24  C   UNL d   1       4.283 -11.736 -19.664 -0.16 -0.01    -0.022    21.329
ATOM     25  C   UNL d   1       0.582 -13.383 -22.176 -0.06 +0.00    +0.049    21.329
ATOM     26  C   UNL d   1      -1.370 -14.387 -22.799 -0.07 +0.00    -0.018    21.329
ATOM     27  C   UNL d   1      -0.005 -14.166 -23.160 -0.08 -0.00    +0.003    21.329
ATOM     28  C   UNL d   1       1.851 -12.747 -22.092 +0.01 +0.00    +0.052    21.329
ATOM     29  C   UNL d   1       5.560 -11.182 -19.131 -0.12 +0.04    +0.046    21.329
ATOM     30  C   UNL d   1      -2.384 -15.152 -23.580 -0.03 -0.00    +0.046    21.329
ATOM     31  H   UNL d   1       1.424 -13.186 -19.315 +0.05 +0.02    +0.166    21.329
ATOM     32  H   UNL d   1      -0.254 -12.637 -20.361 +0.04 -0.00    +0.166    21.329
ATOM     33  C   UNL d   1      -5.012 -14.588 -18.857 -0.08 +0.00    +0.141    21.329
ATOM     34  C   UNL d   1      -4.545 -15.854 -18.191 -0.05 +0.01    +0.306    21.329
ATOM     35  O   UNL d   1      -3.932 -16.764 -18.723 -0.01 -0.00    -0.251    21.329
ATOM     36  O   UNL d   1      -4.873 -15.906 -16.888 -0.22 -0.05    -0.481    21.329
ATOM     37  H   UNL d   1      -5.314 -15.048 -16.710 +0.06 +0.04    +0.295    21.329
ATOM     38  C   UNL d   1       0.617 -14.637 -24.360 -0.05 -0.00    +0.017    21.329
ATOM     39  C   UNL d   1       1.243 -13.866 -25.262 -0.05 -0.00    +0.092    21.329
ATOM     40  C   UNL d   1       1.857 -14.476 -26.444 -0.01 -0.01    +0.330    21.329
ATOM     41  O   UNL d   1       2.959 -14.255 -26.908 -0.00 +0.01    -0.246    21.329
ATOM     42  O   UNL d   1       1.018 -15.371 -26.990 +0.00 +0.02    -0.477    21.329
ATOM     43  H   UNL d   1       1.154 -15.262 -27.953 +0.00 -0.01    +0.295    21.329
ATOM     44  C   UNL d   1       0.444 -12.795 -13.606 -0.41 +0.01    +0.141    21.329
ATOM     45  C   UNL d   1       0.668 -11.324 -13.839 -0.38 +0.06    +0.306    21.329
ATOM     46  O   UNL d   1       1.738 -10.740 -13.816 -0.37 -0.11    -0.251    21.329
ATOM     47  O   UNL d   1      -0.479 -10.658 -14.063 -0.59 -0.08    -0.481    21.329
ATOM     48  H   UNL d   1      -1.184 -11.270 -13.763 -0.28 -0.01    +0.295    21.329
ATOM     49  C   UNL d   1       4.622 -11.399 -22.177 -0.10 +0.01    +0.048    21.329
ATOM     50  C   UNL d   1       5.380 -10.093 -21.939 -0.10 +0.01    +0.125    21.329
ATOM     51  C   UNL d   1       4.453  -9.016 -21.453 -0.16 +0.03    +0.305    21.329
ATOM     52  O   UNL d   1       4.085  -8.813 -20.309 -0.31 -0.05    -0.251    21.329
ATOM     53  O   UNL d   1       4.014  -8.236 -22.460 -0.10 +0.00    -0.481    21.329
ATOM     54  H   UNL d   1       3.442  -7.575 -22.017 -0.14 -0.04    +0.295    21.329
TER
ENDMDL
MODEL        1
USER    Run = 1
USER    Cluster Rank = 33
USER    Number of conformations in this cluster = 5
USER  
USER    RMSD from reference structure       = 14.835 A
USER  
USER    Estimated Free Energy of Binding    =   -4.26 kcal/mol  [=(1)+(2)+(3)-(4)]
USER    Estimated Inhibition Constant, Ki   =  759.65 uM (micromolar)  [Temperature = 298.15 K]
USER    
USER    (1) Final Intermolecular Energy     =   -8.13 kcal/mol
USER        vdW + Hbond + desolv Energy     =   -7.97 kcal/mol
USER        Electrostatic Energy            =   -0.16 kcal/mol
USER    (2) Final Total Internal Energy     =   -4.28 kcal/mol
USER    (3) Torsional Free Energy           =   +3.88 kcal/mol
USER    (4) Unbound System's Energy  [=(2)] =   -4.28 kcal/mol
USER    
USER    
USER  
USER    DPF = D:/Protein_go_brrr/autodock/final/mut_N102T/heme/dock.dpf
USER    NEWDPF move	heme_opt.pdbqt
USER    NEWDPF about	0.153000 0.018000 -0.028000
USER    NEWDPF tran0	-8.748200 11.073077 11.055952
USER    NEWDPF axisangle0	0.509313 -0.373758 -0.775181 -175.157591
USER    NEWDPF quaternion0	0.508858 -0.373424 -0.774489 -0.042245
USER    NEWDPF dihe0	158.42 -130.72 -94.91 -83.60 -145.50 -110.99 126.19 38.58 7.79 -31.22 -87.90 24.18 1.96 
USER  
USER                              x       y       z    vdW   Elec        q     RMS 
ATOM      1  O   UNL d   1      -7.126  12.708  16.483 -0.02 +0.03    -0.289    14.835
ATOM      2  O   UNL d   1      -4.658  14.888   9.734 -0.19 +0.02    -0.289    14.835
ATOM      3  N   UNL d   1      -8.301  11.353  13.537 +0.15 -0.00    -0.247    14.835
ATOM      4  N   UNL d   1      -6.995  13.018  11.451 -0.08 +0.03    -0.247    14.835
ATOM      5  N   UNL d   1      -8.825  11.893   9.539 -0.14 +0.06    -0.354    14.835
ATOM      6  N   UNL d   1     -10.186  10.184  11.713 -0.06 +0.00    -0.354    14.835
ATOM      7  C   UNL d   1      -8.900  11.130  15.903 -0.05 -0.00    +0.084    14.835
ATOM      8  C   UNL d   1      -4.877  14.087  12.037 -0.27 -0.01    +0.084    14.835
ATOM      9  C   UNL d   1      -6.094  13.259  12.463 -0.16 -0.01    +0.058    14.835
ATOM     10  C   UNL d   1      -9.154  10.746  14.442 -0.11 -0.00    +0.058    14.835
ATOM     11  C   UNL d   1      -7.739  12.048  15.664 -0.05 -0.01    +0.193    14.835
ATOM     12  C   UNL d   1      -7.456  12.079  14.194 -0.07 -0.01    +0.109    14.835
ATOM     13  C   UNL d   1      -5.274  14.303  10.603 -0.23 -0.03    +0.193    14.835
ATOM     14  C   UNL d   1     -10.057  11.939  16.494 -0.02 -0.00    +0.026    14.835
ATOM     15  C   UNL d   1      -6.287  12.851  13.727 -0.16 -0.01    +0.055    14.835
ATOM     16  C   UNL d   1      -3.588  13.261  12.072 -0.58 -0.00    +0.026    14.835
ATOM     17  C   UNL d   1      -6.579  13.611  10.378 -0.21 -0.02    +0.109    14.835
ATOM     18  C   UNL d   1     -10.077   9.824  14.108 -0.14 -0.00    +0.050    14.835
ATOM     19  C   UNL d   1     -10.324   9.345  12.796 -0.17 +0.00    +0.045    14.835
ATOM     20  C   UNL d   1      -8.267  12.885   8.775 -0.25 -0.01    +0.045    14.835
ATOM     21  C   UNL d   1      -7.238  13.688   9.066 -0.22 -0.01    +0.057    14.835
ATOM     22  C   UNL d   1      -9.991  11.940   7.612 -0.20 +0.00    -0.019    14.835
ATOM     23  C   UNL d   1      -9.874  11.266   8.921 -0.23 -0.01    +0.045    14.835
ATOM     24  C   UNL d   1      -9.036  12.897   7.532 -0.22 +0.00    -0.022    14.835
ATOM     25  C   UNL d   1     -10.560   9.542  10.555 -0.17 -0.00    +0.049    14.835
ATOM     26  C   UNL d   1     -10.763   8.117  12.326 -0.23 -0.00    -0.018    14.835
ATOM     27  C   UNL d   1     -10.892   8.242  10.908 -0.25 -0.00    +0.003    14.835
ATOM     28  C   UNL d   1     -10.653  10.252   9.327 -0.22 -0.01    +0.052    14.835
ATOM     29  C   UNL d   1      -8.745  13.831   6.407 -0.16 -0.00    +0.046    14.835
ATOM     30  C   UNL d   1     -11.044   6.901  13.141 -0.22 +0.00    +0.046    14.835
ATOM     31  H   UNL d   1      -8.423  11.627  10.431 +0.05 -0.02    +0.166    14.835
ATOM     32  H   UNL d   1      -9.888  11.149  11.786 +0.03 -0.00    +0.166    14.835
ATOM     33  C   UNL d   1      -8.493   9.975  16.824 -0.05 -0.01    +0.141    14.835
ATOM     34  C   UNL d   1      -7.283   9.233  16.323 -0.10 -0.01    +0.306    14.835
ATOM     35  O   UNL d   1      -7.289   8.255  15.595 -0.22 +0.00    -0.251    14.835
ATOM     36  O   UNL d   1      -6.129   9.765  16.764 -0.03 +0.05    -0.481    14.835
ATOM     37  H   UNL d   1      -6.349  10.700  16.965 +0.06 -0.03    +0.295    14.835
ATOM     38  C   UNL d   1     -11.336   7.205  10.026 -0.29 -0.00    +0.017    14.835
ATOM     39  C   UNL d   1     -10.614   6.679   9.024 -0.42 -0.00    +0.092    14.835
ATOM     40  C   UNL d   1     -11.181   5.606   8.202 -0.13 +0.00    +0.330    14.835
ATOM     41  O   UNL d   1     -10.818   4.447   8.139 -0.66 -0.04    -0.246    14.835
ATOM     42  O   UNL d   1     -12.216   6.071   7.486 -0.06 +0.01    -0.477    14.835
ATOM     43  H   UNL d   1     -11.869   6.890   7.075 +0.10 -0.01    +0.295    14.835
ATOM     44  C   UNL d   1      -4.700  15.424  12.764 -0.23 -0.02    +0.141    14.835
ATOM     45  C   UNL d   1      -5.568  16.522  12.210 -0.09 -0.03    +0.306    14.835
ATOM     46  O   UNL d   1      -6.742  16.722  12.471 -0.03 +0.02    -0.251    14.835
ATOM     47  O   UNL d   1      -4.914  17.299  11.328 -0.04 +0.02    -0.481    14.835
ATOM     48  H   UNL d   1      -4.986  16.821  10.475 +0.08 -0.01    +0.295    14.835
ATOM     49  C   UNL d   1     -11.024  11.600   6.579 -0.15 -0.01    +0.048    14.835
ATOM     50  C   UNL d   1     -10.620  10.381   5.750 -0.19 -0.02    +0.125    14.835
ATOM     51  C   UNL d   1     -11.182   9.120   6.341 -0.17 -0.05    +0.305    14.835
ATOM     52  O   UNL d   1     -12.234   8.985   6.941 -0.08 +0.02    -0.251    14.835
ATOM     53  O   UNL d   1     -10.364   8.065   6.151 -0.07 +0.11    -0.481    14.835
ATOM     54  H   UNL d   1      -9.849   8.010   6.983 -0.33 -0.15    +0.295    14.835
TER
ENDMDL
MODEL       46
USER    Run = 46
USER    Cluster Rank = 34
USER    Number of conformations in this cluster = 2
USER  
USER    RMSD from reference structure       = 16.860 A
USER  
USER    Estimated Free Energy of Binding    =   -4.25 kcal/mol  [=(1)+(2)+(3)-(4)]
USER    Estimated Inhibition Constant, Ki   =  765.54 uM (micromolar)  [Temperature = 298.15 K]
USER    
USER    (1) Final Intermolecular Energy     =   -8.13 kcal/mol
USER        vdW + Hbond + desolv Energy     =   -7.91 kcal/mol
USER        Electrostatic Energy            =   -0.22 kcal/mol
USER    (2) Final Total Internal Energy     =   -4.01 kcal/mol
USER    (3) Torsional Free Energy           =   +3.88 kcal/mol
USER    (4) Unbound System's Energy  [=(2)] =   -4.01 kcal/mol
USER    
USER    
USER  
USER    DPF = D:/Protein_go_brrr/autodock/final/mut_N102T/heme/dock.dpf
USER    NEWDPF move	heme_opt.pdbqt
USER    NEWDPF about	0.153000 0.018000 -0.028000
USER    NEWDPF tran0	-7.573029 5.067811 16.894943
USER    NEWDPF axisangle0	-0.959778 0.097226 -0.263388 158.158676
USER    NEWDPF quaternion0	-0.942397 0.095465 -0.258618 0.189450
USER    NEWDPF dihe0	118.42 -69.54 -137.28 -0.97 -131.56 -129.92 124.59 47.54 27.34 -20.18 -54.93 13.69 22.59 
USER  
USER                              x       y       z    vdW   Elec        q     RMS 
ATOM      1  O   UNL d   1     -12.508   3.727  13.962 -0.05 -0.01    -0.289    16.860
ATOM      2  O   UNL d   1      -9.192  10.337  15.267 -0.06 +0.01    -0.289    16.860
ATOM      3  N   UNL d   1      -9.656   4.041  15.876 -0.04 -0.05    -0.247    16.860
ATOM      4  N   UNL d   1      -8.942   6.909  15.572 -0.15 -0.01    -0.247    16.860
ATOM      5  N   UNL d   1      -6.372   6.293  16.706 -0.14 +0.01    -0.354    16.860
ATOM      6  N   UNL d   1      -7.115   3.316  16.999 -0.17 -0.09    -0.354    16.860
ATOM      7  C   UNL d   1     -10.967   2.154  15.023 -0.15 +0.02    +0.084    16.860
ATOM      8  C   UNL d   1     -10.755   8.465  15.061 -0.07 +0.00    +0.084    16.860
ATOM      9  C   UNL d   1     -10.279   7.023  15.263 -0.14 +0.00    +0.058    16.860
ATOM     10  C   UNL d   1      -9.761   2.661  15.818 -0.18 +0.02    +0.058    16.860
ATOM     11  C   UNL d   1     -11.536   3.491  14.656 -0.09 +0.02    +0.193    16.860
ATOM     12  C   UNL d   1     -10.667   4.554  15.253 -0.08 +0.01    +0.109    16.860
ATOM     13  C   UNL d   1      -9.433   9.146  15.276 -0.09 -0.00    +0.193    16.860
ATOM     14  C   UNL d   1     -10.547   1.427  13.743 -0.31 +0.01    +0.026    16.860
ATOM     15  C   UNL d   1     -11.085   5.962  15.101 -0.13 +0.00    +0.055    16.860
ATOM     16  C   UNL d   1     -11.721   8.904  16.166 -0.03 -0.00    +0.026    16.860
ATOM     17  C   UNL d   1      -8.416   8.092  15.570 -0.20 +0.00    +0.109    16.860
ATOM     18  C   UNL d   1      -8.943   1.814  16.471 -0.20 +0.03    +0.050    16.860
ATOM     19  C   UNL d   1      -7.855   2.195  17.298 -0.21 +0.02    +0.045    16.860
ATOM     20  C   UNL d   1      -6.142   7.577  16.283 -0.26 -0.00    +0.045    16.860
ATOM     21  C   UNL d   1      -7.009   8.463  15.783 -0.23 -0.00    +0.057    16.860
ATOM     22  C   UNL d   1      -4.174   6.677  17.017 -0.36 +0.00    -0.019    16.860
ATOM     23  C   UNL d   1      -5.243   5.669  17.166 -0.33 -0.00    +0.045    16.860
ATOM     24  C   UNL d   1      -4.713   7.804  16.495 -0.31 +0.00    -0.022    16.860
ATOM     25  C   UNL d   1      -6.061   3.446  17.874 -0.22 +0.01    +0.049    16.860
ATOM     26  C   UNL d   1      -7.291   1.602  18.417 -0.14 -0.01    -0.018    16.860
ATOM     27  C   UNL d   1      -6.170   2.407  18.788 -0.16 +0.00    +0.003    16.860
ATOM     28  C   UNL d   1      -5.064   4.439  17.672 -0.31 -0.00    +0.052    16.860
ATOM     29  C   UNL d   1      -4.042   9.096  16.174 -0.18 -0.02    +0.046    16.860
ATOM     30  C   UNL d   1      -7.763   0.365  19.102 -0.11 +0.02    +0.046    16.860
ATOM     31  H   UNL d   1      -7.311   5.910  16.735 +0.06 +0.01    +0.166    16.860
ATOM     32  H   UNL d   1      -7.311   3.925  16.214 +0.04 +0.04    +0.166    16.860
ATOM     33  C   UNL d   1     -11.987   1.337  15.824 -0.05 +0.02    +0.141    16.860
ATOM     34  C   UNL d   1     -12.841   2.195  16.719 +0.00 +0.01    +0.306    16.860
ATOM     35  O   UNL d   1     -12.506   2.678  17.787 -0.00 -0.01    -0.251    16.860
ATOM     36  O   UNL d   1     -14.072   2.400  16.218 +0.01 -0.00    -0.481    16.860
ATOM     37  H   UNL d   1     -13.921   2.908  15.393 +0.02 +0.00    +0.295    16.860
ATOM     38  C   UNL d   1      -5.292   2.142  19.887 -0.15 -0.00    +0.017    16.860
ATOM     39  C   UNL d   1      -4.944   3.030  20.832 -0.08 -0.02    +0.092    16.860
ATOM     40  C   UNL d   1      -4.048   2.627  21.918 -0.04 -0.15    +0.330    16.860
ATOM     41  O   UNL d   1      -4.192   2.818  23.111 -0.02 +0.08    -0.246    16.860
ATOM     42  O   UNL d   1      -2.986   1.973  21.422 +0.00 +0.51    -0.477    16.860
ATOM     43  H   UNL d   1      -2.241   2.592  21.566 -0.41 -0.51    +0.295    16.860
ATOM     44  C   UNL d   1     -11.319   8.786  13.673 -0.08 -0.00    +0.141    16.860
ATOM     45  C   UNL d   1     -10.269   8.797  12.594 -0.15 +0.01    +0.306    16.860
ATOM     46  O   UNL d   1      -9.800   7.826  12.026 -0.36 -0.03    -0.251    16.860
ATOM     47  O   UNL d   1      -9.843  10.039  12.303 -0.07 -0.01    -0.481    16.860
ATOM     48  H   UNL d   1      -9.752  10.480  13.175 +0.06 +0.00    +0.295    16.860
ATOM     49  C   UNL d   1      -2.738   6.441  17.381 -0.34 -0.01    +0.048    16.860
ATOM     50  C   UNL d   1      -2.573   6.117  18.865 -0.20 -0.03    +0.125    16.860
ATOM     51  C   UNL d   1      -1.825   4.827  19.053 -0.20 -0.13    +0.305    16.860
ATOM     52  O   UNL d   1      -0.851   4.437  18.435 -0.32 +0.12    -0.251    16.860
ATOM     53  O   UNL d   1      -2.365   4.069  20.028 -0.11 +0.34    -0.481    16.860
ATOM     54  H   UNL d   1      -1.811   3.260  20.035 -0.41 -0.45    +0.295    16.860
TER
ENDMDL
MODEL       92
USER    Run = 92
USER    Cluster Rank = 35
USER    Number of conformations in this cluster = 1
USER  
USER    RMSD from reference structure       = 10.414 A
USER  
USER    Estimated Free Energy of Binding    =   -4.17 kcal/mol  [=(1)+(2)+(3)-(4)]
USER    Estimated Inhibition Constant, Ki   =  874.52 uM (micromolar)  [Temperature = 298.15 K]
USER    
USER    (1) Final Intermolecular Energy     =   -8.05 kcal/mol
USER        vdW + Hbond + desolv Energy     =   -7.58 kcal/mol
USER        Electrostatic Energy            =   -0.47 kcal/mol
USER    (2) Final Total Internal Energy     =   -2.49 kcal/mol
USER    (3) Torsional Free Energy           =   +3.88 kcal/mol
USER    (4) Unbound System's Energy  [=(2)] =   -2.49 kcal/mol
USER    
USER    
USER  
USER    DPF = D:/Protein_go_brrr/autodock/final/mut_N102T/heme/dock.dpf
USER    NEWDPF move	heme_opt.pdbqt
USER    NEWDPF about	0.153000 0.018000 -0.028000
USER    NEWDPF tran0	-12.285434 -5.137541 5.118162
USER    NEWDPF axisangle0	-0.623263 -0.301075 -0.721733 -166.982006
USER    NEWDPF quaternion0	-0.619245 -0.299134 -0.717080 -0.113359
USER    NEWDPF dihe0	120.67 167.27 83.94 1.22 -131.36 62.74 -42.72 -89.95 41.99 -113.45 61.83 -139.82 158.49 
USER  
USER                              x       y       z    vdW   Elec        q     RMS 
ATOM      1  O   UNL d   1      -9.690  -7.278   0.277 -0.13 +0.04    -0.289    10.414
ATOM      2  O   UNL d   1     -15.613  -2.735   1.094 -0.02 -0.01    -0.289    10.414
ATOM      3  N   UNL d   1     -10.951  -6.389   3.362 -0.12 +0.15    -0.247    10.414
ATOM      4  N   UNL d   1     -13.036  -4.380   2.694 -0.15 +0.12    -0.247    10.414
ATOM      5  N   UNL d   1     -13.099  -3.658   5.477 +0.03 +0.32    -0.354    10.414
ATOM      6  N   UNL d   1     -10.922  -5.732   6.157 -0.08 +0.29    -0.354    10.414
ATOM      7  C   UNL d   1      -8.990  -7.642   2.591 -0.23 -0.02    +0.084    10.414
ATOM      8  C   UNL d   1     -14.062  -4.527   0.481 -0.07 +0.00    +0.084    10.414
ATOM      9  C   UNL d   1     -13.004  -5.019   1.475 -0.13 -0.01    +0.058    10.414
ATOM     10  C   UNL d   1      -9.816  -7.080   3.752 -0.26 -0.02    +0.058    10.414
ATOM     11  C   UNL d   1      -9.870  -7.163   1.476 -0.12 -0.04    +0.193    10.414
ATOM     12  C   UNL d   1     -11.038  -6.440   2.072 -0.14 -0.03    +0.109    10.414
ATOM     13  C   UNL d   1     -14.675  -3.464   1.350 -0.07 +0.00    +0.193    10.414
ATOM     14  C   UNL d   1      -7.625  -6.960   2.473 -0.56 -0.01    +0.026    10.414
ATOM     15  C   UNL d   1     -12.095  -5.955   1.162 -0.13 -0.01    +0.055    10.414
ATOM     16  C   UNL d   1     -15.117  -5.600   0.197 -0.01 -0.00    +0.026    10.414
ATOM     17  C   UNL d   1     -13.958  -3.473   2.661 -0.16 -0.03    +0.109    10.414
ATOM     18  C   UNL d   1      -9.488  -7.331   5.033 -0.35 -0.02    +0.050    10.414
ATOM     19  C   UNL d   1     -10.236  -6.925   6.168 -0.31 -0.02    +0.045    10.414
ATOM     20  C   UNL d   1     -13.866  -2.649   4.954 -0.10 -0.03    +0.045    10.414
ATOM     21  C   UNL d   1     -14.317  -2.501   3.704 -0.17 -0.02    +0.057    10.414
ATOM     22  C   UNL d   1     -13.491  -2.221   7.166 -0.12 +0.01    -0.019    10.414
ATOM     23  C   UNL d   1     -12.821  -3.487   6.806 -0.04 -0.03    +0.045    10.414
ATOM     24  C   UNL d   1     -14.108  -1.730   6.066 -0.11 +0.01    -0.022    10.414
ATOM     25  C   UNL d   1     -11.499  -5.495   7.383 -0.17 -0.04    +0.049    10.414
ATOM     26  C   UNL d   1     -10.402  -7.496   7.421 -0.30 +0.01    -0.018    10.414
ATOM     27  C   UNL d   1     -11.216  -6.598   8.177 -0.23 -0.00    +0.003    10.414
ATOM     28  C   UNL d   1     -12.129  -4.252   7.665 -0.15 -0.03    +0.052    10.414
ATOM     29  C   UNL d   1     -14.921  -0.488   5.928 -0.07 -0.01    +0.046    10.414
ATOM     30  C   UNL d   1      -9.841  -8.796   7.888 -0.25 -0.01    +0.046    10.414
ATOM     31  H   UNL d   1     -12.853  -4.472   4.924 +0.02 -0.16    +0.166    10.414
ATOM     32  H   UNL d   1     -10.951  -5.109   5.359 -0.30 -0.25    +0.166    10.414
ATOM     33  C   UNL d   1      -8.861  -9.169   2.555 -0.23 -0.02    +0.141    10.414
ATOM     34  C   UNL d   1      -9.965  -9.826   1.771 -0.08 -0.04    +0.306    10.414
ATOM     35  O   UNL d   1     -11.109 -10.007   2.152 -0.05 +0.03    -0.251    10.414
ATOM     36  O   UNL d   1      -9.569 -10.217   0.547 -0.02 +0.10    -0.481    10.414
ATOM     37  H   UNL d   1      -9.308  -9.386   0.095 -0.41 -0.13    +0.295    10.414
ATOM     38  C   UNL d   1     -11.620  -6.796   9.537 -0.16 -0.01    +0.017    10.414
ATOM     39  C   UNL d   1     -10.839  -6.607  10.611 -0.16 -0.09    +0.092    10.414
ATOM     40  C   UNL d   1     -11.380  -6.829  11.955 -0.05 -0.18    +0.330    10.414
ATOM     41  O   UNL d   1     -11.828  -7.862  12.415 -0.02 +0.08    -0.246    10.414
ATOM     42  O   UNL d   1     -11.314  -5.696  12.672 -0.03 +0.30    -0.477    10.414
ATOM     43  H   UNL d   1     -10.729  -5.117  12.142 -0.21 -0.39    +0.295    10.414
ATOM     44  C   UNL d   1     -13.518  -3.926  -0.819 -0.09 +0.03    +0.141    10.414
ATOM     45  C   UNL d   1     -14.535  -3.106  -1.566 -0.02 +0.05    +0.306    10.414
ATOM     46  O   UNL d   1     -15.347  -3.518  -2.376 -0.00 -0.02    -0.251    10.414
ATOM     47  O   UNL d   1     -14.457  -1.796  -1.272 -0.03 -0.14    -0.481    10.414
ATOM     48  H   UNL d   1     -15.144  -1.654  -0.586 +0.03 +0.06    +0.295    10.414
ATOM     49  C   UNL d   1     -13.452  -1.607   8.535 -0.10 -0.02    +0.048    10.414
ATOM     50  C   UNL d   1     -12.100  -0.958   8.829 -0.19 -0.05    +0.125    10.414
ATOM     51  C   UNL d   1     -11.422  -1.632   9.988 -0.17 -0.18    +0.305    10.414
ATOM     52  O   UNL d   1     -11.432  -1.289  11.157 -0.16 +0.11    -0.251    10.414
ATOM     53  O   UNL d   1     -10.738  -2.728   9.603 -0.12 +0.57    -0.481    10.414
ATOM     54  H   UNL d   1     -10.359  -3.077  10.437 -0.34 -0.70    +0.295    10.414
TER
ENDMDL
MODEL       72
USER    Run = 72
USER    Cluster Rank = 36
USER    Number of conformations in this cluster = 1
USER  
USER    RMSD from reference structure       = 15.570 A
USER  
USER    Estimated Free Energy of Binding    =   -4.14 kcal/mol  [=(1)+(2)+(3)-(4)]
USER    Estimated Inhibition Constant, Ki   =  929.40 uM (micromolar)  [Temperature = 298.15 K]
USER    
USER    (1) Final Intermolecular Energy     =   -8.01 kcal/mol
USER        vdW + Hbond + desolv Energy     =   -7.87 kcal/mol
USER        Electrostatic Energy            =   -0.14 kcal/mol
USER    (2) Final Total Internal Energy     =   -4.24 kcal/mol
USER    (3) Torsional Free Energy           =   +3.88 kcal/mol
USER    (4) Unbound System's Energy  [=(2)] =   -4.24 kcal/mol
USER    
USER    
USER  
USER    DPF = D:/Protein_go_brrr/autodock/final/mut_N102T/heme/dock.dpf
USER    NEWDPF move	heme_opt.pdbqt
USER    NEWDPF about	0.153000 0.018000 -0.028000
USER    NEWDPF tran0	-8.416972 11.446429 12.286683
USER    NEWDPF axisangle0	-0.895368 -0.440316 0.066618 -69.539643
USER    NEWDPF quaternion0	-0.510611 -0.251104 0.037991 -0.821450
USER    NEWDPF dihe0	42.22 -179.90 -113.76 53.98 -140.43 -93.29 120.65 28.48 -11.86 -27.93 -91.50 28.45 2.50 
USER  
USER                              x       y       z    vdW   Elec        q     RMS 
ATOM      1  O   UNL d   1     -13.269  10.992   8.969 -0.01 +0.02    -0.289    15.570
ATOM      2  O   UNL d   1     -10.959   7.000  14.895 -0.06 -0.01    -0.289    15.570
ATOM      3  N   UNL d   1     -10.244  11.546  10.530 -0.09 +0.02    -0.247    15.570
ATOM      4  N   UNL d   1     -10.351   9.740  12.887 -0.10 -0.00    -0.247    15.570
ATOM      5  N   UNL d   1      -8.084  11.150  13.954 +0.07 -0.00    -0.354    15.570
ATOM      6  N   UNL d   1      -7.992  13.032  11.515 -0.06 +0.03    -0.354    15.570
ATOM      7  C   UNL d   1     -11.499  12.663   8.745 -0.04 -0.01    +0.084    15.570
ATOM      8  C   UNL d   1     -11.770   7.758  12.713 -0.09 +0.00    +0.084    15.570
ATOM      9  C   UNL d   1     -11.271   9.075  12.108 -0.12 -0.00    +0.058    15.570
ATOM     10  C   UNL d   1     -10.256  12.605   9.638 -0.10 -0.01    +0.058    15.570
ATOM     11  C   UNL d   1     -12.179  11.438   9.278 -0.03 -0.01    +0.193    15.570
ATOM     12  C   UNL d   1     -11.307  10.836  10.337 -0.09 -0.01    +0.109    15.570
ATOM     13  C   UNL d   1     -10.990   7.818  13.996 -0.09 +0.00    +0.193    15.570
ATOM     14  C   UNL d   1     -12.369  13.885   9.050 -0.01 -0.00    +0.026    15.570
ATOM     15  C   UNL d   1     -11.733   9.560  10.945 -0.11 -0.00    +0.055    15.570
ATOM     16  C   UNL d   1     -11.296   6.546  11.905 -0.24 +0.00    +0.026    15.570
ATOM     17  C   UNL d   1     -10.175   9.070  13.981 -0.14 +0.00    +0.109    15.570
ATOM     18  C   UNL d   1      -9.237  13.471   9.481 -0.13 -0.01    +0.050    15.570
ATOM     19  C   UNL d   1      -8.015  13.443  10.201 -0.17 -0.01    +0.045    15.570
ATOM     20  C   UNL d   1      -8.425  10.393  15.045 -0.11 -0.00    +0.045    15.570
ATOM     21  C   UNL d   1      -9.337   9.420  15.137 -0.14 -0.00    +0.057    15.570
ATOM     22  C   UNL d   1      -6.779  11.858  15.649 -0.10 +0.00    -0.019    15.570
ATOM     23  C   UNL d   1      -7.098  12.063  14.221 -0.07 -0.00    +0.045    15.570
ATOM     24  C   UNL d   1      -7.567  10.867  16.130 -0.09 +0.00    -0.022    15.570
ATOM     25  C   UNL d   1      -6.729  13.169  12.042 -0.09 -0.01    +0.049    15.570
ATOM     26  C   UNL d   1      -6.727  13.821   9.855 -0.23 +0.00    -0.018    15.570
ATOM     27  C   UNL d   1      -5.915  13.628  11.015 -0.29 -0.00    +0.003    15.570
ATOM     28  C   UNL d   1      -6.490  12.956  13.427 -0.16 -0.01    +0.052    15.570
ATOM     29  C   UNL d   1      -7.608  10.293  17.505 -0.05 -0.00    +0.046    15.570
ATOM     30  C   UNL d   1      -6.275  14.330   8.528 -0.26 -0.01    +0.046    15.570
ATOM     31  H   UNL d   1      -8.485  10.967  13.041 +0.05 +0.01    +0.166    15.570
ATOM     32  H   UNL d   1      -8.813  12.715  12.017 +0.03 -0.01    +0.166    15.570
ATOM     33  C   UNL d   1     -11.236  12.521   7.242 -0.06 -0.01    +0.141    15.570
ATOM     34  C   UNL d   1     -10.115  11.564   6.938 -0.14 -0.05    +0.306    15.570
ATOM     35  O   UNL d   1      -8.927  11.836   6.899 -0.25 +0.05    -0.251    15.570
ATOM     36  O   UNL d   1     -10.550  10.314   6.703 -0.07 +0.12    -0.481    15.570
ATOM     37  H   UNL d   1      -9.890   9.736   7.144 -0.45 -0.19    +0.295    15.570
ATOM     38  C   UNL d   1      -4.515  13.912  11.099 -0.46 -0.00    +0.017    15.570
ATOM     39  C   UNL d   1      -3.549  12.999  11.285 -0.59 -0.02    +0.092    15.570
ATOM     40  C   UNL d   1      -2.146  13.419  11.335 -0.44 -0.07    +0.330    15.570
ATOM     41  O   UNL d   1      -1.340  13.428  10.425 -0.47 +0.04    -0.246    15.570
ATOM     42  O   UNL d   1      -1.831  13.828  12.574 -0.25 +0.17    -0.477    15.570
ATOM     43  H   UNL d   1      -2.663  13.715  13.077 +0.16 -0.10    +0.295    15.570
ATOM     44  C   UNL d   1     -13.275   7.686  12.989 -0.02 -0.00    +0.141    15.570
ATOM     45  C   UNL d   1     -13.688   8.428  14.233 -0.00 -0.01    +0.306    15.570
ATOM     46  O   UNL d   1     -13.801   9.635  14.355 -0.00 +0.01    -0.251    15.570
ATOM     47  O   UNL d   1     -13.910   7.605  15.273 +0.00 +0.01    -0.481    15.570
ATOM     48  H   UNL d   1     -13.033   7.213  15.471 +0.02 -0.00    +0.295    15.570
ATOM     49  C   UNL d   1      -5.755  12.651  16.405 -0.09 -0.01    +0.048    15.570
ATOM     50  C   UNL d   1      -4.338  12.137  16.155 -0.21 -0.03    +0.125    15.570
ATOM     51  C   UNL d   1      -3.721  12.821  14.968 -0.20 -0.10    +0.305    15.570
ATOM     52  O   UNL d   1      -4.029  13.897  14.487 -0.17 +0.09    -0.251    15.570
ATOM     53  O   UNL d   1      -2.728  12.089  14.424 -0.66 +0.18    -0.481    15.570
ATOM     54  H   UNL d   1      -1.965  12.704  14.400 -0.38 -0.21    +0.295    15.570
TER
ENDMDL
MODEL       32
USER    Run = 32
USER    Cluster Rank = 37
USER    Number of conformations in this cluster = 1
USER  
USER    RMSD from reference structure       = 14.729 A
USER  
USER    Estimated Free Energy of Binding    =   -4.12 kcal/mol  [=(1)+(2)+(3)-(4)]
USER    Estimated Inhibition Constant, Ki   =  956.47 uM (micromolar)  [Temperature = 298.15 K]
USER    
USER    (1) Final Intermolecular Energy     =   -8.00 kcal/mol
USER        vdW + Hbond + desolv Energy     =   -7.68 kcal/mol
USER        Electrostatic Energy            =   -0.32 kcal/mol
USER    (2) Final Total Internal Energy     =   -2.76 kcal/mol
USER    (3) Torsional Free Energy           =   +3.88 kcal/mol
USER    (4) Unbound System's Energy  [=(2)] =   -2.76 kcal/mol
USER    
USER    
USER  
USER    DPF = D:/Protein_go_brrr/autodock/final/mut_N102T/heme/dock.dpf
USER    NEWDPF move	heme_opt.pdbqt
USER    NEWDPF about	0.153000 0.018000 -0.028000
USER    NEWDPF tran0	-10.440749 3.513961 14.039406
USER    NEWDPF axisangle0	-0.383441 -0.912982 0.139419 -65.445181
USER    NEWDPF quaternion0	-0.207277 -0.493532 0.075366 -0.841298
USER    NEWDPF dihe0	-180.00 -141.86 179.75 145.92 -157.16 6.39 143.73 102.18 4.39 -12.37 -180.00 29.65 -3.29 
USER  
USER                              x       y       z    vdW   Elec        q     RMS 
ATOM      1  O   UNL d   1     -13.682   3.357   9.117 -0.03 +0.02    -0.289    14.729
ATOM      2  O   UNL d   1     -10.790  -2.174  13.293 -0.22 +0.07    -0.289    14.729
ATOM      3  N   UNL d   1     -11.706   3.942  11.883 -0.06 +0.00    -0.247    14.729
ATOM      4  N   UNL d   1     -11.307   1.227  13.024 -0.16 -0.01    -0.247    14.729
ATOM      5  N   UNL d   1     -10.314   2.478  15.414 -0.09 -0.08    -0.354    14.729
ATOM      6  N   UNL d   1     -10.750   5.291  14.231 -0.07 -0.04    -0.354    14.729
ATOM      7  C   UNL d   1     -13.004   5.352  10.356 -0.09 -0.00    +0.084    14.729
ATOM      8  C   UNL d   1     -11.459  -0.665  11.485 -0.20 -0.02    +0.084    14.729
ATOM      9  C   UNL d   1     -11.600   0.840  11.735 -0.23 -0.01    +0.058    14.729
ATOM     10  C   UNL d   1     -12.092   5.237  11.581 -0.16 -0.00    +0.058    14.729
ATOM     11  C   UNL d   1     -13.049   3.895  10.008 -0.09 -0.01    +0.193    14.729
ATOM     12  C   UNL d   1     -12.203   3.148  10.992 -0.16 -0.01    +0.109    14.729
ATOM     13  C   UNL d   1     -11.068  -1.065  12.880 -0.17 -0.02    +0.193    14.729
ATOM     14  C   UNL d   1     -14.413   5.817  10.730 -0.03 -0.00    +0.026    14.729
ATOM     15  C   UNL d   1     -12.022   1.696  10.792 -0.25 -0.01    +0.055    14.729
ATOM     16  C   UNL d   1     -10.295  -0.978  10.539 -0.26 -0.01    +0.026    14.729
ATOM     17  C   UNL d   1     -11.019   0.172  13.716 -0.20 +0.02    +0.109    14.729
ATOM     18  C   UNL d   1     -11.648   6.328  12.232 -0.20 +0.00    +0.050    14.729
ATOM     19  C   UNL d   1     -10.738   6.323  13.320 -0.23 +0.00    +0.045    14.729
ATOM     20  C   UNL d   1     -10.415   1.183  15.851 -0.15 +0.02    +0.045    14.729
ATOM     21  C   UNL d   1     -10.703   0.082  15.149 -0.15 +0.02    +0.057    14.729
ATOM     22  C   UNL d   1      -9.889   2.521  17.626 -0.09 -0.00    -0.019    14.729
ATOM     23  C   UNL d   1     -10.000   3.359  16.415 -0.13 +0.01    +0.045    14.729
ATOM     24  C   UNL d   1     -10.134   1.234  17.285 -0.10 -0.01    -0.022    14.729
ATOM     25  C   UNL d   1      -9.854   5.533  15.247 -0.02 +0.01    +0.049    14.729
ATOM     26  C   UNL d   1      -9.785   7.240  13.734 -0.31 -0.00    -0.018    14.729
ATOM     27  C   UNL d   1      -9.216   6.727  14.941 -0.24 +0.00    +0.003    14.729
ATOM     28  C   UNL d   1      -9.799   4.685  16.387 -0.14 +0.01    +0.052    14.729
ATOM     29  C   UNL d   1     -10.128   0.022  18.153 -0.07 +0.02    +0.046    14.729
ATOM     30  C   UNL d   1      -9.421   8.515  13.052 -0.25 +0.00    +0.046    14.729
ATOM     31  H   UNL d   1     -10.391   2.709  14.430 +0.05 +0.04    +0.166    14.729
ATOM     32  H   UNL d   1     -11.371   4.493  14.166 +0.04 +0.01    +0.166    14.729
ATOM     33  C   UNL d   1     -12.435   6.166   9.188 -0.15 -0.00    +0.141    14.729
ATOM     34  C   UNL d   1     -11.062   5.708   8.777 -0.19 +0.00    +0.306    14.729
ATOM     35  O   UNL d   1     -10.008   6.261   9.045 -0.41 -0.01    -0.251    14.729
ATOM     36  O   UNL d   1     -11.088   4.575   8.053 -0.47 -0.04    -0.481    14.729
ATOM     37  H   UNL d   1     -12.036   4.324   8.023 +0.11 -0.00    +0.295    14.729
ATOM     38  C   UNL d   1      -8.198   7.372  15.713 -0.28 +0.00    +0.017    14.729
ATOM     39  C   UNL d   1      -6.949   6.915  15.884 -0.17 -0.00    +0.092    14.729
ATOM     40  C   UNL d   1      -5.994   7.682  16.688 -0.16 -0.04    +0.330    14.729
ATOM     41  O   UNL d   1      -6.202   8.702  17.317 -0.07 +0.02    -0.246    14.729
ATOM     42  O   UNL d   1      -4.788   7.094  16.659 -0.14 +0.09    -0.477    14.729
ATOM     43  H   UNL d   1      -4.707   6.770  15.739 -0.19 -0.10    +0.295    14.729
ATOM     44  C   UNL d   1     -12.739  -1.385  11.046 -0.07 -0.04    +0.141    14.729
ATOM     45  C   UNL d   1     -13.837  -1.322  12.073 +0.00 -0.05    +0.306    14.729
ATOM     46  O   UNL d   1     -14.789  -0.561  12.075 -0.00 +0.03    -0.251    14.729
ATOM     47  O   UNL d   1     -13.663  -2.212  13.067 +0.02 +0.07    -0.481    14.729
ATOM     48  H   UNL d   1     -12.840  -2.691  12.831 +0.04 -0.08    +0.295    14.729
ATOM     49  C   UNL d   1      -9.570   3.053  18.992 -0.04 +0.00    +0.048    14.729
ATOM     50  C   UNL d   1      -8.063   3.148  19.229 -0.05 +0.01    +0.125    14.729
ATOM     51  C   UNL d   1      -7.300   2.700  18.014 -0.14 +0.08    +0.305    14.729
ATOM     52  O   UNL d   1      -6.841   3.396  17.126 -0.27 -0.05    -0.251    14.729
ATOM     53  O   UNL d   1      -7.161   1.360  17.973 -0.63 -0.32    -0.481    14.729
ATOM     54  H   UNL d   1      -7.071   1.100  18.914 +0.07 +0.11    +0.295    14.729
TER
ENDMDL
MODEL       13
USER    Run = 13
USER    Cluster Rank = 38
USER    Number of conformations in this cluster = 1
USER  
USER    RMSD from reference structure       = 12.970 A
USER  
USER    Estimated Free Energy of Binding    =   -3.99 kcal/mol  [=(1)+(2)+(3)-(4)]
USER    Estimated Inhibition Constant, Ki   =    1.19 mM (millimolar)  [Temperature = 298.15 K]
USER    
USER    (1) Final Intermolecular Energy     =   -7.87 kcal/mol
USER        vdW + Hbond + desolv Energy     =   -7.75 kcal/mol
USER        Electrostatic Energy            =   -0.11 kcal/mol
USER    (2) Final Total Internal Energy     =   -3.80 kcal/mol
USER    (3) Torsional Free Energy           =   +3.88 kcal/mol
USER    (4) Unbound System's Energy  [=(2)] =   -3.80 kcal/mol
USER    
USER    
USER  
USER    DPF = D:/Protein_go_brrr/autodock/final/mut_N102T/heme/dock.dpf
USER    NEWDPF move	heme_opt.pdbqt
USER    NEWDPF about	0.153000 0.018000 -0.028000
USER    NEWDPF tran0	9.040151 -3.451667 11.571084
USER    NEWDPF axisangle0	-0.326549 -0.367605 0.870765 176.544519
USER    NEWDPF quaternion0	-0.326401 -0.367438 0.870369 0.030150
USER    NEWDPF dihe0	139.26 180.00 -121.15 -0.11 -137.74 -65.40 124.43 -106.76 14.67 -27.82 39.86 1.79 115.02 
USER  
USER                              x       y       z    vdW   Elec        q     RMS 
ATOM      1  O   UNL d   1      13.585  -6.160  14.171 +0.00 -0.06    -0.289    12.970
ATOM      2  O   UNL d   1      10.572   0.620  15.328 -0.14 -0.10    -0.289    12.970
ATOM      3  N   UNL d   1      10.974  -4.930  12.284 -0.02 -0.14    -0.247    12.970
ATOM      4  N   UNL d   1      10.288  -2.380  13.646 -0.01 -0.07    -0.247    12.970
ATOM      5  N   UNL d   1       7.851  -2.329  12.122 -0.07 -0.08    -0.354    12.970
ATOM      6  N   UNL d   1       8.561  -4.984  10.727 -0.11 -0.23    -0.354    12.970
ATOM      7  C   UNL d   1      12.142  -7.080  12.426 -0.03 +0.03    +0.084    12.970
ATOM      8  C   UNL d   1      12.064  -1.275  14.910 -0.01 +0.02    +0.084    12.970
ATOM      9  C   UNL d   1      11.584  -2.484  14.101 -0.00 +0.01    +0.058    12.970
ATOM     10  C   UNL d   1      11.044  -6.222  11.791 -0.09 +0.04    +0.058    12.970
ATOM     11  C   UNL d   1      12.693  -6.038  13.352 +0.00 +0.06    +0.193    12.970
ATOM     12  C   UNL d   1      11.918  -4.772  13.153 -0.01 +0.04    +0.109    12.970
ATOM     13  C   UNL d   1      10.788  -0.482  14.863 -0.06 +0.05    +0.193    12.970
ATOM     14  C   UNL d   1      11.566  -8.228  13.259 -0.07 +0.01    +0.026    12.970
ATOM     15  C   UNL d   1      12.345  -3.571  13.899 +0.00 +0.02    +0.055    12.970
ATOM     16  C   UNL d   1      13.156  -0.495  14.172 -0.02 +0.01    +0.026    12.970
ATOM     17  C   UNL d   1       9.789  -1.265  14.074 -0.07 +0.03    +0.109    12.970
ATOM     18  C   UNL d   1      10.287  -6.685  10.778 -0.17 +0.04    +0.050    12.970
ATOM     19  C   UNL d   1       9.308  -5.939  10.075 -0.14 +0.04    +0.045    12.970
ATOM     20  C   UNL d   1       7.600  -1.307  13.001 -0.23 +0.01    +0.045    12.970
ATOM     21  C   UNL d   1       8.423  -0.751  13.896 -0.23 +0.01    +0.057    12.970
ATOM     22  C   UNL d   1       5.710  -1.714  11.784 -0.39 -0.00    -0.019    12.970
ATOM     23  C   UNL d   1       6.769  -2.645  11.345 -0.20 +0.01    +0.045    12.970
ATOM     24  C   UNL d   1       6.209  -0.924  12.764 -0.39 -0.00    -0.022    12.970
ATOM     25  C   UNL d   1       7.615  -4.450   9.883 -0.30 +0.03    +0.049    12.970
ATOM     26  C   UNL d   1       8.861  -6.001   8.764 -0.12 -0.02    -0.018    12.970
ATOM     27  C   UNL d   1       7.806  -5.045   8.643 -0.37 +0.00    +0.003    12.970
ATOM     28  C   UNL d   1       6.623  -3.558  10.372 -0.25 +0.01    +0.052    12.970
ATOM     29  C   UNL d   1       5.532   0.174  13.513 -0.33 -0.01    +0.046    12.970
ATOM     30  C   UNL d   1       9.383  -6.890   7.687 -0.21 +0.04    +0.046    12.970
ATOM     31  H   UNL d   1       8.779  -2.728  12.030 +0.05 +0.06    +0.166    12.970
ATOM     32  H   UNL d   1       8.680  -4.752  11.706 +0.05 +0.08    +0.166    12.970
ATOM     33  C   UNL d   1      13.229  -7.573  11.464 -0.02 +0.06    +0.141    12.970
ATOM     34  C   UNL d   1      14.005  -6.446  10.839 -0.02 +0.16    +0.306    12.970
ATOM     35  O   UNL d   1      13.675  -5.802   9.857 -0.07 -0.26    -0.251    12.970
ATOM     36  O   UNL d   1      15.155  -6.186  11.487 +0.01 -0.15    -0.481    12.970
ATOM     37  H   UNL d   1      14.916  -6.219  12.437 +0.01 +0.08    +0.295    12.970
ATOM     38  C   UNL d   1       7.052  -4.793   7.452 -0.43 +0.01    +0.017    12.970
ATOM     39  C   UNL d   1       6.639  -3.586   7.038 -0.31 +0.03    +0.092    12.970
ATOM     40  C   UNL d   1       5.887  -3.461   5.786 -0.23 +0.07    +0.330    12.970
ATOM     41  O   UNL d   1       6.289  -3.657   4.655 -0.35 -0.04    -0.246    12.970
ATOM     42  O   UNL d   1       4.622  -3.093   6.042 -0.40 -0.11    -0.477    12.970
ATOM     43  H   UNL d   1       4.592  -3.020   7.018 +0.17 +0.12    +0.295    12.970
ATOM     44  C   UNL d   1      12.473  -1.569  16.357 -0.00 +0.03    +0.141    12.970
ATOM     45  C   UNL d   1      11.300  -1.742  17.284 -0.01 +0.05    +0.306    12.970
ATOM     46  O   UNL d   1      10.620  -2.745  17.416 -0.01 -0.03    -0.251    12.970
ATOM     47  O   UNL d   1      11.025  -0.625  17.981 -0.02 -0.11    -0.481    12.970
ATOM     48  H   UNL d   1      10.859   0.059  17.297 +0.05 +0.09    +0.295    12.970
ATOM     49  C   UNL d   1       4.319  -1.693  11.222 -0.45 -0.00    +0.048    12.970
ATOM     50  C   UNL d   1       3.863  -3.084  10.781 -0.42 +0.01    +0.125    12.970
ATOM     51  C   UNL d   1       3.108  -3.015   9.484 -0.25 +0.04    +0.305    12.970
ATOM     52  O   UNL d   1       1.926  -3.248   9.299 -0.26 -0.02    -0.251    12.970
ATOM     53  O   UNL d   1       3.904  -2.659   8.456 -1.00 -0.16    -0.481    12.970
ATOM     54  H   UNL d   1       3.304  -2.659   7.680 +0.18 +0.09    +0.295    12.970
TER
ENDMDL
MODEL       53
USER    Run = 53
USER    Cluster Rank = 39
USER    Number of conformations in this cluster = 1
USER  
USER    RMSD from reference structure       = 19.047 A
USER  
USER    Estimated Free Energy of Binding    =   -3.94 kcal/mol  [=(1)+(2)+(3)-(4)]
USER    Estimated Inhibition Constant, Ki   =    1.29 mM (millimolar)  [Temperature = 298.15 K]
USER    
USER    (1) Final Intermolecular Energy     =   -7.82 kcal/mol
USER        vdW + Hbond + desolv Energy     =   -7.71 kcal/mol
USER        Electrostatic Energy            =   -0.11 kcal/mol
USER    (2) Final Total Internal Energy     =   -4.78 kcal/mol
USER    (3) Torsional Free Energy           =   +3.88 kcal/mol
USER    (4) Unbound System's Energy  [=(2)] =   -4.78 kcal/mol
USER    
USER    
USER  
USER    DPF = D:/Protein_go_brrr/autodock/final/mut_N102T/heme/dock.dpf
USER    NEWDPF move	heme_opt.pdbqt
USER    NEWDPF about	0.153000 0.018000 -0.028000
USER    NEWDPF tran0	3.820688 -7.327885 18.892295
USER    NEWDPF axisangle0	-0.455374 0.889490 -0.037988 144.612558
USER    NEWDPF quaternion0	-0.433832 0.847412 -0.036191 0.303929
USER    NEWDPF dihe0	117.64 -176.96 -120.42 41.35 -131.24 -72.51 123.84 5.25 45.92 -35.88 -76.51 -3.08 3.42 
USER  
USER                              x       y       z    vdW   Elec        q     RMS 
ATOM      1  O   UNL d   1       4.691  -2.488  15.641 -0.15 +0.05    -0.289    19.047
ATOM      2  O   UNL d   1       9.420  -7.929  17.743 -0.02 -0.05    -0.289    19.047
ATOM      3  N   UNL d   1       3.746  -5.095  17.691 -0.14 +0.05    -0.247    19.047
ATOM      4  N   UNL d   1       6.141  -6.853  17.709 -0.13 +0.01    -0.247    19.047
ATOM      5  N   UNL d   1       4.509  -8.911  18.877 -0.00 +0.09    -0.354    19.047
ATOM      6  N   UNL d   1       2.024  -7.087  18.837 -0.13 +0.12    -0.354    19.047
ATOM      7  C   UNL d   1       2.572  -3.242  16.598 -0.30 -0.02    +0.084    19.047
ATOM      8  C   UNL d   1       8.305  -5.798  17.285 -0.06 +0.01    +0.084    19.047
ATOM      9  C   UNL d   1       6.778  -5.683  17.359 -0.10 +0.00    +0.058    19.047
ATOM     10  C   UNL d   1       2.518  -4.486  17.490 -0.24 -0.01    +0.058    19.047
ATOM     11  C   UNL d   1       4.049  -3.245  16.346 -0.17 -0.03    +0.193    19.047
ATOM     12  C   UNL d   1       4.652  -4.401  17.083 -0.14 -0.01    +0.109    19.047
ATOM     13  C   UNL d   1       8.413  -7.259  17.621 -0.05 +0.02    +0.193    19.047
ATOM     14  C   UNL d   1       1.842  -3.455  15.270 -0.51 -0.01    +0.026    19.047
ATOM     15  C   UNL d   1       6.120  -4.553  17.057 -0.11 -0.00    +0.055    19.047
ATOM     16  C   UNL d   1       8.989  -4.987  18.389 -0.02 +0.00    +0.026    19.047
ATOM     17  C   UNL d   1       7.032  -7.782  17.848 -0.15 +0.01    +0.109    19.047
ATOM     18  C   UNL d   1       1.376  -4.876  18.086 -0.27 -0.01    +0.050    19.047
ATOM     19  C   UNL d   1       1.248  -5.960  18.990 -0.22 -0.01    +0.045    19.047
ATOM     20  C   UNL d   1       5.637  -9.637  18.597 -0.20 -0.00    +0.045    19.047
ATOM     21  C   UNL d   1       6.822  -9.205  18.154 -0.22 +0.01    +0.057    19.047
ATOM     22  C   UNL d   1       4.003 -11.062  19.314 -0.26 +0.00    -0.019    19.047
ATOM     23  C   UNL d   1       3.468  -9.685  19.317 -0.16 -0.01    +0.045    19.047
ATOM     24  C   UNL d   1       5.287 -11.026  18.888 -0.23 -0.00    -0.022    19.047
ATOM     25  C   UNL d   1       1.674  -8.044  19.762 -0.15 -0.01    +0.049    19.047
ATOM     26  C   UNL d   1       0.399  -6.175  20.065 -0.12 +0.00    -0.018    19.047
ATOM     27  C   UNL d   1       0.686  -7.484  20.561 -0.12 -0.00    +0.003    19.047
ATOM     28  C   UNL d   1       2.227  -9.352  19.703 -0.22 -0.01    +0.052    19.047
ATOM     29  C   UNL d   1       6.248 -12.155  18.727 -0.18 +0.01    +0.046    19.047
ATOM     30  C   UNL d   1      -0.615  -5.223  20.602 -0.06 -0.01    +0.046    19.047
ATOM     31  H   UNL d   1       4.509  -7.898  18.830 -0.12 -0.04    +0.166    19.047
ATOM     32  H   UNL d   1       2.721  -7.193  18.110 -0.49 -0.10    +0.166    19.047
ATOM     33  C   UNL d   1       2.144  -1.933  17.271 -0.31 -0.05    +0.141    19.047
ATOM     34  C   UNL d   1       3.306  -1.169  17.845 -0.23 -0.10    +0.306    19.047
ATOM     35  O   UNL d   1       3.894  -1.424  18.883 -0.11 +0.08    -0.251    19.047
ATOM     36  O   UNL d   1       3.670  -0.125  17.079 -0.30 +0.11    -0.481    19.047
ATOM     37  H   UNL d   1       3.990  -0.531  16.245 -0.07 -0.12    +0.295    19.047
ATOM     38  C   UNL d   1       0.023  -8.113  21.663 -0.09 -0.00    +0.017    19.047
ATOM     39  C   UNL d   1       0.596  -8.960  22.531 -0.04 -0.01    +0.092    19.047
ATOM     40  C   UNL d   1      -0.192  -9.524  23.630 -0.00 -0.03    +0.330    19.047
ATOM     41  O   UNL d   1      -0.558  -8.964  24.646 -0.00 +0.02    -0.246    19.047
ATOM     42  O   UNL d   1      -0.493 -10.806  23.372 +0.00 +0.04    -0.477    19.047
ATOM     43  H   UNL d   1      -0.039 -10.988  22.524 +0.03 -0.03    +0.295    19.047
ATOM     44  C   UNL d   1       8.924  -5.503  15.915 -0.07 +0.02    +0.141    19.047
ATOM     45  C   UNL d   1       8.949  -6.702  15.004 -0.09 +0.06    +0.306    19.047
ATOM     46  O   UNL d   1       8.018  -7.136  14.348 -0.18 -0.05    -0.251    19.047
ATOM     47  O   UNL d   1      10.149  -7.311  14.988 -0.01 -0.12    -0.481    19.047
ATOM     48  H   UNL d   1      10.310  -7.564  15.921 +0.04 +0.07    +0.295    19.047
ATOM     49  C   UNL d   1       3.211 -12.274  19.710 -0.23 -0.01    +0.048    19.047
ATOM     50  C   UNL d   1       3.134 -12.432  21.228 -0.06 -0.01    +0.125    19.047
ATOM     51  C   UNL d   1       1.782 -12.027  21.742 -0.04 -0.02    +0.305    19.047
ATOM     52  O   UNL d   1       0.838 -11.605  21.098 -0.51 +0.01    -0.251    19.047
ATOM     53  O   UNL d   1       1.688 -12.167  23.080 +0.01 +0.03    -0.481    19.047
ATOM     54  H   UNL d   1       0.791 -12.536  23.218 +0.02 -0.02    +0.295    19.047
TER
ENDMDL
MODEL       91
USER    Run = 91
USER    Cluster Rank = 40
USER    Number of conformations in this cluster = 1
USER  
USER    RMSD from reference structure       = 16.257 A
USER  
USER    Estimated Free Energy of Binding    =   -3.89 kcal/mol  [=(1)+(2)+(3)-(4)]
USER    Estimated Inhibition Constant, Ki   =    1.41 mM (millimolar)  [Temperature = 298.15 K]
USER    
USER    (1) Final Intermolecular Energy     =   -7.77 kcal/mol
USER        vdW + Hbond + desolv Energy     =   -7.55 kcal/mol
USER        Electrostatic Energy            =   -0.22 kcal/mol
USER    (2) Final Total Internal Energy     =   -2.06 kcal/mol
USER    (3) Torsional Free Energy           =   +3.88 kcal/mol
USER    (4) Unbound System's Energy  [=(2)] =   -2.06 kcal/mol
USER    
USER    
USER  
USER    DPF = D:/Protein_go_brrr/autodock/final/mut_N102T/heme/dock.dpf
USER    NEWDPF move	heme_opt.pdbqt
USER    NEWDPF about	0.153000 0.018000 -0.028000
USER    NEWDPF tran0	-8.421443 12.024519 12.967212
USER    NEWDPF axisangle0	-0.114156 -0.958721 0.260429 155.859733
USER    NEWDPF quaternion0	-0.111633 -0.937526 0.254671 0.209109
USER    NEWDPF dihe0	-136.68 -10.69 -97.84 52.36 -150.68 -135.14 135.86 104.49 -23.52 -61.47 162.08 -89.78 180.00 
USER  
USER                              x       y       z    vdW   Elec        q     RMS 
ATOM      1  O   UNL d   1      -2.690  12.536  14.251 -0.89 +0.11    -0.289    16.257
ATOM      2  O   UNL d   1      -8.123   8.482  17.484 -0.03 +0.01    -0.289    16.257
ATOM      3  N   UNL d   1      -5.979  12.661  13.220 -0.10 +0.03    -0.247    16.257
ATOM      4  N   UNL d   1      -7.286  10.545  14.847 +0.12 +0.00    -0.247    16.257
ATOM      5  N   UNL d   1      -9.559  10.733  13.097 -0.05 -0.00    -0.354    16.257
ATOM      6  N   UNL d   1      -8.189  12.914  11.403 -0.04 +0.03    -0.354    16.257
ATOM      7  C   UNL d   1      -3.873  13.607  12.399 -0.40 -0.02    +0.084    16.257
ATOM      8  C   UNL d   1      -6.258   9.990  16.993 -0.09 -0.01    +0.084    16.257
ATOM      9  C   UNL d   1      -6.208  10.769  15.674 -0.13 -0.01    +0.058    16.257
ATOM     10  C   UNL d   1      -5.386  13.438  12.240 -0.25 -0.01    +0.058    16.257
ATOM     11  C   UNL d   1      -3.717  12.802  13.655 -0.29 -0.05    +0.193    16.257
ATOM     12  C   UNL d   1      -5.068  12.304  14.066 -0.22 -0.02    +0.109    16.257
ATOM     13  C   UNL d   1      -7.544   9.255  16.745 -0.07 -0.01    +0.193    16.257
ATOM     14  C   UNL d   1      -3.096  12.921  11.272 -0.71 -0.00    +0.026    16.257
ATOM     15  C   UNL d   1      -5.177  11.559  15.336 -0.24 -0.01    +0.055    16.257
ATOM     16  C   UNL d   1      -6.447  10.921  18.195 -0.04 -0.00    +0.026    16.257
ATOM     17  C   UNL d   1      -8.062   9.674  15.407 -0.11 -0.00    +0.109    16.257
ATOM     18  C   UNL d   1      -6.067  14.078  11.270 -0.25 -0.01    +0.050    16.257
ATOM     19  C   UNL d   1      -7.474  14.050  11.097 -0.13 -0.01    +0.045    16.257
ATOM     20  C   UNL d   1      -9.901   9.611  13.807 -0.15 +0.00    +0.045    16.257
ATOM     21  C   UNL d   1      -9.297   9.079  14.874 -0.18 +0.00    +0.057    16.257
ATOM     22  C   UNL d   1     -11.406   9.899  12.112 -0.10 +0.00    -0.019    16.257
ATOM     23  C   UNL d   1     -10.409  10.988  12.054 -0.12 -0.00    +0.045    16.257
ATOM     24  C   UNL d   1     -11.100   9.088  13.153 -0.12 +0.00    -0.022    16.257
ATOM     25  C   UNL d   1      -9.515  13.074  11.075 -0.09 -0.00    +0.049    16.257
ATOM     26  C   UNL d   1      -8.364  14.985  10.592 -0.06 +0.00    -0.018    16.257
ATOM     27  C   UNL d   1      -9.655  14.370  10.599 -0.05 -0.00    +0.003    16.257
ATOM     28  C   UNL d   1     -10.423  11.983  11.154 -0.11 -0.00    +0.052    16.257
ATOM     29  C   UNL d   1     -11.812   7.866  13.624 -0.09 +0.00    +0.046    16.257
ATOM     30  C   UNL d   1      -8.039  16.366  10.132 -0.05 -0.00    +0.046    16.257
ATOM     31  H   UNL d   1      -8.797  11.332  13.394 +0.03 -0.00    +0.166    16.257
ATOM     32  H   UNL d   1      -7.769  12.072  11.779 +0.09 -0.01    +0.166    16.257
ATOM     33  C   UNL d   1      -3.391  15.045  12.619 -0.16 -0.03    +0.141    16.257
ATOM     34  C   UNL d   1      -4.459  15.930  13.204 -0.17 -0.06    +0.306    16.257
ATOM     35  O   UNL d   1      -5.196  16.676  12.583 -0.12 +0.03    -0.251    16.257
ATOM     36  O   UNL d   1      -4.543  15.825  14.542 -0.05 +0.16    -0.481    16.257
ATOM     37  H   UNL d   1      -3.611  15.783  14.846 -0.46 -0.25    +0.295    16.257
ATOM     38  C   UNL d   1     -10.864  14.985  10.142 -0.02 -0.00    +0.017    16.257
ATOM     39  C   UNL d   1     -11.708  14.459   9.241 -0.01 -0.01    +0.092    16.257
ATOM     40  C   UNL d   1     -12.925  15.185   8.870 -0.00 -0.02    +0.330    16.257
ATOM     41  O   UNL d   1     -14.044  14.733   8.719 -0.00 +0.01    -0.246    16.257
ATOM     42  O   UNL d   1     -12.655  16.490   8.714 +0.00 +0.02    -0.477    16.257
ATOM     43  H   UNL d   1     -13.468  16.851   8.302 +0.00 -0.01    +0.295    16.257
ATOM     44  C   UNL d   1      -5.102   9.011  17.226 -0.16 -0.02    +0.141    16.257
ATOM     45  C   UNL d   1      -5.528   7.568  17.178 -0.14 -0.04    +0.306    16.257
ATOM     46  O   UNL d   1      -5.528   6.843  16.199 -0.28 +0.04    -0.251    16.257
ATOM     47  O   UNL d   1      -5.959   7.119  18.371 +0.01 +0.04    -0.481    16.257
ATOM     48  H   UNL d   1      -6.887   7.429  18.432 +0.06 -0.02    +0.295    16.257
ATOM     49  C   UNL d   1     -12.544   9.746  11.147 -0.05 -0.00    +0.048    16.257
ATOM     50  C   UNL d   1     -12.208   8.765  10.023 -0.09 -0.01    +0.125    16.257
ATOM     51  C   UNL d   1     -10.726   8.533   9.938 -0.19 -0.02    +0.305    16.257
ATOM     52  O   UNL d   1     -10.091   7.603  10.403 -0.33 -0.00    -0.251    16.257
ATOM     53  O   UNL d   1     -10.100   9.518   9.264 -0.10 +0.10    -0.481    16.257
ATOM     54  H   UNL d   1      -9.571   9.045   8.588 -0.38 -0.16    +0.295    16.257
TER
ENDMDL
MODEL       33
USER    Run = 33
USER    Cluster Rank = 41
USER    Number of conformations in this cluster = 1
USER  
USER    RMSD from reference structure       = 17.260 A
USER  
USER    Estimated Free Energy of Binding    =   -3.88 kcal/mol  [=(1)+(2)+(3)-(4)]
USER    Estimated Inhibition Constant, Ki   =    1.44 mM (millimolar)  [Temperature = 298.15 K]
USER    
USER    (1) Final Intermolecular Energy     =   -7.75 kcal/mol
USER        vdW + Hbond + desolv Energy     =   -7.61 kcal/mol
USER        Electrostatic Energy            =   -0.15 kcal/mol
USER    (2) Final Total Internal Energy     =   -2.36 kcal/mol
USER    (3) Torsional Free Energy           =   +3.88 kcal/mol
USER    (4) Unbound System's Energy  [=(2)] =   -2.36 kcal/mol
USER    
USER    
USER  
USER    DPF = D:/Protein_go_brrr/autodock/final/mut_N102T/heme/dock.dpf
USER    NEWDPF move	heme_opt.pdbqt
USER    NEWDPF about	0.153000 0.018000 -0.028000
USER    NEWDPF tran0	-6.075807 8.014252 16.432346
USER    NEWDPF axisangle0	0.063170 -0.256945 -0.964359 -54.791782
USER    NEWDPF quaternion0	0.029067 -0.118230 -0.443737 -0.887848
USER    NEWDPF dihe0	-179.92 -47.59 -119.66 -152.92 -154.66 148.85 121.15 -44.61 7.52 -25.95 -50.15 159.70 -162.56 
USER  
USER                              x       y       z    vdW   Elec        q     RMS 
ATOM      1  O   UNL d   1      -8.154  13.530  16.292 -0.01 +0.02    -0.289    17.260
ATOM      2  O   UNL d   1     -11.025   7.112  13.652 -0.10 -0.01    -0.289    17.260
ATOM      3  N   UNL d   1      -6.488  10.516  16.491 -0.06 +0.02    -0.247    17.260
ATOM      4  N   UNL d   1      -8.490   8.561  15.491 -0.13 -0.00    -0.247    17.260
ATOM      5  N   UNL d   1      -6.825   6.463  16.536 -0.13 +0.01    -0.354    17.260
ATOM      6  N   UNL d   1      -4.763   8.498  17.586 -0.05 +0.06    -0.354    17.260
ATOM      7  C   UNL d   1      -6.080  12.777  17.345 -0.03 -0.01    +0.084    17.260
ATOM      8  C   UNL d   1     -10.196   9.396  13.954 -0.13 +0.00    +0.084    17.260
ATOM      9  C   UNL d   1      -9.014   9.682  14.886 -0.14 +0.00    +0.058    17.260
ATOM     10  C   UNL d   1      -5.633  11.317  17.230 -0.07 -0.01    +0.058    17.260
ATOM     11  C   UNL d   1      -7.328  12.665  16.523 -0.02 -0.02    +0.193    17.260
ATOM     12  C   UNL d   1      -7.451  11.252  16.041 -0.07 -0.01    +0.109    17.260
ATOM     13  C   UNL d   1     -10.269   7.911  14.171 -0.15 +0.01    +0.193    17.260
ATOM     14  C   UNL d   1      -6.463  13.150  18.779 -0.02 -0.00    +0.026    17.260
ATOM     15  C   UNL d   1      -8.565  10.923  15.129 -0.11 -0.00    +0.055    17.260
ATOM     16  C   UNL d   1      -9.841   9.662  12.488 -0.14 +0.00    +0.026    17.260
ATOM     17  C   UNL d   1      -9.187   7.533  15.129 -0.20 +0.00    +0.109    17.260
ATOM     18  C   UNL d   1      -4.459  10.899  17.739 -0.11 -0.01    +0.050    17.260
ATOM     19  C   UNL d   1      -3.926   9.591  17.610 -0.14 -0.01    +0.045    17.260
ATOM     20  C   UNL d   1      -7.945   5.739  16.219 -0.13 +0.00    +0.045    17.260
ATOM     21  C   UNL d   1      -9.042   6.136  15.566 -0.15 +0.01    +0.057    17.260
ATOM     22  C   UNL d   1      -6.485   4.386  17.339 -0.29 -0.00    -0.019    17.260
ATOM     23  C   UNL d   1      -5.887   5.731  17.214 -0.27 -0.00    +0.045    17.260
ATOM     24  C   UNL d   1      -7.703   4.397  16.747 -0.22 -0.00    -0.022    17.260
ATOM     25  C   UNL d   1      -4.034   7.332  17.547 -0.23 -0.01    +0.049    17.260
ATOM     26  C   UNL d   1      -2.622   9.125  17.547 -0.16 +0.01    -0.018    17.260
ATOM     27  C   UNL d   1      -2.697   7.699  17.488 -0.26 -0.00    +0.003    17.260
ATOM     28  C   UNL d   1      -4.673   6.069  17.674 -0.29 -0.01    +0.052    17.260
ATOM     29  C   UNL d   1      -8.681   3.281  16.605 -0.25 +0.01    +0.046    17.260
ATOM     30  C   UNL d   1      -1.380   9.951  17.541 -0.26 -0.02    +0.046    17.260
ATOM     31  H   UNL d   1      -6.706   7.417  16.212 +0.06 -0.01    +0.166    17.260
ATOM     32  H   UNL d   1      -5.772   8.565  17.634 +0.05 -0.02    +0.166    17.260
ATOM     33  C   UNL d   1      -5.124  13.806  16.732 -0.10 -0.03    +0.141    17.260
ATOM     34  C   UNL d   1      -4.816  13.523  15.287 -0.11 -0.08    +0.306    17.260
ATOM     35  O   UNL d   1      -3.808  12.989  14.856 -0.27 +0.08    -0.251    17.260
ATOM     36  O   UNL d   1      -5.797  13.925  14.459 -0.01 +0.08    -0.481    17.260
ATOM     37  H   UNL d   1      -6.494  14.275  15.054 +0.06 -0.04    +0.295    17.260
ATOM     38  C   UNL d   1      -1.572   6.815  17.429 -0.29 -0.00    +0.017    17.260
ATOM     39  C   UNL d   1      -0.307   7.150  17.727 -0.38 -0.03    +0.092    17.260
ATOM     40  C   UNL d   1       0.754   6.143  17.642 -0.32 -0.10    +0.330    17.260
ATOM     41  O   UNL d   1       1.917   6.313  17.330 -0.47 +0.08    -0.246    17.260
ATOM     42  O   UNL d   1       0.273   4.936  17.978 -0.22 +0.19    -0.477    17.260
ATOM     43  H   UNL d   1       0.599   4.347  17.266 -0.20 -0.19    +0.295    17.260
ATOM     44  C   UNL d   1     -11.517  10.072  14.336 -0.04 -0.00    +0.141    17.260
ATOM     45  C   UNL d   1     -12.206   9.414  15.501 -0.00 -0.01    +0.306    17.260
ATOM     46  O   UNL d   1     -11.909   9.523  16.678 -0.00 +0.01    -0.251    17.260
ATOM     47  O   UNL d   1     -13.226   8.625  15.117 +0.00 +0.01    -0.481    17.260
ATOM     48  H   UNL d   1     -12.814   7.955  14.530 +0.03 -0.00    +0.295    17.260
ATOM     49  C   UNL d   1      -5.824   3.231  18.032 -0.20 +0.01    +0.048    17.260
ATOM     50  C   UNL d   1      -6.583   2.812  19.291 -0.11 +0.01    +0.125    17.260
ATOM     51  C   UNL d   1      -6.814   1.328  19.309 -0.09 +0.07    +0.305    17.260
ATOM     52  O   UNL d   1      -7.290   0.639  18.423 -0.68 -0.17    -0.251    17.260
ATOM     53  O   UNL d   1      -6.436   0.773  20.477 -0.01 -0.02    -0.481    17.260
ATOM     54  H   UNL d   1      -6.524   1.502  21.127 +0.04 -0.01    +0.295    17.260
TER
ENDMDL
MODEL        4
USER    Run = 4
USER    Cluster Rank = 42
USER    Number of conformations in this cluster = 1
USER  
USER    RMSD from reference structure       = 10.453 A
USER  
USER    Estimated Free Energy of Binding    =   -3.87 kcal/mol  [=(1)+(2)+(3)-(4)]
USER    Estimated Inhibition Constant, Ki   =    1.45 mM (millimolar)  [Temperature = 298.15 K]
USER    
USER    (1) Final Intermolecular Energy     =   -7.75 kcal/mol
USER        vdW + Hbond + desolv Energy     =   -7.04 kcal/mol
USER        Electrostatic Energy            =   -0.71 kcal/mol
USER    (2) Final Total Internal Energy     =   -3.88 kcal/mol
USER    (3) Torsional Free Energy           =   +3.88 kcal/mol
USER    (4) Unbound System's Energy  [=(2)] =   -3.88 kcal/mol
USER    
USER    
USER  
USER    DPF = D:/Protein_go_brrr/autodock/final/mut_N102T/heme/dock.dpf
USER    NEWDPF move	heme_opt.pdbqt
USER    NEWDPF about	0.153000 0.018000 -0.028000
USER    NEWDPF tran0	13.733907 -4.747370 3.732941
USER    NEWDPF axisangle0	-0.752883 -0.285507 0.593004 -111.796209
USER    NEWDPF quaternion0	-0.623418 -0.236412 0.491032 -0.560666
USER    NEWDPF dihe0	-156.42 154.48 -166.60 -69.40 -144.17 101.02 140.92 4.78 180.00 -5.29 -76.67 -121.96 10.87 
USER  
USER                              x       y       z    vdW   Elec        q     RMS 
ATOM      1  O   UNL d   1      10.455  -9.627   4.180 -0.10 -0.02    -0.289    10.453
ATOM      2  O   UNL d   1      15.280  -6.473   8.993 -0.01 -0.13    -0.289    10.453
ATOM      3  N   UNL d   1      12.275  -6.798   3.417 -0.06 -0.02    -0.247    10.453
ATOM      4  N   UNL d   1      13.632  -6.147   5.979 -0.04 -0.17    -0.247    10.453
ATOM      5  N   UNL d   1      14.282  -3.573   4.874 -0.08 -0.16    -0.354    10.453
ATOM      6  N   UNL d   1      12.855  -4.250   2.226 -0.12 +0.00    -0.354    10.453
ATOM      7  C   UNL d   1      10.492  -8.059   2.305 -0.18 -0.02    +0.084    10.453
ATOM      8  C   UNL d   1      14.038  -7.991   7.529 -0.04 +0.03    +0.084    10.453
ATOM      9  C   UNL d   1      13.412  -7.484   6.226 -0.07 +0.03    +0.058    10.453
ATOM     10  C   UNL d   1      11.458  -6.871   2.301 -0.18 -0.01    +0.058    10.453
ATOM     11  C   UNL d   1      10.920  -8.655   3.612 -0.08 +0.00    +0.193    10.453
ATOM     12  C   UNL d   1      12.024  -7.815   4.175 -0.07 +0.02    +0.109    10.453
ATOM     13  C   UNL d   1      14.621  -6.687   7.994 -0.05 +0.11    +0.193    10.453
ATOM     14  C   UNL d   1       9.032  -7.612   2.419 -0.13 -0.00    +0.026    10.453
ATOM     15  C   UNL d   1      12.672  -8.264   5.424 -0.07 +0.02    +0.055    10.453
ATOM     16  C   UNL d   1      15.181  -8.976   7.265 -0.00 +0.00    +0.026    10.453
ATOM     17  C   UNL d   1      14.299  -5.648   6.970 -0.07 +0.09    +0.109    10.453
ATOM     18  C   UNL d   1      11.546  -6.039   1.246 -0.30 -0.02    +0.050    10.453
ATOM     19  C   UNL d   1      12.466  -4.967   1.118 -0.27 -0.01    +0.045    10.453
ATOM     20  C   UNL d   1      14.649  -3.369   6.178 -0.09 +0.03    +0.045    10.453
ATOM     21  C   UNL d   1      14.709  -4.252   7.180 -0.09 +0.05    +0.057    10.453
ATOM     22  C   UNL d   1      14.796  -1.388   5.051 -0.18 -0.01    -0.019    10.453
ATOM     23  C   UNL d   1      14.338  -2.434   4.115 -0.16 +0.01    +0.045    10.453
ATOM     24  C   UNL d   1      14.979  -1.947   6.270 -0.14 -0.01    -0.022    10.453
ATOM     25  C   UNL d   1      13.675  -3.206   1.863 -0.22 +0.00    +0.049    10.453
ATOM     26  C   UNL d   1      13.076  -4.399   0.011 -0.24 +0.01    -0.018    10.453
ATOM     27  C   UNL d   1      13.854  -3.299   0.489 -0.20 -0.00    +0.003    10.453
ATOM     28  C   UNL d   1      14.079  -2.231   2.814 -0.25 +0.01    +0.052    10.453
ATOM     29  C   UNL d   1      15.444  -1.303   7.532 -0.09 +0.02    +0.046    10.453
ATOM     30  C   UNL d   1      12.949  -4.848  -1.405 -0.21 -0.04    +0.046    10.453
ATOM     31  H   UNL d   1      14.075  -4.503   4.525 +0.02 +0.07    +0.166    10.453
ATOM     32  H   UNL d   1      12.537  -4.454   3.166 +0.05 +0.03    +0.166    10.453
ATOM     33  C   UNL d   1      10.684  -9.066   1.166 -0.18 -0.07    +0.141    10.453
ATOM     34  C   UNL d   1       9.390  -9.425   0.486 -0.24 -0.14    +0.306    10.453
ATOM     35  O   UNL d   1       8.643 -10.338   0.795 -0.30 +0.08    -0.251    10.453
ATOM     36  O   UNL d   1       9.104  -8.612  -0.547 -0.20 +0.36    -0.481    10.453
ATOM     37  H   UNL d   1       9.967  -8.219  -0.797 -0.41 -0.53    +0.295    10.453
ATOM     38  C   UNL d   1      14.638  -2.424  -0.330 -0.16 -0.00    +0.017    10.453
ATOM     39  C   UNL d   1      14.226  -1.244  -0.818 -0.22 -0.00    +0.092    10.453
ATOM     40  C   UNL d   1      15.135  -0.433  -1.632 -0.07 +0.01    +0.330    10.453
ATOM     41  O   UNL d   1      15.174  -0.352  -2.845 -0.07 +0.01    -0.246    10.453
ATOM     42  O   UNL d   1      15.967   0.261  -0.841 -0.03 -0.11    -0.477    10.453
ATOM     43  H   UNL d   1      15.472   0.351  -0.000 +0.10 +0.09    +0.295    10.453
ATOM     44  C   UNL d   1      13.052  -8.551   8.560 -0.05 +0.06    +0.141    10.453
ATOM     45  C   UNL d   1      11.957  -7.583   8.921 -0.06 +0.30    +0.306    10.453
ATOM     46  O   UNL d   1      10.833  -7.549   8.450 -0.55 -0.26    -0.251    10.453
ATOM     47  O   UNL d   1      12.346  -6.685   9.844 -0.28 -0.58    -0.481    10.453
ATOM     48  H   UNL d   1      13.321  -6.781   9.887 +0.02 +0.24    +0.295    10.453
ATOM     49  C   UNL d   1      14.995   0.051   4.674 -0.25 +0.01    +0.048    10.453
ATOM     50  C   UNL d   1      16.236   0.244   3.802 -0.12 +0.03    +0.125    10.453
ATOM     51  C   UNL d   1      15.853   0.461   2.365 -0.06 +0.11    +0.305    10.453
ATOM     52  O   UNL d   1      14.733   0.467   1.887 -0.23 -0.08    -0.251    10.453
ATOM     53  O   UNL d   1      16.932   0.652   1.580 -0.01 -0.23    -0.481    10.453
ATOM     54  H   UNL d   1      16.976  -0.161   1.034 +0.05 +0.08    +0.295    10.453
TER
ENDMDL
MODEL       74
USER    Run = 74
USER    Cluster Rank = 43
USER    Number of conformations in this cluster = 2
USER  
USER    RMSD from reference structure       = 12.595 A
USER  
USER    Estimated Free Energy of Binding    =   -3.85 kcal/mol  [=(1)+(2)+(3)-(4)]
USER    Estimated Inhibition Constant, Ki   =    1.50 mM (millimolar)  [Temperature = 298.15 K]
USER    
USER    (1) Final Intermolecular Energy     =   -7.73 kcal/mol
USER        vdW + Hbond + desolv Energy     =   -7.60 kcal/mol
USER        Electrostatic Energy            =   -0.13 kcal/mol
USER    (2) Final Total Internal Energy     =   -2.58 kcal/mol
USER    (3) Torsional Free Energy           =   +3.88 kcal/mol
USER    (4) Unbound System's Energy  [=(2)] =   -2.58 kcal/mol
USER    
USER    
USER  
USER    DPF = D:/Protein_go_brrr/autodock/final/mut_N102T/heme/dock.dpf
USER    NEWDPF move	heme_opt.pdbqt
USER    NEWDPF about	0.153000 0.018000 -0.028000
USER    NEWDPF tran0	-9.282095 11.317492 6.762774
USER    NEWDPF axisangle0	0.866791 0.415627 -0.275551 96.550999
USER    NEWDPF quaternion0	0.646932 0.310204 -0.205659 0.665550
USER    NEWDPF dihe0	158.84 74.63 103.65 132.30 -142.82 15.06 -38.21 -59.73 17.25 -124.52 96.53 -78.96 11.14 
USER  
USER                              x       y       z    vdW   Elec        q     RMS 
ATOM      1  O   UNL d   1     -13.563   8.137   4.250 -0.03 +0.00    -0.289    12.595
ATOM      2  O   UNL d   1     -10.749   7.986  11.211 -0.17 -0.00    -0.289    12.595
ATOM      3  N   UNL d   1     -10.926  10.126   5.242 -0.14 +0.03    -0.247    12.595
ATOM      4  N   UNL d   1     -10.734   9.600   8.161 -0.13 +0.06    -0.247    12.595
ATOM      5  N   UNL d   1      -9.014  11.895   8.367 -0.17 +0.08    -0.354    12.595
ATOM      6  N   UNL d   1      -9.234  12.444   5.342 -0.12 +0.02    -0.354    12.595
ATOM      7  C   UNL d   1     -12.288   9.946   3.213 -0.06 -0.00    +0.084    12.595
ATOM      8  C   UNL d   1     -11.559   7.445   8.965 -0.22 -0.01    +0.084    12.595
ATOM      9  C   UNL d   1     -11.381   8.436   7.810 -0.22 -0.01    +0.058    12.595
ATOM     10  C   UNL d   1     -11.148  10.631   3.972 -0.12 -0.00    +0.058    12.595
ATOM     11  C   UNL d   1     -12.659   8.952   4.271 -0.07 -0.00    +0.193    12.595
ATOM     12  C   UNL d   1     -11.744   9.145   5.441 -0.16 -0.01    +0.109    12.595
ATOM     13  C   UNL d   1     -10.926   8.277  10.044 -0.20 -0.01    +0.193    12.595
ATOM     14  C   UNL d   1     -13.472  10.889   2.982 -0.02 -0.00    +0.026    12.595
ATOM     15  C   UNL d   1     -11.862   8.209   6.578 -0.22 -0.00    +0.055    12.595
ATOM     16  C   UNL d   1     -10.718   6.180   8.761 -0.38 -0.00    +0.026    12.595
ATOM     17  C   UNL d   1     -10.474   9.562   9.428 -0.20 -0.02    +0.109    12.595
ATOM     18  C   UNL d   1     -10.387  11.579   3.393 -0.13 -0.00    +0.050    12.595
ATOM     19  C   UNL d   1      -9.262  12.206   3.987 -0.15 -0.00    +0.045    12.595
ATOM     20  C   UNL d   1      -9.227  11.639   9.697 -0.21 -0.01    +0.045    12.595
ATOM     21  C   UNL d   1      -9.852  10.601  10.261 -0.11 -0.00    +0.057    12.595
ATOM     22  C   UNL d   1      -8.082  13.606   9.497 -0.19 +0.00    -0.019    12.595
ATOM     23  C   UNL d   1      -8.331  13.061   8.147 -0.25 -0.01    +0.045    12.595
ATOM     24  C   UNL d   1      -8.614  12.759  10.410 -0.17 +0.00    -0.022    12.595
ATOM     25  C   UNL d   1      -8.098  13.139   5.688 -0.25 -0.00    +0.049    12.595
ATOM     26  C   UNL d   1      -8.098  12.726   3.443 -0.10 -0.00    -0.018    12.595
ATOM     27  C   UNL d   1      -7.357  13.297   4.524 -0.15 +0.00    +0.003    12.595
ATOM     28  C   UNL d   1      -7.921  13.637   7.007 -0.26 -0.01    +0.052    12.595
ATOM     29  C   UNL d   1      -8.609  12.868  11.897 -0.11 -0.00    +0.046    12.595
ATOM     30  C   UNL d   1      -7.694  12.695   2.008 -0.12 +0.00    +0.046    12.595
ATOM     31  H   UNL d   1      -9.279  11.224   7.654 -0.19 -0.05    +0.166    12.595
ATOM     32  H   UNL d   1      -9.978  12.174   5.974 +0.04 -0.02    +0.166    12.595
ATOM     33  C   UNL d   1     -11.879   9.230   1.921 -0.08 +0.00    +0.141    12.595
ATOM     34  C   UNL d   1     -10.964   8.062   2.171 -0.11 +0.01    +0.306    12.595
ATOM     35  O   UNL d   1      -9.746   8.102   2.232 -0.14 +0.02    -0.251    12.595
ATOM     36  O   UNL d   1     -11.631   6.906   2.335 -0.30 -0.11    -0.481    12.595
ATOM     37  H   UNL d   1     -12.527   7.178   2.629 +0.05 +0.02    +0.295    12.595
ATOM     38  C   UNL d   1      -6.093  13.958   4.401 -0.23 +0.00    +0.017    12.595
ATOM     39  C   UNL d   1      -5.747  15.090   5.032 -0.16 +0.00    +0.092    12.595
ATOM     40  C   UNL d   1      -4.410  15.657   4.833 -0.06 +0.01    +0.330    12.595
ATOM     41  O   UNL d   1      -3.594  15.356   3.982 -0.11 -0.02    -0.246    12.595
ATOM     42  O   UNL d   1      -4.173  16.612   5.745 -0.06 +0.01    -0.477    12.595
ATOM     43  H   UNL d   1      -4.253  17.446   5.237 +0.05 -0.01    +0.295    12.595
ATOM     44  C   UNL d   1     -13.008   7.096   9.319 -0.07 -0.01    +0.141    12.595
ATOM     45  C   UNL d   1     -13.128   6.231  10.545 -0.04 -0.01    +0.306    12.595
ATOM     46  O   UNL d   1     -13.001   5.019  10.595 -0.07 +0.01    -0.251    12.595
ATOM     47  O   UNL d   1     -13.431   6.939  11.648 +0.01 +0.01    -0.481    12.595
ATOM     48  H   UNL d   1     -12.587   7.365  11.909 +0.06 -0.00    +0.295    12.595
ATOM     49  C   UNL d   1      -7.368  14.898   9.766 -0.15 -0.01    +0.048    12.595
ATOM     50  C   UNL d   1      -5.868  14.786   9.494 -0.25 -0.02    +0.125    12.595
ATOM     51  C   UNL d   1      -5.153  14.184  10.671 -0.23 -0.04    +0.305    12.595
ATOM     52  O   UNL d   1      -5.020  14.663  11.784 -0.17 +0.03    -0.251    12.595
ATOM     53  O   UNL d   1      -4.618  12.983  10.376 -0.18 +0.12    -0.481    12.595
ATOM     54  H   UNL d   1      -5.346  12.500   9.933 -0.42 -0.18    +0.295    12.595
TER
ENDMDL
MODEL       29
USER    Run = 29
USER    Cluster Rank = 44
USER    Number of conformations in this cluster = 2
USER  
USER    RMSD from reference structure       = 10.749 A
USER  
USER    Estimated Free Energy of Binding    =   -3.83 kcal/mol  [=(1)+(2)+(3)-(4)]
USER    Estimated Inhibition Constant, Ki   =    1.56 mM (millimolar)  [Temperature = 298.15 K]
USER    
USER    (1) Final Intermolecular Energy     =   -7.71 kcal/mol
USER        vdW + Hbond + desolv Energy     =   -7.39 kcal/mol
USER        Electrostatic Energy            =   -0.32 kcal/mol
USER    (2) Final Total Internal Energy     =   -3.69 kcal/mol
USER    (3) Torsional Free Energy           =   +3.88 kcal/mol
USER    (4) Unbound System's Energy  [=(2)] =   -3.69 kcal/mol
USER    
USER    
USER  
USER    DPF = D:/Protein_go_brrr/autodock/final/mut_N102T/heme/dock.dpf
USER    NEWDPF move	heme_opt.pdbqt
USER    NEWDPF about	0.153000 0.018000 -0.028000
USER    NEWDPF tran0	-11.807076 6.084406 4.634933
USER    NEWDPF axisangle0	0.070282 -0.978537 -0.193716 -84.494537
USER    NEWDPF quaternion0	0.047253 -0.657901 -0.130242 -0.740250
USER    NEWDPF dihe0	174.71 180.00 -155.07 70.63 -149.74 -71.81 137.35 62.73 15.12 -52.75 -29.44 -42.20 41.13 
USER  
USER                              x       y       z    vdW   Elec        q     RMS 
ATOM      1  O   UNL d   1     -12.789   9.205  -0.269 -0.00 -0.00    -0.289    10.749
ATOM      2  O   UNL d   1     -11.150   1.942   0.705 -0.25 -0.33    -0.289    10.749
ATOM      3  N   UNL d   1     -12.156   7.833   2.831 -0.10 -0.01    -0.247    10.749
ATOM      4  N   UNL d   1     -11.920   4.927   2.256 -0.52 -0.08    -0.247    10.749
ATOM      5  N   UNL d   1     -12.113   4.446   5.084 -0.04 -0.01    -0.354    10.749
ATOM      6  N   UNL d   1     -12.377   7.461   5.670 -0.07 +0.01    -0.354    10.749
ATOM      7  C   UNL d   1     -12.901  10.026   2.030 -0.02 -0.00    +0.084    10.749
ATOM      8  C   UNL d   1     -11.223   4.286   0.003 -0.17 +0.02    +0.084    10.749
ATOM      9  C   UNL d   1     -11.630   5.385   0.990 -0.02 +0.02    +0.058    10.749
ATOM     10  C   UNL d   1     -12.542   9.109   3.203 -0.08 -0.00    +0.058    10.749
ATOM     11  C   UNL d   1     -12.630   9.048   0.927 -0.02 +0.00    +0.193    10.749
ATOM     12  C   UNL d   1     -12.161   7.764   1.539 -0.09 +0.01    +0.109    10.749
ATOM     13  C   UNL d   1     -11.372   3.115   0.933 -0.20 +0.09    +0.193    10.749
ATOM     14  C   UNL d   1     -14.388  10.389   2.017 -0.01 -0.00    +0.026    10.749
ATOM     15  C   UNL d   1     -11.743   6.674   0.635 -0.11 +0.01    +0.055    10.749
ATOM     16  C   UNL d   1      -9.752   4.406  -0.405 -0.29 +0.01    +0.026    10.749
ATOM     17  C   UNL d   1     -11.806   3.637   2.264 -0.19 +0.03    +0.109    10.749
ATOM     18  C   UNL d   1     -12.526   9.563   4.471 -0.09 -0.00    +0.050    10.749
ATOM     19  C   UNL d   1     -12.128   8.813   5.607 -0.15 -0.00    +0.045    10.749
ATOM     20  C   UNL d   1     -12.223   3.161   4.619 -0.22 +0.00    +0.045    10.749
ATOM     21  C   UNL d   1     -12.076   2.707   3.370 -0.24 +0.01    +0.057    10.749
ATOM     22  C   UNL d   1     -12.607   3.166   6.871 -0.18 +0.00    -0.019    10.749
ATOM     23  C   UNL d   1     -12.328   4.549   6.433 -0.17 -0.00    +0.045    10.749
ATOM     24  C   UNL d   1     -12.542   2.350   5.793 -0.21 +0.00    -0.022    10.749
ATOM     25  C   UNL d   1     -11.992   6.955   6.890 -0.17 -0.00    +0.049    10.749
ATOM     26  C   UNL d   1     -11.534   9.189   6.802 -0.20 +0.00    -0.018    10.749
ATOM     27  C   UNL d   1     -11.433   8.008   7.600 -0.26 -0.00    +0.003    10.749
ATOM     28  C   UNL d   1     -12.292   5.613   7.249 -0.20 -0.00    +0.052    10.749
ATOM     29  C   UNL d   1     -12.735   0.873   5.728 -0.23 -0.02    +0.046    10.749
ATOM     30  C   UNL d   1     -11.085  10.559   7.181 -0.18 -0.01    +0.046    10.749
ATOM     31  H   UNL d   1     -11.820   5.203   4.475 +0.06 +0.02    +0.166    10.749
ATOM     32  H   UNL d   1     -12.821   6.938   4.924 +0.03 +0.00    +0.166    10.749
ATOM     33  C   UNL d   1     -12.018  11.269   1.874 -0.03 -0.00    +0.141    10.749
ATOM     34  C   UNL d   1     -10.580  10.927   1.592 -0.05 -0.00    +0.306    10.749
ATOM     35  O   UNL d   1      -9.684  10.844   2.416 -0.09 +0.00    -0.251    10.749
ATOM     36  O   UNL d   1     -10.347  10.704   0.287 -0.00 -0.00    -0.481    10.749
ATOM     37  H   UNL d   1     -11.236  10.704  -0.126 +0.02 +0.00    +0.295    10.749
ATOM     38  C   UNL d   1     -10.889   7.950   8.924 -0.36 -0.00    +0.017    10.749
ATOM     39  C   UNL d   1     -10.889   6.866   9.714 -0.36 -0.00    +0.092    10.749
ATOM     40  C   UNL d   1     -10.283   6.934  11.046 -0.16 +0.02    +0.330    10.749
ATOM     41  O   UNL d   1      -9.099   6.966  11.324 -0.74 -0.06    -0.246    10.749
ATOM     42  O   UNL d   1     -11.239   6.968  11.987 -0.07 -0.01    -0.477    10.749
ATOM     43  H   UNL d   1     -12.073   6.938  11.476 +0.08 -0.00    +0.295    10.749
ATOM     44  C   UNL d   1     -12.128   4.131  -1.223 -0.06 +0.03    +0.141    10.749
ATOM     45  C   UNL d   1     -13.070   2.961  -1.123 -0.04 +0.10    +0.306    10.749
ATOM     46  O   UNL d   1     -14.214   2.983  -0.702 -0.01 -0.05    -0.251    10.749
ATOM     47  O   UNL d   1     -12.508   1.811  -1.534 -0.53 -0.30    -0.481    10.749
ATOM     48  H   UNL d   1     -11.544   1.952  -1.422 +0.08 +0.22    +0.295    10.749
ATOM     49  C   UNL d   1     -12.922   2.778   8.285 -0.16 -0.00    +0.048    10.749
ATOM     50  C   UNL d   1     -12.020   3.500   9.287 -0.18 -0.01    +0.125    10.749
ATOM     51  C   UNL d   1     -12.719   3.678  10.605 -0.11 -0.02    +0.305    10.749
ATOM     52  O   UNL d   1     -13.206   2.813  11.312 -0.07 +0.01    -0.251    10.749
ATOM     53  O   UNL d   1     -12.782   4.974  10.972 -0.03 +0.01    -0.481    10.749
ATOM     54  H   UNL d   1     -12.166   5.037  11.731 +0.08 -0.00    +0.295    10.749
TER
ENDMDL
MODEL       60
USER    Run = 60
USER    Cluster Rank = 45
USER    Number of conformations in this cluster = 1
USER  
USER    RMSD from reference structure       = 17.538 A
USER  
USER    Estimated Free Energy of Binding    =   -3.77 kcal/mol  [=(1)+(2)+(3)-(4)]
USER    Estimated Inhibition Constant, Ki   =    1.73 mM (millimolar)  [Temperature = 298.15 K]
USER    
USER    (1) Final Intermolecular Energy     =   -7.65 kcal/mol
USER        vdW + Hbond + desolv Energy     =   -7.58 kcal/mol
USER        Electrostatic Energy            =   -0.06 kcal/mol
USER    (2) Final Total Internal Energy     =   -4.07 kcal/mol
USER    (3) Torsional Free Energy           =   +3.88 kcal/mol
USER    (4) Unbound System's Energy  [=(2)] =   -4.07 kcal/mol
USER    
USER    
USER  
USER    DPF = D:/Protein_go_brrr/autodock/final/mut_N102T/heme/dock.dpf
USER    NEWDPF move	heme_opt.pdbqt
USER    NEWDPF about	0.153000 0.018000 -0.028000
USER    NEWDPF tran0	-5.446946 -8.883328 16.147732
USER    NEWDPF axisangle0	-0.259926 0.965628 -0.000535 -125.352186
USER    NEWDPF quaternion0	-0.230925 0.857889 -0.000475 -0.459020
USER    NEWDPF dihe0	150.91 136.98 88.60 -126.20 -143.29 88.71 -41.03 -89.88 10.35 -98.53 -86.87 -83.56 -6.58 
USER  
USER                              x       y       z    vdW   Elec        q     RMS 
ATOM      1  O   UNL d   1      -2.957  -5.012  19.831 -0.03 +0.04    -0.289    17.538
ATOM      2  O   UNL d   1      -3.519 -12.492  20.185 -0.06 +0.05    -0.289    17.538
ATOM      3  N   UNL d   1      -4.650  -6.872  17.471 -0.12 +0.02    -0.247    17.538
ATOM      4  N   UNL d   1      -4.076  -9.675  18.270 -0.11 +0.05    -0.247    17.538
ATOM      5  N   UNL d   1      -5.084 -10.513  15.711 -0.10 +0.06    -0.354    17.538
ATOM      6  N   UNL d   1      -5.659  -7.600  14.883 -0.11 +0.09    -0.354    17.538
ATOM      7  C   UNL d   1      -4.035  -4.510  17.696 -0.20 -0.00    +0.084    17.538
ATOM      8  C   UNL d   1      -3.564 -10.084  20.624 -0.10 -0.01    +0.084    17.538
ATOM      9  C   UNL d   1      -3.847  -9.089  19.495 -0.13 -0.01    +0.058    17.538
ATOM     10  C   UNL d   1      -4.708  -5.619  16.883 -0.21 -0.01    +0.058    17.538
ATOM     11  C   UNL d   1      -3.602  -5.353  18.857 -0.07 -0.02    +0.193    17.538
ATOM     12  C   UNL d   1      -4.056  -6.759  18.614 -0.12 -0.01    +0.109    17.538
ATOM     13  C   UNL d   1      -3.638 -11.343  19.806 -0.10 -0.04    +0.193    17.538
ATOM     14  C   UNL d   1      -2.792  -3.957  16.995 -0.32 -0.00    +0.026    17.538
ATOM     15  C   UNL d   1      -3.821  -7.759  19.676 -0.13 -0.01    +0.055    17.538
ATOM     16  C   UNL d   1      -4.691 -10.103  21.660 -0.03 -0.00    +0.026    17.538
ATOM     17  C   UNL d   1      -3.947 -10.957  18.396 -0.07 -0.03    +0.109    17.538
ATOM     18  C   UNL d   1      -5.371  -5.352  15.742 -0.32 -0.00    +0.050    17.538
ATOM     19  C   UNL d   1      -6.092  -6.297  14.969 -0.27 -0.01    +0.045    17.538
ATOM     20  C   UNL d   1      -4.548 -11.696  16.152 -0.18 -0.01    +0.045    17.538
ATOM     21  C   UNL d   1      -4.037 -11.988  17.352 -0.12 -0.02    +0.057    17.538
ATOM     22  C   UNL d   1      -5.220 -11.952  13.984 -0.26 +0.00    -0.019    17.538
ATOM     23  C   UNL d   1      -5.517 -10.571  14.413 -0.25 -0.01    +0.045    17.538
ATOM     24  C   UNL d   1      -4.648 -12.613  15.018 -0.22 +0.01    -0.022    17.538
ATOM     25  C   UNL d   1      -6.450  -8.317  14.015 -0.27 -0.01    +0.049    17.538
ATOM     26  C   UNL d   1      -7.215  -6.172  14.165 -0.30 +0.00    -0.018    17.538
ATOM     27  C   UNL d   1      -7.447  -7.455  13.580 -0.26 -0.00    +0.003    17.538
ATOM     28  C   UNL d   1      -6.106  -9.645  13.642 -0.31 -0.01    +0.052    17.538
ATOM     29  C   UNL d   1      -4.182 -14.028  15.077 -0.20 -0.02    +0.046    17.538
ATOM     30  C   UNL d   1      -8.025  -4.938  13.953 -0.23 -0.01    +0.046    17.538
ATOM     31  H   UNL d   1      -5.205  -9.725  16.338 +0.05 -0.03    +0.166    17.538
ATOM     32  H   UNL d   1      -4.842  -7.953  15.368 -0.06 -0.04    +0.166    17.538
ATOM     33  C   UNL d   1      -4.963  -3.384  18.165 -0.18 +0.02    +0.141    17.538
ATOM     34  C   UNL d   1      -6.102  -3.887  19.010 -0.04 +0.03    +0.306    17.538
ATOM     35  O   UNL d   1      -7.191  -4.258  18.605 -0.04 -0.04    -0.251    17.538
ATOM     36  O   UNL d   1      -5.809  -3.899  20.322 +0.01 +0.00    -0.481    17.538
ATOM     37  H   UNL d   1      -4.844  -4.076  20.358 +0.04 -0.01    +0.295    17.538
ATOM     38  C   UNL d   1      -8.505  -7.766  12.667 -0.26 -0.01    +0.017    17.538
ATOM     39  C   UNL d   1      -8.362  -8.449  11.520 -0.12 -0.04    +0.092    17.538
ATOM     40  C   UNL d   1      -9.532  -8.717  10.679 -0.11 -0.14    +0.330    17.538
ATOM     41  O   UNL d   1     -10.008  -8.002   9.818 -0.20 +0.15    -0.246    17.538
ATOM     42  O   UNL d   1     -10.049  -9.919  10.977 -0.01 +0.13    -0.477    17.538
ATOM     43  H   UNL d   1      -9.263 -10.497  11.064 +0.11 -0.08    +0.295    17.538
ATOM     44  C   UNL d   1      -2.194  -9.947  21.298 -0.10 -0.02    +0.141    17.538
ATOM     45  C   UNL d   1      -1.640 -11.258  21.790 -0.06 -0.04    +0.306    17.538
ATOM     46  O   UNL d   1      -1.877 -11.791  22.860 -0.01 +0.02    -0.251    17.538
ATOM     47  O   UNL d   1      -0.789 -11.819  20.912 -0.13 +0.05    -0.481    17.538
ATOM     48  H   UNL d   1      -1.349 -12.410  20.365 +0.04 -0.05    +0.295    17.538
ATOM     49  C   UNL d   1      -5.506 -12.488  12.612 -0.25 -0.01    +0.048    17.538
ATOM     50  C   UNL d   1      -6.903 -13.103  12.521 -0.25 -0.04    +0.125    17.538
ATOM     51  C   UNL d   1      -7.901 -12.098  12.021 -0.16 -0.08    +0.305    17.538
ATOM     52  O   UNL d   1      -8.647 -11.399  12.683 -0.07 +0.06    -0.251    17.538
ATOM     53  O   UNL d   1      -7.917 -12.031  10.674 -0.12 +0.14    -0.481    17.538
ATOM     54  H   UNL d   1      -8.052 -12.960  10.392 -0.44 -0.16    +0.295    17.538
TER
ENDMDL
MODEL       19
USER    Run = 19
USER    Cluster Rank = 46
USER    Number of conformations in this cluster = 1
USER  
USER    RMSD from reference structure       = 16.237 A
USER  
USER    Estimated Free Energy of Binding    =   -3.70 kcal/mol  [=(1)+(2)+(3)-(4)]
USER    Estimated Inhibition Constant, Ki   =    1.95 mM (millimolar)  [Temperature = 298.15 K]
USER    
USER    (1) Final Intermolecular Energy     =   -7.58 kcal/mol
USER        vdW + Hbond + desolv Energy     =   -7.49 kcal/mol
USER        Electrostatic Energy            =   -0.09 kcal/mol
USER    (2) Final Total Internal Energy     =   -4.50 kcal/mol
USER    (3) Torsional Free Energy           =   +3.88 kcal/mol
USER    (4) Unbound System's Energy  [=(2)] =   -4.50 kcal/mol
USER    
USER    
USER  
USER    DPF = D:/Protein_go_brrr/autodock/final/mut_N102T/heme/dock.dpf
USER    NEWDPF move	heme_opt.pdbqt
USER    NEWDPF about	0.153000 0.018000 -0.028000
USER    NEWDPF tran0	-5.524889 12.334457 -12.772418
USER    NEWDPF axisangle0	0.572903 -0.403812 0.713245 -171.446293
USER    NEWDPF quaternion0	0.571308 -0.402687 0.711259 -0.074576
USER    NEWDPF dihe0	-135.08 135.70 120.33 46.88 53.07 83.04 -51.90 69.70 156.26 -140.15 -83.82 -83.90 -2.36 
USER  
USER                              x       y       z    vdW   Elec        q     RMS 
ATOM      1  O   UNL d   1      -4.108  12.772 -18.478 -0.19 -0.06    -0.289    16.237
ATOM      2  O   UNL d   1      -3.076  17.535 -12.764 -0.01 -0.02    -0.289    16.237
ATOM      3  N   UNL d   1      -5.244  12.133 -15.285 -0.14 +0.02    -0.247    16.237
ATOM      4  N   UNL d   1      -4.125  14.382 -13.699 -0.11 -0.01    -0.247    16.237
ATOM      5  N   UNL d   1      -4.801  12.918 -11.318 -0.07 +0.03    -0.354    16.237
ATOM      6  N   UNL d   1      -5.942  10.580 -12.972 -0.08 +0.06    -0.354    16.237
ATOM      7  C   UNL d   1      -5.160  10.860 -17.378 -0.36 -0.00    +0.084    16.237
ATOM      8  C   UNL d   1      -3.656  16.465 -14.888 -0.11 +0.02    +0.084    16.237
ATOM      9  C   UNL d   1      -4.088  14.995 -14.931 -0.18 +0.01    +0.058    16.237
ATOM     10  C   UNL d   1      -5.538  10.925 -15.895 -0.31 -0.01    +0.058    16.237
ATOM     11  C   UNL d   1      -4.616  12.251 -17.502 -0.20 +0.01    +0.193    16.237
ATOM     12  C   UNL d   1      -4.746  12.929 -16.174 -0.22 +0.00    +0.109    16.237
ATOM     13  C   UNL d   1      -3.419  16.562 -13.408 -0.04 +0.02    +0.193    16.237
ATOM     14  C   UNL d   1      -4.029   9.861 -17.639 -0.11 -0.00    +0.026    16.237
ATOM     15  C   UNL d   1      -4.356  14.351 -16.077 -0.23 +0.01    +0.055    16.237
ATOM     16  C   UNL d   1      -4.805  17.405 -15.265 -0.06 +0.01    +0.026    16.237
ATOM     17  C   UNL d   1      -3.731  15.231 -12.804 -0.10 +0.00    +0.109    16.237
ATOM     18  C   UNL d   1      -6.184   9.911 -15.289 -0.35 -0.01    +0.050    16.237
ATOM     19  C   UNL d   1      -6.648   9.915 -13.949 -0.25 -0.01    +0.045    16.237
ATOM     20  C   UNL d   1      -4.047  13.924 -10.770 -0.19 -0.00    +0.045    16.237
ATOM     21  C   UNL d   1      -3.547  15.013 -11.362 -0.16 -0.00    +0.057    16.237
ATOM     22  C   UNL d   1      -4.539  12.399  -9.142 -0.22 +0.00    -0.019    16.237
ATOM     23  C   UNL d   1      -5.145  11.951 -10.412 -0.16 -0.00    +0.045    16.237
ATOM     24  C   UNL d   1      -3.891  13.568  -9.361 -0.26 +0.00    -0.022    16.237
ATOM     25  C   UNL d   1      -6.517  10.379 -11.739 -0.17 -0.01    +0.049    16.237
ATOM     26  C   UNL d   1      -7.729   9.297 -13.341 -0.23 +0.00    -0.018    16.237
ATOM     27  C   UNL d   1      -7.652   9.609 -11.948 -0.17 -0.00    +0.003    16.237
ATOM     28  C   UNL d   1      -5.879  10.836 -10.553 -0.15 -0.00    +0.052    16.237
ATOM     29  C   UNL d   1      -3.139  14.412  -8.390 -0.25 +0.00    +0.046    16.237
ATOM     30  C   UNL d   1      -8.772   8.468 -14.010 -0.27 -0.01    +0.046    16.237
ATOM     31  H   UNL d   1      -5.119  12.964 -12.281 +0.06 -0.01    +0.166    16.237
ATOM     32  H   UNL d   1      -5.094  11.106 -13.152 +0.09 -0.03    +0.166    16.237
ATOM     33  C   UNL d   1      -6.329  10.651 -18.346 -0.22 +0.01    +0.141    16.237
ATOM     34  C   UNL d   1      -5.899  10.036 -19.650 -0.16 +0.04    +0.306    16.237
ATOM     35  O   UNL d   1      -6.111   8.891 -20.012 -0.21 -0.05    -0.251    16.237
ATOM     36  O   UNL d   1      -5.224  10.898 -20.432 -0.04 -0.04    -0.481    16.237
ATOM     37  H   UNL d   1      -4.621  11.368 -19.818 +0.10 +0.02    +0.295    16.237
ATOM     38  C   UNL d   1      -8.572   9.155 -10.949 -0.15 -0.00    +0.017    16.237
ATOM     39  C   UNL d   1      -8.229   8.622  -9.766 -0.15 -0.01    +0.092    16.237
ATOM     40  C   UNL d   1      -9.270   8.211  -8.821 -0.04 +0.01    +0.330    16.237
ATOM     41  O   UNL d   1      -9.915   7.180  -8.827 -0.57 -0.04    -0.246    16.237
ATOM     42  O   UNL d   1      -9.440   9.155  -7.883 -0.01 +0.00    -0.477    16.237
ATOM     43  H   UNL d   1      -8.527   9.404  -7.632 +0.06 -0.00    +0.295    16.237
ATOM     44  C   UNL d   1      -2.383  16.802 -15.672 -0.14 +0.05    +0.141    16.237
ATOM     45  C   UNL d   1      -2.135  18.282 -15.792 -0.07 +0.12    +0.306    16.237
ATOM     46  O   UNL d   1      -2.442  18.997 -16.730 -0.08 -0.15    -0.251    16.237
ATOM     47  O   UNL d   1      -1.481  18.782 -14.728 +0.00 -0.10    -0.481    16.237
ATOM     48  H   UNL d   1      -2.073  18.601 -13.966 +0.03 +0.04    +0.295    16.237
ATOM     49  C   UNL d   1      -4.635  11.642  -7.850 -0.29 -0.00    +0.048    16.237
ATOM     50  C   UNL d   1      -5.915  11.982  -7.086 -0.15 +0.00    +0.125    16.237
ATOM     51  C   UNL d   1      -6.983  10.959  -7.348 -0.08 -0.00    +0.305    16.237
ATOM     52  O   UNL d   1      -6.963   9.774  -7.063 -0.15 +0.00    -0.251    16.237
ATOM     53  O   UNL d   1      -8.046  11.491  -7.982 +0.01 +0.01    -0.481    16.237
ATOM     54  H   UNL d   1      -8.818  11.147  -7.485 +0.03 -0.00    +0.295    16.237
TER
ENDMDL
MODEL        5
USER    Run = 5
USER    Cluster Rank = 47
USER    Number of conformations in this cluster = 1
USER  
USER    RMSD from reference structure       = 19.766 A
USER  
USER    Estimated Free Energy of Binding    =   -3.61 kcal/mol  [=(1)+(2)+(3)-(4)]
USER    Estimated Inhibition Constant, Ki   =    2.24 mM (millimolar)  [Temperature = 298.15 K]
USER    
USER    (1) Final Intermolecular Energy     =   -7.49 kcal/mol
USER        vdW + Hbond + desolv Energy     =   -7.14 kcal/mol
USER        Electrostatic Energy            =   -0.36 kcal/mol
USER    (2) Final Total Internal Energy     =   -2.07 kcal/mol
USER    (3) Torsional Free Energy           =   +3.88 kcal/mol
USER    (4) Unbound System's Energy  [=(2)] =   -2.07 kcal/mol
USER    
USER    
USER  
USER    DPF = D:/Protein_go_brrr/autodock/final/mut_N102T/heme/dock.dpf
USER    NEWDPF move	heme_opt.pdbqt
USER    NEWDPF about	0.153000 0.018000 -0.028000
USER    NEWDPF tran0	-5.040850 -16.190895 -15.825584
USER    NEWDPF axisangle0	0.518047 -0.831444 0.200820 -164.057354
USER    NEWDPF quaternion0	0.513042 -0.823410 0.198880 -0.138677
USER    NEWDPF dihe0	174.35 -14.90 -170.84 -126.34 -151.98 149.96 136.73 103.14 13.19 -172.69 157.80 8.85 11.35 
USER  
USER                              x       y       z    vdW   Elec        q     RMS 
ATOM      1  O   UNL d   1      -4.135 -11.398 -19.137 -0.20 +0.03    -0.289    19.766
ATOM      2  O   UNL d   1       0.515 -15.262 -14.684 -0.11 -0.01    -0.289    19.766
ATOM      3  N   UNL d   1      -5.164 -14.102 -17.259 -0.22 -0.03    -0.247    19.766
ATOM      4  N   UNL d   1      -2.629 -15.132 -16.099 -0.57 -0.04    -0.247    19.766
ATOM      5  N   UNL d   1      -4.046 -17.523 -15.363 +0.02 -0.02    -0.354    19.766
ATOM      6  N   UNL d   1      -6.666 -16.456 -16.587 -0.08 -0.01    -0.354    19.766
ATOM      7  C   UNL d   1      -6.211 -12.677 -18.956 -0.11 +0.00    +0.084    19.766
ATOM      8  C   UNL d   1      -0.801 -13.536 -15.815 -0.25 +0.00    +0.084    19.766
ATOM      9  C   UNL d   1      -2.207 -13.843 -16.339 -0.30 +0.00    +0.058    19.766
ATOM     10  C   UNL d   1      -6.315 -13.860 -17.990 -0.13 +0.00    +0.058    19.766
ATOM     11  C   UNL d   1      -4.802 -12.281 -18.629 -0.21 -0.01    +0.193    19.766
ATOM     12  C   UNL d   1      -4.286 -13.204 -17.569 -0.26 +0.00    +0.109    19.766
ATOM     13  C   UNL d   1      -0.488 -14.899 -15.266 -0.11 +0.01    +0.193    19.766
ATOM     14  C   UNL d   1      -6.273 -13.122 -20.419 -0.07 -0.00    +0.026    19.766
ATOM     15  C   UNL d   1      -2.941 -12.947 -17.018 -0.28 -0.00    +0.055    19.766
ATOM     16  C   UNL d   1      -0.832 -12.535 -14.656 -0.42 +0.00    +0.026    19.766
ATOM     17  C   UNL d   1      -1.674 -15.775 -15.508 -0.16 +0.01    +0.109    19.766
ATOM     18  C   UNL d   1      -7.470 -14.531 -17.822 -0.11 +0.00    +0.050    19.766
ATOM     19  C   UNL d   1      -7.684 -15.581 -16.893 -0.12 +0.00    +0.045    19.766
ATOM     20  C   UNL d   1      -2.761 -17.919 -15.095 -0.14 +0.00    +0.045    19.766
ATOM     21  C   UNL d   1      -1.639 -17.191 -15.113 -0.16 +0.00    +0.057    19.766
ATOM     22  C   UNL d   1      -4.150 -19.716 -14.860 -0.09 -0.00    -0.019    19.766
ATOM     23  C   UNL d   1      -4.955 -18.540 -15.248 -0.08 +0.00    +0.045    19.766
ATOM     24  C   UNL d   1      -2.852 -19.341 -14.771 -0.11 -0.00    -0.022    19.766
ATOM     25  C   UNL d   1      -7.115 -17.443 -15.741 -0.08 +0.00    +0.049    19.766
ATOM     26  C   UNL d   1      -8.813 -15.989 -16.200 -0.10 -0.00    -0.018    19.766
ATOM     27  C   UNL d   1      -8.443 -17.153 -15.459 -0.11 +0.00    +0.003    19.766
ATOM     28  C   UNL d   1      -6.287 -18.550 -15.408 -0.10 +0.00    +0.052    19.766
ATOM     29  C   UNL d   1      -1.666 -20.166 -14.402 -0.09 +0.00    +0.046    19.766
ATOM     30  C   UNL d   1     -10.154 -15.337 -16.221 -0.05 +0.00    +0.046    19.766
ATOM     31  H   UNL d   1      -4.270 -16.551 -15.545 +0.03 +0.02    +0.166    19.766
ATOM     32  H   UNL d   1      -5.733 -16.388 -16.976 +0.02 +0.01    +0.166    19.766
ATOM     33  C   UNL d   1      -7.173 -11.517 -18.680 -0.13 +0.01    +0.141    19.766
ATOM     34  C   UNL d   1      -6.962 -10.898 -17.325 -0.19 +0.05    +0.306    19.766
ATOM     35  O   UNL d   1      -7.601 -11.140 -16.315 -0.18 -0.06    -0.251    19.766
ATOM     36  O   UNL d   1      -5.953 -10.009 -17.313 -0.27 -0.03    -0.481    19.766
ATOM     37  H   UNL d   1      -5.530 -10.103 -18.193 +0.13 -0.01    +0.295    19.766
ATOM     38  C   UNL d   1      -9.319 -17.907 -14.614 -0.07 +0.00    +0.017    19.766
ATOM     39  C   UNL d   1      -9.019 -18.345 -13.381 -0.08 +0.01    +0.092    19.766
ATOM     40  C   UNL d   1     -10.015 -19.094 -12.611 -0.01 +0.03    +0.330    19.766
ATOM     41  O   UNL d   1      -9.817 -19.979 -11.800 -0.00 -0.02    -0.246    19.766
ATOM     42  O   UNL d   1     -11.251 -18.663 -12.910 +0.01 -0.03    -0.477    19.766
ATOM     43  H   UNL d   1     -11.836 -19.362 -12.553 +0.01 +0.02    +0.295    19.766
ATOM     44  C   UNL d   1       0.224 -13.123 -16.876 -0.17 +0.01    +0.141    19.766
ATOM     45  C   UNL d   1       1.097 -11.975 -16.445 -0.19 +0.09    +0.306    19.766
ATOM     46  O   UNL d   1       2.184 -12.053 -15.899 -0.40 -0.20    -0.251    19.766
ATOM     47  O   UNL d   1       0.537 -10.778 -16.702 -0.19 -0.05    -0.481    19.766
ATOM     48  H   UNL d   1      -0.376 -10.989 -16.991 -0.29 -0.12    +0.295    19.766
ATOM     49  C   UNL d   1      -4.717 -21.087 -14.631 -0.04 +0.00    +0.048    19.766
ATOM     50  C   UNL d   1      -5.522 -21.159 -13.334 -0.04 +0.01    +0.125    19.766
ATOM     51  C   UNL d   1      -5.126 -20.056 -12.394 -0.09 +0.04    +0.305    19.766
ATOM     52  O   UNL d   1      -5.677 -18.981 -12.236 -0.15 -0.05    -0.251    19.766
ATOM     53  O   UNL d   1      -4.018 -20.366 -11.691 -0.05 -0.07    -0.481    19.766
ATOM     54  H   UNL d   1      -3.363 -20.614 -12.376 +0.03 +0.03    +0.295    19.766
TER
ENDMDL
MODEL       40
USER    Run = 40
USER    Cluster Rank = 48
USER    Number of conformations in this cluster = 1
USER  
USER    RMSD from reference structure       = 19.682 A
USER  
USER    Estimated Free Energy of Binding    =   -3.58 kcal/mol  [=(1)+(2)+(3)-(4)]
USER    Estimated Inhibition Constant, Ki   =    2.38 mM (millimolar)  [Temperature = 298.15 K]
USER    
USER    (1) Final Intermolecular Energy     =   -7.46 kcal/mol
USER        vdW + Hbond + desolv Energy     =   -7.47 kcal/mol
USER        Electrostatic Energy            =   +0.01 kcal/mol
USER    (2) Final Total Internal Energy     =   -4.42 kcal/mol
USER    (3) Torsional Free Energy           =   +3.88 kcal/mol
USER    (4) Unbound System's Energy  [=(2)] =   -4.42 kcal/mol
USER    
USER    
USER  
USER    DPF = D:/Protein_go_brrr/autodock/final/mut_N102T/heme/dock.dpf
USER    NEWDPF move	heme_opt.pdbqt
USER    NEWDPF about	0.153000 0.018000 -0.028000
USER    NEWDPF tran0	-4.476410 15.374747 15.230752
USER    NEWDPF axisangle0	0.034843 0.967944 0.248736 -113.533042
USER    NEWDPF quaternion0	0.029144 0.809631 0.208054 -0.548052
USER    NEWDPF dihe0	-105.26 -176.43 159.65 -38.82 33.87 -17.13 166.69 -92.68 130.14 1.99 -95.75 -5.18 -17.82 
USER  
USER                              x       y       z    vdW   Elec        q     RMS 
ATOM      1  O   UNL d   1      -1.968  15.568  20.562 -0.05 +0.04    -0.289    19.682
ATOM      2  O   UNL d   1      -3.964   9.744  16.263 -0.17 +0.10    -0.289    19.682
ATOM      3  N   UNL d   1      -3.554  15.946  17.523 -0.09 +0.07    -0.247    19.682
ATOM      4  N   UNL d   1      -3.655  13.175  16.456 -0.14 +0.07    -0.247    19.682
ATOM      5  N   UNL d   1      -4.355  14.285  13.897 -0.09 +0.11    -0.354    19.682
ATOM      6  N   UNL d   1      -4.229  17.158  15.008 -0.08 +0.10    -0.354    19.682
ATOM      7  C   UNL d   1      -2.558  17.479  19.156 -0.10 -0.01    +0.084    19.682
ATOM      8  C   UNL d   1      -3.633  11.350  18.080 -0.10 -0.02    +0.084    19.682
ATOM      9  C   UNL d   1      -3.531  12.851  17.788 -0.15 -0.01    +0.058    19.682
ATOM     10  C   UNL d   1      -3.278  17.270  17.821 -0.14 -0.01    +0.058    19.682
ATOM     11  C   UNL d   1      -2.492  16.039  19.570 -0.05 -0.02    +0.193    19.682
ATOM     12  C   UNL d   1      -3.152  15.213  18.509 -0.08 -0.02    +0.109    19.682
ATOM     13  C   UNL d   1      -3.801  10.880  16.663 -0.16 -0.06    +0.193    19.682
ATOM     14  C   UNL d   1      -1.133  18.004  18.965 -0.16 -0.00    +0.026    19.682
ATOM     15  C   UNL d   1      -3.290  13.761  18.744 -0.13 -0.01    +0.055    19.682
ATOM     16  C   UNL d   1      -4.904  11.010  18.865 -0.04 -0.00    +0.026    19.682
ATOM     17  C   UNL d   1      -3.790  12.082  15.776 -0.27 -0.03    +0.109    19.682
ATOM     18  C   UNL d   1      -3.677  18.312  17.067 -0.14 -0.01    +0.050    19.682
ATOM     19  C   UNL d   1      -4.420  18.220  15.863 -0.12 -0.01    +0.045    19.682
ATOM     20  C   UNL d   1      -4.130  12.983  13.535 -0.35 -0.01    +0.045    19.682
ATOM     21  C   UNL d   1      -3.893  11.925  14.317 -0.30 -0.01    +0.057    19.682
ATOM     22  C   UNL d   1      -4.462  14.226  11.648 -0.36 +0.00    -0.019    19.682
ATOM     23  C   UNL d   1      -4.565  15.112  12.826 -0.26 -0.01    +0.045    19.682
ATOM     24  C   UNL d   1      -4.206  12.967  12.075 -0.45 +0.00    -0.022    19.682
ATOM     25  C   UNL d   1      -4.981  17.315  13.867 -0.15 -0.01    +0.049    19.682
ATOM     26  C   UNL d   1      -5.348  19.069  15.280 -0.05 +0.00    -0.018    19.682
ATOM     27  C   UNL d   1      -5.713  18.483  14.029 -0.07 -0.00    +0.003    19.682
ATOM     28  C   UNL d   1      -4.832  16.425  12.768 -0.23 -0.01    +0.052    19.682
ATOM     29  C   UNL d   1      -4.029  11.726  11.268 -0.52 -0.01    +0.046    19.682
ATOM     30  C   UNL d   1      -5.867  20.346  15.849 -0.02 -0.00    +0.046    19.682
ATOM     31  H   UNL d   1      -4.431  14.555  14.872 -0.13 -0.06    +0.166    19.682
ATOM     32  H   UNL d   1      -3.586  16.397  15.195 -0.51 -0.11    +0.166    19.682
ATOM     33  C   UNL d   1      -3.326  18.302  20.196 -0.02 -0.02    +0.141    19.682
ATOM     34  C   UNL d   1      -2.585  18.423  21.500 -0.00 -0.03    +0.306    19.682
ATOM     35  O   UNL d   1      -1.769  19.282  21.788 -0.00 +0.03    -0.251    19.682
ATOM     36  O   UNL d   1      -2.916  17.458  22.376 +0.00 +0.05    -0.481    19.682
ATOM     37  H   UNL d   1      -2.500  16.646  22.016 +0.02 -0.03    +0.295    19.682
ATOM     38  C   UNL d   1      -6.640  19.045  13.094 -0.04 -0.00    +0.017    19.682
ATOM     39  C   UNL d   1      -7.435  18.341  12.273 -0.02 -0.01    +0.092    19.682
ATOM     40  C   UNL d   1      -8.356  19.039  11.372 -0.00 -0.02    +0.330    19.682
ATOM     41  O   UNL d   1      -8.753  20.185  11.458 -0.00 +0.02    -0.246    19.682
ATOM     42  O   UNL d   1      -8.729  18.225  10.373 +0.00 +0.03    -0.477    19.682
ATOM     43  H   UNL d   1      -8.301  17.372  10.592 +0.02 -0.02    +0.295    19.682
ATOM     44  C   UNL d   1      -2.396  10.717  18.725 -0.12 -0.03    +0.141    19.682
ATOM     45  C   UNL d   1      -1.110  11.092  18.039 -0.20 -0.09    +0.306    19.682
ATOM     46  O   UNL d   1      -0.145  11.634  18.550 -0.27 +0.07    -0.251    19.682
ATOM     47  O   UNL d   1      -1.118  10.788  16.729 -0.11 +0.26    -0.481    19.682
ATOM     48  H   UNL d   1      -1.812  10.100  16.638 -0.42 -0.21    +0.295    19.682
ATOM     49  C   UNL d   1      -4.607  14.692  10.229 -0.28 -0.00    +0.048    19.682
ATOM     50  C   UNL d   1      -5.989  14.367   9.663 -0.26 -0.02    +0.125    19.682
ATOM     51  C   UNL d   1      -6.981  15.437  10.022 -0.08 -0.03    +0.305    19.682
ATOM     52  O   UNL d   1      -7.796  15.421  10.927 -0.03 +0.02    -0.251    19.682
ATOM     53  O   UNL d   1      -6.902  16.497   9.193 -0.02 +0.03    -0.481    19.682
ATOM     54  H   UNL d   1      -7.836  16.761   9.055 +0.03 -0.02    +0.295    19.682
TER
ENDMDL
MODEL       59
USER    Run = 59
USER    Cluster Rank = 49
USER    Number of conformations in this cluster = 1
USER  
USER    RMSD from reference structure       = 15.689 A
USER  
USER    Estimated Free Energy of Binding    =   -3.53 kcal/mol  [=(1)+(2)+(3)-(4)]
USER    Estimated Inhibition Constant, Ki   =    2.58 mM (millimolar)  [Temperature = 298.15 K]
USER    
USER    (1) Final Intermolecular Energy     =   -7.41 kcal/mol
USER        vdW + Hbond + desolv Energy     =   -7.25 kcal/mol
USER        Electrostatic Energy            =   -0.16 kcal/mol
USER    (2) Final Total Internal Energy     =   -2.55 kcal/mol
USER    (3) Torsional Free Energy           =   +3.88 kcal/mol
USER    (4) Unbound System's Energy  [=(2)] =   -2.55 kcal/mol
USER    
USER    
USER  
USER    DPF = D:/Protein_go_brrr/autodock/final/mut_N102T/heme/dock.dpf
USER    NEWDPF move	heme_opt.pdbqt
USER    NEWDPF about	0.153000 0.018000 -0.028000
USER    NEWDPF tran0	-8.570604 12.368260 12.266035
USER    NEWDPF axisangle0	0.716474 -0.190616 0.671067 -124.671148
USER    NEWDPF quaternion0	0.634568 -0.168826 0.594352 -0.464292
USER    NEWDPF dihe0	-100.71 -18.27 104.12 -97.91 31.86 -130.48 -46.36 -92.26 129.44 -127.14 -158.77 -94.03 163.86 
USER  
USER                              x       y       z    vdW   Elec        q     RMS 
ATOM      1  O   UNL d   1     -10.804   9.097   7.899 -0.16 +0.08    -0.289    15.689
ATOM      2  O   UNL d   1      -6.430  15.199   7.745 -0.12 +0.02    -0.289    15.689
ATOM      3  N   UNL d   1      -9.843  10.779  10.753 -0.10 +0.01    -0.247    15.689
ATOM      4  N   UNL d   1      -7.929  12.812   9.736 -0.16 +0.05    -0.247    15.689
ATOM      5  N   UNL d   1      -7.106  13.263  12.453 -0.04 +0.03    -0.354    15.689
ATOM      6  N   UNL d   1      -9.081  11.139  13.498 -0.05 +0.00    -0.354    15.689
ATOM      7  C   UNL d   1     -11.059   8.700  10.298 -0.19 -0.00    +0.084    15.689
ATOM      8  C   UNL d   1      -8.191  13.532   7.415 -0.21 -0.01    +0.084    15.689
ATOM      9  C   UNL d   1      -8.611  12.602   8.558 -0.26 -0.01    +0.058    15.689
ATOM     10  C   UNL d   1     -10.481   9.687  11.317 -0.15 -0.00    +0.058    15.689
ATOM     11  C   UNL d   1     -10.650   9.437   9.058 -0.16 -0.03    +0.193    15.689
ATOM     12  C   UNL d   1      -9.944  10.693   9.467 -0.19 -0.02    +0.109    15.689
ATOM     13  C   UNL d   1      -7.118  14.283   8.151 -0.16 -0.03    +0.193    15.689
ATOM     14  C   UNL d   1     -10.337   7.351  10.332 -0.44 +0.00    +0.026    15.689
ATOM     15  C   UNL d   1      -9.528  11.633   8.406 -0.28 -0.01    +0.055    15.689
ATOM     16  C   UNL d   1      -9.308  14.510   7.040 -0.08 -0.00    +0.026    15.689
ATOM     17  C   UNL d   1      -7.054  13.746   9.544 -0.18 -0.02    +0.109    15.689
ATOM     18  C   UNL d   1     -10.673   9.525  12.639 -0.16 +0.00    +0.050    15.689
ATOM     19  C   UNL d   1     -10.250  10.427  13.648 -0.11 -0.00    +0.045    15.689
ATOM     20  C   UNL d   1      -6.143  13.981  11.793 -0.19 -0.01    +0.045    15.689
ATOM     21  C   UNL d   1      -6.057  14.267  10.491 -0.27 -0.01    +0.057    15.689
ATOM     22  C   UNL d   1      -5.621  13.913  14.016 -0.16 +0.00    -0.019    15.689
ATOM     23  C   UNL d   1      -6.877  13.168  13.800 -0.11 -0.00    +0.045    15.689
ATOM     24  C   UNL d   1      -5.192  14.393  12.825 -0.22 +0.00    -0.022    15.689
ATOM     25  C   UNL d   1      -8.817  11.879  14.628 -0.08 -0.00    +0.049    15.689
ATOM     26  C   UNL d   1     -10.778  10.742  14.891 -0.04 +0.00    -0.018    15.689
ATOM     27  C   UNL d   1      -9.880  11.674  15.496 -0.04 -0.00    +0.003    15.689
ATOM     28  C   UNL d   1      -7.586  12.575  14.772 -0.09 -0.00    +0.052    15.689
ATOM     29  C   UNL d   1      -3.983  15.215  12.531 -0.32 -0.01    +0.046    15.689
ATOM     30  C   UNL d   1     -12.041  10.212  15.481 -0.02 -0.00    +0.046    15.689
ATOM     31  H   UNL d   1      -7.932  12.923  11.971 +0.04 -0.01    +0.166    15.689
ATOM     32  H   UNL d   1      -8.489  11.079  12.678 +0.08 +0.01    +0.166    15.689
ATOM     33  C   UNL d   1     -12.580   8.525  10.343 -0.06 -0.01    +0.141    15.689
ATOM     34  C   UNL d   1     -13.089   7.597   9.273 -0.03 -0.01    +0.306    15.689
ATOM     35  O   UNL d   1     -13.163   6.382   9.349 -0.04 +0.01    -0.251    15.689
ATOM     36  O   UNL d   1     -13.479   8.249   8.164 +0.01 +0.02    -0.481    15.689
ATOM     37  H   UNL d   1     -12.643   8.486   7.709 +0.07 -0.02    +0.295    15.689
ATOM     38  C   UNL d   1     -10.040  12.248  16.798 -0.01 -0.00    +0.017    15.689
ATOM     39  C   UNL d   1      -9.148  12.163  17.797 -0.01 -0.01    +0.092    15.689
ATOM     40  C   UNL d   1      -9.426  12.813  19.081 -0.00 -0.02    +0.330    15.689
ATOM     41  O   UNL d   1      -8.683  13.522  19.732 -0.00 +0.02    -0.246    15.689
ATOM     42  O   UNL d   1     -10.675  12.528  19.482 +0.00 +0.03    -0.477    15.689
ATOM     43  H   UNL d   1     -10.666  12.732  20.439 +0.00 -0.02    +0.295    15.689
ATOM     44  C   UNL d   1      -7.622  12.837   6.174 -0.23 -0.01    +0.141    15.689
ATOM     45  C   UNL d   1      -7.155  13.800   5.115 -0.17 -0.01    +0.306    15.689
ATOM     46  O   UNL d   1      -7.820  14.248   4.197 -0.07 +0.00    -0.251    15.689
ATOM     47  O   UNL d   1      -5.859  14.130   5.255 -0.11 +0.00    -0.481    15.689
ATOM     48  H   UNL d   1      -5.845  14.772   5.996 +0.09 -0.01    +0.295    15.689
ATOM     49  C   UNL d   1      -4.955  14.074  15.352 -0.16 -0.01    +0.048    15.689
ATOM     50  C   UNL d   1      -4.142  12.837  15.734 -0.23 -0.03    +0.125    15.689
ATOM     51  C   UNL d   1      -3.777  12.038  14.515 -0.22 -0.08    +0.305    15.689
ATOM     52  O   UNL d   1      -4.335  11.044  14.083 -0.26 +0.04    -0.251    15.689
ATOM     53  O   UNL d   1      -2.690  12.536  13.893 -0.81 +0.16    -0.481    15.689
ATOM     54  H   UNL d   1      -1.936  12.174  14.404 -0.37 -0.23    +0.295    15.689
TER
ENDMDL
MODEL       47
USER    Run = 47
USER    Cluster Rank = 50
USER    Number of conformations in this cluster = 2
USER  
USER    RMSD from reference structure       = 14.886 A
USER  
USER    Estimated Free Energy of Binding    =   -3.52 kcal/mol  [=(1)+(2)+(3)-(4)]
USER    Estimated Inhibition Constant, Ki   =    2.64 mM (millimolar)  [Temperature = 298.15 K]
USER    
USER    (1) Final Intermolecular Energy     =   -7.40 kcal/mol
USER        vdW + Hbond + desolv Energy     =   -7.25 kcal/mol
USER        Electrostatic Energy            =   -0.15 kcal/mol
USER    (2) Final Total Internal Energy     =   -3.73 kcal/mol
USER    (3) Torsional Free Energy           =   +3.88 kcal/mol
USER    (4) Unbound System's Energy  [=(2)] =   -3.73 kcal/mol
USER    
USER    
USER  
USER    DPF = D:/Protein_go_brrr/autodock/final/mut_N102T/heme/dock.dpf
USER    NEWDPF move	heme_opt.pdbqt
USER    NEWDPF about	0.153000 0.018000 -0.028000
USER    NEWDPF tran0	-4.693614 13.286624 -10.816515
USER    NEWDPF axisangle0	-0.121319 0.830466 -0.543699 -115.116391
USER    NEWDPF quaternion0	-0.102386 0.700861 -0.458847 -0.536443
USER    NEWDPF dihe0	87.91 -96.61 -110.32 -62.20 -177.84 66.87 119.57 45.50 102.10 -37.73 -33.88 -128.99 26.59 
USER  
USER                              x       y       z    vdW   Elec        q     RMS 
ATOM      1  O   UNL d   1      -1.292  17.451  -8.399 -0.13 +0.01    -0.289    14.886
ATOM      2  O   UNL d   1      -6.647  13.114  -5.414 -0.02 -0.01    -0.289    14.886
ATOM      3  N   UNL d   1      -3.138  15.212 -10.263 -0.12 +0.01    -0.247    14.886
ATOM      4  N   UNL d   1      -4.745  13.779  -8.215 -0.09 +0.00    -0.247    14.886
ATOM      5  N   UNL d   1      -5.386  11.822 -10.221 -0.06 +0.02    -0.354    14.886
ATOM      6  N   UNL d   1      -3.700  13.304 -12.334 -0.13 +0.03    -0.354    14.886
ATOM      7  C   UNL d   1      -1.216  16.665 -10.712 -0.15 -0.01    +0.084    14.886
ATOM      8  C   UNL d   1      -5.222  14.969  -6.135 -0.05 +0.00    +0.084    14.886
ATOM      9  C   UNL d   1      -4.500  14.921  -7.485 -0.13 +0.00    +0.058    14.886
ATOM     10  C   UNL d   1      -2.221  15.625 -11.215 -0.19 -0.00    +0.058    14.886
ATOM     11  C   UNL d   1      -1.739  16.781  -9.312 -0.13 -0.01    +0.193    14.886
ATOM     12  C   UNL d   1      -2.920  15.871  -9.172 -0.16 +0.00    +0.109    14.886
ATOM     13  C   UNL d   1      -5.892  13.627  -6.217 -0.03 +0.01    +0.193    14.886
ATOM     14  C   UNL d   1       0.210  16.109 -10.663 -0.14 -0.01    +0.026    14.886
ATOM     15  C   UNL d   1      -3.662  15.885  -7.895 -0.15 +0.00    +0.055    14.886
ATOM     16  C   UNL d   1      -6.300  16.057  -6.106 -0.01 +0.00    +0.026    14.886
ATOM     17  C   UNL d   1      -5.517  13.005  -7.522 -0.10 -0.00    +0.109    14.886
ATOM     18  C   UNL d   1      -2.242  15.233 -12.503 -0.13 +0.00    +0.050    14.886
ATOM     19  C   UNL d   1      -3.186  14.343 -13.076 -0.10 +0.00    +0.045    14.886
ATOM     20  C   UNL d   1      -5.877  11.189  -9.109 -0.13 -0.00    +0.045    14.886
ATOM     21  C   UNL d   1      -5.996  11.657  -7.862 -0.18 -0.00    +0.057    14.886
ATOM     22  C   UNL d   1      -5.994   9.757 -10.885 -0.14 +0.00    -0.019    14.886
ATOM     23  C   UNL d   1      -5.415  11.036 -11.343 -0.18 -0.00    +0.045    14.886
ATOM     24  C   UNL d   1      -6.266   9.854  -9.563 -0.12 +0.00    -0.022    14.886
ATOM     25  C   UNL d   1      -4.521  12.517 -13.109 -0.23 -0.01    +0.049    14.886
ATOM     26  C   UNL d   1      -3.714  14.250 -14.355 -0.18 -0.00    -0.018    14.886
ATOM     27  C   UNL d   1      -4.571  13.107 -14.364 -0.23 -0.00    +0.003    14.886
ATOM     28  C   UNL d   1      -5.046  11.295 -12.607 -0.31 -0.01    +0.052    14.886
ATOM     29  C   UNL d   1      -6.867   8.834  -8.657 -0.30 -0.00    +0.046    14.886
ATOM     30  C   UNL d   1      -3.441  15.167 -15.499 -0.23 +0.01    +0.046    14.886
ATOM     31  H   UNL d   1      -5.114  12.798 -10.194 +0.05 -0.01    +0.166    14.886
ATOM     32  H   UNL d   1      -3.462  13.136 -11.364 +0.02 -0.03    +0.166    14.886
ATOM     33  C   UNL d   1      -1.266  18.023 -11.419 -0.04 -0.00    +0.141    14.886
ATOM     34  C   UNL d   1      -0.863  19.160 -10.520 -0.01 -0.01    +0.306    14.886
ATOM     35  O   UNL d   1      -1.530  20.148 -10.264 -0.00 +0.00    -0.251    14.886
ATOM     36  O   UNL d   1       0.360  18.990  -9.986 -0.00 +0.04    -0.481    14.886
ATOM     37  H   UNL d   1       0.193  18.577  -9.112 +0.05 -0.03    +0.295    14.886
ATOM     38  C   UNL d   1      -5.309  12.638 -15.498 -0.24 -0.00    +0.017    14.886
ATOM     39  C   UNL d   1      -4.846  11.785 -16.425 -0.35 -0.01    +0.092    14.886
ATOM     40  C   UNL d   1      -5.711  11.369 -17.531 -0.17 +0.01    +0.330    14.886
ATOM     41  O   UNL d   1      -6.167  12.062 -18.420 -0.08 -0.02    -0.246    14.886
ATOM     42  O   UNL d   1      -5.954  10.051 -17.456 -0.16 -0.02    -0.477    14.886
ATOM     43  H   UNL d   1      -6.696   9.985 -16.821 +0.12 +0.01    +0.295    14.886
ATOM     44  C   UNL d   1      -4.314  15.055  -4.903 -0.11 +0.02    +0.141    14.886
ATOM     45  C   UNL d   1      -3.875  13.708  -4.394 -0.15 +0.07    +0.306    14.886
ATOM     46  O   UNL d   1      -3.029  12.984  -4.891 -0.28 -0.04    -0.251    14.886
ATOM     47  O   UNL d   1      -4.548  13.329  -3.293 -0.03 -0.16    -0.481    14.886
ATOM     48  H   UNL d   1      -5.462  13.160  -3.607 +0.08 +0.06    +0.295    14.886
ATOM     49  C   UNL d   1      -6.210   8.566 -11.771 -0.22 -0.02    +0.048    14.886
ATOM     50  C   UNL d   1      -7.089   8.905 -12.975 -0.24 -0.04    +0.125    14.886
ATOM     51  C   UNL d   1      -6.687   8.099 -14.177 -0.29 -0.10    +0.305    14.886
ATOM     52  O   UNL d   1      -6.343   6.930 -14.208 -0.50 +0.10    -0.251    14.886
ATOM     53  O   UNL d   1      -6.726   8.829 -15.310 -0.16 +0.07    -0.481    14.886
ATOM     54  H   UNL d   1      -5.797   8.836 -15.621 -0.28 -0.09    +0.295    14.886
TER
ENDMDL
MODEL       27
USER    Run = 27
USER    Cluster Rank = 51
USER    Number of conformations in this cluster = 1
USER  
USER    RMSD from reference structure       = 16.358 A
USER  
USER    Estimated Free Energy of Binding    =   -3.46 kcal/mol  [=(1)+(2)+(3)-(4)]
USER    Estimated Inhibition Constant, Ki   =    2.90 mM (millimolar)  [Temperature = 298.15 K]
USER    
USER    (1) Final Intermolecular Energy     =   -7.34 kcal/mol
USER        vdW + Hbond + desolv Energy     =   -7.32 kcal/mol
USER        Electrostatic Energy            =   -0.02 kcal/mol
USER    (2) Final Total Internal Energy     =   -4.57 kcal/mol
USER    (3) Torsional Free Energy           =   +3.88 kcal/mol
USER    (4) Unbound System's Energy  [=(2)] =   -4.57 kcal/mol
USER    
USER    
USER  
USER    DPF = D:/Protein_go_brrr/autodock/final/mut_N102T/heme/dock.dpf
USER    NEWDPF move	heme_opt.pdbqt
USER    NEWDPF about	0.153000 0.018000 -0.028000
USER    NEWDPF tran0	10.951829 9.752204 -12.871163
USER    NEWDPF axisangle0	0.236863 0.716913 -0.655692 152.533126
USER    NEWDPF quaternion0	0.230091 0.696417 -0.636946 0.237405
USER    NEWDPF dihe0	-105.24 -161.37 -158.91 -82.52 33.59 89.21 132.23 -119.04 130.50 -19.19 -107.85 -94.37 -0.06 
USER  
USER                              x       y       z    vdW   Elec        q     RMS 
ATOM      1  O   UNL d   1      14.963   5.893 -14.814 -0.05 +0.03    -0.289    16.358
ATOM      2  O   UNL d   1      13.925   8.925  -8.023 -0.11 +0.03    -0.289    16.358
ATOM      3  N   UNL d   1      12.526   8.248 -14.172 -0.15 +0.01    -0.247    16.358
ATOM      4  N   UNL d   1      12.684   8.608 -11.227 -0.14 +0.07    -0.247    16.358
ATOM      5  N   UNL d   1      10.164   9.987 -11.354 -0.04 +0.14    -0.354    16.358
ATOM      6  N   UNL d   1       9.999   9.592 -14.406 -0.11 +0.01    -0.354    16.358
ATOM      7  C   UNL d   1      13.124   6.860 -16.102 -0.15 +0.00    +0.084    16.358
ATOM      8  C   UNL d   1      14.826   8.129 -10.155 -0.08 -0.01    +0.084    16.358
ATOM      9  C   UNL d   1      13.958   8.124 -11.417 -0.14 -0.01    +0.058    16.358
ATOM     10  C   UNL d   1      12.205   7.914 -15.477 -0.14 +0.00    +0.058    16.358
ATOM     11  C   UNL d   1      14.033   6.671 -14.925 -0.11 -0.02    +0.193    16.358
ATOM     12  C   UNL d   1      13.582   7.586 -13.828 -0.16 -0.01    +0.109    16.358
ATOM     13  C   UNL d   1      13.796   8.670  -9.204 -0.15 -0.03    +0.193    16.358
ATOM     14  C   UNL d   1      12.388   5.546 -16.376 -0.21 +0.00    +0.026    16.358
ATOM     15  C   UNL d   1      14.390   7.641 -12.593 -0.12 -0.01    +0.055    16.358
ATOM     16  C   UNL d   1      15.977   9.135 -10.260 -0.03 -0.00    +0.026    16.358
ATOM     17  C   UNL d   1      12.540   8.912  -9.977 -0.23 -0.03    +0.109    16.358
ATOM     18  C   UNL d   1      11.233   8.512 -16.192 -0.04 +0.01    +0.050    16.358
ATOM     19  C   UNL d   1      10.392   9.554 -15.725 -0.13 +0.00    +0.045    16.358
ATOM     20  C   UNL d   1      10.293   9.856  -9.995 -0.21 -0.02    +0.045    16.358
ATOM     21  C   UNL d   1      11.337   9.406  -9.292 -0.15 -0.01    +0.057    16.358
ATOM     22  C   UNL d   1       8.222  10.700 -10.462 -0.37 +0.01    -0.019    16.358
ATOM     23  C   UNL d   1       8.947  10.488 -11.731 -0.27 -0.01    +0.045    16.358
ATOM     24  C   UNL d   1       9.024  10.325  -9.438 -0.40 +0.01    -0.022    16.358
ATOM     25  C   UNL d   1       9.118  10.627 -14.194 -0.23 -0.01    +0.049    16.358
ATOM     26  C   UNL d   1       9.780  10.613 -16.378 -0.16 +0.00    -0.018    16.358
ATOM     27  C   UNL d   1       8.993  11.299 -15.402 -0.17 -0.00    +0.003    16.358
ATOM     28  C   UNL d   1       8.453  10.773 -12.946 -0.28 -0.01    +0.052    16.358
ATOM     29  C   UNL d   1       8.747  10.363  -7.974 -0.52 -0.02    +0.046    16.358
ATOM     30  C   UNL d   1       9.919  10.970 -17.819 -0.12 +0.00    +0.046    16.358
ATOM     31  H   UNL d   1      10.942   9.798 -11.976 -0.07 -0.05    +0.166    16.358
ATOM     32  H   UNL d   1      10.296   8.915 -13.713 +0.00 -0.01    +0.166    16.358
ATOM     33  C   UNL d   1      13.919   7.325 -17.326 -0.05 +0.00    +0.141    16.358
ATOM     34  C   UNL d   1      14.833   6.257 -17.863 -0.01 -0.00    +0.306    16.358
ATOM     35  O   UNL d   1      14.539   5.402 -18.682 -0.01 -0.00    -0.251    16.358
ATOM     36  O   UNL d   1      16.071   6.324 -17.342 +0.00 +0.01    -0.481    16.358
ATOM     37  H   UNL d   1      15.967   6.013 -16.417 +0.02 -0.01    +0.295    16.358
ATOM     38  C   UNL d   1       8.181  12.450 -15.657 -0.13 -0.01    +0.017    16.358
ATOM     39  C   UNL d   1       6.862  12.534 -15.426 -0.14 -0.07    +0.092    16.358
ATOM     40  C   UNL d   1       6.148  13.781 -15.716 -0.06 -0.16    +0.330    16.358
ATOM     41  O   UNL d   1       5.651  14.124 -16.771 -0.08 +0.12    -0.246    16.358
ATOM     42  O   UNL d   1       6.092  14.547 -14.616 -0.00 +0.15    -0.477    16.358
ATOM     43  H   UNL d   1       6.797  14.184 -14.041 +0.07 -0.09    +0.295    16.358
ATOM     44  C   UNL d   1      15.330   6.757  -9.695 -0.08 -0.02    +0.141    16.358
ATOM     45  C   UNL d   1      14.235   5.865  -9.174 -0.16 -0.07    +0.306    16.358
ATOM     46  O   UNL d   1      13.544   5.105  -9.829 -0.25 +0.09    -0.251    16.358
ATOM     47  O   UNL d   1      14.047   6.001  -7.848 -0.16 +0.09    -0.481    16.358
ATOM     48  H   UNL d   1      14.443   6.871  -7.630 +0.10 -0.04    +0.295    16.358
ATOM     49  C   UNL d   1       6.821  11.229 -10.371 -0.43 -0.01    +0.048    16.358
ATOM     50  C   UNL d   1       6.785  12.756 -10.428 -0.20 -0.05    +0.125    16.358
ATOM     51  C   UNL d   1       7.074  13.248 -11.818 -0.10 -0.12    +0.305    16.358
ATOM     52  O   UNL d   1       7.932  14.042 -12.161 -0.05 +0.07    -0.251    16.358
ATOM     53  O   UNL d   1       6.238  12.710 -12.727 -0.06 +0.25    -0.481    16.358
ATOM     54  H   UNL d   1       5.543  13.390 -12.844 -0.34 -0.19    +0.295    16.358
TER
ENDMDL
MODEL       65
USER    Run = 65
USER    Cluster Rank = 52
USER    Number of conformations in this cluster = 1
USER  
USER    RMSD from reference structure       = 13.334 A
USER  
USER    Estimated Free Energy of Binding    =   -3.28 kcal/mol  [=(1)+(2)+(3)-(4)]
USER    Estimated Inhibition Constant, Ki   =    3.91 mM (millimolar)  [Temperature = 298.15 K]
USER    
USER    (1) Final Intermolecular Energy     =   -7.16 kcal/mol
USER        vdW + Hbond + desolv Energy     =   -6.75 kcal/mol
USER        Electrostatic Energy            =   -0.42 kcal/mol
USER    (2) Final Total Internal Energy     =   -2.56 kcal/mol
USER    (3) Torsional Free Energy           =   +3.88 kcal/mol
USER    (4) Unbound System's Energy  [=(2)] =   -2.56 kcal/mol
USER    
USER    
USER  
USER    DPF = D:/Protein_go_brrr/autodock/final/mut_N102T/heme/dock.dpf
USER    NEWDPF move	heme_opt.pdbqt
USER    NEWDPF about	0.153000 0.018000 -0.028000
USER    NEWDPF tran0	12.428224 -2.209745 10.632069
USER    NEWDPF axisangle0	0.199493 0.007257 0.979872 -131.337357
USER    NEWDPF quaternion0	0.181774 0.006613 0.892838 -0.412013
USER    NEWDPF dihe0	176.58 -51.19 108.87 62.87 -157.50 -49.45 -45.75 100.38 2.48 -129.63 159.12 -177.08 12.72 
USER  
USER                              x       y       z    vdW   Elec        q     RMS 
ATOM      1  O   UNL d   1      14.739  -7.556   9.719 -0.00 -0.11    -0.289    13.334
ATOM      2  O   UNL d   1      17.040  -0.753   7.527 -0.01 -0.06    -0.289    13.334
ATOM      3  N   UNL d   1      12.960  -4.678  10.387 -0.12 -0.36    -0.247    13.334
ATOM      4  N   UNL d   1      14.764  -2.521   9.423 -0.09 -0.16    -0.247    13.334
ATOM      5  N   UNL d   1      13.111  -0.637  10.831 -0.01 -0.16    -0.354    13.334
ATOM      6  N   UNL d   1      11.256  -2.882  11.842 -0.03 -0.23    -0.354    13.334
ATOM      7  C   UNL d   1      12.742  -7.033  11.029 -0.05 +0.05    +0.084    13.334
ATOM      8  C   UNL d   1      16.352  -3.098   7.658 -0.03 +0.03    +0.084    13.334
ATOM      9  C   UNL d   1      15.279  -3.543   8.658 -0.07 +0.04    +0.058    13.334
ATOM     10  C   UNL d   1      12.219  -5.596  11.112 -0.06 +0.05    +0.058    13.334
ATOM     11  C   UNL d   1      13.900  -6.767  10.114 -0.03 +0.12    +0.193    13.334
ATOM     12  C   UNL d   1      13.909  -5.309   9.776 -0.03 +0.12    +0.109    13.334
ATOM     13  C   UNL d   1      16.376  -1.641   8.024 -0.01 +0.05    +0.193    13.334
ATOM     14  C   UNL d   1      13.278  -7.527  12.375 -0.01 +0.01    +0.026    13.334
ATOM     15  C   UNL d   1      14.914  -4.826   8.807 -0.07 +0.04    +0.055    13.334
ATOM     16  C   UNL d   1      15.870  -3.234   6.210 -0.08 +0.01    +0.026    13.334
ATOM     17  C   UNL d   1      15.374  -1.424   9.111 -0.03 +0.04    +0.109    13.334
ATOM     18  C   UNL d   1      11.081  -5.298  11.767 -0.10 +0.04    +0.050    13.334
ATOM     19  C   UNL d   1      10.477  -4.017  11.826 -0.09 +0.03    +0.045    13.334
ATOM     20  C   UNL d   1      14.160   0.177  10.493 -0.05 +0.01    +0.045    13.334
ATOM     21  C   UNL d   1      15.207  -0.089   9.704 -0.04 +0.02    +0.057    13.334
ATOM     22  C   UNL d   1      12.753   1.325  11.878 -0.11 -0.01    -0.019    13.334
ATOM     23  C   UNL d   1      12.209  -0.031  11.665 -0.09 +0.02    +0.045    13.334
ATOM     24  C   UNL d   1      13.907   1.443  11.180 -0.08 -0.01    -0.022    13.334
ATOM     25  C   UNL d   1      10.473  -1.761  11.993 -0.11 +0.02    +0.049    13.334
ATOM     26  C   UNL d   1       9.153  -3.621  11.931 -0.14 -0.01    -0.018    13.334
ATOM     27  C   UNL d   1       9.155  -2.194  12.017 -0.16 +0.00    +0.003    13.334
ATOM     28  C   UNL d   1      11.062  -0.482  12.195 -0.15 +0.02    +0.052    13.334
ATOM     29  C   UNL d   1      14.814   2.621  11.069 -0.09 +0.01    +0.046    13.334
ATOM     30  C   UNL d   1       7.956  -4.511  11.950 -0.21 +0.02    +0.046    13.334
ATOM     31  H   UNL d   1      13.006  -1.558  10.420 +0.03 +0.12    +0.166    13.334
ATOM     32  H   UNL d   1      12.268  -2.896  11.791 +0.02 +0.11    +0.166    13.334
ATOM     33  C   UNL d   1      11.781  -8.047  10.400 -0.09 +0.08    +0.141    13.334
ATOM     34  C   UNL d   1      11.229  -7.580   9.080 -0.08 +0.30    +0.306    13.334
ATOM     35  O   UNL d   1      10.111  -7.134   8.884 -0.41 -0.27    -0.251    13.334
ATOM     36  O   UNL d   1      12.116  -7.698   8.076 -0.37 -0.44    -0.481    13.334
ATOM     37  H   UNL d   1      12.947  -7.980   8.514 +0.03 +0.19    +0.295    13.334
ATOM     38  C   UNL d   1       7.990  -1.374  12.154 -0.29 +0.00    +0.017    13.334
ATOM     39  C   UNL d   1       6.925  -1.662  12.918 -0.27 +0.01    +0.092    13.334
ATOM     40  C   UNL d   1       5.799  -0.727  12.985 -0.28 -0.02    +0.330    13.334
ATOM     41  O   UNL d   1       5.837   0.465  13.225 -0.40 +0.02    -0.246    13.334
ATOM     42  O   UNL d   1       4.649  -1.368  12.728 -0.16 +0.08    -0.477    13.334
ATOM     43  H   UNL d   1       4.069  -1.119  13.476 -0.31 -0.16    +0.295    13.334
ATOM     44  C   UNL d   1      17.733  -3.734   7.844 -0.00 +0.03    +0.141    13.334
ATOM     45  C   UNL d   1      18.751  -3.248   6.847 +0.00 +0.04    +0.306    13.334
ATOM     46  O   UNL d   1      18.989  -3.736   5.756 -0.00 -0.02    -0.251    13.334
ATOM     47  O   UNL d   1      19.438  -2.181   7.292 +0.00 -0.05    -0.481    13.334
ATOM     48  H   UNL d   1      18.795  -1.441   7.262 +0.00 +0.03    +0.295    13.334
ATOM     49  C   UNL d   1      12.108   2.365  12.747 -0.26 +0.02    +0.048    13.334
ATOM     50  C   UNL d   1      10.820   2.905  12.126 -0.33 +0.04    +0.125    13.334
ATOM     51  C   UNL d   1      10.785   2.641  10.648 -0.35 +0.07    +0.305    13.334
ATOM     52  O   UNL d   1      10.273   1.696  10.074 -0.48 -0.08    -0.251    13.334
ATOM     53  O   UNL d   1      11.424   3.600   9.949 -0.23 -0.07    -0.481    13.334
ATOM     54  H   UNL d   1      10.723   3.995   9.390 -0.38 -0.05    +0.295    13.334
TER
ENDMDL
MODEL        8
USER    Run = 8
USER    Cluster Rank = 53
USER    Number of conformations in this cluster = 1
USER  
USER    RMSD from reference structure       = 11.664 A
USER  
USER    Estimated Free Energy of Binding    =   -3.11 kcal/mol  [=(1)+(2)+(3)-(4)]
USER    Estimated Inhibition Constant, Ki   =    5.24 mM (millimolar)  [Temperature = 298.15 K]
USER    
USER    (1) Final Intermolecular Energy     =   -6.99 kcal/mol
USER        vdW + Hbond + desolv Energy     =   -6.82 kcal/mol
USER        Electrostatic Energy            =   -0.17 kcal/mol
USER    (2) Final Total Internal Energy     =   -3.51 kcal/mol
USER    (3) Torsional Free Energy           =   +3.88 kcal/mol
USER    (4) Unbound System's Energy  [=(2)] =   -3.51 kcal/mol
USER    
USER    
USER  
USER    DPF = D:/Protein_go_brrr/autodock/final/mut_N102T/heme/dock.dpf
USER    NEWDPF move	heme_opt.pdbqt
USER    NEWDPF about	0.153000 0.018000 -0.028000
USER    NEWDPF tran0	13.694413 -1.504878 -6.391525
USER    NEWDPF axisangle0	0.546640 -0.248451 -0.799660 -135.522432
USER    NEWDPF quaternion0	0.505978 -0.229970 -0.740177 -0.378467
USER    NEWDPF dihe0	-120.91 132.34 179.31 130.00 24.92 51.16 -54.95 72.37 118.78 -128.47 -14.35 -72.37 5.17 
USER  
USER                              x       y       z    vdW   Elec        q     RMS 
ATOM      1  O   UNL d   1      14.780   1.890  -1.696 -0.10 +0.00    -0.289    11.664
ATOM      2  O   UNL d   1      14.100   3.614  -8.973 -0.12 +0.07    -0.289    11.664
ATOM      3  N   UNL d   1      14.269  -0.489  -4.140 -0.08 +0.02    -0.247    11.664
ATOM      4  N   UNL d   1      13.832   1.132  -6.591 -0.08 +0.03    -0.247    11.664
ATOM      5  N   UNL d   1      12.857  -1.247  -7.878 -0.07 +0.03    -0.354    11.664
ATOM      6  N   UNL d   1      13.295  -2.917  -5.325 -0.08 +0.08    -0.354    11.664
ATOM      7  C   UNL d   1      14.360  -0.518  -1.690 -0.19 -0.00    +0.084    11.664
ATOM      8  C   UNL d   1      14.835   3.359  -6.652 -0.15 -0.01    +0.084    11.664
ATOM      9  C   UNL d   1      14.524   2.079  -5.870 -0.14 -0.01    +0.058    11.664
ATOM     10  C   UNL d   1      14.169  -1.278  -3.006 -0.15 -0.01    +0.058    11.664
ATOM     11  C   UNL d   1      14.604   0.838  -2.282 -0.18 -0.00    +0.193    11.664
ATOM     12  C   UNL d   1      14.549   0.719  -3.774 -0.14 -0.01    +0.109    11.664
ATOM     13  C   UNL d   1      14.159   2.978  -7.939 -0.12 -0.04    +0.193    11.664
ATOM     14  C   UNL d   1      13.075  -0.472  -0.861 -0.18 -0.00    +0.026    11.664
ATOM     15  C   UNL d   1      14.854   1.919  -4.579 -0.20 -0.01    +0.055    11.664
ATOM     16  C   UNL d   1      16.337   3.514  -6.913 -0.05 -0.00    +0.026    11.664
ATOM     17  C   UNL d   1      13.584   1.610  -7.768 -0.14 -0.02    +0.109    11.664
ATOM     18  C   UNL d   1      14.010  -2.615  -3.028 -0.19 -0.01    +0.050    11.664
ATOM     19  C   UNL d   1      13.911  -3.412  -4.197 -0.18 -0.02    +0.045    11.664
ATOM     20  C   UNL d   1      12.513  -0.312  -8.820 -0.23 -0.01    +0.045    11.664
ATOM     21  C   UNL d   1      12.820   0.989  -8.860 -0.27 -0.01    +0.057    11.664
ATOM     22  C   UNL d   1      11.628  -2.329  -9.425 -0.24 +0.00    -0.019    11.664
ATOM     23  C   UNL d   1      12.367  -2.495  -8.158 -0.18 -0.00    +0.045    11.664
ATOM     24  C   UNL d   1      11.719  -1.034  -9.813 -0.24 +0.00    -0.022    11.664
ATOM     25  C   UNL d   1      13.230  -3.882  -6.303 -0.14 -0.02    +0.049    11.664
ATOM     26  C   UNL d   1      14.287  -4.719  -4.462 -0.14 +0.01    -0.018    11.664
ATOM     27  C   UNL d   1      13.872  -5.005  -5.799 -0.16 -0.00    +0.003    11.664
ATOM     28  C   UNL d   1      12.500  -3.658  -7.502 -0.14 -0.01    +0.052    11.664
ATOM     29  C   UNL d   1      11.150  -0.382 -11.027 -0.26 -0.01    +0.046    11.664
ATOM     30  C   UNL d   1      14.992  -5.648  -3.532 -0.10 -0.04    +0.046    11.664
ATOM     31  H   UNL d   1      13.479  -1.017  -7.111 +0.05 -0.01    +0.166    11.664
ATOM     32  H   UNL d   1      12.913  -1.981  -5.390 +0.07 -0.01    +0.166    11.664
ATOM     33  C   UNL d   1      15.560  -0.959  -0.845 -0.10 +0.01    +0.141    11.664
ATOM     34  C   UNL d   1      15.886   0.018   0.252 -0.03 +0.09    +0.306    11.664
ATOM     35  O   UNL d   1      15.306   0.123   1.320 -0.14 -0.08    -0.251    11.664
ATOM     36  O   UNL d   1      16.928   0.812  -0.054 +0.08 -0.26    -0.481    11.664
ATOM     37  H   UNL d   1      16.670   1.245  -0.895 +0.06 +0.17    +0.295    11.664
ATOM     38  C   UNL d   1      14.053  -6.257  -6.470 -0.14 -0.01    +0.017    11.664
ATOM     39  C   UNL d   1      13.189  -6.802  -7.339 -0.21 -0.05    +0.092    11.664
ATOM     40  C   UNL d   1      13.501  -8.086  -7.972 -0.07 -0.11    +0.330    11.664
ATOM     41  O   UNL d   1      13.876  -9.109  -7.433 -0.10 +0.09    -0.246    11.664
ATOM     42  O   UNL d   1      13.308  -8.006  -9.298 -0.01 +0.09    -0.477    11.664
ATOM     43  H   UNL d   1      12.427  -7.586  -9.382 +0.11 -0.05    +0.295    11.664
ATOM     44  C   UNL d   1      14.236   4.647  -6.077 -0.31 -0.02    +0.141    11.664
ATOM     45  C   UNL d   1      14.536   5.865  -6.910 -0.20 -0.05    +0.306    11.664
ATOM     46  O   UNL d   1      15.410   6.689  -6.703 -0.14 +0.05    -0.251    11.664
ATOM     47  O   UNL d   1      13.695   5.996  -7.952 -0.15 +0.10    -0.481    11.664
ATOM     48  H   UNL d   1      13.106   5.214  -7.895 -0.31 -0.12    +0.295    11.664
ATOM     49  C   UNL d   1      10.896  -3.436 -10.125 -0.30 -0.01    +0.048    11.664
ATOM     50  C   UNL d   1      11.849  -4.349 -10.896 -0.11 -0.01    +0.125    11.664
ATOM     51  C   UNL d   1      11.159  -5.617 -11.311 -0.10 -0.03    +0.305    11.664
ATOM     52  O   UNL d   1      10.242  -5.739 -12.104 -0.15 +0.02    -0.251    11.664
ATOM     53  O   UNL d   1      11.664  -6.696 -10.681 -0.02 +0.05    -0.481    11.664
ATOM     54  H   UNL d   1      12.632  -6.619 -10.815 +0.07 -0.03    +0.295    11.664
TER
ENDMDL
MODEL       17
USER    Run = 17
USER    Cluster Rank = 54
USER    Number of conformations in this cluster = 2
USER  
USER    RMSD from reference structure       = 12.254 A
USER  
USER    Estimated Free Energy of Binding    =   -3.09 kcal/mol  [=(1)+(2)+(3)-(4)]
USER    Estimated Inhibition Constant, Ki   =    5.39 mM (millimolar)  [Temperature = 298.15 K]
USER    
USER    (1) Final Intermolecular Energy     =   -6.97 kcal/mol
USER        vdW + Hbond + desolv Energy     =   -6.82 kcal/mol
USER        Electrostatic Energy            =   -0.15 kcal/mol
USER    (2) Final Total Internal Energy     =   -2.41 kcal/mol
USER    (3) Torsional Free Energy           =   +3.88 kcal/mol
USER    (4) Unbound System's Energy  [=(2)] =   -2.41 kcal/mol
USER    
USER    
USER  
USER    DPF = D:/Protein_go_brrr/autodock/final/mut_N102T/heme/dock.dpf
USER    NEWDPF move	heme_opt.pdbqt
USER    NEWDPF about	0.153000 0.018000 -0.028000
USER    NEWDPF tran0	13.215578 -10.339963 -2.637591
USER    NEWDPF axisangle0	0.790431 -0.314588 -0.525597 171.130958
USER    NEWDPF quaternion0	0.788065 -0.313647 -0.524024 0.077320
USER    NEWDPF dihe0	-136.10 -13.36 -165.24 -39.02 40.92 -80.94 141.62 96.22 146.61 -4.58 -161.09 179.75 166.79 
USER  
USER                              x       y       z    vdW   Elec        q     RMS 
ATOM      1  O   UNL d   1      10.315  -9.065   2.334 -0.09 +0.05    -0.289    12.254
ATOM      2  O   UNL d   1      16.556  -6.119  -0.624 -0.00 +0.07    -0.289    12.254
ATOM      3  N   UNL d   1      11.739 -10.244  -0.578 -0.08 +0.20    -0.247    12.254
ATOM      4  N   UNL d   1      13.931  -8.307  -1.099 -0.01 +0.30    -0.247    12.254
ATOM      5  N   UNL d   1      14.140  -9.399  -3.751 -0.05 +0.35    -0.354    12.254
ATOM      6  N   UNL d   1      11.852 -11.392  -3.208 -0.11 +0.18    -0.354    12.254
ATOM      7  C   UNL d   1       9.673 -10.719   0.652 -0.24 -0.03    +0.084    12.254
ATOM      8  C   UNL d   1      14.867  -7.133   0.829 -0.03 -0.03    +0.084    12.254
ATOM      9  C   UNL d   1      13.814  -8.086   0.255 -0.06 -0.04    +0.058    12.254
ATOM     10  C   UNL d   1      10.574 -10.993  -0.556 -0.21 -0.03    +0.058    12.254
ATOM     11  C   UNL d   1      10.543  -9.697   1.319 -0.11 -0.07    +0.193    12.254
ATOM     12  C   UNL d   1      11.777  -9.515   0.490 -0.08 -0.08    +0.109    12.254
ATOM     13  C   UNL d   1      15.580  -6.824  -0.457 -0.02 -0.08    +0.193    12.254
ATOM     14  C   UNL d   1       8.353 -10.057   0.246 -0.50 -0.01    +0.026    12.254
ATOM     15  C   UNL d   1      12.833  -8.617   1.001 -0.10 -0.03    +0.055    12.254
ATOM     16  C   UNL d   1      15.837  -7.856   1.768 -0.01 -0.00    +0.026    12.254
ATOM     17  C   UNL d   1      14.911  -7.592  -1.550 -0.07 -0.09    +0.109    12.254
ATOM     18  C   UNL d   1      10.275 -11.950  -1.453 -0.28 -0.02    +0.050    12.254
ATOM     19  C   UNL d   1      11.088 -12.330  -2.552 -0.21 -0.01    +0.045    12.254
ATOM     20  C   UNL d   1      14.954  -8.304  -3.882 -0.04 -0.04    +0.045    12.254
ATOM     21  C   UNL d   1      15.371  -7.452  -2.940 -0.08 -0.04    +0.057    12.254
ATOM     22  C   UNL d   1      14.686  -9.274  -5.932 -0.09 +0.01    -0.019    12.254
ATOM     23  C   UNL d   1      13.920 -10.049  -4.936 -0.14 -0.03    +0.045    12.254
ATOM     24  C   UNL d   1      15.297  -8.243  -5.302 -0.07 +0.01    -0.022    12.254
ATOM     25  C   UNL d   1      12.486 -11.956  -4.290 -0.17 -0.02    +0.049    12.254
ATOM     26  C   UNL d   1      11.258 -13.543  -3.202 -0.18 +0.00    -0.018    12.254
ATOM     27  C   UNL d   1      12.157 -13.305  -4.287 -0.15 -0.00    +0.003    12.254
ATOM     28  C   UNL d   1      13.208 -11.152  -5.213 -0.14 -0.02    +0.052    12.254
ATOM     29  C   UNL d   1      16.187  -7.194  -5.877 -0.03 -0.02    +0.046    12.254
ATOM     30  C   UNL d   1      10.626 -14.844  -2.839 -0.19 -0.01    +0.046    12.254
ATOM     31  H   UNL d   1      13.820  -9.710  -2.840 +0.02 -0.16    +0.166    12.254
ATOM     32  H   UNL d   1      11.895 -10.416  -2.938 +0.06 -0.15    +0.166    12.254
ATOM     33  C   UNL d   1       9.439 -11.915   1.582 -0.22 -0.03    +0.141    12.254
ATOM     34  C   UNL d   1       8.297 -11.692   2.536 -0.32 -0.01    +0.306    12.254
ATOM     35  O   UNL d   1       7.143 -12.051   2.375 -0.94 -0.01    -0.251    12.254
ATOM     36  O   UNL d   1       8.670 -11.030   3.646 -0.16 -0.04    -0.481    12.254
ATOM     37  H   UNL d   1       9.278 -10.331   3.323 +0.15 +0.00    +0.295    12.254
ATOM     38  C   UNL d   1      12.593 -14.291  -5.229 -0.13 -0.00    +0.017    12.254
ATOM     39  C   UNL d   1      11.835 -15.287  -5.714 -0.12 -0.02    +0.092    12.254
ATOM     40  C   UNL d   1      12.398 -16.224  -6.690 -0.05 -0.04    +0.330    12.254
ATOM     41  O   UNL d   1      12.496 -16.074  -7.893 -0.08 +0.03    -0.246    12.254
ATOM     42  O   UNL d   1      12.830 -17.333  -6.070 +0.00 +0.04    -0.477    12.254
ATOM     43  H   UNL d   1      12.976 -17.969  -6.800 +0.02 -0.02    +0.295    12.254
ATOM     44  C   UNL d   1      14.320  -5.855   1.474 -0.05 -0.03    +0.141    12.254
ATOM     45  C   UNL d   1      13.417  -5.069   0.561 -0.12 -0.12    +0.306    12.254
ATOM     46  O   UNL d   1      12.198  -5.097   0.544 -0.26 +0.13    -0.251    12.254
ATOM     47  O   UNL d   1      14.102  -4.303  -0.307 -0.03 +0.15    -0.481    12.254
ATOM     48  H   UNL d   1      15.023  -4.637  -0.259 +0.06 -0.08    +0.295    12.254
ATOM     49  C   UNL d   1      14.737  -9.601  -7.396 -0.08 -0.01    +0.048    12.254
ATOM     50  C   UNL d   1      13.534  -9.033  -8.148 -0.14 -0.03    +0.125    12.254
ATOM     51  C   UNL d   1      12.887  -7.925  -7.366 -0.15 -0.16    +0.305    12.254
ATOM     52  O   UNL d   1      13.143  -6.735  -7.414 -0.15 +0.13    -0.251    12.254
ATOM     53  O   UNL d   1      11.934  -8.386  -6.533 -0.14 +0.40    -0.481    12.254
ATOM     54  H   UNL d   1      12.047  -7.849  -5.721 -0.42 -0.59    +0.295    12.254
TER
ENDMDL
MODEL       90
USER    Run = 90
USER    Cluster Rank = 55
USER    Number of conformations in this cluster = 1
USER  
USER    RMSD from reference structure       = 13.114 A
USER  
USER    Estimated Free Energy of Binding    =   -3.06 kcal/mol  [=(1)+(2)+(3)-(4)]
USER    Estimated Inhibition Constant, Ki   =    5.70 mM (millimolar)  [Temperature = 298.15 K]
USER    
USER    (1) Final Intermolecular Energy     =   -6.94 kcal/mol
USER        vdW + Hbond + desolv Energy     =   -6.76 kcal/mol
USER        Electrostatic Energy            =   -0.18 kcal/mol
USER    (2) Final Total Internal Energy     =   -4.46 kcal/mol
USER    (3) Torsional Free Energy           =   +3.88 kcal/mol
USER    (4) Unbound System's Energy  [=(2)] =   -4.46 kcal/mol
USER    
USER    
USER  
USER    DPF = D:/Protein_go_brrr/autodock/final/mut_N102T/heme/dock.dpf
USER    NEWDPF move	heme_opt.pdbqt
USER    NEWDPF about	0.153000 0.018000 -0.028000
USER    NEWDPF tran0	-11.953580 2.786206 10.543784
USER    NEWDPF axisangle0	0.464502 -0.834501 0.296387 120.696871
USER    NEWDPF quaternion0	0.403676 -0.725223 0.257575 0.494724
USER    NEWDPF dihe0	-113.32 146.23 -102.71 33.11 30.71 114.12 131.76 90.88 137.11 -62.51 -82.71 -110.35 -1.71 
USER  
USER                              x       y       z    vdW   Elec        q     RMS 
ATOM      1  O   UNL d   1     -10.877   8.433  11.853 -0.13 -0.00    -0.289    13.114
ATOM      2  O   UNL d   1     -11.322   2.355  16.240 -0.04 -0.04    -0.289    13.114
ATOM      3  N   UNL d   1     -11.676   5.306  10.637 -0.09 +0.00    -0.247    13.114
ATOM      4  N   UNL d   1     -11.312   3.541  13.000 -0.11 -0.02    -0.247    13.114
ATOM      5  N   UNL d   1     -11.427   1.287  11.218 -0.15 +0.04    -0.354    13.114
ATOM      6  N   UNL d   1     -11.784   3.126   8.770 -0.12 +0.02    -0.354    13.114
ATOM      7  C   UNL d   1     -11.229   7.492   9.624 -0.25 -0.00    +0.084    13.114
ATOM      8  C   UNL d   1     -11.569   4.559  15.206 -0.09 +0.01    +0.084    13.114
ATOM      9  C   UNL d   1     -11.503   4.721  13.684 -0.14 +0.00    +0.058    13.114
ATOM     10  C   UNL d   1     -11.576   6.011   9.450 -0.25 -0.00    +0.058    13.114
ATOM     11  C   UNL d   1     -11.167   7.503  11.122 -0.17 +0.00    +0.193    13.114
ATOM     12  C   UNL d   1     -11.482   6.126  11.618 -0.14 +0.00    +0.109    13.114
ATOM     13  C   UNL d   1     -11.344   3.075  15.261 -0.08 +0.02    +0.193    13.114
ATOM     14  C   UNL d   1      -9.841   7.826   9.069 -0.23 -0.00    +0.026    13.114
ATOM     15  C   UNL d   1     -11.572   5.915  13.077 -0.19 +0.00    +0.055    13.114
ATOM     16  C   UNL d   1     -12.968   4.866  15.749 -0.03 +0.00    +0.026    13.114
ATOM     17  C   UNL d   1     -11.196   2.580  13.859 -0.16 +0.01    +0.109    13.114
ATOM     18  C   UNL d   1     -11.846   5.490   8.238 -0.28 -0.00    +0.050    13.114
ATOM     19  C   UNL d   1     -12.257   4.156   7.989 -0.22 -0.00    +0.045    13.114
ATOM     20  C   UNL d   1     -11.028   0.658  12.369 -0.27 -0.00    +0.045    13.114
ATOM     21  C   UNL d   1     -10.921   1.158  13.603 -0.28 +0.01    +0.057    13.114
ATOM     22  C   UNL d   1     -10.964  -0.842  10.647 -0.30 +0.01    -0.019    13.114
ATOM     23  C   UNL d   1     -11.420   0.462  10.125 -0.24 -0.01    +0.045    13.114
ATOM     24  C   UNL d   1     -10.735  -0.720  11.976 -0.30 +0.01    -0.022    13.114
ATOM     25  C   UNL d   1     -12.236   1.915   8.299 -0.22 -0.01    +0.049    13.114
ATOM     26  C   UNL d   1     -13.066   3.604   7.008 -0.13 +0.00    -0.018    13.114
ATOM     27  C   UNL d   1     -13.065   2.191   7.221 -0.13 -0.00    +0.003    13.114
ATOM     28  C   UNL d   1     -11.756   0.695   8.847 -0.29 -0.01    +0.052    13.114
ATOM     29  C   UNL d   1     -10.276  -1.758  12.942 -0.26 -0.01    +0.046    13.114
ATOM     30  C   UNL d   1     -13.799   4.342   5.939 -0.08 -0.00    +0.046    13.114
ATOM     31  H   UNL d   1     -11.763   2.244  11.231 +0.04 -0.02    +0.166    13.114
ATOM     32  H   UNL d   1     -11.156   3.260   9.554 +0.07 -0.02    +0.166    13.114
ATOM     33  C   UNL d   1     -12.288   8.479   9.122 -0.10 -0.01    +0.141    13.114
ATOM     34  C   UNL d   1     -11.836   9.912   9.218 -0.06 -0.03    +0.306    13.114
ATOM     35  O   UNL d   1     -11.169  10.513   8.393 -0.11 +0.04    -0.251    13.114
ATOM     36  O   UNL d   1     -12.252  10.512  10.347 +0.00 +0.03    -0.481    13.114
ATOM     37  H   UNL d   1     -11.803  10.020  11.067 +0.06 -0.01    +0.295    13.114
ATOM     38  C   UNL d   1     -13.766   1.235   6.418 -0.11 -0.00    +0.017    13.114
ATOM     39  C   UNL d   1     -13.197   0.397   5.538 -0.14 -0.04    +0.092    13.114
ATOM     40  C   UNL d   1     -14.028  -0.549   4.788 -0.05 -0.15    +0.330    13.114
ATOM     41  O   UNL d   1     -14.262  -0.550   3.594 -0.13 +0.04    -0.246    13.114
ATOM     42  O   UNL d   1     -14.528  -1.480   5.615 -0.04 +0.19    -0.477    13.114
ATOM     43  H   UNL d   1     -13.822  -1.605   6.282 +0.06 -0.15    +0.295    13.114
ATOM     44  C   UNL d   1     -10.491   5.308  15.997 -0.10 +0.01    +0.141    13.114
ATOM     45  C   UNL d   1      -9.508   4.391  16.675 -0.08 +0.04    +0.306    13.114
ATOM     46  O   UNL d   1      -8.485   3.939  16.192 -0.16 -0.06    -0.251    13.114
ATOM     47  O   UNL d   1      -9.883   4.068  17.926 +0.01 -0.04    -0.481    13.114
ATOM     48  H   UNL d   1     -10.593   3.402  17.808 +0.04 +0.03    +0.295    13.114
ATOM     49  C   UNL d   1     -10.783  -2.070   9.804 -0.29 -0.04    +0.048    13.114
ATOM     50  C   UNL d   1     -12.090  -2.844   9.637 -0.17 -0.08    +0.125    13.114
ATOM     51  C   UNL d   1     -12.747  -2.511   8.328 -0.08 -0.14    +0.305    13.114
ATOM     52  O   UNL d   1     -12.526  -3.008   7.237 -0.14 +0.16    -0.251    13.114
ATOM     53  O   UNL d   1     -13.667  -1.534   8.459 -0.00 +0.15    -0.481    13.114
ATOM     54  H   UNL d   1     -14.348  -1.757   7.791 +0.05 -0.09    +0.295    13.114
TER
ENDMDL
MODEL       35
USER    Run = 35
USER    Cluster Rank = 56
USER    Number of conformations in this cluster = 1
USER  
USER    RMSD from reference structure       = 13.604 A
USER  
USER    Estimated Free Energy of Binding    =   -2.72 kcal/mol  [=(1)+(2)+(3)-(4)]
USER    Estimated Inhibition Constant, Ki   =   10.16 mM (millimolar)  [Temperature = 298.15 K]
USER    
USER    (1) Final Intermolecular Energy     =   -6.60 kcal/mol
USER        vdW + Hbond + desolv Energy     =   -6.50 kcal/mol
USER        Electrostatic Energy            =   -0.10 kcal/mol
USER    (2) Final Total Internal Energy     =   -4.61 kcal/mol
USER    (3) Torsional Free Energy           =   +3.88 kcal/mol
USER    (4) Unbound System's Energy  [=(2)] =   -4.61 kcal/mol
USER    
USER    
USER  
USER    DPF = D:/Protein_go_brrr/autodock/final/mut_N102T/heme/dock.dpf
USER    NEWDPF move	heme_opt.pdbqt
USER    NEWDPF about	0.153000 0.018000 -0.028000
USER    NEWDPF tran0	-8.328577 9.064657 -10.690482
USER    NEWDPF axisangle0	0.883867 0.385651 0.264674 -91.861686
USER    NEWDPF quaternion0	0.635059 0.277091 0.190169 -0.695526
USER    NEWDPF dihe0	112.07 -139.95 108.95 -21.90 -130.43 -54.61 -49.31 172.05 32.49 -127.59 -68.05 -3.46 -11.95 
USER  
USER                              x       y       z    vdW   Elec        q     RMS 
ATOM      1  O   UNL d   1     -12.118   5.306  -8.187 -0.02 -0.01    -0.289    13.604
ATOM      2  O   UNL d   1     -11.799   8.068 -15.163 -0.06 -0.01    -0.289    13.604
ATOM      3  N   UNL d   1      -9.759   7.621  -9.174 -0.62 -0.03    -0.247    13.604
ATOM      4  N   UNL d   1     -10.226   7.868 -12.098 -0.10 +0.03    -0.247    13.604
ATOM      5  N   UNL d   1      -7.705   9.236 -12.291 -0.07 +0.08    -0.354    13.604
ATOM      6  N   UNL d   1      -7.219   8.958  -9.259 -0.11 +0.03    -0.354    13.604
ATOM      7  C   UNL d   1     -10.152   6.312  -7.139 -0.09 +0.00    +0.084    13.604
ATOM      8  C   UNL d   1     -12.471   7.360 -12.918 -0.03 -0.00    +0.084    13.604
ATOM      9  C   UNL d   1     -11.475   7.399 -11.755 -0.08 -0.00    +0.058    13.604
ATOM     10  C   UNL d   1      -9.303   7.335  -7.898 -0.06 +0.00    +0.058    13.604
ATOM     11  C   UNL d   1     -11.181   6.082  -8.205 -0.05 +0.01    +0.193    13.604
ATOM     12  C   UNL d   1     -10.847   6.952  -9.378 -0.01 +0.01    +0.109    13.604
ATOM     13  C   UNL d   1     -11.546   7.859 -13.992 -0.07 -0.00    +0.193    13.604
ATOM     14  C   UNL d   1      -9.394   5.005  -6.893 -0.20 +0.00    +0.026    13.604
ATOM     15  C   UNL d   1     -11.780   6.964 -10.523 -0.07 +0.00    +0.055    13.604
ATOM     16  C   UNL d   1     -13.602   8.376 -12.731 -0.01 -0.00    +0.026    13.604
ATOM     17  C   UNL d   1     -10.215   8.123 -13.367 -0.14 -0.01    +0.109    13.604
ATOM     18  C   UNL d   1      -8.260   7.955  -7.313 -0.20 -0.00    +0.050    13.604
ATOM     19  C   UNL d   1      -7.471   8.973  -7.906 -0.20 -0.00    +0.045    13.604
ATOM     20  C   UNL d   1      -7.977   9.054 -13.622 -0.24 -0.01    +0.045    13.604
ATOM     21  C   UNL d   1      -9.090   8.583 -14.193 -0.24 -0.00    +0.057    13.604
ATOM     22  C   UNL d   1      -5.867   9.903 -13.409 -0.31 +0.00    -0.019    13.604
ATOM     23  C   UNL d   1      -6.454   9.744 -12.063 -0.24 -0.01    +0.045    13.604
ATOM     24  C   UNL d   1      -6.773   9.494 -14.327 -0.33 +0.00    -0.022    13.604
ATOM     25  C   UNL d   1      -6.364   9.979  -9.604 -0.12 -0.00    +0.049    13.604
ATOM     26  C   UNL d   1      -6.792  10.053  -7.363 -0.20 +0.00    -0.018    13.604
ATOM     27  C   UNL d   1      -6.111  10.696  -8.443 -0.17 -0.00    +0.003    13.604
ATOM     28  C   UNL d   1      -5.834  10.074 -10.919 -0.15 -0.00    +0.052    13.604
ATOM     29  C   UNL d   1      -6.652   9.473 -15.813 -0.26 -0.00    +0.046    13.604
ATOM     30  C   UNL d   1      -6.777  10.466  -5.930 -0.12 +0.00    +0.046    13.604
ATOM     31  H   UNL d   1      -8.413   9.076 -11.582 -0.01 -0.03    +0.166    13.604
ATOM     32  H   UNL d   1      -7.589   8.257  -9.890 -0.04 -0.03    +0.166    13.604
ATOM     33  C   UNL d   1     -10.813   6.828  -5.856 -0.04 +0.00    +0.141    13.604
ATOM     34  C   UNL d   1     -12.066   7.616  -6.127 +0.00 +0.00    +0.306    13.604
ATOM     35  O   UNL d   1     -12.121   8.761  -6.543 -0.00 -0.00    -0.251    13.604
ATOM     36  O   UNL d   1     -13.185   6.919  -5.862 +0.00 -0.01    -0.481    13.604
ATOM     37  H   UNL d   1     -13.224   6.238  -6.566 +0.01 +0.00    +0.295    13.604
ATOM     38  C   UNL d   1      -5.275  11.852  -8.319 -0.25 -0.00    +0.017    13.604
ATOM     39  C   UNL d   1      -5.141  12.814  -9.245 -0.18 -0.00    +0.092    13.604
ATOM     40  C   UNL d   1      -4.263  13.958  -8.988 -0.13 -0.01    +0.330    13.604
ATOM     41  O   UNL d   1      -4.312  14.738  -8.056 -0.14 -0.01    -0.246    13.604
ATOM     42  O   UNL d   1      -3.333  14.051  -9.951 -0.13 +0.05    -0.477    13.604
ATOM     43  H   UNL d   1      -3.823  13.839 -10.772 +0.11 -0.03    +0.295    13.604
ATOM     44  C   UNL d   1     -13.023   5.975 -13.269 -0.03 +0.00    +0.141    13.604
ATOM     45  C   UNL d   1     -13.945   5.986 -14.459 -0.01 +0.00    +0.306    13.604
ATOM     46  O   UNL d   1     -15.159   6.087 -14.437 -0.00 -0.00    -0.251    13.604
ATOM     47  O   UNL d   1     -13.285   5.841 -15.623 -0.01 -0.01    -0.481    13.604
ATOM     48  H   UNL d   1     -12.819   6.694 -15.751 +0.04 +0.01    +0.295    13.604
ATOM     49  C   UNL d   1      -4.482  10.421 -13.668 -0.29 -0.02    +0.048    13.604
ATOM     50  C   UNL d   1      -4.482  11.920 -13.964 -0.27 -0.02    +0.125    13.604
ATOM     51  C   UNL d   1      -3.798  12.683 -12.865 -0.15 -0.04    +0.305    13.604
ATOM     52  O   UNL d   1      -3.415  13.840 -12.891 -0.18 +0.00    -0.251    13.604
ATOM     53  O   UNL d   1      -3.614  11.927 -11.765 -0.13 +0.10    -0.481    13.604
ATOM     54  H   UNL d   1      -2.877  12.368 -11.293 -0.10 -0.14    +0.295    13.604
TER
ENDMDL
MODEL       24
USER    Run = 24
USER    Cluster Rank = 57
USER    Number of conformations in this cluster = 1
USER  
USER    RMSD from reference structure       = 19.998 A
USER  
USER    Estimated Free Energy of Binding    =   -2.60 kcal/mol  [=(1)+(2)+(3)-(4)]
USER    Estimated Inhibition Constant, Ki   =   12.42 mM (millimolar)  [Temperature = 298.15 K]
USER    
USER    (1) Final Intermolecular Energy     =   -6.48 kcal/mol
USER        vdW + Hbond + desolv Energy     =   -6.47 kcal/mol
USER        Electrostatic Energy            =   -0.01 kcal/mol
USER    (2) Final Total Internal Energy     =   -3.72 kcal/mol
USER    (3) Torsional Free Energy           =   +3.88 kcal/mol
USER    (4) Unbound System's Energy  [=(2)] =   -3.72 kcal/mol
USER    
USER    
USER  
USER    DPF = D:/Protein_go_brrr/autodock/final/mut_N102T/heme/dock.dpf
USER    NEWDPF move	heme_opt.pdbqt
USER    NEWDPF about	0.153000 0.018000 -0.028000
USER    NEWDPF tran0	-4.095567 14.731261 16.464887
USER    NEWDPF axisangle0	-0.742555 0.223755 -0.631305 -171.646430
USER    NEWDPF quaternion0	-0.740582 0.223161 -0.629629 -0.072834
USER    NEWDPF dihe0	157.59 113.45 103.57 123.37 -144.28 38.11 -45.14 55.10 47.45 -128.60 1.60 -75.31 30.55 
USER  
USER                              x       y       z    vdW   Elec        q     RMS 
ATOM      1  O   UNL d   1      -4.477  15.485  10.630 -0.02 +0.01    -0.289    19.998
ATOM      2  O   UNL d   1      -4.748  20.438  16.268 -0.01 +0.03    -0.289    19.998
ATOM      3  N   UNL d   1      -4.343  14.550  13.947 -0.12 +0.08    -0.247    19.998
ATOM      4  N   UNL d   1      -4.209  17.146  15.385 -0.09 +0.07    -0.247    19.998
ATOM      5  N   UNL d   1      -3.460  15.693  17.750 -0.06 +0.09    -0.354    19.998
ATOM      6  N   UNL d   1      -3.584  13.005  16.246 -0.13 +0.10    -0.354    19.998
ATOM      7  C   UNL d   1      -4.106  13.376  11.808 -0.42 -0.01    +0.084    19.998
ATOM      8  C   UNL d   1      -5.170  19.095  14.266 -0.06 -0.01    +0.084    19.998
ATOM      9  C   UNL d   1      -4.780  17.613  14.222 -0.15 -0.01    +0.058    19.998
ATOM     10  C   UNL d   1      -4.107  13.328  13.339 -0.34 -0.01    +0.058    19.998
ATOM     11  C   UNL d   1      -4.401  14.838  11.659 -0.21 -0.02    +0.193    19.998
ATOM     12  C   UNL d   1      -4.549  15.433  13.025 -0.22 -0.02    +0.109    19.998
ATOM     13  C   UNL d   1      -4.679  19.391  15.655 -0.04 -0.02    +0.193    19.998
ATOM     14  C   UNL d   1      -2.719  13.089  11.226 -0.75 -0.00    +0.026    19.998
ATOM     15  C   UNL d   1      -4.936  16.854  13.127 -0.21 -0.01    +0.055    19.998
ATOM     16  C   UNL d   1      -6.689  19.284  14.230 -0.03 -0.00    +0.026    19.998
ATOM     17  C   UNL d   1      -4.113  18.130  16.221 -0.12 -0.02    +0.109    19.998
ATOM     18  C   UNL d   1      -3.978  12.166  14.006 -0.38 -0.01    +0.050    19.998
ATOM     19  C   UNL d   1      -4.051  12.013  15.414 -0.30 -0.01    +0.045    19.998
ATOM     20  C   UNL d   1      -3.228  16.974  18.178 -0.14 -0.01    +0.045    19.998
ATOM     21  C   UNL d   1      -3.513  18.127  17.564 -0.13 -0.01    +0.057    19.998
ATOM     22  C   UNL d   1      -2.471  15.517  19.766 -0.07 +0.00    -0.019    19.998
ATOM     23  C   UNL d   1      -3.037  14.744  18.642 -0.03 -0.01    +0.045    19.998
ATOM     24  C   UNL d   1      -2.589  16.837  19.486 -0.10 +0.00    -0.022    19.998
ATOM     25  C   UNL d   1      -3.668  12.612  17.562 -0.16 -0.01    +0.049    19.998
ATOM     26  C   UNL d   1      -4.484  10.964  16.210 -0.22 +0.00    -0.018    19.998
ATOM     27  C   UNL d   1      -4.258  11.356  17.566 -0.12 -0.00    +0.003    19.998
ATOM     28  C   UNL d   1      -3.102  13.405  18.597 -0.14 -0.01    +0.052    19.998
ATOM     29  C   UNL d   1      -2.176  18.006  20.313 -0.05 -0.01    +0.046    19.998
ATOM     30  C   UNL d   1      -5.075   9.676  15.744 -0.29 -0.01    +0.046    19.998
ATOM     31  H   UNL d   1      -3.970  15.509  16.892 -0.23 -0.06    +0.166    19.998
ATOM     32  H   UNL d   1      -3.196  13.880  15.912 -0.43 -0.09    +0.166    19.998
ATOM     33  C   UNL d   1      -5.189  12.536  11.124 -0.14 -0.03    +0.141    19.998
ATOM     34  C   UNL d   1      -6.417  13.337  10.787 -0.14 -0.06    +0.306    19.998
ATOM     35  O   UNL d   1      -7.390  13.498  11.504 -0.11 +0.03    -0.251    19.998
ATOM     36  O   UNL d   1      -6.354  13.894   9.565 -0.11 +0.11    -0.481    19.998
ATOM     37  H   UNL d   1      -5.394  13.976   9.381 +0.05 -0.06    +0.295    19.998
ATOM     38  C   UNL d   1      -4.551  10.555  18.716 -0.06 -0.00    +0.017    19.998
ATOM     39  C   UNL d   1      -3.792  10.478  19.820 -0.03 -0.01    +0.092    19.998
ATOM     40  C   UNL d   1      -4.214   9.631  20.939 -0.00 -0.04    +0.330    19.998
ATOM     41  O   UNL d   1      -4.782   8.558  20.886 -0.00 +0.03    -0.246    19.998
ATOM     42  O   UNL d   1      -3.874  10.203  22.104 +0.00 +0.06    -0.477    19.998
ATOM     43  H   UNL d   1      -2.895  10.182  22.100 +0.01 -0.04    +0.295    19.998
ATOM     44  C   UNL d   1      -4.475  19.991  13.236 -0.08 -0.01    +0.141    19.998
ATOM     45  C   UNL d   1      -4.863  21.441  13.352 -0.01 -0.03    +0.306    19.998
ATOM     46  O   UNL d   1      -5.795  21.991  12.791 -0.01 +0.02    -0.251    19.998
ATOM     47  O   UNL d   1      -4.033  22.134  14.153 +0.00 +0.05    -0.481    19.998
ATOM     48  H   UNL d   1      -4.303  21.887  15.063 +0.02 -0.03    +0.295    19.998
ATOM     49  C   UNL d   1      -1.861  14.900  20.990 -0.06 -0.01    +0.048    19.998
ATOM     50  C   UNL d   1      -2.802  13.891  21.648 -0.02 -0.01    +0.125    19.998
ATOM     51  C   UNL d   1      -2.195  13.331  22.903 +0.00 -0.04    +0.305    19.998
ATOM     52  O   UNL d   1      -1.683  13.948  23.820 -0.00 +0.03    -0.251    19.998
ATOM     53  O   UNL d   1      -2.255  11.985  22.934 +0.00 +0.06    -0.481    19.998
ATOM     54  H   UNL d   1      -3.210  11.786  22.840 +0.01 -0.03    +0.295    19.998
TER
ENDMDL
MODEL       87
USER    Run = 87
USER    Cluster Rank = 58
USER    Number of conformations in this cluster = 1
USER  
USER    RMSD from reference structure       = 17.934 A
USER  
USER    Estimated Free Energy of Binding    =   -2.52 kcal/mol  [=(1)+(2)+(3)-(4)]
USER    Estimated Inhibition Constant, Ki   =   14.30 mM (millimolar)  [Temperature = 298.15 K]
USER    
USER    (1) Final Intermolecular Energy     =   -6.39 kcal/mol
USER        vdW + Hbond + desolv Energy     =   -6.10 kcal/mol
USER        Electrostatic Energy            =   -0.29 kcal/mol
USER    (2) Final Total Internal Energy     =   -4.52 kcal/mol
USER    (3) Torsional Free Energy           =   +3.88 kcal/mol
USER    (4) Unbound System's Energy  [=(2)] =   -4.52 kcal/mol
USER    
USER    
USER  
USER    DPF = D:/Protein_go_brrr/autodock/final/mut_N102T/heme/dock.dpf
USER    NEWDPF move	heme_opt.pdbqt
USER    NEWDPF about	0.153000 0.018000 -0.028000
USER    NEWDPF tran0	14.896975 5.646189 13.632367
USER    NEWDPF axisangle0	0.801795 0.394644 -0.448755 112.199405
USER    NEWDPF quaternion0	0.665497 0.327558 -0.372471 0.557749
USER    NEWDPF dihe0	82.05 147.26 -168.05 33.39 -169.59 126.85 139.03 42.00 99.42 -9.25 -87.52 -118.26 3.85 
USER  
USER                              x       y       z    vdW   Elec        q     RMS 
ATOM      1  O   UNL d   1      11.523   0.916  12.633 -0.08 -0.09    -0.289    17.934
ATOM      2  O   UNL d   1      14.808   3.388  18.917 -0.01 -0.11    -0.289    17.934
ATOM      3  N   UNL d   1      13.549   3.706  12.709 -0.13 -0.09    -0.247    17.934
ATOM      4  N   UNL d   1      14.115   4.061  15.604 -0.02 -0.19    -0.247    17.934
ATOM      5  N   UNL d   1      15.115   6.686  14.993 -0.05 -0.19    -0.354    17.934
ATOM      6  N   UNL d   1      14.506   6.318  11.993 -0.14 -0.10    -0.354    17.934
ATOM      7  C   UNL d   1      12.138   2.639  11.012 -0.31 +0.02    +0.084    17.934
ATOM      8  C   UNL d   1      14.012   2.069  17.015 -0.05 +0.03    +0.084    17.934
ATOM      9  C   UNL d   1      13.804   2.720  15.644 -0.10 +0.03    +0.058    17.934
ATOM     10  C   UNL d   1      13.090   3.773  11.404 -0.27 +0.02    +0.058    17.934
ATOM     11  C   UNL d   1      12.154   1.909  12.321 -0.13 +0.06    +0.193    17.934
ATOM     12  C   UNL d   1      13.065   2.640  13.258 -0.14 +0.04    +0.109    17.934
ATOM     13  C   UNL d   1      14.463   3.296  17.755 -0.05 +0.10    +0.193    17.934
ATOM     14  C   UNL d   1      10.719   3.147  10.745 -0.53 +0.01    +0.026    17.934
ATOM     15  C   UNL d   1      13.312   2.051  14.590 -0.12 +0.02    +0.055    17.934
ATOM     16  C   UNL d   1      15.161   1.056  16.995 -0.01 +0.01    +0.026    17.934
ATOM     17  C   UNL d   1      14.476   4.436  16.789 -0.02 +0.09    +0.109    17.934
ATOM     18  C   UNL d   1      13.499   4.690  10.506 -0.18 +0.01    +0.050    17.934
ATOM     19  C   UNL d   1      14.440   5.721  10.755 -0.28 +0.01    +0.045    17.934
ATOM     20  C   UNL d   1      15.091   6.756  16.361 -0.02 +0.03    +0.045    17.934
ATOM     21  C   UNL d   1      14.838   5.786  17.246 -0.05 +0.05    +0.057    17.934
ATOM     22  C   UNL d   1      15.603   8.819  15.526 -0.08 -0.01    -0.019    17.934
ATOM     23  C   UNL d   1      15.415   7.883  14.399 -0.13 +0.02    +0.045    17.934
ATOM     24  C   UNL d   1      15.412   8.146  16.684 -0.07 -0.01    -0.022    17.934
ATOM     25  C   UNL d   1      15.418   7.347  11.986 -0.20 +0.01    +0.049    17.934
ATOM     26  C   UNL d   1      15.358   6.355   9.932 -0.22 -0.00    -0.018    17.934
ATOM     27  C   UNL d   1      15.987   7.367  10.720 -0.18 +0.00    +0.003    17.934
ATOM     28  C   UNL d   1      15.550   8.213  13.106 -0.18 +0.01    +0.052    17.934
ATOM     29  C   UNL d   1      15.503   8.652  18.084 -0.03 +0.01    +0.046    17.934
ATOM     30  C   UNL d   1      15.639   6.039   8.502 -0.03 +0.01    +0.046    17.934
ATOM     31  H   UNL d   1      14.998   5.802  14.509 +0.03 +0.09    +0.166    17.934
ATOM     32  H   UNL d   1      13.924   6.048  12.777 +0.05 +0.08    +0.166    17.934
ATOM     33  C   UNL d   1      12.631   1.728   9.882 -0.25 +0.04    +0.141    17.934
ATOM     34  C   UNL d   1      12.166   0.306  10.041 -0.14 +0.13    +0.306    17.934
ATOM     35  O   UNL d   1      12.876  -0.667  10.231 -0.07 -0.13    -0.251    17.934
ATOM     36  O   UNL d   1      10.830   0.185   9.954 -0.67 -0.30    -0.481    17.934
ATOM     37  H   UNL d   1      10.527   0.118  10.885 +0.13 +0.14    +0.295    17.934
ATOM     38  C   UNL d   1      16.995   8.271  10.252 -0.11 +0.00    +0.017    17.934
ATOM     39  C   UNL d   1      16.777   9.533   9.851 -0.11 +0.01    +0.092    17.934
ATOM     40  C   UNL d   1      17.901  10.362   9.409 -0.03 +0.03    +0.330    17.934
ATOM     41  O   UNL d   1      18.022  10.947   8.349 -0.02 -0.02    -0.246    17.934
ATOM     42  O   UNL d   1      18.839  10.417  10.367 -0.00 -0.03    -0.477    17.934
ATOM     43  H   UNL d   1      18.326  10.373  11.200 +0.02 +0.02    +0.295    17.934
ATOM     44  C   UNL d   1      12.756   1.470  17.659 -0.07 +0.06    +0.141    17.934
ATOM     45  C   UNL d   1      11.659   2.478  17.870 -0.15 +0.24    +0.306    17.934
ATOM     46  O   UNL d   1      10.724   2.702  17.121 -0.70 -0.23    -0.251    17.934
ATOM     47  O   UNL d   1      11.813   3.176  19.010 -0.11 -0.39    -0.481    17.934
ATOM     48  H   UNL d   1      12.718   2.955  19.315 +0.04 +0.17    +0.295    17.934
ATOM     49  C   UNL d   1      15.935  10.274  15.366 -0.06 +0.01    +0.048    17.934
ATOM     50  C   UNL d   1      17.421  10.490  15.079 -0.02 +0.01    +0.125    17.934
ATOM     51  C   UNL d   1      17.679  10.553  13.601 -0.02 +0.03    +0.305    17.934
ATOM     52  O   UNL d   1      16.963  11.036  12.741 -0.05 -0.03    -0.251    17.934
ATOM     53  O   UNL d   1      18.852   9.977  13.268 +0.00 -0.04    -0.481    17.934
ATOM     54  H   UNL d   1      19.167  10.502  12.503 +0.01 +0.02    +0.295    17.934
TER
ENDMDL


AVSFLD: # AVS field file
AVSFLD: #
AVSFLD: # Created by AutoDock
AVSFLD: #
AVSFLD: ndim=2           # number of dimensions in the field
AVSFLD: nspace=1         # number of physical coordinates
AVSFLD: veclen=7         # vector size
AVSFLD: dim1=54          # atoms
AVSFLD: dim2=58          # conformations
AVSFLD: data=Real       # data type (byte,integer,Real,double)
AVSFLD: field=uniform    # field coordinate layout
AVSFLD: label= x y z vdW Elec q RMS
AVSFLD: variable 1 file = D:/Protein_go_brrr/autodock/final/mut_N102T/heme/dock.dlg.pdb filetype = ascii offset = 5 stride = 12
AVSFLD: variable 2 file = D:/Protein_go_brrr/autodock/final/mut_N102T/heme/dock.dlg.pdb filetype = ascii offset = 6 stride = 12
AVSFLD: variable 3 file = D:/Protein_go_brrr/autodock/final/mut_N102T/heme/dock.dlg.pdb filetype = ascii offset = 7 stride = 12
AVSFLD: variable 4 file = D:/Protein_go_brrr/autodock/final/mut_N102T/heme/dock.dlg.pdb filetype = ascii offset = 8 stride = 12
AVSFLD: variable 5 file = D:/Protein_go_brrr/autodock/final/mut_N102T/heme/dock.dlg.pdb filetype = ascii offset = 9 stride = 12
AVSFLD: variable 6 file = D:/Protein_go_brrr/autodock/final/mut_N102T/heme/dock.dlg.pdb filetype = ascii offset = 10 stride = 12
AVSFLD: variable 7 file = D:/Protein_go_brrr/autodock/final/mut_N102T/heme/dock.dlg.pdb filetype = ascii offset = 11 stride = 12
AVSFLD: # end of file

>>> Closing the docking parameter file (DPF)...
This docking finished at:			7:46 55" a.m., 10/05/2025


________________________________________________________________________________

D:/autodockScripts/autodock4.exe: Successful Completion on "ACER"

Real= 13h 29m 50.03s,  CPU= 6.00s,  System= 1m 33.88s
________________________________________________________________________________

