          AutoDock 4.2 Release 4.2.6   
         (C) 1989-2012 The Scripps Research Institute
        AutoDock comes with ABSOLUTELY NO WARRANTY.
        AutoDock is free software, and you are welcome
        to redistribute it under certain conditions;
        for details type 'autodock4 -C'

                     main.cc  $Revision: 1.213 $

                   Compiled on Jul 18 2014 at 15:34:58


This file was created at:			12:12 23" p.m., 01/17/2026
                   on host:		"ACER"
Current Working Directory = "D:\Protein_go_brrr\autodock\final\2DN3\heme_O2"

      ________________________________________________________________

                   SETTING UP DEFAULT PARAMETER LIBRARY
      ________________________________________________________________


Random number generator was seeded with values 39364, 1768648343.
Docking parameter file (DPF) used for this docking:		D:/Protein_go_brrr/autodock/final/2DN3/heme_O2/dock.dpf
DPF> autodock_parameter_version 4.2       # used by autodock to validate parameter set

	Autodock parameter version 4.2.
DPF> outlev 1                             # diagnostic output level

Output Level = 1  ADT-COMPATIBLE OUTPUT DURING DOCKING.
DPF> intelec                              # calculate internal electrostatics

Electrostatic energies will be calculated for all non-bonds between moving atoms.
DPF> seed pid time                        # seeds for random generator

Random number generator was seeded with values 39364, 1768648343.
DPF> ligand_types A C OA N Fe HD          # atoms types in ligand

DPF> fld opt_2DN3.maps.fld                # grid_data_file

Opening Grid Map Dimensions file:		opt_2DN3.maps.fld
Grid Point Spacing =				0.553 Angstroms

Even Number of User-specified Grid Points =	126 x-points
						126 y-points
						126 z-points

Coordinates of Central Grid Point of Maps =	(23.741, 34.005, 11.372)
Macromolecule file used to create Grid Maps =	opt_2DN3.pdbqt
Grid Parameter file used to create Grid Maps =	D:/Protein_go_brrr/autodock/final/2DN3/heme_O2/grid.gpf
Minimum coordinates in grid = (-11.098, -0.834, -23.467)
Maximum coordinates in grid = (58.580, 68.844, 46.211)

DPF> map opt_2DN3.A.map                   # atom-specific affinity map

DPF> map opt_2DN3.C.map                   # atom-specific affinity map

DPF> map opt_2DN3.OA.map                  # atom-specific affinity map

DPF> map opt_2DN3.N.map                   # atom-specific affinity map

DPF> map opt_2DN3.Fe.map                  # atom-specific affinity map

DPF> map opt_2DN3.HD.map                  # atom-specific affinity map

DPF> elecmap opt_2DN3.e.map               # electrostatics map

DPF> desolvmap opt_2DN3.d.map             # desolvation map

DPF> move heme_O2_opt.pdbqt               # small molecule

1,4-interactions will be _ignored_ in the non-bonded internal energy calculation.

Ligand PDBQT file = "heme_O2_opt.pdbqt"

INPUT LIGAND PDBQT FILE:
________________________

INPUT-LIGAND-PDBQT: REMARK  10 active torsions:
INPUT-LIGAND-PDBQT: REMARK  status: ('A' for Active; 'I' for Inactive)
INPUT-LIGAND-PDBQT: REMARK    1  A    between atoms: C_6  and  C_10 
INPUT-LIGAND-PDBQT: REMARK    2  A    between atoms: C_10  and  C_11 
INPUT-LIGAND-PDBQT: REMARK    3  A    between atoms: C_11  and  C_12 
INPUT-LIGAND-PDBQT: REMARK    4  A    between atoms: C_12  and  O_14 
INPUT-LIGAND-PDBQT: REMARK    5  A    between atoms: C_17  and  C_20 
INPUT-LIGAND-PDBQT: REMARK    6  A    between atoms: C_24  and  C_27 
INPUT-LIGAND-PDBQT: REMARK    7  A    between atoms: C_31  and  C_34 
INPUT-LIGAND-PDBQT: REMARK    8  A    between atoms: C_34  and  C_35 
INPUT-LIGAND-PDBQT: REMARK    9  A    between atoms: C_35  and  C_36 
INPUT-LIGAND-PDBQT: REMARK   10  A    between atoms: C_36  and  O_38 
INPUT-LIGAND-PDBQT: ROOT
INPUT-LIGAND-PDBQT: ATOM      1  C   UNL d   1       6.417  35.070  -1.470  0.00  0.00     0.064 A 
INPUT-LIGAND-PDBQT: ATOM      2  C   UNL d   1       7.592  32.343   2.237  0.00  0.00     0.064 A 
INPUT-LIGAND-PDBQT: ATOM      3  C   UNL d   1      12.269  32.904   1.285  0.00  0.00     0.064 C 
INPUT-LIGAND-PDBQT: ATOM      4  C   UNL d   1      11.084  36.099  -2.244  0.00  0.00     0.064 A 
INPUT-LIGAND-PDBQT: ATOM      5  C   UNL d   1       6.355  34.284  -0.383  0.00  0.00     0.066 A 
INPUT-LIGAND-PDBQT: ATOM      6  C   UNL d   1       5.162  33.858   0.208  0.00  0.00    -0.021 A 
INPUT-LIGAND-PDBQT: ATOM      7  C   UNL d   1       5.501  33.104   1.307  0.00  0.00    -0.025 A 
INPUT-LIGAND-PDBQT: ATOM      8  C   UNL d   1       6.892  33.050   1.329  0.00  0.00     0.066 A 
INPUT-LIGAND-PDBQT: ATOM      9  C   UNL d   1       4.513  32.505   2.284  0.00  0.00     0.051 C 
INPUT-LIGAND-PDBQT: ATOM     10  C   UNL d   1       9.050  32.230   2.297  0.00  0.00     0.066 A 
INPUT-LIGAND-PDBQT: ATOM     11  C   UNL d   1       9.719  31.353   3.158  0.00  0.00    -0.021 A 
INPUT-LIGAND-PDBQT: ATOM     12  C   UNL d   1      11.068  31.487   2.886  0.00  0.00     0.000 A 
INPUT-LIGAND-PDBQT: ATOM     13  C   UNL d   1      11.148  32.469   1.860  0.00  0.00     0.070 A 
INPUT-LIGAND-PDBQT: ATOM     14  C   UNL d   1       9.096  30.407   4.178  0.00  0.00     0.052 C 
INPUT-LIGAND-PDBQT: ATOM     15  C   UNL d   1      12.395  33.921   0.269  0.00  0.00     0.066 A 
INPUT-LIGAND-PDBQT: ATOM     16  C   UNL d   1      13.607  34.449  -0.175  0.00  0.00    -0.021 A 
INPUT-LIGAND-PDBQT: ATOM     17  C   UNL d   1      13.294  35.363  -1.181  0.00  0.00     0.000 A 
INPUT-LIGAND-PDBQT: ATOM     18  C   UNL d   1      11.896  35.322  -1.278  0.00  0.00     0.070 A 
INPUT-LIGAND-PDBQT: ATOM     19  C   UNL d   1      14.937  34.079   0.432  0.00  0.00     0.052 C 
INPUT-LIGAND-PDBQT: ATOM     20  C   UNL d   1       9.740  36.116  -2.335  0.00  0.00     0.066 A 
INPUT-LIGAND-PDBQT: ATOM     21  C   UNL d   1       9.031  36.855  -3.278  0.00  0.00    -0.025 A 
INPUT-LIGAND-PDBQT: ATOM     22  C   UNL d   1       7.701  36.553  -3.090  0.00  0.00    -0.021 A 
INPUT-LIGAND-PDBQT: ATOM     23  C   UNL d   1       7.646  35.651  -2.023  0.00  0.00     0.066 A 
INPUT-LIGAND-PDBQT: ATOM     24  C   UNL d   1       9.594  37.804  -4.304  0.00  0.00     0.051 C 
INPUT-LIGAND-PDBQT: ATOM     25  N   UNL d   1       7.418  33.831   0.326  0.00  0.00    -0.248 N 
INPUT-LIGAND-PDBQT: ATOM     26  N   UNL d   1       9.916  32.919   1.511  0.00  0.00    -0.248 N 
INPUT-LIGAND-PDBQT: ATOM     27  N   UNL d   1      11.363  34.498  -0.340  0.00  0.00    -0.248 N 
INPUT-LIGAND-PDBQT: ATOM     28  N   UNL d   1       8.884  35.423  -1.538  0.00  0.00    -0.248 N 
INPUT-LIGAND-PDBQT: ATOM     29 FE   UNL d   1       9.399  34.181  -0.025  0.00  0.00     0.000 Fe
INPUT-LIGAND-PDBQT: ATOM     30  O   UNL d   1       8.866  34.841   1.280  0.00  0.00     0.000 OA
INPUT-LIGAND-PDBQT: ATOM     31  O   UNL d   1       9.881  35.626   0.366  0.00  0.00     0.000 OA
INPUT-LIGAND-PDBQT: ENDROOT
INPUT-LIGAND-PDBQT: BRANCH   6  32
INPUT-LIGAND-PDBQT: ATOM     32  C   UNL d   1       3.756  34.255  -0.161  0.00  0.00     0.052 C 
INPUT-LIGAND-PDBQT: BRANCH  32  33
INPUT-LIGAND-PDBQT: ATOM     33  C   UNL d   1       3.190  33.429  -1.312  0.00  0.00     0.115 C 
INPUT-LIGAND-PDBQT: BRANCH  33  34
INPUT-LIGAND-PDBQT: ATOM     34  C   UNL d   1       1.764  33.798  -1.638  0.00  0.00     0.139 C 
INPUT-LIGAND-PDBQT: ATOM     35  O   UNL d   1       1.015  32.956  -2.107  0.00  0.00    -0.650 OA
INPUT-LIGAND-PDBQT: BRANCH  34  36
INPUT-LIGAND-PDBQT: ATOM     36  O   UNL d   1       1.301  35.051  -1.449  0.00  0.00    -0.776 OA
INPUT-LIGAND-PDBQT: ATOM     37  H   UNL d   1       1.861  35.756  -1.104  0.00  0.00     0.167 HD
INPUT-LIGAND-PDBQT: ENDBRANCH  34  36
INPUT-LIGAND-PDBQT: ENDBRANCH  33  34
INPUT-LIGAND-PDBQT: ENDBRANCH  32  33
INPUT-LIGAND-PDBQT: ENDBRANCH   6  32
INPUT-LIGAND-PDBQT: BRANCH  22  38
INPUT-LIGAND-PDBQT: ATOM     38  C   UNL d   1       6.548  37.151  -3.854  0.00  0.00     0.052 C 
INPUT-LIGAND-PDBQT: BRANCH  38  39
INPUT-LIGAND-PDBQT: ATOM     39  C   UNL d   1       6.010  36.208  -4.928  0.00  0.00     0.115 C 
INPUT-LIGAND-PDBQT: BRANCH  39  40
INPUT-LIGAND-PDBQT: ATOM     40  C   UNL d   1       4.838  36.794  -5.675  0.00  0.00     0.139 C 
INPUT-LIGAND-PDBQT: ATOM     41  O   UNL d   1       4.700  36.561  -6.865  0.00  0.00    -0.650 OA
INPUT-LIGAND-PDBQT: BRANCH  40  42
INPUT-LIGAND-PDBQT: ATOM     42  O   UNL d   1       3.907  37.532  -5.040  0.00  0.00    -0.776 OA
INPUT-LIGAND-PDBQT: ATOM     43  H   UNL d   1       3.982  37.740  -4.101  0.00  0.00     0.167 HD
INPUT-LIGAND-PDBQT: ENDBRANCH  40  42
INPUT-LIGAND-PDBQT: ENDBRANCH  39  40
INPUT-LIGAND-PDBQT: ENDBRANCH  38  39
INPUT-LIGAND-PDBQT: ENDBRANCH  22  38
INPUT-LIGAND-PDBQT: BRANCH  12  44
INPUT-LIGAND-PDBQT: ATOM     44  C   UNL d   1      12.120  30.683   3.621  0.00  0.00     0.004 C 
INPUT-LIGAND-PDBQT: ATOM     45  C   UNL d   1      13.434  30.659   3.401  0.00  0.00     0.012 C 
INPUT-LIGAND-PDBQT: ENDBRANCH  12  44
INPUT-LIGAND-PDBQT: BRANCH  17  46
INPUT-LIGAND-PDBQT: ATOM     46  C   UNL d   1      14.171  36.282  -1.989  0.00  0.00     0.004 C 
INPUT-LIGAND-PDBQT: ATOM     47  C   UNL d   1      15.480  36.522  -1.839  0.00  0.00     0.012 C 
INPUT-LIGAND-PDBQT: ENDBRANCH  17  46
INPUT-LIGAND-PDBQT: TORSDOF 10
________________________________________________________________________________

Total charge on ligand                               =	-2.002 e
REMARK  10 active torsions:
REMARK  status: ('A' for Active; 'I' for Inactive)
REMARK    1  A    between atoms: C_6  and  C_10 
REMARK    2  A    between atoms: C_10  and  C_11 
REMARK    3  A    between atoms: C_11  and  C_12 
REMARK    4  A    between atoms: C_12  and  O_14 
REMARK    5  A    between atoms: C_17  and  C_20 
REMARK    6  A    between atoms: C_24  and  C_27 
REMARK    7  A    between atoms: C_31  and  C_34 
REMARK    8  A    between atoms: C_34  and  C_35 
REMARK    9  A    between atoms: C_35  and  C_36 
REMARK   10  A    between atoms: C_36  and  O_38 


Number of Rotatable Bonds in Small Molecule =	10 torsions
Number of atoms in ligand:  47

Number of non-hydrogen atoms in ligand:  45

Number of vibrational degrees of freedom of ligand:  135


Number of torsional degrees of freedom = 10
Estimated loss of torsional free energy upon binding = +2.9830 kcal/mol


DPF> about 8.287 34.468 -0.670            # small molecule center

Small molecule center of rotation =	(+8.287, +34.468, -0.670)

DPF> tran0 random                         # initial coordinates/A or random

Initial translation =			(0.190, 50.493, 37.143) Angstroms
DPF> quaternion0 random                   # initial orientation

Each run will begin with a new, random initial orientation.
Initial quaternion,  (x,y,z,w) =	( 0.113, 0.914, 0.230, 0.315 ),
DPF> dihe0 random                         # initial dihedrals (relative) or random

DPF> torsdof 10                            # torsional degrees of freedom

Number of torsional degrees of freedom = 10
Free energy coefficient for torsional degrees of freedom = 0.2983, the factory default value.

Estimated loss of torsional free energy upon binding = +2.9830 kcal/mol

DPF> rmstol 2.0                           # cluster_tolerance/A

Maximum RMS tolerance for conformational cluster analysis = 2.00 Angstroms
DPF> extnrg 1000.0                        # external grid energy

External grid energy (beyond grid map walls) = 1000.00

DPF> e0max 0.0 10000                      # max initial energy; max number of retries

Using user-specified maximum number of retries for simanneal initialization, 10000 retries.
If the simanneal initial energy is greater than e0max, 0.000,
then a new, random initial state will be created.

DPF> ga_pop_size 150                      # number of individuals in population

A population of 150 individuals will be used
DPF> ga_num_evals 25000000                # maximum number of energy evaluations

There will be at most 25000000 function evaluations used.
DPF> ga_num_generations 27000             # maximum number of generations

The GA will run for at most 27000 generations.
DPF> ga_elitism 1                         # number of top individuals to survive to next generation

The 1 best will be preserved each GA generation.
DPF> ga_mutation_rate 0.02                # rate of gene mutation

The mutation rate is 0.020000.
DPF> ga_crossover_rate 0.8                # rate of crossover

The crossover rate is 0.800000.
DPF> ga_window_size 10                    # 

The GA's selection window is 10 generations.
DPF> ga_cauchy_alpha 0.0                  # Alpha parameter of Cauchy distribution

The alpha parameter (for the Cauchy distribution) is being set to 0.000000.
DPF> ga_cauchy_beta 1.0                   # Beta parameter Cauchy distribution

The beta parameter (for the Cauchy distribution) is being set to 1.000000.
DPF> set_ga                               # set the above parameters for GA or LGA

DPF> sw_max_its 300                       # iterations of Solis & Wets local search

Solis & Wets algorithms will perform at most 300 iterations.
DPF> sw_max_succ 4                        # consecutive successes before changing rho

Solis & Wets algorithms expand rho every 4 in a row successes.
DPF> sw_max_fail 4                        # consecutive failures before changing rho

Solis & Wets algorithms contract rho every 4 in a row failures.
DPF> sw_rho 1.0                           # size of local search space to sample

rho is set to 1.000000.
DPF> sw_lb_rho 0.01                       # lower bound on rho

rho will never get smaller than 0.010000.
DPF> ls_search_freq 0.06                  # probability of performing local search on individual

Local search will be performed with frequency 0.060000.
DPF> set_psw1                             # set the above pseudo-Solis & Wets parameters

Creating a new Local Search object using the pseudo-Solis-Wets algorithm (pSW1) with the current settings.

DPF> unbound_model bound                  # state of unbound ligand

DPF> ga_run 100                           # do this many hybrid GA-LS runs

centering ligand on specified point: 8.287 34.468 -0.670
Furthest true ligand atom from "about" center is 7.588 Angstroms (maxrad).
Number of requested GA dockings = 100 runs
Unbound model to be used is 'same as bound' [AutoDock 4.2 default].

	BEGINNING GENETIC ALGORITHM DOCKING 1 of 100
Run: 1 Seed: 90492351 470357602 [ Run 1 of 100 GA/GALS ]
Beginning LAMARCKIAN GENETIC ALGORITHM (LGA), with a maximum of 25000000 energy evaluations.

Final-Value: -10.835


	FINAL GENETIC ALGORITHM DOCKED STATE
	_______________________________________________


Detailed state:  trans 27.499 40.355 -1.372 quatxyzw 0.182500 -0.491922 0.632200 0.570114 center 8.287 34.468 -0.670 ntor 10 115.2457 -70.5444 -50.3817 118.9567 -149.8870 -53.3589 72.4993 131.3094 -157.3484 33.5395
State:	 27.499  40.355  -1.372   0.222 -0.599  0.770 110.484    115.25  -70.54  -50.38  118.96 -149.89  -53.36   72.50  131.31 -157.35   33.54

DOCKED: MODEL        1
DOCKED: USER    Run = 1
DOCKED: USER    DPF = D:/Protein_go_brrr/autodock/final/2DN3/heme_O2/dock.dpf
DOCKED: USER  
DOCKED: USER    Estimated Free Energy of Binding    =   -7.07 kcal/mol  [=(1)+(2)+(3)-(4)]
DOCKED: USER    Estimated Inhibition Constant, Ki   =    6.55 uM (micromolar)  [Temperature = 298.15 K]
DOCKED: USER    
DOCKED: USER    (1) Final Intermolecular Energy     =  -10.05 kcal/mol
DOCKED: USER        vdW + Hbond + desolv Energy     =   -7.79 kcal/mol
DOCKED: USER        Electrostatic Energy            =   -2.27 kcal/mol
DOCKED: USER    (2) Final Total Internal Energy     =   -0.78 kcal/mol
DOCKED: USER    (3) Torsional Free Energy           =   +2.98 kcal/mol
DOCKED: USER    (4) Unbound System's Energy  [=(2)] =   -0.78 kcal/mol
DOCKED: USER    
DOCKED: USER    
DOCKED: USER    NEWDPF move heme_O2_opt.pdbqt
DOCKED: USER    NEWDPF about 8.287000 34.468000 -0.670000
DOCKED: USER    NEWDPF tran0 27.499009 40.355376 -1.371501
DOCKED: USER    NEWDPF quaternion0 0.182500 -0.491922 0.632200 0.570114
DOCKED: USER    NEWDPF axisangle0 0.222137 -0.598762 0.769506 110.483703
DOCKED: USER    NEWDPF quat0 0.222137 -0.598762 0.769506 110.483703
DOCKED: USER    NEWDPF dihe0 115.25 -70.54 -50.38 118.96 -149.89 -53.36 72.50 131.31 -157.35 33.54 
DOCKED: USER  keepresnum = 1 
DOCKED: USER  
DOCKED: REMARK  10 active torsions:
DOCKED: REMARK  status: ('A' for Active; 'I' for Inactive)
DOCKED: REMARK    1  A    between atoms: C_6  and  C_10 
DOCKED: REMARK    2  A    between atoms: C_10  and  C_11 
DOCKED: REMARK    3  A    between atoms: C_11  and  C_12 
DOCKED: REMARK    4  A    between atoms: C_12  and  O_14 
DOCKED: REMARK    5  A    between atoms: C_17  and  C_20 
DOCKED: REMARK    6  A    between atoms: C_24  and  C_27 
DOCKED: REMARK    7  A    between atoms: C_31  and  C_34 
DOCKED: REMARK    8  A    between atoms: C_34  and  C_35 
DOCKED: REMARK    9  A    between atoms: C_35  and  C_36 
DOCKED: REMARK   10  A    between atoms: C_36  and  O_38 
DOCKED: USER                              x       y       z     vdW  Elec       q    Type
DOCKED: USER                           _______ _______ _______ _____ _____    ______ ____
DOCKED: ROOT
DOCKED: ATOM      1  C   UNL d   1      27.721  42.451  -1.613 -0.16 +0.02    +0.064 A 
DOCKED: ATOM      2  C   UNL d   1      28.847  39.493   1.928 -0.17 +0.00    +0.064 A 
DOCKED: ATOM      3  C   UNL d   1      27.072  35.751  -0.509 -0.20 +0.01    +0.064 C 
DOCKED: ATOM      4  C   UNL d   1      26.343  38.707  -4.356 -0.21 +0.01    +0.064 A 
DOCKED: ATOM      5  C   UNL d   1      28.174  41.952  -0.452 -0.15 +0.02    +0.066 A 
DOCKED: ATOM      6  C   UNL d   1      28.749  42.724   0.561 -0.16 -0.01    -0.021 A 
DOCKED: ATOM      7  C   UNL d   1      29.115  41.863   1.569 -0.18 -0.01    -0.025 A 
DOCKED: ATOM      8  C   UNL d   1      28.709  40.594   1.164 -0.16 +0.01    +0.066 A 
DOCKED: ATOM      9  C   UNL d   1      29.844  42.268   2.831 -0.26 +0.02    +0.051 C 
DOCKED: ATOM     10  C   UNL d   1      28.420  38.140   1.568 -0.17 +0.00    +0.066 A 
DOCKED: ATOM     11  C   UNL d   1      28.438  37.064   2.462 -0.20 -0.00    -0.021 A 
DOCKED: ATOM     12  C   UNL d   1      27.913  35.980   1.783 -0.21 +0.00    +0.000 A 
DOCKED: ATOM     13  C   UNL d   1      27.609  36.464   0.480 -0.14 +0.01    +0.070 A 
DOCKED: ATOM     14  C   UNL d   1      28.910  37.076   3.911 -0.25 -0.01    +0.052 C 
DOCKED: ATOM     15  C   UNL d   1      26.782  36.195  -1.852 -0.17 +0.01    +0.066 A 
DOCKED: ATOM     16  C   UNL d   1      26.373  35.358  -2.890 -0.17 -0.00    -0.021 A 
DOCKED: ATOM     17  C   UNL d   1      26.160  36.179  -3.997 -0.18 +0.00    +0.000 A 
DOCKED: ATOM     18  C   UNL d   1      26.457  37.472  -3.545 -0.22 +0.01    +0.070 A 
DOCKED: ATOM     19  C   UNL d   1      26.277  33.859  -2.749 -0.14 -0.00    +0.052 C 
DOCKED: ATOM     20  C   UNL d   1      26.661  39.957  -3.967 -0.14 +0.01    +0.066 A 
DOCKED: ATOM     21  C   UNL d   1      26.516  41.085  -4.771 -0.18 -0.00    -0.025 A 
DOCKED: ATOM     22  C   UNL d   1      26.878  42.164  -3.996 -0.17 -0.00    -0.021 A 
DOCKED: ATOM     23  C   UNL d   1      27.250  41.651  -2.750 -0.12 +0.01    +0.066 A 
DOCKED: ATOM     24  C   UNL d   1      26.058  41.130  -6.205 -0.12 +0.01    +0.051 C 
DOCKED: ATOM     25  N   UNL d   1      28.189  40.640  -0.108 -0.07 -0.04    -0.248 N 
DOCKED: ATOM     26  N   UNL d   1      27.926  37.778   0.357 +0.00 -0.03    -0.248 N 
DOCKED: ATOM     27  N   UNL d   1      26.905  37.453  -2.264 -0.12 -0.02    -0.248 N 
DOCKED: ATOM     28  N   UNL d   1      27.160  40.305  -2.751 +0.07 -0.04    -0.248 N 
DOCKED: ATOM     29 FE   UNL d   1      27.539  39.049  -1.211 -0.06 +0.00    +0.000 Fe
DOCKED: ATOM     30  O   UNL d   1      29.081  39.077  -0.996 -0.14 +0.00    +0.000 OA
DOCKED: ATOM     31  O   UNL d   1      28.494  38.647  -2.393 -0.15 +0.00    +0.000 OA
DOCKED: ENDROOT
DOCKED: BRANCH   6  32
DOCKED: ATOM     32  C   UNL d   1      29.070  44.196   0.530 -0.15 +0.03    +0.052 C 
DOCKED: BRANCH  32  33
DOCKED: ATOM     33  C   UNL d   1      30.278  44.520  -0.344 -0.09 +0.07    +0.115 C 
DOCKED: BRANCH  33  34
DOCKED: ATOM     34  C   UNL d   1      31.476  44.949   0.467 -0.04 +0.18    +0.139 C 
DOCKED: ATOM     35  O   UNL d   1      31.941  44.191   1.303 -0.07 -1.06    -0.650 OA
DOCKED: BRANCH  34  36
DOCKED: ATOM     36  O   UNL d   1      32.033  46.167   0.308 -0.53 -1.39    -0.776 OA
DOCKED: ATOM     37  H   UNL d   1      32.035  46.824   1.014 -0.55 +0.19    +0.167 HD
DOCKED: ENDBRANCH  34  36
DOCKED: ENDBRANCH  33  34
DOCKED: ENDBRANCH  32  33
DOCKED: ENDBRANCH   6  32
DOCKED: BRANCH  22  38
DOCKED: ATOM     38  C   UNL d   1      26.923  43.599  -4.455 -0.10 +0.01    +0.052 C 
DOCKED: BRANCH  38  39
DOCKED: ATOM     39  C   UNL d   1      26.306  44.555  -3.438 -0.14 +0.02    +0.115 C 
DOCKED: BRANCH  39  40
DOCKED: ATOM     40  C   UNL d   1      24.942  44.104  -2.976 -0.33 +0.03    +0.139 C 
DOCKED: ATOM     41  O   UNL d   1      24.841  43.393  -1.990 -0.16 -0.21    -0.650 OA
DOCKED: BRANCH  40  42
DOCKED: ATOM     42  O   UNL d   1      23.824  44.515  -3.605 -0.03 -0.12    -0.776 OA
DOCKED: ATOM     43  H   UNL d   1      23.536  45.435  -3.573 +0.05 +0.02    +0.167 HD
DOCKED: ENDBRANCH  40  42
DOCKED: ENDBRANCH  39  40
DOCKED: ENDBRANCH  38  39
DOCKED: ENDBRANCH  22  38
DOCKED: BRANCH  12  44
DOCKED: ATOM     44  C   UNL d   1      27.761  34.621   2.433 -0.28 +0.00    +0.004 C 
DOCKED: ATOM     45  C   UNL d   1      26.658  33.881   2.536 -0.40 +0.01    +0.012 C 
DOCKED: ENDBRANCH  12  44
DOCKED: BRANCH  17  46
DOCKED: ATOM     46  C   UNL d   1      25.770  35.846  -5.413 -0.11 -0.00    +0.004 C 
DOCKED: ATOM     47  C   UNL d   1      24.624  36.133  -6.045 -0.13 +0.00    +0.012 C 
DOCKED: ENDBRANCH  17  46
DOCKED: TORSDOF 10
DOCKED: TER
DOCKED: ENDMDL
________________________________________________________________________________


	BEGINNING GENETIC ALGORITHM DOCKING 2 of 100
Run: 2 Seed: 347888427 1581901817 [ Run 2 of 100 GA/GALS ]
Beginning LAMARCKIAN GENETIC ALGORITHM (LGA), with a maximum of 25000000 energy evaluations.

Final-Value: -20.523


	FINAL GENETIC ALGORITHM DOCKED STATE
	_______________________________________________


Detailed state:  trans 41.148 28.674 15.922 quatxyzw 0.311060 -0.393361 -0.864181 0.041221 center 8.287 34.468 -0.670 ntor 10 49.6723 154.1581 -2.2349 -95.7209 -156.1418 53.8749 -16.4864 56.7978 -167.1865 166.6349
State:	 41.148  28.674  15.922   0.311 -0.394 -0.865 175.275     49.67  154.16   -2.23  -95.72 -156.14   53.87  -16.49   56.80 -167.19  166.63

DOCKED: MODEL        2
DOCKED: USER    Run = 2
DOCKED: USER    DPF = D:/Protein_go_brrr/autodock/final/2DN3/heme_O2/dock.dpf
DOCKED: USER  
DOCKED: USER    Estimated Free Energy of Binding    =  -15.48 kcal/mol  [=(1)+(2)+(3)-(4)]
DOCKED: USER    Estimated Inhibition Constant, Ki   =    4.53 pM (picomolar)  [Temperature = 298.15 K]
DOCKED: USER    
DOCKED: USER    (1) Final Intermolecular Energy     =  -18.46 kcal/mol
DOCKED: USER        vdW + Hbond + desolv Energy     =  -16.16 kcal/mol
DOCKED: USER        Electrostatic Energy            =   -2.30 kcal/mol
DOCKED: USER    (2) Final Total Internal Energy     =   -2.06 kcal/mol
DOCKED: USER    (3) Torsional Free Energy           =   +2.98 kcal/mol
DOCKED: USER    (4) Unbound System's Energy  [=(2)] =   -2.06 kcal/mol
DOCKED: USER    
DOCKED: USER    
DOCKED: USER    NEWDPF move heme_O2_opt.pdbqt
DOCKED: USER    NEWDPF about 8.287000 34.468000 -0.670000
DOCKED: USER    NEWDPF tran0 41.148253 28.674397 15.921732
DOCKED: USER    NEWDPF quaternion0 0.311060 -0.393361 -0.864181 0.041221
DOCKED: USER    NEWDPF axisangle0 0.311325 -0.393696 -0.864916 175.275040
DOCKED: USER    NEWDPF quat0 0.311325 -0.393696 -0.864916 175.275040
DOCKED: USER    NEWDPF dihe0 49.67 154.16 -2.23 -95.72 -156.14 53.87 -16.49 56.80 -167.19 166.63 
DOCKED: USER  keepresnum = 1 
DOCKED: USER  
DOCKED: REMARK  10 active torsions:
DOCKED: REMARK  status: ('A' for Active; 'I' for Inactive)
DOCKED: REMARK    1  A    between atoms: C_6  and  C_10 
DOCKED: REMARK    2  A    between atoms: C_10  and  C_11 
DOCKED: REMARK    3  A    between atoms: C_11  and  C_12 
DOCKED: REMARK    4  A    between atoms: C_12  and  O_14 
DOCKED: REMARK    5  A    between atoms: C_17  and  C_20 
DOCKED: REMARK    6  A    between atoms: C_24  and  C_27 
DOCKED: REMARK    7  A    between atoms: C_31  and  C_34 
DOCKED: REMARK    8  A    between atoms: C_34  and  C_35 
DOCKED: REMARK    9  A    between atoms: C_35  and  C_36 
DOCKED: REMARK   10  A    between atoms: C_36  and  O_38 
DOCKED: USER                              x       y       z     vdW  Elec       q    Type
DOCKED: USER                           _______ _______ _______ _____ _____    ______ ____
DOCKED: ROOT
DOCKED: ATOM      1  C   UNL d   1      42.864  28.021  16.984 -0.31 +0.02    +0.064 A 
DOCKED: ATOM      2  C   UNL d   1      40.909  32.306  16.373 -0.41 +0.01    +0.064 A 
DOCKED: ATOM      3  C   UNL d   1      37.457  30.438  13.600 -0.39 +0.01    +0.064 C 
DOCKED: ATOM      4  C   UNL d   1      39.182  25.958  14.612 -0.42 +0.01    +0.064 A 
DOCKED: ATOM      5  C   UNL d   1      42.613  29.338  17.045 -0.30 +0.02    +0.066 A 
DOCKED: ATOM      6  C   UNL d   1      43.407  30.255  17.740 -0.33 -0.01    -0.021 A 
DOCKED: ATOM      7  C   UNL d   1      42.818  31.490  17.600 -0.37 -0.01    -0.025 A 
DOCKED: ATOM      8  C   UNL d   1      41.707  31.301  16.783 -0.31 +0.02    +0.066 A 
DOCKED: ATOM      9  C   UNL d   1      43.307  32.762  18.257 -0.42 +0.01    +0.051 C 
DOCKED: ATOM     10  C   UNL d   1      39.744  32.173  15.497 -0.38 +0.01    +0.066 A 
DOCKED: ATOM     11  C   UNL d   1      39.049  33.267  14.970 -0.42 -0.00    -0.021 A 
DOCKED: ATOM     12  C   UNL d   1      38.060  32.749  14.154 -0.40 +0.00    +0.000 A 
DOCKED: ATOM     13  C   UNL d   1      38.204  31.337  14.240 -0.36 +0.01    +0.070 A 
DOCKED: ATOM     14  C   UNL d   1      39.333  34.745  15.213 -0.54 +0.01    +0.052 C 
DOCKED: ATOM     15  C   UNL d   1      37.548  29.000  13.689 -0.38 +0.01    +0.066 A 
DOCKED: ATOM     16  C   UNL d   1      36.632  28.114  13.123 -0.48 -0.00    -0.021 A 
DOCKED: ATOM     17  C   UNL d   1      37.103  26.830  13.399 -0.46 +0.00    +0.000 A 
DOCKED: ATOM     18  C   UNL d   1      38.287  27.033  14.121 -0.38 +0.01    +0.070 A 
DOCKED: ATOM     19  C   UNL d   1      35.374  28.566  12.424 -0.66 +0.01    +0.052 C 
DOCKED: ATOM     20  C   UNL d   1      40.302  26.115  15.344 -0.38 +0.02    +0.066 A 
DOCKED: ATOM     21  C   UNL d   1      41.114  25.065  15.763 -0.42 -0.01    -0.025 A 
DOCKED: ATOM     22  C   UNL d   1      42.183  25.636  16.417 -0.25 -0.01    -0.021 A 
DOCKED: ATOM     23  C   UNL d   1      41.973  27.018  16.389 -0.35 +0.02    +0.066 A 
DOCKED: ATOM     24  C   UNL d   1      40.880  23.592  15.553 -0.53 +0.01    +0.051 C 
DOCKED: ATOM     25  N   UNL d   1      41.544  29.966  16.495 -0.01 -0.09    -0.248 N 
DOCKED: ATOM     26  N   UNL d   1      39.228  30.995  15.064 -0.20 -0.05    -0.248 N 
DOCKED: ATOM     27  N   UNL d   1      38.502  28.353  14.352 -0.21 -0.05    -0.248 N 
DOCKED: ATOM     28  N   UNL d   1      40.806  27.302  15.775 -0.26 -0.07    -0.248 N 
DOCKED: ATOM     29 FE   UNL d   1      40.020  29.134  15.421 -0.07 +0.00    +0.000 Fe
DOCKED: ATOM     30  O   UNL d   1      39.580  29.693  16.805 -0.81 +0.00    +0.000 OA
DOCKED: ATOM     31  O   UNL d   1      38.979  28.333  16.286 -0.59 +0.00    +0.000 OA
DOCKED: ENDROOT
DOCKED: BRANCH   6  32
DOCKED: ATOM     32  C   UNL d   1      44.597  29.966  18.618 -0.29 +0.02    +0.052 C 
DOCKED: BRANCH  32  33
DOCKED: ATOM     33  C   UNL d   1      44.204  29.578  20.040 +0.22 +0.08    +0.115 C 
DOCKED: BRANCH  33  34
DOCKED: ATOM     34  C   UNL d   1      45.316  28.868  20.771 -0.11 +0.18    +0.139 C 
DOCKED: ATOM     35  O   UNL d   1      46.423  29.379  20.829 -0.38 -0.84    -0.650 OA
DOCKED: BRANCH  34  36
DOCKED: ATOM     36  O   UNL d   1      45.124  27.661  21.343 -0.10 -1.25    -0.776 OA
DOCKED: ATOM     37  H   UNL d   1      44.723  26.927  20.863 +0.05 +0.16    +0.167 HD
DOCKED: ENDBRANCH  34  36
DOCKED: ENDBRANCH  33  34
DOCKED: ENDBRANCH  32  33
DOCKED: ENDBRANCH   6  32
DOCKED: BRANCH  22  38
DOCKED: ATOM     38  C   UNL d   1      43.306  24.886  17.086 -0.31 +0.02    +0.052 C 
DOCKED: BRANCH  38  39
DOCKED: ATOM     39  C   UNL d   1      43.022  24.607  18.560 -0.36 +0.04    +0.115 C 
DOCKED: BRANCH  39  40
DOCKED: ATOM     40  C   UNL d   1      44.106  25.135  19.466 -0.25 +0.07    +0.139 C 
DOCKED: ATOM     41  O   UNL d   1      44.204  24.711  20.606 -0.51 -0.39    -0.650 OA
DOCKED: BRANCH  40  42
DOCKED: ATOM     42  O   UNL d   1      45.006  26.035  19.023 +0.10 -0.42    -0.776 OA
DOCKED: ATOM     43  H   UNL d   1      45.479  26.616  19.630 +0.06 +0.11    +0.167 HD
DOCKED: ENDBRANCH  40  42
DOCKED: ENDBRANCH  39  40
DOCKED: ENDBRANCH  38  39
DOCKED: ENDBRANCH  22  38
DOCKED: BRANCH  12  44
DOCKED: ATOM     44  C   UNL d   1      37.098  33.638  13.393 -0.51 +0.00    +0.004 C 
DOCKED: ATOM     45  C   UNL d   1      36.189  33.275  12.489 -0.61 +0.00    +0.012 C 
DOCKED: ENDBRANCH  12  44
DOCKED: BRANCH  17  46
DOCKED: ATOM     46  C   UNL d   1      36.516  25.477  13.099 -0.67 +0.00    +0.004 C 
DOCKED: ATOM     47  C   UNL d   1      35.877  24.647  13.934 -0.70 +0.00    +0.012 C 
DOCKED: ENDBRANCH  17  46
DOCKED: TORSDOF 10
DOCKED: TER
DOCKED: ENDMDL
________________________________________________________________________________


	BEGINNING GENETIC ALGORITHM DOCKING 3 of 100
Run: 3 Seed: 1868009239 42047553 [ Run 3 of 100 GA/GALS ]
Beginning LAMARCKIAN GENETIC ALGORITHM (LGA), with a maximum of 25000000 energy evaluations.

Final-Value: -12.238


	FINAL GENETIC ALGORITHM DOCKED STATE
	_______________________________________________


Detailed state:  trans 27.873 40.556 -0.758 quatxyzw -0.168364 -0.714221 0.462243 0.497869 center 8.287 34.468 -0.670 ntor 10 117.3680 103.8367 -72.8144 118.8198 170.6676 -25.2082 -64.6044 77.4244 -163.0420 -164.5401
State:	 27.873  40.556  -0.758  -0.194 -0.824  0.533 120.282    117.37  103.84  -72.81  118.82  170.67  -25.21  -64.60   77.42 -163.04 -164.54

DOCKED: MODEL        3
DOCKED: USER    Run = 3
DOCKED: USER    DPF = D:/Protein_go_brrr/autodock/final/2DN3/heme_O2/dock.dpf
DOCKED: USER  
DOCKED: USER    Estimated Free Energy of Binding    =   -6.66 kcal/mol  [=(1)+(2)+(3)-(4)]
DOCKED: USER    Estimated Inhibition Constant, Ki   =   13.12 uM (micromolar)  [Temperature = 298.15 K]
DOCKED: USER    
DOCKED: USER    (1) Final Intermolecular Energy     =   -9.64 kcal/mol
DOCKED: USER        vdW + Hbond + desolv Energy     =   -7.03 kcal/mol
DOCKED: USER        Electrostatic Energy            =   -2.62 kcal/mol
DOCKED: USER    (2) Final Total Internal Energy     =   -2.60 kcal/mol
DOCKED: USER    (3) Torsional Free Energy           =   +2.98 kcal/mol
DOCKED: USER    (4) Unbound System's Energy  [=(2)] =   -2.60 kcal/mol
DOCKED: USER    
DOCKED: USER    
DOCKED: USER    NEWDPF move heme_O2_opt.pdbqt
DOCKED: USER    NEWDPF about 8.287000 34.468000 -0.670000
DOCKED: USER    NEWDPF tran0 27.872898 40.556102 -0.758306
DOCKED: USER    NEWDPF quaternion0 -0.168364 -0.714221 0.462243 0.497869
DOCKED: USER    NEWDPF axisangle0 -0.194135 -0.823544 0.532997 120.281824
DOCKED: USER    NEWDPF quat0 -0.194135 -0.823544 0.532997 120.281824
DOCKED: USER    NEWDPF dihe0 117.37 103.84 -72.81 118.82 170.67 -25.21 -64.60 77.42 -163.04 -164.54 
DOCKED: USER  keepresnum = 1 
DOCKED: USER  
DOCKED: REMARK  10 active torsions:
DOCKED: REMARK  status: ('A' for Active; 'I' for Inactive)
DOCKED: REMARK    1  A    between atoms: C_6  and  C_10 
DOCKED: REMARK    2  A    between atoms: C_10  and  C_11 
DOCKED: REMARK    3  A    between atoms: C_11  and  C_12 
DOCKED: REMARK    4  A    between atoms: C_12  and  O_14 
DOCKED: REMARK    5  A    between atoms: C_17  and  C_20 
DOCKED: REMARK    6  A    between atoms: C_24  and  C_27 
DOCKED: REMARK    7  A    between atoms: C_31  and  C_34 
DOCKED: REMARK    8  A    between atoms: C_34  and  C_35 
DOCKED: REMARK    9  A    between atoms: C_35  and  C_36 
DOCKED: REMARK   10  A    between atoms: C_36  and  O_38 
DOCKED: USER                              x       y       z     vdW  Elec       q    Type
DOCKED: USER                           _______ _______ _______ _____ _____    ______ ____
DOCKED: ROOT
DOCKED: ATOM      1  C   UNL d   1      28.687  41.940   0.628 -0.15 +0.02    +0.064 A 
DOCKED: ATOM      2  C   UNL d   1      28.310  37.206   0.667 -0.14 +0.01    +0.064 A 
DOCKED: ATOM      3  C   UNL d   1      26.081  37.255  -3.590 -0.27 +0.00    +0.064 C 
DOCKED: ATOM      4  C   UNL d   1      26.890  42.086  -3.865 -0.17 +0.01    +0.064 A 
DOCKED: ATOM      5  C   UNL d   1      28.768  40.648   0.985 -0.15 +0.01    +0.066 A 
DOCKED: ATOM      6  C   UNL d   1      29.332  40.201   2.184 -0.18 -0.00    -0.021 A 
DOCKED: ATOM      7  C   UNL d   1      29.262  38.828   2.177 -0.16 -0.00    -0.025 A 
DOCKED: ATOM      8  C   UNL d   1      28.614  38.476   0.996 -0.14 +0.01    +0.066 A 
DOCKED: ATOM      9  C   UNL d   1      29.827  37.927   3.253 -0.14 -0.00    +0.051 C 
DOCKED: ATOM     10  C   UNL d   1      27.611  36.777  -0.545 -0.12 +0.01    +0.066 A 
DOCKED: ATOM     11  C   UNL d   1      27.176  35.465  -0.759 -0.18 -0.00    -0.021 A 
DOCKED: ATOM     12  C   UNL d   1      26.515  35.463  -1.974 -0.21 +0.00    +0.000 A 
DOCKED: ATOM     13  C   UNL d   1      26.597  36.801  -2.448 -0.20 +0.01    +0.070 A 
DOCKED: ATOM     14  C   UNL d   1      27.358  34.269   0.168 -0.22 +0.02    +0.052 C 
DOCKED: ATOM     15  C   UNL d   1      26.173  38.594  -4.122 -0.22 +0.01    +0.066 A 
DOCKED: ATOM     16  C   UNL d   1      25.754  38.967  -5.399 -0.20 -0.00    -0.021 A 
DOCKED: ATOM     17  C   UNL d   1      25.975  40.341  -5.500 -0.18 +0.00    +0.000 A 
DOCKED: ATOM     18  C   UNL d   1      26.518  40.707  -4.261 -0.19 +0.01    +0.070 A 
DOCKED: ATOM     19  C   UNL d   1      25.236  37.982  -6.416 -0.13 +0.00    +0.052 C 
DOCKED: ATOM     20  C   UNL d   1      27.453  42.466  -2.702 -0.15 +0.01    +0.066 A 
DOCKED: ATOM     21  C   UNL d   1      27.764  43.783  -2.379 -0.10 -0.01    -0.025 A 
DOCKED: ATOM     22  C   UNL d   1      28.252  43.764  -1.091 -0.12 -0.01    -0.021 A 
DOCKED: ATOM     23  C   UNL d   1      28.237  42.428  -0.681 -0.14 +0.02    +0.066 A 
DOCKED: ATOM     24  C   UNL d   1      27.607  44.999  -3.255 -0.06 +0.01    +0.051 C 
DOCKED: ATOM     25  N   UNL d   1      28.369  39.594   0.232 -0.07 -0.03    -0.248 N 
DOCKED: ATOM     26  N   UNL d   1      27.270  37.593  -1.575 +0.02 -0.03    -0.248 N 
DOCKED: ATOM     27  N   UNL d   1      26.701  39.622  -3.465 -0.05 -0.04    -0.248 N 
DOCKED: ATOM     28  N   UNL d   1      27.793  41.636  -1.680 -0.10 -0.05    -0.248 N 
DOCKED: ATOM     29 FE   UNL d   1      27.532  39.630  -1.630 -0.06 +0.00    +0.000 Fe
DOCKED: ATOM     30  O   UNL d   1      28.958  39.007  -1.594 -0.14 +0.00    +0.000 OA
DOCKED: ATOM     31  O   UNL d   1      28.547  39.946  -2.790 -0.14 +0.00    +0.000 OA
DOCKED: ENDROOT
DOCKED: BRANCH   6  32
DOCKED: ATOM     32  C   UNL d   1      30.034  41.021   3.235 -0.31 +0.00    +0.052 C 
DOCKED: BRANCH  32  33
DOCKED: ATOM     33  C   UNL d   1      31.474  41.358   2.859 -0.24 +0.04    +0.115 C 
DOCKED: BRANCH  33  34
DOCKED: ATOM     34  C   UNL d   1      31.674  42.834   2.620 -0.27 +0.10    +0.139 C 
DOCKED: ATOM     35  O   UNL d   1      30.870  43.634   3.071 +0.02 -0.44    -0.650 OA
DOCKED: BRANCH  34  36
DOCKED: ATOM     36  O   UNL d   1      32.713  43.294   1.891 -0.04 -1.23    -0.776 OA
DOCKED: ATOM     37  H   UNL d   1      32.584  43.781   1.069 +0.04 +0.34    +0.167 HD
DOCKED: ENDBRANCH  34  36
DOCKED: ENDBRANCH  33  34
DOCKED: ENDBRANCH  32  33
DOCKED: ENDBRANCH   6  32
DOCKED: BRANCH  22  38
DOCKED: ATOM     38  C   UNL d   1      28.763  44.959  -0.328 -0.11 +0.02    +0.052 C 
DOCKED: BRANCH  38  39
DOCKED: ATOM     39  C   UNL d   1      29.986  45.592  -0.987 -0.07 +0.05    +0.115 C 
DOCKED: BRANCH  39  40
DOCKED: ATOM     40  C   UNL d   1      31.269  45.249  -0.272 -0.13 +0.14    +0.139 C 
DOCKED: ATOM     41  O   UNL d   1      32.150  44.646  -0.863 -0.19 -0.78    -0.650 OA
DOCKED: BRANCH  40  42
DOCKED: ATOM     42  O   UNL d   1      31.483  45.641   0.999 -0.48 -1.05    -0.776 OA
DOCKED: ATOM     43  H   UNL d   1      31.449  45.016   1.733 +0.02 +0.21    +0.167 HD
DOCKED: ENDBRANCH  40  42
DOCKED: ENDBRANCH  39  40
DOCKED: ENDBRANCH  38  39
DOCKED: ENDBRANCH  22  38
DOCKED: BRANCH  12  44
DOCKED: ATOM     44  C   UNL d   1      25.889  34.208  -2.546 -0.21 -0.00    +0.004 C 
DOCKED: ATOM     45  C   UNL d   1      24.600  33.871  -2.564 -0.35 -0.00    +0.012 C 
DOCKED: ENDBRANCH  12  44
DOCKED: BRANCH  17  46
DOCKED: ATOM     46  C   UNL d   1      25.778  41.291  -6.651 -0.12 +0.00    +0.004 C 
DOCKED: ATOM     47  C   UNL d   1      24.886  42.284  -6.762 -0.14 +0.00    +0.012 C 
DOCKED: ENDBRANCH  17  46
DOCKED: TORSDOF 10
DOCKED: TER
DOCKED: ENDMDL
________________________________________________________________________________


	BEGINNING GENETIC ALGORITHM DOCKING 4 of 100
Run: 4 Seed: 327396777 215540532 [ Run 4 of 100 GA/GALS ]
Beginning LAMARCKIAN GENETIC ALGORITHM (LGA), with a maximum of 25000000 energy evaluations.

Final-Value: -10.680


	FINAL GENETIC ALGORITHM DOCKED STATE
	_______________________________________________


Detailed state:  trans 25.227 45.663 -1.872 quatxyzw -0.400093 -0.911003 -0.024521 -0.096946 center 8.287 34.468 -0.670 ntor 10 8.6289 70.2342 33.4524 64.7935 53.4423 -164.7634 -75.6435 29.2093 12.7246 -160.1720
State:	 25.227  45.663  -1.872  -0.402 -0.915 -0.025 -168.873      8.63   70.23   33.45   64.79   53.44 -164.76  -75.64   29.21   12.72 -160.17

DOCKED: MODEL        4
DOCKED: USER    Run = 4
DOCKED: USER    DPF = D:/Protein_go_brrr/autodock/final/2DN3/heme_O2/dock.dpf
DOCKED: USER  
DOCKED: USER    Estimated Free Energy of Binding    =   -7.10 kcal/mol  [=(1)+(2)+(3)-(4)]
DOCKED: USER    Estimated Inhibition Constant, Ki   =    6.28 uM (micromolar)  [Temperature = 298.15 K]
DOCKED: USER    
DOCKED: USER    (1) Final Intermolecular Energy     =  -10.08 kcal/mol
DOCKED: USER        vdW + Hbond + desolv Energy     =   -8.35 kcal/mol
DOCKED: USER        Electrostatic Energy            =   -1.73 kcal/mol
DOCKED: USER    (2) Final Total Internal Energy     =   -0.60 kcal/mol
DOCKED: USER    (3) Torsional Free Energy           =   +2.98 kcal/mol
DOCKED: USER    (4) Unbound System's Energy  [=(2)] =   -0.60 kcal/mol
DOCKED: USER    
DOCKED: USER    
DOCKED: USER    NEWDPF move heme_O2_opt.pdbqt
DOCKED: USER    NEWDPF about 8.287000 34.468000 -0.670000
DOCKED: USER    NEWDPF tran0 25.227285 45.663271 -1.871505
DOCKED: USER    NEWDPF quaternion0 -0.400093 -0.911003 -0.024521 -0.096946
DOCKED: USER    NEWDPF axisangle0 -0.401987 -0.915314 -0.024637 -168.873357
DOCKED: USER    NEWDPF quat0 -0.401987 -0.915314 -0.024637 -168.873357
DOCKED: USER    NEWDPF dihe0 8.63 70.23 33.45 64.79 53.44 -164.76 -75.64 29.21 12.72 -160.17 
DOCKED: USER  keepresnum = 1 
DOCKED: USER  
DOCKED: REMARK  10 active torsions:
DOCKED: REMARK  status: ('A' for Active; 'I' for Inactive)
DOCKED: REMARK    1  A    between atoms: C_6  and  C_10 
DOCKED: REMARK    2  A    between atoms: C_10  and  C_11 
DOCKED: REMARK    3  A    between atoms: C_11  and  C_12 
DOCKED: REMARK    4  A    between atoms: C_12  and  O_14 
DOCKED: REMARK    5  A    between atoms: C_17  and  C_20 
DOCKED: REMARK    6  A    between atoms: C_24  and  C_27 
DOCKED: REMARK    7  A    between atoms: C_31  and  C_34 
DOCKED: REMARK    8  A    between atoms: C_34  and  C_35 
DOCKED: REMARK    9  A    between atoms: C_35  and  C_36 
DOCKED: REMARK   10  A    between atoms: C_36  and  O_38 
DOCKED: USER                              x       y       z     vdW  Elec       q    Type
DOCKED: USER                           _______ _______ _______ _____ _____    ______ ____
DOCKED: ROOT
DOCKED: ATOM      1  C   UNL d   1      27.031  44.620  -1.474 -0.15 +0.02    +0.064 A 
DOCKED: ATOM      2  C   UNL d   1      23.671  44.073  -4.787 -0.19 +0.01    +0.064 A 
DOCKED: ATOM      3  C   UNL d   1      21.140  47.725  -2.954 -0.29 -0.01    +0.064 C 
DOCKED: ATOM      4  C   UNL d   1      24.822  48.603   0.166 -0.09 +0.01    +0.064 A 
DOCKED: ATOM      5  C   UNL d   1      26.324  44.174  -2.526 -0.21 +0.02    +0.066 A 
DOCKED: ATOM      6  C   UNL d   1      26.708  43.093  -3.325 -0.19 -0.00    -0.021 A 
DOCKED: ATOM      7  C   UNL d   1      25.758  42.962  -4.311 -0.22 -0.00    -0.025 A 
DOCKED: ATOM      8  C   UNL d   1      24.795  43.935  -4.058 -0.26 +0.01    +0.066 A 
DOCKED: ATOM      9  C   UNL d   1      25.818  41.959  -5.443 -0.18 +0.01    +0.051 C 
DOCKED: ATOM     10  C   UNL d   1      22.615  45.060  -4.556 -0.26 +0.00    +0.066 A 
DOCKED: ATOM     11  C   UNL d   1      21.394  45.054  -5.239 -0.34 -0.00    -0.021 A 
DOCKED: ATOM     12  C   UNL d   1      20.643  46.089  -4.713 -0.35 -0.00    +0.000 A 
DOCKED: ATOM     13  C   UNL d   1      21.472  46.688  -3.724 -0.28 -0.00    +0.070 A 
DOCKED: ATOM     14  C   UNL d   1      20.952  44.086  -6.330 -0.39 +0.01    +0.052 C 
DOCKED: ATOM     15  C   UNL d   1      21.963  48.382  -1.968 -0.21 -0.00    +0.066 A 
DOCKED: ATOM     16  C   UNL d   1      21.619  49.564  -1.312 -0.18 +0.00    -0.021 A 
DOCKED: ATOM     17  C   UNL d   1      22.654  49.834  -0.418 -0.13 +0.00    +0.000 A 
DOCKED: ATOM     18  C   UNL d   1      23.564  48.782  -0.595 -0.10 +0.01    +0.070 A 
DOCKED: ATOM     19  C   UNL d   1      20.373  50.350  -1.634 -0.25 -0.01    +0.052 C 
DOCKED: ATOM     20  C   UNL d   1      25.737  47.630  -0.009 -0.07 +0.02    +0.066 A 
DOCKED: ATOM     21  C   UNL d   1      26.896  47.503   0.752 -0.13 -0.01    -0.025 A 
DOCKED: ATOM     22  C   UNL d   1      27.524  46.358   0.316 -0.14 -0.01    -0.021 A 
DOCKED: ATOM     23  C   UNL d   1      26.731  45.836  -0.710 -0.10 +0.02    +0.066 A 
DOCKED: ATOM     24  C   UNL d   1      27.382  48.430   1.837 -0.13 +0.02    +0.051 C 
DOCKED: ATOM     25  N   UNL d   1      25.178  44.723  -2.997 -0.19 -0.05    -0.248 N 
DOCKED: ATOM     26  N   UNL d   1      22.671  46.058  -3.638 -0.19 -0.01    -0.248 N 
DOCKED: ATOM     27  N   UNL d   1      23.164  47.952  -1.592 -0.07 -0.02    -0.248 N 
DOCKED: ATOM     28  N   UNL d   1      25.670  46.638  -0.935 +0.05 -0.07    -0.248 N 
DOCKED: ATOM     29 FE   UNL d   1      24.180  46.353  -2.276 -0.05 +0.00    +0.000 Fe
DOCKED: ATOM     30  O   UNL d   1      24.812  46.574  -3.681 -0.13 +0.00    +0.000 OA
DOCKED: ATOM     31  O   UNL d   1      24.861  47.730  -2.612 -0.12 +0.00    +0.000 OA
DOCKED: ENDROOT
DOCKED: BRANCH   6  32
DOCKED: ATOM     32  C   UNL d   1      27.986  42.300  -3.253 -0.12 +0.01    +0.052 C 
DOCKED: BRANCH  32  33
DOCKED: ATOM     33  C   UNL d   1      27.839  41.012  -2.447 -0.14 +0.02    +0.115 C 
DOCKED: BRANCH  33  34
DOCKED: ATOM     34  C   UNL d   1      27.714  39.794  -3.328 -0.16 +0.02    +0.139 C 
DOCKED: ATOM     35  O   UNL d   1      26.609  39.340  -3.576 -0.06 -0.09    -0.650 OA
DOCKED: BRANCH  34  36
DOCKED: ATOM     36  O   UNL d   1      28.803  39.173  -3.828 +0.03 -0.10    -0.776 OA
DOCKED: ATOM     37  H   UNL d   1      29.696  39.401  -3.545 +0.02 +0.02    +0.167 HD
DOCKED: ENDBRANCH  34  36
DOCKED: ENDBRANCH  33  34
DOCKED: ENDBRANCH  32  33
DOCKED: ENDBRANCH   6  32
DOCKED: BRANCH  22  38
DOCKED: ATOM     38  C   UNL d   1      28.845  45.835   0.819 -0.09 +0.03    +0.052 C 
DOCKED: BRANCH  38  39
DOCKED: ATOM     39  C   UNL d   1      29.977  46.846   0.641 -0.17 +0.06    +0.115 C 
DOCKED: BRANCH  39  40
DOCKED: ATOM     40  C   UNL d   1      31.322  46.182   0.484 -0.08 +0.15    +0.139 C 
DOCKED: ATOM     41  O   UNL d   1      31.480  45.034   0.865 -0.45 -0.91    -0.650 OA
DOCKED: BRANCH  40  42
DOCKED: ATOM     42  O   UNL d   1      32.345  46.818  -0.120 -0.31 -1.09    -0.776 OA
DOCKED: ATOM     43  H   UNL d   1      32.814  47.543   0.312 -0.30 +0.21    +0.167 HD
DOCKED: ENDBRANCH  40  42
DOCKED: ENDBRANCH  39  40
DOCKED: ENDBRANCH  38  39
DOCKED: ENDBRANCH  22  38
DOCKED: BRANCH  12  44
DOCKED: ATOM     44  C   UNL d   1      19.243  46.395  -5.200 -0.37 -0.00    +0.004 C 
DOCKED: ATOM     45  C   UNL d   1      18.621  47.573  -5.216 -0.28 -0.00    +0.012 C 
DOCKED: ENDBRANCH  12  44
DOCKED: BRANCH  17  46
DOCKED: ATOM     46  C   UNL d   1      22.876  50.994   0.516 -0.12 -0.00    +0.004 C 
DOCKED: ATOM     47  C   UNL d   1      22.080  51.428   1.502 -0.22 -0.00    +0.012 C 
DOCKED: ENDBRANCH  17  46
DOCKED: TORSDOF 10
DOCKED: TER
DOCKED: ENDMDL
________________________________________________________________________________


	BEGINNING GENETIC ALGORITHM DOCKING 5 of 100
Run: 5 Seed: 1176049460 1984007300 [ Run 5 of 100 GA/GALS ]
Beginning LAMARCKIAN GENETIC ALGORITHM (LGA), with a maximum of 25000000 energy evaluations.

Final-Value: -19.678


	FINAL GENETIC ALGORITHM DOCKED STATE
	_______________________________________________


Detailed state:  trans 41.531 28.845 16.258 quatxyzw -0.314618 0.411944 0.855160 0.004424 center 8.287 34.468 -0.670 ntor 10 92.1120 128.5024 -15.6796 -46.5730 -127.2449 -31.6805 -50.3674 -50.1824 -167.2549 14.2114
State:	 41.531  28.845  16.258  -0.315  0.412  0.855 179.493     92.11  128.50  -15.68  -46.57 -127.24  -31.68  -50.37  -50.18 -167.25   14.21

DOCKED: MODEL        5
DOCKED: USER    Run = 5
DOCKED: USER    DPF = D:/Protein_go_brrr/autodock/final/2DN3/heme_O2/dock.dpf
DOCKED: USER  
DOCKED: USER    Estimated Free Energy of Binding    =  -14.76 kcal/mol  [=(1)+(2)+(3)-(4)]
DOCKED: USER    Estimated Inhibition Constant, Ki   =   15.25 pM (picomolar)  [Temperature = 298.15 K]
DOCKED: USER    
DOCKED: USER    (1) Final Intermolecular Energy     =  -17.74 kcal/mol
DOCKED: USER        vdW + Hbond + desolv Energy     =  -15.57 kcal/mol
DOCKED: USER        Electrostatic Energy            =   -2.17 kcal/mol
DOCKED: USER    (2) Final Total Internal Energy     =   -1.94 kcal/mol
DOCKED: USER    (3) Torsional Free Energy           =   +2.98 kcal/mol
DOCKED: USER    (4) Unbound System's Energy  [=(2)] =   -1.94 kcal/mol
DOCKED: USER    
DOCKED: USER    
DOCKED: USER    NEWDPF move heme_O2_opt.pdbqt
DOCKED: USER    NEWDPF about 8.287000 34.468000 -0.670000
DOCKED: USER    NEWDPF tran0 41.530749 28.845384 16.258141
DOCKED: USER    NEWDPF quaternion0 -0.314618 0.411944 0.855160 0.004424
DOCKED: USER    NEWDPF axisangle0 -0.314621 0.411948 0.855168 179.493014
DOCKED: USER    NEWDPF quat0 -0.314621 0.411948 0.855168 179.493014
DOCKED: USER    NEWDPF dihe0 92.11 128.50 -15.68 -46.57 -127.24 -31.68 -50.37 -50.18 -167.25 14.21 
DOCKED: USER  keepresnum = 1 
DOCKED: USER  
DOCKED: REMARK  10 active torsions:
DOCKED: REMARK  status: ('A' for Active; 'I' for Inactive)
DOCKED: REMARK    1  A    between atoms: C_6  and  C_10 
DOCKED: REMARK    2  A    between atoms: C_10  and  C_11 
DOCKED: REMARK    3  A    between atoms: C_11  and  C_12 
DOCKED: REMARK    4  A    between atoms: C_12  and  O_14 
DOCKED: REMARK    5  A    between atoms: C_17  and  C_20 
DOCKED: REMARK    6  A    between atoms: C_24  and  C_27 
DOCKED: REMARK    7  A    between atoms: C_31  and  C_34 
DOCKED: REMARK    8  A    between atoms: C_34  and  C_35 
DOCKED: REMARK    9  A    between atoms: C_35  and  C_36 
DOCKED: REMARK   10  A    between atoms: C_36  and  O_38 
DOCKED: USER                              x       y       z     vdW  Elec       q    Type
DOCKED: USER                           _______ _______ _______ _____ _____    ______ ____
DOCKED: ROOT
DOCKED: ATOM      1  C   UNL d   1      43.312  28.385  17.313 -0.29 +0.02    +0.064 A 
DOCKED: ATOM      2  C   UNL d   1      41.048  32.475  16.471 -0.41 +0.01    +0.064 A 
DOCKED: ATOM      3  C   UNL d   1      37.672  30.188  13.928 -0.39 +0.01    +0.064 C 
DOCKED: ATOM      4  C   UNL d   1      39.730  25.917  15.189 -0.34 +0.01    +0.064 A 
DOCKED: ATOM      5  C   UNL d   1      42.971  29.684  17.293 -0.31 +0.02    +0.066 A 
DOCKED: ATOM      6  C   UNL d   1      43.715  30.698  17.903 -0.32 -0.01    -0.021 A 
DOCKED: ATOM      7  C   UNL d   1      43.037  31.877  17.697 -0.34 -0.01    -0.025 A 
DOCKED: ATOM      8  C   UNL d   1      41.923  31.557  16.926 -0.37 +0.01    +0.066 A 
DOCKED: ATOM      9  C   UNL d   1      43.451  33.222  18.253 -0.41 +0.01    +0.051 C 
DOCKED: ATOM     10  C   UNL d   1      39.875  32.202  15.640 -0.38 +0.01    +0.066 A 
DOCKED: ATOM     11  C   UNL d   1      39.092  33.207  15.060 -0.43 -0.00    -0.021 A 
DOCKED: ATOM     12  C   UNL d   1      38.124  32.568  14.308 -0.40 +0.00    +0.000 A 
DOCKED: ATOM     13  C   UNL d   1      38.369  31.178  14.486 -0.35 +0.01    +0.070 A 
DOCKED: ATOM     14  C   UNL d   1      39.277  34.714  15.196 -0.54 +0.01    +0.052 C 
DOCKED: ATOM     15  C   UNL d   1      37.865  28.770  14.110 -0.36 +0.01    +0.066 A 
DOCKED: ATOM     16  C   UNL d   1      37.001  27.786  13.630 -0.42 -0.00    -0.021 A 
DOCKED: ATOM     17  C   UNL d   1      37.567  26.560  13.979 -0.45 +0.00    +0.000 A 
DOCKED: ATOM     18  C   UNL d   1      38.751  26.892  14.652 -0.37 +0.01    +0.070 A 
DOCKED: ATOM     19  C   UNL d   1      35.698  28.102  12.939 -0.60 +0.01    +0.052 C 
DOCKED: ATOM     20  C   UNL d   1      40.853  26.201  15.877 -0.38 +0.02    +0.066 A 
DOCKED: ATOM     21  C   UNL d   1      41.746  25.240  16.342 -0.37 -0.01    -0.025 A 
DOCKED: ATOM     22  C   UNL d   1      42.787  25.926  16.927 -0.31 -0.01    -0.021 A 
DOCKED: ATOM     23  C   UNL d   1      42.480  27.285  16.812 -0.33 +0.02    +0.066 A 
DOCKED: ATOM     24  C   UNL d   1      41.612  23.743  16.238 -0.53 +0.01    +0.051 C 
DOCKED: ATOM     25  N   UNL d   1      41.848  30.197  16.733 -0.14 -0.08    -0.248 N 
DOCKED: ATOM     26  N   UNL d   1      39.433  30.965  15.301 -0.12 -0.06    -0.248 N 
DOCKED: ATOM     27  N   UNL d   1      38.877  28.237  14.788 -0.18 -0.06    -0.248 N 
DOCKED: ATOM     28  N   UNL d   1      41.282  27.446  16.213 -0.26 -0.08    -0.248 N 
DOCKED: ATOM     29 FE   UNL d   1      40.362  29.191  15.759 -0.08 +0.00    +0.000 Fe
DOCKED: ATOM     30  O   UNL d   1      39.916  29.813  17.115 -0.79 +0.00    +0.000 OA
DOCKED: ATOM     31  O   UNL d   1      39.400  28.382  16.705 -0.83 +0.00    +0.000 OA
DOCKED: ENDROOT
DOCKED: BRANCH   6  32
DOCKED: ATOM     32  C   UNL d   1      44.942  30.552  18.765 -0.27 +0.02    +0.052 C 
DOCKED: BRANCH  32  33
DOCKED: ATOM     33  C   UNL d   1      44.611  30.238  20.220 -0.02 +0.09    +0.115 C 
DOCKED: BRANCH  33  34
DOCKED: ATOM     34  C   UNL d   1      45.342  29.021  20.728 -0.09 +0.18    +0.139 C 
DOCKED: ATOM     35  O   UNL d   1      46.497  29.126  21.108 -0.42 -1.05    -0.650 OA
DOCKED: BRANCH  34  36
DOCKED: ATOM     36  O   UNL d   1      44.757  27.805  20.745 +0.01 -0.87    -0.776 OA
DOCKED: ATOM     37  H   UNL d   1      44.844  27.186  20.011 +0.06 +0.12    +0.167 HD
DOCKED: ENDBRANCH  34  36
DOCKED: ENDBRANCH  33  34
DOCKED: ENDBRANCH  32  33
DOCKED: ENDBRANCH   6  32
DOCKED: BRANCH  22  38
DOCKED: ATOM     38  C   UNL d   1      43.975  25.303  17.612 -0.30 +0.02    +0.052 C 
DOCKED: BRANCH  38  39
DOCKED: ATOM     39  C   UNL d   1      45.289  25.617  16.900 -0.23 +0.07    +0.115 C 
DOCKED: BRANCH  39  40
DOCKED: ATOM     40  C   UNL d   1      46.336  26.166  17.838 -0.19 +0.08    +0.139 C 
DOCKED: ATOM     41  O   UNL d   1      47.336  25.510  18.080 -0.00 -0.43    -0.650 OA
DOCKED: BRANCH  40  42
DOCKED: ATOM     42  O   UNL d   1      46.212  27.394  18.376 +0.07 -0.40    -0.776 OA
DOCKED: ATOM     43  H   UNL d   1      46.331  27.545  19.321 +0.05 +0.10    +0.167 HD
DOCKED: ENDBRANCH  40  42
DOCKED: ENDBRANCH  39  40
DOCKED: ENDBRANCH  38  39
DOCKED: ENDBRANCH  22  38
DOCKED: BRANCH  12  44
DOCKED: ATOM     44  C   UNL d   1      37.085  33.334  13.517 -0.50 +0.00    +0.004 C 
DOCKED: ATOM     45  C   UNL d   1      36.351  32.900  12.493 -0.57 +0.00    +0.012 C 
DOCKED: ENDBRANCH  12  44
DOCKED: BRANCH  17  46
DOCKED: ATOM     46  C   UNL d   1      37.070  25.152  13.786 -0.64 +0.00    +0.004 C 
DOCKED: ATOM     47  C   UNL d   1      35.890  24.633  14.150 -0.71 +0.00    +0.012 C 
DOCKED: ENDBRANCH  17  46
DOCKED: TORSDOF 10
DOCKED: TER
DOCKED: ENDMDL
________________________________________________________________________________


	BEGINNING GENETIC ALGORITHM DOCKING 6 of 100
Run: 6 Seed: 318770722 1578277524 [ Run 6 of 100 GA/GALS ]
Beginning LAMARCKIAN GENETIC ALGORITHM (LGA), with a maximum of 25000000 energy evaluations.

Final-Value: -20.264


	FINAL GENETIC ALGORITHM DOCKED STATE
	_______________________________________________


Detailed state:  trans 41.411 28.862 16.307 quatxyzw -0.320242 0.393998 0.861451 -0.010660 center 8.287 34.468 -0.670 ntor 10 53.4700 92.5418 -25.1331 -62.5875 167.5504 154.6194 12.1751 -28.0091 -117.4213 113.2383
State:	 41.411  28.862  16.307  -0.320  0.394  0.861 -178.778     53.47   92.54  -25.13  -62.59  167.55  154.62   12.18  -28.01 -117.42  113.24

DOCKED: MODEL        6
DOCKED: USER    Run = 6
DOCKED: USER    DPF = D:/Protein_go_brrr/autodock/final/2DN3/heme_O2/dock.dpf
DOCKED: USER  
DOCKED: USER    Estimated Free Energy of Binding    =  -15.97 kcal/mol  [=(1)+(2)+(3)-(4)]
DOCKED: USER    Estimated Inhibition Constant, Ki   =    1.97 pM (picomolar)  [Temperature = 298.15 K]
DOCKED: USER    
DOCKED: USER    (1) Final Intermolecular Energy     =  -18.95 kcal/mol
DOCKED: USER        vdW + Hbond + desolv Energy     =  -16.53 kcal/mol
DOCKED: USER        Electrostatic Energy            =   -2.42 kcal/mol
DOCKED: USER    (2) Final Total Internal Energy     =   -1.31 kcal/mol
DOCKED: USER    (3) Torsional Free Energy           =   +2.98 kcal/mol
DOCKED: USER    (4) Unbound System's Energy  [=(2)] =   -1.31 kcal/mol
DOCKED: USER    
DOCKED: USER    
DOCKED: USER    NEWDPF move heme_O2_opt.pdbqt
DOCKED: USER    NEWDPF about 8.287000 34.468000 -0.670000
DOCKED: USER    NEWDPF tran0 41.410694 28.862024 16.306753
DOCKED: USER    NEWDPF quaternion0 -0.320242 0.393998 0.861451 -0.010660
DOCKED: USER    NEWDPF axisangle0 -0.320261 0.394020 0.861499 -178.778409
DOCKED: USER    NEWDPF quat0 -0.320261 0.394020 0.861499 -178.778409
DOCKED: USER    NEWDPF dihe0 53.47 92.54 -25.13 -62.59 167.55 154.62 12.18 -28.01 -117.42 113.24 
DOCKED: USER  keepresnum = 1 
DOCKED: USER  
DOCKED: REMARK  10 active torsions:
DOCKED: REMARK  status: ('A' for Active; 'I' for Inactive)
DOCKED: REMARK    1  A    between atoms: C_6  and  C_10 
DOCKED: REMARK    2  A    between atoms: C_10  and  C_11 
DOCKED: REMARK    3  A    between atoms: C_11  and  C_12 
DOCKED: REMARK    4  A    between atoms: C_12  and  O_14 
DOCKED: REMARK    5  A    between atoms: C_17  and  C_20 
DOCKED: REMARK    6  A    between atoms: C_24  and  C_27 
DOCKED: REMARK    7  A    between atoms: C_31  and  C_34 
DOCKED: REMARK    8  A    between atoms: C_34  and  C_35 
DOCKED: REMARK    9  A    between atoms: C_35  and  C_36 
DOCKED: REMARK   10  A    between atoms: C_36  and  O_38 
DOCKED: USER                              x       y       z     vdW  Elec       q    Type
DOCKED: USER                           _______ _______ _______ _____ _____    ______ ____
DOCKED: ROOT
DOCKED: ATOM      1  C   UNL d   1      43.168  28.336  17.371 -0.28 +0.02    +0.064 A 
DOCKED: ATOM      2  C   UNL d   1      40.959  32.483  16.676 -0.42 +0.01    +0.064 A 
DOCKED: ATOM      3  C   UNL d   1      37.608  30.349  13.972 -0.37 +0.01    +0.064 C 
DOCKED: ATOM      4  C   UNL d   1      39.602  26.004  15.074 -0.33 +0.01    +0.064 A 
DOCKED: ATOM      5  C   UNL d   1      42.840  29.638  17.404 -0.31 +0.02    +0.066 A 
DOCKED: ATOM      6  C   UNL d   1      43.582  30.616  18.073 -0.33 -0.01    -0.021 A 
DOCKED: ATOM      7  C   UNL d   1      42.920  31.810  17.908 -0.39 -0.01    -0.025 A 
DOCKED: ATOM      8  C   UNL d   1      41.817  31.536  17.104 -0.39 +0.01    +0.066 A 
DOCKED: ATOM      9  C   UNL d   1      43.336  33.124  18.533 -0.44 +0.01    +0.051 C 
DOCKED: ATOM     10  C   UNL d   1      39.798  32.260  15.813 -0.39 +0.01    +0.066 A 
DOCKED: ATOM     11  C   UNL d   1      39.036  33.299  15.266 -0.43 -0.00    -0.021 A 
DOCKED: ATOM     12  C   UNL d   1      38.076  32.704  14.468 -0.40 +0.00    +0.000 A 
DOCKED: ATOM     13  C   UNL d   1      38.304  31.305  14.586 -0.35 +0.01    +0.070 A 
DOCKED: ATOM     14  C   UNL d   1      39.233  34.796  15.473 -0.56 +0.01    +0.052 C 
DOCKED: ATOM     15  C   UNL d   1      37.784  28.922  14.093 -0.36 +0.01    +0.066 A 
DOCKED: ATOM     16  C   UNL d   1      36.919  27.970  13.554 -0.43 -0.00    -0.021 A 
DOCKED: ATOM     17  C   UNL d   1      37.467  26.723  13.856 -0.45 +0.00    +0.000 A 
DOCKED: ATOM     18  C   UNL d   1      38.642  27.012  14.565 -0.37 +0.01    +0.070 A 
DOCKED: ATOM     19  C   UNL d   1      35.633  28.330  12.854 -0.62 +0.01    +0.052 C 
DOCKED: ATOM     20  C   UNL d   1      40.715  26.244  15.794 -0.38 +0.02    +0.066 A 
DOCKED: ATOM     21  C   UNL d   1      41.590  25.254  16.231 -0.37 -0.01    -0.025 A 
DOCKED: ATOM     22  C   UNL d   1      42.627  25.903  16.864 -0.30 -0.01    -0.021 A 
DOCKED: ATOM     23  C   UNL d   1      42.335  27.269  16.805 -0.33 +0.02    +0.066 A 
DOCKED: ATOM     24  C   UNL d   1      41.443  23.765  16.056 -0.55 +0.01    +0.051 C 
DOCKED: ATOM     25  N   UNL d   1      41.733  30.187  16.848 -0.21 -0.08    -0.248 N 
DOCKED: ATOM     26  N   UNL d   1      39.350  31.044  15.410 -0.19 -0.06    -0.248 N 
DOCKED: ATOM     27  N   UNL d   1      38.779  28.348  14.764 -0.19 -0.06    -0.248 N 
DOCKED: ATOM     28  N   UNL d   1      41.149  27.469  16.194 -0.26 -0.08    -0.248 N 
DOCKED: ATOM     29 FE   UNL d   1      40.254  29.242  15.803 -0.09 +0.00    +0.000 Fe
DOCKED: ATOM     30  O   UNL d   1      39.790  29.806  17.178 -0.75 +0.00    +0.000 OA
DOCKED: ATOM     31  O   UNL d   1      39.268  28.401  16.694 -0.76 +0.00    +0.000 OA
DOCKED: ENDROOT
DOCKED: BRANCH   6  32
DOCKED: ATOM     32  C   UNL d   1      44.792  30.418  18.948 -0.28 +0.02    +0.052 C 
DOCKED: BRANCH  32  33
DOCKED: ATOM     33  C   UNL d   1      44.751  29.108  19.728 -0.19 +0.08    +0.115 C 
DOCKED: BRANCH  33  34
DOCKED: ATOM     34  C   UNL d   1      45.836  29.027  20.774 -0.09 +0.19    +0.139 C 
DOCKED: ATOM     35  O   UNL d   1      46.414  30.043  21.124 -0.30 -0.89    -0.650 OA
DOCKED: BRANCH  34  36
DOCKED: ATOM     36  O   UNL d   1      46.204  27.847  21.316 -0.18 -1.26    -0.776 OA
DOCKED: ATOM     37  H   UNL d   1      46.468  27.096  20.773 +0.04 +0.16    +0.167 HD
DOCKED: ENDBRANCH  34  36
DOCKED: ENDBRANCH  33  34
DOCKED: ENDBRANCH  32  33
DOCKED: ENDBRANCH   6  32
DOCKED: BRANCH  22  38
DOCKED: ATOM     38  C   UNL d   1      43.796  25.236  17.541 -0.31 +0.02    +0.052 C 
DOCKED: BRANCH  38  39
DOCKED: ATOM     39  C   UNL d   1      44.257  25.993  18.785 -0.22 +0.06    +0.115 C 
DOCKED: BRANCH  39  40
DOCKED: ATOM     40  C   UNL d   1      44.872  25.083  19.819 -0.19 +0.08    +0.139 C 
DOCKED: ATOM     41  O   UNL d   1      44.207  24.185  20.309 -0.55 -0.43    -0.650 OA
DOCKED: BRANCH  40  42
DOCKED: ATOM     42  O   UNL d   1      46.165  25.211  20.176 +0.09 -0.47    -0.776 OA
DOCKED: ATOM     43  H   UNL d   1      46.427  25.726  20.949 +0.05 +0.12    +0.167 HD
DOCKED: ENDBRANCH  40  42
DOCKED: ENDBRANCH  39  40
DOCKED: ENDBRANCH  38  39
DOCKED: ENDBRANCH  22  38
DOCKED: BRANCH  12  44
DOCKED: ATOM     44  C   UNL d   1      37.058  33.516  13.695 -0.50 +0.00    +0.004 C 
DOCKED: ATOM     45  C   UNL d   1      36.466  33.204  12.543 -0.57 +0.00    +0.012 C 
DOCKED: ENDBRANCH  12  44
DOCKED: BRANCH  17  46
DOCKED: ATOM     46  C   UNL d   1      36.960  25.331  13.591 -0.64 +0.00    +0.004 C 
DOCKED: ATOM     47  C   UNL d   1      35.911  24.711  14.147 -0.70 +0.00    +0.012 C 
DOCKED: ENDBRANCH  17  46
DOCKED: TORSDOF 10
DOCKED: TER
DOCKED: ENDMDL
________________________________________________________________________________


	BEGINNING GENETIC ALGORITHM DOCKING 7 of 100
Run: 7 Seed: 1738962321 1645068738 [ Run 7 of 100 GA/GALS ]
Beginning LAMARCKIAN GENETIC ALGORITHM (LGA), with a maximum of 25000000 energy evaluations.

Final-Value: -18.395


	FINAL GENETIC ALGORITHM DOCKED STATE
	_______________________________________________


Detailed state:  trans 8.800 35.117 -0.987 quatxyzw 0.030704 0.042494 0.010065 0.998574 center 8.287 34.468 -0.670 ntor 10 124.8144 103.0536 -16.3421 -65.5114 -174.9253 -25.3827 -42.6642 97.8676 -172.7825 -158.4714
State:	  8.800  35.117  -0.987   0.575  0.796  0.189  6.120    124.81  103.05  -16.34  -65.51 -174.93  -25.38  -42.66   97.87 -172.78 -158.47

DOCKED: MODEL        7
DOCKED: USER    Run = 7
DOCKED: USER    DPF = D:/Protein_go_brrr/autodock/final/2DN3/heme_O2/dock.dpf
DOCKED: USER  
DOCKED: USER    Estimated Free Energy of Binding    =  -13.85 kcal/mol  [=(1)+(2)+(3)-(4)]
DOCKED: USER    Estimated Inhibition Constant, Ki   =   70.40 pM (picomolar)  [Temperature = 298.15 K]
DOCKED: USER    
DOCKED: USER    (1) Final Intermolecular Energy     =  -16.83 kcal/mol
DOCKED: USER        vdW + Hbond + desolv Energy     =  -15.45 kcal/mol
DOCKED: USER        Electrostatic Energy            =   -1.38 kcal/mol
DOCKED: USER    (2) Final Total Internal Energy     =   -1.56 kcal/mol
DOCKED: USER    (3) Torsional Free Energy           =   +2.98 kcal/mol
DOCKED: USER    (4) Unbound System's Energy  [=(2)] =   -1.56 kcal/mol
DOCKED: USER    
DOCKED: USER    
DOCKED: USER    NEWDPF move heme_O2_opt.pdbqt
DOCKED: USER    NEWDPF about 8.287000 34.468000 -0.670000
DOCKED: USER    NEWDPF tran0 8.799792 35.117347 -0.987153
DOCKED: USER    NEWDPF quaternion0 0.030704 0.042494 0.010065 0.998574
DOCKED: USER    NEWDPF axisangle0 0.575162 0.796017 0.188536 6.120127
DOCKED: USER    NEWDPF quat0 0.575162 0.796017 0.188536 6.120127
DOCKED: USER    NEWDPF dihe0 124.81 103.05 -16.34 -65.51 -174.93 -25.38 -42.66 97.87 -172.78 -158.47 
DOCKED: USER  keepresnum = 1 
DOCKED: USER  
DOCKED: REMARK  10 active torsions:
DOCKED: REMARK  status: ('A' for Active; 'I' for Inactive)
DOCKED: REMARK    1  A    between atoms: C_6  and  C_10 
DOCKED: REMARK    2  A    between atoms: C_10  and  C_11 
DOCKED: REMARK    3  A    between atoms: C_11  and  C_12 
DOCKED: REMARK    4  A    between atoms: C_12  and  O_14 
DOCKED: REMARK    5  A    between atoms: C_17  and  C_20 
DOCKED: REMARK    6  A    between atoms: C_24  and  C_27 
DOCKED: REMARK    7  A    between atoms: C_31  and  C_34 
DOCKED: REMARK    8  A    between atoms: C_34  and  C_35 
DOCKED: REMARK    9  A    between atoms: C_35  and  C_36 
DOCKED: REMARK   10  A    between atoms: C_36  and  O_38 
DOCKED: USER                              x       y       z     vdW  Elec       q    Type
DOCKED: USER                           _______ _______ _______ _____ _____    ______ ____
DOCKED: ROOT
DOCKED: ATOM      1  C   UNL d   1       7.018  35.701  -1.979 -0.26 +0.01    +0.064 A 
DOCKED: ATOM      2  C   UNL d   1       7.814  33.190   1.973 -0.39 +0.01    +0.064 A 
DOCKED: ATOM      3  C   UNL d   1      12.566  33.609   1.392 -0.42 +0.00    +0.064 C 
DOCKED: ATOM      4  C   UNL d   1      11.756  36.598  -2.412 -0.40 +0.00    +0.064 A 
DOCKED: ATOM      5  C   UNL d   1       6.847  34.985  -0.856 -0.30 +0.01    +0.066 A 
DOCKED: ATOM      6  C   UNL d   1       5.599  34.618  -0.344 -0.30 -0.00    -0.021 A 
DOCKED: ATOM      7  C   UNL d   1       5.827  33.928   0.823 -0.34 -0.00    -0.025 A 
DOCKED: ATOM      8  C   UNL d   1       7.209  33.851   0.967 -0.35 +0.01    +0.066 A 
DOCKED: ATOM      9  C   UNL d   1       4.747  33.408   1.747 -0.38 +0.01    +0.051 C 
DOCKED: ATOM     10  C   UNL d   1       9.259  33.055   2.164 -0.37 +0.01    +0.066 A 
DOCKED: ATOM     11  C   UNL d   1       9.833  32.222   3.131 -0.45 -0.00    -0.021 A 
DOCKED: ATOM     12  C   UNL d   1      11.203  32.315   2.967 -0.43 +0.00    +0.000 A 
DOCKED: ATOM     13  C   UNL d   1      11.391  33.230   1.894 -0.36 +0.00    +0.070 A 
DOCKED: ATOM     14  C   UNL d   1       9.105  31.352   4.149 -0.59 +0.00    +0.052 C 
DOCKED: ATOM     15  C   UNL d   1      12.801  34.558   0.331 -0.35 +0.01    +0.066 A 
DOCKED: ATOM     16  C   UNL d   1      14.057  35.036  -0.039 -0.42 -0.00    -0.021 A 
DOCKED: ATOM     17  C   UNL d   1      13.851  35.891  -1.121 -0.43 +0.00    +0.000 A 
DOCKED: ATOM     18  C   UNL d   1      12.466  35.869  -1.335 -0.36 +0.01    +0.070 A 
DOCKED: ATOM     19  C   UNL d   1      15.323  34.681   0.701 -0.59 +0.00    +0.052 C 
DOCKED: ATOM     20  C   UNL d   1      10.425  36.633  -2.618 -0.38 +0.00    +0.066 A 
DOCKED: ATOM     21  C   UNL d   1       9.815  37.324  -3.662 -0.39 -0.00    -0.025 A 
DOCKED: ATOM     22  C   UNL d   1       8.467  37.058  -3.570 -0.33 -0.00    -0.021 A 
DOCKED: ATOM     23  C   UNL d   1       8.302  36.225  -2.459 -0.33 +0.01    +0.066 A 
DOCKED: ATOM     24  C   UNL d   1      10.484  38.198  -4.691 -0.50 -0.01    +0.051 C 
DOCKED: ATOM     25  N   UNL d   1       7.836  34.559  -0.032 -0.18 -0.05    -0.248 N 
DOCKED: ATOM     26  N   UNL d   1      10.204  33.679   1.415 -0.22 -0.03    -0.248 N 
DOCKED: ATOM     27  N   UNL d   1      11.837  35.114  -0.398 -0.19 -0.03    -0.248 N 
DOCKED: ATOM     28  N   UNL d   1       9.489  36.006  -1.857 -0.25 -0.04    -0.248 N 
DOCKED: ATOM     29 FE   UNL d   1       9.847  34.852  -0.233 -0.07 +0.00    +0.000 Fe
DOCKED: ATOM     30  O   UNL d   1       9.221  35.601   0.979 -0.62 +0.00    +0.000 OA
DOCKED: ATOM     31  O   UNL d   1      10.327  36.309   0.109 -0.62 +0.00    +0.000 OA
DOCKED: ENDROOT
DOCKED: BRANCH   6  32
DOCKED: ATOM     32  C   UNL d   1       4.238  35.016  -0.855 -0.24 +0.01    +0.052 C 
DOCKED: BRANCH  32  33
DOCKED: ATOM     33  C   UNL d   1       3.730  36.315  -0.238 -0.12 +0.07    +0.115 C 
DOCKED: BRANCH  33  34
DOCKED: ATOM     34  C   UNL d   1       3.132  37.244  -1.265 -0.15 +0.13    +0.139 C 
DOCKED: ATOM     35  O   UNL d   1       2.531  36.780  -2.221 -0.02 -0.44    -0.650 OA
DOCKED: BRANCH  34  36
DOCKED: ATOM     36  O   UNL d   1       3.269  38.583  -1.167 -0.25 -1.05    -0.776 OA
DOCKED: ATOM     37  H   UNL d   1       3.638  39.112  -1.883 +0.03 +0.15    +0.167 HD
DOCKED: ENDBRANCH  34  36
DOCKED: ENDBRANCH  33  34
DOCKED: ENDBRANCH  32  33
DOCKED: ENDBRANCH   6  32
DOCKED: BRANCH  22  38
DOCKED: ATOM     38  C   UNL d   1       7.397  37.627  -4.465 -0.26 +0.00    +0.052 C 
DOCKED: BRANCH  38  39
DOCKED: ATOM     39  C   UNL d   1       7.397  39.154  -4.473 -0.24 +0.00    +0.115 C 
DOCKED: BRANCH  39  40
DOCKED: ATOM     40  C   UNL d   1       6.637  39.737  -3.308 -0.20 +0.02    +0.139 C 
DOCKED: ATOM     41  O   UNL d   1       7.214  40.451  -2.504 -0.07 -0.04    -0.650 OA
DOCKED: BRANCH  40  42
DOCKED: ATOM     42  O   UNL d   1       5.314  39.526  -3.165 +0.06 -0.21    -0.776 OA
DOCKED: ATOM     43  H   UNL d   1       4.969  38.919  -2.500 +0.05 +0.06    +0.167 HD
DOCKED: ENDBRANCH  40  42
DOCKED: ENDBRANCH  39  40
DOCKED: ENDBRANCH  38  39
DOCKED: ENDBRANCH  22  38
DOCKED: BRANCH  12  44
DOCKED: ATOM     44  C   UNL d   1      12.171  31.540   3.837 -0.56 +0.00    +0.004 C 
DOCKED: ATOM     45  C   UNL d   1      13.440  31.232   3.575 -0.67 +0.00    +0.012 C 
DOCKED: ENDBRANCH  12  44
DOCKED: BRANCH  17  46
DOCKED: ATOM     46  C   UNL d   1      14.814  36.743  -1.906 -0.61 +0.00    +0.004 C 
DOCKED: ATOM     47  C   UNL d   1      15.427  37.869  -1.520 -0.65 +0.00    +0.012 C 
DOCKED: ENDBRANCH  17  46
DOCKED: TORSDOF 10
DOCKED: TER
DOCKED: ENDMDL
________________________________________________________________________________


	BEGINNING GENETIC ALGORITHM DOCKING 8 of 100
Run: 8 Seed: 1820353239 1322984019 [ Run 8 of 100 GA/GALS ]
Beginning LAMARCKIAN GENETIC ALGORITHM (LGA), with a maximum of 25000000 energy evaluations.

Final-Value: -18.642


	FINAL GENETIC ALGORITHM DOCKED STATE
	_______________________________________________


Detailed state:  trans 8.759 35.119 -0.987 quatxyzw -0.029735 -0.044578 -0.011520 -0.998497 center 8.287 34.468 -0.670 ntor 10 79.9766 -160.9273 -14.6938 -67.9551 -133.7082 34.7174 -33.2536 -66.1716 177.1096 23.4652
State:	  8.759  35.119  -0.987  -0.543 -0.813 -0.210 -6.284     79.98 -160.93  -14.69  -67.96 -133.71   34.72  -33.25  -66.17  177.11   23.47

DOCKED: MODEL        8
DOCKED: USER    Run = 8
DOCKED: USER    DPF = D:/Protein_go_brrr/autodock/final/2DN3/heme_O2/dock.dpf
DOCKED: USER  
DOCKED: USER    Estimated Free Energy of Binding    =  -13.97 kcal/mol  [=(1)+(2)+(3)-(4)]
DOCKED: USER    Estimated Inhibition Constant, Ki   =   57.19 pM (picomolar)  [Temperature = 298.15 K]
DOCKED: USER    
DOCKED: USER    (1) Final Intermolecular Energy     =  -16.96 kcal/mol
DOCKED: USER        vdW + Hbond + desolv Energy     =  -15.32 kcal/mol
DOCKED: USER        Electrostatic Energy            =   -1.63 kcal/mol
DOCKED: USER    (2) Final Total Internal Energy     =   -1.69 kcal/mol
DOCKED: USER    (3) Torsional Free Energy           =   +2.98 kcal/mol
DOCKED: USER    (4) Unbound System's Energy  [=(2)] =   -1.69 kcal/mol
DOCKED: USER    
DOCKED: USER    
DOCKED: USER    NEWDPF move heme_O2_opt.pdbqt
DOCKED: USER    NEWDPF about 8.287000 34.468000 -0.670000
DOCKED: USER    NEWDPF tran0 8.759093 35.118609 -0.987233
DOCKED: USER    NEWDPF quaternion0 -0.029735 -0.044578 -0.011520 -0.998497
DOCKED: USER    NEWDPF axisangle0 -0.542515 -0.813329 -0.210175 -6.283800
DOCKED: USER    NEWDPF quat0 -0.542515 -0.813329 -0.210175 -6.283800
DOCKED: USER    NEWDPF dihe0 79.98 -160.93 -14.69 -67.96 -133.71 34.72 -33.25 -66.17 177.11 23.47 
DOCKED: USER  keepresnum = 1 
DOCKED: USER  
DOCKED: REMARK  10 active torsions:
DOCKED: REMARK  status: ('A' for Active; 'I' for Inactive)
DOCKED: REMARK    1  A    between atoms: C_6  and  C_10 
DOCKED: REMARK    2  A    between atoms: C_10  and  C_11 
DOCKED: REMARK    3  A    between atoms: C_11  and  C_12 
DOCKED: REMARK    4  A    between atoms: C_12  and  O_14 
DOCKED: REMARK    5  A    between atoms: C_17  and  C_20 
DOCKED: REMARK    6  A    between atoms: C_24  and  C_27 
DOCKED: REMARK    7  A    between atoms: C_31  and  C_34 
DOCKED: REMARK    8  A    between atoms: C_34  and  C_35 
DOCKED: REMARK    9  A    between atoms: C_35  and  C_36 
DOCKED: REMARK   10  A    between atoms: C_36  and  O_38 
DOCKED: USER                              x       y       z     vdW  Elec       q    Type
DOCKED: USER                           _______ _______ _______ _____ _____    ______ ____
DOCKED: ROOT
DOCKED: ATOM      1  C   UNL d   1       6.983  35.709  -1.986 -0.25 +0.01    +0.064 A 
DOCKED: ATOM      2  C   UNL d   1       7.756  33.188   1.965 -0.40 +0.01    +0.064 A 
DOCKED: ATOM      3  C   UNL d   1      12.511  33.595   1.405 -0.42 +0.00    +0.064 C 
DOCKED: ATOM      4  C   UNL d   1      11.725  36.594  -2.396 -0.39 +0.00    +0.064 A 
DOCKED: ATOM      5  C   UNL d   1       6.805  34.992  -0.864 -0.30 +0.01    +0.066 A 
DOCKED: ATOM      6  C   UNL d   1       5.554  34.626  -0.359 -0.30 -0.00    -0.021 A 
DOCKED: ATOM      7  C   UNL d   1       5.775  33.934   0.808 -0.34 -0.00    -0.025 A 
DOCKED: ATOM      8  C   UNL d   1       7.157  33.853   0.958 -0.35 +0.01    +0.066 A 
DOCKED: ATOM      9  C   UNL d   1       4.690  33.415   1.726 -0.38 +0.01    +0.051 C 
DOCKED: ATOM     10  C   UNL d   1       9.199  33.049   2.162 -0.37 +0.01    +0.066 A 
DOCKED: ATOM     11  C   UNL d   1       9.767  32.212   3.129 -0.45 -0.00    -0.021 A 
DOCKED: ATOM     12  C   UNL d   1      11.138  32.302   2.972 -0.43 +0.00    +0.000 A 
DOCKED: ATOM     13  C   UNL d   1      11.333  33.218   1.902 -0.36 +0.00    +0.070 A 
DOCKED: ATOM     14  C   UNL d   1       9.032  31.342   4.142 -0.59 +0.00    +0.052 C 
DOCKED: ATOM     15  C   UNL d   1      12.753  34.546   0.347 -0.35 +0.01    +0.066 A 
DOCKED: ATOM     16  C   UNL d   1      14.012  35.021  -0.017 -0.42 -0.00    -0.021 A 
DOCKED: ATOM     17  C   UNL d   1      13.813  35.879  -1.098 -0.43 +0.00    +0.000 A 
DOCKED: ATOM     18  C   UNL d   1      12.428  35.861  -1.318 -0.36 +0.01    +0.070 A 
DOCKED: ATOM     19  C   UNL d   1      15.274  34.662   0.728 -0.59 +0.00    +0.052 C 
DOCKED: ATOM     20  C   UNL d   1      10.395  36.633  -2.608 -0.38 +0.01    +0.066 A 
DOCKED: ATOM     21  C   UNL d   1       9.792  37.328  -3.653 -0.39 -0.00    -0.025 A 
DOCKED: ATOM     22  C   UNL d   1       8.443  37.065  -3.568 -0.33 -0.00    -0.021 A 
DOCKED: ATOM     23  C   UNL d   1       8.271  36.231  -2.459 -0.33 +0.01    +0.066 A 
DOCKED: ATOM     24  C   UNL d   1      10.467  38.202  -4.678 -0.50 -0.01    +0.051 C 
DOCKED: ATOM     25  N   UNL d   1       7.789  34.561  -0.038 -0.20 -0.05    -0.248 N 
DOCKED: ATOM     26  N   UNL d   1      10.149  33.671   1.418 -0.22 -0.03    -0.248 N 
DOCKED: ATOM     27  N   UNL d   1      11.794  35.106  -0.385 -0.18 -0.04    -0.248 N 
DOCKED: ATOM     28  N   UNL d   1       9.455  36.007  -1.852 -0.25 -0.05    -0.248 N 
DOCKED: ATOM     29 FE   UNL d   1       9.802  34.849  -0.229 -0.08 +0.00    +0.000 Fe
DOCKED: ATOM     30  O   UNL d   1       9.173  35.597   0.982 -0.61 +0.00    +0.000 OA
DOCKED: ATOM     31  O   UNL d   1      10.285  36.304   0.118 -0.63 +0.00    +0.000 OA
DOCKED: ENDROOT
DOCKED: BRANCH   6  32
DOCKED: ATOM     32  C   UNL d   1       4.197  35.029  -0.875 -0.24 +0.02    +0.052 C 
DOCKED: BRANCH  32  33
DOCKED: ATOM     33  C   UNL d   1       3.582  36.183  -0.089 -0.03 +0.07    +0.115 C 
DOCKED: BRANCH  33  34
DOCKED: ATOM     34  C   UNL d   1       2.782  37.114  -0.965 -0.03 +0.15    +0.139 C 
DOCKED: ATOM     35  O   UNL d   1       1.679  36.772  -1.360 -0.32 -0.77    -0.650 OA
DOCKED: BRANCH  34  36
DOCKED: ATOM     36  O   UNL d   1       3.269  38.312  -1.348 -0.15 -0.92    -0.776 OA
DOCKED: ATOM     37  H   UNL d   1       3.892  38.400  -2.079 +0.04 +0.11    +0.167 HD
DOCKED: ENDBRANCH  34  36
DOCKED: ENDBRANCH  33  34
DOCKED: ENDBRANCH  32  33
DOCKED: ENDBRANCH   6  32
DOCKED: BRANCH  22  38
DOCKED: ATOM     38  C   UNL d   1       7.378  37.639  -4.466 -0.26 +0.00    +0.052 C 
DOCKED: BRANCH  38  39
DOCKED: ATOM     39  C   UNL d   1       6.520  36.556  -5.117 -0.22 +0.01    +0.115 C 
DOCKED: BRANCH  39  40
DOCKED: ATOM     40  C   UNL d   1       5.096  36.572  -4.620 -0.14 +0.02    +0.139 C 
DOCKED: ATOM     41  O   UNL d   1       4.290  35.770  -5.063 -0.01 -0.11    -0.650 OA
DOCKED: BRANCH  40  42
DOCKED: ATOM     42  O   UNL d   1       4.706  37.426  -3.654 +0.05 -0.20    -0.776 OA
DOCKED: ATOM     43  H   UNL d   1       3.924  37.256  -3.115 +0.04 +0.06    +0.167 HD
DOCKED: ENDBRANCH  40  42
DOCKED: ENDBRANCH  39  40
DOCKED: ENDBRANCH  38  39
DOCKED: ENDBRANCH  22  38
DOCKED: BRANCH  12  44
DOCKED: ATOM     44  C   UNL d   1      12.100  31.522   3.844 -0.56 +0.00    +0.004 C 
DOCKED: ATOM     45  C   UNL d   1      13.378  31.237   3.600 -0.66 +0.00    +0.012 C 
DOCKED: ENDBRANCH  12  44
DOCKED: BRANCH  17  46
DOCKED: ATOM     46  C   UNL d   1      14.781  36.729  -1.877 -0.60 +0.00    +0.004 C 
DOCKED: ATOM     47  C   UNL d   1      15.362  37.877  -1.503 -0.64 +0.00    +0.012 C 
DOCKED: ENDBRANCH  17  46
DOCKED: TORSDOF 10
DOCKED: TER
DOCKED: ENDMDL
________________________________________________________________________________


	BEGINNING GENETIC ALGORITHM DOCKING 9 of 100
Run: 9 Seed: 352425339 1767618311 [ Run 9 of 100 GA/GALS ]
Beginning LAMARCKIAN GENETIC ALGORITHM (LGA), with a maximum of 25000000 energy evaluations.

Final-Value: -15.138


	FINAL GENETIC ALGORITHM DOCKED STATE
	_______________________________________________


Detailed state:  trans 43.032 27.533 17.984 quatxyzw 0.509788 0.843594 -0.166749 0.025680 center 8.287 34.468 -0.670 ntor 10 -46.8434 -120.6919 98.1469 -148.0783 -177.3518 179.6514 79.3016 56.3309 -100.3607 -179.0290
State:	 43.032  27.533  17.984   0.510  0.844 -0.167 177.057    -46.84 -120.69   98.15 -148.08 -177.35  179.65   79.30   56.33 -100.36 -179.03

DOCKED: MODEL        9
DOCKED: USER    Run = 9
DOCKED: USER    DPF = D:/Protein_go_brrr/autodock/final/2DN3/heme_O2/dock.dpf
DOCKED: USER  
DOCKED: USER    Estimated Free Energy of Binding    =  -10.40 kcal/mol  [=(1)+(2)+(3)-(4)]
DOCKED: USER    Estimated Inhibition Constant, Ki   =   23.84 nM (nanomolar)  [Temperature = 298.15 K]
DOCKED: USER    
DOCKED: USER    (1) Final Intermolecular Energy     =  -13.38 kcal/mol
DOCKED: USER        vdW + Hbond + desolv Energy     =  -11.26 kcal/mol
DOCKED: USER        Electrostatic Energy            =   -2.12 kcal/mol
DOCKED: USER    (2) Final Total Internal Energy     =   -1.76 kcal/mol
DOCKED: USER    (3) Torsional Free Energy           =   +2.98 kcal/mol
DOCKED: USER    (4) Unbound System's Energy  [=(2)] =   -1.76 kcal/mol
DOCKED: USER    
DOCKED: USER    
DOCKED: USER    NEWDPF move heme_O2_opt.pdbqt
DOCKED: USER    NEWDPF about 8.287000 34.468000 -0.670000
DOCKED: USER    NEWDPF tran0 43.032036 27.533360 17.984202
DOCKED: USER    NEWDPF quaternion0 0.509788 0.843594 -0.166749 0.025680
DOCKED: USER    NEWDPF axisangle0 0.509956 0.843872 -0.166804 177.056936
DOCKED: USER    NEWDPF quat0 0.509956 0.843872 -0.166804 177.056936
DOCKED: USER    NEWDPF dihe0 -46.84 -120.69 98.15 -148.08 -177.35 179.65 79.30 56.33 -100.36 -179.03 
DOCKED: USER  keepresnum = 1 
DOCKED: USER  
DOCKED: REMARK  10 active torsions:
DOCKED: REMARK  status: ('A' for Active; 'I' for Inactive)
DOCKED: REMARK    1  A    between atoms: C_6  and  C_10 
DOCKED: REMARK    2  A    between atoms: C_10  and  C_11 
DOCKED: REMARK    3  A    between atoms: C_11  and  C_12 
DOCKED: REMARK    4  A    between atoms: C_12  and  O_14 
DOCKED: REMARK    5  A    between atoms: C_17  and  C_20 
DOCKED: REMARK    6  A    between atoms: C_24  and  C_27 
DOCKED: REMARK    7  A    between atoms: C_31  and  C_34 
DOCKED: REMARK    8  A    between atoms: C_34  and  C_35 
DOCKED: REMARK    9  A    between atoms: C_35  and  C_36 
DOCKED: REMARK   10  A    between atoms: C_36  and  O_38 
DOCKED: USER                              x       y       z     vdW  Elec       q    Type
DOCKED: USER                           _______ _______ _______ _____ _____    ______ ____
DOCKED: ROOT
DOCKED: ATOM      1  C   UNL d   1      44.611  26.369  18.790 -0.18 +0.03    +0.064 A 
DOCKED: ATOM      2  C   UNL d   1      40.935  25.286  15.984 -0.35 +0.02    +0.064 A 
DOCKED: ATOM      3  C   UNL d   1      39.376  29.829  16.117 -0.16 +0.02    +0.064 C 
DOCKED: ATOM      4  C   UNL d   1      43.417  31.057  18.613 -0.33 +0.02    +0.064 A 
DOCKED: ATOM      5  C   UNL d   1      43.739  25.704  18.015 -0.26 +0.03    +0.066 A 
DOCKED: ATOM      6  C   UNL d   1      43.822  24.336  17.740 -0.30 -0.01    -0.021 A 
DOCKED: ATOM      7  C   UNL d   1      42.783  24.030  16.892 -0.37 -0.01    -0.025 A 
DOCKED: ATOM      8  C   UNL d   1      42.066  25.209  16.712 -0.34 +0.02    +0.066 A 
DOCKED: ATOM      9  C   UNL d   1      42.538  22.668  16.280 -0.40 +0.01    +0.051 C 
DOCKED: ATOM     10  C   UNL d   1      40.128  26.489  15.778 -0.28 +0.02    +0.066 A 
DOCKED: ATOM     11  C   UNL d   1      38.877  26.478  15.151 -0.28 -0.00    -0.021 A 
DOCKED: ATOM     12  C   UNL d   1      38.403  27.776  15.195 -0.39 +0.00    +0.000 A 
DOCKED: ATOM     13  C   UNL d   1      39.420  28.524  15.851 -0.18 +0.02    +0.070 A 
DOCKED: ATOM     14  C   UNL d   1      38.152  25.275  14.559 -0.37 +0.01    +0.052 C 
DOCKED: ATOM     15  C   UNL d   1      40.399  30.630  16.746 -0.31 +0.02    +0.066 A 
DOCKED: ATOM     16  C   UNL d   1      40.362  32.020  16.849 -0.35 -0.00    -0.021 A 
DOCKED: ATOM     17  C   UNL d   1      41.505  32.393  17.557 -0.50 +0.00    +0.000 A 
DOCKED: ATOM     18  C   UNL d   1      42.161  31.186  17.838 -0.40 +0.02    +0.070 A 
DOCKED: ATOM     19  C   UNL d   1      39.281  32.864  16.222 -0.38 +0.01    +0.052 C 
DOCKED: ATOM     20  C   UNL d   1      44.095  29.920  18.864 -0.19 +0.03    +0.066 A 
DOCKED: ATOM     21  C   UNL d   1      45.265  29.859  19.615 -0.23 -0.02    -0.025 A 
DOCKED: ATOM     22  C   UNL d   1      45.604  28.527  19.699 -0.20 -0.02    -0.021 A 
DOCKED: ATOM     23  C   UNL d   1      44.635  27.824  18.978 -0.09 +0.04    +0.066 A 
DOCKED: ATOM     24  C   UNL d   1      46.022  31.012  20.220 -0.19 +0.03    +0.051 C 
DOCKED: ATOM     25  N   UNL d   1      42.693  26.254  17.351 -0.21 -0.08    -0.248 N 
DOCKED: ATOM     26  N   UNL d   1      40.468  27.734  16.197 -0.25 -0.09    -0.248 N 
DOCKED: ATOM     27  N   UNL d   1      41.514  30.134  17.274 -0.24 -0.08    -0.248 N 
DOCKED: ATOM     28  N   UNL d   1      43.745  28.679  18.433 +0.04 -0.11    -0.248 N 
DOCKED: ATOM     29 FE   UNL d   1      42.117  28.213  17.323 -0.08 +0.00    +0.000 Fe
DOCKED: ATOM     30  O   UNL d   1      42.656  27.697  15.957 -0.42 +0.00    +0.000 OA
DOCKED: ATOM     31  O   UNL d   1      43.034  29.145  16.449 -0.42 +0.00    +0.000 OA
DOCKED: ENDROOT
DOCKED: BRANCH   6  32
DOCKED: ATOM     32  C   UNL d   1      44.912  23.377  18.144 -0.27 +0.03    +0.052 C 
DOCKED: BRANCH  32  33
DOCKED: ATOM     33  C   UNL d   1      46.190  24.085  18.585 -0.17 +0.08    +0.115 C 
DOCKED: BRANCH  33  34
DOCKED: ATOM     34  C   UNL d   1      47.261  24.053  17.523 -0.16 +0.16    +0.139 C 
DOCKED: ATOM     35  O   UNL d   1      46.943  24.058  16.344 -0.22 -1.21    -0.650 OA
DOCKED: BRANCH  34  36
DOCKED: ATOM     36  O   UNL d   1      48.569  23.989  17.845 +0.04 -0.81    -0.776 OA
DOCKED: ATOM     37  H   UNL d   1      48.957  24.556  18.522 +0.03 +0.12    +0.167 HD
DOCKED: ENDBRANCH  34  36
DOCKED: ENDBRANCH  33  34
DOCKED: ENDBRANCH  32  33
DOCKED: ENDBRANCH   6  32
DOCKED: BRANCH  22  38
DOCKED: ATOM     38  C   UNL d   1      46.829  27.974  20.382 -0.13 +0.05    +0.052 C 
DOCKED: BRANCH  38  39
DOCKED: ATOM     39  C   UNL d   1      48.095  28.162  19.549 -0.07 +0.06    +0.115 C 
DOCKED: BRANCH  39  40
DOCKED: ATOM     40  C   UNL d   1      48.821  26.864  19.303 -0.05 +0.07    +0.139 C 
DOCKED: ATOM     41  O   UNL d   1      48.842  26.007  20.172 +0.03 -0.33    -0.650 OA
DOCKED: BRANCH  40  42
DOCKED: ATOM     42  O   UNL d   1      49.408  26.608  18.118 +0.01 -0.37    -0.776 OA
DOCKED: ATOM     43  H   UNL d   1      49.127  25.870  17.564 +0.03 +0.10    +0.167 HD
DOCKED: ENDBRANCH  40  42
DOCKED: ENDBRANCH  39  40
DOCKED: ENDBRANCH  38  39
DOCKED: ENDBRANCH  22  38
DOCKED: BRANCH  12  44
DOCKED: ATOM     44  C   UNL d   1      37.058  28.161  14.616 -0.47 +0.00    +0.004 C 
DOCKED: ATOM     45  C   UNL d   1      36.775  28.501  13.359 -0.53 +0.00    +0.012 C 
DOCKED: ENDBRANCH  12  44
DOCKED: BRANCH  17  46
DOCKED: ATOM     46  C   UNL d   1      42.040  33.751  17.925 -0.38 +0.00    +0.004 C 
DOCKED: ATOM     47  C   UNL d   1      43.307  34.101  18.181 -0.35 +0.00    +0.012 C 
DOCKED: ENDBRANCH  17  46
DOCKED: TORSDOF 10
DOCKED: TER
DOCKED: ENDMDL
________________________________________________________________________________


	BEGINNING GENETIC ALGORITHM DOCKING 10 of 100
Run: 10 Seed: 1031640562 791329124 [ Run 10 of 100 GA/GALS ]
Beginning LAMARCKIAN GENETIC ALGORITHM (LGA), with a maximum of 25000000 energy evaluations.

Final-Value: -18.879


	FINAL GENETIC ALGORITHM DOCKED STATE
	_______________________________________________


Detailed state:  trans 41.120 28.882 16.151 quatxyzw 0.358681 -0.379341 -0.850074 0.069448 center 8.287 34.468 -0.670 ntor 10 -93.6409 151.8190 31.5533 -68.8651 -180.0000 -85.1257 -14.8393 45.9409 43.2807 165.4194
State:	 41.120  28.882  16.151   0.360 -0.380 -0.852 172.035    -93.64  151.82   31.55  -68.87 -180.00  -85.13  -14.84   45.94   43.28  165.42

DOCKED: MODEL       10
DOCKED: USER    Run = 10
DOCKED: USER    DPF = D:/Protein_go_brrr/autodock/final/2DN3/heme_O2/dock.dpf
DOCKED: USER  
DOCKED: USER    Estimated Free Energy of Binding    =  -15.44 kcal/mol  [=(1)+(2)+(3)-(4)]
DOCKED: USER    Estimated Inhibition Constant, Ki   =    4.83 pM (picomolar)  [Temperature = 298.15 K]
DOCKED: USER    
DOCKED: USER    (1) Final Intermolecular Energy     =  -18.42 kcal/mol
DOCKED: USER        vdW + Hbond + desolv Energy     =  -16.62 kcal/mol
DOCKED: USER        Electrostatic Energy            =   -1.80 kcal/mol
DOCKED: USER    (2) Final Total Internal Energy     =   -0.46 kcal/mol
DOCKED: USER    (3) Torsional Free Energy           =   +2.98 kcal/mol
DOCKED: USER    (4) Unbound System's Energy  [=(2)] =   -0.46 kcal/mol
DOCKED: USER    
DOCKED: USER    
DOCKED: USER    NEWDPF move heme_O2_opt.pdbqt
DOCKED: USER    NEWDPF about 8.287000 34.468000 -0.670000
DOCKED: USER    NEWDPF tran0 41.120153 28.882137 16.150895
DOCKED: USER    NEWDPF quaternion0 0.358681 -0.379341 -0.850074 0.069448
DOCKED: USER    NEWDPF axisangle0 0.359549 -0.380259 -0.852131 172.035448
DOCKED: USER    NEWDPF quat0 0.359549 -0.380259 -0.852131 172.035448
DOCKED: USER    NEWDPF dihe0 -93.64 151.82 31.55 -68.87 -180.00 -85.13 -14.84 45.94 43.28 165.42 
DOCKED: USER  keepresnum = 1 
DOCKED: USER  
DOCKED: REMARK  10 active torsions:
DOCKED: REMARK  status: ('A' for Active; 'I' for Inactive)
DOCKED: REMARK    1  A    between atoms: C_6  and  C_10 
DOCKED: REMARK    2  A    between atoms: C_10  and  C_11 
DOCKED: REMARK    3  A    between atoms: C_11  and  C_12 
DOCKED: REMARK    4  A    between atoms: C_12  and  O_14 
DOCKED: REMARK    5  A    between atoms: C_17  and  C_20 
DOCKED: REMARK    6  A    between atoms: C_24  and  C_27 
DOCKED: REMARK    7  A    between atoms: C_31  and  C_34 
DOCKED: REMARK    8  A    between atoms: C_34  and  C_35 
DOCKED: REMARK    9  A    between atoms: C_35  and  C_36 
DOCKED: REMARK   10  A    between atoms: C_36  and  O_38 
DOCKED: USER                              x       y       z     vdW  Elec       q    Type
DOCKED: USER                           _______ _______ _______ _____ _____    ______ ____
DOCKED: ROOT
DOCKED: ATOM      1  C   UNL d   1      42.702  28.191  17.384 -0.16 +0.02    +0.064 A 
DOCKED: ATOM      2  C   UNL d   1      40.839  32.502  16.669 -0.42 +0.01    +0.064 A 
DOCKED: ATOM      3  C   UNL d   1      37.722  30.726  13.471 -0.41 +0.01    +0.064 C 
DOCKED: ATOM      4  C   UNL d   1      39.310  26.212  14.553 -0.42 +0.01    +0.064 A 
DOCKED: ATOM      5  C   UNL d   1      42.448  29.508  17.452 -0.23 +0.02    +0.066 A 
DOCKED: ATOM      6  C   UNL d   1      43.160  30.402  18.258 -0.30 -0.01    -0.021 A 
DOCKED: ATOM      7  C   UNL d   1      42.593  31.643  18.084 -0.43 -0.01    -0.025 A 
DOCKED: ATOM      8  C   UNL d   1      41.582  31.482  17.141 -0.40 +0.01    +0.066 A 
DOCKED: ATOM      9  C   UNL d   1      43.007  32.895  18.827 -0.40 +0.01    +0.051 C 
DOCKED: ATOM     10  C   UNL d   1      39.781  32.398  15.663 -0.39 +0.01    +0.066 A 
DOCKED: ATOM     11  C   UNL d   1      39.153  33.510  15.090 -0.44 -0.00    -0.021 A 
DOCKED: ATOM     12  C   UNL d   1      38.264  33.019  14.152 -0.41 +0.00    +0.000 A 
DOCKED: ATOM     13  C   UNL d   1      38.393  31.604  14.217 -0.37 +0.01    +0.070 A 
DOCKED: ATOM     14  C   UNL d   1      39.411  34.979  15.403 -0.54 +0.01    +0.052 C 
DOCKED: ATOM     15  C   UNL d   1      37.799  29.286  13.531 -0.38 +0.01    +0.066 A 
DOCKED: ATOM     16  C   UNL d   1      36.952  28.420  12.840 -0.50 -0.00    -0.021 A 
DOCKED: ATOM     17  C   UNL d   1      37.385  27.127  13.134 -0.47 +0.00    +0.000 A 
DOCKED: ATOM     18  C   UNL d   1      38.480  27.304  13.992 -0.37 +0.01    +0.070 A 
DOCKED: ATOM     19  C   UNL d   1      35.783  28.897  12.015 -0.65 +0.01    +0.052 C 
DOCKED: ATOM     20  C   UNL d   1      40.340  26.344  15.412 -0.38 +0.02    +0.066 A 
DOCKED: ATOM     21  C   UNL d   1      41.096  25.279  15.892 -0.40 -0.01    -0.025 A 
DOCKED: ATOM     22  C   UNL d   1      42.084  25.826  16.679 -0.34 -0.01    -0.021 A 
DOCKED: ATOM     23  C   UNL d   1      41.882  27.210  16.664 -0.34 +0.02    +0.066 A 
DOCKED: ATOM     24  C   UNL d   1      40.885  23.812  15.617 -0.55 +0.01    +0.051 C 
DOCKED: ATOM     25  N   UNL d   1      41.451  30.156  16.801 -0.19 -0.08    -0.248 N 
DOCKED: ATOM     26  N   UNL d   1      39.315  31.235  15.142 -0.22 -0.05    -0.248 N 
DOCKED: ATOM     27  N   UNL d   1      38.670  28.616  14.281 -0.21 -0.06    -0.248 N 
DOCKED: ATOM     28  N   UNL d   1      40.793  27.516  15.929 -0.24 -0.08    -0.248 N 
DOCKED: ATOM     29 FE   UNL d   1      40.058  29.361  15.537 -0.06 +0.00    +0.000 Fe
DOCKED: ATOM     30  O   UNL d   1      39.464  29.886  16.876 -0.67 +0.00    +0.000 OA
DOCKED: ATOM     31  O   UNL d   1      38.923  28.543  16.255 -0.60 +0.00    +0.000 OA
DOCKED: ENDROOT
DOCKED: BRANCH   6  32
DOCKED: ATOM     32  C   UNL d   1      44.241  30.083  19.257 -0.28 +0.03    +0.052 C 
DOCKED: BRANCH  32  33
DOCKED: ATOM     33  C   UNL d   1      45.513  30.895  19.033 -0.21 +0.05    +0.115 C 
DOCKED: BRANCH  33  34
DOCKED: ATOM     34  C   UNL d   1      46.420  30.889  20.239 -0.16 +0.09    +0.139 C 
DOCKED: ATOM     35  O   UNL d   1      46.412  29.930  20.994 -0.29 -0.85    -0.650 OA
DOCKED: BRANCH  34  36
DOCKED: ATOM     36  O   UNL d   1      47.223  31.935  20.520 +0.03 -0.38    -0.776 OA
DOCKED: ATOM     37  H   UNL d   1      48.138  31.973  20.217 +0.03 +0.06    +0.167 HD
DOCKED: ENDBRANCH  34  36
DOCKED: ENDBRANCH  33  34
DOCKED: ENDBRANCH  32  33
DOCKED: ENDBRANCH   6  32
DOCKED: BRANCH  22  38
DOCKED: ATOM     38  C   UNL d   1      43.122  25.053  17.451 -0.36 +0.02    +0.052 C 
DOCKED: BRANCH  38  39
DOCKED: ATOM     39  C   UNL d   1      42.683  24.762  18.885 -0.40 +0.04    +0.115 C 
DOCKED: BRANCH  39  40
DOCKED: ATOM     40  C   UNL d   1      43.779  25.023  19.887 -0.29 +0.07    +0.139 C 
DOCKED: ATOM     41  O   UNL d   1      44.263  26.140  19.979 +0.01 -0.39    -0.650 OA
DOCKED: BRANCH  40  42
DOCKED: ATOM     42  O   UNL d   1      44.202  24.056  20.724 -0.50 -0.57    -0.776 OA
DOCKED: ATOM     43  H   UNL d   1      45.091  24.065  21.098 +0.05 +0.10    +0.167 HD
DOCKED: ENDBRANCH  40  42
DOCKED: ENDBRANCH  39  40
DOCKED: ENDBRANCH  38  39
DOCKED: ENDBRANCH  22  38
DOCKED: BRANCH  12  44
DOCKED: ATOM     44  C   UNL d   1      37.397  33.932  13.311 -0.48 +0.00    +0.004 C 
DOCKED: ATOM     45  C   UNL d   1      36.210  33.663  12.768 -0.59 +0.00    +0.012 C 
DOCKED: ENDBRANCH  12  44
DOCKED: BRANCH  17  46
DOCKED: ATOM     46  C   UNL d   1      36.834  25.785  12.732 -0.58 +0.00    +0.004 C 
DOCKED: ATOM     47  C   UNL d   1      35.751  25.158  13.209 -0.71 +0.00    +0.012 C 
DOCKED: ENDBRANCH  17  46
DOCKED: TORSDOF 10
DOCKED: TER
DOCKED: ENDMDL
________________________________________________________________________________


	BEGINNING GENETIC ALGORITHM DOCKING 11 of 100
Run: 11 Seed: 1302798774 1891344827 [ Run 11 of 100 GA/GALS ]
Beginning LAMARCKIAN GENETIC ALGORITHM (LGA), with a maximum of 25000000 energy evaluations.

Final-Value: -18.572


	FINAL GENETIC ALGORITHM DOCKED STATE
	_______________________________________________


Detailed state:  trans 8.971 35.067 -1.009 quatxyzw 0.023308 0.061791 0.042118 0.996928 center 8.287 34.468 -0.670 ntor 10 39.3331 -127.1426 5.9459 -116.5498 -122.3135 148.6785 -22.0597 43.5563 165.2111 175.8182
State:	  8.971  35.067  -1.009   0.298  0.789  0.538  8.985     39.33 -127.14    5.95 -116.55 -122.31  148.68  -22.06   43.56  165.21  175.82

DOCKED: MODEL       11
DOCKED: USER    Run = 11
DOCKED: USER    DPF = D:/Protein_go_brrr/autodock/final/2DN3/heme_O2/dock.dpf
DOCKED: USER  
DOCKED: USER    Estimated Free Energy of Binding    =  -14.13 kcal/mol  [=(1)+(2)+(3)-(4)]
DOCKED: USER    Estimated Inhibition Constant, Ki   =   44.26 pM (picomolar)  [Temperature = 298.15 K]
DOCKED: USER    
DOCKED: USER    (1) Final Intermolecular Energy     =  -17.11 kcal/mol
DOCKED: USER        vdW + Hbond + desolv Energy     =  -15.30 kcal/mol
DOCKED: USER        Electrostatic Energy            =   -1.80 kcal/mol
DOCKED: USER    (2) Final Total Internal Energy     =   -1.46 kcal/mol
DOCKED: USER    (3) Torsional Free Energy           =   +2.98 kcal/mol
DOCKED: USER    (4) Unbound System's Energy  [=(2)] =   -1.46 kcal/mol
DOCKED: USER    
DOCKED: USER    
DOCKED: USER    NEWDPF move heme_O2_opt.pdbqt
DOCKED: USER    NEWDPF about 8.287000 34.468000 -0.670000
DOCKED: USER    NEWDPF tran0 8.970792 35.066862 -1.008559
DOCKED: USER    NEWDPF quaternion0 0.023308 0.061791 0.042118 0.996928
DOCKED: USER    NEWDPF axisangle0 0.297568 0.788871 0.537714 8.984951
DOCKED: USER    NEWDPF quat0 0.297568 0.788871 0.537714 8.984951
DOCKED: USER    NEWDPF dihe0 39.33 -127.14 5.95 -116.55 -122.31 148.68 -22.06 43.56 165.21 175.82 
DOCKED: USER  keepresnum = 1 
DOCKED: USER  
DOCKED: REMARK  10 active torsions:
DOCKED: REMARK  status: ('A' for Active; 'I' for Inactive)
DOCKED: REMARK    1  A    between atoms: C_6  and  C_10 
DOCKED: REMARK    2  A    between atoms: C_10  and  C_11 
DOCKED: REMARK    3  A    between atoms: C_11  and  C_12 
DOCKED: REMARK    4  A    between atoms: C_12  and  O_14 
DOCKED: REMARK    5  A    between atoms: C_17  and  C_20 
DOCKED: REMARK    6  A    between atoms: C_24  and  C_27 
DOCKED: REMARK    7  A    between atoms: C_31  and  C_34 
DOCKED: REMARK    8  A    between atoms: C_34  and  C_35 
DOCKED: REMARK    9  A    between atoms: C_35  and  C_36 
DOCKED: REMARK   10  A    between atoms: C_36  and  O_38 
DOCKED: USER                              x       y       z     vdW  Elec       q    Type
DOCKED: USER                           _______ _______ _______ _____ _____    ______ ____
DOCKED: ROOT
DOCKED: ATOM      1  C   UNL d   1       7.271  35.776  -2.060 -0.25 +0.01    +0.064 A 
DOCKED: ATOM      2  C   UNL d   1       7.747  33.158   1.874 -0.39 +0.01    +0.064 A 
DOCKED: ATOM      3  C   UNL d   1      12.535  33.288   1.492 -0.43 +0.00    +0.064 C 
DOCKED: ATOM      4  C   UNL d   1      12.069  36.382  -2.286 -0.41 +0.00    +0.064 A 
DOCKED: ATOM      5  C   UNL d   1       7.010  35.055  -0.958 -0.30 +0.01    +0.066 A 
DOCKED: ATOM      6  C   UNL d   1       5.721  34.758  -0.504 -0.30 -0.00    -0.021 A 
DOCKED: ATOM      7  C   UNL d   1       5.858  34.037   0.659 -0.34 -0.00    -0.025 A 
DOCKED: ATOM      8  C   UNL d   1       7.226  33.872   0.857 -0.34 +0.01    +0.066 A 
DOCKED: ATOM      9  C   UNL d   1       4.710  33.572   1.528 -0.37 +0.01    +0.051 C 
DOCKED: ATOM     10  C   UNL d   1       9.171  32.931   2.120 -0.38 +0.01    +0.066 A 
DOCKED: ATOM     11  C   UNL d   1       9.652  32.048   3.094 -0.46 -0.00    -0.021 A 
DOCKED: ATOM     12  C   UNL d   1      11.031  32.058   2.988 -0.44 +0.00    +0.000 A 
DOCKED: ATOM     13  C   UNL d   1      11.319  32.976   1.940 -0.37 +0.00    +0.070 A 
DOCKED: ATOM     14  C   UNL d   1       8.830  31.210   4.066 -0.58 +0.00    +0.052 C 
DOCKED: ATOM     15  C   UNL d   1      12.871  34.238   0.459 -0.36 +0.01    +0.066 A 
DOCKED: ATOM     16  C   UNL d   1      14.170  34.642   0.149 -0.45 -0.00    -0.021 A 
DOCKED: ATOM     17  C   UNL d   1      14.061  35.525  -0.925 -0.43 +0.00    +0.000 A 
DOCKED: ATOM     18  C   UNL d   1      12.687  35.593  -1.195 -0.36 +0.01    +0.070 A 
DOCKED: ATOM     19  C   UNL d   1      15.379  34.197   0.932 -0.60 +0.00    +0.052 C 
DOCKED: ATOM     20  C   UNL d   1      10.753  36.503  -2.545 -0.39 +0.00    +0.066 A 
DOCKED: ATOM     21  C   UNL d   1      10.230  37.248  -3.599 -0.41 -0.00    -0.025 A 
DOCKED: ATOM     22  C   UNL d   1       8.866  37.065  -3.567 -0.34 -0.00    -0.021 A 
DOCKED: ATOM     23  C   UNL d   1       8.604  36.226  -2.479 -0.35 +0.01    +0.066 A 
DOCKED: ATOM     24  C   UNL d   1      10.994  38.094  -4.585 -0.43 -0.00    +0.051 C 
DOCKED: ATOM     25  N   UNL d   1       7.935  34.555  -0.104 -0.13 -0.06    -0.248 N 
DOCKED: ATOM     26  N   UNL d   1      10.183  33.506   1.421 -0.22 -0.03    -0.248 N 
DOCKED: ATOM     27  N   UNL d   1      11.975  34.864  -0.298 -0.15 -0.03    -0.248 N 
DOCKED: ATOM     28  N   UNL d   1       9.749  35.924  -1.834 -0.23 -0.04    -0.248 N 
DOCKED: ATOM     29 FE   UNL d   1       9.967  34.724  -0.218 -0.07 +0.00    +0.000 Fe
DOCKED: ATOM     30  O   UNL d   1       9.339  35.492   0.982 -0.66 +0.00    +0.000 OA
DOCKED: ATOM     31  O   UNL d   1      10.522  36.144   0.170 -0.60 +0.00    +0.000 OA
DOCKED: ENDROOT
DOCKED: BRANCH   6  32
DOCKED: ATOM     32  C   UNL d   1       4.410  35.249  -1.062 -0.24 +0.02    +0.052 C 
DOCKED: BRANCH  32  33
DOCKED: ATOM     33  C   UNL d   1       3.695  36.221  -0.129 -0.10 +0.07    +0.115 C 
DOCKED: BRANCH  33  34
DOCKED: ATOM     34  C   UNL d   1       2.747  37.134  -0.866 +0.02 +0.16    +0.139 C 
DOCKED: ATOM     35  O   UNL d   1       1.602  36.769  -1.079 -0.33 -0.87    -0.650 OA
DOCKED: BRANCH  34  36
DOCKED: ATOM     36  O   UNL d   1       3.144  38.339  -1.322 -0.16 -1.01    -0.776 OA
DOCKED: ATOM     37  H   UNL d   1       4.014  38.475  -1.717 +0.07 +0.12    +0.167 HD
DOCKED: ENDBRANCH  34  36
DOCKED: ENDBRANCH  33  34
DOCKED: ENDBRANCH  32  33
DOCKED: ENDBRANCH   6  32
DOCKED: BRANCH  22  38
DOCKED: ATOM     38  C   UNL d   1       7.870  37.714  -4.493 -0.29 +0.00    +0.052 C 
DOCKED: BRANCH  38  39
DOCKED: ATOM     39  C   UNL d   1       7.508  39.132  -4.057 -0.28 +0.00    +0.115 C 
DOCKED: BRANCH  39  40
DOCKED: ATOM     40  C   UNL d   1       6.031  39.412  -4.178 -0.16 +0.02    +0.139 C 
DOCKED: ATOM     41  O   UNL d   1       5.510  39.452  -5.281 +0.05 -0.09    -0.650 OA
DOCKED: BRANCH  40  42
DOCKED: ATOM     42  O   UNL d   1       5.261  39.571  -3.084 +0.06 -0.22    -0.776 OA
DOCKED: ATOM     43  H   UNL d   1       4.474  39.031  -2.938 +0.04 +0.07    +0.167 HD
DOCKED: ENDBRANCH  40  42
DOCKED: ENDBRANCH  39  40
DOCKED: ENDBRANCH  38  39
DOCKED: ENDBRANCH  22  38
DOCKED: BRANCH  12  44
DOCKED: ATOM     44  C   UNL d   1      11.912  31.210   3.881 -0.57 +0.00    +0.004 C 
DOCKED: ATOM     45  C   UNL d   1      13.243  31.151   3.899 -0.67 +0.00    +0.012 C 
DOCKED: ENDBRANCH  12  44
DOCKED: BRANCH  17  46
DOCKED: ATOM     46  C   UNL d   1      15.106  36.327  -1.654 -0.58 +0.00    +0.004 C 
DOCKED: ATOM     47  C   UNL d   1      15.154  37.653  -1.840 -0.65 +0.00    +0.012 C 
DOCKED: ENDBRANCH  17  46
DOCKED: TORSDOF 10
DOCKED: TER
DOCKED: ENDMDL
________________________________________________________________________________


	BEGINNING GENETIC ALGORITHM DOCKING 12 of 100
Run: 12 Seed: 1021024448 563427573 [ Run 12 of 100 GA/GALS ]
Beginning LAMARCKIAN GENETIC ALGORITHM (LGA), with a maximum of 25000000 energy evaluations.

Final-Value: -18.060


	FINAL GENETIC ALGORITHM DOCKED STATE
	_______________________________________________


Detailed state:  trans 8.761 34.867 -0.900 quatxyzw -0.033166 -0.052046 -0.026975 -0.997729 center 8.287 34.468 -0.670 ntor 10 -108.2392 -180.0000 -9.4702 -111.2399 76.6203 69.5668 -30.0696 -107.4158 -168.4095 160.7450
State:	  8.761  34.867  -0.900  -0.492 -0.773 -0.401 -7.724   -108.24 -180.00   -9.47 -111.24   76.62   69.57  -30.07 -107.42 -168.41  160.75

DOCKED: MODEL       12
DOCKED: USER    Run = 12
DOCKED: USER    DPF = D:/Protein_go_brrr/autodock/final/2DN3/heme_O2/dock.dpf
DOCKED: USER  
DOCKED: USER    Estimated Free Energy of Binding    =  -14.40 kcal/mol  [=(1)+(2)+(3)-(4)]
DOCKED: USER    Estimated Inhibition Constant, Ki   =   27.68 pM (picomolar)  [Temperature = 298.15 K]
DOCKED: USER    
DOCKED: USER    (1) Final Intermolecular Energy     =  -17.39 kcal/mol
DOCKED: USER        vdW + Hbond + desolv Energy     =  -16.03 kcal/mol
DOCKED: USER        Electrostatic Energy            =   -1.36 kcal/mol
DOCKED: USER    (2) Final Total Internal Energy     =   -0.67 kcal/mol
DOCKED: USER    (3) Torsional Free Energy           =   +2.98 kcal/mol
DOCKED: USER    (4) Unbound System's Energy  [=(2)] =   -0.67 kcal/mol
DOCKED: USER    
DOCKED: USER    
DOCKED: USER    NEWDPF move heme_O2_opt.pdbqt
DOCKED: USER    NEWDPF about 8.287000 34.468000 -0.670000
DOCKED: USER    NEWDPF tran0 8.761105 34.866789 -0.899572
DOCKED: USER    NEWDPF quaternion0 -0.033166 -0.052046 -0.026975 -0.997729
DOCKED: USER    NEWDPF axisangle0 -0.492415 -0.772738 -0.400504 -7.723940
DOCKED: USER    NEWDPF quat0 -0.492415 -0.772738 -0.400504 -7.723940
DOCKED: USER    NEWDPF dihe0 -108.24 -180.00 -9.47 -111.24 76.62 69.57 -30.07 -107.42 -168.41 160.75 
DOCKED: USER  keepresnum = 1 
DOCKED: USER  
DOCKED: REMARK  10 active torsions:
DOCKED: REMARK  status: ('A' for Active; 'I' for Inactive)
DOCKED: REMARK    1  A    between atoms: C_6  and  C_10 
DOCKED: REMARK    2  A    between atoms: C_10  and  C_11 
DOCKED: REMARK    3  A    between atoms: C_11  and  C_12 
DOCKED: REMARK    4  A    between atoms: C_12  and  O_14 
DOCKED: REMARK    5  A    between atoms: C_17  and  C_20 
DOCKED: REMARK    6  A    between atoms: C_24  and  C_27 
DOCKED: REMARK    7  A    between atoms: C_31  and  C_34 
DOCKED: REMARK    8  A    between atoms: C_34  and  C_35 
DOCKED: REMARK    9  A    between atoms: C_35  and  C_36 
DOCKED: REMARK   10  A    between atoms: C_36  and  O_38 
DOCKED: USER                              x       y       z     vdW  Elec       q    Type
DOCKED: USER                           _______ _______ _______ _____ _____    ______ ____
DOCKED: ROOT
DOCKED: ATOM      1  C   UNL d   1       7.020  35.506  -1.929 -0.29 +0.01    +0.064 A 
DOCKED: ATOM      2  C   UNL d   1       7.652  32.985   2.047 -0.41 +0.01    +0.064 A 
DOCKED: ATOM      3  C   UNL d   1      12.427  33.243   1.560 -0.43 +0.00    +0.064 C 
DOCKED: ATOM      4  C   UNL d   1      11.793  36.242  -2.269 -0.41 +0.00    +0.064 A 
DOCKED: ATOM      5  C   UNL d   1       6.803  34.801  -0.807 -0.30 +0.01    +0.066 A 
DOCKED: ATOM      6  C   UNL d   1       5.533  34.477  -0.320 -0.30 -0.00    -0.021 A 
DOCKED: ATOM      7  C   UNL d   1       5.714  33.785   0.854 -0.33 -0.00    -0.025 A 
DOCKED: ATOM      8  C   UNL d   1       7.090  33.662   1.027 -0.35 +0.01    +0.066 A 
DOCKED: ATOM      9  C   UNL d   1       4.599  33.305   1.758 -0.37 +0.01    +0.051 C 
DOCKED: ATOM     10  C   UNL d   1       9.088  32.803   2.267 -0.39 +0.00    +0.066 A 
DOCKED: ATOM     11  C   UNL d   1       9.614  31.955   3.248 -0.47 -0.00    -0.021 A 
DOCKED: ATOM     12  C   UNL d   1      10.989  32.002   3.112 -0.44 +0.00    +0.000 A 
DOCKED: ATOM     13  C   UNL d   1      11.230  32.906   2.040 -0.37 +0.00    +0.070 A 
DOCKED: ATOM     14  C   UNL d   1       8.837  31.114   4.254 -0.57 +0.00    +0.052 C 
DOCKED: ATOM     15  C   UNL d   1      12.714  34.180   0.501 -0.36 +0.01    +0.066 A 
DOCKED: ATOM     16  C   UNL d   1      13.993  34.614   0.155 -0.44 -0.00    -0.021 A 
DOCKED: ATOM     17  C   UNL d   1      13.837  35.471  -0.934 -0.43 +0.00    +0.000 A 
DOCKED: ATOM     18  C   UNL d   1      12.456  35.494  -1.176 -0.34 +0.01    +0.070 A 
DOCKED: ATOM     19  C   UNL d   1      15.231  34.220   0.921 -0.60 +0.00    +0.052 C 
DOCKED: ATOM     20  C   UNL d   1      10.468  36.321  -2.503 -0.38 +0.01    +0.066 A 
DOCKED: ATOM     21  C   UNL d   1       9.903  37.028  -3.560 -0.35 -0.00    -0.025 A 
DOCKED: ATOM     22  C   UNL d   1       8.546  36.807  -3.495 -0.33 -0.00    -0.021 A 
DOCKED: ATOM     23  C   UNL d   1       8.330  35.984  -2.385 -0.33 +0.01    +0.066 A 
DOCKED: ATOM     24  C   UNL d   1      10.621  37.874  -4.579 -0.51 -0.00    +0.051 C 
DOCKED: ATOM     25  N   UNL d   1       7.760  34.345   0.037 -0.12 -0.05    -0.248 N 
DOCKED: ATOM     26  N   UNL d   1      10.068  33.392   1.535 -0.22 -0.03    -0.248 N 
DOCKED: ATOM     27  N   UNL d   1      11.784  34.764  -0.249 -0.10 -0.04    -0.248 N 
DOCKED: ATOM     28  N   UNL d   1       9.497  35.728  -1.758 -0.21 -0.05    -0.248 N 
DOCKED: ATOM     29 FE   UNL d   1       9.783  34.569  -0.124 -0.07 +0.00    +0.000 Fe
DOCKED: ATOM     30  O   UNL d   1       9.158  35.344   1.073 -0.62 +0.00    +0.000 OA
DOCKED: ATOM     31  O   UNL d   1      10.305  36.012   0.224 -0.71 +0.00    +0.000 OA
DOCKED: ENDROOT
DOCKED: BRANCH   6  32
DOCKED: ATOM     32  C   UNL d   1       4.197  34.918  -0.860 -0.24 +0.01    +0.052 C 
DOCKED: BRANCH  32  33
DOCKED: ATOM     33  C   UNL d   1       3.770  36.286  -0.338 -0.15 +0.06    +0.115 C 
DOCKED: BRANCH  33  34
DOCKED: ATOM     34  C   UNL d   1       2.954  37.057  -1.346 -0.18 +0.12    +0.139 C 
DOCKED: ATOM     35  O   UNL d   1       3.507  37.559  -2.312 -0.01 -0.40    -0.650 OA
DOCKED: BRANCH  34  36
DOCKED: ATOM     36  O   UNL d   1       1.625  37.231  -1.191 -0.17 -1.34    -0.776 OA
DOCKED: ATOM     37  H   UNL d   1       0.982  36.771  -1.743 +0.01 +0.19    +0.167 HD
DOCKED: ENDBRANCH  34  36
DOCKED: ENDBRANCH  33  34
DOCKED: ENDBRANCH  32  33
DOCKED: ENDBRANCH   6  32
DOCKED: BRANCH  22  38
DOCKED: ATOM     38  C   UNL d   1       7.513  37.408  -4.413 -0.28 +0.00    +0.052 C 
DOCKED: BRANCH  38  39
DOCKED: ATOM     39  C   UNL d   1       6.851  38.647  -3.813 -0.22 +0.01    +0.115 C 
DOCKED: BRANCH  39  40
DOCKED: ATOM     40  C   UNL d   1       7.781  39.833  -3.769 -0.33 +0.00    +0.139 C 
DOCKED: ATOM     41  O   UNL d   1       7.705  40.630  -2.848 -0.09 -0.02    -0.650 OA
DOCKED: BRANCH  40  42
DOCKED: ATOM     42  O   UNL d   1       8.735  40.004  -4.705 +0.05 +0.14    -0.776 OA
DOCKED: ATOM     43  H   UNL d   1       9.359  40.739  -4.662 -0.44 -0.07    +0.167 HD
DOCKED: ENDBRANCH  40  42
DOCKED: ENDBRANCH  39  40
DOCKED: ENDBRANCH  38  39
DOCKED: ENDBRANCH  22  38
DOCKED: BRANCH  12  44
DOCKED: ATOM     44  C   UNL d   1      11.913  31.199   4.004 -0.58 +0.00    +0.004 C 
DOCKED: ATOM     45  C   UNL d   1      13.211  30.953   3.828 -0.67 +0.00    +0.012 C 
DOCKED: ENDBRANCH  12  44
DOCKED: BRANCH  17  46
DOCKED: ATOM     46  C   UNL d   1      14.843  36.287  -1.702 -0.56 +0.00    +0.004 C 
DOCKED: ATOM     47  C   UNL d   1      14.903  37.618  -1.834 -0.63 +0.00    +0.012 C 
DOCKED: ENDBRANCH  17  46
DOCKED: TORSDOF 10
DOCKED: TER
DOCKED: ENDMDL
________________________________________________________________________________


	BEGINNING GENETIC ALGORITHM DOCKING 13 of 100
Run: 13 Seed: 1704208822 1537842929 [ Run 13 of 100 GA/GALS ]
Beginning LAMARCKIAN GENETIC ALGORITHM (LGA), with a maximum of 25000000 energy evaluations.

Final-Value: -11.032


	FINAL GENETIC ALGORITHM DOCKED STATE
	_______________________________________________


Detailed state:  trans 25.023 45.592 -2.270 quatxyzw -0.402907 -0.905945 -0.022215 -0.128202 center 8.287 34.468 -0.670 ntor 10 -37.7025 -74.6381 36.6985 62.0342 67.6902 5.6434 -78.8240 -5.1620 8.7447 174.1469
State:	 25.023  45.592  -2.270  -0.406 -0.913 -0.022 -165.269    -37.70  -74.64   36.70   62.03   67.69    5.64  -78.82   -5.16    8.74  174.15

DOCKED: MODEL       13
DOCKED: USER    Run = 13
DOCKED: USER    DPF = D:/Protein_go_brrr/autodock/final/2DN3/heme_O2/dock.dpf
DOCKED: USER  
DOCKED: USER    Estimated Free Energy of Binding    =   -7.40 kcal/mol  [=(1)+(2)+(3)-(4)]
DOCKED: USER    Estimated Inhibition Constant, Ki   =    3.76 uM (micromolar)  [Temperature = 298.15 K]
DOCKED: USER    
DOCKED: USER    (1) Final Intermolecular Energy     =  -10.38 kcal/mol
DOCKED: USER        vdW + Hbond + desolv Energy     =   -8.67 kcal/mol
DOCKED: USER        Electrostatic Energy            =   -1.71 kcal/mol
DOCKED: USER    (2) Final Total Internal Energy     =   -0.65 kcal/mol
DOCKED: USER    (3) Torsional Free Energy           =   +2.98 kcal/mol
DOCKED: USER    (4) Unbound System's Energy  [=(2)] =   -0.65 kcal/mol
DOCKED: USER    
DOCKED: USER    
DOCKED: USER    NEWDPF move heme_O2_opt.pdbqt
DOCKED: USER    NEWDPF about 8.287000 34.468000 -0.670000
DOCKED: USER    NEWDPF tran0 25.023093 45.591898 -2.269917
DOCKED: USER    NEWDPF quaternion0 -0.402907 -0.905945 -0.022215 -0.128202
DOCKED: USER    NEWDPF axisangle0 -0.406259 -0.913483 -0.022400 -165.268577
DOCKED: USER    NEWDPF quat0 -0.406259 -0.913483 -0.022400 -165.268577
DOCKED: USER    NEWDPF dihe0 -37.70 -74.64 36.70 62.03 67.69 5.64 -78.82 -5.16 8.74 174.15 
DOCKED: USER  keepresnum = 1 
DOCKED: USER  
DOCKED: REMARK  10 active torsions:
DOCKED: REMARK  status: ('A' for Active; 'I' for Inactive)
DOCKED: REMARK    1  A    between atoms: C_6  and  C_10 
DOCKED: REMARK    2  A    between atoms: C_10  and  C_11 
DOCKED: REMARK    3  A    between atoms: C_11  and  C_12 
DOCKED: REMARK    4  A    between atoms: C_12  and  O_14 
DOCKED: REMARK    5  A    between atoms: C_17  and  C_20 
DOCKED: REMARK    6  A    between atoms: C_24  and  C_27 
DOCKED: REMARK    7  A    between atoms: C_31  and  C_34 
DOCKED: REMARK    8  A    between atoms: C_34  and  C_35 
DOCKED: REMARK    9  A    between atoms: C_35  and  C_36 
DOCKED: REMARK   10  A    between atoms: C_36  and  O_38 
DOCKED: USER                              x       y       z     vdW  Elec       q    Type
DOCKED: USER                           _______ _______ _______ _____ _____    ______ ____
DOCKED: ROOT
DOCKED: ATOM      1  C   UNL d   1      26.839  44.529  -2.003 -0.16 +0.02    +0.064 A 
DOCKED: ATOM      2  C   UNL d   1      23.283  44.073  -5.118 -0.15 +0.01    +0.064 A 
DOCKED: ATOM      3  C   UNL d   1      20.895  47.702  -3.064 -0.26 -0.01    +0.064 C 
DOCKED: ATOM      4  C   UNL d   1      24.764  48.492  -0.152 -0.09 +0.01    +0.064 A 
DOCKED: ATOM      5  C   UNL d   1      26.067  44.110  -3.019 -0.22 +0.01    +0.066 A 
DOCKED: ATOM      6  C   UNL d   1      26.394  43.043  -3.862 -0.19 -0.00    -0.021 A 
DOCKED: ATOM      7  C   UNL d   1      25.386  42.938  -4.791 -0.21 -0.00    -0.025 A 
DOCKED: ATOM      8  C   UNL d   1      24.448  43.912  -4.461 -0.24 +0.01    +0.066 A 
DOCKED: ATOM      9  C   UNL d   1      25.370  41.959  -5.944 -0.17 +0.01    +0.051 C 
DOCKED: ATOM     10  C   UNL d   1      22.250  45.061  -4.804 -0.27 +0.00    +0.066 A 
DOCKED: ATOM     11  C   UNL d   1      20.991  45.078  -5.414 -0.36 -0.00    -0.021 A 
DOCKED: ATOM     12  C   UNL d   1      20.281  46.107  -4.822 -0.36 -0.00    +0.000 A 
DOCKED: ATOM     13  C   UNL d   1      21.172  46.679  -3.872 -0.28 -0.01    +0.070 A 
DOCKED: ATOM     14  C   UNL d   1      20.476  44.135  -6.495 -0.40 +0.01    +0.052 C 
DOCKED: ATOM     15  C   UNL d   1      21.780  48.333  -2.115 -0.21 -0.00    +0.066 A 
DOCKED: ATOM     16  C   UNL d   1      21.485  49.504  -1.416 -0.19 +0.00    -0.021 A 
DOCKED: ATOM     17  C   UNL d   1      22.574  49.749  -0.580 -0.13 +0.00    +0.000 A 
DOCKED: ATOM     18  C   UNL d   1      23.463  48.695  -0.833 -0.11 +0.01    +0.070 A 
DOCKED: ATOM     19  C   UNL d   1      20.228  50.305  -1.646 -0.26 -0.01    +0.052 C 
DOCKED: ATOM     20  C   UNL d   1      25.659  47.517  -0.402 -0.06 +0.02    +0.066 A 
DOCKED: ATOM     21  C   UNL d   1      26.860  47.366   0.285 -0.12 -0.01    -0.025 A 
DOCKED: ATOM     22  C   UNL d   1      27.452  46.226  -0.210 -0.13 -0.01    -0.021 A 
DOCKED: ATOM     23  C   UNL d   1      26.595  45.731  -1.198 -0.12 +0.02    +0.066 A 
DOCKED: ATOM     24  C   UNL d   1      27.417  48.267   1.358 -0.12 +0.02    +0.051 C 
DOCKED: ATOM     25  N   UNL d   1      24.899  44.676  -3.409 -0.19 -0.05    -0.248 N 
DOCKED: ATOM     26  N   UNL d   1      22.369  46.040  -3.872 -0.19 -0.00    -0.248 N 
DOCKED: ATOM     27  N   UNL d   1      22.998  47.888  -1.821 -0.09 -0.02    -0.248 N 
DOCKED: ATOM     28  N   UNL d   1      25.528  46.544  -1.342 -0.03 -0.06    -0.248 N 
DOCKED: ATOM     29 FE   UNL d   1      23.959  46.296  -2.597 -0.05 +0.00    +0.000 Fe
DOCKED: ATOM     30  O   UNL d   1      24.507  46.543  -4.033 -0.13 +0.00    +0.000 OA
DOCKED: ATOM     31  O   UNL d   1      24.629  47.676  -2.945 -0.11 +0.00    +0.000 OA
DOCKED: ENDROOT
DOCKED: BRANCH   6  32
DOCKED: ATOM     32  C   UNL d   1      27.668  42.239  -3.882 -0.12 +0.01    +0.052 C 
DOCKED: BRANCH  32  33
DOCKED: ATOM     33  C   UNL d   1      27.592  40.985  -3.017 -0.16 +0.02    +0.115 C 
DOCKED: BRANCH  33  34
DOCKED: ATOM     34  C   UNL d   1      27.298  39.746  -3.825 -0.17 +0.02    +0.139 C 
DOCKED: ATOM     35  O   UNL d   1      26.144  39.475  -4.117 -0.08 -0.09    -0.650 OA
DOCKED: BRANCH  34  36
DOCKED: ATOM     36  O   UNL d   1      28.283  38.909  -4.212 +0.02 -0.09    -0.776 OA
DOCKED: ATOM     37  H   UNL d   1      29.150  39.231  -4.484 +0.02 +0.02    +0.167 HD
DOCKED: ENDBRANCH  34  36
DOCKED: ENDBRANCH  33  34
DOCKED: ENDBRANCH  32  33
DOCKED: ENDBRANCH   6  32
DOCKED: BRANCH  22  38
DOCKED: ATOM     38  C   UNL d   1      28.797  45.684   0.202 -0.13 +0.03    +0.052 C 
DOCKED: BRANCH  38  39
DOCKED: ATOM     39  C   UNL d   1      29.948  46.350  -0.550 -0.09 +0.05    +0.115 C 
DOCKED: BRANCH  39  40
DOCKED: ATOM     40  C   UNL d   1      31.298  45.921  -0.033 -0.13 +0.14    +0.139 C 
DOCKED: ATOM     41  O   UNL d   1      32.255  45.892  -0.790 -0.42 -0.87    -0.650 OA
DOCKED: BRANCH  40  42
DOCKED: ATOM     42  O   UNL d   1      31.481  45.615   1.266 -0.42 -1.03    -0.776 OA
DOCKED: ATOM     43  H   UNL d   1      31.483  46.296   1.949 -0.46 +0.13    +0.167 HD
DOCKED: ENDBRANCH  40  42
DOCKED: ENDBRANCH  39  40
DOCKED: ENDBRANCH  38  39
DOCKED: ENDBRANCH  22  38
DOCKED: BRANCH  12  44
DOCKED: ATOM     44  C   UNL d   1      18.856  46.432  -5.218 -0.33 -0.00    +0.004 C 
DOCKED: ATOM     45  C   UNL d   1      18.261  47.624  -5.229 -0.29 -0.00    +0.012 C 
DOCKED: ENDBRANCH  12  44
DOCKED: BRANCH  17  46
DOCKED: ATOM     46  C   UNL d   1      22.860  50.888   0.362 -0.11 -0.00    +0.004 C 
DOCKED: ATOM     47  C   UNL d   1      22.104  51.338   1.371 -0.21 -0.00    +0.012 C 
DOCKED: ENDBRANCH  17  46
DOCKED: TORSDOF 10
DOCKED: TER
DOCKED: ENDMDL
________________________________________________________________________________


	BEGINNING GENETIC ALGORITHM DOCKING 14 of 100
Run: 14 Seed: 1189986291 42225729 [ Run 14 of 100 GA/GALS ]
Beginning LAMARCKIAN GENETIC ALGORITHM (LGA), with a maximum of 25000000 energy evaluations.

Final-Value: -10.964


	FINAL GENETIC ALGORITHM DOCKED STATE
	_______________________________________________


Detailed state:  trans 25.018 45.746 -2.035 quatxyzw -0.390757 -0.914130 -0.015543 -0.106929 center 8.287 34.468 -0.670 ntor 10 51.1935 -66.1949 32.4159 75.4497 34.2879 -2.4229 -78.8277 11.7182 18.6500 178.9740
State:	 25.018  45.746  -2.035  -0.393 -0.919 -0.016 -167.723     51.19  -66.19   32.42   75.45   34.29   -2.42  -78.83   11.72   18.65  178.97

DOCKED: MODEL       14
DOCKED: USER    Run = 14
DOCKED: USER    DPF = D:/Protein_go_brrr/autodock/final/2DN3/heme_O2/dock.dpf
DOCKED: USER  
DOCKED: USER    Estimated Free Energy of Binding    =   -7.35 kcal/mol  [=(1)+(2)+(3)-(4)]
DOCKED: USER    Estimated Inhibition Constant, Ki   =    4.12 uM (micromolar)  [Temperature = 298.15 K]
DOCKED: USER    
DOCKED: USER    (1) Final Intermolecular Energy     =  -10.33 kcal/mol
DOCKED: USER        vdW + Hbond + desolv Energy     =   -8.71 kcal/mol
DOCKED: USER        Electrostatic Energy            =   -1.62 kcal/mol
DOCKED: USER    (2) Final Total Internal Energy     =   -0.64 kcal/mol
DOCKED: USER    (3) Torsional Free Energy           =   +2.98 kcal/mol
DOCKED: USER    (4) Unbound System's Energy  [=(2)] =   -0.64 kcal/mol
DOCKED: USER    
DOCKED: USER    
DOCKED: USER    NEWDPF move heme_O2_opt.pdbqt
DOCKED: USER    NEWDPF about 8.287000 34.468000 -0.670000
DOCKED: USER    NEWDPF tran0 25.018495 45.746224 -2.035052
DOCKED: USER    NEWDPF quaternion0 -0.390757 -0.914130 -0.015543 -0.106929
DOCKED: USER    NEWDPF axisangle0 -0.393010 -0.919401 -0.015632 -167.723317
DOCKED: USER    NEWDPF quat0 -0.393010 -0.919401 -0.015632 -167.723317
DOCKED: USER    NEWDPF dihe0 51.19 -66.19 32.42 75.45 34.29 -2.42 -78.83 11.72 18.65 178.97 
DOCKED: USER  keepresnum = 1 
DOCKED: USER  
DOCKED: REMARK  10 active torsions:
DOCKED: REMARK  status: ('A' for Active; 'I' for Inactive)
DOCKED: REMARK    1  A    between atoms: C_6  and  C_10 
DOCKED: REMARK    2  A    between atoms: C_10  and  C_11 
DOCKED: REMARK    3  A    between atoms: C_11  and  C_12 
DOCKED: REMARK    4  A    between atoms: C_12  and  O_14 
DOCKED: REMARK    5  A    between atoms: C_17  and  C_20 
DOCKED: REMARK    6  A    between atoms: C_24  and  C_27 
DOCKED: REMARK    7  A    between atoms: C_31  and  C_34 
DOCKED: REMARK    8  A    between atoms: C_34  and  C_35 
DOCKED: REMARK    9  A    between atoms: C_35  and  C_36 
DOCKED: REMARK   10  A    between atoms: C_36  and  O_38 
DOCKED: USER                              x       y       z     vdW  Elec       q    Type
DOCKED: USER                           _______ _______ _______ _____ _____    ______ ____
DOCKED: ROOT
DOCKED: ATOM      1  C   UNL d   1      26.853  44.745  -1.675 -0.15 +0.02    +0.064 A 
DOCKED: ATOM      2  C   UNL d   1      23.427  44.103  -4.901 -0.13 +0.01    +0.064 A 
DOCKED: ATOM      3  C   UNL d   1      20.863  47.711  -3.031 -0.24 -0.01    +0.064 C 
DOCKED: ATOM      4  C   UNL d   1      24.599  48.691  -0.007 -0.09 +0.01    +0.064 A 
DOCKED: ATOM      5  C   UNL d   1      26.132  44.277  -2.706 -0.21 +0.01    +0.066 A 
DOCKED: ATOM      6  C   UNL d   1      26.519  43.199  -3.508 -0.19 -0.00    -0.021 A 
DOCKED: ATOM      7  C   UNL d   1      25.549  43.040  -4.469 -0.22 -0.00    -0.025 A 
DOCKED: ATOM      8  C   UNL d   1      24.571  43.994  -4.199 -0.26 +0.01    +0.066 A 
DOCKED: ATOM      9  C   UNL d   1      25.603  42.031  -5.595 -0.18 +0.01    +0.051 C 
DOCKED: ATOM     10  C   UNL d   1      22.356  45.068  -4.651 -0.27 +0.00    +0.066 A 
DOCKED: ATOM     11  C   UNL d   1      21.119  45.031  -5.305 -0.36 -0.00    -0.021 A 
DOCKED: ATOM     12  C   UNL d   1      20.359  46.053  -4.766 -0.37 -0.00    +0.000 A 
DOCKED: ATOM     13  C   UNL d   1      21.198  46.676  -3.802 -0.28 -0.01    +0.070 A 
DOCKED: ATOM     14  C   UNL d   1      20.671  44.045  -6.378 -0.41 +0.01    +0.052 C 
DOCKED: ATOM     15  C   UNL d   1      21.694  48.393  -2.069 -0.21 -0.00    +0.066 A 
DOCKED: ATOM     16  C   UNL d   1      21.340  49.571  -1.413 -0.19 +0.00    -0.021 A 
DOCKED: ATOM     17  C   UNL d   1      22.391  49.871  -0.546 -0.14 -0.00    +0.000 A 
DOCKED: ATOM     18  C   UNL d   1      23.319  48.837  -0.739 -0.11 +0.01    +0.070 A 
DOCKED: ATOM     19  C   UNL d   1      20.070  50.328  -1.709 -0.26 -0.01    +0.052 C 
DOCKED: ATOM     20  C   UNL d   1      25.531  47.737  -0.198 -0.07 +0.02    +0.066 A 
DOCKED: ATOM     21  C   UNL d   1      26.710  47.640   0.535 -0.12 -0.01    -0.025 A 
DOCKED: ATOM     22  C   UNL d   1      27.352  46.506   0.092 -0.13 -0.01    -0.021 A 
DOCKED: ATOM     23  C   UNL d   1      26.546  45.960  -0.912 -0.11 +0.02    +0.066 A 
DOCKED: ATOM     24  C   UNL d   1      27.201  48.584   1.601 -0.11 +0.02    +0.051 C 
DOCKED: ATOM     25  N   UNL d   1      24.962  44.798  -3.153 -0.19 -0.05    -0.248 N 
DOCKED: ATOM     26  N   UNL d   1      22.413  46.074  -3.741 -0.19 -0.00    -0.248 N 
DOCKED: ATOM     27  N   UNL d   1      22.913  47.991  -1.720 -0.09 -0.02    -0.248 N 
DOCKED: ATOM     28  N   UNL d   1      25.462  46.736  -1.116 -0.00 -0.07    -0.248 N 
DOCKED: ATOM     29 FE   UNL d   1      23.947  46.410  -2.418 -0.05 +0.00    +0.000 Fe
DOCKED: ATOM     30  O   UNL d   1      24.540  46.635  -3.840 -0.13 +0.00    +0.000 OA
DOCKED: ATOM     31  O   UNL d   1      24.589  47.800  -2.780 -0.11 +0.00    +0.000 OA
DOCKED: ENDROOT
DOCKED: BRANCH   6  32
DOCKED: ATOM     32  C   UNL d   1      27.816  42.433  -3.461 -0.12 +0.01    +0.052 C 
DOCKED: BRANCH  32  33
DOCKED: ATOM     33  C   UNL d   1      27.681  41.081  -2.768 -0.15 +0.02    +0.115 C 
DOCKED: BRANCH  33  34
DOCKED: ATOM     34  C   UNL d   1      27.537  39.944  -3.748 -0.16 +0.02    +0.139 C 
DOCKED: ATOM     35  O   UNL d   1      26.510  39.284  -3.760 -0.07 -0.09    -0.650 OA
DOCKED: BRANCH  34  36
DOCKED: ATOM     36  O   UNL d   1      28.532  39.618  -4.599 +0.03 -0.09    -0.776 OA
DOCKED: ATOM     37  H   UNL d   1      29.434  39.465  -4.295 +0.02 +0.02    +0.167 HD
DOCKED: ENDBRANCH  34  36
DOCKED: ENDBRANCH  33  34
DOCKED: ENDBRANCH  32  33
DOCKED: ENDBRANCH   6  32
DOCKED: BRANCH  22  38
DOCKED: ATOM     38  C   UNL d   1      28.696  46.015   0.566 -0.11 +0.03    +0.052 C 
DOCKED: BRANCH  38  39
DOCKED: ATOM     39  C   UNL d   1      29.853  46.778  -0.077 -0.11 +0.05    +0.115 C 
DOCKED: BRANCH  39  40
DOCKED: ATOM     40  C   UNL d   1      31.189  46.132   0.193 -0.14 +0.13    +0.139 C 
DOCKED: ATOM     41  O   UNL d   1      32.042  46.115  -0.680 -0.48 -0.79    -0.650 OA
DOCKED: BRANCH  40  42
DOCKED: ATOM     42  O   UNL d   1      31.480  45.615   1.403 -0.38 -1.01    -0.776 OA
DOCKED: ATOM     43  H   UNL d   1      31.529  46.170   2.190 -0.42 +0.13    +0.167 HD
DOCKED: ENDBRANCH  40  42
DOCKED: ENDBRANCH  39  40
DOCKED: ENDBRANCH  38  39
DOCKED: ENDBRANCH  22  38
DOCKED: BRANCH  12  44
DOCKED: ATOM     44  C   UNL d   1      18.940  46.325  -5.221 -0.34 -0.00    +0.004 C 
DOCKED: ATOM     45  C   UNL d   1      18.286  47.486  -5.212 -0.30 -0.00    +0.012 C 
DOCKED: ENDBRANCH  12  44
DOCKED: BRANCH  17  46
DOCKED: ATOM     46  C   UNL d   1      22.610  51.042   0.375 -0.13 -0.00    +0.004 C 
DOCKED: ATOM     47  C   UNL d   1      21.940  51.354   1.492 -0.23 -0.00    +0.012 C 
DOCKED: ENDBRANCH  17  46
DOCKED: TORSDOF 10
DOCKED: TER
DOCKED: ENDMDL
________________________________________________________________________________


	BEGINNING GENETIC ALGORITHM DOCKING 15 of 100
Run: 15 Seed: 1369247855 468098187 [ Run 15 of 100 GA/GALS ]
Beginning LAMARCKIAN GENETIC ALGORITHM (LGA), with a maximum of 25000000 energy evaluations.

Final-Value: -20.139


	FINAL GENETIC ALGORITHM DOCKED STATE
	_______________________________________________


Detailed state:  trans 41.124 28.883 16.140 quatxyzw -0.366463 0.396896 0.840536 -0.040964 center 8.287 34.468 -0.670 ntor 10 -100.7220 92.4649 31.5300 -66.7365 103.7225 14.9492 41.0915 23.5707 -40.7517 175.2613
State:	 41.124  28.883  16.140  -0.367  0.397  0.841 -175.305   -100.72   92.46   31.53  -66.74  103.72   14.95   41.09   23.57  -40.75  175.26

DOCKED: MODEL       15
DOCKED: USER    Run = 15
DOCKED: USER    DPF = D:/Protein_go_brrr/autodock/final/2DN3/heme_O2/dock.dpf
DOCKED: USER  
DOCKED: USER    Estimated Free Energy of Binding    =  -15.61 kcal/mol  [=(1)+(2)+(3)-(4)]
DOCKED: USER    Estimated Inhibition Constant, Ki   =    3.63 pM (picomolar)  [Temperature = 298.15 K]
DOCKED: USER    
DOCKED: USER    (1) Final Intermolecular Energy     =  -18.59 kcal/mol
DOCKED: USER        vdW + Hbond + desolv Energy     =  -16.73 kcal/mol
DOCKED: USER        Electrostatic Energy            =   -1.86 kcal/mol
DOCKED: USER    (2) Final Total Internal Energy     =   -1.55 kcal/mol
DOCKED: USER    (3) Torsional Free Energy           =   +2.98 kcal/mol
DOCKED: USER    (4) Unbound System's Energy  [=(2)] =   -1.55 kcal/mol
DOCKED: USER    
DOCKED: USER    
DOCKED: USER    NEWDPF move heme_O2_opt.pdbqt
DOCKED: USER    NEWDPF about 8.287000 34.468000 -0.670000
DOCKED: USER    NEWDPF tran0 41.123555 28.882737 16.140154
DOCKED: USER    NEWDPF quaternion0 -0.366463 0.396896 0.840536 -0.040964
DOCKED: USER    NEWDPF axisangle0 -0.366770 0.397229 0.841242 -175.304512
DOCKED: USER    NEWDPF quat0 -0.366770 0.397229 0.841242 -175.304512
DOCKED: USER    NEWDPF dihe0 -100.72 92.46 31.53 -66.74 103.72 14.95 41.09 23.57 -40.75 175.26 
DOCKED: USER  keepresnum = 1 
DOCKED: USER  
DOCKED: REMARK  10 active torsions:
DOCKED: REMARK  status: ('A' for Active; 'I' for Inactive)
DOCKED: REMARK    1  A    between atoms: C_6  and  C_10 
DOCKED: REMARK    2  A    between atoms: C_10  and  C_11 
DOCKED: REMARK    3  A    between atoms: C_11  and  C_12 
DOCKED: REMARK    4  A    between atoms: C_12  and  O_14 
DOCKED: REMARK    5  A    between atoms: C_17  and  C_20 
DOCKED: REMARK    6  A    between atoms: C_24  and  C_27 
DOCKED: REMARK    7  A    between atoms: C_31  and  C_34 
DOCKED: REMARK    8  A    between atoms: C_34  and  C_35 
DOCKED: REMARK    9  A    between atoms: C_35  and  C_36 
DOCKED: REMARK   10  A    between atoms: C_36  and  O_38 
DOCKED: USER                              x       y       z     vdW  Elec       q    Type
DOCKED: USER                           _______ _______ _______ _____ _____    ______ ____
DOCKED: ROOT
DOCKED: ATOM      1  C   UNL d   1      42.735  28.330  17.403 -0.16 +0.02    +0.064 A 
DOCKED: ATOM      2  C   UNL d   1      40.698  32.512  16.447 -0.41 +0.01    +0.064 A 
DOCKED: ATOM      3  C   UNL d   1      37.646  30.428  13.375 -0.41 +0.01    +0.064 C 
DOCKED: ATOM      4  C   UNL d   1      39.419  26.053  14.710 -0.41 +0.01    +0.064 A 
DOCKED: ATOM      5  C   UNL d   1      42.429  29.637  17.395 -0.26 +0.02    +0.066 A 
DOCKED: ATOM      6  C   UNL d   1      43.106  30.605  18.144 -0.34 -0.01    -0.021 A 
DOCKED: ATOM      7  C   UNL d   1      42.489  31.809  17.901 -0.44 -0.01    -0.025 A 
DOCKED: ATOM      8  C   UNL d   1      41.483  31.553  16.974 -0.39 +0.01    +0.066 A 
DOCKED: ATOM      9  C   UNL d   1      42.854  33.118  18.567 -0.45 +0.01    +0.051 C 
DOCKED: ATOM     10  C   UNL d   1      39.642  32.307  15.455 -0.39 +0.01    +0.066 A 
DOCKED: ATOM     11  C   UNL d   1      38.968  33.357  14.820 -0.42 -0.00    -0.021 A 
DOCKED: ATOM     12  C   UNL d   1      38.096  32.776  13.918 -0.40 +0.00    +0.000 A 
DOCKED: ATOM     13  C   UNL d   1      38.283  31.374  14.064 -0.37 +0.01    +0.070 A 
DOCKED: ATOM     14  C   UNL d   1      39.167  34.851  15.046 -0.54 +0.01    +0.052 C 
DOCKED: ATOM     15  C   UNL d   1      37.782  28.998  13.518 -0.39 +0.01    +0.066 A 
DOCKED: ATOM     16  C   UNL d   1      36.968  28.060  12.884 -0.49 -0.00    -0.021 A 
DOCKED: ATOM     17  C   UNL d   1      37.454  26.805  13.250 -0.46 +0.00    +0.000 A 
DOCKED: ATOM     18  C   UNL d   1      38.544  27.075  14.090 -0.38 +0.01    +0.070 A 
DOCKED: ATOM     19  C   UNL d   1      35.779  28.440  12.038 -0.66 +0.01    +0.052 C 
DOCKED: ATOM     20  C   UNL d   1      40.444  26.276  15.555 -0.37 +0.02    +0.066 A 
DOCKED: ATOM     21  C   UNL d   1      41.245  25.272  16.093 -0.38 -0.01    -0.025 A 
DOCKED: ATOM     22  C   UNL d   1      42.212  25.904  16.841 -0.35 -0.01    -0.021 A 
DOCKED: ATOM     23  C   UNL d   1      41.954  27.275  16.746 -0.34 +0.02    +0.066 A 
DOCKED: ATOM     24  C   UNL d   1      41.092  23.785  15.905 -0.54 +0.01    +0.051 C 
DOCKED: ATOM     25  N   UNL d   1      41.404  30.204  16.713 -0.16 -0.08    -0.248 N 
DOCKED: ATOM     26  N   UNL d   1      39.222  31.098  15.005 -0.21 -0.05    -0.248 N 
DOCKED: ATOM     27  N   UNL d   1      38.681  28.409  14.302 -0.21 -0.06    -0.248 N 
DOCKED: ATOM     28  N   UNL d   1      40.852  27.494  16.000 -0.25 -0.08    -0.248 N 
DOCKED: ATOM     29 FE   UNL d   1      40.041  29.281  15.505 -0.06 +0.00    +0.000 Fe
DOCKED: ATOM     30  O   UNL d   1      39.430  29.860  16.814 -0.68 +0.00    +0.000 OA
DOCKED: ATOM     31  O   UNL d   1      38.942  28.462  16.276 -0.59 +0.00    +0.000 OA
DOCKED: ENDROOT
DOCKED: BRANCH   6  32
DOCKED: ATOM     32  C   UNL d   1      44.202  30.389  19.155 -0.32 +0.02    +0.052 C 
DOCKED: BRANCH  32  33
DOCKED: ATOM     33  C   UNL d   1      45.243  29.374  18.693 -0.21 +0.06    +0.115 C 
DOCKED: BRANCH  33  34
DOCKED: ATOM     34  C   UNL d   1      45.715  28.483  19.815 -0.18 +0.11    +0.139 C 
DOCKED: ATOM     35  O   UNL d   1      46.033  28.977  20.885 -0.29 -0.95    -0.650 OA
DOCKED: BRANCH  34  36
DOCKED: ATOM     36  O   UNL d   1      45.822  27.147  19.654 +0.08 -0.53    -0.776 OA
DOCKED: ATOM     37  H   UNL d   1      45.151  26.538  19.981 +0.06 +0.11    +0.167 HD
DOCKED: ENDBRANCH  34  36
DOCKED: ENDBRANCH  33  34
DOCKED: ENDBRANCH  32  33
DOCKED: ENDBRANCH   6  32
DOCKED: BRANCH  22  38
DOCKED: ATOM     38  C   UNL d   1      43.282  25.220  17.652 -0.35 +0.02    +0.052 C 
DOCKED: BRANCH  38  39
DOCKED: ATOM     39  C   UNL d   1      42.780  24.781  19.025 -0.39 +0.04    +0.115 C 
DOCKED: BRANCH  39  40
DOCKED: ATOM     40  C   UNL d   1      43.901  24.604  20.019 -0.25 +0.08    +0.139 C 
DOCKED: ATOM     41  O   UNL d   1      43.659  24.626  21.215 -0.51 -0.38    -0.650 OA
DOCKED: BRANCH  40  42
DOCKED: ATOM     42  O   UNL d   1      45.163  24.369  19.611 -0.06 -0.45    -0.776 OA
DOCKED: ATOM     43  H   UNL d   1      45.802  25.084  19.510 +0.06 +0.10    +0.167 HD
DOCKED: ENDBRANCH  40  42
DOCKED: ENDBRANCH  39  40
DOCKED: ENDBRANCH  38  39
DOCKED: ENDBRANCH  22  38
DOCKED: BRANCH  12  44
DOCKED: ATOM     44  C   UNL d   1      37.191  33.603  13.029 -0.50 +0.00    +0.004 C 
DOCKED: ATOM     45  C   UNL d   1      36.014  33.255  12.509 -0.62 +0.00    +0.012 C 
DOCKED: ENDBRANCH  12  44
DOCKED: BRANCH  17  46
DOCKED: ATOM     46  C   UNL d   1      36.957  25.420  12.931 -0.63 +0.00    +0.004 C 
DOCKED: ATOM     47  C   UNL d   1      35.879  24.794  13.420 -0.69 +0.00    +0.012 C 
DOCKED: ENDBRANCH  17  46
DOCKED: TORSDOF 10
DOCKED: TER
DOCKED: ENDMDL
________________________________________________________________________________


	BEGINNING GENETIC ALGORITHM DOCKING 16 of 100
Run: 16 Seed: 433539779 1451227543 [ Run 16 of 100 GA/GALS ]
Beginning LAMARCKIAN GENETIC ALGORITHM (LGA), with a maximum of 25000000 energy evaluations.

Final-Value: -11.583


	FINAL GENETIC ALGORITHM DOCKED STATE
	_______________________________________________


Detailed state:  trans 27.971 41.338 -0.608 quatxyzw 0.155436 0.748999 -0.394879 -0.508832 center 8.287 34.468 -0.670 ntor 10 -130.8299 97.7792 -66.3623 119.0769 -16.0834 -77.5827 -71.7581 140.5966 180.0000 180.0000
State:	 27.971  41.338  -0.608   0.181  0.870 -0.459 -118.828   -130.83   97.78  -66.36  119.08  -16.08  -77.58  -71.76  140.60  180.00  180.00

DOCKED: MODEL       16
DOCKED: USER    Run = 16
DOCKED: USER    DPF = D:/Protein_go_brrr/autodock/final/2DN3/heme_O2/dock.dpf
DOCKED: USER  
DOCKED: USER    Estimated Free Energy of Binding    =   -6.49 kcal/mol  [=(1)+(2)+(3)-(4)]
DOCKED: USER    Estimated Inhibition Constant, Ki   =   17.52 uM (micromolar)  [Temperature = 298.15 K]
DOCKED: USER    
DOCKED: USER    (1) Final Intermolecular Energy     =   -9.47 kcal/mol
DOCKED: USER        vdW + Hbond + desolv Energy     =   -6.70 kcal/mol
DOCKED: USER        Electrostatic Energy            =   -2.77 kcal/mol
DOCKED: USER    (2) Final Total Internal Energy     =   -2.11 kcal/mol
DOCKED: USER    (3) Torsional Free Energy           =   +2.98 kcal/mol
DOCKED: USER    (4) Unbound System's Energy  [=(2)] =   -2.11 kcal/mol
DOCKED: USER    
DOCKED: USER    
DOCKED: USER    NEWDPF move heme_O2_opt.pdbqt
DOCKED: USER    NEWDPF about 8.287000 34.468000 -0.670000
DOCKED: USER    NEWDPF tran0 27.970955 41.337859 -0.608094
DOCKED: USER    NEWDPF quaternion0 0.155436 0.748999 -0.394879 -0.508832
DOCKED: USER    NEWDPF axisangle0 0.180557 0.870054 -0.458700 -118.827849
DOCKED: USER    NEWDPF quat0 0.180557 0.870054 -0.458700 -118.827849
DOCKED: USER    NEWDPF dihe0 -130.83 97.78 -66.36 119.08 -16.08 -77.58 -71.76 140.60 180.00 180.00 
DOCKED: USER  keepresnum = 1 
DOCKED: USER  
DOCKED: REMARK  10 active torsions:
DOCKED: REMARK  status: ('A' for Active; 'I' for Inactive)
DOCKED: REMARK    1  A    between atoms: C_6  and  C_10 
DOCKED: REMARK    2  A    between atoms: C_10  and  C_11 
DOCKED: REMARK    3  A    between atoms: C_11  and  C_12 
DOCKED: REMARK    4  A    between atoms: C_12  and  O_14 
DOCKED: REMARK    5  A    between atoms: C_17  and  C_20 
DOCKED: REMARK    6  A    between atoms: C_24  and  C_27 
DOCKED: REMARK    7  A    between atoms: C_31  and  C_34 
DOCKED: REMARK    8  A    between atoms: C_34  and  C_35 
DOCKED: REMARK    9  A    between atoms: C_35  and  C_36 
DOCKED: REMARK   10  A    between atoms: C_36  and  O_38 
DOCKED: USER                              x       y       z     vdW  Elec       q    Type
DOCKED: USER                           _______ _______ _______ _____ _____    ______ ____
DOCKED: ROOT
DOCKED: ATOM      1  C   UNL d   1      28.653  42.639   0.922 -0.17 +0.02    +0.064 A 
DOCKED: ATOM      2  C   UNL d   1      28.783  37.916   0.433 -0.13 +0.01    +0.064 A 
DOCKED: ATOM      3  C   UNL d   1      26.501  38.198  -3.787 -0.25 +0.01    +0.064 C 
DOCKED: ATOM      4  C   UNL d   1      26.786  43.089  -3.522 -0.16 +0.01    +0.064 A 
DOCKED: ATOM      5  C   UNL d   1      28.876  41.331   1.133 -0.15 +0.01    +0.066 A 
DOCKED: ATOM      6  C   UNL d   1      29.501  40.817   2.272 -0.19 -0.00    -0.021 A 
DOCKED: ATOM      7  C   UNL d   1      29.578  39.454   2.112 -0.15 -0.00    -0.025 A 
DOCKED: ATOM      8  C   UNL d   1      28.954  39.168   0.900 -0.13 +0.01    +0.066 A 
DOCKED: ATOM      9  C   UNL d   1      30.251  38.505   3.079 -0.06 -0.00    +0.051 C 
DOCKED: ATOM     10  C   UNL d   1      28.117  37.553  -0.819 -0.12 +0.01    +0.066 A 
DOCKED: ATOM     11  C   UNL d   1      27.820  36.233  -1.178 -0.15 -0.00    -0.021 A 
DOCKED: ATOM     12  C   UNL d   1      27.146  36.295  -2.383 -0.19 +0.00    +0.000 A 
DOCKED: ATOM     13  C   UNL d   1      27.079  37.679  -2.705 -0.18 +0.01    +0.070 A 
DOCKED: ATOM     14  C   UNL d   1      28.143  34.968  -0.390 -0.14 +0.02    +0.052 C 
DOCKED: ATOM     15  C   UNL d   1      26.442  39.590  -4.167 -0.19 +0.01    +0.066 A 
DOCKED: ATOM     16  C   UNL d   1      25.967  40.055  -5.392 -0.19 -0.00    -0.021 A 
DOCKED: ATOM     17  C   UNL d   1      26.040  41.447  -5.340 -0.18 +0.00    +0.000 A 
DOCKED: ATOM     18  C   UNL d   1      26.558  41.730  -4.069 -0.19 +0.01    +0.070 A 
DOCKED: ATOM     19  C   UNL d   1      25.544  39.139  -6.512 -0.13 +0.01    +0.052 C 
DOCKED: ATOM     20  C   UNL d   1      27.322  43.395  -2.325 -0.15 +0.02    +0.066 A 
DOCKED: ATOM     21  C   UNL d   1      27.495  44.695  -1.857 -0.11 -0.01    -0.025 A 
DOCKED: ATOM     22  C   UNL d   1      28.001  44.585  -0.581 -0.13 -0.01    -0.021 A 
DOCKED: ATOM     23  C   UNL d   1      28.135  43.217  -0.323 -0.15 +0.02    +0.066 A 
DOCKED: ATOM     24  C   UNL d   1      27.197  45.976  -2.591 -0.08 +0.01    +0.051 C 
DOCKED: ATOM     25  N   UNL d   1      28.581  40.330   0.267 -0.08 -0.04    -0.248 N 
DOCKED: ATOM     26  N   UNL d   1      27.676  38.436  -1.750 -0.07 -0.03    -0.248 N 
DOCKED: ATOM     27  N   UNL d   1      26.866  40.590  -3.400 -0.04 -0.04    -0.248 N 
DOCKED: ATOM     28  N   UNL d   1      27.763  42.499  -1.402 -0.10 -0.06    -0.248 N 
DOCKED: ATOM     29 FE   UNL d   1      27.719  40.483  -1.578 -0.05 +0.00    +0.000 Fe
DOCKED: ATOM     30  O   UNL d   1      29.203  40.017  -1.614 -0.11 +0.00    +0.000 OA
DOCKED: ATOM     31  O   UNL d   1      28.677  41.033  -2.697 -0.12 +0.00    +0.000 OA
DOCKED: ENDROOT
DOCKED: BRANCH   6  32
DOCKED: ATOM     32  C   UNL d   1      30.127  41.586   3.407 -0.32 +0.01    +0.052 C 
DOCKED: BRANCH  32  33
DOCKED: ATOM     33  C   UNL d   1      31.634  41.760   3.245 -0.30 +0.04    +0.115 C 
DOCKED: BRANCH  33  34
DOCKED: ATOM     34  C   UNL d   1      32.012  43.166   2.852 -0.32 +0.12    +0.139 C 
DOCKED: ATOM     35  O   UNL d   1      33.143  43.400   2.457 -0.33 -1.17    -0.650 OA
DOCKED: BRANCH  34  36
DOCKED: ATOM     36  O   UNL d   1      31.133  44.185   2.954 +0.06 -0.63    -0.776 OA
DOCKED: ATOM     37  H   UNL d   1      30.973  44.797   2.226 +0.05 +0.15    +0.167 HD
DOCKED: ENDBRANCH  34  36
DOCKED: ENDBRANCH  33  34
DOCKED: ENDBRANCH  32  33
DOCKED: ENDBRANCH   6  32
DOCKED: BRANCH  22  38
DOCKED: ATOM     38  C   UNL d   1      28.392  45.735   0.311 -0.14 +0.03    +0.052 C 
DOCKED: BRANCH  38  39
DOCKED: ATOM     39  C   UNL d   1      29.746  46.331  -0.069 -0.11 +0.06    +0.115 C 
DOCKED: BRANCH  39  40
DOCKED: ATOM     40  C   UNL d   1      30.759  45.275  -0.434 -0.12 +0.10    +0.139 C 
DOCKED: ATOM     41  O   UNL d   1      30.601  44.606  -1.442 +0.03 -0.33    -0.650 OA
DOCKED: BRANCH  40  42
DOCKED: ATOM     42  O   UNL d   1      31.868  45.088   0.309 -0.34 -1.41    -0.776 OA
DOCKED: ATOM     43  H   UNL d   1      31.931  44.371   0.950 +0.03 +0.29    +0.167 HD
DOCKED: ENDBRANCH  40  42
DOCKED: ENDBRANCH  39  40
DOCKED: ENDBRANCH  38  39
DOCKED: ENDBRANCH  22  38
DOCKED: BRANCH  12  44
DOCKED: ATOM     44  C   UNL d   1      26.650  35.051  -3.091 -0.14 +0.00    +0.004 C 
DOCKED: ATOM     45  C   UNL d   1      25.390  34.644  -3.243 -0.22 -0.00    +0.012 C 
DOCKED: ENDBRANCH  12  44
DOCKED: BRANCH  17  46
DOCKED: ATOM     46  C   UNL d   1      25.726  42.493  -6.377 -0.12 +0.00    +0.004 C 
DOCKED: ATOM     47  C   UNL d   1      24.734  43.393  -6.372 -0.14 +0.00    +0.012 C 
DOCKED: ENDBRANCH  17  46
DOCKED: TORSDOF 10
DOCKED: TER
DOCKED: ENDMDL
________________________________________________________________________________


	BEGINNING GENETIC ALGORITHM DOCKING 17 of 100
Run: 17 Seed: 152269072 2097830901 [ Run 17 of 100 GA/GALS ]
Beginning LAMARCKIAN GENETIC ALGORITHM (LGA), with a maximum of 25000000 energy evaluations.

Final-Value: -19.872


	FINAL GENETIC ALGORITHM DOCKED STATE
	_______________________________________________


Detailed state:  trans 41.116 28.885 16.153 quatxyzw 0.361049 -0.383402 -0.847262 0.069237 center 8.287 34.468 -0.670 ntor 10 -63.4059 -180.0000 28.6404 -61.4118 131.2241 84.3496 14.9167 44.6799 -29.0637 156.7492
State:	 41.116  28.885  16.153   0.362 -0.384 -0.849 172.060    -63.41 -180.00   28.64  -61.41  131.22   84.35   14.92   44.68  -29.06  156.75

DOCKED: MODEL       17
DOCKED: USER    Run = 17
DOCKED: USER    DPF = D:/Protein_go_brrr/autodock/final/2DN3/heme_O2/dock.dpf
DOCKED: USER  
DOCKED: USER    Estimated Free Energy of Binding    =  -15.40 kcal/mol  [=(1)+(2)+(3)-(4)]
DOCKED: USER    Estimated Inhibition Constant, Ki   =    5.12 pM (picomolar)  [Temperature = 298.15 K]
DOCKED: USER    
DOCKED: USER    (1) Final Intermolecular Energy     =  -18.39 kcal/mol
DOCKED: USER        vdW + Hbond + desolv Energy     =  -16.59 kcal/mol
DOCKED: USER        Electrostatic Energy            =   -1.80 kcal/mol
DOCKED: USER    (2) Final Total Internal Energy     =   -1.49 kcal/mol
DOCKED: USER    (3) Torsional Free Energy           =   +2.98 kcal/mol
DOCKED: USER    (4) Unbound System's Energy  [=(2)] =   -1.49 kcal/mol
DOCKED: USER    
DOCKED: USER    
DOCKED: USER    NEWDPF move heme_O2_opt.pdbqt
DOCKED: USER    NEWDPF about 8.287000 34.468000 -0.670000
DOCKED: USER    NEWDPF tran0 41.116194 28.884980 16.152547
DOCKED: USER    NEWDPF quaternion0 0.361049 -0.383402 -0.847262 0.069237
DOCKED: USER    NEWDPF axisangle0 0.361918 -0.384324 -0.849300 172.059720
DOCKED: USER    NEWDPF quat0 0.361918 -0.384324 -0.849300 172.059720
DOCKED: USER    NEWDPF dihe0 -63.41 -180.00 28.64 -61.41 131.22 84.35 14.92 44.68 -29.06 156.75 
DOCKED: USER  keepresnum = 1 
DOCKED: USER  
DOCKED: REMARK  10 active torsions:
DOCKED: REMARK  status: ('A' for Active; 'I' for Inactive)
DOCKED: REMARK    1  A    between atoms: C_6  and  C_10 
DOCKED: REMARK    2  A    between atoms: C_10  and  C_11 
DOCKED: REMARK    3  A    between atoms: C_11  and  C_12 
DOCKED: REMARK    4  A    between atoms: C_12  and  O_14 
DOCKED: REMARK    5  A    between atoms: C_17  and  C_20 
DOCKED: REMARK    6  A    between atoms: C_24  and  C_27 
DOCKED: REMARK    7  A    between atoms: C_31  and  C_34 
DOCKED: REMARK    8  A    between atoms: C_34  and  C_35 
DOCKED: REMARK    9  A    between atoms: C_35  and  C_36 
DOCKED: REMARK   10  A    between atoms: C_36  and  O_38 
DOCKED: USER                              x       y       z     vdW  Elec       q    Type
DOCKED: USER                           _______ _______ _______ _____ _____    ______ ____
DOCKED: ROOT
DOCKED: ATOM      1  C   UNL d   1      42.690  28.204  17.401 -0.15 +0.02    +0.064 A 
DOCKED: ATOM      2  C   UNL d   1      40.837  32.510  16.635 -0.42 +0.01    +0.064 A 
DOCKED: ATOM      3  C   UNL d   1      37.735  30.707  13.438 -0.41 +0.01    +0.064 C 
DOCKED: ATOM      4  C   UNL d   1      39.312  26.202  14.570 -0.41 +0.01    +0.064 A 
DOCKED: ATOM      5  C   UNL d   1      42.438  29.522  17.455 -0.23 +0.02    +0.066 A 
DOCKED: ATOM      6  C   UNL d   1      43.146  30.423  18.256 -0.31 -0.01    -0.021 A 
DOCKED: ATOM      7  C   UNL d   1      42.582  31.663  18.067 -0.43 -0.01    -0.025 A 
DOCKED: ATOM      8  C   UNL d   1      41.576  31.494  17.120 -0.40 +0.01    +0.066 A 
DOCKED: ATOM      9  C   UNL d   1      42.993  32.921  18.800 -0.40 +0.01    +0.051 C 
DOCKED: ATOM     10  C   UNL d   1      39.784  32.398  15.624 -0.39 +0.01    +0.066 A 
DOCKED: ATOM     11  C   UNL d   1      39.160  33.504  15.037 -0.44 -0.00    -0.021 A 
DOCKED: ATOM     12  C   UNL d   1      38.275  33.005  14.099 -0.40 +0.00    +0.000 A 
DOCKED: ATOM     13  C   UNL d   1      38.403  31.591  14.178 -0.37 +0.01    +0.070 A 
DOCKED: ATOM     14  C   UNL d   1      39.418  34.976  15.338 -0.54 +0.01    +0.052 C 
DOCKED: ATOM     15  C   UNL d   1      37.810  29.268  13.511 -0.38 +0.01    +0.066 A 
DOCKED: ATOM     16  C   UNL d   1      36.965  28.396  12.824 -0.50 -0.00    -0.021 A 
DOCKED: ATOM     17  C   UNL d   1      37.395  27.105  13.133 -0.47 +0.00    +0.000 A 
DOCKED: ATOM     18  C   UNL d   1      38.486  27.289  13.994 -0.37 +0.01    +0.070 A 
DOCKED: ATOM     19  C   UNL d   1      35.801  28.866  11.988 -0.66 +0.01    +0.052 C 
DOCKED: ATOM     20  C   UNL d   1      40.337  26.341  15.433 -0.38 +0.02    +0.066 A 
DOCKED: ATOM     21  C   UNL d   1      41.090  25.279  15.928 -0.39 -0.01    -0.025 A 
DOCKED: ATOM     22  C   UNL d   1      42.074  25.833  16.715 -0.35 -0.01    -0.021 A 
DOCKED: ATOM     23  C   UNL d   1      41.874  27.217  16.686 -0.34 +0.02    +0.066 A 
DOCKED: ATOM     24  C   UNL d   1      40.878  23.811  15.666 -0.55 +0.01    +0.051 C 
DOCKED: ATOM     25  N   UNL d   1      41.445  30.164  16.792 -0.19 -0.08    -0.248 N 
DOCKED: ATOM     26  N   UNL d   1      39.320  31.230  15.112 -0.21 -0.05    -0.248 N 
DOCKED: ATOM     27  N   UNL d   1      38.675  28.604  14.272 -0.21 -0.06    -0.248 N 
DOCKED: ATOM     28  N   UNL d   1      40.789  27.517  15.942 -0.24 -0.08    -0.248 N 
DOCKED: ATOM     29 FE   UNL d   1      40.058  29.359  15.528 -0.06 +0.00    +0.000 Fe
DOCKED: ATOM     30  O   UNL d   1      39.457  29.897  16.860 -0.67 +0.00    +0.000 OA
DOCKED: ATOM     31  O   UNL d   1      38.918  28.549  16.248 -0.60 +0.00    +0.000 OA
DOCKED: ENDROOT
DOCKED: BRANCH   6  32
DOCKED: ATOM     32  C   UNL d   1      44.222  30.112  19.264 -0.29 +0.03    +0.052 C 
DOCKED: BRANCH  32  33
DOCKED: ATOM     33  C   UNL d   1      45.374  29.306  18.672 -0.20 +0.06    +0.115 C 
DOCKED: BRANCH  33  34
DOCKED: ATOM     34  C   UNL d   1      46.285  28.741  19.733 -0.15 +0.10    +0.139 C 
DOCKED: ATOM     35  O   UNL d   1      46.283  29.228  20.853 -0.36 -0.88    -0.650 OA
DOCKED: BRANCH  34  36
DOCKED: ATOM     36  O   UNL d   1      47.129  27.722  19.466 +0.06 -0.48    -0.776 OA
DOCKED: ATOM     37  H   UNL d   1      46.810  26.850  19.205 +0.05 +0.10    +0.167 HD
DOCKED: ENDBRANCH  34  36
DOCKED: ENDBRANCH  33  34
DOCKED: ENDBRANCH  32  33
DOCKED: ENDBRANCH   6  32
DOCKED: BRANCH  22  38
DOCKED: ATOM     38  C   UNL d   1      43.107  25.066  17.500 -0.36 +0.02    +0.052 C 
DOCKED: BRANCH  38  39
DOCKED: ATOM     39  C   UNL d   1      42.758  24.972  18.984 -0.39 +0.04    +0.115 C 
DOCKED: BRANCH  39  40
DOCKED: ATOM     40  C   UNL d   1      43.950  25.220  19.873 -0.28 +0.07    +0.139 C 
DOCKED: ATOM     41  O   UNL d   1      44.200  24.446  20.783 -0.60 -0.42    -0.650 OA
DOCKED: BRANCH  40  42
DOCKED: ATOM     42  O   UNL d   1      44.780  26.258  19.650 +0.09 -0.46    -0.776 OA
DOCKED: ATOM     43  H   UNL d   1      45.567  26.400  20.191 +0.06 +0.12    +0.167 HD
DOCKED: ENDBRANCH  40  42
DOCKED: ENDBRANCH  39  40
DOCKED: ENDBRANCH  38  39
DOCKED: ENDBRANCH  22  38
DOCKED: BRANCH  12  44
DOCKED: ATOM     44  C   UNL d   1      37.414  33.912  13.245 -0.47 +0.00    +0.004 C 
DOCKED: ATOM     45  C   UNL d   1      36.255  33.622  12.655 -0.60 +0.00    +0.012 C 
DOCKED: ENDBRANCH  12  44
DOCKED: BRANCH  17  46
DOCKED: ATOM     46  C   UNL d   1      36.845  25.760  12.741 -0.58 +0.00    +0.004 C 
DOCKED: ATOM     47  C   UNL d   1      35.688  25.197  13.115 -0.71 +0.00    +0.012 C 
DOCKED: ENDBRANCH  17  46
DOCKED: TORSDOF 10
DOCKED: TER
DOCKED: ENDMDL
________________________________________________________________________________


	BEGINNING GENETIC ALGORITHM DOCKING 18 of 100
Run: 18 Seed: 383731624 233781349 [ Run 18 of 100 GA/GALS ]
Beginning LAMARCKIAN GENETIC ALGORITHM (LGA), with a maximum of 25000000 energy evaluations.

Final-Value: -20.257


	FINAL GENETIC ALGORITHM DOCKED STATE
	_______________________________________________


Detailed state:  trans 41.192 28.893 16.183 quatxyzw 0.373862 -0.395768 -0.838436 0.024885 center 8.287 34.468 -0.670 ntor 10 -129.1644 47.9249 30.7027 -51.3150 125.1449 118.7674 49.9111 3.3206 -21.7824 137.7273
State:	 41.192  28.893  16.183   0.374 -0.396 -0.839 177.148   -129.16   47.92   30.70  -51.31  125.14  118.77   49.91    3.32  -21.78  137.73

DOCKED: MODEL       18
DOCKED: USER    Run = 18
DOCKED: USER    DPF = D:/Protein_go_brrr/autodock/final/2DN3/heme_O2/dock.dpf
DOCKED: USER  
DOCKED: USER    Estimated Free Energy of Binding    =  -15.14 kcal/mol  [=(1)+(2)+(3)-(4)]
DOCKED: USER    Estimated Inhibition Constant, Ki   =    7.95 pM (picomolar)  [Temperature = 298.15 K]
DOCKED: USER    
DOCKED: USER    (1) Final Intermolecular Energy     =  -18.13 kcal/mol
DOCKED: USER        vdW + Hbond + desolv Energy     =  -16.40 kcal/mol
DOCKED: USER        Electrostatic Energy            =   -1.73 kcal/mol
DOCKED: USER    (2) Final Total Internal Energy     =   -2.13 kcal/mol
DOCKED: USER    (3) Torsional Free Energy           =   +2.98 kcal/mol
DOCKED: USER    (4) Unbound System's Energy  [=(2)] =   -2.13 kcal/mol
DOCKED: USER    
DOCKED: USER    
DOCKED: USER    NEWDPF move heme_O2_opt.pdbqt
DOCKED: USER    NEWDPF about 8.287000 34.468000 -0.670000
DOCKED: USER    NEWDPF tran0 41.192058 28.893059 16.183141
DOCKED: USER    NEWDPF quaternion0 0.373862 -0.395768 -0.838436 0.024885
DOCKED: USER    NEWDPF axisangle0 0.373978 -0.395891 -0.838696 177.148107
DOCKED: USER    NEWDPF quat0 0.373978 -0.395891 -0.838696 177.148107
DOCKED: USER    NEWDPF dihe0 -129.16 47.92 30.70 -51.31 125.14 118.77 49.91 3.32 -21.78 137.73 
DOCKED: USER  keepresnum = 1 
DOCKED: USER  
DOCKED: REMARK  10 active torsions:
DOCKED: REMARK  status: ('A' for Active; 'I' for Inactive)
DOCKED: REMARK    1  A    between atoms: C_6  and  C_10 
DOCKED: REMARK    2  A    between atoms: C_10  and  C_11 
DOCKED: REMARK    3  A    between atoms: C_11  and  C_12 
DOCKED: REMARK    4  A    between atoms: C_12  and  O_14 
DOCKED: REMARK    5  A    between atoms: C_17  and  C_20 
DOCKED: REMARK    6  A    between atoms: C_24  and  C_27 
DOCKED: REMARK    7  A    between atoms: C_31  and  C_34 
DOCKED: REMARK    8  A    between atoms: C_34  and  C_35 
DOCKED: REMARK    9  A    between atoms: C_35  and  C_36 
DOCKED: REMARK   10  A    between atoms: C_36  and  O_38 
DOCKED: USER                              x       y       z     vdW  Elec       q    Type
DOCKED: USER                           _______ _______ _______ _____ _____    ______ ____
DOCKED: ROOT
DOCKED: ATOM      1  C   UNL d   1      42.820  28.410  17.455 -0.17 +0.02    +0.064 A 
DOCKED: ATOM      2  C   UNL d   1      40.644  32.510  16.446 -0.41 +0.01    +0.064 A 
DOCKED: ATOM      3  C   UNL d   1      37.669  30.287  13.396 -0.42 +0.01    +0.064 C 
DOCKED: ATOM      4  C   UNL d   1      39.585  25.990  14.786 -0.40 +0.01    +0.064 A 
DOCKED: ATOM      5  C   UNL d   1      42.469  29.706  17.431 -0.28 +0.02    +0.066 A 
DOCKED: ATOM      6  C   UNL d   1      43.112  30.705  18.168 -0.36 -0.01    -0.021 A 
DOCKED: ATOM      7  C   UNL d   1      42.456  31.885  17.910 -0.44 -0.01    -0.025 A 
DOCKED: ATOM      8  C   UNL d   1      41.460  31.584  16.984 -0.40 +0.01    +0.066 A 
DOCKED: ATOM      9  C   UNL d   1      42.775  33.213  18.560 -0.44 +0.01    +0.051 C 
DOCKED: ATOM     10  C   UNL d   1      39.597  32.258  15.454 -0.38 +0.01    +0.066 A 
DOCKED: ATOM     11  C   UNL d   1      38.889  33.276  14.807 -0.42 -0.00    -0.021 A 
DOCKED: ATOM     12  C   UNL d   1      38.039  32.656  13.910 -0.40 +0.00    +0.000 A 
DOCKED: ATOM     13  C   UNL d   1      38.273  31.262  14.074 -0.37 +0.01    +0.070 A 
DOCKED: ATOM     14  C   UNL d   1      39.038  34.779  15.015 -0.54 +0.01    +0.052 C 
DOCKED: ATOM     15  C   UNL d   1      37.852  28.864  13.556 -0.38 +0.01    +0.066 A 
DOCKED: ATOM     16  C   UNL d   1      37.072  27.891  12.932 -0.47 -0.00    -0.021 A 
DOCKED: ATOM     17  C   UNL d   1      37.599  26.658  13.315 -0.46 +0.00    +0.000 A 
DOCKED: ATOM     18  C   UNL d   1      38.677  26.975  14.153 -0.38 +0.01    +0.070 A 
DOCKED: ATOM     19  C   UNL d   1      35.871  28.221  12.081 -0.66 +0.01    +0.052 C 
DOCKED: ATOM     20  C   UNL d   1      40.602  26.258  15.629 -0.37 +0.02    +0.066 A 
DOCKED: ATOM     21  C   UNL d   1      41.435  25.288  16.180 -0.40 -0.01    -0.025 A 
DOCKED: ATOM     22  C   UNL d   1      42.379  25.962  16.922 -0.35 -0.01    -0.021 A 
DOCKED: ATOM     23  C   UNL d   1      42.075  27.322  16.810 -0.34 +0.02    +0.066 A 
DOCKED: ATOM     24  C   UNL d   1      41.332  23.795  16.010 -0.54 +0.01    +0.051 C 
DOCKED: ATOM     25  N   UNL d   1      41.427  30.230  16.740 -0.17 -0.08    -0.248 N 
DOCKED: ATOM     26  N   UNL d   1      39.219  31.029  15.019 -0.20 -0.05    -0.248 N 
DOCKED: ATOM     27  N   UNL d   1      38.769  28.316  14.348 -0.17 -0.06    -0.248 N 
DOCKED: ATOM     28  N   UNL d   1      40.967  27.494  16.060 -0.25 -0.08    -0.248 N 
DOCKED: ATOM     29 FE   UNL d   1      40.098  29.247  15.542 -0.06 +0.00    +0.000 Fe
DOCKED: ATOM     30  O   UNL d   1      39.466  29.821  16.843 -0.70 +0.00    +0.000 OA
DOCKED: ATOM     31  O   UNL d   1      39.026  28.401  16.321 -0.61 +0.00    +0.000 OA
DOCKED: ENDROOT
DOCKED: BRANCH   6  32
DOCKED: ATOM     32  C   UNL d   1      44.214  30.538  19.183 -0.32 +0.02    +0.052 C 
DOCKED: BRANCH  32  33
DOCKED: ATOM     33  C   UNL d   1      45.486  29.945  18.585 -0.21 +0.05    +0.115 C 
DOCKED: BRANCH  33  34
DOCKED: ATOM     34  C   UNL d   1      46.039  28.813  19.415 -0.16 +0.09    +0.139 C 
DOCKED: ATOM     35  O   UNL d   1      45.796  28.768  20.611 -0.18 -0.79    -0.650 OA
DOCKED: BRANCH  34  36
DOCKED: ATOM     36  O   UNL d   1      46.822  27.860  18.871 +0.06 -0.43    -0.776 OA
DOCKED: ATOM     37  H   UNL d   1      46.641  26.920  18.991 +0.05 +0.10    +0.167 HD
DOCKED: ENDBRANCH  34  36
DOCKED: ENDBRANCH  33  34
DOCKED: ENDBRANCH  32  33
DOCKED: ENDBRANCH   6  32
DOCKED: BRANCH  22  38
DOCKED: ATOM     38  C   UNL d   1      43.470  25.324  17.742 -0.33 +0.02    +0.052 C 
DOCKED: BRANCH  38  39
DOCKED: ATOM     39  C   UNL d   1      43.379  25.694  19.220 -0.25 +0.05    +0.115 C 
DOCKED: BRANCH  39  40
DOCKED: ATOM     40  C   UNL d   1      44.501  25.099  20.034 -0.23 +0.08    +0.139 C 
DOCKED: ATOM     41  O   UNL d   1      44.322  24.055  20.641 -0.56 -0.46    -0.650 OA
DOCKED: BRANCH  40  42
DOCKED: ATOM     42  O   UNL d   1      45.720  25.672  20.063 +0.09 -0.49    -0.776 OA
DOCKED: ATOM     43  H   UNL d   1      45.831  26.611  20.253 +0.05 +0.13    +0.167 HD
DOCKED: ENDBRANCH  40  42
DOCKED: ENDBRANCH  39  40
DOCKED: ENDBRANCH  38  39
DOCKED: ENDBRANCH  22  38
DOCKED: BRANCH  12  44
DOCKED: ATOM     44  C   UNL d   1      37.108  33.441  13.010 -0.51 +0.00    +0.004 C 
DOCKED: ATOM     45  C   UNL d   1      35.952  33.042  12.481 -0.63 +0.00    +0.012 C 
DOCKED: ENDBRANCH  12  44
DOCKED: BRANCH  17  46
DOCKED: ATOM     46  C   UNL d   1      37.149  25.254  13.011 -0.64 +0.00    +0.004 C 
DOCKED: ATOM     47  C   UNL d   1      35.963  24.690  13.273 -0.67 +0.00    +0.012 C 
DOCKED: ENDBRANCH  17  46
DOCKED: TORSDOF 10
DOCKED: TER
DOCKED: ENDMDL
________________________________________________________________________________


	BEGINNING GENETIC ALGORITHM DOCKING 19 of 100
Run: 19 Seed: 821917876 1493128381 [ Run 19 of 100 GA/GALS ]
Beginning LAMARCKIAN GENETIC ALGORITHM (LGA), with a maximum of 25000000 energy evaluations.

Final-Value: -13.664


	FINAL GENETIC ALGORITHM DOCKED STATE
	_______________________________________________


Detailed state:  trans 44.843 21.181 18.210 quatxyzw -0.689125 -0.663174 -0.183184 -0.227488 center 8.287 34.468 -0.670 ntor 10 33.2341 -104.0480 101.0597 98.1145 58.2157 107.7511 178.3956 121.8733 -166.0049 -180.0000
State:	 44.843  21.181  18.210  -0.708 -0.681 -0.188 -153.702     33.23 -104.05  101.06   98.11   58.22  107.75  178.40  121.87 -166.00 -180.00

DOCKED: MODEL       19
DOCKED: USER    Run = 19
DOCKED: USER    DPF = D:/Protein_go_brrr/autodock/final/2DN3/heme_O2/dock.dpf
DOCKED: USER  
DOCKED: USER    Estimated Free Energy of Binding    =   -8.39 kcal/mol  [=(1)+(2)+(3)-(4)]
DOCKED: USER    Estimated Inhibition Constant, Ki   =  710.18 nM (nanomolar)  [Temperature = 298.15 K]
DOCKED: USER    
DOCKED: USER    (1) Final Intermolecular Energy     =  -11.37 kcal/mol
DOCKED: USER        vdW + Hbond + desolv Energy     =   -8.89 kcal/mol
DOCKED: USER        Electrostatic Energy            =   -2.48 kcal/mol
DOCKED: USER    (2) Final Total Internal Energy     =   -2.29 kcal/mol
DOCKED: USER    (3) Torsional Free Energy           =   +2.98 kcal/mol
DOCKED: USER    (4) Unbound System's Energy  [=(2)] =   -2.29 kcal/mol
DOCKED: USER    
DOCKED: USER    
DOCKED: USER    NEWDPF move heme_O2_opt.pdbqt
DOCKED: USER    NEWDPF about 8.287000 34.468000 -0.670000
DOCKED: USER    NEWDPF tran0 44.842528 21.181070 18.210187
DOCKED: USER    NEWDPF quaternion0 -0.689125 -0.663174 -0.183184 -0.227488
DOCKED: USER    NEWDPF axisangle0 -0.707680 -0.681030 -0.188116 -153.701553
DOCKED: USER    NEWDPF quat0 -0.707680 -0.681030 -0.188116 -153.701553
DOCKED: USER    NEWDPF dihe0 33.23 -104.05 101.06 98.11 58.22 107.75 178.40 121.87 -166.00 -180.00 
DOCKED: USER  keepresnum = 1 
DOCKED: USER  
DOCKED: REMARK  10 active torsions:
DOCKED: REMARK  status: ('A' for Active; 'I' for Inactive)
DOCKED: REMARK    1  A    between atoms: C_6  and  C_10 
DOCKED: REMARK    2  A    between atoms: C_10  and  C_11 
DOCKED: REMARK    3  A    between atoms: C_11  and  C_12 
DOCKED: REMARK    4  A    between atoms: C_12  and  O_14 
DOCKED: REMARK    5  A    between atoms: C_17  and  C_20 
DOCKED: REMARK    6  A    between atoms: C_24  and  C_27 
DOCKED: REMARK    7  A    between atoms: C_31  and  C_34 
DOCKED: REMARK    8  A    between atoms: C_34  and  C_35 
DOCKED: REMARK    9  A    between atoms: C_35  and  C_36 
DOCKED: REMARK   10  A    between atoms: C_36  and  O_38 
DOCKED: USER                              x       y       z     vdW  Elec       q    Type
DOCKED: USER                           _______ _______ _______ _____ _____    ______ ____
DOCKED: ROOT
DOCKED: ATOM      1  C   UNL d   1      45.383  19.172  17.795 -0.18 +0.03    +0.064 A 
DOCKED: ATOM      2  C   UNL d   1      42.543  22.257  15.564 -0.26 +0.02    +0.064 A 
DOCKED: ATOM      3  C   UNL d   1      43.399  25.603  18.906 -0.31 +0.03    +0.064 C 
DOCKED: ATOM      4  C   UNL d   1      46.696  22.601  20.951 -0.09 +0.03    +0.064 A 
DOCKED: ATOM      5  C   UNL d   1      44.542  19.739  16.914 -0.24 +0.03    +0.066 A 
DOCKED: ATOM      6  C   UNL d   1      44.024  19.084  15.793 -0.22 -0.01    -0.021 A 
DOCKED: ATOM      7  C   UNL d   1      43.236  19.990  15.123 -0.31 -0.01    -0.025 A 
DOCKED: ATOM      8  C   UNL d   1      43.255  21.159  15.879 -0.27 +0.02    +0.066 A 
DOCKED: ATOM      9  C   UNL d   1      42.538  19.723  13.807 -0.39 +0.01    +0.051 C 
DOCKED: ATOM     10  C   UNL d   1      42.505  23.504  16.330 -0.37 +0.02    +0.066 A 
DOCKED: ATOM     11  C   UNL d   1      41.623  24.554  16.049 -0.42 -0.01    -0.021 A 
DOCKED: ATOM     12  C   UNL d   1      41.842  25.520  17.012 -0.38 +0.00    +0.000 A 
DOCKED: ATOM     13  C   UNL d   1      42.877  24.999  17.838 -0.33 +0.02    +0.070 A 
DOCKED: ATOM     14  C   UNL d   1      40.597  24.620  14.924 -0.56 +0.01    +0.052 C 
DOCKED: ATOM     15  C   UNL d   1      44.470  25.125  19.747 -0.22 +0.04    +0.066 A 
DOCKED: ATOM     16  C   UNL d   1      45.083  25.876  20.749 -0.21 -0.02    -0.021 A 
DOCKED: ATOM     17  C   UNL d   1      46.027  25.041  21.346 -0.13 +0.00    +0.000 A 
DOCKED: ATOM     18  C   UNL d   1      45.917  23.826  20.654 -0.12 +0.04    +0.070 A 
DOCKED: ATOM     19  C   UNL d   1      44.755  27.325  21.009 -0.17 +0.06    +0.052 C 
DOCKED: ATOM     20  C   UNL d   1      46.646  21.434  20.280 -0.09 +0.03    +0.066 A 
DOCKED: ATOM     21  C   UNL d   1      47.391  20.307  20.617 -0.11 -0.01    -0.025 A 
DOCKED: ATOM     22  C   UNL d   1      47.010  19.312  19.745 -0.13 -0.01    -0.021 A 
DOCKED: ATOM     23  C   UNL d   1      46.055  19.876  18.894 -0.17 +0.03    +0.066 A 
DOCKED: ATOM     24  C   UNL d   1      48.418  20.188  21.713 -0.05 +0.02    +0.051 C 
DOCKED: ATOM     25  N   UNL d   1      44.112  21.024  16.947 -0.19 -0.13    -0.248 N 
DOCKED: ATOM     26  N   UNL d   1      43.277  23.774  17.413 -0.21 -0.10    -0.248 N 
DOCKED: ATOM     27  N   UNL d   1      45.020  23.919  19.639 -0.09 -0.15    -0.248 N 
DOCKED: ATOM     28  N   UNL d   1      45.870  21.178  19.194 -0.13 -0.13    -0.248 N 
DOCKED: ATOM     29 FE   UNL d   1      44.584  22.469  18.312 -0.07 +0.00    +0.000 Fe
DOCKED: ATOM     30  O   UNL d   1      45.149  22.741  16.887 -0.47 +0.00    +0.000 OA
DOCKED: ATOM     31  O   UNL d   1      46.031  23.062  18.153 -0.27 +0.00    +0.000 OA
DOCKED: ENDROOT
DOCKED: BRANCH   6  32
DOCKED: ATOM     32  C   UNL d   1      44.364  17.704  15.292 -0.12 +0.02    +0.052 C 
DOCKED: BRANCH  32  33
DOCKED: ATOM     33  C   UNL d   1      45.643  17.673  14.462 -0.06 +0.05    +0.115 C 
DOCKED: BRANCH  33  34
DOCKED: ATOM     34  C   UNL d   1      46.228  19.049  14.255 -0.15 +0.12    +0.139 C 
DOCKED: ATOM     35  O   UNL d   1      45.927  19.688  13.259 -0.14 -0.53    -0.650 OA
DOCKED: BRANCH  34  36
DOCKED: ATOM     36  O   UNL d   1      47.102  19.581  15.134 +0.16 -1.38    -0.776 OA
DOCKED: ATOM     37  H   UNL d   1      47.736  19.038  15.616 +0.02 +0.22    +0.167 HD
DOCKED: ENDBRANCH  34  36
DOCKED: ENDBRANCH  33  34
DOCKED: ENDBRANCH  32  33
DOCKED: ENDBRANCH   6  32
DOCKED: BRANCH  22  38
DOCKED: ATOM     38  C   UNL d   1      47.583  17.919  19.698 -0.06 +0.02    +0.052 C 
DOCKED: BRANCH  38  39
DOCKED: ATOM     39  C   UNL d   1      48.941  17.872  19.002 -0.01 +0.04    +0.115 C 
DOCKED: BRANCH  39  40
DOCKED: ATOM     40  C   UNL d   1      48.878  18.369  17.579 -0.04 +0.09    +0.139 C 
DOCKED: ATOM     41  O   UNL d   1      48.971  17.577  16.656 +0.01 -0.34    -0.650 OA
DOCKED: BRANCH  40  42
DOCKED: ATOM     42  O   UNL d   1      48.667  19.671  17.306 -0.52 -1.01    -0.776 OA
DOCKED: ATOM     43  H   UNL d   1      47.800  19.997  17.036 +0.03 +0.32    +0.167 HD
DOCKED: ENDBRANCH  40  42
DOCKED: ENDBRANCH  39  40
DOCKED: ENDBRANCH  38  39
DOCKED: ENDBRANCH  22  38
DOCKED: BRANCH  12  44
DOCKED: ATOM     44  C   UNL d   1      41.060  26.817  17.043 -0.30 +0.00    +0.004 C 
DOCKED: ATOM     45  C   UNL d   1      41.293  27.930  16.348 -0.40 +0.00    +0.012 C 
DOCKED: ENDBRANCH  12  44
DOCKED: BRANCH  17  46
DOCKED: ATOM     46  C   UNL d   1      47.030  25.304  22.437 -0.08 +0.00    +0.004 C 
DOCKED: ATOM     47  C   UNL d   1      46.881  25.136  23.757 -0.08 +0.01    +0.012 C 
DOCKED: ENDBRANCH  17  46
DOCKED: TORSDOF 10
DOCKED: TER
DOCKED: ENDMDL
________________________________________________________________________________


	BEGINNING GENETIC ALGORITHM DOCKING 20 of 100
Run: 20 Seed: 1163681618 1326441212 [ Run 20 of 100 GA/GALS ]
Beginning LAMARCKIAN GENETIC ALGORITHM (LGA), with a maximum of 25000000 energy evaluations.

Final-Value: -13.186


	FINAL GENETIC ALGORITHM DOCKED STATE
	_______________________________________________


Detailed state:  trans 44.756 21.131 17.591 quatxyzw 0.678093 0.654966 0.198794 0.267752 center 8.287 34.468 -0.670 ntor 10 -139.5320 70.2114 106.0825 117.8935 -127.6245 -73.4665 172.6611 172.5281 -175.5895 162.3654
State:	 44.756  21.131  17.591   0.704  0.680  0.206 148.939   -139.53   70.21  106.08  117.89 -127.62  -73.47  172.66  172.53 -175.59  162.37

DOCKED: MODEL       20
DOCKED: USER    Run = 20
DOCKED: USER    DPF = D:/Protein_go_brrr/autodock/final/2DN3/heme_O2/dock.dpf
DOCKED: USER  
DOCKED: USER    Estimated Free Energy of Binding    =   -9.27 kcal/mol  [=(1)+(2)+(3)-(4)]
DOCKED: USER    Estimated Inhibition Constant, Ki   =  159.54 nM (nanomolar)  [Temperature = 298.15 K]
DOCKED: USER    
DOCKED: USER    (1) Final Intermolecular Energy     =  -12.26 kcal/mol
DOCKED: USER        vdW + Hbond + desolv Energy     =   -9.58 kcal/mol
DOCKED: USER        Electrostatic Energy            =   -2.68 kcal/mol
DOCKED: USER    (2) Final Total Internal Energy     =   -0.93 kcal/mol
DOCKED: USER    (3) Torsional Free Energy           =   +2.98 kcal/mol
DOCKED: USER    (4) Unbound System's Energy  [=(2)] =   -0.93 kcal/mol
DOCKED: USER    
DOCKED: USER    
DOCKED: USER    NEWDPF move heme_O2_opt.pdbqt
DOCKED: USER    NEWDPF about 8.287000 34.468000 -0.670000
DOCKED: USER    NEWDPF tran0 44.756277 21.131138 17.591367
DOCKED: USER    NEWDPF quaternion0 0.678093 0.654966 0.198794 0.267752
DOCKED: USER    NEWDPF axisangle0 0.703790 0.679786 0.206328 148.938964
DOCKED: USER    NEWDPF quat0 0.703790 0.679786 0.206328 148.938964
DOCKED: USER    NEWDPF dihe0 -139.53 70.21 106.08 117.89 -127.62 -73.47 172.66 172.53 -175.59 162.37 
DOCKED: USER  keepresnum = 1 
DOCKED: USER  
DOCKED: REMARK  10 active torsions:
DOCKED: REMARK  status: ('A' for Active; 'I' for Inactive)
DOCKED: REMARK    1  A    between atoms: C_6  and  C_10 
DOCKED: REMARK    2  A    between atoms: C_10  and  C_11 
DOCKED: REMARK    3  A    between atoms: C_11  and  C_12 
DOCKED: REMARK    4  A    between atoms: C_12  and  O_14 
DOCKED: REMARK    5  A    between atoms: C_17  and  C_20 
DOCKED: REMARK    6  A    between atoms: C_24  and  C_27 
DOCKED: REMARK    7  A    between atoms: C_31  and  C_34 
DOCKED: REMARK    8  A    between atoms: C_34  and  C_35 
DOCKED: REMARK    9  A    between atoms: C_35  and  C_36 
DOCKED: REMARK   10  A    between atoms: C_36  and  O_38 
DOCKED: USER                              x       y       z     vdW  Elec       q    Type
DOCKED: USER                           _______ _______ _______ _____ _____    ______ ____
DOCKED: ROOT
DOCKED: ATOM      1  C   UNL d   1      45.302  19.171  16.992 -0.16 +0.04    +0.064 A 
DOCKED: ATOM      2  C   UNL d   1      42.363  22.398  15.118 -0.25 +0.02    +0.064 A 
DOCKED: ATOM      3  C   UNL d   1      43.293  25.461  18.702 -0.33 +0.03    +0.064 C 
DOCKED: ATOM      4  C   UNL d   1      46.683  22.339  20.383 -0.11 +0.03    +0.064 A 
DOCKED: ATOM      5  C   UNL d   1      44.428  19.799  16.189 -0.22 +0.04    +0.066 A 
DOCKED: ATOM      6  C   UNL d   1      43.881  19.235  15.033 -0.21 -0.01    -0.021 A 
DOCKED: ATOM      7  C   UNL d   1      43.064  20.184  14.466 -0.35 -0.01    -0.025 A 
DOCKED: ATOM      8  C   UNL d   1      43.096  21.285  15.317 -0.31 +0.02    +0.066 A 
DOCKED: ATOM      9  C   UNL d   1      42.326  20.020  13.155 -0.43 +0.01    +0.051 C 
DOCKED: ATOM     10  C   UNL d   1      42.337  23.575  15.987 -0.32 +0.02    +0.066 A 
DOCKED: ATOM     11  C   UNL d   1      41.437  24.633  15.823 -0.45 -0.01    -0.021 A 
DOCKED: ATOM     12  C   UNL d   1      41.678  25.519  16.858 -0.39 +0.00    +0.000 A 
DOCKED: ATOM     13  C   UNL d   1      42.743  24.943  17.604 -0.33 +0.02    +0.070 A 
DOCKED: ATOM     14  C   UNL d   1      40.374  24.781  14.741 -0.56 +0.01    +0.052 C 
DOCKED: ATOM     15  C   UNL d   1      44.395  24.928  19.466 -0.22 +0.04    +0.066 A 
DOCKED: ATOM     16  C   UNL d   1      45.032  25.599  20.509 -0.20 -0.01    -0.021 A 
DOCKED: ATOM     17  C   UNL d   1      46.003  24.728  21.003 -0.14 +0.00    +0.000 A 
DOCKED: ATOM     18  C   UNL d   1      45.882  23.575  20.215 -0.12 +0.04    +0.070 A 
DOCKED: ATOM     19  C   UNL d   1      44.699  27.017  20.900 -0.14 +0.05    +0.052 C 
DOCKED: ATOM     20  C   UNL d   1      46.622  21.231  19.618 -0.14 +0.04    +0.066 A 
DOCKED: ATOM     21  C   UNL d   1      47.389  20.090  19.836 -0.11 -0.01    -0.025 A 
DOCKED: ATOM     22  C   UNL d   1      46.990  19.167  18.895 -0.11 -0.01    -0.021 A 
DOCKED: ATOM     23  C   UNL d   1      46.002  19.788  18.124 -0.17 +0.04    +0.066 A 
DOCKED: ATOM     24  C   UNL d   1      48.452  19.892  20.885 -0.05 +0.02    +0.051 C 
DOCKED: ATOM     25  N   UNL d   1      43.987  21.072  16.343 -0.19 -0.14    -0.248 N 
DOCKED: ATOM     26  N   UNL d   1      43.141  23.763  17.065 -0.21 -0.10    -0.248 N 
DOCKED: ATOM     27  N   UNL d   1      44.953  23.742  19.240 -0.10 -0.15    -0.248 N 
DOCKED: ATOM     28  N   UNL d   1      45.814  21.058  18.539 -0.15 -0.17    -0.248 N 
DOCKED: ATOM     29 FE   UNL d   1      44.489  22.402  17.809 -0.06 +0.00    +0.000 Fe
DOCKED: ATOM     30  O   UNL d   1      45.006  22.800  16.396 +0.25 +0.00    +0.000 OA
DOCKED: ATOM     31  O   UNL d   1      45.925  23.025  17.656 -0.40 +0.00    +0.000 OA
DOCKED: ENDROOT
DOCKED: BRANCH   6  32
DOCKED: ATOM     32  C   UNL d   1      44.218  17.906  14.407 -0.11 +0.02    +0.052 C 
DOCKED: BRANCH  32  33
DOCKED: ATOM     33  C   UNL d   1      45.323  18.007  13.360 -0.08 +0.05    +0.115 C 
DOCKED: BRANCH  33  34
DOCKED: ATOM     34  C   UNL d   1      45.668  19.437  13.024 -0.25 +0.09    +0.139 C 
DOCKED: ATOM     35  O   UNL d   1      46.417  20.064  13.754 -0.40 -0.95    -0.650 OA
DOCKED: BRANCH  34  36
DOCKED: ATOM     36  O   UNL d   1      45.142  20.051  11.944 -0.00 -0.25    -0.776 OA
DOCKED: ATOM     37  H   UNL d   1      45.667  20.631  11.380 -0.49 -0.00    +0.167 HD
DOCKED: ENDBRANCH  34  36
DOCKED: ENDBRANCH  33  34
DOCKED: ENDBRANCH  32  33
DOCKED: ENDBRANCH   6  32
DOCKED: BRANCH  22  38
DOCKED: ATOM     38  C   UNL d   1      47.574  17.790  18.713 -0.04 +0.02    +0.052 C 
DOCKED: BRANCH  38  39
DOCKED: ATOM     39  C   UNL d   1      48.652  17.754  17.632 -0.02 +0.06    +0.115 C 
DOCKED: BRANCH  39  40
DOCKED: ATOM     40  C   UNL d   1      48.736  19.046  16.859 -0.05 +0.15    +0.139 C 
DOCKED: ATOM     41  O   UNL d   1      49.187  20.045  17.395 -0.49 -0.86    -0.650 OA
DOCKED: BRANCH  40  42
DOCKED: ATOM     42  O   UNL d   1      48.369  19.107  15.564 -0.14 -1.09    -0.776 OA
DOCKED: ATOM     43  H   UNL d   1      47.442  19.074  15.300 +0.02 +0.22    +0.167 HD
DOCKED: ENDBRANCH  40  42
DOCKED: ENDBRANCH  39  40
DOCKED: ENDBRANCH  38  39
DOCKED: ENDBRANCH  22  38
DOCKED: BRANCH  12  44
DOCKED: ATOM     44  C   UNL d   1      40.885  26.798  17.021 -0.29 +0.00    +0.004 C 
DOCKED: ATOM     45  C   UNL d   1      41.026  27.941  16.350 -0.40 +0.00    +0.012 C 
DOCKED: ENDBRANCH  12  44
DOCKED: BRANCH  17  46
DOCKED: ATOM     46  C   UNL d   1      47.038  24.911  22.081 -0.07 +0.00    +0.004 C 
DOCKED: ATOM     47  C   UNL d   1      47.095  24.324  23.283 -0.07 +0.01    +0.012 C 
DOCKED: ENDBRANCH  17  46
DOCKED: TORSDOF 10
DOCKED: TER
DOCKED: ENDMDL
________________________________________________________________________________


	BEGINNING GENETIC ALGORITHM DOCKING 21 of 100
Run: 21 Seed: 1985103182 2027293017 [ Run 21 of 100 GA/GALS ]
Beginning LAMARCKIAN GENETIC ALGORITHM (LGA), with a maximum of 25000000 energy evaluations.

Final-Value: -20.201


	FINAL GENETIC ALGORITHM DOCKED STATE
	_______________________________________________


Detailed state:  trans 41.542 28.987 16.321 quatxyzw -0.322679 0.407684 0.854078 -0.014914 center 8.287 34.468 -0.670 ntor 10 39.2229 75.1987 -3.6607 -53.1844 180.0000 101.7733 -9.3923 3.6992 -134.7810 145.6739
State:	 41.542  28.987  16.321  -0.323  0.408  0.854 -178.291     39.22   75.20   -3.66  -53.18  180.00  101.77   -9.39    3.70 -134.78  145.67

DOCKED: MODEL       21
DOCKED: USER    Run = 21
DOCKED: USER    DPF = D:/Protein_go_brrr/autodock/final/2DN3/heme_O2/dock.dpf
DOCKED: USER  
DOCKED: USER    Estimated Free Energy of Binding    =  -15.59 kcal/mol  [=(1)+(2)+(3)-(4)]
DOCKED: USER    Estimated Inhibition Constant, Ki   =    3.74 pM (picomolar)  [Temperature = 298.15 K]
DOCKED: USER    
DOCKED: USER    (1) Final Intermolecular Energy     =  -18.57 kcal/mol
DOCKED: USER        vdW + Hbond + desolv Energy     =  -16.33 kcal/mol
DOCKED: USER        Electrostatic Energy            =   -2.24 kcal/mol
DOCKED: USER    (2) Final Total Internal Energy     =   -1.63 kcal/mol
DOCKED: USER    (3) Torsional Free Energy           =   +2.98 kcal/mol
DOCKED: USER    (4) Unbound System's Energy  [=(2)] =   -1.63 kcal/mol
DOCKED: USER    
DOCKED: USER    
DOCKED: USER    NEWDPF move heme_O2_opt.pdbqt
DOCKED: USER    NEWDPF about 8.287000 34.468000 -0.670000
DOCKED: USER    NEWDPF tran0 41.541660 28.987276 16.320875
DOCKED: USER    NEWDPF quaternion0 -0.322679 0.407684 0.854078 -0.014914
DOCKED: USER    NEWDPF axisangle0 -0.322715 0.407729 0.854173 -178.290890
DOCKED: USER    NEWDPF quat0 -0.322715 0.407729 0.854173 -178.290890
DOCKED: USER    NEWDPF dihe0 39.22 75.20 -3.66 -53.18 180.00 101.77 -9.39 3.70 -134.78 145.67 
DOCKED: USER  keepresnum = 1 
DOCKED: USER  
DOCKED: REMARK  10 active torsions:
DOCKED: REMARK  status: ('A' for Active; 'I' for Inactive)
DOCKED: REMARK    1  A    between atoms: C_6  and  C_10 
DOCKED: REMARK    2  A    between atoms: C_10  and  C_11 
DOCKED: REMARK    3  A    between atoms: C_11  and  C_12 
DOCKED: REMARK    4  A    between atoms: C_12  and  O_14 
DOCKED: REMARK    5  A    between atoms: C_17  and  C_20 
DOCKED: REMARK    6  A    between atoms: C_24  and  C_27 
DOCKED: REMARK    7  A    between atoms: C_31  and  C_34 
DOCKED: REMARK    8  A    between atoms: C_34  and  C_35 
DOCKED: REMARK    9  A    between atoms: C_35  and  C_36 
DOCKED: REMARK   10  A    between atoms: C_36  and  O_38 
DOCKED: USER                              x       y       z     vdW  Elec       q    Type
DOCKED: USER                           _______ _______ _______ _____ _____    ______ ____
DOCKED: ROOT
DOCKED: ATOM      1  C   UNL d   1      43.279  28.465  17.420 -0.28 +0.02    +0.064 A 
DOCKED: ATOM      2  C   UNL d   1      41.138  32.622  16.588 -0.41 +0.01    +0.064 A 
DOCKED: ATOM      3  C   UNL d   1      37.788  30.465  13.902 -0.39 +0.01    +0.064 C 
DOCKED: ATOM      4  C   UNL d   1      39.706  26.123  15.142 -0.35 +0.01    +0.064 A 
DOCKED: ATOM      5  C   UNL d   1      42.969  29.772  17.415 -0.31 +0.02    +0.066 A 
DOCKED: ATOM      6  C   UNL d   1      43.717  30.757  18.066 -0.32 -0.01    -0.021 A 
DOCKED: ATOM      7  C   UNL d   1      43.074  31.955  17.862 -0.36 -0.01    -0.025 A 
DOCKED: ATOM      8  C   UNL d   1      41.977  31.676  17.051 -0.38 +0.01    +0.066 A 
DOCKED: ATOM      9  C   UNL d   1      43.502  33.279  18.456 -0.42 +0.01    +0.051 C 
DOCKED: ATOM     10  C   UNL d   1      39.984  32.394  15.717 -0.40 +0.01    +0.066 A 
DOCKED: ATOM     11  C   UNL d   1      39.244  33.428  15.133 -0.44 -0.00    -0.021 A 
DOCKED: ATOM     12  C   UNL d   1      38.284  32.826  14.340 -0.41 +0.00    +0.000 A 
DOCKED: ATOM     13  C   UNL d   1      38.491  31.427  14.498 -0.36 +0.01    +0.070 A 
DOCKED: ATOM     14  C   UNL d   1      39.460  34.927  15.303 -0.54 +0.01    +0.052 C 
DOCKED: ATOM     15  C   UNL d   1      37.943  29.039  14.062 -0.36 +0.01    +0.066 A 
DOCKED: ATOM     16  C   UNL d   1      37.071  28.085  13.538 -0.43 -0.00    -0.021 A 
DOCKED: ATOM     17  C   UNL d   1      37.597  26.840  13.880 -0.44 +0.00    +0.000 A 
DOCKED: ATOM     18  C   UNL d   1      38.767  27.131  14.595 -0.36 +0.01    +0.070 A 
DOCKED: ATOM     19  C   UNL d   1      35.798  28.445  12.814 -0.62 +0.01    +0.052 C 
DOCKED: ATOM     20  C   UNL d   1      40.814  26.367  15.869 -0.38 +0.02    +0.066 A 
DOCKED: ATOM     21  C   UNL d   1      41.670  25.377  16.343 -0.38 -0.01    -0.025 A 
DOCKED: ATOM     22  C   UNL d   1      42.708  26.027  16.971 -0.32 -0.01    -0.021 A 
DOCKED: ATOM     23  C   UNL d   1      42.437  27.395  16.873 -0.33 +0.02    +0.066 A 
DOCKED: ATOM     24  C   UNL d   1      41.504  23.885  16.206 -0.53 +0.01    +0.051 C 
DOCKED: ATOM     25  N   UNL d   1      41.876  30.322  16.830 -0.20 -0.07    -0.248 N 
DOCKED: ATOM     26  N   UNL d   1      39.524  31.173  15.341 -0.18 -0.06    -0.248 N 
DOCKED: ATOM     27  N   UNL d   1      38.921  28.469  14.760 -0.14 -0.07    -0.248 N 
DOCKED: ATOM     28  N   UNL d   1      41.262  27.595  16.242 -0.25 -0.08    -0.248 N 
DOCKED: ATOM     29 FE   UNL d   1      40.397  29.370  15.794 -0.09 +0.00    +0.000 Fe
DOCKED: ATOM     30  O   UNL d   1      39.925  29.978  17.147 -0.72 +0.00    +0.000 OA
DOCKED: ATOM     31  O   UNL d   1      39.388  28.567  16.694 -0.84 +0.00    +0.000 OA
DOCKED: ENDROOT
DOCKED: BRANCH   6  32
DOCKED: ATOM     32  C   UNL d   1      44.914  30.565  18.961 -0.28 +0.02    +0.052 C 
DOCKED: BRANCH  32  33
DOCKED: ATOM     33  C   UNL d   1      44.672  29.538  20.062 -0.11 +0.09    +0.115 C 
DOCKED: BRANCH  33  34
DOCKED: ATOM     34  C   UNL d   1      45.944  29.146  20.773 -0.09 +0.18    +0.139 C 
DOCKED: ATOM     35  O   UNL d   1      46.861  29.947  20.853 -0.26 -0.70    -0.650 OA
DOCKED: BRANCH  34  36
DOCKED: ATOM     36  O   UNL d   1      46.104  27.916  21.302 -0.16 -1.29    -0.776 OA
DOCKED: ATOM     37  H   UNL d   1      45.787  27.122  20.855 +0.04 +0.18    +0.167 HD
DOCKED: ENDBRANCH  34  36
DOCKED: ENDBRANCH  33  34
DOCKED: ENDBRANCH  32  33
DOCKED: ENDBRANCH   6  32
DOCKED: BRANCH  22  38
DOCKED: ATOM     38  C   UNL d   1      43.860  25.363  17.681 -0.31 +0.02    +0.052 C 
DOCKED: BRANCH  38  39
DOCKED: ATOM     39  C   UNL d   1      43.826  25.595  19.190 -0.26 +0.05    +0.115 C 
DOCKED: BRANCH  39  40
DOCKED: ATOM     40  C   UNL d   1      45.011  24.983  19.894 -0.18 +0.08    +0.139 C 
DOCKED: ATOM     41  O   UNL d   1      44.843  24.052  20.665 -0.52 -0.42    -0.650 OA
DOCKED: BRANCH  40  42
DOCKED: ATOM     42  O   UNL d   1      46.264  25.412  19.648 +0.09 -0.46    -0.776 OA
DOCKED: ATOM     43  H   UNL d   1      46.603  26.229  20.033 +0.05 +0.11    +0.167 HD
DOCKED: ENDBRANCH  40  42
DOCKED: ENDBRANCH  39  40
DOCKED: ENDBRANCH  38  39
DOCKED: ENDBRANCH  22  38
DOCKED: BRANCH  12  44
DOCKED: ATOM     44  C   UNL d   1      37.288  33.631  13.533 -0.50 +0.00    +0.004 C 
DOCKED: ATOM     45  C   UNL d   1      36.419  33.186  12.626 -0.57 +0.00    +0.012 C 
DOCKED: ENDBRANCH  12  44
DOCKED: BRANCH  17  46
DOCKED: ATOM     46  C   UNL d   1      37.073  25.448  13.646 -0.63 +0.00    +0.004 C 
DOCKED: ATOM     47  C   UNL d   1      35.920  24.914  14.069 -0.70 +0.00    +0.012 C 
DOCKED: ENDBRANCH  17  46
DOCKED: TORSDOF 10
DOCKED: TER
DOCKED: ENDMDL
________________________________________________________________________________


	BEGINNING GENETIC ALGORITHM DOCKING 22 of 100
Run: 22 Seed: 297067847 998036178 [ Run 22 of 100 GA/GALS ]
Beginning LAMARCKIAN GENETIC ALGORITHM (LGA), with a maximum of 25000000 energy evaluations.

Final-Value: -20.193


	FINAL GENETIC ALGORITHM DOCKED STATE
	_______________________________________________


Detailed state:  trans 41.469 29.022 16.346 quatxyzw -0.331347 0.400240 0.854403 -0.003599 center 8.287 34.468 -0.670 ntor 10 31.9638 -6.0336 -11.0101 -52.2353 161.5252 127.1901 13.0878 15.0275 -109.9382 -179.8748
State:	 41.469  29.022  16.346  -0.331  0.400  0.854 -179.588     31.96   -6.03  -11.01  -52.24  161.53  127.19   13.09   15.03 -109.94 -179.87

DOCKED: MODEL       22
DOCKED: USER    Run = 22
DOCKED: USER    DPF = D:/Protein_go_brrr/autodock/final/2DN3/heme_O2/dock.dpf
DOCKED: USER  
DOCKED: USER    Estimated Free Energy of Binding    =  -15.91 kcal/mol  [=(1)+(2)+(3)-(4)]
DOCKED: USER    Estimated Inhibition Constant, Ki   =    2.18 pM (picomolar)  [Temperature = 298.15 K]
DOCKED: USER    
DOCKED: USER    (1) Final Intermolecular Energy     =  -18.89 kcal/mol
DOCKED: USER        vdW + Hbond + desolv Energy     =  -16.44 kcal/mol
DOCKED: USER        Electrostatic Energy            =   -2.45 kcal/mol
DOCKED: USER    (2) Final Total Internal Energy     =   -1.30 kcal/mol
DOCKED: USER    (3) Torsional Free Energy           =   +2.98 kcal/mol
DOCKED: USER    (4) Unbound System's Energy  [=(2)] =   -1.30 kcal/mol
DOCKED: USER    
DOCKED: USER    
DOCKED: USER    NEWDPF move heme_O2_opt.pdbqt
DOCKED: USER    NEWDPF about 8.287000 34.468000 -0.670000
DOCKED: USER    NEWDPF tran0 41.469392 29.021701 16.345944
DOCKED: USER    NEWDPF quaternion0 -0.331347 0.400240 0.854403 -0.003599
DOCKED: USER    NEWDPF axisangle0 -0.331349 0.400242 0.854409 -179.587582
DOCKED: USER    NEWDPF quat0 -0.331349 0.400242 0.854409 -179.587582
DOCKED: USER    NEWDPF dihe0 31.96 -6.03 -11.01 -52.24 161.53 127.19 13.09 15.03 -109.94 -179.87 
DOCKED: USER  keepresnum = 1 
DOCKED: USER  
DOCKED: REMARK  10 active torsions:
DOCKED: REMARK  status: ('A' for Active; 'I' for Inactive)
DOCKED: REMARK    1  A    between atoms: C_6  and  C_10 
DOCKED: REMARK    2  A    between atoms: C_10  and  C_11 
DOCKED: REMARK    3  A    between atoms: C_11  and  C_12 
DOCKED: REMARK    4  A    between atoms: C_12  and  O_14 
DOCKED: REMARK    5  A    between atoms: C_17  and  C_20 
DOCKED: REMARK    6  A    between atoms: C_24  and  C_27 
DOCKED: REMARK    7  A    between atoms: C_31  and  C_34 
DOCKED: REMARK    8  A    between atoms: C_34  and  C_35 
DOCKED: REMARK    9  A    between atoms: C_35  and  C_36 
DOCKED: REMARK   10  A    between atoms: C_36  and  O_38 
DOCKED: USER                              x       y       z     vdW  Elec       q    Type
DOCKED: USER                           _______ _______ _______ _____ _____    ______ ____
DOCKED: ROOT
DOCKED: ATOM      1  C   UNL d   1      43.216  28.548  17.452 -0.27 +0.02    +0.064 A 
DOCKED: ATOM      2  C   UNL d   1      40.951  32.641  16.630 -0.43 +0.01    +0.064 A 
DOCKED: ATOM      3  C   UNL d   1      37.685  30.395  13.913 -0.39 +0.01    +0.064 C 
DOCKED: ATOM      4  C   UNL d   1      39.731  26.108  15.142 -0.36 +0.01    +0.064 A 
DOCKED: ATOM      5  C   UNL d   1      42.865  29.844  17.452 -0.32 +0.02    +0.066 A 
DOCKED: ATOM      6  C   UNL d   1      43.579  30.848  18.113 -0.33 -0.01    -0.021 A 
DOCKED: ATOM      7  C   UNL d   1      42.900  32.027  17.911 -0.39 -0.01    -0.025 A 
DOCKED: ATOM      8  C   UNL d   1      41.817  31.719  17.093 -0.39 +0.01    +0.066 A 
DOCKED: ATOM      9  C   UNL d   1      43.283  33.361  18.515 -0.44 +0.01    +0.051 C 
DOCKED: ATOM     10  C   UNL d   1      39.810  32.381  15.751 -0.39 +0.01    +0.066 A 
DOCKED: ATOM     11  C   UNL d   1      39.041  33.395  15.169 -0.43 -0.00    -0.021 A 
DOCKED: ATOM     12  C   UNL d   1      38.105  32.768  14.368 -0.40 +0.00    +0.000 A 
DOCKED: ATOM     13  C   UNL d   1      38.354  31.375  14.519 -0.35 +0.01    +0.070 A 
DOCKED: ATOM     14  C   UNL d   1      39.209  34.899  15.348 -0.56 +0.01    +0.052 C 
DOCKED: ATOM     15  C   UNL d   1      37.883  28.974  14.067 -0.36 +0.01    +0.066 A 
DOCKED: ATOM     16  C   UNL d   1      37.044  27.996  13.533 -0.43 -0.00    -0.021 A 
DOCKED: ATOM     17  C   UNL d   1      37.607  26.766  13.871 -0.45 +0.00    +0.000 A 
DOCKED: ATOM     18  C   UNL d   1      38.764  27.089  14.594 -0.36 +0.01    +0.070 A 
DOCKED: ATOM     19  C   UNL d   1      35.765  28.319  12.803 -0.61 +0.01    +0.052 C 
DOCKED: ATOM     20  C   UNL d   1      40.826  26.383  15.876 -0.38 +0.02    +0.066 A 
DOCKED: ATOM     21  C   UNL d   1      41.710  25.417  16.350 -0.37 -0.01    -0.025 A 
DOCKED: ATOM     22  C   UNL d   1      42.724  26.096  16.987 -0.32 -0.01    -0.021 A 
DOCKED: ATOM     23  C   UNL d   1      42.411  27.455  16.895 -0.33 +0.02    +0.066 A 
DOCKED: ATOM     24  C   UNL d   1      41.591  23.922  16.204 -0.53 +0.01    +0.051 C 
DOCKED: ATOM     25  N   UNL d   1      41.759  30.363  16.865 -0.23 -0.07    -0.248 N 
DOCKED: ATOM     26  N   UNL d   1      39.390  31.149  15.367 -0.20 -0.05    -0.248 N 
DOCKED: ATOM     27  N   UNL d   1      38.875  28.431  14.768 -0.16 -0.07    -0.248 N 
DOCKED: ATOM     28  N   UNL d   1      41.233  27.622  16.258 -0.25 -0.09    -0.248 N 
DOCKED: ATOM     29 FE   UNL d   1      40.316  29.371  15.814 -0.09 +0.00    +0.000 Fe
DOCKED: ATOM     30  O   UNL d   1      39.818  29.957  17.168 -0.70 +0.00    +0.000 OA
DOCKED: ATOM     31  O   UNL d   1      39.328  28.533  16.705 -0.81 +0.00    +0.000 OA
DOCKED: ENDROOT
DOCKED: BRANCH   6  32
DOCKED: ATOM     32  C   UNL d   1      44.776  30.690  19.013 -0.29 +0.02    +0.052 C 
DOCKED: BRANCH  32  33
DOCKED: ATOM     33  C   UNL d   1      44.837  29.320  19.682 -0.22 +0.08    +0.115 C 
DOCKED: BRANCH  33  34
DOCKED: ATOM     34  C   UNL d   1      45.878  29.258  20.772 -0.07 +0.18    +0.139 C 
DOCKED: ATOM     35  O   UNL d   1      46.413  30.286  21.155 -0.24 -0.84    -0.650 OA
DOCKED: BRANCH  34  36
DOCKED: ATOM     36  O   UNL d   1      46.254  28.083  21.319 -0.22 -1.34    -0.776 OA
DOCKED: ATOM     37  H   UNL d   1      46.269  27.264  20.811 +0.04 +0.17    +0.167 HD
DOCKED: ENDBRANCH  34  36
DOCKED: ENDBRANCH  33  34
DOCKED: ENDBRANCH  32  33
DOCKED: ENDBRANCH   6  32
DOCKED: BRANCH  22  38
DOCKED: ATOM     38  C   UNL d   1      43.892  25.464  17.699 -0.30 +0.02    +0.052 C 
DOCKED: BRANCH  38  39
DOCKED: ATOM     39  C   UNL d   1      43.513  24.930  19.079 -0.32 +0.05    +0.115 C 
DOCKED: BRANCH  39  40
DOCKED: ATOM     40  C   UNL d   1      44.719  24.605  19.923 -0.21 +0.08    +0.139 C 
DOCKED: ATOM     41  O   UNL d   1      45.225  23.496  19.856 -0.28 -0.40    -0.650 OA
DOCKED: BRANCH  40  42
DOCKED: ATOM     42  O   UNL d   1      45.284  25.535  20.717 +0.06 -0.53    -0.776 OA
DOCKED: ATOM     43  H   UNL d   1      44.965  26.445  20.734 +0.06 +0.14    +0.167 HD
DOCKED: ENDBRANCH  40  42
DOCKED: ENDBRANCH  39  40
DOCKED: ENDBRANCH  38  39
DOCKED: ENDBRANCH  22  38
DOCKED: BRANCH  12  44
DOCKED: ATOM     44  C   UNL d   1      37.088  33.546  13.559 -0.50 +0.00    +0.004 C 
DOCKED: ATOM     45  C   UNL d   1      36.333  33.107  12.553 -0.58 +0.00    +0.012 C 
DOCKED: ENDBRANCH  12  44
DOCKED: BRANCH  17  46
DOCKED: ATOM     46  C   UNL d   1      37.128  25.359  13.627 -0.63 +0.00    +0.004 C 
DOCKED: ATOM     47  C   UNL d   1      35.982  24.793  14.026 -0.69 +0.00    +0.012 C 
DOCKED: ENDBRANCH  17  46
DOCKED: TORSDOF 10
DOCKED: TER
DOCKED: ENDMDL
________________________________________________________________________________


	BEGINNING GENETIC ALGORITHM DOCKING 23 of 100
Run: 23 Seed: 1745197721 634257964 [ Run 23 of 100 GA/GALS ]
Beginning LAMARCKIAN GENETIC ALGORITHM (LGA), with a maximum of 25000000 energy evaluations.

Final-Value: -18.657


	FINAL GENETIC ALGORITHM DOCKED STATE
	_______________________________________________


Detailed state:  trans 8.511 35.223 -1.073 quatxyzw -0.048156 -0.039419 -0.016136 -0.997931 center 8.287 34.468 -0.670 ntor 10 -0.9543 -156.0924 -27.8606 -51.7467 164.3279 9.3448 24.3486 77.5613 -127.3012 -180.0000
State:	  8.511  35.223  -1.073  -0.749 -0.613 -0.251 -7.372     -0.95 -156.09  -27.86  -51.75  164.33    9.34   24.35   77.56 -127.30 -180.00

DOCKED: MODEL       23
DOCKED: USER    Run = 23
DOCKED: USER    DPF = D:/Protein_go_brrr/autodock/final/2DN3/heme_O2/dock.dpf
DOCKED: USER  
DOCKED: USER    Estimated Free Energy of Binding    =  -14.03 kcal/mol  [=(1)+(2)+(3)-(4)]
DOCKED: USER    Estimated Inhibition Constant, Ki   =   52.38 pM (picomolar)  [Temperature = 298.15 K]
DOCKED: USER    
DOCKED: USER    (1) Final Intermolecular Energy     =  -17.01 kcal/mol
DOCKED: USER        vdW + Hbond + desolv Energy     =  -15.03 kcal/mol
DOCKED: USER        Electrostatic Energy            =   -1.98 kcal/mol
DOCKED: USER    (2) Final Total Internal Energy     =   -1.65 kcal/mol
DOCKED: USER    (3) Torsional Free Energy           =   +2.98 kcal/mol
DOCKED: USER    (4) Unbound System's Energy  [=(2)] =   -1.65 kcal/mol
DOCKED: USER    
DOCKED: USER    
DOCKED: USER    NEWDPF move heme_O2_opt.pdbqt
DOCKED: USER    NEWDPF about 8.287000 34.468000 -0.670000
DOCKED: USER    NEWDPF tran0 8.510576 35.223179 -1.073099
DOCKED: USER    NEWDPF quaternion0 -0.048156 -0.039419 -0.016136 -0.997931
DOCKED: USER    NEWDPF axisangle0 -0.749040 -0.613142 -0.250991 -7.372149
DOCKED: USER    NEWDPF quat0 -0.749040 -0.613142 -0.250991 -7.372149
DOCKED: USER    NEWDPF dihe0 -0.95 -156.09 -27.86 -51.75 164.33 9.34 24.35 77.56 -127.30 -180.00 
DOCKED: USER  keepresnum = 1 
DOCKED: USER  
DOCKED: REMARK  10 active torsions:
DOCKED: REMARK  status: ('A' for Active; 'I' for Inactive)
DOCKED: REMARK    1  A    between atoms: C_6  and  C_10 
DOCKED: REMARK    2  A    between atoms: C_10  and  C_11 
DOCKED: REMARK    3  A    between atoms: C_11  and  C_12 
DOCKED: REMARK    4  A    between atoms: C_12  and  O_14 
DOCKED: REMARK    5  A    between atoms: C_17  and  C_20 
DOCKED: REMARK    6  A    between atoms: C_24  and  C_27 
DOCKED: REMARK    7  A    between atoms: C_31  and  C_34 
DOCKED: REMARK    8  A    between atoms: C_34  and  C_35 
DOCKED: REMARK    9  A    between atoms: C_35  and  C_36 
DOCKED: REMARK   10  A    between atoms: C_36  and  O_38 
DOCKED: USER                              x       y       z     vdW  Elec       q    Type
DOCKED: USER                           _______ _______ _______ _____ _____    ______ ____
DOCKED: ROOT
DOCKED: ATOM      1  C   UNL d   1       6.731  35.797  -2.074 -0.21 +0.01    +0.064 A 
DOCKED: ATOM      2  C   UNL d   1       7.517  33.412   1.957 -0.40 +0.01    +0.064 A 
DOCKED: ATOM      3  C   UNL d   1      12.271  33.745   1.335 -0.41 +0.00    +0.064 C 
DOCKED: ATOM      4  C   UNL d   1      11.478  36.613  -2.565 -0.40 +0.00    +0.064 A 
DOCKED: ATOM      5  C   UNL d   1       6.557  35.123  -0.926 -0.29 +0.01    +0.066 A 
DOCKED: ATOM      6  C   UNL d   1       5.307  34.791  -0.395 -0.28 -0.00    -0.021 A 
DOCKED: ATOM      7  C   UNL d   1       5.533  34.138   0.794 -0.34 -0.00    -0.025 A 
DOCKED: ATOM      8  C   UNL d   1       6.915  34.047   0.933 -0.36 +0.01    +0.066 A 
DOCKED: ATOM      9  C   UNL d   1       4.452  33.665   1.741 -0.37 +0.01    +0.051 C 
DOCKED: ATOM     10  C   UNL d   1       8.961  33.264   2.144 -0.35 +0.01    +0.066 A 
DOCKED: ATOM     11  C   UNL d   1       9.530  32.456   3.136 -0.43 -0.00    -0.021 A 
DOCKED: ATOM     12  C   UNL d   1      10.900  32.525   2.961 -0.43 +0.00    +0.000 A 
DOCKED: ATOM     13  C   UNL d   1      11.094  33.400   1.856 -0.35 +0.01    +0.070 A 
DOCKED: ATOM     14  C   UNL d   1       8.797  31.632   4.187 -0.57 +0.00    +0.052 C 
DOCKED: ATOM     15  C   UNL d   1      12.512  34.654   0.240 -0.33 +0.01    +0.066 A 
DOCKED: ATOM     16  C   UNL d   1      13.772  35.101  -0.153 -0.41 -0.00    -0.021 A 
DOCKED: ATOM     17  C   UNL d   1      13.571  35.922  -1.263 -0.43 +0.00    +0.000 A 
DOCKED: ATOM     18  C   UNL d   1      12.184  35.911  -1.468 -0.36 +0.01    +0.070 A 
DOCKED: ATOM     19  C   UNL d   1      15.037  34.755   0.591 -0.56 +0.00    +0.052 C 
DOCKED: ATOM     20  C   UNL d   1      10.146  36.659  -2.765 -0.38 +0.00    +0.066 A 
DOCKED: ATOM     21  C   UNL d   1       9.539  37.323  -3.828 -0.36 -0.00    -0.025 A 
DOCKED: ATOM     22  C   UNL d   1       8.188  37.078  -3.719 -0.31 -0.00    -0.021 A 
DOCKED: ATOM     23  C   UNL d   1       8.019  36.287  -2.579 -0.31 +0.01    +0.066 A 
DOCKED: ATOM     24  C   UNL d   1      10.213  38.151  -4.890 -0.47 -0.01    +0.051 C 
DOCKED: ATOM     25  N   UNL d   1       7.545  34.711  -0.094 -0.23 -0.05    -0.248 N 
DOCKED: ATOM     26  N   UNL d   1       9.910  33.848   1.369 -0.16 -0.04    -0.248 N 
DOCKED: ATOM     27  N   UNL d   1      11.551  35.198  -0.502 -0.16 -0.04    -0.248 N 
DOCKED: ATOM     28  N   UNL d   1       9.207  36.072  -1.977 -0.25 -0.04    -0.248 N 
DOCKED: ATOM     29 FE   UNL d   1       9.558  34.969  -0.317 -0.08 +0.00    +0.000 Fe
DOCKED: ATOM     30  O   UNL d   1       8.951  35.768   0.873 -0.65 +0.00    +0.000 OA
DOCKED: ATOM     31  O   UNL d   1      10.061  36.431  -0.027 -0.73 +0.00    +0.000 OA
DOCKED: ENDROOT
DOCKED: BRANCH   6  32
DOCKED: ATOM     32  C   UNL d   1       3.949  35.190  -0.911 -0.23 +0.02    +0.052 C 
DOCKED: BRANCH  32  33
DOCKED: ATOM     33  C   UNL d   1       3.882  36.655  -1.330 -0.07 +0.06    +0.115 C 
DOCKED: BRANCH  33  34
DOCKED: ATOM     34  C   UNL d   1       2.470  37.188  -1.332 -0.11 +0.16    +0.139 C 
DOCKED: ATOM     35  O   UNL d   1       1.582  36.547  -0.793 -0.27 -0.84    -0.650 OA
DOCKED: BRANCH  34  36
DOCKED: ATOM     36  O   UNL d   1       2.158  38.350  -1.943 -0.10 -1.15    -0.776 OA
DOCKED: ATOM     37  H   UNL d   1       2.822  38.886  -2.391 +0.03 +0.16    +0.167 HD
DOCKED: ENDBRANCH  34  36
DOCKED: ENDBRANCH  33  34
DOCKED: ENDBRANCH  32  33
DOCKED: ENDBRANCH   6  32
DOCKED: BRANCH  22  38
DOCKED: ATOM     38  C   UNL d   1       7.120  37.632  -4.626 -0.24 +0.00    +0.052 C 
DOCKED: BRANCH  38  39
DOCKED: ATOM     39  C   UNL d   1       6.782  39.086  -4.308 -0.20 +0.01    +0.115 C 
DOCKED: BRANCH  39  40
DOCKED: ATOM     40  C   UNL d   1       5.480  39.225  -3.558 -0.15 +0.03    +0.139 C 
DOCKED: ATOM     41  O   UNL d   1       5.298  40.190  -2.834 +0.01 -0.19    -0.650 OA
DOCKED: BRANCH  40  42
DOCKED: ATOM     42  O   UNL d   1       4.489  38.326  -3.713 +0.05 -0.24    -0.776 OA
DOCKED: ATOM     43  H   UNL d   1       3.565  38.563  -3.571 +0.03 +0.07    +0.167 HD
DOCKED: ENDBRANCH  40  42
DOCKED: ENDBRANCH  39  40
DOCKED: ENDBRANCH  38  39
DOCKED: ENDBRANCH  22  38
DOCKED: BRANCH  12  44
DOCKED: ATOM     44  C   UNL d   1      11.862  31.767   3.851 -0.54 +0.00    +0.004 C 
DOCKED: ATOM     45  C   UNL d   1      13.046  31.249   3.524 -0.63 +0.00    +0.012 C 
DOCKED: ENDBRANCH  12  44
DOCKED: BRANCH  17  46
DOCKED: ATOM     46  C   UNL d   1      14.540  36.732  -2.082 -0.60 +0.00    +0.004 C 
DOCKED: ATOM     47  C   UNL d   1      15.359  37.708  -1.669 -0.65 +0.00    +0.012 C 
DOCKED: ENDBRANCH  17  46
DOCKED: TORSDOF 10
DOCKED: TER
DOCKED: ENDMDL
________________________________________________________________________________


	BEGINNING GENETIC ALGORITHM DOCKING 24 of 100
Run: 24 Seed: 2020344700 1553981524 [ Run 24 of 100 GA/GALS ]
Beginning LAMARCKIAN GENETIC ALGORITHM (LGA), with a maximum of 25000000 energy evaluations.

Final-Value: -20.247


	FINAL GENETIC ALGORITHM DOCKED STATE
	_______________________________________________


Detailed state:  trans 41.557 28.768 16.327 quatxyzw 0.328747 -0.393802 -0.858241 0.016384 center 8.287 34.468 -0.670 ntor 10 -86.2371 36.1521 -5.9848 -52.2864 7.5870 -132.0388 -0.7852 44.4082 -123.4739 23.3600
State:	 41.557  28.768  16.327   0.329 -0.394 -0.858 178.122    -86.24   36.15   -5.98  -52.29    7.59 -132.04   -0.79   44.41 -123.47   23.36

DOCKED: MODEL       24
DOCKED: USER    Run = 24
DOCKED: USER    DPF = D:/Protein_go_brrr/autodock/final/2DN3/heme_O2/dock.dpf
DOCKED: USER  
DOCKED: USER    Estimated Free Energy of Binding    =  -16.82 kcal/mol  [=(1)+(2)+(3)-(4)]
DOCKED: USER    Estimated Inhibition Constant, Ki   =  471.18 fM (femtomolar)  [Temperature = 298.15 K]
DOCKED: USER    
DOCKED: USER    (1) Final Intermolecular Energy     =  -19.80 kcal/mol
DOCKED: USER        vdW + Hbond + desolv Energy     =  -16.66 kcal/mol
DOCKED: USER        Electrostatic Energy            =   -3.14 kcal/mol
DOCKED: USER    (2) Final Total Internal Energy     =   -0.45 kcal/mol
DOCKED: USER    (3) Torsional Free Energy           =   +2.98 kcal/mol
DOCKED: USER    (4) Unbound System's Energy  [=(2)] =   -0.45 kcal/mol
DOCKED: USER    
DOCKED: USER    
DOCKED: USER    NEWDPF move heme_O2_opt.pdbqt
DOCKED: USER    NEWDPF about 8.287000 34.468000 -0.670000
DOCKED: USER    NEWDPF tran0 41.556660 28.768448 16.326861
DOCKED: USER    NEWDPF quaternion0 0.328747 -0.393802 -0.858241 0.016384
DOCKED: USER    NEWDPF axisangle0 0.328791 -0.393855 -0.858356 178.122401
DOCKED: USER    NEWDPF quat0 0.328791 -0.393855 -0.858356 178.122401
DOCKED: USER    NEWDPF dihe0 -86.24 36.15 -5.98 -52.29 7.59 -132.04 -0.79 44.41 -123.47 23.36 
DOCKED: USER  keepresnum = 1 
DOCKED: USER  
DOCKED: REMARK  10 active torsions:
DOCKED: REMARK  status: ('A' for Active; 'I' for Inactive)
DOCKED: REMARK    1  A    between atoms: C_6  and  C_10 
DOCKED: REMARK    2  A    between atoms: C_10  and  C_11 
DOCKED: REMARK    3  A    between atoms: C_11  and  C_12 
DOCKED: REMARK    4  A    between atoms: C_12  and  O_14 
DOCKED: REMARK    5  A    between atoms: C_17  and  C_20 
DOCKED: REMARK    6  A    between atoms: C_24  and  C_27 
DOCKED: REMARK    7  A    between atoms: C_31  and  C_34 
DOCKED: REMARK    8  A    between atoms: C_34  and  C_35 
DOCKED: REMARK    9  A    between atoms: C_35  and  C_36 
DOCKED: REMARK   10  A    between atoms: C_36  and  O_38 
DOCKED: USER                              x       y       z     vdW  Elec       q    Type
DOCKED: USER                           _______ _______ _______ _____ _____    ______ ____
DOCKED: ROOT
DOCKED: ATOM      1  C   UNL d   1      43.290  28.236  17.428 -0.28 +0.02    +0.064 A 
DOCKED: ATOM      2  C   UNL d   1      41.108  32.390  16.692 -0.42 +0.01    +0.064 A 
DOCKED: ATOM      3  C   UNL d   1      37.808  30.270  13.914 -0.40 +0.01    +0.064 C 
DOCKED: ATOM      4  C   UNL d   1      39.765  25.918  15.052 -0.37 +0.01    +0.064 A 
DOCKED: ATOM      5  C   UNL d   1      42.965  29.538  17.456 -0.30 +0.02    +0.066 A 
DOCKED: ATOM      6  C   UNL d   1      43.696  30.513  18.141 -0.32 -0.01    -0.021 A 
DOCKED: ATOM      7  C   UNL d   1      43.040  31.709  17.964 -0.38 -0.01    -0.025 A 
DOCKED: ATOM      8  C   UNL d   1      41.954  31.441  17.136 -0.38 +0.02    +0.066 A 
DOCKED: ATOM      9  C   UNL d   1      43.448  33.021  18.599 -0.43 +0.01    +0.051 C 
DOCKED: ATOM     10  C   UNL d   1      39.965  32.173  15.803 -0.38 +0.01    +0.066 A 
DOCKED: ATOM     11  C   UNL d   1      39.218  33.214  15.242 -0.43 -0.00    -0.021 A 
DOCKED: ATOM     12  C   UNL d   1      38.273  32.623  14.423 -0.41 +0.00    +0.000 A 
DOCKED: ATOM     13  C   UNL d   1      38.494  31.223  14.544 -0.35 +0.01    +0.070 A 
DOCKED: ATOM     14  C   UNL d   1      39.416  34.710  15.455 -0.54 +0.01    +0.052 C 
DOCKED: ATOM     15  C   UNL d   1      37.978  28.842  14.037 -0.36 +0.01    +0.066 A 
DOCKED: ATOM     16  C   UNL d   1      37.122  27.894  13.478 -0.43 -0.00    -0.021 A 
DOCKED: ATOM     17  C   UNL d   1      37.659  26.645  13.790 -0.46 +0.00    +0.000 A 
DOCKED: ATOM     18  C   UNL d   1      38.820  26.929  14.524 -0.37 +0.01    +0.070 A 
DOCKED: ATOM     19  C   UNL d   1      35.852  28.259  12.752 -0.62 +0.01    +0.052 C 
DOCKED: ATOM     20  C   UNL d   1      40.864  26.154  15.796 -0.39 +0.02    +0.066 A 
DOCKED: ATOM     21  C   UNL d   1      41.727  25.160  16.250 -0.35 -0.01    -0.025 A 
DOCKED: ATOM     22  C   UNL d   1      42.752  25.805  16.906 -0.31 -0.01    -0.021 A 
DOCKED: ATOM     23  C   UNL d   1      42.465  27.172  16.843 -0.33 +0.02    +0.066 A 
DOCKED: ATOM     24  C   UNL d   1      41.579  23.672  16.070 -0.54 +0.01    +0.051 C 
DOCKED: ATOM     25  N   UNL d   1      41.871  30.092  16.877 -0.23 -0.08    -0.248 N 
DOCKED: ATOM     26  N   UNL d   1      39.523  30.958  15.389 -0.10 -0.06    -0.248 N 
DOCKED: ATOM     27  N   UNL d   1      38.957  28.264  14.728 -0.16 -0.07    -0.248 N 
DOCKED: ATOM     28  N   UNL d   1      41.293  27.376  16.206 -0.27 -0.08    -0.248 N 
DOCKED: ATOM     29 FE   UNL d   1      40.412  29.153  15.800 -0.09 +0.00    +0.000 Fe
DOCKED: ATOM     30  O   UNL d   1      39.921  29.717  17.164 -0.81 +0.00    +0.000 OA
DOCKED: ATOM     31  O   UNL d   1      39.404  28.314  16.668 -0.81 +0.00    +0.000 OA
DOCKED: ENDROOT
DOCKED: BRANCH   6  32
DOCKED: ATOM     32  C   UNL d   1      44.886  30.311  19.042 -0.28 +0.03    +0.052 C 
DOCKED: BRANCH  32  33
DOCKED: ATOM     33  C   UNL d   1      44.756  29.075  19.927 -0.17 +0.09    +0.115 C 
DOCKED: BRANCH  33  34
DOCKED: ATOM     34  C   UNL d   1      45.984  28.841  20.772 -0.11 +0.18    +0.139 C 
DOCKED: ATOM     35  O   UNL d   1      46.359  27.699  20.987 -0.14 -0.83    -0.650 OA
DOCKED: BRANCH  34  36
DOCKED: ATOM     36  O   UNL d   1      46.665  29.867  21.322 -0.41 -1.18    -0.776 OA
DOCKED: ATOM     37  H   UNL d   1      47.353  30.340  20.841 +0.02 +0.14    +0.167 HD
DOCKED: ENDBRANCH  34  36
DOCKED: ENDBRANCH  33  34
DOCKED: ENDBRANCH  32  33
DOCKED: ENDBRANCH   6  32
DOCKED: BRANCH  22  38
DOCKED: ATOM     38  C   UNL d   1      43.904  25.134  17.607 -0.31 +0.02    +0.052 C 
DOCKED: BRANCH  38  39
DOCKED: ATOM     39  C   UNL d   1      45.259  25.634  17.109 -0.24 +0.07    +0.115 C 
DOCKED: BRANCH  39  40
DOCKED: ATOM     40  C   UNL d   1      46.246  24.513  16.902 -0.19 +0.14    +0.139 C 
DOCKED: ATOM     41  O   UNL d   1      45.859  23.355  16.908 -0.45 -0.90    -0.650 OA
DOCKED: BRANCH  40  42
DOCKED: ATOM     42  O   UNL d   1      47.547  24.767  16.659 -0.05 -0.94    -0.776 OA
DOCKED: ATOM     43  H   UNL d   1      48.014  25.482  17.108 +0.04 +0.14    +0.167 HD
DOCKED: ENDBRANCH  40  42
DOCKED: ENDBRANCH  39  40
DOCKED: ENDBRANCH  38  39
DOCKED: ENDBRANCH  22  38
DOCKED: BRANCH  12  44
DOCKED: ATOM     44  C   UNL d   1      37.275  33.440  13.629 -0.49 +0.00    +0.004 C 
DOCKED: ATOM     45  C   UNL d   1      36.449  33.018  12.672 -0.55 +0.00    +0.012 C 
DOCKED: ENDBRANCH  12  44
DOCKED: BRANCH  17  46
DOCKED: ATOM     46  C   UNL d   1      37.154  25.254  13.513 -0.64 +0.00    +0.004 C 
DOCKED: ATOM     47  C   UNL d   1      35.996  24.702  13.895 -0.69 +0.00    +0.012 C 
DOCKED: ENDBRANCH  17  46
DOCKED: TORSDOF 10
DOCKED: TER
DOCKED: ENDMDL
________________________________________________________________________________


	BEGINNING GENETIC ALGORITHM DOCKING 25 of 100
Run: 25 Seed: 1350931235 440569005 [ Run 25 of 100 GA/GALS ]
Beginning LAMARCKIAN GENETIC ALGORITHM (LGA), with a maximum of 25000000 energy evaluations.

Final-Value: -18.087


	FINAL GENETIC ALGORITHM DOCKED STATE
	_______________________________________________


Detailed state:  trans 8.681 35.149 -1.054 quatxyzw 0.039300 0.055759 0.006056 0.997652 center 8.287 34.468 -0.670 ntor 10 -67.2559 -135.8691 -32.5111 -57.8137 64.6534 94.8052 -30.5382 -117.4268 -180.0000 161.3211
State:	  8.681  35.149  -1.054   0.574  0.814  0.088  7.854    -67.26 -135.87  -32.51  -57.81   64.65   94.81  -30.54 -117.43 -180.00  161.32

DOCKED: MODEL       25
DOCKED: USER    Run = 25
DOCKED: USER    DPF = D:/Protein_go_brrr/autodock/final/2DN3/heme_O2/dock.dpf
DOCKED: USER  
DOCKED: USER    Estimated Free Energy of Binding    =  -14.43 kcal/mol  [=(1)+(2)+(3)-(4)]
DOCKED: USER    Estimated Inhibition Constant, Ki   =   26.54 pM (picomolar)  [Temperature = 298.15 K]
DOCKED: USER    
DOCKED: USER    (1) Final Intermolecular Energy     =  -17.41 kcal/mol
DOCKED: USER        vdW + Hbond + desolv Energy     =  -16.08 kcal/mol
DOCKED: USER        Electrostatic Energy            =   -1.33 kcal/mol
DOCKED: USER    (2) Final Total Internal Energy     =   -0.68 kcal/mol
DOCKED: USER    (3) Torsional Free Energy           =   +2.98 kcal/mol
DOCKED: USER    (4) Unbound System's Energy  [=(2)] =   -0.68 kcal/mol
DOCKED: USER    
DOCKED: USER    
DOCKED: USER    NEWDPF move heme_O2_opt.pdbqt
DOCKED: USER    NEWDPF about 8.287000 34.468000 -0.670000
DOCKED: USER    NEWDPF tran0 8.681148 35.148911 -1.053632
DOCKED: USER    NEWDPF quaternion0 0.039300 0.055759 0.006056 0.997652
DOCKED: USER    NEWDPF axisangle0 0.573841 0.814179 0.088424 7.853947
DOCKED: USER    NEWDPF quat0 0.573841 0.814179 0.088424 7.853947
DOCKED: USER    NEWDPF dihe0 -67.26 -135.87 -32.51 -57.81 64.65 94.81 -30.54 -117.43 -180.00 161.32 
DOCKED: USER  keepresnum = 1 
DOCKED: USER  
DOCKED: REMARK  10 active torsions:
DOCKED: REMARK  status: ('A' for Active; 'I' for Inactive)
DOCKED: REMARK    1  A    between atoms: C_6  and  C_10 
DOCKED: REMARK    2  A    between atoms: C_10  and  C_11 
DOCKED: REMARK    3  A    between atoms: C_11  and  C_12 
DOCKED: REMARK    4  A    between atoms: C_12  and  O_14 
DOCKED: REMARK    5  A    between atoms: C_17  and  C_20 
DOCKED: REMARK    6  A    between atoms: C_24  and  C_27 
DOCKED: REMARK    7  A    between atoms: C_31  and  C_34 
DOCKED: REMARK    8  A    between atoms: C_34  and  C_35 
DOCKED: REMARK    9  A    between atoms: C_35  and  C_36 
DOCKED: REMARK   10  A    between atoms: C_36  and  O_38 
DOCKED: USER                              x       y       z     vdW  Elec       q    Type
DOCKED: USER                           _______ _______ _______ _____ _____    ______ ____
DOCKED: ROOT
DOCKED: ATOM      1  C   UNL d   1       6.921  35.700  -2.102 -0.26 +0.01    +0.064 A 
DOCKED: ATOM      2  C   UNL d   1       7.633  33.266   1.914 -0.39 +0.01    +0.064 A 
DOCKED: ATOM      3  C   UNL d   1      12.396  33.714   1.450 -0.39 +0.00    +0.064 C 
DOCKED: ATOM      4  C   UNL d   1      11.662  36.629  -2.427 -0.39 +0.00    +0.064 A 
DOCKED: ATOM      5  C   UNL d   1       6.726  35.003  -0.971 -0.30 +0.01    +0.066 A 
DOCKED: ATOM      6  C   UNL d   1       5.468  34.634  -0.486 -0.29 -0.00    -0.021 A 
DOCKED: ATOM      7  C   UNL d   1       5.671  33.967   0.700 -0.33 -0.00    -0.025 A 
DOCKED: ATOM      8  C   UNL d   1       7.050  33.904   0.881 -0.35 +0.01    +0.066 A 
DOCKED: ATOM      9  C   UNL d   1       4.571  33.455   1.604 -0.36 +0.01    +0.051 C 
DOCKED: ATOM     10  C   UNL d   1       9.074  33.147   2.145 -0.36 +0.01    +0.066 A 
DOCKED: ATOM     11  C   UNL d   1       9.629  32.335   3.141 -0.45 -0.00    -0.021 A 
DOCKED: ATOM     12  C   UNL d   1      11.002  32.437   3.012 -0.43 +0.00    +0.000 A 
DOCKED: ATOM     13  C   UNL d   1      11.211  33.334   1.928 -0.36 +0.01    +0.070 A 
DOCKED: ATOM     14  C   UNL d   1       8.881  31.478   4.155 -0.58 +0.00    +0.052 C 
DOCKED: ATOM     15  C   UNL d   1      12.650  34.646   0.378 -0.34 +0.01    +0.066 A 
DOCKED: ATOM     16  C   UNL d   1      13.913  35.128   0.033 -0.41 -0.00    -0.021 A 
DOCKED: ATOM     17  C   UNL d   1      13.728  35.962  -1.070 -0.43 +0.00    +0.000 A 
DOCKED: ATOM     18  C   UNL d   1      12.349  35.924  -1.319 -0.36 +0.01    +0.070 A 
DOCKED: ATOM     19  C   UNL d   1      15.161  34.797   0.811 -0.57 +0.00    +0.052 C 
DOCKED: ATOM     20  C   UNL d   1      10.337  36.649  -2.669 -0.38 +0.00    +0.066 A 
DOCKED: ATOM     21  C   UNL d   1       9.749  37.316  -3.740 -0.38 -0.00    -0.025 A 
DOCKED: ATOM     22  C   UNL d   1       8.401  37.040  -3.679 -0.32 -0.00    -0.021 A 
DOCKED: ATOM     23  C   UNL d   1       8.214  36.226  -2.558 -0.33 +0.01    +0.066 A 
DOCKED: ATOM     24  C   UNL d   1      10.437  38.177  -4.767 -0.49 -0.01    +0.051 C 
DOCKED: ATOM     25  N   UNL d   1       7.697  34.599  -0.114 -0.22 -0.05    -0.248 N 
DOCKED: ATOM     26  N   UNL d   1      10.033  33.765   1.409 -0.21 -0.04    -0.248 N 
DOCKED: ATOM     27  N   UNL d   1      11.702  35.181  -0.385 -0.18 -0.04    -0.248 N 
DOCKED: ATOM     28  N   UNL d   1       9.386  36.028  -1.921 -0.25 -0.04    -0.248 N 
DOCKED: ATOM     29 FE   UNL d   1       9.710  34.905  -0.268 -0.07 +0.00    +0.000 Fe
DOCKED: ATOM     30  O   UNL d   1       9.047  35.670   0.914 -0.64 +0.00    +0.000 OA
DOCKED: ATOM     31  O   UNL d   1      10.169  36.373   0.061 -0.68 +0.00    +0.000 OA
DOCKED: ENDROOT
DOCKED: BRANCH   6  32
DOCKED: ATOM     32  C   UNL d   1       4.119  35.012  -1.039 -0.23 +0.02    +0.052 C 
DOCKED: BRANCH  32  33
DOCKED: ATOM     33  C   UNL d   1       3.506  36.219  -0.335 -0.15 +0.07    +0.115 C 
DOCKED: BRANCH  33  34
DOCKED: ATOM     34  C   UNL d   1       2.666  37.061  -1.263 -0.13 +0.14    +0.139 C 
DOCKED: ATOM     35  O   UNL d   1       3.197  37.932  -1.933 -0.06 -0.57    -0.650 OA
DOCKED: BRANCH  34  36
DOCKED: ATOM     36  O   UNL d   1       1.330  36.892  -1.350 -0.39 -1.08    -0.776 OA
DOCKED: ATOM     37  H   UNL d   1       0.939  36.090  -1.714 +0.02 +0.13    +0.167 HD
DOCKED: ENDBRANCH  34  36
DOCKED: ENDBRANCH  33  34
DOCKED: ENDBRANCH  32  33
DOCKED: ENDBRANCH   6  32
DOCKED: BRANCH  22  38
DOCKED: ATOM     38  C   UNL d   1       7.350  37.585  -4.611 -0.26 +0.00    +0.052 C 
DOCKED: BRANCH  38  39
DOCKED: ATOM     39  C   UNL d   1       6.644  38.812  -4.038 -0.20 +0.01    +0.115 C 
DOCKED: BRANCH  39  40
DOCKED: ATOM     40  C   UNL d   1       7.591  39.960  -3.794 -0.33 +0.00    +0.139 C 
DOCKED: ATOM     41  O   UNL d   1       7.715  40.415  -2.668 -0.07 -0.02    -0.650 OA
DOCKED: BRANCH  40  42
DOCKED: ATOM     42  O   UNL d   1       8.346  40.464  -4.790 +0.05 +0.12    -0.776 OA
DOCKED: ATOM     43  H   UNL d   1       9.287  40.636  -4.672 -0.39 -0.07    +0.167 HD
DOCKED: ENDBRANCH  40  42
DOCKED: ENDBRANCH  39  40
DOCKED: ENDBRANCH  38  39
DOCKED: ENDBRANCH  22  38
DOCKED: BRANCH  12  44
DOCKED: ATOM     44  C   UNL d   1      11.952  31.686   3.920 -0.55 +0.00    +0.004 C 
DOCKED: ATOM     45  C   UNL d   1      13.119  31.127   3.601 -0.64 +0.00    +0.012 C 
DOCKED: ENDBRANCH  12  44
DOCKED: BRANCH  17  46
DOCKED: ATOM     46  C   UNL d   1      14.704  36.808  -1.844 -0.60 +0.00    +0.004 C 
DOCKED: ATOM     47  C   UNL d   1      15.405  37.865  -1.416 -0.64 +0.00    +0.012 C 
DOCKED: ENDBRANCH  17  46
DOCKED: TORSDOF 10
DOCKED: TER
DOCKED: ENDMDL
________________________________________________________________________________


	BEGINNING GENETIC ALGORITHM DOCKING 26 of 100
Run: 26 Seed: 209025451 1117493008 [ Run 26 of 100 GA/GALS ]
Beginning LAMARCKIAN GENETIC ALGORITHM (LGA), with a maximum of 25000000 energy evaluations.

Final-Value: -18.003


	FINAL GENETIC ALGORITHM DOCKED STATE
	_______________________________________________


Detailed state:  trans 8.935 35.033 -0.942 quatxyzw -0.025437 -0.034058 -0.022347 -0.998846 center 8.287 34.468 -0.670 ntor 10 -78.3336 160.5148 -0.4119 -100.4062 30.4789 -41.2257 -30.3147 -79.8958 178.2751 167.7547
State:	  8.935  35.033  -0.942  -0.530 -0.709 -0.465 -5.505    -78.33  160.51   -0.41 -100.41   30.48  -41.23  -30.31  -79.90  178.28  167.75

DOCKED: MODEL       26
DOCKED: USER    Run = 26
DOCKED: USER    DPF = D:/Protein_go_brrr/autodock/final/2DN3/heme_O2/dock.dpf
DOCKED: USER  
DOCKED: USER    Estimated Free Energy of Binding    =  -14.41 kcal/mol  [=(1)+(2)+(3)-(4)]
DOCKED: USER    Estimated Inhibition Constant, Ki   =   27.54 pM (picomolar)  [Temperature = 298.15 K]
DOCKED: USER    
DOCKED: USER    (1) Final Intermolecular Energy     =  -17.39 kcal/mol
DOCKED: USER        vdW + Hbond + desolv Energy     =  -15.98 kcal/mol
DOCKED: USER        Electrostatic Energy            =   -1.41 kcal/mol
DOCKED: USER    (2) Final Total Internal Energy     =   -0.61 kcal/mol
DOCKED: USER    (3) Torsional Free Energy           =   +2.98 kcal/mol
DOCKED: USER    (4) Unbound System's Energy  [=(2)] =   -0.61 kcal/mol
DOCKED: USER    
DOCKED: USER    
DOCKED: USER    NEWDPF move heme_O2_opt.pdbqt
DOCKED: USER    NEWDPF about 8.287000 34.468000 -0.670000
DOCKED: USER    NEWDPF tran0 8.934607 35.033190 -0.942319
DOCKED: USER    NEWDPF quaternion0 -0.025437 -0.034058 -0.022347 -0.998846
DOCKED: USER    NEWDPF axisangle0 -0.529668 -0.709171 -0.465326 -5.505366
DOCKED: USER    NEWDPF quat0 -0.529668 -0.709171 -0.465326 -5.505366
DOCKED: USER    NEWDPF dihe0 -78.33 160.51 -0.41 -100.41 30.48 -41.23 -30.31 -79.90 178.28 167.75 
DOCKED: USER  keepresnum = 1 
DOCKED: USER  
DOCKED: REMARK  10 active torsions:
DOCKED: REMARK  status: ('A' for Active; 'I' for Inactive)
DOCKED: REMARK    1  A    between atoms: C_6  and  C_10 
DOCKED: REMARK    2  A    between atoms: C_10  and  C_11 
DOCKED: REMARK    3  A    between atoms: C_11  and  C_12 
DOCKED: REMARK    4  A    between atoms: C_12  and  O_14 
DOCKED: REMARK    5  A    between atoms: C_17  and  C_20 
DOCKED: REMARK    6  A    between atoms: C_24  and  C_27 
DOCKED: REMARK    7  A    between atoms: C_31  and  C_34 
DOCKED: REMARK    8  A    between atoms: C_34  and  C_35 
DOCKED: REMARK    9  A    between atoms: C_35  and  C_36 
DOCKED: REMARK   10  A    between atoms: C_36  and  O_38 
DOCKED: USER                              x       y       z     vdW  Elec       q    Type
DOCKED: USER                           _______ _______ _______ _____ _____    ______ ____
DOCKED: ROOT
DOCKED: ATOM      1  C   UNL d   1       7.152  35.672  -1.898 -0.28 +0.01    +0.064 A 
DOCKED: ATOM      2  C   UNL d   1       7.949  33.095   2.011 -0.39 +0.01    +0.064 A 
DOCKED: ATOM      3  C   UNL d   1      12.700  33.404   1.358 -0.44 +0.00    +0.064 C 
DOCKED: ATOM      4  C   UNL d   1      11.903  36.458  -2.398 -0.41 +0.00    +0.064 A 
DOCKED: ATOM      5  C   UNL d   1       6.981  34.948  -0.781 -0.30 +0.01    +0.066 A 
DOCKED: ATOM      6  C   UNL d   1       5.733  34.605  -0.254 -0.31 -0.00    -0.021 A 
DOCKED: ATOM      7  C   UNL d   1       5.962  33.895   0.902 -0.35 -0.00    -0.025 A 
DOCKED: ATOM      8  C   UNL d   1       7.345  33.783   1.023 -0.34 +0.01    +0.066 A 
DOCKED: ATOM      9  C   UNL d   1       4.884  33.391   1.837 -0.40 +0.01    +0.051 C 
DOCKED: ATOM     10  C   UNL d   1       9.393  32.923   2.177 -0.38 +0.01    +0.066 A 
DOCKED: ATOM     11  C   UNL d   1       9.961  32.064   3.124 -0.45 -0.00    -0.021 A 
DOCKED: ATOM     12  C   UNL d   1      11.330  32.126   2.940 -0.43 +0.00    +0.000 A 
DOCKED: ATOM     13  C   UNL d   1      11.524  33.048   1.875 -0.37 +0.00    +0.070 A 
DOCKED: ATOM     14  C   UNL d   1       9.228  31.201   4.144 -0.61 +0.00    +0.052 C 
DOCKED: ATOM     15  C   UNL d   1      12.941  34.360   0.304 -0.36 +0.01    +0.066 A 
DOCKED: ATOM     16  C   UNL d   1      14.203  34.812  -0.080 -0.44 -0.00    -0.021 A 
DOCKED: ATOM     17  C   UNL d   1      14.001  35.685  -1.149 -0.44 +0.00    +0.000 A 
DOCKED: ATOM     18  C   UNL d   1      12.612  35.699  -1.341 -0.37 +0.01    +0.070 A 
DOCKED: ATOM     19  C   UNL d   1      15.471  34.417   0.635 -0.60 +0.00    +0.052 C 
DOCKED: ATOM     20  C   UNL d   1      10.571  36.528  -2.582 -0.38 +0.00    +0.066 A 
DOCKED: ATOM     21  C   UNL d   1       9.961  37.246  -3.607 -0.38 -0.00    -0.025 A 
DOCKED: ATOM     22  C   UNL d   1       8.609  37.012  -3.497 -0.34 -0.00    -0.021 A 
DOCKED: ATOM     23  C   UNL d   1       8.441  36.170  -2.393 -0.33 +0.01    +0.066 A 
DOCKED: ATOM     24  C   UNL d   1      10.635  38.115  -4.637 -0.47 -0.00    +0.051 C 
DOCKED: ATOM     25  N   UNL d   1       7.972  34.487   0.021 -0.09 -0.05    -0.248 N 
DOCKED: ATOM     26  N   UNL d   1      10.340  33.532   1.420 -0.22 -0.03    -0.248 N 
DOCKED: ATOM     27  N   UNL d   1      11.980  34.948  -0.402 -0.15 -0.03    -0.248 N 
DOCKED: ATOM     28  N   UNL d   1       9.632  35.915  -1.813 -0.23 -0.04    -0.248 N 
DOCKED: ATOM     29 FE   UNL d   1       9.986  34.733  -0.209 -0.07 +0.00    +0.000 Fe
DOCKED: ATOM     30  O   UNL d   1       9.399  35.483   1.022 -0.64 +0.00    +0.000 OA
DOCKED: ATOM     31  O   UNL d   1      10.508  36.174   0.143 -0.59 +0.00    +0.000 OA
DOCKED: ENDROOT
DOCKED: BRANCH   6  32
DOCKED: ATOM     32  C   UNL d   1       4.375  35.042  -0.738 -0.26 +0.01    +0.052 C 
DOCKED: BRANCH  32  33
DOCKED: ATOM     33  C   UNL d   1       3.814  36.219   0.054 -0.09 +0.06    +0.115 C 
DOCKED: BRANCH  33  34
DOCKED: ATOM     34  C   UNL d   1       2.959  37.128  -0.794 -0.00 +0.15    +0.139 C 
DOCKED: ATOM     35  O   UNL d   1       3.267  38.302  -0.920 -0.20 -0.89    -0.650 OA
DOCKED: BRANCH  34  36
DOCKED: ATOM     36  O   UNL d   1       1.839  36.678  -1.398 -0.19 -0.83    -0.776 OA
DOCKED: ATOM     37  H   UNL d   1       1.870  36.155  -2.207 +0.03 +0.10    +0.167 HD
DOCKED: ENDBRANCH  34  36
DOCKED: ENDBRANCH  33  34
DOCKED: ENDBRANCH  32  33
DOCKED: ENDBRANCH   6  32
DOCKED: BRANCH  22  38
DOCKED: ATOM     38  C   UNL d   1       7.539  37.618  -4.367 -0.28 +0.00    +0.052 C 
DOCKED: BRANCH  38  39
DOCKED: ATOM     39  C   UNL d   1       7.008  38.935  -3.805 -0.24 +0.01    +0.115 C 
DOCKED: BRANCH  39  40
DOCKED: ATOM     40  C   UNL d   1       7.635  40.138  -4.466 -0.29 -0.00    +0.139 C 
DOCKED: ATOM     41  O   UNL d   1       7.004  40.770  -5.298 +0.05 -0.01    -0.650 OA
DOCKED: BRANCH  40  42
DOCKED: ATOM     42  O   UNL d   1       8.865  40.561  -4.116 +0.03 +0.14    -0.776 OA
DOCKED: ATOM     43  H   UNL d   1       9.369  41.163  -4.676 -0.48 -0.08    +0.167 HD
DOCKED: ENDBRANCH  40  42
DOCKED: ENDBRANCH  39  40
DOCKED: ENDBRANCH  38  39
DOCKED: ENDBRANCH  22  38
DOCKED: BRANCH  12  44
DOCKED: ATOM     44  C   UNL d   1      12.292  31.317   3.785 -0.58 +0.00    +0.004 C 
DOCKED: ATOM     45  C   UNL d   1      13.615  31.219   3.653 -0.68 +0.00    +0.012 C 
DOCKED: ENDBRANCH  12  44
DOCKED: BRANCH  17  46
DOCKED: ATOM     46  C   UNL d   1      14.971  36.522  -1.939 -0.60 +0.00    +0.004 C 
DOCKED: ATOM     47  C   UNL d   1      15.143  37.849  -1.901 -0.65 +0.00    +0.012 C 
DOCKED: ENDBRANCH  17  46
DOCKED: TORSDOF 10
DOCKED: TER
DOCKED: ENDMDL
________________________________________________________________________________


	BEGINNING GENETIC ALGORITHM DOCKING 27 of 100
Run: 27 Seed: 1532138829 1531917066 [ Run 27 of 100 GA/GALS ]
Beginning LAMARCKIAN GENETIC ALGORITHM (LGA), with a maximum of 25000000 energy evaluations.

Final-Value: -20.305


	FINAL GENETIC ALGORITHM DOCKED STATE
	_______________________________________________


Detailed state:  trans 41.346 28.571 16.022 quatxyzw -0.301363 0.384575 0.871561 -0.040782 center 8.287 34.468 -0.670 ntor 10 37.9849 133.1691 -16.9989 -87.9230 -130.4752 -65.8782 -37.3527 92.3393 -176.4108 -170.7441
State:	 41.346  28.571  16.022  -0.302  0.385  0.872 -175.325     37.98  133.17  -17.00  -87.92 -130.48  -65.88  -37.35   92.34 -176.41 -170.74

DOCKED: MODEL       27
DOCKED: USER    Run = 27
DOCKED: USER    DPF = D:/Protein_go_brrr/autodock/final/2DN3/heme_O2/dock.dpf
DOCKED: USER  
DOCKED: USER    Estimated Free Energy of Binding    =  -15.34 kcal/mol  [=(1)+(2)+(3)-(4)]
DOCKED: USER    Estimated Inhibition Constant, Ki   =    5.67 pM (picomolar)  [Temperature = 298.15 K]
DOCKED: USER    
DOCKED: USER    (1) Final Intermolecular Energy     =  -18.33 kcal/mol
DOCKED: USER        vdW + Hbond + desolv Energy     =  -16.28 kcal/mol
DOCKED: USER        Electrostatic Energy            =   -2.04 kcal/mol
DOCKED: USER    (2) Final Total Internal Energy     =   -1.98 kcal/mol
DOCKED: USER    (3) Torsional Free Energy           =   +2.98 kcal/mol
DOCKED: USER    (4) Unbound System's Energy  [=(2)] =   -1.98 kcal/mol
DOCKED: USER    
DOCKED: USER    
DOCKED: USER    NEWDPF move heme_O2_opt.pdbqt
DOCKED: USER    NEWDPF about 8.287000 34.468000 -0.670000
DOCKED: USER    NEWDPF tran0 41.345875 28.571104 16.021755
DOCKED: USER    NEWDPF quaternion0 -0.301363 0.384575 0.871561 -0.040782
DOCKED: USER    NEWDPF axisangle0 -0.301614 0.384895 0.872287 -175.325430
DOCKED: USER    NEWDPF quat0 -0.301614 0.384895 0.872287 -175.325430
DOCKED: USER    NEWDPF dihe0 37.98 133.17 -17.00 -87.92 -130.48 -65.88 -37.35 92.34 -176.41 -170.74 
DOCKED: USER  keepresnum = 1 
DOCKED: USER  
DOCKED: REMARK  10 active torsions:
DOCKED: REMARK  status: ('A' for Active; 'I' for Inactive)
DOCKED: REMARK    1  A    between atoms: C_6  and  C_10 
DOCKED: REMARK    2  A    between atoms: C_10  and  C_11 
DOCKED: REMARK    3  A    between atoms: C_11  and  C_12 
DOCKED: REMARK    4  A    between atoms: C_12  and  O_14 
DOCKED: REMARK    5  A    between atoms: C_17  and  C_20 
DOCKED: REMARK    6  A    between atoms: C_24  and  C_27 
DOCKED: REMARK    7  A    between atoms: C_31  and  C_34 
DOCKED: REMARK    8  A    between atoms: C_34  and  C_35 
DOCKED: REMARK    9  A    between atoms: C_35  and  C_36 
DOCKED: REMARK   10  A    between atoms: C_36  and  O_38 
DOCKED: USER                              x       y       z     vdW  Elec       q    Type
DOCKED: USER                           _______ _______ _______ _____ _____    ______ ____
DOCKED: ROOT
DOCKED: ATOM      1  C   UNL d   1      43.083  27.894  17.033 -0.31 +0.02    +0.064 A 
DOCKED: ATOM      2  C   UNL d   1      41.120  32.192  16.555 -0.40 +0.01    +0.064 A 
DOCKED: ATOM      3  C   UNL d   1      37.608  30.386  13.817 -0.39 +0.01    +0.064 C 
DOCKED: ATOM      4  C   UNL d   1      39.350  25.885  14.695 -0.42 +0.01    +0.064 A 
DOCKED: ATOM      5  C   UNL d   1      42.834  29.210  17.128 -0.30 +0.02    +0.066 A 
DOCKED: ATOM      6  C   UNL d   1      43.644  30.111  17.826 -0.32 -0.01    -0.021 A 
DOCKED: ATOM      7  C   UNL d   1      43.053  31.349  17.725 -0.36 -0.01    -0.025 A 
DOCKED: ATOM      8  C   UNL d   1      41.925  31.178  16.927 -0.36 +0.02    +0.066 A 
DOCKED: ATOM      9  C   UNL d   1      43.557  32.606  18.399 -0.40 +0.01    +0.051 C 
DOCKED: ATOM     10  C   UNL d   1      39.936  32.079  15.702 -0.37 +0.01    +0.066 A 
DOCKED: ATOM     11  C   UNL d   1      39.231  33.184  15.213 -0.43 -0.00    -0.021 A 
DOCKED: ATOM     12  C   UNL d   1      38.226  32.685  14.407 -0.41 +0.00    +0.000 A 
DOCKED: ATOM     13  C   UNL d   1      38.370  31.271  14.460 -0.36 +0.01    +0.070 A 
DOCKED: ATOM     14  C   UNL d   1      39.522  34.656  15.482 -0.53 +0.01    +0.052 C 
DOCKED: ATOM     15  C   UNL d   1      37.700  28.947  13.872 -0.37 +0.01    +0.066 A 
DOCKED: ATOM     16  C   UNL d   1      36.771  28.073  13.307 -0.46 -0.00    -0.021 A 
DOCKED: ATOM     17  C   UNL d   1      37.246  26.784  13.545 -0.46 +0.00    +0.000 A 
DOCKED: ATOM     18  C   UNL d   1      38.446  26.970  14.246 -0.38 +0.01    +0.070 A 
DOCKED: ATOM     19  C   UNL d   1      35.499  28.541  12.644 -0.64 +0.01    +0.052 C 
DOCKED: ATOM     20  C   UNL d   1      40.485  26.025  15.407 -0.38 +0.02    +0.066 A 
DOCKED: ATOM     21  C   UNL d   1      41.305  24.966  15.786 -0.42 -0.01    -0.025 A 
DOCKED: ATOM     22  C   UNL d   1      42.387  25.522  16.430 -0.18 -0.01    -0.021 A 
DOCKED: ATOM     23  C   UNL d   1      42.178  26.905  16.436 -0.31 +0.02    +0.066 A 
DOCKED: ATOM     24  C   UNL d   1      41.065  23.498  15.549 -0.54 +0.01    +0.051 C 
DOCKED: ATOM     25  N   UNL d   1      41.755  29.849  16.615 -0.07 -0.09    -0.248 N 
DOCKED: ATOM     26  N   UNL d   1      39.410  30.911  15.254 -0.11 -0.06    -0.248 N 
DOCKED: ATOM     27  N   UNL d   1      38.667  28.285  14.501 -0.21 -0.06    -0.248 N 
DOCKED: ATOM     28  N   UNL d   1      40.999  27.203  15.853 -0.26 -0.07    -0.248 N 
DOCKED: ATOM     29 FE   UNL d   1      40.208  29.042  15.554 -0.07 +0.00    +0.000 Fe
DOCKED: ATOM     30  O   UNL d   1      39.798  29.572  16.959 -0.91 +0.00    +0.000 OA
DOCKED: ATOM     31  O   UNL d   1      39.184  28.223  16.424 -0.64 +0.00    +0.000 OA
DOCKED: ENDROOT
DOCKED: BRANCH   6  32
DOCKED: ATOM     32  C   UNL d   1      44.852  29.802  18.673 -0.27 +0.02    +0.052 C 
DOCKED: BRANCH  32  33
DOCKED: ATOM     33  C   UNL d   1      44.508  29.603  20.145 +0.02 +0.09    +0.115 C 
DOCKED: BRANCH  33  34
DOCKED: ATOM     34  C   UNL d   1      45.296  28.480  20.773 -0.16 +0.18    +0.139 C 
DOCKED: ATOM     35  O   UNL d   1      46.455  28.669  21.106 -0.37 -1.06    -0.650 OA
DOCKED: BRANCH  34  36
DOCKED: ATOM     36  O   UNL d   1      44.756  27.257  20.952 -0.05 -0.87    -0.776 OA
DOCKED: ATOM     37  H   UNL d   1      44.167  26.858  20.300 +0.07 +0.12    +0.167 HD
DOCKED: ENDBRANCH  34  36
DOCKED: ENDBRANCH  33  34
DOCKED: ENDBRANCH  32  33
DOCKED: ENDBRANCH   6  32
DOCKED: BRANCH  22  38
DOCKED: ATOM     38  C   UNL d   1      43.523  24.757  17.059 -0.29 +0.02    +0.052 C 
DOCKED: BRANCH  38  39
DOCKED: ATOM     39  C   UNL d   1      43.086  23.980  18.298 -0.35 +0.04    +0.115 C 
DOCKED: BRANCH  39  40
DOCKED: ATOM     40  C   UNL d   1      43.194  24.798  19.560 -0.35 +0.06    +0.139 C 
DOCKED: ATOM     41  O   UNL d   1      42.334  25.623  19.823 +0.09 -0.21    -0.650 OA
DOCKED: BRANCH  40  42
DOCKED: ATOM     42  O   UNL d   1      44.201  24.600  20.433 -0.50 -0.46    -0.776 OA
DOCKED: ATOM     43  H   UNL d   1      44.678  25.339  20.829 +0.06 +0.11    +0.167 HD
DOCKED: ENDBRANCH  40  42
DOCKED: ENDBRANCH  39  40
DOCKED: ENDBRANCH  38  39
DOCKED: ENDBRANCH  22  38
DOCKED: BRANCH  12  44
DOCKED: ATOM     44  C   UNL d   1      37.249  33.590  13.686 -0.50 +0.00    +0.004 C 
DOCKED: ATOM     45  C   UNL d   1      36.511  33.309  12.612 -0.57 +0.00    +0.012 C 
DOCKED: ENDBRANCH  12  44
DOCKED: BRANCH  17  46
DOCKED: ATOM     46  C   UNL d   1      36.652  25.437  13.228 -0.66 +0.00    +0.004 C 
DOCKED: ATOM     47  C   UNL d   1      35.908  24.653  14.019 -0.71 +0.00    +0.012 C 
DOCKED: ENDBRANCH  17  46
DOCKED: TORSDOF 10
DOCKED: TER
DOCKED: ENDMDL
________________________________________________________________________________


	BEGINNING GENETIC ALGORITHM DOCKING 28 of 100
Run: 28 Seed: 2144081399 1377681604 [ Run 28 of 100 GA/GALS ]
Beginning LAMARCKIAN GENETIC ALGORITHM (LGA), with a maximum of 25000000 energy evaluations.

Final-Value: -20.673


	FINAL GENETIC ALGORITHM DOCKED STATE
	_______________________________________________


Detailed state:  trans 41.117 28.820 16.175 quatxyzw -0.367627 0.401880 0.837602 -0.042015 center 8.287 34.468 -0.670 ntor 10 -153.2232 -106.1182 31.5177 -59.4216 104.5027 142.5517 55.2572 37.3625 -35.9323 173.3121
State:	 41.117  28.820  16.175  -0.368  0.402  0.838 -175.184   -153.22 -106.12   31.52  -59.42  104.50  142.55   55.26   37.36  -35.93  173.31

DOCKED: MODEL       28
DOCKED: USER    Run = 28
DOCKED: USER    DPF = D:/Protein_go_brrr/autodock/final/2DN3/heme_O2/dock.dpf
DOCKED: USER  
DOCKED: USER    Estimated Free Energy of Binding    =  -15.29 kcal/mol  [=(1)+(2)+(3)-(4)]
DOCKED: USER    Estimated Inhibition Constant, Ki   =    6.17 pM (picomolar)  [Temperature = 298.15 K]
DOCKED: USER    
DOCKED: USER    (1) Final Intermolecular Energy     =  -18.28 kcal/mol
DOCKED: USER        vdW + Hbond + desolv Energy     =  -16.44 kcal/mol
DOCKED: USER        Electrostatic Energy            =   -1.84 kcal/mol
DOCKED: USER    (2) Final Total Internal Energy     =   -2.40 kcal/mol
DOCKED: USER    (3) Torsional Free Energy           =   +2.98 kcal/mol
DOCKED: USER    (4) Unbound System's Energy  [=(2)] =   -2.40 kcal/mol
DOCKED: USER    
DOCKED: USER    
DOCKED: USER    NEWDPF move heme_O2_opt.pdbqt
DOCKED: USER    NEWDPF about 8.287000 34.468000 -0.670000
DOCKED: USER    NEWDPF tran0 41.117430 28.820149 16.175251
DOCKED: USER    NEWDPF quaternion0 -0.367627 0.401880 0.837602 -0.042015
DOCKED: USER    NEWDPF axisangle0 -0.367952 0.402235 0.838343 -175.184032
DOCKED: USER    NEWDPF quat0 -0.367952 0.402235 0.838343 -175.184032
DOCKED: USER    NEWDPF dihe0 -153.22 -106.12 31.52 -59.42 104.50 142.55 55.26 37.36 -35.93 173.31 
DOCKED: USER  keepresnum = 1 
DOCKED: USER  
DOCKED: REMARK  10 active torsions:
DOCKED: REMARK  status: ('A' for Active; 'I' for Inactive)
DOCKED: REMARK    1  A    between atoms: C_6  and  C_10 
DOCKED: REMARK    2  A    between atoms: C_10  and  C_11 
DOCKED: REMARK    3  A    between atoms: C_11  and  C_12 
DOCKED: REMARK    4  A    between atoms: C_12  and  O_14 
DOCKED: REMARK    5  A    between atoms: C_17  and  C_20 
DOCKED: REMARK    6  A    between atoms: C_24  and  C_27 
DOCKED: REMARK    7  A    between atoms: C_31  and  C_34 
DOCKED: REMARK    8  A    between atoms: C_34  and  C_35 
DOCKED: REMARK    9  A    between atoms: C_35  and  C_36 
DOCKED: REMARK   10  A    between atoms: C_36  and  O_38 
DOCKED: USER                              x       y       z     vdW  Elec       q    Type
DOCKED: USER                           _______ _______ _______ _____ _____    ______ ____
DOCKED: ROOT
DOCKED: ATOM      1  C   UNL d   1      42.721  28.272  17.451 -0.14 +0.02    +0.064 A 
DOCKED: ATOM      2  C   UNL d   1      40.707  32.455  16.444 -0.41 +0.01    +0.064 A 
DOCKED: ATOM      3  C   UNL d   1      37.660  30.354  13.379 -0.41 +0.01    +0.064 C 
DOCKED: ATOM      4  C   UNL d   1      39.406  25.984  14.766 -0.39 +0.01    +0.064 A 
DOCKED: ATOM      5  C   UNL d   1      42.421  29.581  17.429 -0.25 +0.02    +0.066 A 
DOCKED: ATOM      6  C   UNL d   1      43.099  30.553  18.171 -0.34 -0.01    -0.021 A 
DOCKED: ATOM      7  C   UNL d   1      42.489  31.758  17.913 -0.44 -0.01    -0.025 A 
DOCKED: ATOM      8  C   UNL d   1      41.486  31.497  16.984 -0.39 +0.01    +0.066 A 
DOCKED: ATOM      9  C   UNL d   1      42.857  33.072  18.567 -0.46 +0.01    +0.051 C 
DOCKED: ATOM     10  C   UNL d   1      39.655  32.245  15.449 -0.38 +0.01    +0.066 A 
DOCKED: ATOM     11  C   UNL d   1      38.989  33.291  14.801 -0.42 -0.00    -0.021 A 
DOCKED: ATOM     12  C   UNL d   1      38.119  32.706  13.900 -0.40 +0.00    +0.000 A 
DOCKED: ATOM     13  C   UNL d   1      38.299  31.304  14.062 -0.37 +0.01    +0.070 A 
DOCKED: ATOM     14  C   UNL d   1      39.194  34.787  15.013 -0.54 +0.01    +0.052 C 
DOCKED: ATOM     15  C   UNL d   1      37.788  28.925  13.537 -0.39 +0.01    +0.066 A 
DOCKED: ATOM     16  C   UNL d   1      36.973  27.984  12.908 -0.48 -0.00    -0.021 A 
DOCKED: ATOM     17  C   UNL d   1      37.451  26.731  13.290 -0.46 +0.00    +0.000 A 
DOCKED: ATOM     18  C   UNL d   1      38.538  27.005  14.132 -0.38 +0.01    +0.070 A 
DOCKED: ATOM     19  C   UNL d   1      35.789  28.361  12.054 -0.66 +0.01    +0.052 C 
DOCKED: ATOM     20  C   UNL d   1      40.429  26.211  15.613 -0.36 +0.02    +0.066 A 
DOCKED: ATOM     21  C   UNL d   1      41.222  25.209  16.165 -0.38 -0.01    -0.025 A 
DOCKED: ATOM     22  C   UNL d   1      42.189  25.844  16.911 -0.37 -0.01    -0.021 A 
DOCKED: ATOM     23  C   UNL d   1      41.938  27.215  16.801 -0.34 +0.02    +0.066 A 
DOCKED: ATOM     24  C   UNL d   1      41.063  23.721  15.991 -0.53 +0.01    +0.051 C 
DOCKED: ATOM     25  N   UNL d   1      41.402  30.146  16.736 -0.16 -0.08    -0.248 N 
DOCKED: ATOM     26  N   UNL d   1      39.232  31.032  15.009 -0.20 -0.05    -0.248 N 
DOCKED: ATOM     27  N   UNL d   1      38.681  28.340  14.330 -0.21 -0.06    -0.248 N 
DOCKED: ATOM     28  N   UNL d   1      40.840  27.431  16.048 -0.26 -0.08    -0.248 N 
DOCKED: ATOM     29 FE   UNL d   1      40.039  29.217  15.531 -0.07 +0.00    +0.000 Fe
DOCKED: ATOM     30  O   UNL d   1      39.425  29.812  16.832 -0.69 +0.00    +0.000 OA
DOCKED: ATOM     31  O   UNL d   1      38.933  28.411  16.305 -0.58 +0.00    +0.000 OA
DOCKED: ENDROOT
DOCKED: BRANCH   6  32
DOCKED: ATOM     32  C   UNL d   1      44.189  30.342  19.189 -0.31 +0.02    +0.052 C 
DOCKED: BRANCH  32  33
DOCKED: ATOM     33  C   UNL d   1      45.289  29.407  18.694 -0.21 +0.06    +0.115 C 
DOCKED: BRANCH  33  34
DOCKED: ATOM     34  C   UNL d   1      45.552  28.271  19.652 -0.18 +0.10    +0.139 C 
DOCKED: ATOM     35  O   UNL d   1      45.666  28.502  20.845 -0.17 -0.91    -0.650 OA
DOCKED: BRANCH  34  36
DOCKED: ATOM     36  O   UNL d   1      45.692  27.002  19.216 +0.08 -0.47    -0.776 OA
DOCKED: ATOM     37  H   UNL d   1      45.482  26.244  19.774 +0.06 +0.11    +0.167 HD
DOCKED: ENDBRANCH  34  36
DOCKED: ENDBRANCH  33  34
DOCKED: ENDBRANCH  32  33
DOCKED: ENDBRANCH   6  32
DOCKED: BRANCH  22  38
DOCKED: ATOM     38  C   UNL d   1      43.252  25.163  17.733 -0.35 +0.02    +0.052 C 
DOCKED: BRANCH  38  39
DOCKED: ATOM     39  C   UNL d   1      42.755  24.782  19.126 -0.40 +0.04    +0.115 C 
DOCKED: BRANCH  39  40
DOCKED: ATOM     40  C   UNL d   1      43.823  24.935  20.181 -0.28 +0.07    +0.139 C 
DOCKED: ATOM     41  O   UNL d   1      44.745  24.138  20.230 -0.49 -0.41    -0.650 OA
DOCKED: BRANCH  40  42
DOCKED: ATOM     42  O   UNL d   1      43.806  25.970  21.043 +0.04 -0.53    -0.776 OA
DOCKED: ATOM     43  H   UNL d   1      44.399  26.724  20.939 +0.06 +0.15    +0.167 HD
DOCKED: ENDBRANCH  40  42
DOCKED: ENDBRANCH  39  40
DOCKED: ENDBRANCH  38  39
DOCKED: ENDBRANCH  22  38
DOCKED: BRANCH  12  44
DOCKED: ATOM     44  C   UNL d   1      37.221  33.528  12.999 -0.49 +0.00    +0.004 C 
DOCKED: ATOM     45  C   UNL d   1      36.046  33.180  12.477 -0.62 +0.00    +0.012 C 
DOCKED: ENDBRANCH  12  44
DOCKED: BRANCH  17  46
DOCKED: ATOM     46  C   UNL d   1      36.949  25.345  12.982 -0.64 +0.00    +0.004 C 
DOCKED: ATOM     47  C   UNL d   1      35.799  24.777  13.366 -0.69 +0.00    +0.012 C 
DOCKED: ENDBRANCH  17  46
DOCKED: TORSDOF 10
DOCKED: TER
DOCKED: ENDMDL
________________________________________________________________________________


	BEGINNING GENETIC ALGORITHM DOCKING 29 of 100
Run: 29 Seed: 1828204318 687231958 [ Run 29 of 100 GA/GALS ]
Beginning LAMARCKIAN GENETIC ALGORITHM (LGA), with a maximum of 25000000 energy evaluations.

Final-Value: -12.571


	FINAL GENETIC ALGORITHM DOCKED STATE
	_______________________________________________


Detailed state:  trans 27.971 41.355 -0.900 quatxyzw 0.132623 0.790813 -0.379735 -0.461333 center 8.287 34.468 -0.670 ntor 10 112.1902 148.2613 -66.5747 120.2339 -112.3123 28.0787 -67.7558 74.3613 169.5923 175.7956
State:	 27.971  41.355  -0.900   0.149  0.891 -0.428 -125.054    112.19  148.26  -66.57  120.23 -112.31   28.08  -67.76   74.36  169.59  175.80

DOCKED: MODEL       29
DOCKED: USER    Run = 29
DOCKED: USER    DPF = D:/Protein_go_brrr/autodock/final/2DN3/heme_O2/dock.dpf
DOCKED: USER  
DOCKED: USER    Estimated Free Energy of Binding    =   -7.24 kcal/mol  [=(1)+(2)+(3)-(4)]
DOCKED: USER    Estimated Inhibition Constant, Ki   =    4.91 uM (micromolar)  [Temperature = 298.15 K]
DOCKED: USER    
DOCKED: USER    (1) Final Intermolecular Energy     =  -10.23 kcal/mol
DOCKED: USER        vdW + Hbond + desolv Energy     =   -7.13 kcal/mol
DOCKED: USER        Electrostatic Energy            =   -3.09 kcal/mol
DOCKED: USER    (2) Final Total Internal Energy     =   -2.35 kcal/mol
DOCKED: USER    (3) Torsional Free Energy           =   +2.98 kcal/mol
DOCKED: USER    (4) Unbound System's Energy  [=(2)] =   -2.35 kcal/mol
DOCKED: USER    
DOCKED: USER    
DOCKED: USER    NEWDPF move heme_O2_opt.pdbqt
DOCKED: USER    NEWDPF about 8.287000 34.468000 -0.670000
DOCKED: USER    NEWDPF tran0 27.970716 41.354558 -0.899529
DOCKED: USER    NEWDPF quaternion0 0.132623 0.790813 -0.379735 -0.461333
DOCKED: USER    NEWDPF axisangle0 0.149480 0.891330 -0.428002 -125.053741
DOCKED: USER    NEWDPF quat0 0.149480 0.891330 -0.428002 -125.053741
DOCKED: USER    NEWDPF dihe0 112.19 148.26 -66.57 120.23 -112.31 28.08 -67.76 74.36 169.59 175.80 
DOCKED: USER  keepresnum = 1 
DOCKED: USER  
DOCKED: REMARK  10 active torsions:
DOCKED: REMARK  status: ('A' for Active; 'I' for Inactive)
DOCKED: REMARK    1  A    between atoms: C_6  and  C_10 
DOCKED: REMARK    2  A    between atoms: C_10  and  C_11 
DOCKED: REMARK    3  A    between atoms: C_11  and  C_12 
DOCKED: REMARK    4  A    between atoms: C_12  and  O_14 
DOCKED: REMARK    5  A    between atoms: C_17  and  C_20 
DOCKED: REMARK    6  A    between atoms: C_24  and  C_27 
DOCKED: REMARK    7  A    between atoms: C_31  and  C_34 
DOCKED: REMARK    8  A    between atoms: C_34  and  C_35 
DOCKED: REMARK    9  A    between atoms: C_35  and  C_36 
DOCKED: REMARK   10  A    between atoms: C_36  and  O_38 
DOCKED: USER                              x       y       z     vdW  Elec       q    Type
DOCKED: USER                           _______ _______ _______ _____ _____    ______ ____
DOCKED: ROOT
DOCKED: ATOM      1  C   UNL d   1      28.813  42.603   0.594 -0.14 +0.02    +0.064 A 
DOCKED: ATOM      2  C   UNL d   1      28.983  37.913  -0.137 -0.11 +0.01    +0.064 A 
DOCKED: ATOM      3  C   UNL d   1      26.177  38.323  -4.017 -0.24 +0.01    +0.064 C 
DOCKED: ATOM      4  C   UNL d   1      26.386  43.202  -3.552 -0.19 +0.01    +0.064 A 
DOCKED: ATOM      5  C   UNL d   1      29.090  41.294   0.711 -0.12 +0.02    +0.066 A 
DOCKED: ATOM      6  C   UNL d   1      29.866  40.747   1.736 -0.13 -0.00    -0.021 A 
DOCKED: ATOM      7  C   UNL d   1      29.952  39.394   1.501 -0.10 -0.00    -0.025 A 
DOCKED: ATOM      8  C   UNL d   1      29.186  39.146   0.365 -0.11 +0.01    +0.066 A 
DOCKED: ATOM      9  C   UNL d   1      30.764  38.422   2.328 -0.11 +0.01    +0.051 C 
DOCKED: ATOM     10  C   UNL d   1      28.172  37.588  -1.311 -0.15 +0.01    +0.066 A 
DOCKED: ATOM     11  C   UNL d   1      27.861  36.279  -1.694 -0.14 -0.00    -0.021 A 
DOCKED: ATOM     12  C   UNL d   1      27.038  36.376  -2.800 -0.18 +0.00    +0.000 A 
DOCKED: ATOM     13  C   UNL d   1      26.900  37.771  -3.043 -0.20 +0.01    +0.070 A 
DOCKED: ATOM     14  C   UNL d   1      28.309  34.989  -1.015 -0.10 +0.01    +0.052 C 
DOCKED: ATOM     15  C   UNL d   1      26.040  39.728  -4.318 -0.14 +0.01    +0.066 A 
DOCKED: ATOM     16  C   UNL d   1      25.403  40.236  -5.450 -0.17 -0.00    -0.021 A 
DOCKED: ATOM     17  C   UNL d   1      25.451  41.625  -5.339 -0.18 +0.00    +0.000 A 
DOCKED: ATOM     18  C   UNL d   1      26.121  41.864  -4.131 -0.21 +0.01    +0.070 A 
DOCKED: ATOM     19  C   UNL d   1      24.860  39.360  -6.551 -0.17 +0.01    +0.052 C 
DOCKED: ATOM     20  C   UNL d   1      27.063  43.469  -2.418 -0.17 +0.02    +0.066 A 
DOCKED: ATOM     21  C   UNL d   1      27.266  44.750  -1.913 -0.13 -0.01    -0.025 A 
DOCKED: ATOM     22  C   UNL d   1      27.933  44.597  -0.718 -0.13 -0.01    -0.021 A 
DOCKED: ATOM     23  C   UNL d   1      28.128  43.223  -0.546 -0.14 +0.02    +0.066 A 
DOCKED: ATOM     24  C   UNL d   1      26.849  46.055  -2.541 -0.09 +0.01    +0.051 C 
DOCKED: ATOM     25  N   UNL d   1      28.709  40.326  -0.158 -0.09 -0.04    -0.248 N 
DOCKED: ATOM     26  N   UNL d   1      27.596  38.501  -2.135 -0.11 -0.03    -0.248 N 
DOCKED: ATOM     27  N   UNL d   1      26.537  40.704  -3.562 -0.09 -0.04    -0.248 N 
DOCKED: ATOM     28  N   UNL d   1      27.638  42.544  -1.604 -0.11 -0.06    -0.248 N 
DOCKED: ATOM     29 FE   UNL d   1      27.616  40.538  -1.870 -0.05 +0.00    +0.000 Fe
DOCKED: ATOM     30  O   UNL d   1      29.094  40.116  -2.116 -0.11 +0.00    +0.000 OA
DOCKED: ATOM     31  O   UNL d   1      28.411  41.165  -3.073 -0.12 +0.00    +0.000 OA
DOCKED: ENDROOT
DOCKED: BRANCH   6  32
DOCKED: ATOM     32  C   UNL d   1      30.614  41.480   2.819 -0.26 +0.01    +0.052 C 
DOCKED: BRANCH  32  33
DOCKED: ATOM     33  C   UNL d   1      32.124  41.482   2.598 -0.23 +0.05    +0.115 C 
DOCKED: BRANCH  33  34
DOCKED: ATOM     34  C   UNL d   1      32.650  42.849   2.234 -0.22 +0.15    +0.139 C 
DOCKED: ATOM     35  O   UNL d   1      33.124  43.564   3.102 -0.57 -0.93    -0.650 OA
DOCKED: BRANCH  34  36
DOCKED: ATOM     36  O   UNL d   1      32.582  43.314   0.969 +0.08 -1.19    -0.776 OA
DOCKED: ATOM     37  H   UNL d   1      32.016  44.055   0.727 +0.03 +0.26    +0.167 HD
DOCKED: ENDBRANCH  34  36
DOCKED: ENDBRANCH  33  34
DOCKED: ENDBRANCH  32  33
DOCKED: ENDBRANCH   6  32
DOCKED: BRANCH  22  38
DOCKED: ATOM     38  C   UNL d   1      28.409  45.716   0.172 -0.14 +0.03    +0.052 C 
DOCKED: BRANCH  38  39
DOCKED: ATOM     39  C   UNL d   1      29.743  46.298  -0.289 -0.10 +0.05    +0.115 C 
DOCKED: BRANCH  39  40
DOCKED: ATOM     40  C   UNL d   1      30.888  45.895   0.608 -0.20 +0.12    +0.139 C 
DOCKED: ATOM     41  O   UNL d   1      32.033  46.173   0.291 -0.58 -1.15    -0.650 OA
DOCKED: BRANCH  40  42
DOCKED: ATOM     42  O   UNL d   1      30.666  45.276   1.784 -0.03 -0.66    -0.776 OA
DOCKED: ATOM     43  H   UNL d   1      31.310  44.666   2.162 +0.04 +0.18    +0.167 HD
DOCKED: ENDBRANCH  40  42
DOCKED: ENDBRANCH  39  40
DOCKED: ENDBRANCH  38  39
DOCKED: ENDBRANCH  22  38
DOCKED: BRANCH  12  44
DOCKED: ATOM     44  C   UNL d   1      26.483  35.153  -3.499 -0.14 +0.00    +0.004 C 
DOCKED: ATOM     45  C   UNL d   1      25.224  34.716  -3.508 -0.23 -0.00    +0.012 C 
DOCKED: ENDBRANCH  12  44
DOCKED: BRANCH  17  46
DOCKED: ATOM     46  C   UNL d   1      24.985  42.708  -6.276 -0.16 +0.00    +0.004 C 
DOCKED: ATOM     47  C   UNL d   1      23.996  43.592  -6.093 -0.19 +0.00    +0.012 C 
DOCKED: ENDBRANCH  17  46
DOCKED: TORSDOF 10
DOCKED: TER
DOCKED: ENDMDL
________________________________________________________________________________


	BEGINNING GENETIC ALGORITHM DOCKING 30 of 100
Run: 30 Seed: 1506897492 855592904 [ Run 30 of 100 GA/GALS ]
Beginning LAMARCKIAN GENETIC ALGORITHM (LGA), with a maximum of 25000000 energy evaluations.

Final-Value: -19.746


	FINAL GENETIC ALGORITHM DOCKED STATE
	_______________________________________________


Detailed state:  trans 41.566 28.765 16.292 quatxyzw -0.305217 0.406427 0.861167 0.007103 center 8.287 34.468 -0.670 ntor 10 99.9872 -70.6694 -25.1390 -38.9056 -113.6333 82.4741 -50.1301 26.3543 -170.6579 20.4497
State:	 41.566  28.765  16.292  -0.305  0.406  0.861 179.186     99.99  -70.67  -25.14  -38.91 -113.63   82.47  -50.13   26.35 -170.66   20.45

DOCKED: MODEL       30
DOCKED: USER    Run = 30
DOCKED: USER    DPF = D:/Protein_go_brrr/autodock/final/2DN3/heme_O2/dock.dpf
DOCKED: USER  
DOCKED: USER    Estimated Free Energy of Binding    =  -16.23 kcal/mol  [=(1)+(2)+(3)-(4)]
DOCKED: USER    Estimated Inhibition Constant, Ki   =    1.27 pM (picomolar)  [Temperature = 298.15 K]
DOCKED: USER    
DOCKED: USER    (1) Final Intermolecular Energy     =  -19.21 kcal/mol
DOCKED: USER        vdW + Hbond + desolv Energy     =  -16.05 kcal/mol
DOCKED: USER        Electrostatic Energy            =   -3.16 kcal/mol
DOCKED: USER    (2) Final Total Internal Energy     =   -0.53 kcal/mol
DOCKED: USER    (3) Torsional Free Energy           =   +2.98 kcal/mol
DOCKED: USER    (4) Unbound System's Energy  [=(2)] =   -0.53 kcal/mol
DOCKED: USER    
DOCKED: USER    
DOCKED: USER    NEWDPF move heme_O2_opt.pdbqt
DOCKED: USER    NEWDPF about 8.287000 34.468000 -0.670000
DOCKED: USER    NEWDPF tran0 41.566229 28.765064 16.292178
DOCKED: USER    NEWDPF quaternion0 -0.305217 0.406427 0.861167 0.007103
DOCKED: USER    NEWDPF axisangle0 -0.305225 0.406437 0.861189 179.186005
DOCKED: USER    NEWDPF quat0 -0.305225 0.406437 0.861189 179.186005
DOCKED: USER    NEWDPF dihe0 99.99 -70.67 -25.14 -38.91 -113.63 82.47 -50.13 26.35 -170.66 20.45 
DOCKED: USER  keepresnum = 1 
DOCKED: USER  
DOCKED: REMARK  10 active torsions:
DOCKED: REMARK  status: ('A' for Active; 'I' for Inactive)
DOCKED: REMARK    1  A    between atoms: C_6  and  C_10 
DOCKED: REMARK    2  A    between atoms: C_10  and  C_11 
DOCKED: REMARK    3  A    between atoms: C_11  and  C_12 
DOCKED: REMARK    4  A    between atoms: C_12  and  O_14 
DOCKED: REMARK    5  A    between atoms: C_17  and  C_20 
DOCKED: REMARK    6  A    between atoms: C_24  and  C_27 
DOCKED: REMARK    7  A    between atoms: C_31  and  C_34 
DOCKED: REMARK    8  A    between atoms: C_34  and  C_35 
DOCKED: REMARK    9  A    between atoms: C_35  and  C_36 
DOCKED: REMARK   10  A    between atoms: C_36  and  O_38 
DOCKED: USER                              x       y       z     vdW  Elec       q    Type
DOCKED: USER                           _______ _______ _______ _____ _____    ______ ____
DOCKED: ROOT
DOCKED: ATOM      1  C   UNL d   1      43.371  28.292  17.302 -0.29 +0.02    +0.064 A 
DOCKED: ATOM      2  C   UNL d   1      41.088  32.391  16.562 -0.41 +0.01    +0.064 A 
DOCKED: ATOM      3  C   UNL d   1      37.656  30.136  14.065 -0.38 +0.01    +0.064 C 
DOCKED: ATOM      4  C   UNL d   1      39.742  25.850  15.226 -0.33 +0.01    +0.064 A 
DOCKED: ATOM      5  C   UNL d   1      43.029  29.591  17.306 -0.31 +0.02    +0.066 A 
DOCKED: ATOM      6  C   UNL d   1      43.786  30.598  17.912 -0.32 -0.01    -0.021 A 
DOCKED: ATOM      7  C   UNL d   1      43.104  31.779  17.735 -0.34 -0.01    -0.025 A 
DOCKED: ATOM      8  C   UNL d   1      41.973  31.468  16.985 -0.37 +0.02    +0.066 A 
DOCKED: ATOM      9  C   UNL d   1      43.530  33.117  18.299 -0.40 +0.01    +0.051 C 
DOCKED: ATOM     10  C   UNL d   1      39.896  32.129  15.753 -0.38 +0.01    +0.066 A 
DOCKED: ATOM     11  C   UNL d   1      39.101  33.141  15.204 -0.43 -0.00    -0.021 A 
DOCKED: ATOM     12  C   UNL d   1      38.117  32.511  14.465 -0.40 +0.00    +0.000 A 
DOCKED: ATOM     13  C   UNL d   1      38.365  31.119  14.620 -0.34 +0.01    +0.070 A 
DOCKED: ATOM     14  C   UNL d   1      39.289  34.646  15.354 -0.55 +0.01    +0.052 C 
DOCKED: ATOM     15  C   UNL d   1      37.854  28.715  14.225 -0.35 +0.01    +0.066 A 
DOCKED: ATOM     16  C   UNL d   1      36.979  27.737  13.752 -0.42 -0.00    -0.021 A 
DOCKED: ATOM     17  C   UNL d   1      37.553  26.507  14.072 -0.45 +0.00    +0.000 A 
DOCKED: ATOM     18  C   UNL d   1      38.752  26.831  14.723 -0.37 +0.01    +0.070 A 
DOCKED: ATOM     19  C   UNL d   1      35.662  28.061  13.093 -0.58 +0.01    +0.052 C 
DOCKED: ATOM     20  C   UNL d   1      40.880  26.125  15.893 -0.38 +0.02    +0.066 A 
DOCKED: ATOM     21  C   UNL d   1      41.784  25.159  16.326 -0.37 -0.01    -0.025 A 
DOCKED: ATOM     22  C   UNL d   1      42.837  25.838  16.896 -0.29 -0.01    -0.021 A 
DOCKED: ATOM     23  C   UNL d   1      42.528  27.199  16.805 -0.32 +0.02    +0.066 A 
DOCKED: ATOM     24  C   UNL d   1      41.647  23.663  16.206 -0.53 +0.01    +0.051 C 
DOCKED: ATOM     25  N   UNL d   1      41.894  30.111  16.777 -0.16 -0.08    -0.248 N 
DOCKED: ATOM     26  N   UNL d   1      39.447  30.895  15.408 -0.12 -0.06    -0.248 N 
DOCKED: ATOM     27  N   UNL d   1      38.881  28.174  14.874 -0.19 -0.06    -0.248 N 
DOCKED: ATOM     28  N   UNL d   1      41.317  27.366  16.235 -0.27 -0.08    -0.248 N 
DOCKED: ATOM     29 FE   UNL d   1      40.386  29.116  15.824 -0.09 +0.00    +0.000 Fe
DOCKED: ATOM     30  O   UNL d   1      39.971  29.721  17.196 -0.81 +0.00    +0.000 OA
DOCKED: ATOM     31  O   UNL d   1      39.446  28.295  16.780 -0.84 +0.00    +0.000 OA
DOCKED: ENDROOT
DOCKED: BRANCH   6  32
DOCKED: ATOM     32  C   UNL d   1      45.032  30.441  18.744 -0.27 +0.02    +0.052 C 
DOCKED: BRANCH  32  33
DOCKED: ATOM     33  C   UNL d   1      44.732  30.191  20.219 -0.05 +0.09    +0.115 C 
DOCKED: BRANCH  33  34
DOCKED: ATOM     34  C   UNL d   1      45.443  28.972  20.751 -0.10 +0.18    +0.139 C 
DOCKED: ATOM     35  O   UNL d   1      46.513  29.099  21.324 -0.44 -1.21    -0.650 OA
DOCKED: BRANCH  34  36
DOCKED: ATOM     36  O   UNL d   1      44.935  27.733  20.584 +0.02 -0.81    -0.776 OA
DOCKED: ATOM     37  H   UNL d   1      45.256  27.137  19.898 +0.06 +0.12    +0.167 HD
DOCKED: ENDBRANCH  34  36
DOCKED: ENDBRANCH  33  34
DOCKED: ENDBRANCH  32  33
DOCKED: ENDBRANCH   6  32
DOCKED: BRANCH  22  38
DOCKED: ATOM     38  C   UNL d   1      44.040  25.206  17.547 -0.30 +0.02    +0.052 C 
DOCKED: BRANCH  38  39
DOCKED: ATOM     39  C   UNL d   1      45.352  25.652  16.903 -0.24 +0.07    +0.115 C 
DOCKED: BRANCH  39  40
DOCKED: ATOM     40  C   UNL d   1      46.457  24.642  17.089 -0.24 +0.14    +0.139 C 
DOCKED: ATOM     41  O   UNL d   1      47.559  25.012  17.459 -0.06 -0.57    -0.650 OA
DOCKED: BRANCH  40  42
DOCKED: ATOM     42  O   UNL d   1      46.236  23.327  16.902 -0.31 -1.30    -0.776 OA
DOCKED: ATOM     43  H   UNL d   1      45.668  22.821  17.496 +0.05 +0.18    +0.167 HD
DOCKED: ENDBRANCH  40  42
DOCKED: ENDBRANCH  39  40
DOCKED: ENDBRANCH  38  39
DOCKED: ENDBRANCH  22  38
DOCKED: BRANCH  12  44
DOCKED: ATOM     44  C   UNL d   1      37.060  33.287  13.707 -0.48 +0.00    +0.004 C 
DOCKED: ATOM     45  C   UNL d   1      36.426  32.930  12.591 -0.56 +0.00    +0.012 C 
DOCKED: ENDBRANCH  12  44
DOCKED: BRANCH  17  46
DOCKED: ATOM     46  C   UNL d   1      37.052  25.101  13.873 -0.63 +0.00    +0.004 C 
DOCKED: ATOM     47  C   UNL d   1      35.832  24.612  14.129 -0.71 +0.00    +0.012 C 
DOCKED: ENDBRANCH  17  46
DOCKED: TORSDOF 10
DOCKED: TER
DOCKED: ENDMDL
________________________________________________________________________________


	BEGINNING GENETIC ALGORITHM DOCKING 31 of 100
Run: 31 Seed: 387847130 1164409196 [ Run 31 of 100 GA/GALS ]
Beginning LAMARCKIAN GENETIC ALGORITHM (LGA), with a maximum of 25000000 energy evaluations.

Final-Value: -20.158


	FINAL GENETIC ALGORITHM DOCKED STATE
	_______________________________________________


Detailed state:  trans 41.434 28.922 16.311 quatxyzw -0.336569 0.396866 0.853717 -0.019633 center 8.287 34.468 -0.670 ntor 10 -62.5595 105.8072 -1.4896 -51.7078 -128.8510 37.3704 -16.6570 37.4509 -108.0843 -178.1449
State:	 41.434  28.922  16.311  -0.337  0.397  0.854 -177.750    -62.56  105.81   -1.49  -51.71 -128.85   37.37  -16.66   37.45 -108.08 -178.14

DOCKED: MODEL       31
DOCKED: USER    Run = 31
DOCKED: USER    DPF = D:/Protein_go_brrr/autodock/final/2DN3/heme_O2/dock.dpf
DOCKED: USER  
DOCKED: USER    Estimated Free Energy of Binding    =  -15.84 kcal/mol  [=(1)+(2)+(3)-(4)]
DOCKED: USER    Estimated Inhibition Constant, Ki   =    2.47 pM (picomolar)  [Temperature = 298.15 K]
DOCKED: USER    
DOCKED: USER    (1) Final Intermolecular Energy     =  -18.82 kcal/mol
DOCKED: USER        vdW + Hbond + desolv Energy     =  -16.72 kcal/mol
DOCKED: USER        Electrostatic Energy            =   -2.10 kcal/mol
DOCKED: USER    (2) Final Total Internal Energy     =   -1.34 kcal/mol
DOCKED: USER    (3) Torsional Free Energy           =   +2.98 kcal/mol
DOCKED: USER    (4) Unbound System's Energy  [=(2)] =   -1.34 kcal/mol
DOCKED: USER    
DOCKED: USER    
DOCKED: USER    NEWDPF move heme_O2_opt.pdbqt
DOCKED: USER    NEWDPF about 8.287000 34.468000 -0.670000
DOCKED: USER    NEWDPF tran0 41.433822 28.922156 16.311168
DOCKED: USER    NEWDPF quaternion0 -0.336569 0.396866 0.853717 -0.019633
DOCKED: USER    NEWDPF axisangle0 -0.336634 0.396942 0.853882 -177.750092
DOCKED: USER    NEWDPF quat0 -0.336634 0.396942 0.853882 -177.750092
DOCKED: USER    NEWDPF dihe0 -62.56 105.81 -1.49 -51.71 -128.85 37.37 -16.66 37.45 -108.08 -178.14 
DOCKED: USER  keepresnum = 1 
DOCKED: USER  
DOCKED: REMARK  10 active torsions:
DOCKED: REMARK  status: ('A' for Active; 'I' for Inactive)
DOCKED: REMARK    1  A    between atoms: C_6  and  C_10 
DOCKED: REMARK    2  A    between atoms: C_10  and  C_11 
DOCKED: REMARK    3  A    between atoms: C_11  and  C_12 
DOCKED: REMARK    4  A    between atoms: C_12  and  O_14 
DOCKED: REMARK    5  A    between atoms: C_17  and  C_20 
DOCKED: REMARK    6  A    between atoms: C_24  and  C_27 
DOCKED: REMARK    7  A    between atoms: C_31  and  C_34 
DOCKED: REMARK    8  A    between atoms: C_34  and  C_35 
DOCKED: REMARK    9  A    between atoms: C_35  and  C_36 
DOCKED: REMARK   10  A    between atoms: C_36  and  O_38 
DOCKED: USER                              x       y       z     vdW  Elec       q    Type
DOCKED: USER                           _______ _______ _______ _____ _____    ______ ____
DOCKED: ROOT
DOCKED: ATOM      1  C   UNL d   1      43.145  28.394  17.448 -0.27 +0.02    +0.064 A 
DOCKED: ATOM      2  C   UNL d   1      40.984  32.547  16.642 -0.42 +0.01    +0.064 A 
DOCKED: ATOM      3  C   UNL d   1      37.734  30.413  13.818 -0.40 +0.01    +0.064 C 
DOCKED: ATOM      4  C   UNL d   1      39.662  26.065  15.022 -0.36 +0.01    +0.064 A 
DOCKED: ATOM      5  C   UNL d   1      42.821  29.698  17.461 -0.31 +0.02    +0.066 A 
DOCKED: ATOM      6  C   UNL d   1      43.541  30.676  18.153 -0.33 -0.01    -0.021 A 
DOCKED: ATOM      7  C   UNL d   1      42.891  31.872  17.956 -0.40 -0.01    -0.025 A 
DOCKED: ATOM      8  C   UNL d   1      41.820  31.599  17.109 -0.39 +0.01    +0.066 A 
DOCKED: ATOM      9  C   UNL d   1      43.289  33.188  18.589 -0.44 +0.01    +0.051 C 
DOCKED: ATOM     10  C   UNL d   1      39.858  32.325  15.734 -0.39 +0.01    +0.066 A 
DOCKED: ATOM     11  C   UNL d   1      39.124  33.363  15.151 -0.43 -0.00    -0.021 A 
DOCKED: ATOM     12  C   UNL d   1      38.193  32.769  14.319 -0.41 +0.00    +0.000 A 
DOCKED: ATOM     13  C   UNL d   1      38.410  31.369  14.454 -0.36 +0.01    +0.070 A 
DOCKED: ATOM     14  C   UNL d   1      39.319  34.861  15.358 -0.55 +0.01    +0.052 C 
DOCKED: ATOM     15  C   UNL d   1      37.899  28.985  13.953 -0.36 +0.01    +0.066 A 
DOCKED: ATOM     16  C   UNL d   1      37.052  28.034  13.385 -0.44 -0.00    -0.021 A 
DOCKED: ATOM     17  C   UNL d   1      37.582  26.787  13.716 -0.45 +0.00    +0.000 A 
DOCKED: ATOM     18  C   UNL d   1      38.728  27.075  14.470 -0.37 +0.01    +0.070 A 
DOCKED: ATOM     19  C   UNL d   1      35.796  28.396  12.633 -0.63 +0.01    +0.052 C 
DOCKED: ATOM     20  C   UNL d   1      40.747  26.305  15.785 -0.38 +0.02    +0.066 A 
DOCKED: ATOM     21  C   UNL d   1      41.599  25.313  16.262 -0.37 -0.01    -0.025 A 
DOCKED: ATOM     22  C   UNL d   1      42.613  25.961  16.933 -0.33 -0.01    -0.021 A 
DOCKED: ATOM     23  C   UNL d   1      42.330  27.328  16.855 -0.33 +0.02    +0.066 A 
DOCKED: ATOM     24  C   UNL d   1      41.453  23.824  16.090 -0.54 +0.01    +0.051 C 
DOCKED: ATOM     25  N   UNL d   1      41.740  30.249  16.857 -0.22 -0.08    -0.248 N 
DOCKED: ATOM     26  N   UNL d   1      39.422  31.108  15.320 -0.18 -0.06    -0.248 N 
DOCKED: ATOM     27  N   UNL d   1      38.864  28.411  14.667 -0.15 -0.07    -0.248 N 
DOCKED: ATOM     28  N   UNL d   1      41.171  27.530  16.195 -0.25 -0.08    -0.248 N 
DOCKED: ATOM     29 FE   UNL d   1      40.300  29.304  15.760 -0.08 +0.00    +0.000 Fe
DOCKED: ATOM     30  O   UNL d   1      39.784  29.879  17.111 -0.74 +0.00    +0.000 OA
DOCKED: ATOM     31  O   UNL d   1      39.275  28.473  16.615 -0.76 +0.00    +0.000 OA
DOCKED: ENDROOT
DOCKED: BRANCH   6  32
DOCKED: ATOM     32  C   UNL d   1      44.714  30.478  19.077 -0.29 +0.02    +0.052 C 
DOCKED: BRANCH  32  33
DOCKED: ATOM     33  C   UNL d   1      44.756  29.082  19.690 -0.19 +0.08    +0.115 C 
DOCKED: BRANCH  33  34
DOCKED: ATOM     34  C   UNL d   1      46.121  28.731  20.230 -0.16 +0.13    +0.139 C 
DOCKED: ATOM     35  O   UNL d   1      46.464  29.152  21.322 -0.42 -1.22    -0.650 OA
DOCKED: BRANCH  34  36
DOCKED: ATOM     36  O   UNL d   1      46.987  27.982  19.517 +0.05 -0.50    -0.776 OA
DOCKED: ATOM     37  H   UNL d   1      46.789  27.072  19.265 +0.05 +0.10    +0.167 HD
DOCKED: ENDBRANCH  34  36
DOCKED: ENDBRANCH  33  34
DOCKED: ENDBRANCH  32  33
DOCKED: ENDBRANCH   6  32
DOCKED: BRANCH  22  38
DOCKED: ATOM     38  C   UNL d   1      43.751  25.293  17.661 -0.31 +0.02    +0.052 C 
DOCKED: BRANCH  38  39
DOCKED: ATOM     39  C   UNL d   1      43.320  24.709  19.004 -0.34 +0.05    +0.115 C 
DOCKED: BRANCH  39  40
DOCKED: ATOM     40  C   UNL d   1      44.389  24.842  20.060 -0.23 +0.08    +0.139 C 
DOCKED: ATOM     41  O   UNL d   1      44.198  24.386  21.176 -0.53 -0.43    -0.650 OA
DOCKED: BRANCH  40  42
DOCKED: ATOM     42  O   UNL d   1      45.576  25.412  19.780 +0.09 -0.46    -0.776 OA
DOCKED: ATOM     43  H   UNL d   1      45.813  26.281  20.123 +0.05 +0.12    +0.167 HD
DOCKED: ENDBRANCH  40  42
DOCKED: ENDBRANCH  39  40
DOCKED: ENDBRANCH  38  39
DOCKED: ENDBRANCH  22  38
DOCKED: BRANCH  12  44
DOCKED: ATOM     44  C   UNL d   1      37.211  33.581  13.501 -0.50 +0.00    +0.004 C 
DOCKED: ATOM     45  C   UNL d   1      36.345  33.141  12.589 -0.57 +0.00    +0.012 C 
DOCKED: ENDBRANCH  12  44
DOCKED: BRANCH  17  46
DOCKED: ATOM     46  C   UNL d   1      37.079  25.395  13.439 -0.64 +0.00    +0.004 C 
DOCKED: ATOM     47  C   UNL d   1      35.909  24.850  13.794 -0.70 +0.00    +0.012 C 
DOCKED: ENDBRANCH  17  46
DOCKED: TORSDOF 10
DOCKED: TER
DOCKED: ENDMDL
________________________________________________________________________________


	BEGINNING GENETIC ALGORITHM DOCKING 32 of 100
Run: 32 Seed: 1427458007 1092106611 [ Run 32 of 100 GA/GALS ]
Beginning LAMARCKIAN GENETIC ALGORITHM (LGA), with a maximum of 25000000 energy evaluations.

Final-Value: -19.967


	FINAL GENETIC ALGORITHM DOCKED STATE
	_______________________________________________


Detailed state:  trans 41.571 28.959 16.345 quatxyzw -0.316955 0.404668 0.857751 0.006816 center 8.287 34.468 -0.670 ntor 10 40.0340 -13.6027 -17.7612 -42.8238 -156.5984 -159.5589 -12.3527 -33.6977 -143.7717 125.9301
State:	 41.571  28.959  16.345  -0.317  0.405  0.858 179.219     40.03  -13.60  -17.76  -42.82 -156.60 -159.56  -12.35  -33.70 -143.77  125.93

DOCKED: MODEL       32
DOCKED: USER    Run = 32
DOCKED: USER    DPF = D:/Protein_go_brrr/autodock/final/2DN3/heme_O2/dock.dpf
DOCKED: USER  
DOCKED: USER    Estimated Free Energy of Binding    =  -15.39 kcal/mol  [=(1)+(2)+(3)-(4)]
DOCKED: USER    Estimated Inhibition Constant, Ki   =    5.26 pM (picomolar)  [Temperature = 298.15 K]
DOCKED: USER    
DOCKED: USER    (1) Final Intermolecular Energy     =  -18.37 kcal/mol
DOCKED: USER        vdW + Hbond + desolv Energy     =  -16.21 kcal/mol
DOCKED: USER        Electrostatic Energy            =   -2.16 kcal/mol
DOCKED: USER    (2) Final Total Internal Energy     =   -1.60 kcal/mol
DOCKED: USER    (3) Torsional Free Energy           =   +2.98 kcal/mol
DOCKED: USER    (4) Unbound System's Energy  [=(2)] =   -1.60 kcal/mol
DOCKED: USER    
DOCKED: USER    
DOCKED: USER    NEWDPF move heme_O2_opt.pdbqt
DOCKED: USER    NEWDPF about 8.287000 34.468000 -0.670000
DOCKED: USER    NEWDPF tran0 41.570621 28.958675 16.345252
DOCKED: USER    NEWDPF quaternion0 -0.316955 0.404668 0.857751 0.006816
DOCKED: USER    NEWDPF axisangle0 -0.316963 0.404678 0.857771 179.218984
DOCKED: USER    NEWDPF quat0 -0.316963 0.404678 0.857771 179.218984
DOCKED: USER    NEWDPF dihe0 40.03 -13.60 -17.76 -42.82 -156.60 -159.56 -12.35 -33.70 -143.77 125.93 
DOCKED: USER  keepresnum = 1 
DOCKED: USER  
DOCKED: REMARK  10 active torsions:
DOCKED: REMARK  status: ('A' for Active; 'I' for Inactive)
DOCKED: REMARK    1  A    between atoms: C_6  and  C_10 
DOCKED: REMARK    2  A    between atoms: C_10  and  C_11 
DOCKED: REMARK    3  A    between atoms: C_11  and  C_12 
DOCKED: REMARK    4  A    between atoms: C_12  and  O_14 
DOCKED: REMARK    5  A    between atoms: C_17  and  C_20 
DOCKED: REMARK    6  A    between atoms: C_24  and  C_27 
DOCKED: REMARK    7  A    between atoms: C_31  and  C_34 
DOCKED: REMARK    8  A    between atoms: C_34  and  C_35 
DOCKED: REMARK    9  A    between atoms: C_35  and  C_36 
DOCKED: REMARK   10  A    between atoms: C_36  and  O_38 
DOCKED: USER                              x       y       z     vdW  Elec       q    Type
DOCKED: USER                           _______ _______ _______ _____ _____    ______ ____
DOCKED: ROOT
DOCKED: ATOM      1  C   UNL d   1      43.357  28.504  17.395 -0.28 +0.02    +0.064 A 
DOCKED: ATOM      2  C   UNL d   1      41.050  32.579  16.606 -0.42 +0.01    +0.064 A 
DOCKED: ATOM      3  C   UNL d   1      37.698  30.291  14.031 -0.38 +0.01    +0.064 C 
DOCKED: ATOM      4  C   UNL d   1      39.801  26.026  15.237 -0.36 +0.01    +0.064 A 
DOCKED: ATOM      5  C   UNL d   1      43.002  29.799  17.392 -0.32 +0.02    +0.066 A 
DOCKED: ATOM      6  C   UNL d   1      43.735  30.813  18.015 -0.32 -0.01    -0.021 A 
DOCKED: ATOM      7  C   UNL d   1      43.045  31.987  17.824 -0.36 -0.01    -0.025 A 
DOCKED: ATOM      8  C   UNL d   1      41.934  31.665  17.048 -0.38 +0.01    +0.066 A 
DOCKED: ATOM      9  C   UNL d   1      43.444  33.329  18.398 -0.42 +0.01    +0.051 C 
DOCKED: ATOM     10  C   UNL d   1      39.879  32.306  15.770 -0.39 +0.01    +0.066 A 
DOCKED: ATOM     11  C   UNL d   1      39.087  33.310  15.204 -0.43 -0.00    -0.021 A 
DOCKED: ATOM     12  C   UNL d   1      38.125  32.670  14.443 -0.40 +0.00    +0.000 A 
DOCKED: ATOM     13  C   UNL d   1      38.385  31.281  14.602 -0.35 +0.01    +0.070 A 
DOCKED: ATOM     14  C   UNL d   1      39.256  34.817  15.359 -0.56 +0.01    +0.052 C 
DOCKED: ATOM     15  C   UNL d   1      37.907  28.872  14.195 -0.35 +0.01    +0.066 A 
DOCKED: ATOM     16  C   UNL d   1      37.053  27.886  13.702 -0.42 -0.00    -0.021 A 
DOCKED: ATOM     17  C   UNL d   1      37.632  26.661  14.035 -0.45 +0.00    +0.000 A 
DOCKED: ATOM     18  C   UNL d   1      38.812  26.997  14.713 -0.36 +0.01    +0.070 A 
DOCKED: ATOM     19  C   UNL d   1      35.747  28.197  13.014 -0.59 +0.01    +0.052 C 
DOCKED: ATOM     20  C   UNL d   1      40.921  26.312  15.929 -0.38 +0.02    +0.066 A 
DOCKED: ATOM     21  C   UNL d   1      41.824  25.355  16.382 -0.36 -0.01    -0.025 A 
DOCKED: ATOM     22  C   UNL d   1      42.858  26.044  16.976 -0.30 -0.01    -0.021 A 
DOCKED: ATOM     23  C   UNL d   1      42.536  27.402  16.879 -0.33 +0.02    +0.066 A 
DOCKED: ATOM     24  C   UNL d   1      41.706  23.858  16.258 -0.52 +0.01    +0.051 C 
DOCKED: ATOM     25  N   UNL d   1      41.874  30.307  16.838 -0.21 -0.07    -0.248 N 
DOCKED: ATOM     26  N   UNL d   1      39.450  31.068  15.415 -0.17 -0.06    -0.248 N 
DOCKED: ATOM     27  N   UNL d   1      38.924  28.341  14.866 -0.17 -0.07    -0.248 N 
DOCKED: ATOM     28  N   UNL d   1      41.337  27.558  16.282 -0.26 -0.08    -0.248 N 
DOCKED: ATOM     29 FE   UNL d   1      40.398  29.298  15.850 -0.09 +0.00    +0.000 Fe
DOCKED: ATOM     30  O   UNL d   1      39.946  29.898  17.214 -0.74 +0.00    +0.000 OA
DOCKED: ATOM     31  O   UNL d   1      39.444  28.467  16.785 -0.87 +0.00    +0.000 OA
DOCKED: ENDROOT
DOCKED: BRANCH   6  32
DOCKED: ATOM     32  C   UNL d   1      44.963  30.668  18.875 -0.27 +0.02    +0.052 C 
DOCKED: BRANCH  32  33
DOCKED: ATOM     33  C   UNL d   1      44.723  29.809  20.113 -0.13 +0.09    +0.115 C 
DOCKED: BRANCH  33  34
DOCKED: ATOM     34  C   UNL d   1      46.009  29.379  20.773 -0.07 +0.18    +0.139 C 
DOCKED: ATOM     35  O   UNL d   1      46.847  30.217  21.065 -0.29 -0.74    -0.650 OA
DOCKED: BRANCH  34  36
DOCKED: ATOM     36  O   UNL d   1      46.270  28.080  21.026 -0.18 -1.12    -0.776 OA
DOCKED: ATOM     37  H   UNL d   1      46.047  27.382  20.398 +0.04 +0.15    +0.167 HD
DOCKED: ENDBRANCH  34  36
DOCKED: ENDBRANCH  33  34
DOCKED: ENDBRANCH  32  33
DOCKED: ENDBRANCH   6  32
DOCKED: BRANCH  22  38
DOCKED: ATOM     38  C   UNL d   1      44.052  25.424  17.654 -0.30 +0.02    +0.052 C 
DOCKED: BRANCH  38  39
DOCKED: ATOM     39  C   UNL d   1      44.328  26.040  19.024 -0.21 +0.06    +0.115 C 
DOCKED: BRANCH  39  40
DOCKED: ATOM     40  C   UNL d   1      44.854  25.031  20.014 -0.20 +0.08    +0.139 C 
DOCKED: ATOM     41  O   UNL d   1      44.756  23.839  19.774 -0.37 -0.41    -0.650 OA
DOCKED: BRANCH  40  42
DOCKED: ATOM     42  O   UNL d   1      45.478  25.423  21.141 +0.05 -0.56    -0.776 OA
DOCKED: ATOM     43  H   UNL d   1      45.745  26.340  21.278 +0.05 +0.16    +0.167 HD
DOCKED: ENDBRANCH  40  42
DOCKED: ENDBRANCH  39  40
DOCKED: ENDBRANCH  38  39
DOCKED: ENDBRANCH  22  38
DOCKED: BRANCH  12  44
DOCKED: ATOM     44  C   UNL d   1      37.078  33.436  13.662 -0.50 +0.00    +0.004 C 
DOCKED: ATOM     45  C   UNL d   1      36.376  33.020  12.608 -0.56 +0.00    +0.012 C 
DOCKED: ENDBRANCH  12  44
DOCKED: BRANCH  17  46
DOCKED: ATOM     46  C   UNL d   1      37.150  25.251  13.823 -0.63 +0.00    +0.004 C 
DOCKED: ATOM     47  C   UNL d   1      35.951  24.732  14.118 -0.70 +0.00    +0.012 C 
DOCKED: ENDBRANCH  17  46
DOCKED: TORSDOF 10
DOCKED: TER
DOCKED: ENDMDL
________________________________________________________________________________


	BEGINNING GENETIC ALGORITHM DOCKING 33 of 100
Run: 33 Seed: 1232054933 1146536462 [ Run 33 of 100 GA/GALS ]
Beginning LAMARCKIAN GENETIC ALGORITHM (LGA), with a maximum of 25000000 energy evaluations.

Final-Value: -11.862


	FINAL GENETIC ALGORITHM DOCKED STATE
	_______________________________________________


Detailed state:  trans 26.259 44.760 -2.247 quatxyzw -0.649884 0.330900 0.624707 0.279101 center 8.287 34.468 -0.670 ntor 10 78.9410 61.1198 73.8838 -95.2118 133.8408 -146.1427 -92.5921 87.1364 178.2516 26.7403
State:	 26.259  44.760  -2.247  -0.677  0.345  0.651 147.587     78.94   61.12   73.88  -95.21  133.84 -146.14  -92.59   87.14  178.25   26.74

DOCKED: MODEL       33
DOCKED: USER    Run = 33
DOCKED: USER    DPF = D:/Protein_go_brrr/autodock/final/2DN3/heme_O2/dock.dpf
DOCKED: USER  
DOCKED: USER    Estimated Free Energy of Binding    =   -8.17 kcal/mol  [=(1)+(2)+(3)-(4)]
DOCKED: USER    Estimated Inhibition Constant, Ki   =    1.03 uM (micromolar)  [Temperature = 298.15 K]
DOCKED: USER    
DOCKED: USER    (1) Final Intermolecular Energy     =  -11.15 kcal/mol
DOCKED: USER        vdW + Hbond + desolv Energy     =   -8.03 kcal/mol
DOCKED: USER        Electrostatic Energy            =   -3.12 kcal/mol
DOCKED: USER    (2) Final Total Internal Energy     =   -0.71 kcal/mol
DOCKED: USER    (3) Torsional Free Energy           =   +2.98 kcal/mol
DOCKED: USER    (4) Unbound System's Energy  [=(2)] =   -0.71 kcal/mol
DOCKED: USER    
DOCKED: USER    
DOCKED: USER    NEWDPF move heme_O2_opt.pdbqt
DOCKED: USER    NEWDPF about 8.287000 34.468000 -0.670000
DOCKED: USER    NEWDPF tran0 26.259368 44.760209 -2.247105
DOCKED: USER    NEWDPF quaternion0 -0.649884 0.330900 0.624707 0.279101
DOCKED: USER    NEWDPF axisangle0 -0.676778 0.344593 0.650560 147.586893
DOCKED: USER    NEWDPF quat0 -0.676778 0.344593 0.650560 147.586893
DOCKED: USER    NEWDPF dihe0 78.94 61.12 73.88 -95.21 133.84 -146.14 -92.59 87.14 178.25 26.74 
DOCKED: USER  keepresnum = 1 
DOCKED: USER  
DOCKED: REMARK  10 active torsions:
DOCKED: REMARK  status: ('A' for Active; 'I' for Inactive)
DOCKED: REMARK    1  A    between atoms: C_6  and  C_10 
DOCKED: REMARK    2  A    between atoms: C_10  and  C_11 
DOCKED: REMARK    3  A    between atoms: C_11  and  C_12 
DOCKED: REMARK    4  A    between atoms: C_12  and  O_14 
DOCKED: REMARK    5  A    between atoms: C_17  and  C_20 
DOCKED: REMARK    6  A    between atoms: C_24  and  C_27 
DOCKED: REMARK    7  A    between atoms: C_31  and  C_34 
DOCKED: REMARK    8  A    between atoms: C_34  and  C_35 
DOCKED: REMARK    9  A    between atoms: C_35  and  C_36 
DOCKED: REMARK   10  A    between atoms: C_36  and  O_38 
DOCKED: USER                              x       y       z     vdW  Elec       q    Type
DOCKED: USER                           _______ _______ _______ _____ _____    ______ ____
DOCKED: ROOT
DOCKED: ATOM      1  C   UNL d   1      27.007  45.800  -0.556 -0.13 +0.02    +0.064 A 
DOCKED: ATOM      2  C   UNL d   1      23.535  46.777  -3.646 -0.16 +0.01    +0.064 A 
DOCKED: ATOM      3  C   UNL d   1      24.440  42.736  -6.083 -0.15 +0.01    +0.064 C 
DOCKED: ATOM      4  C   UNL d   1      27.697  41.482  -2.635 -0.14 +0.01    +0.064 A 
DOCKED: ATOM      5  C   UNL d   1      25.987  46.394  -1.196 -0.04 +0.02    +0.066 A 
DOCKED: ATOM      6  C   UNL d   1      25.432  47.620  -0.816 -0.09 -0.00    -0.021 A 
DOCKED: ATOM      7  C   UNL d   1      24.399  47.883  -1.684 -0.11 -0.00    -0.025 A 
DOCKED: ATOM      8  C   UNL d   1      24.382  46.834  -2.600 -0.13 +0.01    +0.066 A 
DOCKED: ATOM      9  C   UNL d   1      23.473  49.076  -1.592 -0.11 +0.00    +0.051 C 
DOCKED: ATOM     10  C   UNL d   1      23.485  45.716  -4.652 -0.19 +0.01    +0.066 A 
DOCKED: ATOM     11  C   UNL d   1      22.698  45.786  -5.807 -0.14 -0.00    -0.021 A 
DOCKED: ATOM     12  C   UNL d   1      22.959  44.638  -6.532 -0.15 +0.00    +0.000 A 
DOCKED: ATOM     13  C   UNL d   1      23.902  43.910  -5.754 -0.17 +0.01    +0.070 A 
DOCKED: ATOM     14  C   UNL d   1      21.758  46.915  -6.215 -0.09 +0.00    +0.052 C 
DOCKED: ATOM     15  C   UNL d   1      25.370  41.950  -5.308 -0.15 +0.01    +0.066 A 
DOCKED: ATOM     16  C   UNL d   1      25.770  40.654  -5.630 -0.17 -0.00    -0.021 A 
DOCKED: ATOM     17  C   UNL d   1      26.698  40.275  -4.661 -0.20 +0.00    +0.000 A 
DOCKED: ATOM     18  C   UNL d   1      26.798  41.385  -3.809 -0.16 +0.01    +0.070 A 
DOCKED: ATOM     19  C   UNL d   1      25.196  39.880  -6.791 -0.13 +0.01    +0.052 C 
DOCKED: ATOM     20  C   UNL d   1      27.785  42.514  -1.773 -0.15 +0.02    +0.066 A 
DOCKED: ATOM     21  C   UNL d   1      28.665  42.556  -0.695 -0.12 -0.01    -0.025 A 
DOCKED: ATOM     22  C   UNL d   1      28.501  43.790  -0.107 -0.14 -0.01    -0.021 A 
DOCKED: ATOM     23  C   UNL d   1      27.511  44.451  -0.841 -0.15 +0.02    +0.066 A 
DOCKED: ATOM     24  C   UNL d   1      29.610  41.472  -0.246 -0.09 +0.01    +0.051 C 
DOCKED: ATOM     25  N   UNL d   1      25.318  45.886  -2.260 -0.10 -0.05    -0.248 N 
DOCKED: ATOM     26  N   UNL d   1      24.212  44.570  -4.610 -0.15 -0.04    -0.248 N 
DOCKED: ATOM     27  N   UNL d   1      25.930  42.363  -4.174 -0.16 -0.05    -0.248 N 
DOCKED: ATOM     28  N   UNL d   1      27.047  43.654  -1.825 -0.12 -0.06    -0.248 N 
DOCKED: ATOM     29 FE   UNL d   1      25.640  44.106  -3.208 -0.04 +0.00    +0.000 Fe
DOCKED: ATOM     30  O   UNL d   1      24.286  44.175  -2.445 -0.45 +0.00    +0.000 OA
DOCKED: ATOM     31  O   UNL d   1      25.133  42.847  -2.414 -0.52 +0.00    +0.000 OA
DOCKED: ENDROOT
DOCKED: BRANCH   6  32
DOCKED: ATOM     32  C   UNL d   1      25.767  48.448   0.397 -0.10 +0.01    +0.052 C 
DOCKED: BRANCH  32  33
DOCKED: ATOM     33  C   UNL d   1      24.791  48.232   1.550 -0.15 +0.04    +0.115 C 
DOCKED: BRANCH  33  34
DOCKED: ATOM     34  C   UNL d   1      25.162  47.043   2.402 -0.04 +0.12    +0.139 C 
DOCKED: ATOM     35  O   UNL d   1      25.940  46.209   1.968 -0.14 -0.76    -0.650 OA
DOCKED: BRANCH  34  36
DOCKED: ATOM     36  O   UNL d   1      24.628  46.864   3.628 -0.04 -0.89    -0.776 OA
DOCKED: ATOM     37  H   UNL d   1      23.742  46.504   3.752 -0.45 +0.04    +0.167 HD
DOCKED: ENDBRANCH  34  36
DOCKED: ENDBRANCH  33  34
DOCKED: ENDBRANCH  32  33
DOCKED: ENDBRANCH   6  32
DOCKED: BRANCH  22  38
DOCKED: ATOM     38  C   UNL d   1      29.214  44.276   1.129 -0.10 +0.03    +0.052 C 
DOCKED: BRANCH  38  39
DOCKED: ATOM     39  C   UNL d   1      29.868  45.641   0.926 -0.16 +0.07    +0.115 C 
DOCKED: BRANCH  39  40
DOCKED: ATOM     40  C   UNL d   1      31.314  45.531   0.513 -0.03 +0.17    +0.139 C 
DOCKED: ATOM     41  O   UNL d   1      31.833  44.431   0.408 -0.22 -1.00    -0.650 OA
DOCKED: BRANCH  40  42
DOCKED: ATOM     42  O   UNL d   1      32.036  46.626   0.207 -0.50 -1.07    -0.776 OA
DOCKED: ATOM     43  H   UNL d   1      32.224  47.307   0.865 -0.54 +0.15    +0.167 HD
DOCKED: ENDBRANCH  40  42
DOCKED: ENDBRANCH  39  40
DOCKED: ENDBRANCH  38  39
DOCKED: ENDBRANCH  22  38
DOCKED: BRANCH  12  44
DOCKED: ATOM     44  C   UNL d   1      22.293  44.359  -7.863 -0.13 +0.00    +0.004 C 
DOCKED: ATOM     45  C   UNL d   1      21.380  43.429  -8.142 -0.22 +0.00    +0.012 C 
DOCKED: ENDBRANCH  12  44
DOCKED: BRANCH  17  46
DOCKED: ATOM     46  C   UNL d   1      27.429  38.977  -4.446 -0.16 +0.00    +0.004 C 
DOCKED: ATOM     47  C   UNL d   1      27.165  38.015  -3.552 -0.23 +0.00    +0.012 C 
DOCKED: ENDBRANCH  17  46
DOCKED: TORSDOF 10
DOCKED: TER
DOCKED: ENDMDL
________________________________________________________________________________


	BEGINNING GENETIC ALGORITHM DOCKING 34 of 100
Run: 34 Seed: 1184217225 336996893 [ Run 34 of 100 GA/GALS ]
Beginning LAMARCKIAN GENETIC ALGORITHM (LGA), with a maximum of 25000000 energy evaluations.

Final-Value: -20.518


	FINAL GENETIC ALGORITHM DOCKED STATE
	_______________________________________________


Detailed state:  trans 41.159 28.791 16.180 quatxyzw 0.371369 -0.398708 -0.837883 0.032701 center 8.287 34.468 -0.670 ntor 10 -110.2351 -111.8334 31.7110 -58.8268 119.4217 171.2152 34.5219 35.8615 -31.3732 150.0224
State:	 41.159  28.791  16.180   0.372 -0.399 -0.838 176.252   -110.24 -111.83   31.71  -58.83  119.42  171.22   34.52   35.86  -31.37  150.02

DOCKED: MODEL       34
DOCKED: USER    Run = 34
DOCKED: USER    DPF = D:/Protein_go_brrr/autodock/final/2DN3/heme_O2/dock.dpf
DOCKED: USER  
DOCKED: USER    Estimated Free Energy of Binding    =  -15.03 kcal/mol  [=(1)+(2)+(3)-(4)]
DOCKED: USER    Estimated Inhibition Constant, Ki   =    9.63 pM (picomolar)  [Temperature = 298.15 K]
DOCKED: USER    
DOCKED: USER    (1) Final Intermolecular Energy     =  -18.01 kcal/mol
DOCKED: USER        vdW + Hbond + desolv Energy     =  -16.07 kcal/mol
DOCKED: USER        Electrostatic Energy            =   -1.94 kcal/mol
DOCKED: USER    (2) Final Total Internal Energy     =   -2.51 kcal/mol
DOCKED: USER    (3) Torsional Free Energy           =   +2.98 kcal/mol
DOCKED: USER    (4) Unbound System's Energy  [=(2)] =   -2.51 kcal/mol
DOCKED: USER    
DOCKED: USER    
DOCKED: USER    NEWDPF move heme_O2_opt.pdbqt
DOCKED: USER    NEWDPF about 8.287000 34.468000 -0.670000
DOCKED: USER    NEWDPF tran0 41.159441 28.791284 16.180054
DOCKED: USER    NEWDPF quaternion0 0.371369 -0.398708 -0.837883 0.032701
DOCKED: USER    NEWDPF axisangle0 0.371567 -0.398921 -0.838332 176.252026
DOCKED: USER    NEWDPF quat0 0.371567 -0.398921 -0.838332 176.252026
DOCKED: USER    NEWDPF dihe0 -110.24 -111.83 31.71 -58.83 119.42 171.22 34.52 35.86 -31.37 150.02 
DOCKED: USER  keepresnum = 1 
DOCKED: USER  
DOCKED: REMARK  10 active torsions:
DOCKED: REMARK  status: ('A' for Active; 'I' for Inactive)
DOCKED: REMARK    1  A    between atoms: C_6  and  C_10 
DOCKED: REMARK    2  A    between atoms: C_10  and  C_11 
DOCKED: REMARK    3  A    between atoms: C_11  and  C_12 
DOCKED: REMARK    4  A    between atoms: C_12  and  O_14 
DOCKED: REMARK    5  A    between atoms: C_17  and  C_20 
DOCKED: REMARK    6  A    between atoms: C_24  and  C_27 
DOCKED: REMARK    7  A    between atoms: C_31  and  C_34 
DOCKED: REMARK    8  A    between atoms: C_34  and  C_35 
DOCKED: REMARK    9  A    between atoms: C_35  and  C_36 
DOCKED: REMARK   10  A    between atoms: C_36  and  O_38 
DOCKED: USER                              x       y       z     vdW  Elec       q    Type
DOCKED: USER                           _______ _______ _______ _____ _____    ______ ____
DOCKED: ROOT
DOCKED: ATOM      1  C   UNL d   1      42.775  28.279  17.455 -0.16 +0.02    +0.064 A 
DOCKED: ATOM      2  C   UNL d   1      40.674  32.417  16.443 -0.41 +0.01    +0.064 A 
DOCKED: ATOM      3  C   UNL d   1      37.668  30.247  13.385 -0.42 +0.01    +0.064 C 
DOCKED: ATOM      4  C   UNL d   1      39.506  25.917  14.777 -0.40 +0.01    +0.064 A 
DOCKED: ATOM      5  C   UNL d   1      42.448  29.581  17.431 -0.26 +0.02    +0.066 A 
DOCKED: ATOM      6  C   UNL d   1      43.106  30.568  18.170 -0.34 -0.01    -0.021 A 
DOCKED: ATOM      7  C   UNL d   1      42.471  31.760  17.911 -0.44 -0.01    -0.025 A 
DOCKED: ATOM      8  C   UNL d   1      41.472  31.476  16.984 -0.39 +0.01    +0.066 A 
DOCKED: ATOM      9  C   UNL d   1      42.812  33.082  18.563 -0.46 +0.01    +0.051 C 
DOCKED: ATOM     10  C   UNL d   1      39.625  32.183  15.450 -0.38 +0.01    +0.066 A 
DOCKED: ATOM     11  C   UNL d   1      38.936  33.214  14.801 -0.42 -0.00    -0.021 A 
DOCKED: ATOM     12  C   UNL d   1      38.077  32.609  13.902 -0.40 +0.00    +0.000 A 
DOCKED: ATOM     13  C   UNL d   1      38.287  31.212  14.066 -0.37 +0.01    +0.070 A 
DOCKED: ATOM     14  C   UNL d   1      39.110  34.714  15.010 -0.53 +0.01    +0.052 C 
DOCKED: ATOM     15  C   UNL d   1      37.825  28.822  13.546 -0.39 +0.01    +0.066 A 
DOCKED: ATOM     16  C   UNL d   1      37.030  27.863  12.919 -0.48 -0.00    -0.021 A 
DOCKED: ATOM     17  C   UNL d   1      37.535  26.621  13.302 -0.47 +0.00    +0.000 A 
DOCKED: ATOM     18  C   UNL d   1      38.616  26.919  14.143 -0.38 +0.01    +0.070 A 
DOCKED: ATOM     19  C   UNL d   1      35.837  28.214  12.065 -0.66 +0.01    +0.052 C 
DOCKED: ATOM     20  C   UNL d   1      40.525  26.167  15.623 -0.36 +0.02    +0.066 A 
DOCKED: ATOM     21  C   UNL d   1      41.340  25.183  16.175 -0.39 -0.01    -0.025 A 
DOCKED: ATOM     22  C   UNL d   1      42.294  25.839  16.919 -0.36 -0.01    -0.021 A 
DOCKED: ATOM     23  C   UNL d   1      42.014  27.205  16.808 -0.34 +0.02    +0.066 A 
DOCKED: ATOM     24  C   UNL d   1      41.212  23.691  16.004 -0.54 +0.01    +0.051 C 
DOCKED: ATOM     25  N   UNL d   1      41.417  30.124  16.738 -0.16 -0.09    -0.248 N 
DOCKED: ATOM     26  N   UNL d   1      39.226  30.962  15.012 -0.19 -0.05    -0.248 N 
DOCKED: ATOM     27  N   UNL d   1      38.731  28.257  14.339 -0.19 -0.06    -0.248 N 
DOCKED: ATOM     28  N   UNL d   1      40.911  27.397  16.055 -0.27 -0.08    -0.248 N 
DOCKED: ATOM     29 FE   UNL d   1      40.073  29.165  15.536 -0.07 +0.00    +0.000 Fe
DOCKED: ATOM     30  O   UNL d   1      39.448  29.748  16.837 -0.71 +0.00    +0.000 OA
DOCKED: ATOM     31  O   UNL d   1      38.984  28.337  16.313 -0.59 +0.00    +0.000 OA
DOCKED: ENDROOT
DOCKED: BRANCH   6  32
DOCKED: ATOM     32  C   UNL d   1      44.202  30.382  19.188 -0.31 +0.02    +0.052 C 
DOCKED: BRANCH  32  33
DOCKED: ATOM     33  C   UNL d   1      45.372  29.561  18.654 -0.20 +0.06    +0.115 C 
DOCKED: BRANCH  33  34
DOCKED: ATOM     34  C   UNL d   1      46.034  28.736  19.731 -0.17 +0.10    +0.139 C 
DOCKED: ATOM     35  O   UNL d   1      46.057  29.150  20.879 -0.30 -0.93    -0.650 OA
DOCKED: BRANCH  34  36
DOCKED: ATOM     36  O   UNL d   1      46.629  27.559  19.448 +0.06 -0.50    -0.776 OA
DOCKED: ATOM     37  H   UNL d   1      46.259  26.717  19.738 +0.05 +0.11    +0.167 HD
DOCKED: ENDBRANCH  34  36
DOCKED: ENDBRANCH  33  34
DOCKED: ENDBRANCH  32  33
DOCKED: ENDBRANCH   6  32
DOCKED: BRANCH  22  38
DOCKED: ATOM     38  C   UNL d   1      43.372  25.182  17.742 -0.34 +0.02    +0.052 C 
DOCKED: BRANCH  38  39
DOCKED: ATOM     39  C   UNL d   1      43.115  25.304  19.242 -0.32 +0.05    +0.115 C 
DOCKED: BRANCH  39  40
DOCKED: ATOM     40  C   UNL d   1      44.390  25.454  20.035 -0.23 +0.08    +0.139 C 
DOCKED: ATOM     41  O   UNL d   1      45.350  24.745  19.778 -0.01 -0.38    -0.650 OA
DOCKED: BRANCH  40  42
DOCKED: ATOM     42  O   UNL d   1      44.507  26.394  20.992 +0.02 -0.66    -0.776 OA
DOCKED: ATOM     43  H   UNL d   1      45.071  27.168  20.873 +0.05 +0.18    +0.167 HD
DOCKED: ENDBRANCH  40  42
DOCKED: ENDBRANCH  39  40
DOCKED: ENDBRANCH  38  39
DOCKED: ENDBRANCH  22  38
DOCKED: BRANCH  12  44
DOCKED: ATOM     44  C   UNL d   1      37.162  33.411  13.001 -0.50 +0.00    +0.004 C 
DOCKED: ATOM     45  C   UNL d   1      35.991  33.039  12.483 -0.62 +0.00    +0.012 C 
DOCKED: ENDBRANCH  12  44
DOCKED: BRANCH  17  46
DOCKED: ATOM     46  C   UNL d   1      37.061  25.225  12.997 -0.65 +0.00    +0.004 C 
DOCKED: ATOM     47  C   UNL d   1      35.919  24.636  13.375 -0.68 +0.00    +0.012 C 
DOCKED: ENDBRANCH  17  46
DOCKED: TORSDOF 10
DOCKED: TER
DOCKED: ENDMDL
________________________________________________________________________________


	BEGINNING GENETIC ALGORITHM DOCKING 35 of 100
Run: 35 Seed: 332425846 385931779 [ Run 35 of 100 GA/GALS ]
Beginning LAMARCKIAN GENETIC ALGORITHM (LGA), with a maximum of 25000000 energy evaluations.

Final-Value: -10.892


	FINAL GENETIC ALGORITHM DOCKED STATE
	_______________________________________________


Detailed state:  trans 17.725 36.685 31.237 quatxyzw 0.173164 -0.567086 -0.604686 0.531773 center 8.287 34.468 -0.670 ntor 10 -2.9748 -25.0120 88.0400 117.0057 179.4351 167.5805 -98.7633 139.4091 -37.6945 29.2746
State:	 17.725  36.685  31.237   0.204 -0.670 -0.714 115.749     -2.97  -25.01   88.04  117.01  179.44  167.58  -98.76  139.41  -37.69   29.27

DOCKED: MODEL       35
DOCKED: USER    Run = 35
DOCKED: USER    DPF = D:/Protein_go_brrr/autodock/final/2DN3/heme_O2/dock.dpf
DOCKED: USER  
DOCKED: USER    Estimated Free Energy of Binding    =   -6.16 kcal/mol  [=(1)+(2)+(3)-(4)]
DOCKED: USER    Estimated Inhibition Constant, Ki   =   30.39 uM (micromolar)  [Temperature = 298.15 K]
DOCKED: USER    
DOCKED: USER    (1) Final Intermolecular Energy     =   -9.15 kcal/mol
DOCKED: USER        vdW + Hbond + desolv Energy     =   -7.12 kcal/mol
DOCKED: USER        Electrostatic Energy            =   -2.02 kcal/mol
DOCKED: USER    (2) Final Total Internal Energy     =   -1.75 kcal/mol
DOCKED: USER    (3) Torsional Free Energy           =   +2.98 kcal/mol
DOCKED: USER    (4) Unbound System's Energy  [=(2)] =   -1.75 kcal/mol
DOCKED: USER    
DOCKED: USER    
DOCKED: USER    NEWDPF move heme_O2_opt.pdbqt
DOCKED: USER    NEWDPF about 8.287000 34.468000 -0.670000
DOCKED: USER    NEWDPF tran0 17.725388 36.684756 31.236772
DOCKED: USER    NEWDPF quaternion0 0.173164 -0.567086 -0.604686 0.531773
DOCKED: USER    NEWDPF axisangle0 0.204471 -0.669613 -0.714010 115.749385
DOCKED: USER    NEWDPF quat0 0.204471 -0.669613 -0.714010 115.749385
DOCKED: USER    NEWDPF dihe0 -2.97 -25.01 88.04 117.01 179.44 167.58 -98.76 139.41 -37.69 29.27 
DOCKED: USER  keepresnum = 1 
DOCKED: USER  
DOCKED: REMARK  10 active torsions:
DOCKED: REMARK  status: ('A' for Active; 'I' for Inactive)
DOCKED: REMARK    1  A    between atoms: C_6  and  C_10 
DOCKED: REMARK    2  A    between atoms: C_10  and  C_11 
DOCKED: REMARK    3  A    between atoms: C_11  and  C_12 
DOCKED: REMARK    4  A    between atoms: C_12  and  O_14 
DOCKED: REMARK    5  A    between atoms: C_17  and  C_20 
DOCKED: REMARK    6  A    between atoms: C_24  and  C_27 
DOCKED: REMARK    7  A    between atoms: C_31  and  C_34 
DOCKED: REMARK    8  A    between atoms: C_34  and  C_35 
DOCKED: REMARK    9  A    between atoms: C_35  and  C_36 
DOCKED: REMARK   10  A    between atoms: C_36  and  O_38 
DOCKED: USER                              x       y       z     vdW  Elec       q    Type
DOCKED: USER                           _______ _______ _______ _____ _____    ______ ____
DOCKED: ROOT
DOCKED: ATOM      1  C   UNL d   1      17.605  35.279  32.821 -0.11 +0.01    +0.064 A 
DOCKED: ATOM      2  C   UNL d   1      20.914  38.460  31.598 -0.11 +0.01    +0.064 A 
DOCKED: ATOM      3  C   UNL d   1      18.317  39.838  27.797 -0.26 +0.00    +0.064 C 
DOCKED: ATOM      4  C   UNL d   1      14.689  36.905  29.315 -0.24 -0.02    +0.064 A 
DOCKED: ATOM      5  C   UNL d   1      18.716  36.033  32.799 -0.08 +0.02    +0.066 A 
DOCKED: ATOM      6  C   UNL d   1      19.753  35.925  33.731 -0.08 -0.01    -0.021 A 
DOCKED: ATOM      7  C   UNL d   1      20.692  36.875  33.403 -0.06 -0.01    -0.025 A 
DOCKED: ATOM      8  C   UNL d   1      20.225  37.505  32.252 -0.04 +0.01    +0.066 A 
DOCKED: ATOM      9  C   UNL d   1      21.950  37.159  34.195 -0.07 +0.01    +0.051 C 
DOCKED: ATOM     10  C   UNL d   1      20.487  39.140  30.375 -0.14 +0.00    +0.066 A 
DOCKED: ATOM     11  C   UNL d   1      21.311  40.005  29.647 -0.16 +0.00    -0.021 A 
DOCKED: ATOM     12  C   UNL d   1      20.587  40.398  28.537 -0.25 -0.00    +0.000 A 
DOCKED: ATOM     13  C   UNL d   1      19.328  39.747  28.660 -0.21 +0.00    +0.070 A 
DOCKED: ATOM     14  C   UNL d   1      22.740  40.416  29.981 -0.17 -0.01    +0.052 C 
DOCKED: ATOM     15  C   UNL d   1      17.016  39.223  27.903 -0.24 -0.00    +0.066 A 
DOCKED: ATOM     16  C   UNL d   1      15.944  39.488  27.051 -0.26 +0.00    -0.021 A 
DOCKED: ATOM     17  C   UNL d   1      14.898  38.664  27.466 -0.23 -0.00    +0.000 A 
DOCKED: ATOM     18  C   UNL d   1      15.418  37.946  28.552 -0.27 -0.02    +0.070 A 
DOCKED: ATOM     19  C   UNL d   1      15.996  40.533  25.965 -0.36 -0.01    +0.052 C 
DOCKED: ATOM     20  C   UNL d   1      15.142  36.229  30.389 -0.20 -0.01    +0.066 A 
DOCKED: ATOM     21  C   UNL d   1      14.416  35.246  31.055 -0.12 +0.00    -0.025 A 
DOCKED: ATOM     22  C   UNL d   1      15.242  34.753  32.040 -0.10 -0.00    -0.021 A 
DOCKED: ATOM     23  C   UNL d   1      16.440  35.468  31.949 -0.13 +0.01    +0.066 A 
DOCKED: ATOM     24  C   UNL d   1      13.005  34.803  30.770 -0.06 -0.01    +0.051 C 
DOCKED: ATOM     25  N   UNL d   1      18.978  37.030  31.919 -0.07 -0.06    -0.248 N 
DOCKED: ATOM     26  N   UNL d   1      19.274  38.987  29.784 -0.13 -0.02    -0.248 N 
DOCKED: ATOM     27  N   UNL d   1      16.678  38.352  28.850 -0.20 +0.00    -0.248 N 
DOCKED: ATOM     28  N   UNL d   1      16.358  36.396  30.973 -0.13 -0.01    -0.248 N 
DOCKED: ATOM     29 FE   UNL d   1      17.804  37.683  30.381 -0.04 +0.00    +0.000 Fe
DOCKED: ATOM     30  O   UNL d   1      17.963  38.718  31.532 -0.10 +0.00    +0.000 OA
DOCKED: ATOM     31  O   UNL d   1      16.564  38.540  30.830 -0.10 +0.00    +0.000 OA
DOCKED: ENDROOT
DOCKED: BRANCH   6  32
DOCKED: ATOM     32  C   UNL d   1      19.801  35.059  34.963 -0.07 +0.02    +0.052 C 
DOCKED: BRANCH  32  33
DOCKED: ATOM     33  C   UNL d   1      19.346  33.627  34.698 -0.08 +0.05    +0.115 C 
DOCKED: BRANCH  33  34
DOCKED: ATOM     34  C   UNL d   1      20.419  32.794  34.044 -0.03 +0.15    +0.139 C 
DOCKED: ATOM     35  O   UNL d   1      21.594  33.056  34.246 -0.52 -0.86    -0.650 OA
DOCKED: BRANCH  34  36
DOCKED: ATOM     36  O   UNL d   1      20.112  31.776  33.213 -0.11 -1.19    -0.776 OA
DOCKED: ATOM     37  H   UNL d   1      19.199  31.519  33.036 +0.02 +0.14    +0.167 HD
DOCKED: ENDBRANCH  34  36
DOCKED: ENDBRANCH  33  34
DOCKED: ENDBRANCH  32  33
DOCKED: ENDBRANCH   6  32
DOCKED: BRANCH  22  38
DOCKED: ATOM     38  C   UNL d   1      14.871  33.698  33.051 -0.05 +0.00    +0.052 C 
DOCKED: BRANCH  38  39
DOCKED: ATOM     39  C   UNL d   1      15.921  32.594  33.151 -0.04 +0.01    +0.115 C 
DOCKED: BRANCH  39  40
DOCKED: ATOM     40  C   UNL d   1      16.449  32.176  31.802 -0.13 +0.02    +0.139 C 
DOCKED: ATOM     41  O   UNL d   1      15.669  31.940  30.893 -0.01 -0.05    -0.650 OA
DOCKED: BRANCH  40  42
DOCKED: ATOM     42  O   UNL d   1      17.773  32.106  31.564 +0.00 -0.32    -0.776 OA
DOCKED: ATOM     43  H   UNL d   1      18.408  32.600  32.096 +0.03 +0.11    +0.167 HD
DOCKED: ENDBRANCH  40  42
DOCKED: ENDBRANCH  39  40
DOCKED: ENDBRANCH  38  39
DOCKED: ENDBRANCH  22  38
DOCKED: BRANCH  12  44
DOCKED: ATOM     44  C   UNL d   1      21.157  41.340  27.497 -0.38 -0.00    +0.004 C 
DOCKED: ATOM     45  C   UNL d   1      20.992  42.659  27.409 -0.27 -0.00    +0.012 C 
DOCKED: ENDBRANCH  12  44
DOCKED: BRANCH  17  46
DOCKED: ATOM     46  C   UNL d   1      13.480  38.544  26.974 -0.35 -0.00    +0.004 C 
DOCKED: ATOM     47  C   UNL d   1      12.918  37.531  26.302 -0.38 -0.01    +0.012 C 
DOCKED: ENDBRANCH  17  46
DOCKED: TORSDOF 10
DOCKED: TER
DOCKED: ENDMDL
________________________________________________________________________________


	BEGINNING GENETIC ALGORITHM DOCKING 36 of 100
Run: 36 Seed: 280189939 667215838 [ Run 36 of 100 GA/GALS ]
Beginning LAMARCKIAN GENETIC ALGORITHM (LGA), with a maximum of 25000000 energy evaluations.

Final-Value: -17.427


	FINAL GENETIC ALGORITHM DOCKED STATE
	_______________________________________________


Detailed state:  trans 8.437 34.409 -0.213 quatxyzw -0.038849 0.289087 0.253333 -0.922357 center 8.287 34.468 -0.670 ntor 10 143.3224 -6.7245 54.7855 124.7383 154.5633 145.4585 -67.6120 -27.5848 -129.2860 166.4001
State:	  8.437  34.409  -0.213  -0.101  0.748  0.656 -45.454    143.32   -6.72   54.79  124.74  154.56  145.46  -67.61  -27.58 -129.29  166.40

DOCKED: MODEL       36
DOCKED: USER    Run = 36
DOCKED: USER    DPF = D:/Protein_go_brrr/autodock/final/2DN3/heme_O2/dock.dpf
DOCKED: USER  
DOCKED: USER    Estimated Free Energy of Binding    =  -12.69 kcal/mol  [=(1)+(2)+(3)-(4)]
DOCKED: USER    Estimated Inhibition Constant, Ki   =  498.24 pM (picomolar)  [Temperature = 298.15 K]
DOCKED: USER    
DOCKED: USER    (1) Final Intermolecular Energy     =  -15.67 kcal/mol
DOCKED: USER        vdW + Hbond + desolv Energy     =  -14.21 kcal/mol
DOCKED: USER        Electrostatic Energy            =   -1.47 kcal/mol
DOCKED: USER    (2) Final Total Internal Energy     =   -1.75 kcal/mol
DOCKED: USER    (3) Torsional Free Energy           =   +2.98 kcal/mol
DOCKED: USER    (4) Unbound System's Energy  [=(2)] =   -1.75 kcal/mol
DOCKED: USER    
DOCKED: USER    
DOCKED: USER    NEWDPF move heme_O2_opt.pdbqt
DOCKED: USER    NEWDPF about 8.287000 34.468000 -0.670000
DOCKED: USER    NEWDPF tran0 8.436881 34.409389 -0.213054
DOCKED: USER    NEWDPF quaternion0 -0.038849 0.289087 0.253333 -0.922357
DOCKED: USER    NEWDPF axisangle0 -0.100556 0.748272 0.655726 -45.453855
DOCKED: USER    NEWDPF quat0 -0.100556 0.748272 0.655726 -45.453855
DOCKED: USER    NEWDPF dihe0 143.32 -6.72 54.79 124.74 154.56 145.46 -67.61 -27.58 -129.29 166.40 
DOCKED: USER  keepresnum = 1 
DOCKED: USER  
DOCKED: REMARK  10 active torsions:
DOCKED: REMARK  status: ('A' for Active; 'I' for Inactive)
DOCKED: REMARK    1  A    between atoms: C_6  and  C_10 
DOCKED: REMARK    2  A    between atoms: C_10  and  C_11 
DOCKED: REMARK    3  A    between atoms: C_11  and  C_12 
DOCKED: REMARK    4  A    between atoms: C_12  and  O_14 
DOCKED: REMARK    5  A    between atoms: C_17  and  C_20 
DOCKED: REMARK    6  A    between atoms: C_24  and  C_27 
DOCKED: REMARK    7  A    between atoms: C_31  and  C_34 
DOCKED: REMARK    8  A    between atoms: C_34  and  C_35 
DOCKED: REMARK    9  A    between atoms: C_35  and  C_36 
DOCKED: REMARK   10  A    between atoms: C_36  and  O_38 
DOCKED: USER                              x       y       z     vdW  Elec       q    Type
DOCKED: USER                           _______ _______ _______ _____ _____    ______ ____
DOCKED: ROOT
DOCKED: ATOM      1  C   UNL d   1       6.414  33.926   0.202 -0.31 +0.01    +0.064 A 
DOCKED: ATOM      2  C   UNL d   1      10.481  32.888   2.425 -0.37 +0.00    +0.064 A 
DOCKED: ATOM      3  C   UNL d   1      13.012  35.249  -0.910 -0.43 +0.01    +0.064 C 
DOCKED: ATOM      4  C   UNL d   1       8.800  36.727  -2.944 -0.35 +0.01    +0.064 A 
DOCKED: ATOM      5  C   UNL d   1       7.313  33.453   1.080 -0.33 +0.01    +0.066 A 
DOCKED: ATOM      6  C   UNL d   1       6.985  32.681   2.198 -0.44 -0.00    -0.021 A 
DOCKED: ATOM      7  C   UNL d   1       8.158  32.416   2.866 -0.47 -0.00    -0.025 A 
DOCKED: ATOM      8  C   UNL d   1       9.175  32.993   2.111 -0.37 +0.01    +0.066 A 
DOCKED: ATOM      9  C   UNL d   1       8.257  31.670   4.178 -0.30 +0.00    +0.051 C 
DOCKED: ATOM     10  C   UNL d   1      11.594  33.452   1.660 -0.36 +0.00    +0.066 A 
DOCKED: ATOM     11  C   UNL d   1      12.937  33.176   1.939 -0.32 -0.00    -0.021 A 
DOCKED: ATOM     12  C   UNL d   1      13.683  33.833   0.977 -0.47 +0.00    +0.000 A 
DOCKED: ATOM     13  C   UNL d   1      12.731  34.498   0.155 -0.34 +0.01    +0.070 A 
DOCKED: ATOM     14  C   UNL d   1      13.486  32.299   3.059 -0.40 +0.00    +0.052 C 
DOCKED: ATOM     15  C   UNL d   1      12.081  35.967  -1.746 -0.38 +0.01    +0.066 A 
DOCKED: ATOM     16  C   UNL d   1      12.448  36.868  -2.745 -0.46 -0.00    -0.021 A 
DOCKED: ATOM     17  C   UNL d   1      11.264  37.303  -3.339 -0.47 +0.00    +0.000 A 
DOCKED: ATOM     18  C   UNL d   1      10.249  36.624  -2.649 -0.38 +0.01    +0.070 A 
DOCKED: ATOM     19  C   UNL d   1      13.878  37.270  -3.005 -0.40 +0.00    +0.052 C 
DOCKED: ATOM     20  C   UNL d   1       7.798  36.124  -2.275 -0.24 +0.01    +0.066 A 
DOCKED: ATOM     21  C   UNL d   1       6.452  36.245  -2.610 -0.21 -0.00    -0.025 A 
DOCKED: ATOM     22  C   UNL d   1       5.760  35.432  -1.741 -0.23 -0.00    -0.021 A 
DOCKED: ATOM     23  C   UNL d   1       6.711  34.857  -0.893 -0.30 +0.01    +0.066 A 
DOCKED: ATOM     24  C   UNL d   1       5.857  37.096  -3.702 -0.20 +0.01    +0.051 C 
DOCKED: ATOM     25  N   UNL d   1       8.648  33.687   1.046 -0.12 -0.04    -0.248 N 
DOCKED: ATOM     26  N   UNL d   1      11.463  34.264   0.580 -0.08 -0.04    -0.248 N 
DOCKED: ATOM     27  N   UNL d   1      10.759  35.876  -1.638 -0.22 -0.03    -0.248 N 
DOCKED: ATOM     28  N   UNL d   1       7.944  35.315  -1.192 -0.19 -0.06    -0.248 N 
DOCKED: ATOM     29 FE   UNL d   1       9.692  34.795  -0.314 -0.06 +0.00    +0.000 Fe
DOCKED: ATOM     30  O   UNL d   1       9.664  35.416   1.113 -0.63 +0.00    +0.000 OA
DOCKED: ATOM     31  O   UNL d   1       9.525  36.350  -0.148 -0.92 +0.00    +0.000 OA
DOCKED: ENDROOT
DOCKED: BRANCH   6  32
DOCKED: ATOM     32  C   UNL d   1       5.611  32.320   2.699 -0.35 +0.00    +0.052 C 
DOCKED: BRANCH  32  33
DOCKED: ATOM     33  C   UNL d   1       4.654  33.508   2.713 -0.24 +0.01    +0.115 C 
DOCKED: BRANCH  33  34
DOCKED: ATOM     34  C   UNL d   1       3.573  33.390   1.667 -0.27 +0.02    +0.139 C 
DOCKED: ATOM     35  O   UNL d   1       3.507  32.383   0.979 +0.06 -0.06    -0.650 OA
DOCKED: BRANCH  34  36
DOCKED: ATOM     36  O   UNL d   1       2.690  34.386   1.453 +0.05 -0.26    -0.776 OA
DOCKED: ATOM     37  H   UNL d   1       2.364  34.599   0.571 +0.05 +0.07    +0.167 HD
DOCKED: ENDBRANCH  34  36
DOCKED: ENDBRANCH  33  34
DOCKED: ENDBRANCH  32  33
DOCKED: ENDBRANCH   6  32
DOCKED: BRANCH  22  38
DOCKED: ATOM     38  C   UNL d   1       4.262  35.272  -1.693 -0.21 +0.01    +0.052 C 
DOCKED: BRANCH  38  39
DOCKED: ATOM     39  C   UNL d   1       3.604  36.248  -0.720 -0.20 +0.07    +0.115 C 
DOCKED: BRANCH  39  40
DOCKED: ATOM     40  C   UNL d   1       2.195  36.602  -1.125 -0.09 +0.14    +0.139 C 
DOCKED: ATOM     41  O   UNL d   1       2.004  37.295  -2.112 -0.11 -0.65    -0.650 OA
DOCKED: BRANCH  40  42
DOCKED: ATOM     42  O   UNL d   1       1.135  36.125  -0.445 -0.24 -0.85    -0.776 OA
DOCKED: ATOM     43  H   UNL d   1       1.241  35.501   0.283 +0.03 +0.13    +0.167 HD
DOCKED: ENDBRANCH  40  42
DOCKED: ENDBRANCH  39  40
DOCKED: ENDBRANCH  38  39
DOCKED: ENDBRANCH  22  38
DOCKED: BRANCH  12  44
DOCKED: ATOM     44  C   UNL d   1      15.195  33.763   0.945 -0.60 +0.00    +0.004 C 
DOCKED: ATOM     45  C   UNL d   1      16.060  34.773   0.864 -0.48 +0.00    +0.012 C 
DOCKED: ENDBRANCH  12  44
DOCKED: BRANCH  17  46
DOCKED: ATOM     46  C   UNL d   1      11.016  38.315  -4.426 -0.42 -0.00    +0.004 C 
DOCKED: ATOM     47  C   UNL d   1      10.468  38.119  -5.631 -0.43 -0.00    +0.012 C 
DOCKED: ENDBRANCH  17  46
DOCKED: TORSDOF 10
DOCKED: TER
DOCKED: ENDMDL
________________________________________________________________________________


	BEGINNING GENETIC ALGORITHM DOCKING 37 of 100
Run: 37 Seed: 1079112430 1300215973 [ Run 37 of 100 GA/GALS ]
Beginning LAMARCKIAN GENETIC ALGORITHM (LGA), with a maximum of 25000000 energy evaluations.

Final-Value: -19.969


	FINAL GENETIC ALGORITHM DOCKED STATE
	_______________________________________________


Detailed state:  trans 41.299 28.561 16.028 quatxyzw -0.302939 0.388682 0.868222 -0.057839 center 8.287 34.468 -0.670 ntor 10 -121.3169 -68.3021 -1.7475 -96.7109 -6.8972 -155.7780 -53.2906 35.9516 179.9377 150.9448
State:	 41.299  28.561  16.028  -0.303  0.389  0.870 -173.368   -121.32  -68.30   -1.75  -96.71   -6.90 -155.78  -53.29   35.95  179.94  150.94

DOCKED: MODEL       37
DOCKED: USER    Run = 37
DOCKED: USER    DPF = D:/Protein_go_brrr/autodock/final/2DN3/heme_O2/dock.dpf
DOCKED: USER  
DOCKED: USER    Estimated Free Energy of Binding    =  -14.70 kcal/mol  [=(1)+(2)+(3)-(4)]
DOCKED: USER    Estimated Inhibition Constant, Ki   =   16.73 pM (picomolar)  [Temperature = 298.15 K]
DOCKED: USER    
DOCKED: USER    (1) Final Intermolecular Energy     =  -17.68 kcal/mol
DOCKED: USER        vdW + Hbond + desolv Energy     =  -15.38 kcal/mol
DOCKED: USER        Electrostatic Energy            =   -2.30 kcal/mol
DOCKED: USER    (2) Final Total Internal Energy     =   -2.28 kcal/mol
DOCKED: USER    (3) Torsional Free Energy           =   +2.98 kcal/mol
DOCKED: USER    (4) Unbound System's Energy  [=(2)] =   -2.28 kcal/mol
DOCKED: USER    
DOCKED: USER    
DOCKED: USER    NEWDPF move heme_O2_opt.pdbqt
DOCKED: USER    NEWDPF about 8.287000 34.468000 -0.670000
DOCKED: USER    NEWDPF tran0 41.299075 28.561213 16.028415
DOCKED: USER    NEWDPF quaternion0 -0.302939 0.388682 0.868222 -0.057839
DOCKED: USER    NEWDPF axisangle0 -0.303447 0.389334 0.869678 -173.368418
DOCKED: USER    NEWDPF quat0 -0.303447 0.389334 0.869678 -173.368418
DOCKED: USER    NEWDPF dihe0 -121.32 -68.30 -1.75 -96.71 -6.90 -155.78 -53.29 35.95 179.94 150.94 
DOCKED: USER  keepresnum = 1 
DOCKED: USER  
DOCKED: REMARK  10 active torsions:
DOCKED: REMARK  status: ('A' for Active; 'I' for Inactive)
DOCKED: REMARK    1  A    between atoms: C_6  and  C_10 
DOCKED: REMARK    2  A    between atoms: C_10  and  C_11 
DOCKED: REMARK    3  A    between atoms: C_11  and  C_12 
DOCKED: REMARK    4  A    between atoms: C_12  and  O_14 
DOCKED: REMARK    5  A    between atoms: C_17  and  C_20 
DOCKED: REMARK    6  A    between atoms: C_24  and  C_27 
DOCKED: REMARK    7  A    between atoms: C_31  and  C_34 
DOCKED: REMARK    8  A    between atoms: C_34  and  C_35 
DOCKED: REMARK    9  A    between atoms: C_35  and  C_36 
DOCKED: REMARK   10  A    between atoms: C_36  and  O_38 
DOCKED: USER                              x       y       z     vdW  Elec       q    Type
DOCKED: USER                           _______ _______ _______ _____ _____    ______ ____
DOCKED: ROOT
DOCKED: ATOM      1  C   UNL d   1      42.996  27.830  17.070 -0.30 +0.02    +0.064 A 
DOCKED: ATOM      2  C   UNL d   1      41.177  32.188  16.561 -0.40 +0.01    +0.064 A 
DOCKED: ATOM      3  C   UNL d   1      37.659  30.492  13.759 -0.40 +0.01    +0.064 C 
DOCKED: ATOM      4  C   UNL d   1      39.243  25.939  14.665 -0.42 +0.01    +0.064 A 
DOCKED: ATOM      5  C   UNL d   1      42.787  29.153  17.161 -0.29 +0.02    +0.066 A 
DOCKED: ATOM      6  C   UNL d   1      43.612  30.028  17.874 -0.32 -0.01    -0.021 A 
DOCKED: ATOM      7  C   UNL d   1      43.062  31.284  17.763 -0.36 -0.01    -0.025 A 
DOCKED: ATOM      8  C   UNL d   1      41.943  31.149  16.946 -0.36 +0.02    +0.066 A 
DOCKED: ATOM      9  C   UNL d   1      43.593  32.525  18.447 -0.40 +0.01    +0.051 C 
DOCKED: ATOM     10  C   UNL d   1      40.006  32.111  15.687 -0.37 +0.01    +0.066 A 
DOCKED: ATOM     11  C   UNL d   1      39.344  33.239  15.186 -0.44 -0.00    -0.021 A 
DOCKED: ATOM     12  C   UNL d   1      38.338  32.771  14.362 -0.41 +0.00    +0.000 A 
DOCKED: ATOM     13  C   UNL d   1      38.437  31.353  14.417 -0.36 +0.01    +0.070 A 
DOCKED: ATOM     14  C   UNL d   1      39.676  34.701  15.461 -0.51 +0.01    +0.052 C 
DOCKED: ATOM     15  C   UNL d   1      37.705  29.051  13.816 -0.37 +0.01    +0.066 A 
DOCKED: ATOM     16  C   UNL d   1      36.759  28.207  13.233 -0.47 -0.00    -0.021 A 
DOCKED: ATOM     17  C   UNL d   1      37.190  26.904  13.479 -0.46 +0.00    +0.000 A 
DOCKED: ATOM     18  C   UNL d   1      38.382  27.052  14.201 -0.38 +0.01    +0.070 A 
DOCKED: ATOM     19  C   UNL d   1      35.515  28.714  12.549 -0.65 +0.01    +0.052 C 
DOCKED: ATOM     20  C   UNL d   1      40.370  26.044  15.397 -0.38 +0.02    +0.066 A 
DOCKED: ATOM     21  C   UNL d   1      41.149  24.959  15.790 -0.43 -0.01    -0.025 A 
DOCKED: ATOM     22  C   UNL d   1      42.237  25.481  16.453 -0.25 -0.01    -0.021 A 
DOCKED: ATOM     23  C   UNL d   1      42.072  26.870  16.456 -0.33 +0.02    +0.066 A 
DOCKED: ATOM     24  C   UNL d   1      40.868  23.499  15.548 -0.52 +0.01    +0.051 C 
DOCKED: ATOM     25  N   UNL d   1      41.738  29.826  16.629 -0.08 -0.09    -0.248 N 
DOCKED: ATOM     26  N   UNL d   1      39.451  30.960  15.229 -0.09 -0.06    -0.248 N 
DOCKED: ATOM     27  N   UNL d   1      38.639  28.359  14.461 -0.21 -0.06    -0.248 N 
DOCKED: ATOM     28  N   UNL d   1      40.912  27.204  15.852 -0.27 -0.07    -0.248 N 
DOCKED: ATOM     29 FE   UNL d   1      40.185  29.067  15.542 -0.07 +0.00    +0.000 Fe
DOCKED: ATOM     30  O   UNL d   1      39.767  29.610  16.939 -0.89 +0.00    +0.000 OA
DOCKED: ATOM     31  O   UNL d   1      39.121  28.281  16.392 -0.62 +0.00    +0.000 OA
DOCKED: ENDROOT
DOCKED: BRANCH   6  32
DOCKED: ATOM     32  C   UNL d   1      44.795  29.682  18.741 -0.27 +0.02    +0.052 C 
DOCKED: BRANCH  32  33
DOCKED: ATOM     33  C   UNL d   1      44.435  29.581  20.220 +0.11 +0.09    +0.115 C 
DOCKED: BRANCH  33  34
DOCKED: ATOM     34  C   UNL d   1      44.820  28.249  20.816 -0.02 +0.17    +0.139 C 
DOCKED: ATOM     35  O   UNL d   1      44.262  27.857  21.828 -0.22 -1.30    -0.650 OA
DOCKED: BRANCH  34  36
DOCKED: ATOM     36  O   UNL d   1      45.793  27.490  20.271 +0.04 -0.69    -0.776 OA
DOCKED: ATOM     37  H   UNL d   1      45.626  26.592  19.959 +0.06 +0.12    +0.167 HD
DOCKED: ENDBRANCH  34  36
DOCKED: ENDBRANCH  33  34
DOCKED: ENDBRANCH  32  33
DOCKED: ENDBRANCH   6  32
DOCKED: BRANCH  22  38
DOCKED: ATOM     38  C   UNL d   1      43.338  24.681  17.101 -0.32 +0.02    +0.052 C 
DOCKED: BRANCH  38  39
DOCKED: ATOM     39  C   UNL d   1      43.251  24.701  18.625 -0.34 +0.05    +0.115 C 
DOCKED: BRANCH  39  40
DOCKED: ATOM     40  C   UNL d   1      44.610  24.694  19.280 -0.21 +0.08    +0.139 C 
DOCKED: ATOM     41  O   UNL d   1      45.605  24.468  18.609 +0.03 -0.41    -0.650 OA
DOCKED: BRANCH  40  42
DOCKED: ATOM     42  O   UNL d   1      44.755  24.983  20.587 -0.11 -0.48    -0.776 OA
DOCKED: ATOM     43  H   UNL d   1      44.558  25.861  20.934 +0.06 +0.12    +0.167 HD
DOCKED: ENDBRANCH  40  42
DOCKED: ENDBRANCH  39  40
DOCKED: ENDBRANCH  38  39
DOCKED: ENDBRANCH  22  38
DOCKED: BRANCH  12  44
DOCKED: ATOM     44  C   UNL d   1      37.402  33.706  13.625 -0.50 +0.00    +0.004 C 
DOCKED: ATOM     45  C   UNL d   1      36.474  33.392  12.722 -0.57 +0.00    +0.012 C 
DOCKED: ENDBRANCH  12  44
DOCKED: BRANCH  17  46
DOCKED: ATOM     46  C   UNL d   1      36.560  25.576  13.151 -0.65 +0.00    +0.004 C 
DOCKED: ATOM     47  C   UNL d   1      35.913  24.740  13.973 -0.70 +0.00    +0.012 C 
DOCKED: ENDBRANCH  17  46
DOCKED: TORSDOF 10
DOCKED: TER
DOCKED: ENDMDL
________________________________________________________________________________


	BEGINNING GENETIC ALGORITHM DOCKING 38 of 100
Run: 38 Seed: 537519394 126852438 [ Run 38 of 100 GA/GALS ]
Beginning LAMARCKIAN GENETIC ALGORITHM (LGA), with a maximum of 25000000 energy evaluations.

Final-Value: -19.078


	FINAL GENETIC ALGORITHM DOCKED STATE
	_______________________________________________


Detailed state:  trans 41.282 28.870 16.241 quatxyzw -0.354740 0.393164 0.847481 -0.036840 center 8.287 34.468 -0.670 ntor 10 74.6710 107.4896 18.9385 -52.7638 167.2643 66.2722 16.4549 -29.9721 -37.9600 129.6838
State:	 41.282  28.870  16.241  -0.355  0.393  0.848 -175.777     74.67  107.49   18.94  -52.76  167.26   66.27   16.45  -29.97  -37.96  129.68

DOCKED: MODEL       38
DOCKED: USER    Run = 38
DOCKED: USER    DPF = D:/Protein_go_brrr/autodock/final/2DN3/heme_O2/dock.dpf
DOCKED: USER  
DOCKED: USER    Estimated Free Energy of Binding    =  -15.74 kcal/mol  [=(1)+(2)+(3)-(4)]
DOCKED: USER    Estimated Inhibition Constant, Ki   =    2.88 pM (picomolar)  [Temperature = 298.15 K]
DOCKED: USER    
DOCKED: USER    (1) Final Intermolecular Energy     =  -18.73 kcal/mol
DOCKED: USER        vdW + Hbond + desolv Energy     =  -16.86 kcal/mol
DOCKED: USER        Electrostatic Energy            =   -1.86 kcal/mol
DOCKED: USER    (2) Final Total Internal Energy     =   -0.35 kcal/mol
DOCKED: USER    (3) Torsional Free Energy           =   +2.98 kcal/mol
DOCKED: USER    (4) Unbound System's Energy  [=(2)] =   -0.35 kcal/mol
DOCKED: USER    
DOCKED: USER    
DOCKED: USER    NEWDPF move heme_O2_opt.pdbqt
DOCKED: USER    NEWDPF about 8.287000 34.468000 -0.670000
DOCKED: USER    NEWDPF tran0 41.281638 28.869641 16.241152
DOCKED: USER    NEWDPF quaternion0 -0.354740 0.393164 0.847481 -0.036840
DOCKED: USER    NEWDPF axisangle0 -0.354981 0.393431 0.848057 -175.777441
DOCKED: USER    NEWDPF quat0 -0.354981 0.393431 0.848057 -175.777441
DOCKED: USER    NEWDPF dihe0 74.67 107.49 18.94 -52.76 167.26 66.27 16.45 -29.97 -37.96 129.68 
DOCKED: USER  keepresnum = 1 
DOCKED: USER  
DOCKED: REMARK  10 active torsions:
DOCKED: REMARK  status: ('A' for Active; 'I' for Inactive)
DOCKED: REMARK    1  A    between atoms: C_6  and  C_10 
DOCKED: REMARK    2  A    between atoms: C_10  and  C_11 
DOCKED: REMARK    3  A    between atoms: C_11  and  C_12 
DOCKED: REMARK    4  A    between atoms: C_12  and  O_14 
DOCKED: REMARK    5  A    between atoms: C_17  and  C_20 
DOCKED: REMARK    6  A    between atoms: C_24  and  C_27 
DOCKED: REMARK    7  A    between atoms: C_31  and  C_34 
DOCKED: REMARK    8  A    between atoms: C_34  and  C_35 
DOCKED: REMARK    9  A    between atoms: C_35  and  C_36 
DOCKED: REMARK   10  A    between atoms: C_36  and  O_38 
DOCKED: USER                              x       y       z     vdW  Elec       q    Type
DOCKED: USER                           _______ _______ _______ _____ _____    ______ ____
DOCKED: ROOT
DOCKED: ATOM      1  C   UNL d   1      42.928  28.306  17.454 -0.21 +0.02    +0.064 A 
DOCKED: ATOM      2  C   UNL d   1      40.862  32.496  16.595 -0.42 +0.01    +0.064 A 
DOCKED: ATOM      3  C   UNL d   1      37.728  30.438  13.589 -0.43 +0.01    +0.064 C 
DOCKED: ATOM      4  C   UNL d   1      39.540  26.052  14.831 -0.38 +0.01    +0.064 A 
DOCKED: ATOM      5  C   UNL d   1      42.621  29.613  17.467 -0.29 +0.02    +0.066 A 
DOCKED: ATOM      6  C   UNL d   1      43.317  30.574  18.206 -0.33 -0.01    -0.021 A 
DOCKED: ATOM      7  C   UNL d   1      42.693  31.781  17.992 -0.42 -0.01    -0.025 A 
DOCKED: ATOM      8  C   UNL d   1      41.662  31.532  17.090 -0.39 +0.01    +0.066 A 
DOCKED: ATOM      9  C   UNL d   1      43.075  33.083  18.660 -0.43 +0.01    +0.051 C 
DOCKED: ATOM     10  C   UNL d   1      39.779  32.299  15.630 -0.39 +0.01    +0.066 A 
DOCKED: ATOM     11  C   UNL d   1      39.087  33.354  15.025 -0.43 -0.00    -0.021 A 
DOCKED: ATOM     12  C   UNL d   1      38.191  32.782  14.142 -0.41 +0.00    +0.000 A 
DOCKED: ATOM     13  C   UNL d   1      38.383  31.378  14.269 -0.36 +0.01    +0.070 A 
DOCKED: ATOM     14  C   UNL d   1      39.290  34.846  15.260 -0.55 +0.01    +0.052 C 
DOCKED: ATOM     15  C   UNL d   1      37.868  29.007  13.714 -0.38 +0.01    +0.066 A 
DOCKED: ATOM     16  C   UNL d   1      37.038  28.074  13.094 -0.46 -0.00    -0.021 A 
DOCKED: ATOM     17  C   UNL d   1      37.535  26.816  13.434 -0.46 +0.00    +0.000 A 
DOCKED: ATOM     18  C   UNL d   1      38.647  27.080  14.246 -0.38 +0.01    +0.070 A 
DOCKED: ATOM     19  C   UNL d   1      35.825  28.461  12.285 -0.66 +0.01    +0.052 C 
DOCKED: ATOM     20  C   UNL d   1      40.589  26.268  15.649 -0.37 +0.02    +0.066 A 
DOCKED: ATOM     21  C   UNL d   1      41.405  25.260  16.155 -0.40 -0.01    -0.025 A 
DOCKED: ATOM     22  C   UNL d   1      42.392  25.886  16.883 -0.34 -0.01    -0.021 A 
DOCKED: ATOM     23  C   UNL d   1      42.130  27.257  16.808 -0.34 +0.02    +0.066 A 
DOCKED: ATOM     24  C   UNL d   1      41.248  23.774  15.957 -0.54 +0.01    +0.051 C 
DOCKED: ATOM     25  N   UNL d   1      41.577  30.186  16.818 -0.20 -0.08    -0.248 N 
DOCKED: ATOM     26  N   UNL d   1      39.348  31.093  15.181 -0.17 -0.05    -0.248 N 
DOCKED: ATOM     27  N   UNL d   1      38.789  28.412  14.467 -0.16 -0.06    -0.248 N 
DOCKED: ATOM     28  N   UNL d   1      41.007  27.482  16.095 -0.25 -0.08    -0.248 N 
DOCKED: ATOM     29 FE   UNL d   1      40.181  29.273  15.640 -0.07 +0.00    +0.000 Fe
DOCKED: ATOM     30  O   UNL d   1      39.607  29.838  16.971 -0.72 +0.00    +0.000 OA
DOCKED: ATOM     31  O   UNL d   1      39.105  28.445  16.433 -0.65 +0.00    +0.000 OA
DOCKED: ENDROOT
DOCKED: BRANCH   6  32
DOCKED: ATOM     32  C   UNL d   1      44.441  30.350  19.184 -0.30 +0.03    +0.052 C 
DOCKED: BRANCH  32  33
DOCKED: ATOM     33  C   UNL d   1      45.505  29.392  18.655 -0.19 +0.06    +0.115 C 
DOCKED: BRANCH  33  34
DOCKED: ATOM     34  C   UNL d   1      46.432  28.906  19.741 -0.15 +0.10    +0.139 C 
DOCKED: ATOM     35  O   UNL d   1      46.112  29.036  20.911 -0.32 -0.96    -0.650 OA
DOCKED: BRANCH  34  36
DOCKED: ATOM     36  O   UNL d   1      47.627  28.351  19.449 +0.04 -0.45    -0.776 OA
DOCKED: ATOM     37  H   UNL d   1      48.380  28.881  19.162 +0.03 +0.08    +0.167 HD
DOCKED: ENDBRANCH  34  36
DOCKED: ENDBRANCH  33  34
DOCKED: ENDBRANCH  32  33
DOCKED: ENDBRANCH   6  32
DOCKED: BRANCH  22  38
DOCKED: ATOM     38  C   UNL d   1      43.485  25.195  17.657 -0.33 +0.02    +0.052 C 
DOCKED: BRANCH  38  39
DOCKED: ATOM     39  C   UNL d   1      43.573  25.684  19.101 -0.27 +0.05    +0.115 C 
DOCKED: BRANCH  39  40
DOCKED: ATOM     40  C   UNL d   1      44.048  24.608  20.045 -0.24 +0.08    +0.139 C 
DOCKED: ATOM     41  O   UNL d   1      43.663  24.605  21.203 -0.53 -0.38    -0.650 OA
DOCKED: BRANCH  40  42
DOCKED: ATOM     42  O   UNL d   1      44.853  23.615  19.620 -0.23 -0.48    -0.776 OA
DOCKED: ATOM     43  H   UNL d   1      45.775  23.558  19.898 +0.05 +0.10    +0.167 HD
DOCKED: ENDBRANCH  40  42
DOCKED: ENDBRANCH  39  40
DOCKED: ENDBRANCH  38  39
DOCKED: ENDBRANCH  22  38
DOCKED: BRANCH  12  44
DOCKED: ATOM     44  C   UNL d   1      37.260  33.616  13.287 -0.49 +0.00    +0.004 C 
DOCKED: ATOM     45  C   UNL d   1      36.188  33.210  12.607 -0.59 +0.00    +0.012 C 
DOCKED: ENDBRANCH  12  44
DOCKED: BRANCH  17  46
DOCKED: ATOM     46  C   UNL d   1      37.030  25.434  13.115 -0.64 +0.00    +0.004 C 
DOCKED: ATOM     47  C   UNL d   1      35.844  24.894  13.423 -0.70 +0.00    +0.012 C 
DOCKED: ENDBRANCH  17  46
DOCKED: TORSDOF 10
DOCKED: TER
DOCKED: ENDMDL
________________________________________________________________________________


	BEGINNING GENETIC ALGORITHM DOCKING 39 of 100
Run: 39 Seed: 938800729 1727904201 [ Run 39 of 100 GA/GALS ]
Beginning LAMARCKIAN GENETIC ALGORITHM (LGA), with a maximum of 25000000 energy evaluations.

Final-Value: -20.129


	FINAL GENETIC ALGORITHM DOCKED STATE
	_______________________________________________


Detailed state:  trans 41.536 28.940 16.335 quatxyzw -0.317563 0.403470 0.858039 -0.011625 center 8.287 34.468 -0.670 ntor 10 -110.9036 -123.2796 -18.1182 -52.5042 -97.3339 120.6173 -42.4461 48.2079 -141.1678 -169.1970
State:	 41.536  28.940  16.335  -0.318  0.403  0.858 -178.668   -110.90 -123.28  -18.12  -52.50  -97.33  120.62  -42.45   48.21 -141.17 -169.20

DOCKED: MODEL       39
DOCKED: USER    Run = 39
DOCKED: USER    DPF = D:/Protein_go_brrr/autodock/final/2DN3/heme_O2/dock.dpf
DOCKED: USER  
DOCKED: USER    Estimated Free Energy of Binding    =  -15.34 kcal/mol  [=(1)+(2)+(3)-(4)]
DOCKED: USER    Estimated Inhibition Constant, Ki   =    5.66 pM (picomolar)  [Temperature = 298.15 K]
DOCKED: USER    
DOCKED: USER    (1) Final Intermolecular Energy     =  -18.33 kcal/mol
DOCKED: USER        vdW + Hbond + desolv Energy     =  -16.26 kcal/mol
DOCKED: USER        Electrostatic Energy            =   -2.06 kcal/mol
DOCKED: USER    (2) Final Total Internal Energy     =   -1.80 kcal/mol
DOCKED: USER    (3) Torsional Free Energy           =   +2.98 kcal/mol
DOCKED: USER    (4) Unbound System's Energy  [=(2)] =   -1.80 kcal/mol
DOCKED: USER    
DOCKED: USER    
DOCKED: USER    NEWDPF move heme_O2_opt.pdbqt
DOCKED: USER    NEWDPF about 8.287000 34.468000 -0.670000
DOCKED: USER    NEWDPF tran0 41.536413 28.940277 16.335400
DOCKED: USER    NEWDPF quaternion0 -0.317563 0.403470 0.858039 -0.011625
DOCKED: USER    NEWDPF axisangle0 -0.317585 0.403497 0.858097 -178.667838
DOCKED: USER    NEWDPF quat0 -0.317585 0.403497 0.858097 -178.667838
DOCKED: USER    NEWDPF dihe0 -110.90 -123.28 -18.12 -52.50 -97.33 120.62 -42.45 48.21 -141.17 -169.20 
DOCKED: USER  keepresnum = 1 
DOCKED: USER  
DOCKED: REMARK  10 active torsions:
DOCKED: REMARK  status: ('A' for Active; 'I' for Inactive)
DOCKED: REMARK    1  A    between atoms: C_6  and  C_10 
DOCKED: REMARK    2  A    between atoms: C_10  and  C_11 
DOCKED: REMARK    3  A    between atoms: C_11  and  C_12 
DOCKED: REMARK    4  A    between atoms: C_12  and  O_14 
DOCKED: REMARK    5  A    between atoms: C_17  and  C_20 
DOCKED: REMARK    6  A    between atoms: C_24  and  C_27 
DOCKED: REMARK    7  A    between atoms: C_31  and  C_34 
DOCKED: REMARK    8  A    between atoms: C_34  and  C_35 
DOCKED: REMARK    9  A    between atoms: C_35  and  C_36 
DOCKED: REMARK   10  A    between atoms: C_36  and  O_38 
DOCKED: USER                              x       y       z     vdW  Elec       q    Type
DOCKED: USER                           _______ _______ _______ _____ _____    ______ ____
DOCKED: ROOT
DOCKED: ATOM      1  C   UNL d   1      43.291  28.417  17.406 -0.28 +0.02    +0.064 A 
DOCKED: ATOM      2  C   UNL d   1      41.121  32.571  16.639 -0.42 +0.01    +0.064 A 
DOCKED: ATOM      3  C   UNL d   1      37.744  30.422  13.981 -0.38 +0.01    +0.064 C 
DOCKED: ATOM      4  C   UNL d   1      39.697  26.078  15.158 -0.35 +0.01    +0.064 A 
DOCKED: ATOM      5  C   UNL d   1      42.975  29.722  17.416 -0.31 +0.02    +0.066 A 
DOCKED: ATOM      6  C   UNL d   1      43.729  30.704  18.065 -0.32 -0.01    -0.021 A 
DOCKED: ATOM      7  C   UNL d   1      43.078  31.902  17.880 -0.36 -0.01    -0.025 A 
DOCKED: ATOM      8  C   UNL d   1      41.971  31.625  17.082 -0.38 +0.01    +0.066 A 
DOCKED: ATOM      9  C   UNL d   1      43.508  33.223  18.479 -0.42 +0.01    +0.051 C 
DOCKED: ATOM     10  C   UNL d   1      39.957  32.345  15.782 -0.40 +0.01    +0.066 A 
DOCKED: ATOM     11  C   UNL d   1      39.204  33.381  15.217 -0.44 -0.00    -0.021 A 
DOCKED: ATOM     12  C   UNL d   1      38.236  32.781  14.433 -0.40 +0.00    +0.000 A 
DOCKED: ATOM     13  C   UNL d   1      38.450  31.382  14.576 -0.36 +0.01    +0.070 A 
DOCKED: ATOM     14  C   UNL d   1      39.416  34.879  15.397 -0.54 +0.01    +0.052 C 
DOCKED: ATOM     15  C   UNL d   1      37.906  28.995  14.127 -0.35 +0.01    +0.066 A 
DOCKED: ATOM     16  C   UNL d   1      37.031  28.042  13.607 -0.42 -0.00    -0.021 A 
DOCKED: ATOM     17  C   UNL d   1      37.567  26.796  13.931 -0.44 +0.00    +0.000 A 
DOCKED: ATOM     18  C   UNL d   1      38.746  27.086  14.632 -0.36 +0.01    +0.070 A 
DOCKED: ATOM     19  C   UNL d   1      35.747  28.402  12.903 -0.61 +0.01    +0.052 C 
DOCKED: ATOM     20  C   UNL d   1      40.813  26.321  15.872 -0.38 +0.02    +0.066 A 
DOCKED: ATOM     21  C   UNL d   1      41.680  25.330  16.325 -0.37 -0.01    -0.025 A 
DOCKED: ATOM     22  C   UNL d   1      42.724  25.980  16.944 -0.32 -0.01    -0.021 A 
DOCKED: ATOM     23  C   UNL d   1      42.446  27.347  16.861 -0.33 +0.02    +0.066 A 
DOCKED: ATOM     24  C   UNL d   1      41.518  23.839  16.178 -0.53 +0.01    +0.051 C 
DOCKED: ATOM     25  N   UNL d   1      41.872  30.272  16.852 -0.21 -0.07    -0.248 N 
DOCKED: ATOM     26  N   UNL d   1      39.496  31.126  15.402 -0.17 -0.06    -0.248 N 
DOCKED: ATOM     27  N   UNL d   1      38.897  28.424  14.807 -0.16 -0.07    -0.248 N 
DOCKED: ATOM     28  N   UNL d   1      41.261  27.548  16.248 -0.26 -0.08    -0.248 N 
DOCKED: ATOM     29 FE   UNL d   1      40.383  29.322  15.827 -0.09 +0.00    +0.000 Fe
DOCKED: ATOM     30  O   UNL d   1      39.927  29.917  17.192 -0.74 +0.00    +0.000 OA
DOCKED: ATOM     31  O   UNL d   1      39.390  28.508  16.735 -0.84 +0.00    +0.000 OA
DOCKED: ENDROOT
DOCKED: BRANCH   6  32
DOCKED: ATOM     32  C   UNL d   1      44.939  30.511  18.942 -0.28 +0.02    +0.052 C 
DOCKED: BRANCH  32  33
DOCKED: ATOM     33  C   UNL d   1      44.669  29.591  20.129 -0.11 +0.09    +0.115 C 
DOCKED: BRANCH  33  34
DOCKED: ATOM     34  C   UNL d   1      45.772  28.584  20.338 -0.17 +0.14    +0.139 C 
DOCKED: ATOM     35  O   UNL d   1      46.485  28.666  21.326 -0.39 -1.20    -0.650 OA
DOCKED: BRANCH  34  36
DOCKED: ATOM     36  O   UNL d   1      46.011  27.605  19.441 +0.07 -0.51    -0.776 OA
DOCKED: ATOM     37  H   UNL d   1      45.829  26.678  19.635 +0.06 +0.11    +0.167 HD
DOCKED: ENDBRANCH  34  36
DOCKED: ENDBRANCH  33  34
DOCKED: ENDBRANCH  32  33
DOCKED: ENDBRANCH   6  32
DOCKED: BRANCH  22  38
DOCKED: ATOM     38  C   UNL d   1      43.888  25.314  17.632 -0.31 +0.02    +0.052 C 
DOCKED: BRANCH  38  39
DOCKED: ATOM     39  C   UNL d   1      43.467  24.562  18.892 -0.32 +0.05    +0.115 C 
DOCKED: BRANCH  39  40
DOCKED: ATOM     40  C   UNL d   1      44.364  24.860  20.068 -0.23 +0.08    +0.139 C 
DOCKED: ATOM     41  O   UNL d   1      45.301  24.119  20.319 -0.32 -0.39    -0.650 OA
DOCKED: BRANCH  40  42
DOCKED: ATOM     42  O   UNL d   1      44.180  25.962  20.821 +0.03 -0.54    -0.776 OA
DOCKED: ATOM     43  H   UNL d   1      44.872  26.627  20.918 +0.05 +0.16    +0.167 HD
DOCKED: ENDBRANCH  40  42
DOCKED: ENDBRANCH  39  40
DOCKED: ENDBRANCH  38  39
DOCKED: ENDBRANCH  22  38
DOCKED: BRANCH  12  44
DOCKED: ATOM     44  C   UNL d   1      37.225  33.589  13.646 -0.50 +0.00    +0.004 C 
DOCKED: ATOM     45  C   UNL d   1      36.533  33.212  12.572 -0.56 +0.00    +0.012 C 
DOCKED: ENDBRANCH  12  44
DOCKED: BRANCH  17  46
DOCKED: ATOM     46  C   UNL d   1      37.046  25.404  13.693 -0.63 +0.00    +0.004 C 
DOCKED: ATOM     47  C   UNL d   1      35.895  24.866  14.116 -0.70 +0.00    +0.012 C 
DOCKED: ENDBRANCH  17  46
DOCKED: TORSDOF 10
DOCKED: TER
DOCKED: ENDMDL
________________________________________________________________________________


	BEGINNING GENETIC ALGORITHM DOCKING 40 of 100
Run: 40 Seed: 230023036 726641489 [ Run 40 of 100 GA/GALS ]
Beginning LAMARCKIAN GENETIC ALGORITHM (LGA), with a maximum of 25000000 energy evaluations.

Final-Value: -19.216


	FINAL GENETIC ALGORITHM DOCKED STATE
	_______________________________________________


Detailed state:  trans 8.874 35.123 -1.042 quatxyzw -0.036913 -0.056963 -0.037511 -0.996988 center 8.287 34.468 -0.670 ntor 10 50.1881 163.8669 -10.1719 -105.0051 -135.2296 36.0889 -20.9605 74.5778 173.8761 167.5065
State:	  8.874  35.123  -1.042  -0.476 -0.735 -0.484 -8.896     50.19  163.87  -10.17 -105.01 -135.23   36.09  -20.96   74.58  173.88  167.51

DOCKED: MODEL       40
DOCKED: USER    Run = 40
DOCKED: USER    DPF = D:/Protein_go_brrr/autodock/final/2DN3/heme_O2/dock.dpf
DOCKED: USER  
DOCKED: USER    Estimated Free Energy of Binding    =  -14.06 kcal/mol  [=(1)+(2)+(3)-(4)]
DOCKED: USER    Estimated Inhibition Constant, Ki   =   49.69 pM (picomolar)  [Temperature = 298.15 K]
DOCKED: USER    
DOCKED: USER    (1) Final Intermolecular Energy     =  -17.04 kcal/mol
DOCKED: USER        vdW + Hbond + desolv Energy     =  -15.26 kcal/mol
DOCKED: USER        Electrostatic Energy            =   -1.78 kcal/mol
DOCKED: USER    (2) Final Total Internal Energy     =   -2.18 kcal/mol
DOCKED: USER    (3) Torsional Free Energy           =   +2.98 kcal/mol
DOCKED: USER    (4) Unbound System's Energy  [=(2)] =   -2.18 kcal/mol
DOCKED: USER    
DOCKED: USER    
DOCKED: USER    NEWDPF move heme_O2_opt.pdbqt
DOCKED: USER    NEWDPF about 8.287000 34.468000 -0.670000
DOCKED: USER    NEWDPF tran0 8.874382 35.122984 -1.042093
DOCKED: USER    NEWDPF quaternion0 -0.036913 -0.056963 -0.037511 -0.996988
DOCKED: USER    NEWDPF axisangle0 -0.475973 -0.734506 -0.483685 -8.895861
DOCKED: USER    NEWDPF quat0 -0.475973 -0.734506 -0.483685 -8.895861
DOCKED: USER    NEWDPF dihe0 50.19 163.87 -10.17 -105.01 -135.23 36.09 -20.96 74.58 173.88 167.51 
DOCKED: USER  keepresnum = 1 
DOCKED: USER  
DOCKED: REMARK  10 active torsions:
DOCKED: REMARK  status: ('A' for Active; 'I' for Inactive)
DOCKED: REMARK    1  A    between atoms: C_6  and  C_10 
DOCKED: REMARK    2  A    between atoms: C_10  and  C_11 
DOCKED: REMARK    3  A    between atoms: C_11  and  C_12 
DOCKED: REMARK    4  A    between atoms: C_12  and  O_14 
DOCKED: REMARK    5  A    between atoms: C_17  and  C_20 
DOCKED: REMARK    6  A    between atoms: C_24  and  C_27 
DOCKED: REMARK    7  A    between atoms: C_31  and  C_34 
DOCKED: REMARK    8  A    between atoms: C_34  and  C_35 
DOCKED: REMARK    9  A    between atoms: C_35  and  C_36 
DOCKED: REMARK   10  A    between atoms: C_36  and  O_38 
DOCKED: USER                              x       y       z     vdW  Elec       q    Type
DOCKED: USER                           _______ _______ _______ _____ _____    ______ ____
DOCKED: ROOT
DOCKED: ATOM      1  C   UNL d   1       7.158  35.791  -2.094 -0.24 +0.01    +0.064 A 
DOCKED: ATOM      2  C   UNL d   1       7.696  33.285   1.905 -0.39 +0.01    +0.064 A 
DOCKED: ATOM      3  C   UNL d   1      12.479  33.439   1.467 -0.42 +0.00    +0.064 C 
DOCKED: ATOM      4  C   UNL d   1      11.949  36.425  -2.389 -0.41 +0.00    +0.064 A 
DOCKED: ATOM      5  C   UNL d   1       6.914  35.099  -0.970 -0.30 +0.01    +0.066 A 
DOCKED: ATOM      6  C   UNL d   1       5.633  34.805  -0.493 -0.29 -0.00    -0.021 A 
DOCKED: ATOM      7  C   UNL d   1       5.787  34.117   0.687 -0.34 -0.00    -0.025 A 
DOCKED: ATOM      8  C   UNL d   1       7.159  33.967   0.874 -0.35 +0.01    +0.066 A 
DOCKED: ATOM      9  C   UNL d   1       4.653  33.667   1.582 -0.37 +0.01    +0.051 C 
DOCKED: ATOM     10  C   UNL d   1       9.125  33.075   2.142 -0.37 +0.01    +0.066 A 
DOCKED: ATOM     11  C   UNL d   1       9.623  32.222   3.133 -0.45 -0.00    -0.021 A 
DOCKED: ATOM     12  C   UNL d   1      11.000  32.239   3.011 -0.44 +0.00    +0.000 A 
DOCKED: ATOM     13  C   UNL d   1      11.270  33.130   1.936 -0.36 +0.00    +0.070 A 
DOCKED: ATOM     14  C   UNL d   1       8.818  31.405   4.137 -0.58 +0.00    +0.052 C 
DOCKED: ATOM     15  C   UNL d   1      12.797  34.362   0.404 -0.35 +0.01    +0.066 A 
DOCKED: ATOM     16  C   UNL d   1      14.089  34.767   0.069 -0.44 -0.00    -0.021 A 
DOCKED: ATOM     17  C   UNL d   1      13.962  35.620  -1.028 -0.43 +0.00    +0.000 A 
DOCKED: ATOM     18  C   UNL d   1      12.585  35.670  -1.284 -0.37 +0.01    +0.070 A 
DOCKED: ATOM     19  C   UNL d   1      15.310  34.353   0.850 -0.60 +0.00    +0.052 C 
DOCKED: ATOM     20  C   UNL d   1      10.629  36.530  -2.637 -0.39 +0.00    +0.066 A 
DOCKED: ATOM     21  C   UNL d   1      10.089  37.241  -3.705 -0.37 -0.00    -0.025 A 
DOCKED: ATOM     22  C   UNL d   1       8.727  37.049  -3.653 -0.32 -0.00    -0.021 A 
DOCKED: ATOM     23  C   UNL d   1       8.483  36.239  -2.539 -0.34 +0.01    +0.066 A 
DOCKED: ATOM     24  C   UNL d   1      10.835  38.065  -4.722 -0.44 -0.00    +0.051 C 
DOCKED: ATOM     25  N   UNL d   1       7.853  34.628  -0.112 -0.17 -0.05    -0.248 N 
DOCKED: ATOM     26  N   UNL d   1      10.124  33.637   1.416 -0.21 -0.03    -0.248 N 
DOCKED: ATOM     27  N   UNL d   1      11.888  34.961  -0.359 -0.14 -0.03    -0.248 N 
DOCKED: ATOM     28  N   UNL d   1       9.637  35.963  -1.899 -0.24 -0.04    -0.248 N 
DOCKED: ATOM     29 FE   UNL d   1       9.882  34.809  -0.254 -0.07 +0.00    +0.000 Fe
DOCKED: ATOM     30  O   UNL d   1       9.261  35.605   0.931 -0.65 +0.00    +0.000 OA
DOCKED: ATOM     31  O   UNL d   1      10.430  36.243   0.090 -0.59 +0.00    +0.000 OA
DOCKED: ENDROOT
DOCKED: BRANCH   6  32
DOCKED: ATOM     32  C   UNL d   1       4.312  35.271  -1.050 -0.24 +0.02    +0.052 C 
DOCKED: BRANCH  32  33
DOCKED: ATOM     33  C   UNL d   1       3.700  36.414  -0.246 -0.05 +0.07    +0.115 C 
DOCKED: BRANCH  33  34
DOCKED: ATOM     34  C   UNL d   1       2.729  37.233  -1.059 -0.04 +0.16    +0.139 C 
DOCKED: ATOM     35  O   UNL d   1       1.629  36.775  -1.327 -0.34 -0.79    -0.650 OA
DOCKED: BRANCH  34  36
DOCKED: ATOM     36  O   UNL d   1       3.057  38.456  -1.525 -0.16 -1.00    -0.776 OA
DOCKED: ATOM     37  H   UNL d   1       3.875  38.615  -2.011 +0.04 +0.12    +0.167 HD
DOCKED: ENDBRANCH  34  36
DOCKED: ENDBRANCH  33  34
DOCKED: ENDBRANCH  32  33
DOCKED: ENDBRANCH   6  32
DOCKED: BRANCH  22  38
DOCKED: ATOM     38  C   UNL d   1       7.716  37.666  -4.585 -0.28 +0.00    +0.052 C 
DOCKED: BRANCH  38  39
DOCKED: ATOM     39  C   UNL d   1       7.197  39.008  -4.075 -0.25 +0.01    +0.115 C 
DOCKED: BRANCH  39  40
DOCKED: ATOM     40  C   UNL d   1       5.784  38.919  -3.553 -0.14 +0.03    +0.139 C 
DOCKED: ATOM     41  O   UNL d   1       5.232  39.919  -3.123 -0.00 -0.18    -0.650 OA
DOCKED: BRANCH  40  42
DOCKED: ATOM     42  O   UNL d   1       5.098  37.760  -3.599 +0.06 -0.19    -0.776 OA
DOCKED: ATOM     43  H   UNL d   1       4.278  37.639  -3.105 +0.04 +0.06    +0.167 HD
DOCKED: ENDBRANCH  40  42
DOCKED: ENDBRANCH  39  40
DOCKED: ENDBRANCH  38  39
DOCKED: ENDBRANCH  22  38
DOCKED: BRANCH  12  44
DOCKED: ATOM     44  C   UNL d   1      11.897  31.423   3.918 -0.56 +0.00    +0.004 C 
DOCKED: ATOM     45  C   UNL d   1      13.188  31.137   3.751 -0.66 +0.00    +0.012 C 
DOCKED: ENDBRANCH  12  44
DOCKED: BRANCH  17  46
DOCKED: ATOM     46  C   UNL d   1      14.993  36.409  -1.790 -0.58 +0.00    +0.004 C 
DOCKED: ATOM     47  C   UNL d   1      15.150  37.738  -1.839 -0.65 +0.00    +0.012 C 
DOCKED: ENDBRANCH  17  46
DOCKED: TORSDOF 10
DOCKED: TER
DOCKED: ENDMDL
________________________________________________________________________________


	BEGINNING GENETIC ALGORITHM DOCKING 41 of 100
Run: 41 Seed: 1340852467 695617048 [ Run 41 of 100 GA/GALS ]
Beginning LAMARCKIAN GENETIC ALGORITHM (LGA), with a maximum of 25000000 energy evaluations.

Final-Value: -20.723


	FINAL GENETIC ALGORITHM DOCKED STATE
	_______________________________________________


Detailed state:  trans 41.342 28.552 16.087 quatxyzw -0.296552 0.381015 0.873915 -0.056186 center 8.287 34.468 -0.670 ntor 10 13.3564 -128.0671 -14.8442 -95.1888 121.7819 180.0000 42.4648 38.9058 -114.5777 173.4018
State:	 41.342  28.552  16.087  -0.297  0.382  0.875 -173.558     13.36 -128.07  -14.84  -95.19  121.78  180.00   42.46   38.91 -114.58  173.40

DOCKED: MODEL       41
DOCKED: USER    Run = 41
DOCKED: USER    DPF = D:/Protein_go_brrr/autodock/final/2DN3/heme_O2/dock.dpf
DOCKED: USER  
DOCKED: USER    Estimated Free Energy of Binding    =  -16.27 kcal/mol  [=(1)+(2)+(3)-(4)]
DOCKED: USER    Estimated Inhibition Constant, Ki   =    1.18 pM (picomolar)  [Temperature = 298.15 K]
DOCKED: USER    
DOCKED: USER    (1) Final Intermolecular Energy     =  -19.25 kcal/mol
DOCKED: USER        vdW + Hbond + desolv Energy     =  -16.43 kcal/mol
DOCKED: USER        Electrostatic Energy            =   -2.82 kcal/mol
DOCKED: USER    (2) Final Total Internal Energy     =   -1.47 kcal/mol
DOCKED: USER    (3) Torsional Free Energy           =   +2.98 kcal/mol
DOCKED: USER    (4) Unbound System's Energy  [=(2)] =   -1.47 kcal/mol
DOCKED: USER    
DOCKED: USER    
DOCKED: USER    NEWDPF move heme_O2_opt.pdbqt
DOCKED: USER    NEWDPF about 8.287000 34.468000 -0.670000
DOCKED: USER    NEWDPF tran0 41.342056 28.552051 16.086774
DOCKED: USER    NEWDPF quaternion0 -0.296552 0.381015 0.873915 -0.056186
DOCKED: USER    NEWDPF axisangle0 -0.297021 0.381617 0.875298 -173.558166
DOCKED: USER    NEWDPF quat0 -0.297021 0.381617 0.875298 -173.558166
DOCKED: USER    NEWDPF dihe0 13.36 -128.07 -14.84 -95.19 121.78 180.00 42.46 38.91 -114.58 173.40 
DOCKED: USER  keepresnum = 1 
DOCKED: USER  
DOCKED: REMARK  10 active torsions:
DOCKED: REMARK  status: ('A' for Active; 'I' for Inactive)
DOCKED: REMARK    1  A    between atoms: C_6  and  C_10 
DOCKED: REMARK    2  A    between atoms: C_10  and  C_11 
DOCKED: REMARK    3  A    between atoms: C_11  and  C_12 
DOCKED: REMARK    4  A    between atoms: C_12  and  O_14 
DOCKED: REMARK    5  A    between atoms: C_17  and  C_20 
DOCKED: REMARK    6  A    between atoms: C_24  and  C_27 
DOCKED: REMARK    7  A    between atoms: C_31  and  C_34 
DOCKED: REMARK    8  A    between atoms: C_34  and  C_35 
DOCKED: REMARK    9  A    between atoms: C_35  and  C_36 
DOCKED: REMARK   10  A    between atoms: C_36  and  O_38 
DOCKED: USER                              x       y       z     vdW  Elec       q    Type
DOCKED: USER                           _______ _______ _______ _____ _____    ______ ____
DOCKED: ROOT
DOCKED: ATOM      1  C   UNL d   1      43.057  27.808  17.090 -0.30 +0.02    +0.064 A 
DOCKED: ATOM      2  C   UNL d   1      41.217  32.168  16.684 -0.40 +0.01    +0.064 A 
DOCKED: ATOM      3  C   UNL d   1      37.663  30.510  13.906 -0.38 +0.01    +0.064 C 
DOCKED: ATOM      4  C   UNL d   1      39.274  25.947  14.709 -0.41 +0.01    +0.064 A 
DOCKED: ATOM      5  C   UNL d   1      42.845  29.129  17.208 -0.28 +0.02    +0.066 A 
DOCKED: ATOM      6  C   UNL d   1      43.678  29.994  17.923 -0.31 -0.01    -0.021 A 
DOCKED: ATOM      7  C   UNL d   1      43.123  31.250  17.842 -0.36 -0.01    -0.025 A 
DOCKED: ATOM      8  C   UNL d   1      41.992  31.125  17.040 -0.36 +0.02    +0.066 A 
DOCKED: ATOM      9  C   UNL d   1      43.660  32.481  18.539 -0.40 +0.01    +0.051 C 
DOCKED: ATOM     10  C   UNL d   1      40.033  32.103  15.827 -0.38 +0.01    +0.066 A 
DOCKED: ATOM     11  C   UNL d   1      39.361  33.237  15.356 -0.44 -0.00    -0.021 A 
DOCKED: ATOM     12  C   UNL d   1      38.343  32.780  14.538 -0.41 +0.00    +0.000 A 
DOCKED: ATOM     13  C   UNL d   1      38.447  31.362  14.567 -0.36 +0.01    +0.070 A 
DOCKED: ATOM     14  C   UNL d   1      39.692  34.695  15.651 -0.49 +0.01    +0.052 C 
DOCKED: ATOM     15  C   UNL d   1      37.713  29.068  13.937 -0.36 +0.01    +0.066 A 
DOCKED: ATOM     16  C   UNL d   1      36.762  28.232  13.354 -0.46 -0.00    -0.021 A 
DOCKED: ATOM     17  C   UNL d   1      37.200  26.925  13.571 -0.45 +0.00    +0.000 A 
DOCKED: ATOM     18  C   UNL d   1      38.403  27.065  14.277 -0.37 +0.01    +0.070 A 
DOCKED: ATOM     19  C   UNL d   1      35.506  28.747  12.697 -0.62 +0.01    +0.052 C 
DOCKED: ATOM     20  C   UNL d   1      40.411  26.043  15.425 -0.37 +0.02    +0.066 A 
DOCKED: ATOM     21  C   UNL d   1      41.200  24.954  15.787 -0.43 -0.01    -0.025 A 
DOCKED: ATOM     22  C   UNL d   1      42.296  25.468  16.443 -0.23 -0.01    -0.021 A 
DOCKED: ATOM     23  C   UNL d   1      42.126  26.856  16.473 -0.32 +0.02    +0.066 A 
DOCKED: ATOM     24  C   UNL d   1      40.920  23.498  15.524 -0.53 +0.01    +0.051 C 
DOCKED: ATOM     25  N   UNL d   1      41.786  29.808  16.703 -0.12 -0.09    -0.248 N 
DOCKED: ATOM     26  N   UNL d   1      39.475  30.958  15.357 -0.11 -0.06    -0.248 N 
DOCKED: ATOM     27  N   UNL d   1      38.660  28.369  14.556 -0.21 -0.06    -0.248 N 
DOCKED: ATOM     28  N   UNL d   1      40.957  27.197  15.893 -0.27 -0.07    -0.248 N 
DOCKED: ATOM     29 FE   UNL d   1      40.219  29.063  15.626 -0.07 +0.00    +0.000 Fe
DOCKED: ATOM     30  O   UNL d   1      39.820  29.579  17.039 -0.89 +0.00    +0.000 OA
DOCKED: ATOM     31  O   UNL d   1      39.170  28.258  16.478 -0.65 +0.00    +0.000 OA
DOCKED: ENDROOT
DOCKED: BRANCH   6  32
DOCKED: ATOM     32  C   UNL d   1      44.875  29.637  18.766 -0.27 +0.03    +0.052 C 
DOCKED: BRANCH  32  33
DOCKED: ATOM     33  C   UNL d   1      44.755  28.259  19.410 -0.15 +0.07    +0.115 C 
DOCKED: BRANCH  33  34
DOCKED: ATOM     34  C   UNL d   1      45.266  28.241  20.829 -0.09 +0.18    +0.139 C 
DOCKED: ATOM     35  O   UNL d   1      46.151  29.013  21.162 -0.29 -1.16    -0.650 OA
DOCKED: BRANCH  34  36
DOCKED: ATOM     36  O   UNL d   1      44.786  27.367  21.739 -0.21 -1.41    -0.776 OA
DOCKED: ATOM     37  H   UNL d   1      44.251  26.607  21.484 +0.05 +0.18    +0.167 HD
DOCKED: ENDBRANCH  34  36
DOCKED: ENDBRANCH  33  34
DOCKED: ENDBRANCH  32  33
DOCKED: ENDBRANCH   6  32
DOCKED: BRANCH  22  38
DOCKED: ATOM     38  C   UNL d   1      43.408  24.661  17.060 -0.31 +0.02    +0.052 C 
DOCKED: BRANCH  38  39
DOCKED: ATOM     39  C   UNL d   1      43.071  24.191  18.474 -0.36 +0.04    +0.115 C 
DOCKED: BRANCH  39  40
DOCKED: ATOM     40  C   UNL d   1      44.265  24.228  19.394 -0.15 +0.08    +0.139 C 
DOCKED: ATOM     41  O   UNL d   1      45.374  23.964  18.959 -0.02 -0.40    -0.650 OA
DOCKED: BRANCH  40  42
DOCKED: ATOM     42  O   UNL d   1      44.139  24.600  20.683 -0.54 -0.47    -0.776 OA
DOCKED: ATOM     43  H   UNL d   1      44.671  25.313  21.057 +0.06 +0.11    +0.167 HD
DOCKED: ENDBRANCH  40  42
DOCKED: ENDBRANCH  39  40
DOCKED: ENDBRANCH  38  39
DOCKED: ENDBRANCH  22  38
DOCKED: BRANCH  12  44
DOCKED: ATOM     44  C   UNL d   1      37.394  33.725  13.832 -0.49 +0.00    +0.004 C 
DOCKED: ATOM     45  C   UNL d   1      36.622  33.472  12.775 -0.55 +0.00    +0.012 C 
DOCKED: ENDBRANCH  12  44
DOCKED: BRANCH  17  46
DOCKED: ATOM     46  C   UNL d   1      36.569  25.602  13.229 -0.65 +0.00    +0.004 C 
DOCKED: ATOM     47  C   UNL d   1      35.913  24.763  14.040 -0.70 +0.00    +0.012 C 
DOCKED: ENDBRANCH  17  46
DOCKED: TORSDOF 10
DOCKED: TER
DOCKED: ENDMDL
________________________________________________________________________________


	BEGINNING GENETIC ALGORITHM DOCKING 42 of 100
Run: 42 Seed: 1091475669 1981338726 [ Run 42 of 100 GA/GALS ]
Beginning LAMARCKIAN GENETIC ALGORITHM (LGA), with a maximum of 25000000 energy evaluations.

Final-Value: -18.095


	FINAL GENETIC ALGORITHM DOCKED STATE
	_______________________________________________


Detailed state:  trans 9.050 34.925 -0.631 quatxyzw -0.011200 0.012490 -0.040778 -0.999027 center 8.287 34.468 -0.670 ntor 10 84.2464 -124.9918 54.2777 -85.9304 2.8391 23.8761 18.5685 -51.8399 4.6863 24.7624
State:	  9.050  34.925  -0.631  -0.254  0.283 -0.925 -5.054     84.25 -124.99   54.28  -85.93    2.84   23.88   18.57  -51.84    4.69   24.76

DOCKED: MODEL       42
DOCKED: USER    Run = 42
DOCKED: USER    DPF = D:/Protein_go_brrr/autodock/final/2DN3/heme_O2/dock.dpf
DOCKED: USER  
DOCKED: USER    Estimated Free Energy of Binding    =  -13.00 kcal/mol  [=(1)+(2)+(3)-(4)]
DOCKED: USER    Estimated Inhibition Constant, Ki   =  297.01 pM (picomolar)  [Temperature = 298.15 K]
DOCKED: USER    
DOCKED: USER    (1) Final Intermolecular Energy     =  -15.98 kcal/mol
DOCKED: USER        vdW + Hbond + desolv Energy     =  -15.16 kcal/mol
DOCKED: USER        Electrostatic Energy            =   -0.82 kcal/mol
DOCKED: USER    (2) Final Total Internal Energy     =   -2.12 kcal/mol
DOCKED: USER    (3) Torsional Free Energy           =   +2.98 kcal/mol
DOCKED: USER    (4) Unbound System's Energy  [=(2)] =   -2.12 kcal/mol
DOCKED: USER    
DOCKED: USER    
DOCKED: USER    NEWDPF move heme_O2_opt.pdbqt
DOCKED: USER    NEWDPF about 8.287000 34.468000 -0.670000
DOCKED: USER    NEWDPF tran0 9.050446 34.924713 -0.631270
DOCKED: USER    NEWDPF quaternion0 -0.011200 0.012490 -0.040778 -0.999027
DOCKED: USER    NEWDPF axisangle0 -0.254010 0.283249 -0.924797 -5.054476
DOCKED: USER    NEWDPF quat0 -0.254010 0.283249 -0.924797 -5.054476
DOCKED: USER    NEWDPF dihe0 84.25 -124.99 54.28 -85.93 2.84 23.88 18.57 -51.84 4.69 24.76 
DOCKED: USER  keepresnum = 1 
DOCKED: USER  
DOCKED: REMARK  10 active torsions:
DOCKED: REMARK  status: ('A' for Active; 'I' for Inactive)
DOCKED: REMARK    1  A    between atoms: C_6  and  C_10 
DOCKED: REMARK    2  A    between atoms: C_10  and  C_11 
DOCKED: REMARK    3  A    between atoms: C_11  and  C_12 
DOCKED: REMARK    4  A    between atoms: C_12  and  O_14 
DOCKED: REMARK    5  A    between atoms: C_17  and  C_20 
DOCKED: REMARK    6  A    between atoms: C_24  and  C_27 
DOCKED: REMARK    7  A    between atoms: C_31  and  C_34 
DOCKED: REMARK    8  A    between atoms: C_34  and  C_35 
DOCKED: REMARK    9  A    between atoms: C_35  and  C_36 
DOCKED: REMARK   10  A    between atoms: C_36  and  O_38 
DOCKED: USER                              x       y       z     vdW  Elec       q    Type
DOCKED: USER                           _______ _______ _______ _____ _____    ______ ____
DOCKED: ROOT
DOCKED: ATOM      1  C   UNL d   1       7.215  35.660  -1.400 -0.16 +0.02    +0.064 A 
DOCKED: ATOM      2  C   UNL d   1       8.261  32.926   2.341 -0.40 +0.01    +0.064 A 
DOCKED: ATOM      3  C   UNL d   1      12.942  33.083   1.263 -0.48 +0.00    +0.064 C 
DOCKED: ATOM      4  C   UNL d   1      11.929  36.288  -2.310 -0.41 +0.00    +0.064 A 
DOCKED: ATOM      5  C   UNL d   1       7.118  34.905  -0.294 -0.30 +0.01    +0.066 A 
DOCKED: ATOM      6  C   UNL d   1       5.910  34.591   0.336 -0.34 -0.00    -0.021 A 
DOCKED: ATOM      7  C   UNL d   1       6.215  33.836   1.444 -0.40 -0.00    -0.025 A 
DOCKED: ATOM      8  C   UNL d   1       7.597  33.669   1.433 -0.37 +0.01    +0.066 A 
DOCKED: ATOM      9  C   UNL d   1       5.207  33.340   2.458 -0.46 +0.00    +0.051 C 
DOCKED: ATOM     10  C   UNL d   1       9.706  32.696   2.368 -0.39 +0.00    +0.066 A 
DOCKED: ATOM     11  C   UNL d   1      10.323  31.786   3.233 -0.46 -0.00    -0.021 A 
DOCKED: ATOM     12  C   UNL d   1      11.671  31.803   2.926 -0.43 +0.00    +0.000 A 
DOCKED: ATOM     13  C   UNL d   1      11.804  32.753   1.875 -0.38 +0.00    +0.070 A 
DOCKED: ATOM     14  C   UNL d   1       9.652  30.916   4.290 -0.62 +0.00    +0.052 C 
DOCKED: ATOM     15  C   UNL d   1      13.123  34.064   0.221 -0.38 +0.00    +0.066 A 
DOCKED: ATOM     16  C   UNL d   1      14.362  34.481  -0.264 -0.47 -0.00    -0.021 A 
DOCKED: ATOM     17  C   UNL d   1      14.099  35.396  -1.283 -0.44 +0.00    +0.000 A 
DOCKED: ATOM     18  C   UNL d   1      12.700  35.468  -1.346 -0.36 +0.01    +0.070 A 
DOCKED: ATOM     19  C   UNL d   1      15.673  34.017   0.319 -0.48 +0.01    +0.052 C 
DOCKED: ATOM     20  C   UNL d   1      10.589  36.412  -2.369 -0.38 +0.01    +0.066 A 
DOCKED: ATOM     21  C   UNL d   1       9.918  37.187  -3.312 -0.39 -0.00    -0.025 A 
DOCKED: ATOM     22  C   UNL d   1       8.573  36.998  -3.085 -0.35 -0.00    -0.021 A 
DOCKED: ATOM     23  C   UNL d   1       8.473  36.127  -1.996 -0.25 +0.01    +0.066 A 
DOCKED: ATOM     24  C   UNL d   1      10.530  38.064  -4.373 -0.51 -0.00    +0.051 C 
DOCKED: ATOM     25  N   UNL d   1       8.159  34.382   0.400 -0.16 -0.05    -0.248 N 
DOCKED: ATOM     26  N   UNL d   1      10.604  33.295   1.546 -0.23 -0.02    -0.248 N 
DOCKED: ATOM     27  N   UNL d   1      12.126  34.710  -0.376 -0.16 -0.03    -0.248 N 
DOCKED: ATOM     28  N   UNL d   1       9.700  35.809  -1.535 -0.20 -0.05    -0.248 N 
DOCKED: ATOM     29 FE   UNL d   1      10.152  34.562  -0.007 -0.08 +0.00    +0.000 Fe
DOCKED: ATOM     30  O   UNL d   1       9.708  35.291   1.295 -0.56 +0.00    +0.000 OA
DOCKED: ATOM     31  O   UNL d   1      10.759  35.970   0.339 -0.58 +0.00    +0.000 OA
DOCKED: ENDROOT
DOCKED: BRANCH   6  32
DOCKED: ATOM     32  C   UNL d   1       4.532  35.094  -0.009 -0.31 +0.01    +0.052 C 
DOCKED: BRANCH  32  33
DOCKED: ATOM     33  C   UNL d   1       3.826  34.225  -1.045 -0.18 +0.03    +0.115 C 
DOCKED: BRANCH  33  34
DOCKED: ATOM     34  C   UNL d   1       2.645  34.922  -1.672 -0.11 +0.05    +0.139 C 
DOCKED: ATOM     35  O   UNL d   1       1.678  34.268  -2.030 +0.03 -0.19    -0.650 OA
DOCKED: BRANCH  34  36
DOCKED: ATOM     36  O   UNL d   1       2.641  36.256  -1.874 +0.02 -0.47    -0.776 OA
DOCKED: ATOM     37  H   UNL d   1       3.038  36.655  -2.657 +0.04 +0.08    +0.167 HD
DOCKED: ENDBRANCH  34  36
DOCKED: ENDBRANCH  33  34
DOCKED: ENDBRANCH  32  33
DOCKED: ENDBRANCH   6  32
DOCKED: BRANCH  22  38
DOCKED: ATOM     38  C   UNL d   1       7.453  37.672  -3.834 -0.29 +0.00    +0.052 C 
DOCKED: BRANCH  38  39
DOCKED: ATOM     39  C   UNL d   1       6.446  36.672  -4.398 -0.22 +0.01    +0.115 C 
DOCKED: BRANCH  39  40
DOCKED: ATOM     40  C   UNL d   1       5.029  36.992  -3.994 -0.13 +0.03    +0.139 C 
DOCKED: ATOM     41  O   UNL d   1       4.099  36.414  -4.534 +0.01 -0.14    -0.650 OA
DOCKED: BRANCH  40  42
DOCKED: ATOM     42  O   UNL d   1       4.768  37.871  -3.006 +0.06 -0.26    -0.776 OA
DOCKED: ATOM     43  H   UNL d   1       4.256  37.619  -2.229 +0.05 +0.08    +0.167 HD
DOCKED: ENDBRANCH  40  42
DOCKED: ENDBRANCH  39  40
DOCKED: ENDBRANCH  38  39
DOCKED: ENDBRANCH  22  38
DOCKED: BRANCH  12  44
DOCKED: ATOM     44  C   UNL d   1      12.673  30.932   3.654 -0.61 +0.00    +0.004 C 
DOCKED: ATOM     45  C   UNL d   1      13.829  31.299   4.206 -0.70 +0.00    +0.012 C 
DOCKED: ENDBRANCH  12  44
DOCKED: BRANCH  17  46
DOCKED: ATOM     46  C   UNL d   1      15.026  36.223  -2.133 -0.56 +0.00    +0.004 C 
DOCKED: ATOM     47  C   UNL d   1      15.457  37.472  -1.916 -0.66 +0.00    +0.012 C 
DOCKED: ENDBRANCH  17  46
DOCKED: TORSDOF 10
DOCKED: TER
DOCKED: ENDMDL
________________________________________________________________________________


	BEGINNING GENETIC ALGORITHM DOCKING 43 of 100
Run: 43 Seed: 1038464963 475382527 [ Run 43 of 100 GA/GALS ]
Beginning LAMARCKIAN GENETIC ALGORITHM (LGA), with a maximum of 25000000 energy evaluations.

Final-Value: -11.783


	FINAL GENETIC ALGORITHM DOCKED STATE
	_______________________________________________


Detailed state:  trans 27.038 19.290 26.053 quatxyzw 0.329084 0.424898 0.790620 0.293402 center 8.287 34.468 -0.670 ntor 10 4.5854 -52.4506 121.8137 -105.0173 -175.1598 -11.4973 -124.0184 -36.9728 -45.9778 -5.0287
State:	 27.038  19.290  26.053   0.344  0.444  0.827 145.877      4.59  -52.45  121.81 -105.02 -175.16  -11.50 -124.02  -36.97  -45.98   -5.03

DOCKED: MODEL       43
DOCKED: USER    Run = 43
DOCKED: USER    DPF = D:/Protein_go_brrr/autodock/final/2DN3/heme_O2/dock.dpf
DOCKED: USER  
DOCKED: USER    Estimated Free Energy of Binding    =   -7.30 kcal/mol  [=(1)+(2)+(3)-(4)]
DOCKED: USER    Estimated Inhibition Constant, Ki   =    4.48 uM (micromolar)  [Temperature = 298.15 K]
DOCKED: USER    
DOCKED: USER    (1) Final Intermolecular Energy     =  -10.28 kcal/mol
DOCKED: USER        vdW + Hbond + desolv Energy     =   -7.58 kcal/mol
DOCKED: USER        Electrostatic Energy            =   -2.70 kcal/mol
DOCKED: USER    (2) Final Total Internal Energy     =   -1.50 kcal/mol
DOCKED: USER    (3) Torsional Free Energy           =   +2.98 kcal/mol
DOCKED: USER    (4) Unbound System's Energy  [=(2)] =   -1.50 kcal/mol
DOCKED: USER    
DOCKED: USER    
DOCKED: USER    NEWDPF move heme_O2_opt.pdbqt
DOCKED: USER    NEWDPF about 8.287000 34.468000 -0.670000
DOCKED: USER    NEWDPF tran0 27.038003 19.289953 26.053290
DOCKED: USER    NEWDPF quaternion0 0.329084 0.424898 0.790620 0.293402
DOCKED: USER    NEWDPF axisangle0 0.344234 0.444459 0.827018 145.876559
DOCKED: USER    NEWDPF quat0 0.344234 0.444459 0.827018 145.876559
DOCKED: USER    NEWDPF dihe0 4.59 -52.45 121.81 -105.02 -175.16 -11.50 -124.02 -36.97 -45.98 -5.03 
DOCKED: USER  keepresnum = 1 
DOCKED: USER  
DOCKED: REMARK  10 active torsions:
DOCKED: REMARK  status: ('A' for Active; 'I' for Inactive)
DOCKED: REMARK    1  A    between atoms: C_6  and  C_10 
DOCKED: REMARK    2  A    between atoms: C_10  and  C_11 
DOCKED: REMARK    3  A    between atoms: C_11  and  C_12 
DOCKED: REMARK    4  A    between atoms: C_12  and  O_14 
DOCKED: REMARK    5  A    between atoms: C_17  and  C_20 
DOCKED: REMARK    6  A    between atoms: C_24  and  C_27 
DOCKED: REMARK    7  A    between atoms: C_31  and  C_34 
DOCKED: REMARK    8  A    between atoms: C_34  and  C_35 
DOCKED: REMARK    9  A    between atoms: C_35  and  C_36 
DOCKED: REMARK   10  A    between atoms: C_36  and  O_38 
DOCKED: USER                              x       y       z     vdW  Elec       q    Type
DOCKED: USER                           _______ _______ _______ _____ _____    ______ ____
DOCKED: ROOT
DOCKED: ATOM      1  C   UNL d   1      28.412  18.662  24.564 -0.20 +0.01    +0.064 A 
DOCKED: ATOM      2  C   UNL d   1      26.671  22.924  25.729 -0.27 -0.05    +0.064 A 
DOCKED: ATOM      3  C   UNL d   1      23.971  20.977  29.195 -0.09 -0.00    +0.064 C 
DOCKED: ATOM      4  C   UNL d   1      26.115  16.652  28.322 -0.01 -0.00    +0.064 A 
DOCKED: ATOM      5  C   UNL d   1      28.160  19.980  24.599 -0.28 -0.00    +0.066 A 
DOCKED: ATOM      6  C   UNL d   1      28.732  20.910  23.727 -0.38 +0.00    -0.021 A 
DOCKED: ATOM      7  C   UNL d   1      28.262  22.150  24.091 -0.34 +0.01    -0.025 A 
DOCKED: ATOM      8  C   UNL d   1      27.378  21.938  25.145 -0.30 -0.03    +0.066 A 
DOCKED: ATOM      9  C   UNL d   1      28.686  23.457  23.456 -0.23 -0.02    +0.051 C 
DOCKED: ATOM     10  C   UNL d   1      25.712  22.760  26.822 -0.35 -0.03    +0.066 A 
DOCKED: ATOM     11  C   UNL d   1      24.884  23.791  27.281 -0.40 +0.01    -0.021 A 
DOCKED: ATOM     12  C   UNL d   1      24.085  23.245  28.268 -0.26 -0.00    +0.000 A 
DOCKED: ATOM     13  C   UNL d   1      24.489  21.884  28.367 -0.15 -0.01    +0.070 A 
DOCKED: ATOM     14  C   UNL d   1      24.838  25.230  26.779 -0.38 -0.05    +0.052 C 
DOCKED: ATOM     15  C   UNL d   1      24.375  19.600  29.350 -0.03 -0.00    +0.066 A 
DOCKED: ATOM     16  C   UNL d   1      23.906  18.747  30.348 -0.01 +0.00    -0.021 A 
DOCKED: ATOM     17  C   UNL d   1      24.505  17.507  30.120 -0.01 -0.00    +0.000 A 
DOCKED: ATOM     18  C   UNL d   1      25.302  17.700  28.983 -0.02 -0.00    +0.070 A 
DOCKED: ATOM     19  C   UNL d   1      22.983  19.199  31.451 -0.01 -0.00    +0.052 C 
DOCKED: ATOM     20  C   UNL d   1      26.924  16.813  27.257 -0.03 +0.00    +0.066 A 
DOCKED: ATOM     21  C   UNL d   1      27.651  15.783  26.667 -0.01 -0.00    -0.025 A 
DOCKED: ATOM     22  C   UNL d   1      28.291  16.332  25.578 -0.04 -0.00    -0.021 A 
DOCKED: ATOM     23  C   UNL d   1      27.943  17.686  25.555 -0.09 +0.01    +0.066 A 
DOCKED: ATOM     24  C   UNL d   1      27.735  14.349  27.122 -0.00 -0.00    +0.051 C 
DOCKED: ATOM     25  N   UNL d   1      27.365  20.609  25.500 -0.20 +0.03    -0.248 N 
DOCKED: ATOM     26  N   UNL d   1      25.482  21.599  27.487 -0.15 +0.04    -0.248 N 
DOCKED: ATOM     27  N   UNL d   1      25.270  18.995  28.575 -0.02 +0.01    -0.248 N 
DOCKED: ATOM     28  N   UNL d   1      27.148  17.983  26.603 -0.05 -0.01    -0.248 N 
DOCKED: ATOM     29 FE   UNL d   1      26.320  19.777  27.044 -0.03 -0.00    +0.000 Fe
DOCKED: ATOM     30  O   UNL d   1      27.490  20.696  27.501 -0.63 +0.00    +0.000 OA
DOCKED: ATOM     31  O   UNL d   1      27.206  19.352  28.272 -0.36 +0.00    +0.000 OA
DOCKED: ENDROOT
DOCKED: BRANCH   6  32
DOCKED: ATOM     32  C   UNL d   1      29.787  20.665  22.679 -0.50 +0.01    +0.052 C 
DOCKED: BRANCH  32  33
DOCKED: ATOM     33  C   UNL d   1      29.609  19.331  21.960 -0.18 +0.08    +0.115 C 
DOCKED: BRANCH  33  34
DOCKED: ATOM     34  C   UNL d   1      28.227  19.171  21.378 -0.16 +0.15    +0.139 C 
DOCKED: ATOM     35  O   UNL d   1      27.636  20.149  20.948 -0.09 -0.33    -0.650 OA
DOCKED: BRANCH  34  36
DOCKED: ATOM     36  O   UNL d   1      27.611  17.971  21.345 -0.39 -1.41    -0.776 OA
DOCKED: ATOM     37  H   UNL d   1      27.999  17.187  21.751 +0.04 +0.30    +0.167 HD
DOCKED: ENDBRANCH  34  36
DOCKED: ENDBRANCH  33  34
DOCKED: ENDBRANCH  32  33
DOCKED: ENDBRANCH   6  32
DOCKED: BRANCH  22  38
DOCKED: ATOM     38  C   UNL d   1      29.233  15.604  24.655 -0.04 +0.01    +0.052 C 
DOCKED: BRANCH  38  39
DOCKED: ATOM     39  C   UNL d   1      28.539  15.107  23.389 -0.04 +0.05    +0.115 C 
DOCKED: BRANCH  39  40
DOCKED: ATOM     40  C   UNL d   1      29.410  15.236  22.165 -0.02 +0.14    +0.139 C 
DOCKED: ATOM     41  O   UNL d   1      29.512  14.297  21.391 -0.13 -0.63    -0.650 OA
DOCKED: BRANCH  40  42
DOCKED: ATOM     42  O   UNL d   1      30.042  16.391  21.879 -0.33 -1.26    -0.776 OA
DOCKED: ATOM     43  H   UNL d   1      29.574  17.234  21.875 +0.04 +0.29    +0.167 HD
DOCKED: ENDBRANCH  40  42
DOCKED: ENDBRANCH  39  40
DOCKED: ENDBRANCH  38  39
DOCKED: ENDBRANCH  22  38
DOCKED: BRANCH  12  44
DOCKED: ATOM     44  C   UNL d   1      23.044  24.062  29.004 -0.24 -0.00    +0.004 C 
DOCKED: ATOM     45  C   UNL d   1      23.237  25.125  29.783 -0.24 -0.00    +0.012 C 
DOCKED: ENDBRANCH  12  44
DOCKED: BRANCH  17  46
DOCKED: ATOM     46  C   UNL d   1      24.433  16.218  30.894 -0.00 -0.00    +0.004 C 
DOCKED: ATOM     47  C   UNL d   1      25.404  15.616  31.593 -0.00 -0.00    +0.012 C 
DOCKED: ENDBRANCH  17  46
DOCKED: TORSDOF 10
DOCKED: TER
DOCKED: ENDMDL
________________________________________________________________________________


	BEGINNING GENETIC ALGORITHM DOCKING 44 of 100
Run: 44 Seed: 1054514193 2060786869 [ Run 44 of 100 GA/GALS ]
Beginning LAMARCKIAN GENETIC ALGORITHM (LGA), with a maximum of 25000000 energy evaluations.

Final-Value: -10.964


	FINAL GENETIC ALGORITHM DOCKED STATE
	_______________________________________________


Detailed state:  trans 27.621 39.802 -1.044 quatxyzw 0.145094 -0.454175 0.673894 0.564394 center 8.287 34.468 -0.670 ntor 10 -136.3977 -7.6599 2.9328 118.1133 -1.3099 -37.9959 33.6547 138.4419 -148.8234 20.3592
State:	 27.621  39.802  -1.044   0.176 -0.550  0.816 111.280   -136.40   -7.66    2.93  118.11   -1.31  -38.00   33.65  138.44 -148.82   20.36

DOCKED: MODEL       44
DOCKED: USER    Run = 44
DOCKED: USER    DPF = D:/Protein_go_brrr/autodock/final/2DN3/heme_O2/dock.dpf
DOCKED: USER  
DOCKED: USER    Estimated Free Energy of Binding    =   -7.19 kcal/mol  [=(1)+(2)+(3)-(4)]
DOCKED: USER    Estimated Inhibition Constant, Ki   =    5.41 uM (micromolar)  [Temperature = 298.15 K]
DOCKED: USER    
DOCKED: USER    (1) Final Intermolecular Energy     =  -10.17 kcal/mol
DOCKED: USER        vdW + Hbond + desolv Energy     =   -8.29 kcal/mol
DOCKED: USER        Electrostatic Energy            =   -1.88 kcal/mol
DOCKED: USER    (2) Final Total Internal Energy     =   -0.80 kcal/mol
DOCKED: USER    (3) Torsional Free Energy           =   +2.98 kcal/mol
DOCKED: USER    (4) Unbound System's Energy  [=(2)] =   -0.80 kcal/mol
DOCKED: USER    
DOCKED: USER    
DOCKED: USER    NEWDPF move heme_O2_opt.pdbqt
DOCKED: USER    NEWDPF about 8.287000 34.468000 -0.670000
DOCKED: USER    NEWDPF tran0 27.621064 39.801836 -1.044080
DOCKED: USER    NEWDPF quaternion0 0.145094 -0.454175 0.673894 0.564394
DOCKED: USER    NEWDPF axisangle0 0.175763 -0.550178 0.816341 111.279591
DOCKED: USER    NEWDPF quat0 0.175763 -0.550178 0.816341 111.279591
DOCKED: USER    NEWDPF dihe0 -136.40 -7.66 2.93 118.11 -1.31 -38.00 33.65 138.44 -148.82 20.36 
DOCKED: USER  keepresnum = 1 
DOCKED: USER  
DOCKED: REMARK  10 active torsions:
DOCKED: REMARK  status: ('A' for Active; 'I' for Inactive)
DOCKED: REMARK    1  A    between atoms: C_6  and  C_10 
DOCKED: REMARK    2  A    between atoms: C_10  and  C_11 
DOCKED: REMARK    3  A    between atoms: C_11  and  C_12 
DOCKED: REMARK    4  A    between atoms: C_12  and  O_14 
DOCKED: REMARK    5  A    between atoms: C_17  and  C_20 
DOCKED: REMARK    6  A    between atoms: C_24  and  C_27 
DOCKED: REMARK    7  A    between atoms: C_31  and  C_34 
DOCKED: REMARK    8  A    between atoms: C_34  and  C_35 
DOCKED: REMARK    9  A    between atoms: C_35  and  C_36 
DOCKED: REMARK   10  A    between atoms: C_36  and  O_38 
DOCKED: USER                              x       y       z     vdW  Elec       q    Type
DOCKED: USER                           _______ _______ _______ _____ _____    ______ ____
DOCKED: ROOT
DOCKED: ATOM      1  C   UNL d   1      28.033  41.859  -1.354 -0.14 +0.01    +0.064 A 
DOCKED: ATOM      2  C   UNL d   1      28.566  39.013   2.410 -0.21 -0.01    +0.064 A 
DOCKED: ATOM      3  C   UNL d   1      26.745  35.294  -0.027 -0.24 +0.01    +0.064 C 
DOCKED: ATOM      4  C   UNL d   1      26.635  38.092  -4.055 -0.21 +0.01    +0.064 A 
DOCKED: ATOM      5  C   UNL d   1      28.328  41.388  -0.132 -0.14 +0.01    +0.066 A 
DOCKED: ATOM      6  C   UNL d   1      28.862  42.167   0.899 -0.17 -0.01    -0.021 A 
DOCKED: ATOM      7  C   UNL d   1      29.057  41.334   1.976 -0.20 -0.00    -0.025 A 
DOCKED: ATOM      8  C   UNL d   1      28.593  40.080   1.589 -0.18 +0.00    +0.066 A 
DOCKED: ATOM      9  C   UNL d   1      29.689  41.748   3.287 -0.32 +0.01    +0.051 C 
DOCKED: ATOM     10  C   UNL d   1      28.070  37.680   2.068 -0.20 -0.00    +0.066 A 
DOCKED: ATOM     11  C   UNL d   1      27.914  36.653   3.006 -0.24 +0.00    -0.021 A 
DOCKED: ATOM     12  C   UNL d   1      27.373  35.578   2.326 -0.27 +0.00    +0.000 A 
DOCKED: ATOM     13  C   UNL d   1      27.238  36.015   0.979 -0.18 +0.01    +0.070 A 
DOCKED: ATOM     14  C   UNL d   1      28.241  36.705   4.494 -0.31 -0.02    +0.052 C 
DOCKED: ATOM     15  C   UNL d   1      26.624  35.687  -1.410 -0.18 +0.01    +0.066 A 
DOCKED: ATOM     16  C   UNL d   1      26.253  34.831  -2.446 -0.17 -0.00    -0.021 A 
DOCKED: ATOM     17  C   UNL d   1      26.216  35.607  -3.605 -0.16 +0.00    +0.000 A 
DOCKED: ATOM     18  C   UNL d   1      26.570  36.896  -3.183 -0.21 +0.00    +0.070 A 
DOCKED: ATOM     19  C   UNL d   1      26.023  33.353  -2.250 -0.17 -0.00    +0.052 C 
DOCKED: ATOM     20  C   UNL d   1      27.012  39.333  -3.692 -0.18 +0.01    +0.066 A 
DOCKED: ATOM     21  C   UNL d   1      27.036  40.426  -4.554 -0.17 -0.00    -0.025 A 
DOCKED: ATOM     22  C   UNL d   1      27.406  41.513  -3.796 -0.15 -0.00    -0.021 A 
DOCKED: ATOM     23  C   UNL d   1      27.612  41.039  -2.497 -0.13 +0.01    +0.066 A 
DOCKED: ATOM     24  C   UNL d   1      26.726  40.430  -6.029 -0.10 +0.01    +0.051 C 
DOCKED: ATOM     25  N   UNL d   1      28.205  40.099   0.269 -0.06 -0.04    -0.248 N 
DOCKED: ATOM     26  N   UNL d   1      27.669  37.293   0.831 -0.07 -0.03    -0.248 N 
DOCKED: ATOM     27  N   UNL d   1      26.887  36.910  -1.863 -0.12 -0.02    -0.248 N 
DOCKED: ATOM     28  N   UNL d   1      27.415  39.706  -2.448 +0.05 -0.04    -0.248 N 
DOCKED: ATOM     29 FE   UNL d   1      27.541  38.506  -0.822 -0.06 +0.00    +0.000 Fe
DOCKED: ATOM     30  O   UNL d   1      29.051  38.429  -0.454 -0.14 +0.00    +0.000 OA
DOCKED: ATOM     31  O   UNL d   1      28.572  37.972  -1.883 -0.15 +0.00    +0.000 OA
DOCKED: ENDROOT
DOCKED: BRANCH   6  32
DOCKED: ATOM     32  C   UNL d   1      29.301  43.607   0.836 -0.16 +0.03    +0.052 C 
DOCKED: BRANCH  32  33
DOCKED: ATOM     33  C   UNL d   1      30.492  43.823  -0.094 -0.09 +0.07    +0.115 C 
DOCKED: BRANCH  33  34
DOCKED: ATOM     34  C   UNL d   1      31.381  44.953   0.363 -0.08 +0.17    +0.139 C 
DOCKED: ATOM     35  O   UNL d   1      32.034  45.576  -0.458 -0.51 -0.96    -0.650 OA
DOCKED: BRANCH  34  36
DOCKED: ATOM     36  O   UNL d   1      31.494  45.275   1.668 -0.25 -1.00    -0.776 OA
DOCKED: ATOM     37  H   UNL d   1      31.480  46.190   1.971 -0.46 +0.14    +0.167 HD
DOCKED: ENDBRANCH  34  36
DOCKED: ENDBRANCH  33  34
DOCKED: ENDBRANCH  32  33
DOCKED: ENDBRANCH   6  32
DOCKED: BRANCH  22  38
DOCKED: ATOM     38  C   UNL d   1      27.611  42.915  -4.311 -0.09 +0.01    +0.052 C 
DOCKED: BRANCH  38  39
DOCKED: ATOM     39  C   UNL d   1      26.720  43.932  -3.601 -0.13 +0.02    +0.115 C 
DOCKED: BRANCH  39  40
DOCKED: ATOM     40  C   UNL d   1      25.312  43.427  -3.406 -0.31 +0.03    +0.139 C 
DOCKED: ATOM     41  O   UNL d   1      24.938  43.091  -2.294 -0.16 -0.20    -0.650 OA
DOCKED: BRANCH  40  42
DOCKED: ATOM     42  O   UNL d   1      24.439  43.389  -4.431 +0.01 -0.16    -0.776 OA
DOCKED: ATOM     43  H   UNL d   1      24.663  43.745  -5.299 +0.05 +0.03    +0.167 HD
DOCKED: ENDBRANCH  40  42
DOCKED: ENDBRANCH  39  40
DOCKED: ENDBRANCH  38  39
DOCKED: ENDBRANCH  22  38
DOCKED: BRANCH  12  44
DOCKED: ATOM     44  C   UNL d   1      27.050  34.269   3.017 -0.38 +0.00    +0.004 C 
DOCKED: ATOM     45  C   UNL d   1      26.506  33.175   2.486 -0.34 +0.01    +0.012 C 
DOCKED: ENDBRANCH  12  44
DOCKED: BRANCH  17  46
DOCKED: ATOM     46  C   UNL d   1      25.940  35.232  -5.037 -0.09 -0.00    +0.004 C 
DOCKED: ATOM     47  C   UNL d   1      24.881  35.558  -5.789 -0.11 -0.00    +0.012 C 
DOCKED: ENDBRANCH  17  46
DOCKED: TORSDOF 10
DOCKED: TER
DOCKED: ENDMDL
________________________________________________________________________________


	BEGINNING GENETIC ALGORITHM DOCKING 45 of 100
Run: 45 Seed: 1223858892 1497365669 [ Run 45 of 100 GA/GALS ]
Beginning LAMARCKIAN GENETIC ALGORITHM (LGA), with a maximum of 25000000 energy evaluations.

Final-Value: -19.919


	FINAL GENETIC ALGORITHM DOCKED STATE
	_______________________________________________


Detailed state:  trans 41.546 28.591 16.234 quatxyzw 0.297553 -0.379800 -0.874676 0.046431 center 8.287 34.468 -0.670 ntor 10 28.8053 139.7729 -20.0039 -79.5223 -159.1217 -42.1679 -4.0104 90.7286 -143.0265 -166.8610
State:	 41.546  28.591  16.234   0.298 -0.380 -0.876 174.677     28.81  139.77  -20.00  -79.52 -159.12  -42.17   -4.01   90.73 -143.03 -166.86

DOCKED: MODEL       45
DOCKED: USER    Run = 45
DOCKED: USER    DPF = D:/Protein_go_brrr/autodock/final/2DN3/heme_O2/dock.dpf
DOCKED: USER  
DOCKED: USER    Estimated Free Energy of Binding    =  -15.26 kcal/mol  [=(1)+(2)+(3)-(4)]
DOCKED: USER    Estimated Inhibition Constant, Ki   =    6.48 pM (picomolar)  [Temperature = 298.15 K]
DOCKED: USER    
DOCKED: USER    (1) Final Intermolecular Energy     =  -18.25 kcal/mol
DOCKED: USER        vdW + Hbond + desolv Energy     =  -16.30 kcal/mol
DOCKED: USER        Electrostatic Energy            =   -1.94 kcal/mol
DOCKED: USER    (2) Final Total Internal Energy     =   -1.67 kcal/mol
DOCKED: USER    (3) Torsional Free Energy           =   +2.98 kcal/mol
DOCKED: USER    (4) Unbound System's Energy  [=(2)] =   -1.67 kcal/mol
DOCKED: USER    
DOCKED: USER    
DOCKED: USER    NEWDPF move heme_O2_opt.pdbqt
DOCKED: USER    NEWDPF about 8.287000 34.468000 -0.670000
DOCKED: USER    NEWDPF tran0 41.546088 28.591007 16.234023
DOCKED: USER    NEWDPF quaternion0 0.297553 -0.379800 -0.874676 0.046431
DOCKED: USER    NEWDPF axisangle0 0.297874 -0.380210 -0.875620 174.677444
DOCKED: USER    NEWDPF quat0 0.297874 -0.380210 -0.875620 174.677444
DOCKED: USER    NEWDPF dihe0 28.81 139.77 -20.00 -79.52 -159.12 -42.17 -4.01 90.73 -143.03 -166.86 
DOCKED: USER  keepresnum = 1 
DOCKED: USER  
DOCKED: REMARK  10 active torsions:
DOCKED: REMARK  status: ('A' for Active; 'I' for Inactive)
DOCKED: REMARK    1  A    between atoms: C_6  and  C_10 
DOCKED: REMARK    2  A    between atoms: C_10  and  C_11 
DOCKED: REMARK    3  A    between atoms: C_11  and  C_12 
DOCKED: REMARK    4  A    between atoms: C_12  and  O_14 
DOCKED: REMARK    5  A    between atoms: C_17  and  C_20 
DOCKED: REMARK    6  A    between atoms: C_24  and  C_27 
DOCKED: REMARK    7  A    between atoms: C_31  and  C_34 
DOCKED: REMARK    8  A    between atoms: C_34  and  C_35 
DOCKED: REMARK    9  A    between atoms: C_35  and  C_36 
DOCKED: REMARK   10  A    between atoms: C_36  and  O_38 
DOCKED: USER                              x       y       z     vdW  Elec       q    Type
DOCKED: USER                           _______ _______ _______ _____ _____    ______ ____
DOCKED: ROOT
DOCKED: ATOM      1  C   UNL d   1      43.280  27.882  17.229 -0.29 +0.02    +0.064 A 
DOCKED: ATOM      2  C   UNL d   1      41.357  32.206  16.821 -0.41 +0.01    +0.064 A 
DOCKED: ATOM      3  C   UNL d   1      37.818  30.473  14.070 -0.38 +0.01    +0.064 C 
DOCKED: ATOM      4  C   UNL d   1      39.519  25.943  14.877 -0.37 +0.01    +0.064 A 
DOCKED: ATOM      5  C   UNL d   1      43.045  29.199  17.344 -0.30 +0.02    +0.066 A 
DOCKED: ATOM      6  C   UNL d   1      43.866  30.082  18.052 -0.30 -0.01    -0.021 A 
DOCKED: ATOM      7  C   UNL d   1      43.286  31.327  17.970 -0.35 -0.01    -0.025 A 
DOCKED: ATOM      8  C   UNL d   1      42.154  31.179  17.175 -0.36 +0.02    +0.066 A 
DOCKED: ATOM      9  C   UNL d   1      43.805  32.570  18.660 -0.39 +0.01    +0.051 C 
DOCKED: ATOM     10  C   UNL d   1      40.169  32.116  15.971 -0.38 +0.01    +0.066 A 
DOCKED: ATOM     11  C   UNL d   1      39.473  33.236  15.500 -0.44 -0.00    -0.021 A 
DOCKED: ATOM     12  C   UNL d   1      38.460  32.757  14.691 -0.41 +0.00    +0.000 A 
DOCKED: ATOM     13  C   UNL d   1      38.591  31.341  14.723 -0.36 +0.01    +0.070 A 
DOCKED: ATOM     14  C   UNL d   1      39.779  34.701  15.789 -0.47 +0.01    +0.052 C 
DOCKED: ATOM     15  C   UNL d   1      37.896  29.033  14.104 -0.35 +0.01    +0.066 A 
DOCKED: ATOM     16  C   UNL d   1      36.957  28.177  13.530 -0.43 -0.00    -0.021 A 
DOCKED: ATOM     17  C   UNL d   1      37.420  26.879  13.748 -0.45 +0.00    +0.000 A 
DOCKED: ATOM     18  C   UNL d   1      38.624  27.044  14.447 -0.37 +0.01    +0.070 A 
DOCKED: ATOM     19  C   UNL d   1      35.687  28.666  12.879 -0.60 +0.01    +0.052 C 
DOCKED: ATOM     20  C   UNL d   1      40.658  26.063  15.586 -0.37 +0.02    +0.066 A 
DOCKED: ATOM     21  C   UNL d   1      41.469  24.990  15.947 -0.40 -0.01    -0.025 A 
DOCKED: ATOM     22  C   UNL d   1      42.560  25.527  16.594 -0.18 -0.01    -0.021 A 
DOCKED: ATOM     23  C   UNL d   1      42.364  26.911  16.621 -0.30 +0.02    +0.066 A 
DOCKED: ATOM     24  C   UNL d   1      41.215  23.528  15.690 -0.55 +0.01    +0.051 C 
DOCKED: ATOM     25  N   UNL d   1      41.970  29.857  16.844 -0.20 -0.08    -0.248 N 
DOCKED: ATOM     26  N   UNL d   1      39.630  30.960  15.508 -0.10 -0.07    -0.248 N 
DOCKED: ATOM     27  N   UNL d   1      38.859  28.353  14.720 -0.17 -0.07    -0.248 N 
DOCKED: ATOM     28  N   UNL d   1      41.185  27.229  16.046 -0.27 -0.08    -0.248 N 
DOCKED: ATOM     29 FE   UNL d   1      40.411  29.079  15.778 -0.08 +0.00    +0.000 Fe
DOCKED: ATOM     30  O   UNL d   1      40.011  29.593  17.192 -0.87 +0.00    +0.000 OA
DOCKED: ATOM     31  O   UNL d   1      39.383  28.258  16.639 -0.78 +0.00    +0.000 OA
DOCKED: ENDROOT
DOCKED: BRANCH   6  32
DOCKED: ATOM     32  C   UNL d   1      45.074  29.750  18.889 -0.26 +0.03    +0.052 C 
DOCKED: BRANCH  32  33
DOCKED: ATOM     33  C   UNL d   1      44.756  28.794  20.035 -0.12 +0.10    +0.115 C 
DOCKED: BRANCH  33  34
DOCKED: ATOM     34  C   UNL d   1      45.993  28.350  20.774 -0.13 +0.18    +0.139 C 
DOCKED: ATOM     35  O   UNL d   1      46.799  29.183  21.158 -0.48 -0.99    -0.650 OA
DOCKED: BRANCH  34  36
DOCKED: ATOM     36  O   UNL d   1      46.248  27.044  20.997 +0.01 -0.84    -0.776 OA
DOCKED: ATOM     37  H   UNL d   1      45.938  26.353  20.401 +0.05 +0.13    +0.167 HD
DOCKED: ENDBRANCH  34  36
DOCKED: ENDBRANCH  33  34
DOCKED: ENDBRANCH  32  33
DOCKED: ENDBRANCH   6  32
DOCKED: BRANCH  22  38
DOCKED: ATOM     38  C   UNL d   1      43.690  24.742  17.207 -0.29 +0.02    +0.052 C 
DOCKED: BRANCH  38  39
DOCKED: ATOM     39  C   UNL d   1      43.230  23.877  18.379 -0.33 +0.05    +0.115 C 
DOCKED: BRANCH  39  40
DOCKED: ATOM     40  C   UNL d   1      43.321  24.600  19.700 -0.34 +0.06    +0.139 C 
DOCKED: ATOM     41  O   UNL d   1      42.311  25.053  20.213 -0.15 -0.22    -0.650 OA
DOCKED: BRANCH  40  42
DOCKED: ATOM     42  O   UNL d   1      44.495  24.712  20.352 -0.30 -0.46    -0.776 OA
DOCKED: ATOM     43  H   UNL d   1      44.730  25.515  20.832 +0.06 +0.11    +0.167 HD
DOCKED: ENDBRANCH  40  42
DOCKED: ENDBRANCH  39  40
DOCKED: ENDBRANCH  38  39
DOCKED: ENDBRANCH  22  38
DOCKED: BRANCH  12  44
DOCKED: ATOM     44  C   UNL d   1      37.489  33.682  13.987 -0.49 +0.00    +0.004 C 
DOCKED: ATOM     45  C   UNL d   1      36.786  33.443  12.880 -0.54 +0.00    +0.012 C 
DOCKED: ENDBRANCH  12  44
DOCKED: BRANCH  17  46
DOCKED: ATOM     46  C   UNL d   1      36.812  25.543  13.414 -0.64 +0.00    +0.004 C 
DOCKED: ATOM     47  C   UNL d   1      35.941  24.826  14.135 -0.70 +0.00    +0.012 C 
DOCKED: ENDBRANCH  17  46
DOCKED: TORSDOF 10
DOCKED: TER
DOCKED: ENDMDL
________________________________________________________________________________


	BEGINNING GENETIC ALGORITHM DOCKING 46 of 100
Run: 46 Seed: 1857082390 107208992 [ Run 46 of 100 GA/GALS ]
Beginning LAMARCKIAN GENETIC ALGORITHM (LGA), with a maximum of 25000000 energy evaluations.

Final-Value: -19.126


	FINAL GENETIC ALGORITHM DOCKED STATE
	_______________________________________________


Detailed state:  trans 8.905 34.938 -0.941 quatxyzw -0.024557 -0.051244 -0.047615 -0.997248 center 8.287 34.468 -0.670 ntor 10 65.6609 -120.9888 19.6343 -114.4896 -123.4212 -88.7911 -14.0496 62.0286 179.6633 137.6223
State:	  8.905  34.938  -0.941  -0.331 -0.691 -0.642 -8.503     65.66 -120.99   19.63 -114.49 -123.42  -88.79  -14.05   62.03  179.66  137.62

DOCKED: MODEL       46
DOCKED: USER    Run = 46
DOCKED: USER    DPF = D:/Protein_go_brrr/autodock/final/2DN3/heme_O2/dock.dpf
DOCKED: USER  
DOCKED: USER    Estimated Free Energy of Binding    =  -14.01 kcal/mol  [=(1)+(2)+(3)-(4)]
DOCKED: USER    Estimated Inhibition Constant, Ki   =   53.68 pM (picomolar)  [Temperature = 298.15 K]
DOCKED: USER    
DOCKED: USER    (1) Final Intermolecular Energy     =  -16.99 kcal/mol
DOCKED: USER        vdW + Hbond + desolv Energy     =  -15.20 kcal/mol
DOCKED: USER        Electrostatic Energy            =   -1.79 kcal/mol
DOCKED: USER    (2) Final Total Internal Energy     =   -2.13 kcal/mol
DOCKED: USER    (3) Torsional Free Energy           =   +2.98 kcal/mol
DOCKED: USER    (4) Unbound System's Energy  [=(2)] =   -2.13 kcal/mol
DOCKED: USER    
DOCKED: USER    
DOCKED: USER    NEWDPF move heme_O2_opt.pdbqt
DOCKED: USER    NEWDPF about 8.287000 34.468000 -0.670000
DOCKED: USER    NEWDPF tran0 8.905182 34.938446 -0.941211
DOCKED: USER    NEWDPF quaternion0 -0.024557 -0.051244 -0.047615 -0.997248
DOCKED: USER    NEWDPF axisangle0 -0.331239 -0.691212 -0.642266 -8.503216
DOCKED: USER    NEWDPF quat0 -0.331239 -0.691212 -0.642266 -8.503216
DOCKED: USER    NEWDPF dihe0 65.66 -120.99 19.63 -114.49 -123.42 -88.79 -14.05 62.03 179.66 137.62 
DOCKED: USER  keepresnum = 1 
DOCKED: USER  
DOCKED: REMARK  10 active torsions:
DOCKED: REMARK  status: ('A' for Active; 'I' for Inactive)
DOCKED: REMARK    1  A    between atoms: C_6  and  C_10 
DOCKED: REMARK    2  A    between atoms: C_10  and  C_11 
DOCKED: REMARK    3  A    between atoms: C_11  and  C_12 
DOCKED: REMARK    4  A    between atoms: C_12  and  O_14 
DOCKED: REMARK    5  A    between atoms: C_17  and  C_20 
DOCKED: REMARK    6  A    between atoms: C_24  and  C_27 
DOCKED: REMARK    7  A    between atoms: C_31  and  C_34 
DOCKED: REMARK    8  A    between atoms: C_34  and  C_35 
DOCKED: REMARK    9  A    between atoms: C_35  and  C_36 
DOCKED: REMARK   10  A    between atoms: C_36  and  O_38 
DOCKED: USER                              x       y       z     vdW  Elec       q    Type
DOCKED: USER                           _______ _______ _______ _____ _____    ______ ____
DOCKED: ROOT
DOCKED: ATOM      1  C   UNL d   1       7.192  35.667  -1.958 -0.29 +0.01    +0.064 A 
DOCKED: ATOM      2  C   UNL d   1       7.720  33.046   1.968 -0.40 +0.01    +0.064 A 
DOCKED: ATOM      3  C   UNL d   1      12.501  33.121   1.486 -0.45 +0.00    +0.064 C 
DOCKED: ATOM      4  C   UNL d   1      11.991  36.217  -2.285 -0.41 +0.00    +0.064 A 
DOCKED: ATOM      5  C   UNL d   1       6.945  34.950  -0.850 -0.30 +0.01    +0.066 A 
DOCKED: ATOM      6  C   UNL d   1       5.664  34.668  -0.369 -0.30 -0.00    -0.021 A 
DOCKED: ATOM      7  C   UNL d   1       5.816  33.946   0.792 -0.34 -0.00    -0.025 A 
DOCKED: ATOM      8  C   UNL d   1       7.186  33.765   0.962 -0.35 +0.01    +0.066 A 
DOCKED: ATOM      9  C   UNL d   1       4.682  33.495   1.686 -0.38 +0.01    +0.051 C 
DOCKED: ATOM     10  C   UNL d   1       9.146  32.803   2.185 -0.39 +0.00    +0.066 A 
DOCKED: ATOM     11  C   UNL d   1       9.637  31.915   3.149 -0.47 -0.00    -0.021 A 
DOCKED: ATOM     12  C   UNL d   1      11.013  31.909   3.014 -0.44 +0.00    +0.000 A 
DOCKED: ATOM     13  C   UNL d   1      11.291  32.823   1.960 -0.37 +0.00    +0.070 A 
DOCKED: ATOM     14  C   UNL d   1       8.826  31.087   4.139 -0.57 +0.00    +0.052 C 
DOCKED: ATOM     15  C   UNL d   1      12.826  34.065   0.445 -0.37 +0.01    +0.066 A 
DOCKED: ATOM     16  C   UNL d   1      14.122  34.454   0.108 -0.46 -0.00    -0.021 A 
DOCKED: ATOM     17  C   UNL d   1      14.001  35.338  -0.965 -0.44 +0.00    +0.000 A 
DOCKED: ATOM     18  C   UNL d   1      12.623  35.421  -1.206 -0.35 +0.01    +0.070 A 
DOCKED: ATOM     19  C   UNL d   1      15.342  33.996   0.866 -0.60 +0.00    +0.052 C 
DOCKED: ATOM     20  C   UNL d   1      10.671  36.353  -2.516 -0.39 +0.01    +0.066 A 
DOCKED: ATOM     21  C   UNL d   1      10.135  37.102  -3.560 -0.38 -0.00    -0.025 A 
DOCKED: ATOM     22  C   UNL d   1       8.770  36.935  -3.499 -0.34 -0.00    -0.021 A 
DOCKED: ATOM     23  C   UNL d   1       8.521  36.101  -2.405 -0.34 +0.01    +0.066 A 
DOCKED: ATOM     24  C   UNL d   1      10.888  37.939  -4.562 -0.49 -0.00    +0.051 C 
DOCKED: ATOM     25  N   UNL d   1       7.883  34.439  -0.014 -0.08 -0.05    -0.248 N 
DOCKED: ATOM     26  N   UNL d   1      10.149  33.365   1.464 -0.22 -0.03    -0.248 N 
DOCKED: ATOM     27  N   UNL d   1      11.921  34.702  -0.293 -0.10 -0.03    -0.248 N 
DOCKED: ATOM     28  N   UNL d   1       9.676  35.786  -1.783 -0.21 -0.05    -0.248 N 
DOCKED: ATOM     29 FE   UNL d   1       9.914  34.585  -0.171 -0.07 +0.00    +0.000 Fe
DOCKED: ATOM     30  O   UNL d   1       9.320  35.361   1.040 -0.67 +0.00    +0.000 OA
DOCKED: ATOM     31  O   UNL d   1      10.493  35.998   0.204 -0.67 +0.00    +0.000 OA
DOCKED: ENDROOT
DOCKED: BRANCH   6  32
DOCKED: ATOM     32  C   UNL d   1       4.347  35.173  -0.900 -0.25 +0.02    +0.052 C 
DOCKED: BRANCH  32  33
DOCKED: ATOM     33  C   UNL d   1       3.834  36.396  -0.146 -0.03 +0.07    +0.115 C 
DOCKED: BRANCH  33  34
DOCKED: ATOM     34  C   UNL d   1       2.751  37.125  -0.901 +0.00 +0.16    +0.139 C 
DOCKED: ATOM     35  O   UNL d   1       1.590  36.763  -0.791 -0.31 -0.96    -0.650 OA
DOCKED: BRANCH  34  36
DOCKED: ATOM     36  O   UNL d   1       3.038  38.155  -1.723 -0.08 -0.85    -0.776 OA
DOCKED: ATOM     37  H   UNL d   1       3.548  38.036  -2.533 +0.04 +0.10    +0.167 HD
DOCKED: ENDBRANCH  34  36
DOCKED: ENDBRANCH  33  34
DOCKED: ENDBRANCH  32  33
DOCKED: ENDBRANCH   6  32
DOCKED: BRANCH  22  38
DOCKED: ATOM     38  C   UNL d   1       7.763  37.595  -4.405 -0.29 +0.00    +0.052 C 
DOCKED: BRANCH  38  39
DOCKED: ATOM     39  C   UNL d   1       6.766  38.460  -3.635 -0.21 +0.01    +0.115 C 
DOCKED: BRANCH  39  40
DOCKED: ATOM     40  C   UNL d   1       5.343  37.989  -3.805 -0.12 +0.03    +0.139 C 
DOCKED: ATOM     41  O   UNL d   1       5.049  36.838  -3.527 +0.01 -0.15    -0.650 OA
DOCKED: BRANCH  40  42
DOCKED: ATOM     42  O   UNL d   1       4.375  38.832  -4.212 +0.06 -0.21    -0.776 OA
DOCKED: ATOM     43  H   UNL d   1       3.613  39.032  -3.656 +0.03 +0.07    +0.167 HD
DOCKED: ENDBRANCH  40  42
DOCKED: ENDBRANCH  39  40
DOCKED: ENDBRANCH  38  39
DOCKED: ENDBRANCH  22  38
DOCKED: BRANCH  12  44
DOCKED: ATOM     44  C   UNL d   1      11.903  31.052   3.890 -0.57 +0.00    +0.004 C 
DOCKED: ATOM     45  C   UNL d   1      13.221  31.149   4.062 -0.67 +0.00    +0.012 C 
DOCKED: ENDBRANCH  12  44
DOCKED: BRANCH  17  46
DOCKED: ATOM     46  C   UNL d   1      15.040  36.127  -1.717 -0.55 +0.00    +0.004 C 
DOCKED: ATOM     47  C   UNL d   1      15.120  37.455  -1.872 -0.65 +0.00    +0.012 C 
DOCKED: ENDBRANCH  17  46
DOCKED: TORSDOF 10
DOCKED: TER
DOCKED: ENDMDL
________________________________________________________________________________


	BEGINNING GENETIC ALGORITHM DOCKING 47 of 100
Run: 47 Seed: 1005337634 1981052919 [ Run 47 of 100 GA/GALS ]
Beginning LAMARCKIAN GENETIC ALGORITHM (LGA), with a maximum of 25000000 energy evaluations.

Final-Value: -20.453


	FINAL GENETIC ALGORITHM DOCKED STATE
	_______________________________________________


Detailed state:  trans 41.407 28.823 16.311 quatxyzw 0.334990 -0.400630 -0.852553 0.020734 center 8.287 34.468 -0.670 ntor 10 64.8922 -56.2309 14.0579 -59.9707 84.3990 165.6923 42.0326 4.4250 -89.9246 154.2396
State:	 41.407  28.823  16.311   0.335 -0.401 -0.853 177.624     64.89  -56.23   14.06  -59.97   84.40  165.69   42.03    4.43  -89.92  154.24

DOCKED: MODEL       47
DOCKED: USER    Run = 47
DOCKED: USER    DPF = D:/Protein_go_brrr/autodock/final/2DN3/heme_O2/dock.dpf
DOCKED: USER  
DOCKED: USER    Estimated Free Energy of Binding    =  -16.32 kcal/mol  [=(1)+(2)+(3)-(4)]
DOCKED: USER    Estimated Inhibition Constant, Ki   =    1.09 pM (picomolar)  [Temperature = 298.15 K]
DOCKED: USER    
DOCKED: USER    (1) Final Intermolecular Energy     =  -19.30 kcal/mol
DOCKED: USER        vdW + Hbond + desolv Energy     =  -16.40 kcal/mol
DOCKED: USER        Electrostatic Energy            =   -2.90 kcal/mol
DOCKED: USER    (2) Final Total Internal Energy     =   -1.15 kcal/mol
DOCKED: USER    (3) Torsional Free Energy           =   +2.98 kcal/mol
DOCKED: USER    (4) Unbound System's Energy  [=(2)] =   -1.15 kcal/mol
DOCKED: USER    
DOCKED: USER    
DOCKED: USER    NEWDPF move heme_O2_opt.pdbqt
DOCKED: USER    NEWDPF about 8.287000 34.468000 -0.670000
DOCKED: USER    NEWDPF tran0 41.406544 28.822904 16.310685
DOCKED: USER    NEWDPF quaternion0 0.334990 -0.400630 -0.852553 0.020734
DOCKED: USER    NEWDPF axisangle0 0.335062 -0.400716 -0.852737 177.623924
DOCKED: USER    NEWDPF quat0 0.335062 -0.400716 -0.852737 177.623924
DOCKED: USER    NEWDPF dihe0 64.89 -56.23 14.06 -59.97 84.40 165.69 42.03 4.43 -89.92 154.24 
DOCKED: USER  keepresnum = 1 
DOCKED: USER  
DOCKED: REMARK  10 active torsions:
DOCKED: REMARK  status: ('A' for Active; 'I' for Inactive)
DOCKED: REMARK    1  A    between atoms: C_6  and  C_10 
DOCKED: REMARK    2  A    between atoms: C_10  and  C_11 
DOCKED: REMARK    3  A    between atoms: C_11  and  C_12 
DOCKED: REMARK    4  A    between atoms: C_12  and  O_14 
DOCKED: REMARK    5  A    between atoms: C_17  and  C_20 
DOCKED: REMARK    6  A    between atoms: C_24  and  C_27 
DOCKED: REMARK    7  A    between atoms: C_31  and  C_34 
DOCKED: REMARK    8  A    between atoms: C_34  and  C_35 
DOCKED: REMARK    9  A    between atoms: C_35  and  C_36 
DOCKED: REMARK   10  A    between atoms: C_36  and  O_38 
DOCKED: USER                              x       y       z     vdW  Elec       q    Type
DOCKED: USER                           _______ _______ _______ _____ _____    ______ ____
DOCKED: ROOT
DOCKED: ATOM      1  C   UNL d   1      43.116  28.293  17.449 -0.27 +0.02    +0.064 A 
DOCKED: ATOM      2  C   UNL d   1      40.978  32.452  16.618 -0.42 +0.01    +0.064 A 
DOCKED: ATOM      3  C   UNL d   1      37.713  30.318  13.812 -0.40 +0.01    +0.064 C 
DOCKED: ATOM      4  C   UNL d   1      39.617  25.968  15.043 -0.34 +0.01    +0.064 A 
DOCKED: ATOM      5  C   UNL d   1      42.800  29.598  17.454 -0.30 +0.02    +0.066 A 
DOCKED: ATOM      6  C   UNL d   1      43.526  30.577  18.138 -0.33 -0.01    -0.021 A 
DOCKED: ATOM      7  C   UNL d   1      42.883  31.775  17.934 -0.40 -0.01    -0.025 A 
DOCKED: ATOM      8  C   UNL d   1      41.809  31.503  17.090 -0.38 +0.01    +0.066 A 
DOCKED: ATOM      9  C   UNL d   1      43.288  33.093  18.558 -0.45 +0.01    +0.051 C 
DOCKED: ATOM     10  C   UNL d   1      39.850  32.231  15.713 -0.39 +0.01    +0.066 A 
DOCKED: ATOM     11  C   UNL d   1      39.120  33.270  15.124 -0.43 -0.00    -0.021 A 
DOCKED: ATOM     12  C   UNL d   1      38.186  32.675  14.297 -0.41 +0.00    +0.000 A 
DOCKED: ATOM     13  C   UNL d   1      38.394  31.275  14.441 -0.36 +0.01    +0.070 A 
DOCKED: ATOM     14  C   UNL d   1      39.325  34.767  15.321 -0.55 +0.01    +0.052 C 
DOCKED: ATOM     15  C   UNL d   1      37.869  28.891  13.957 -0.36 +0.01    +0.066 A 
DOCKED: ATOM     16  C   UNL d   1      37.016  27.941  13.396 -0.44 -0.00    -0.021 A 
DOCKED: ATOM     17  C   UNL d   1      37.539  26.693  13.734 -0.45 +0.00    +0.000 A 
DOCKED: ATOM     18  C   UNL d   1      38.688  26.979  14.484 -0.37 +0.01    +0.070 A 
DOCKED: ATOM     19  C   UNL d   1      35.762  28.305  12.642 -0.63 +0.01    +0.052 C 
DOCKED: ATOM     20  C   UNL d   1      40.704  26.206  15.803 -0.37 +0.02    +0.066 A 
DOCKED: ATOM     21  C   UNL d   1      41.551  25.213  16.285 -0.39 -0.01    -0.025 A 
DOCKED: ATOM     22  C   UNL d   1      42.569  25.859  16.950 -0.34 -0.01    -0.021 A 
DOCKED: ATOM     23  C   UNL d   1      42.294  27.227  16.864 -0.33 +0.02    +0.066 A 
DOCKED: ATOM     24  C   UNL d   1      41.396  23.723  16.123 -0.54 +0.01    +0.051 C 
DOCKED: ATOM     25  N   UNL d   1      41.721  30.152  16.848 -0.21 -0.08    -0.248 N 
DOCKED: ATOM     26  N   UNL d   1      39.406  31.014  15.308 -0.15 -0.06    -0.248 N 
DOCKED: ATOM     27  N   UNL d   1      38.831  28.316  14.673 -0.17 -0.06    -0.248 N 
DOCKED: ATOM     28  N   UNL d   1      41.135  27.431  16.204 -0.27 -0.08    -0.248 N 
DOCKED: ATOM     29 FE   UNL d   1      40.275  29.208  15.758 -0.08 +0.00    +0.000 Fe
DOCKED: ATOM     30  O   UNL d   1      39.763  29.794  17.106 -0.76 +0.00    +0.000 OA
DOCKED: ATOM     31  O   UNL d   1      39.245  28.388  16.620 -0.73 +0.00    +0.000 OA
DOCKED: ENDROOT
DOCKED: BRANCH   6  32
DOCKED: ATOM     32  C   UNL d   1      44.699  30.378  19.063 -0.29 +0.02    +0.052 C 
DOCKED: BRANCH  32  33
DOCKED: ATOM     33  C   UNL d   1      44.996  28.907  19.336 -0.20 +0.07    +0.115 C 
DOCKED: BRANCH  33  34
DOCKED: ATOM     34  C   UNL d   1      45.375  28.653  20.774 -0.13 +0.18    +0.139 C 
DOCKED: ATOM     35  O   UNL d   1      46.417  29.111  21.213 -0.41 -1.16    -0.650 OA
DOCKED: BRANCH  34  36
DOCKED: ATOM     36  O   UNL d   1      44.598  27.905  21.584 +0.01 -1.49    -0.776 OA
DOCKED: ATOM     37  H   UNL d   1      44.454  26.964  21.428 +0.05 +0.20    +0.167 HD
DOCKED: ENDBRANCH  34  36
DOCKED: ENDBRANCH  33  34
DOCKED: ENDBRANCH  32  33
DOCKED: ENDBRANCH   6  32
DOCKED: BRANCH  22  38
DOCKED: ATOM     38  C   UNL d   1      43.705  25.189  17.681 -0.32 +0.02    +0.052 C 
DOCKED: BRANCH  38  39
DOCKED: ATOM     39  C   UNL d   1      43.520  25.220  19.197 -0.31 +0.05    +0.115 C 
DOCKED: BRANCH  39  40
DOCKED: ATOM     40  C   UNL d   1      44.692  24.621  19.933 -0.21 +0.08    +0.139 C 
DOCKED: ATOM     41  O   UNL d   1      45.120  23.527  19.603 -0.25 -0.40    -0.650 OA
DOCKED: BRANCH  40  42
DOCKED: ATOM     42  O   UNL d   1      45.313  25.296  20.919 +0.05 -0.53    -0.776 OA
DOCKED: ATOM     43  H   UNL d   1      45.650  26.190  20.785 +0.05 +0.13    +0.167 HD
DOCKED: ENDBRANCH  40  42
DOCKED: ENDBRANCH  39  40
DOCKED: ENDBRANCH  38  39
DOCKED: ENDBRANCH  22  38
DOCKED: BRANCH  12  44
DOCKED: ATOM     44  C   UNL d   1      37.207  33.487  13.475 -0.50 +0.00    +0.004 C 
DOCKED: ATOM     45  C   UNL d   1      36.155  33.048  12.785 -0.57 +0.00    +0.012 C 
DOCKED: ENDBRANCH  12  44
DOCKED: BRANCH  17  46
DOCKED: ATOM     46  C   UNL d   1      37.029  25.302  13.466 -0.64 +0.00    +0.004 C 
DOCKED: ATOM     47  C   UNL d   1      35.926  24.716  13.952 -0.70 +0.00    +0.012 C 
DOCKED: ENDBRANCH  17  46
DOCKED: TORSDOF 10
DOCKED: TER
DOCKED: ENDMDL
________________________________________________________________________________


	BEGINNING GENETIC ALGORITHM DOCKING 48 of 100
Run: 48 Seed: 363216251 1468977312 [ Run 48 of 100 GA/GALS ]
Beginning LAMARCKIAN GENETIC ALGORITHM (LGA), with a maximum of 25000000 energy evaluations.

Final-Value: -11.314


	FINAL GENETIC ALGORITHM DOCKED STATE
	_______________________________________________


Detailed state:  trans 43.457 31.383 -1.865 quatxyzw 0.085921 -0.211314 -0.831921 -0.505838 center 8.287 34.468 -0.670 ntor 10 106.9006 -26.4118 133.9867 -108.4485 -169.2508 -63.5027 -93.1880 -141.0997 -179.5238 139.0639
State:	 43.457  31.383  -1.865   0.100 -0.245 -0.964 -119.226    106.90  -26.41  133.99 -108.45 -169.25  -63.50  -93.19 -141.10 -179.52  139.06

DOCKED: MODEL       48
DOCKED: USER    Run = 48
DOCKED: USER    DPF = D:/Protein_go_brrr/autodock/final/2DN3/heme_O2/dock.dpf
DOCKED: USER  
DOCKED: USER    Estimated Free Energy of Binding    =   -6.15 kcal/mol  [=(1)+(2)+(3)-(4)]
DOCKED: USER    Estimated Inhibition Constant, Ki   =   31.29 uM (micromolar)  [Temperature = 298.15 K]
DOCKED: USER    
DOCKED: USER    (1) Final Intermolecular Energy     =   -9.13 kcal/mol
DOCKED: USER        vdW + Hbond + desolv Energy     =   -9.05 kcal/mol
DOCKED: USER        Electrostatic Energy            =   -0.07 kcal/mol
DOCKED: USER    (2) Final Total Internal Energy     =   -2.19 kcal/mol
DOCKED: USER    (3) Torsional Free Energy           =   +2.98 kcal/mol
DOCKED: USER    (4) Unbound System's Energy  [=(2)] =   -2.19 kcal/mol
DOCKED: USER    
DOCKED: USER    
DOCKED: USER    NEWDPF move heme_O2_opt.pdbqt
DOCKED: USER    NEWDPF about 8.287000 34.468000 -0.670000
DOCKED: USER    NEWDPF tran0 43.457051 31.383317 -1.864914
DOCKED: USER    NEWDPF quaternion0 0.085921 -0.211314 -0.831921 -0.505838
DOCKED: USER    NEWDPF axisangle0 0.099603 -0.244965 -0.964402 -119.225994
DOCKED: USER    NEWDPF quat0 0.099603 -0.244965 -0.964402 -119.225994
DOCKED: USER    NEWDPF dihe0 106.90 -26.41 133.99 -108.45 -169.25 -63.50 -93.19 -141.10 -179.52 139.06 
DOCKED: USER  keepresnum = 1 
DOCKED: USER  
DOCKED: REMARK  10 active torsions:
DOCKED: REMARK  status: ('A' for Active; 'I' for Inactive)
DOCKED: REMARK    1  A    between atoms: C_6  and  C_10 
DOCKED: REMARK    2  A    between atoms: C_10  and  C_11 
DOCKED: REMARK    3  A    between atoms: C_11  and  C_12 
DOCKED: REMARK    4  A    between atoms: C_12  and  O_14 
DOCKED: REMARK    5  A    between atoms: C_17  and  C_20 
DOCKED: REMARK    6  A    between atoms: C_24  and  C_27 
DOCKED: REMARK    7  A    between atoms: C_31  and  C_34 
DOCKED: REMARK    8  A    between atoms: C_34  and  C_35 
DOCKED: REMARK    9  A    between atoms: C_35  and  C_36 
DOCKED: REMARK   10  A    between atoms: C_36  and  O_38 
DOCKED: USER                              x       y       z     vdW  Elec       q    Type
DOCKED: USER                           _______ _______ _______ _____ _____    ______ ____
DOCKED: ROOT
DOCKED: ATOM      1  C   UNL d   1      45.113  32.573  -2.450 -0.12 -0.00    +0.064 A 
DOCKED: ATOM      2  C   UNL d   1      41.038  33.611  -0.242 -0.25 +0.01    +0.064 A 
DOCKED: ATOM      3  C   UNL d   1      39.615  29.029  -0.517 -0.25 +0.01    +0.064 C 
DOCKED: ATOM      4  C   UNL d   1      44.008  27.860  -2.362 -0.23 +0.01    +0.064 A 
DOCKED: ATOM      5  C   UNL d   1      44.121  33.229  -1.825 -0.10 -0.00    +0.066 A 
DOCKED: ATOM      6  C   UNL d   1      44.132  34.603  -1.567 -0.13 -0.00    -0.021 A 
DOCKED: ATOM      7  C   UNL d   1      42.972  34.897  -0.889 -0.16 -0.00    -0.025 A 
DOCKED: ATOM      8  C   UNL d   1      42.263  33.703  -0.795 -0.19 +0.01    +0.066 A 
DOCKED: ATOM      9  C   UNL d   1      42.609  36.262  -0.346 -0.17 +0.01    +0.051 C 
DOCKED: ATOM     10  C   UNL d   1      40.235  32.392  -0.134 -0.20 +0.00    +0.066 A 
DOCKED: ATOM     11  C   UNL d   1      38.905  32.382   0.300 -0.26 -0.00    -0.021 A 
DOCKED: ATOM     12  C   UNL d   1      38.471  31.072   0.211 -0.27 +0.00    +0.000 A 
DOCKED: ATOM     13  C   UNL d   1      39.590  30.339  -0.272 -0.24 +0.00    +0.070 A 
DOCKED: ATOM     14  C   UNL d   1      38.074  33.576   0.755 -0.29 +0.01    +0.052 C 
DOCKED: ATOM     15  C   UNL d   1      40.736  28.243  -0.973 -0.15 +0.01    +0.066 A 
DOCKED: ATOM     16  C   UNL d   1      40.746  26.851  -1.053 -0.20 -0.00    -0.021 A 
DOCKED: ATOM     17  C   UNL d   1      41.989  26.495  -1.576 -0.20 +0.00    +0.000 A 
DOCKED: ATOM     18  C   UNL d   1      42.653  27.713  -1.780 -0.16 +0.01    +0.070 A 
DOCKED: ATOM     19  C   UNL d   1      39.602  25.992  -0.577 -0.23 +0.00    +0.052 C 
DOCKED: ATOM     20  C   UNL d   1      44.690  29.010  -2.531 -0.17 -0.00    +0.066 A 
DOCKED: ATOM     21  C   UNL d   1      45.957  29.088  -3.102 -0.13 +0.00    -0.025 A 
DOCKED: ATOM     22  C   UNL d   1      46.277  30.425  -3.160 -0.15 +0.00    -0.021 A 
DOCKED: ATOM     23  C   UNL d   1      45.196  31.116  -2.604 -0.17 -0.00    +0.066 A 
DOCKED: ATOM     24  C   UNL d   1      46.821  27.943  -3.565 -0.24 +0.00    +0.051 C 
DOCKED: ATOM     25  N   UNL d   1      43.000  32.664  -1.313 -0.15 -0.01    -0.248 N 
DOCKED: ATOM     26  N   UNL d   1      40.660  31.148  -0.475 -0.15 +0.00    -0.248 N 
DOCKED: ATOM     27  N   UNL d   1      41.907  28.758  -1.338 -0.17 -0.03    -0.248 N 
DOCKED: ATOM     28  N   UNL d   1      44.253  30.248  -2.182 -0.16 +0.00    -0.248 N 
DOCKED: ATOM     29 FE   UNL d   1      42.469  30.692  -1.334 -0.05 +0.00    +0.000 Fe
DOCKED: ATOM     30  O   UNL d   1      42.788  31.242   0.087 -0.36 -0.00    +0.000 OA
DOCKED: ATOM     31  O   UNL d   1      43.265  29.796  -0.316 -0.67 +0.00    +0.000 OA
DOCKED: ENDROOT
DOCKED: BRANCH   6  32
DOCKED: ATOM     32  C   UNL d   1      45.249  35.581  -1.823 -0.10 +0.00    +0.052 C 
DOCKED: BRANCH  32  33
DOCKED: ATOM     33  C   UNL d   1      46.121  35.820  -0.594 -0.14 +0.01    +0.115 C 
DOCKED: BRANCH  33  34
DOCKED: ATOM     34  C   UNL d   1      47.204  34.780  -0.446 -0.10 +0.01    +0.139 C 
DOCKED: ATOM     35  O   UNL d   1      47.794  34.377  -1.437 +0.01 -0.04    -0.650 OA
DOCKED: BRANCH  34  36
DOCKED: ATOM     36  O   UNL d   1      47.519  34.259   0.758 +0.00 -0.07    -0.776 OA
DOCKED: ATOM     37  H   UNL d   1      47.279  33.358   1.004 -0.35 -0.02    +0.167 HD
DOCKED: ENDBRANCH  34  36
DOCKED: ENDBRANCH  33  34
DOCKED: ENDBRANCH  32  33
DOCKED: ENDBRANCH   6  32
DOCKED: BRANCH  22  38
DOCKED: ATOM     38  C   UNL d   1      47.577  30.997  -3.664 -0.09 +0.00    +0.052 C 
DOCKED: BRANCH  38  39
DOCKED: ATOM     39  C   UNL d   1      48.322  31.784  -2.589 -0.10 +0.01    +0.115 C 
DOCKED: BRANCH  39  40
DOCKED: ATOM     40  C   UNL d   1      48.203  31.152  -1.224 -0.26 +0.00    +0.139 C 
DOCKED: ATOM     41  O   UNL d   1      48.925  30.214  -0.926 -0.09 -0.05    -0.650 OA
DOCKED: BRANCH  40  42
DOCKED: ATOM     42  O   UNL d   1      47.345  31.636  -0.306 -0.02 +0.07    -0.776 OA
DOCKED: ATOM     43  H   UNL d   1      47.040  32.551  -0.333 -0.43 -0.03    +0.167 HD
DOCKED: ENDBRANCH  40  42
DOCKED: ENDBRANCH  39  40
DOCKED: ENDBRANCH  38  39
DOCKED: ENDBRANCH  22  38
DOCKED: BRANCH  12  44
DOCKED: ATOM     44  C   UNL d   1      37.063  30.664   0.591 -0.26 +0.00    +0.004 C 
DOCKED: ATOM     45  C   UNL d   1      36.404  30.946   1.714 -0.27 +0.00    +0.012 C 
DOCKED: ENDBRANCH  12  44
DOCKED: BRANCH  17  46
DOCKED: ATOM     46  C   UNL d   1      42.602  25.145  -1.834 -0.21 +0.00    +0.004 C 
DOCKED: ATOM     47  C   UNL d   1      43.678  24.598  -1.253 -0.29 +0.00    +0.012 C 
DOCKED: ENDBRANCH  17  46
DOCKED: TORSDOF 10
DOCKED: TER
DOCKED: ENDMDL
________________________________________________________________________________


	BEGINNING GENETIC ALGORITHM DOCKING 49 of 100
Run: 49 Seed: 755577062 477605832 [ Run 49 of 100 GA/GALS ]
Beginning LAMARCKIAN GENETIC ALGORITHM (LGA), with a maximum of 25000000 energy evaluations.

Final-Value: -19.733


	FINAL GENETIC ALGORITHM DOCKED STATE
	_______________________________________________


Detailed state:  trans 41.272 28.590 15.979 quatxyzw -0.295403 0.385145 0.872866 -0.050046 center 8.287 34.468 -0.670 ntor 10 102.2646 20.8776 -18.6642 -97.9268 -124.7296 -176.9701 -32.5483 -0.6994 179.4540 143.8367
State:	 41.272  28.590  15.979  -0.296  0.386  0.874 -174.263    102.26   20.88  -18.66  -97.93 -124.73 -176.97  -32.55   -0.70  179.45  143.84

DOCKED: MODEL       49
DOCKED: USER    Run = 49
DOCKED: USER    DPF = D:/Protein_go_brrr/autodock/final/2DN3/heme_O2/dock.dpf
DOCKED: USER  
DOCKED: USER    Estimated Free Energy of Binding    =  -15.14 kcal/mol  [=(1)+(2)+(3)-(4)]
DOCKED: USER    Estimated Inhibition Constant, Ki   =    8.00 pM (picomolar)  [Temperature = 298.15 K]
DOCKED: USER    
DOCKED: USER    (1) Final Intermolecular Energy     =  -18.12 kcal/mol
DOCKED: USER        vdW + Hbond + desolv Energy     =  -15.81 kcal/mol
DOCKED: USER        Electrostatic Energy            =   -2.31 kcal/mol
DOCKED: USER    (2) Final Total Internal Energy     =   -1.61 kcal/mol
DOCKED: USER    (3) Torsional Free Energy           =   +2.98 kcal/mol
DOCKED: USER    (4) Unbound System's Energy  [=(2)] =   -1.61 kcal/mol
DOCKED: USER    
DOCKED: USER    
DOCKED: USER    NEWDPF move heme_O2_opt.pdbqt
DOCKED: USER    NEWDPF about 8.287000 34.468000 -0.670000
DOCKED: USER    NEWDPF tran0 41.272301 28.590240 15.978866
DOCKED: USER    NEWDPF quaternion0 -0.295403 0.385145 0.872866 -0.050046
DOCKED: USER    NEWDPF axisangle0 -0.295774 0.385628 0.873962 -174.262743
DOCKED: USER    NEWDPF quat0 -0.295774 0.385628 0.873962 -174.262743
DOCKED: USER    NEWDPF dihe0 102.26 20.88 -18.66 -97.93 -124.73 -176.97 -32.55 -0.70 179.45 143.84 
DOCKED: USER  keepresnum = 1 
DOCKED: USER  
DOCKED: REMARK  10 active torsions:
DOCKED: REMARK  status: ('A' for Active; 'I' for Inactive)
DOCKED: REMARK    1  A    between atoms: C_6  and  C_10 
DOCKED: REMARK    2  A    between atoms: C_10  and  C_11 
DOCKED: REMARK    3  A    between atoms: C_11  and  C_12 
DOCKED: REMARK    4  A    between atoms: C_12  and  O_14 
DOCKED: REMARK    5  A    between atoms: C_17  and  C_20 
DOCKED: REMARK    6  A    between atoms: C_24  and  C_27 
DOCKED: REMARK    7  A    between atoms: C_31  and  C_34 
DOCKED: REMARK    8  A    between atoms: C_34  and  C_35 
DOCKED: REMARK    9  A    between atoms: C_35  and  C_36 
DOCKED: REMARK   10  A    between atoms: C_36  and  O_38 
DOCKED: USER                              x       y       z     vdW  Elec       q    Type
DOCKED: USER                           _______ _______ _______ _____ _____    ______ ____
DOCKED: ROOT
DOCKED: ATOM      1  C   UNL d   1      42.999  27.870  16.979 -0.32 +0.02    +0.064 A 
DOCKED: ATOM      2  C   UNL d   1      41.125  32.212  16.535 -0.40 +0.01    +0.064 A 
DOCKED: ATOM      3  C   UNL d   1      37.565  30.496  13.800 -0.39 +0.01    +0.064 C 
DOCKED: ATOM      4  C   UNL d   1      39.215  25.954  14.645 -0.42 +0.01    +0.064 A 
DOCKED: ATOM      5  C   UNL d   1      42.778  29.191  17.083 -0.30 +0.02    +0.066 A 
DOCKED: ATOM      6  C   UNL d   1      43.609  30.071  17.783 -0.32 -0.01    -0.021 A 
DOCKED: ATOM      7  C   UNL d   1      43.044  31.321  17.692 -0.36 -0.01    -0.025 A 
DOCKED: ATOM      8  C   UNL d   1      41.910  31.179  16.898 -0.35 +0.02    +0.066 A 
DOCKED: ATOM      9  C   UNL d   1      43.577  32.564  18.371 -0.39 +0.01    +0.051 C 
DOCKED: ATOM     10  C   UNL d   1      39.935  32.129  15.686 -0.38 +0.01    +0.066 A 
DOCKED: ATOM     11  C   UNL d   1      39.252  33.252  15.207 -0.43 -0.00    -0.021 A 
DOCKED: ATOM     12  C   UNL d   1      38.233  32.778  14.402 -0.41 +0.00    +0.000 A 
DOCKED: ATOM     13  C   UNL d   1      38.347  31.361  14.446 -0.36 +0.01    +0.070 A 
DOCKED: ATOM     14  C   UNL d   1      39.574  34.716  15.484 -0.52 +0.01    +0.052 C 
DOCKED: ATOM     15  C   UNL d   1      37.626  29.055  13.847 -0.37 +0.01    +0.066 A 
DOCKED: ATOM     16  C   UNL d   1      36.677  28.205  13.280 -0.47 -0.00    -0.021 A 
DOCKED: ATOM     17  C   UNL d   1      37.126  26.905  13.509 -0.46 +0.00    +0.000 A 
DOCKED: ATOM     18  C   UNL d   1      38.332  27.061  14.206 -0.38 +0.01    +0.070 A 
DOCKED: ATOM     19  C   UNL d   1      35.413  28.703  12.626 -0.64 +0.01    +0.052 C 
DOCKED: ATOM     20  C   UNL d   1      40.356  26.067  15.352 -0.38 +0.02    +0.066 A 
DOCKED: ATOM     21  C   UNL d   1      41.155  24.988  15.722 -0.43 -0.01    -0.025 A 
DOCKED: ATOM     22  C   UNL d   1      42.251  25.518  16.364 -0.22 -0.01    -0.021 A 
DOCKED: ATOM     23  C   UNL d   1      42.071  26.904  16.379 -0.33 +0.02    +0.066 A 
DOCKED: ATOM     24  C   UNL d   1      40.883  23.527  15.477 -0.53 +0.01    +0.051 C 
DOCKED: ATOM     25  N   UNL d   1      41.711  29.856  16.578 -0.05 -0.09    -0.248 N 
DOCKED: ATOM     26  N   UNL d   1      39.383  30.974  15.234 -0.13 -0.06    -0.248 N 
DOCKED: ATOM     27  N   UNL d   1      38.582  28.370  14.468 -0.21 -0.06    -0.248 N 
DOCKED: ATOM     28  N   UNL d   1      40.896  27.230  15.803 -0.26 -0.07    -0.248 N 
DOCKED: ATOM     29 FE   UNL d   1      40.143  29.088  15.519 -0.07 +0.00    +0.000 Fe
DOCKED: ATOM     30  O   UNL d   1      39.749  29.617  16.929 -0.88 +0.00    +0.000 OA
DOCKED: ATOM     31  O   UNL d   1      39.105  28.285  16.388 -0.62 +0.00    +0.000 OA
DOCKED: ENDROOT
DOCKED: BRANCH   6  32
DOCKED: ATOM     32  C   UNL d   1      44.814  29.731  18.622 -0.27 +0.02    +0.052 C 
DOCKED: BRANCH  32  33
DOCKED: ATOM     33  C   UNL d   1      44.490  29.630  20.110 +0.02 +0.09    +0.115 C 
DOCKED: BRANCH  33  34
DOCKED: ATOM     34  C   UNL d   1      45.307  28.569  20.805 -0.09 +0.19    +0.139 C 
DOCKED: ATOM     35  O   UNL d   1      46.429  28.837  21.204 -0.39 -1.15    -0.650 OA
DOCKED: BRANCH  34  36
DOCKED: ATOM     36  O   UNL d   1      44.836  27.316  20.973 -0.06 -0.90    -0.776 OA
DOCKED: ATOM     37  H   UNL d   1      45.127  26.582  20.419 +0.06 +0.13    +0.167 HD
DOCKED: ENDBRANCH  34  36
DOCKED: ENDBRANCH  33  34
DOCKED: ENDBRANCH  32  33
DOCKED: ENDBRANCH   6  32
DOCKED: BRANCH  22  38
DOCKED: ATOM     38  C   UNL d   1      43.373  24.725  16.984 -0.30 +0.02    +0.052 C 
DOCKED: BRANCH  38  39
DOCKED: ATOM     39  C   UNL d   1      43.423  24.877  18.502 -0.32 +0.05    +0.115 C 
DOCKED: BRANCH  39  40
DOCKED: ATOM     40  C   UNL d   1      44.518  24.049  19.128 -0.20 +0.08    +0.139 C 
DOCKED: ATOM     41  O   UNL d   1      44.835  22.983  18.626 -0.02 -0.39    -0.650 OA
DOCKED: BRANCH  40  42
DOCKED: ATOM     42  O   UNL d   1      45.193  24.490  20.208 -0.13 -0.46    -0.776 OA
DOCKED: ATOM     43  H   UNL d   1      44.813  25.143  20.809 +0.06 +0.11    +0.167 HD
DOCKED: ENDBRANCH  40  42
DOCKED: ENDBRANCH  39  40
DOCKED: ENDBRANCH  38  39
DOCKED: ENDBRANCH  22  38
DOCKED: BRANCH  12  44
DOCKED: ATOM     44  C   UNL d   1      37.272  33.708  13.691 -0.50 +0.00    +0.004 C 
DOCKED: ATOM     45  C   UNL d   1      36.547  33.459  12.600 -0.57 +0.00    +0.012 C 
DOCKED: ENDBRANCH  12  44
DOCKED: BRANCH  17  46
DOCKED: ATOM     46  C   UNL d   1      36.503  25.573  13.186 -0.66 +0.00    +0.004 C 
DOCKED: ATOM     47  C   UNL d   1      35.902  24.715  14.021 -0.70 +0.00    +0.012 C 
DOCKED: ENDBRANCH  17  46
DOCKED: TORSDOF 10
DOCKED: TER
DOCKED: ENDMDL
________________________________________________________________________________


	BEGINNING GENETIC ALGORITHM DOCKING 50 of 100
Run: 50 Seed: 903877463 762292333 [ Run 50 of 100 GA/GALS ]
Beginning LAMARCKIAN GENETIC ALGORITHM (LGA), with a maximum of 25000000 energy evaluations.

Final-Value: -10.447


	FINAL GENETIC ALGORITHM DOCKED STATE
	_______________________________________________


Detailed state:  trans 42.070 46.683 3.102 quatxyzw 0.393823 0.181005 -0.358073 -0.826997 center 8.287 34.468 -0.670 ntor 10 37.2218 102.2299 112.5083 -104.2016 -131.1768 -166.6844 141.4178 -73.3713 17.6594 11.6992
State:	 42.070  46.683   3.102   0.700  0.322 -0.637 -68.417     37.22  102.23  112.51 -104.20 -131.18 -166.68  141.42  -73.37   17.66   11.70

DOCKED: MODEL       50
DOCKED: USER    Run = 50
DOCKED: USER    DPF = D:/Protein_go_brrr/autodock/final/2DN3/heme_O2/dock.dpf
DOCKED: USER  
DOCKED: USER    Estimated Free Energy of Binding    =   -5.40 kcal/mol  [=(1)+(2)+(3)-(4)]
DOCKED: USER    Estimated Inhibition Constant, Ki   =  109.68 uM (micromolar)  [Temperature = 298.15 K]
DOCKED: USER    
DOCKED: USER    (1) Final Intermolecular Energy     =   -8.39 kcal/mol
DOCKED: USER        vdW + Hbond + desolv Energy     =   -7.17 kcal/mol
DOCKED: USER        Electrostatic Energy            =   -1.21 kcal/mol
DOCKED: USER    (2) Final Total Internal Energy     =   -2.06 kcal/mol
DOCKED: USER    (3) Torsional Free Energy           =   +2.98 kcal/mol
DOCKED: USER    (4) Unbound System's Energy  [=(2)] =   -2.06 kcal/mol
DOCKED: USER    
DOCKED: USER    
DOCKED: USER    NEWDPF move heme_O2_opt.pdbqt
DOCKED: USER    NEWDPF about 8.287000 34.468000 -0.670000
DOCKED: USER    NEWDPF tran0 42.069726 46.682793 3.101710
DOCKED: USER    NEWDPF quaternion0 0.393823 0.181005 -0.358073 -0.826997
DOCKED: USER    NEWDPF axisangle0 0.700496 0.321955 -0.636907 -68.416954
DOCKED: USER    NEWDPF quat0 0.700496 0.321955 -0.636907 -68.416954
DOCKED: USER    NEWDPF dihe0 37.22 102.23 112.51 -104.20 -131.18 -166.68 141.42 -73.37 17.66 11.70 
DOCKED: USER  keepresnum = 1 
DOCKED: USER  
DOCKED: REMARK  10 active torsions:
DOCKED: REMARK  status: ('A' for Active; 'I' for Inactive)
DOCKED: REMARK    1  A    between atoms: C_6  and  C_10 
DOCKED: REMARK    2  A    between atoms: C_10  and  C_11 
DOCKED: REMARK    3  A    between atoms: C_11  and  C_12 
DOCKED: REMARK    4  A    between atoms: C_12  and  O_14 
DOCKED: REMARK    5  A    between atoms: C_17  and  C_20 
DOCKED: REMARK    6  A    between atoms: C_24  and  C_27 
DOCKED: REMARK    7  A    between atoms: C_31  and  C_34 
DOCKED: REMARK    8  A    between atoms: C_34  and  C_35 
DOCKED: REMARK    9  A    between atoms: C_35  and  C_36 
DOCKED: REMARK   10  A    between atoms: C_36  and  O_38 
DOCKED: USER                              x       y       z     vdW  Elec       q    Type
DOCKED: USER                           _______ _______ _______ _____ _____    ______ ____
DOCKED: ROOT
DOCKED: ATOM      1  C   UNL d   1      41.230  48.409   4.004 -0.22 -0.00    +0.064 A 
DOCKED: ATOM      2  C   UNL d   1      40.087  43.804   4.212 -0.24 +0.02    +0.064 A 
DOCKED: ATOM      3  C   UNL d   1      43.654  42.687   1.191 -0.08 +0.01    +0.064 C 
DOCKED: ATOM      4  C   UNL d   1      45.137  47.361   1.344 -0.03 -0.00    +0.064 A 
DOCKED: ATOM      5  C   UNL d   1      40.630  47.248   4.308 -0.24 +0.01    +0.066 A 
DOCKED: ATOM      6  C   UNL d   1      39.518  47.138   5.148 -0.37 -0.00    -0.021 A 
DOCKED: ATOM      7  C   UNL d   1      39.213  45.800   5.244 -0.35 -0.01    -0.025 A 
DOCKED: ATOM      8  C   UNL d   1      40.117  45.134   4.421 -0.23 +0.01    +0.066 A 
DOCKED: ATOM      9  C   UNL d   1      38.120  45.222   6.116 -0.25 +0.02    +0.051 C 
DOCKED: ATOM     10  C   UNL d   1      40.994  43.053   3.343 -0.19 +0.02    +0.066 A 
DOCKED: ATOM     11  C   UNL d   1      40.818  41.699   3.034 -0.26 -0.00    -0.021 A 
DOCKED: ATOM     12  C   UNL d   1      41.827  41.363   2.149 -0.19 +0.00    +0.000 A 
DOCKED: ATOM     13  C   UNL d   1      42.585  42.554   1.975 -0.03 +0.01    +0.070 A 
DOCKED: ATOM     14  C   UNL d   1      39.718  40.773   3.539 -0.42 +0.01    +0.052 C 
DOCKED: ATOM     15  C   UNL d   1      44.469  43.865   1.014 -0.08 +0.01    +0.066 A 
DOCKED: ATOM     16  C   UNL d   1      45.672  43.896   0.308 -0.05 -0.00    -0.021 A 
DOCKED: ATOM     17  C   UNL d   1      46.113  45.218   0.339 -0.03 +0.00    +0.000 A 
DOCKED: ATOM     18  C   UNL d   1      45.134  45.905   1.069 -0.04 +0.00    +0.070 A 
DOCKED: ATOM     19  C   UNL d   1      46.312  42.663  -0.280 -0.04 +0.00    +0.052 C 
DOCKED: ATOM     20  C   UNL d   1      44.237  48.044   2.077 -0.06 -0.00    +0.066 A 
DOCKED: ATOM     21  C   UNL d   1      44.283  49.420   2.286 -0.06 +0.00    -0.025 A 
DOCKED: ATOM     22  C   UNL d   1      43.163  49.740   3.020 -0.10 +0.00    -0.021 A 
DOCKED: ATOM     23  C   UNL d   1      42.481  48.540   3.247 -0.12 -0.01    +0.066 A 
DOCKED: ATOM     24  C   UNL d   1      45.344  50.379   1.814 -0.03 -0.00    +0.051 C 
DOCKED: ATOM     25  N   UNL d   1      41.030  46.020   3.896 -0.10 -0.03    -0.248 N 
DOCKED: ATOM     26  N   UNL d   1      42.074  43.576   2.708 -0.07 -0.05    -0.248 N 
DOCKED: ATOM     27  N   UNL d   1      44.183  45.055   1.535 -0.05 -0.02    -0.248 N 
DOCKED: ATOM     28  N   UNL d   1      43.161  47.506   2.711 -0.06 +0.01    -0.248 N 
DOCKED: ATOM     29 FE   UNL d   1      42.624  45.555   2.708 -0.03 +0.00    +0.000 Fe
DOCKED: ATOM     30  O   UNL d   1      42.770  45.061   4.177 -0.34 +0.00    +0.000 OA
DOCKED: ATOM     31  O   UNL d   1      44.019  45.659   3.426 -0.29 -0.00    +0.000 OA
DOCKED: ENDROOT
DOCKED: BRANCH   6  32
DOCKED: ATOM     32  C   UNL d   1      38.850  48.230   5.943 -0.48 +0.01    +0.052 C 
DOCKED: BRANCH  32  33
DOCKED: ATOM     33  C   UNL d   1      37.567  48.737   5.291 -0.04 +0.07    +0.115 C 
DOCKED: BRANCH  33  34
DOCKED: ATOM     34  C   UNL d   1      37.696  48.870   3.794 -0.12 +0.08    +0.139 C 
DOCKED: ATOM     35  O   UNL d   1      37.631  47.874   3.091 -0.48 -0.56    -0.650 OA
DOCKED: BRANCH  34  36
DOCKED: ATOM     36  O   UNL d   1      37.911  50.068   3.211 -0.03 -0.37    -0.776 OA
DOCKED: ATOM     37  H   UNL d   1      38.481  50.735   3.609 +0.04 +0.12    +0.167 HD
DOCKED: ENDBRANCH  34  36
DOCKED: ENDBRANCH  33  34
DOCKED: ENDBRANCH  32  33
DOCKED: ENDBRANCH   6  32
DOCKED: BRANCH  22  38
DOCKED: ATOM     38  C   UNL d   1      42.807  51.114   3.525 -0.14 -0.01    +0.052 C 
DOCKED: BRANCH  38  39
DOCKED: ATOM     39  C   UNL d   1      41.547  51.670   2.864 -0.07 +0.01    +0.115 C 
DOCKED: BRANCH  39  40
DOCKED: ATOM     40  C   UNL d   1      40.352  51.640   3.784 -0.11 +0.06    +0.139 C 
DOCKED: ATOM     41  O   UNL d   1      40.335  50.869   4.730 -0.28 -0.15    -0.650 OA
DOCKED: BRANCH  40  42
DOCKED: ATOM     42  O   UNL d   1      39.320  52.488   3.611 -0.21 -0.60    -0.776 OA
DOCKED: ATOM     43  H   UNL d   1      38.481  52.193   3.238 +0.05 +0.12    +0.167 HD
DOCKED: ENDBRANCH  40  42
DOCKED: ENDBRANCH  39  40
DOCKED: ENDBRANCH  38  39
DOCKED: ENDBRANCH  22  38
DOCKED: BRANCH  12  44
DOCKED: ATOM     44  C   UNL d   1      41.962  39.968   1.577 -0.25 +0.00    +0.004 C 
DOCKED: ATOM     45  C   UNL d   1      42.358  38.860   2.204 -0.41 +0.00    +0.012 C 
DOCKED: ENDBRANCH  12  44
DOCKED: BRANCH  17  46
DOCKED: ATOM     46  C   UNL d   1      47.369  45.853  -0.196 -0.01 +0.00    +0.004 C 
DOCKED: ATOM     47  C   UNL d   1      48.397  46.365   0.493 -0.01 -0.00    +0.012 C 
DOCKED: ENDBRANCH  17  46
DOCKED: TORSDOF 10
DOCKED: TER
DOCKED: ENDMDL
________________________________________________________________________________


	BEGINNING GENETIC ALGORITHM DOCKING 51 of 100
Run: 51 Seed: 176648019 1584410305 [ Run 51 of 100 GA/GALS ]
Beginning LAMARCKIAN GENETIC ALGORITHM (LGA), with a maximum of 25000000 energy evaluations.

Final-Value: -17.839


	FINAL GENETIC ALGORITHM DOCKED STATE
	_______________________________________________


Detailed state:  trans 8.760 35.320 -1.323 quatxyzw 0.061682 0.072328 0.025234 0.995152 center 8.287 34.468 -0.670 ntor 10 -73.2907 -35.9281 -37.8830 -71.4662 79.1896 -169.3077 -42.3086 130.8492 148.9091 -146.4989
State:	  8.760  35.320  -1.323   0.627  0.735  0.257 11.288    -73.29  -35.93  -37.88  -71.47   79.19 -169.31  -42.31  130.85  148.91 -146.50

DOCKED: MODEL       51
DOCKED: USER    Run = 51
DOCKED: USER    DPF = D:/Protein_go_brrr/autodock/final/2DN3/heme_O2/dock.dpf
DOCKED: USER  
DOCKED: USER    Estimated Free Energy of Binding    =  -14.60 kcal/mol  [=(1)+(2)+(3)-(4)]
DOCKED: USER    Estimated Inhibition Constant, Ki   =   19.99 pM (picomolar)  [Temperature = 298.15 K]
DOCKED: USER    
DOCKED: USER    (1) Final Intermolecular Energy     =  -17.58 kcal/mol
DOCKED: USER        vdW + Hbond + desolv Energy     =  -15.71 kcal/mol
DOCKED: USER        Electrostatic Energy            =   -1.86 kcal/mol
DOCKED: USER    (2) Final Total Internal Energy     =   -0.26 kcal/mol
DOCKED: USER    (3) Torsional Free Energy           =   +2.98 kcal/mol
DOCKED: USER    (4) Unbound System's Energy  [=(2)] =   -0.26 kcal/mol
DOCKED: USER    
DOCKED: USER    
DOCKED: USER    NEWDPF move heme_O2_opt.pdbqt
DOCKED: USER    NEWDPF about 8.287000 34.468000 -0.670000
DOCKED: USER    NEWDPF tran0 8.759752 35.319714 -1.322979
DOCKED: USER    NEWDPF quaternion0 0.061682 0.072328 0.025234 0.995152
DOCKED: USER    NEWDPF axisangle0 0.627168 0.735413 0.256569 11.288333
DOCKED: USER    NEWDPF quat0 0.627168 0.735413 0.256569 11.288333
DOCKED: USER    NEWDPF dihe0 -73.29 -35.93 -37.88 -71.47 79.19 -169.31 -42.31 130.85 148.91 -146.50 
DOCKED: USER  keepresnum = 1 
DOCKED: USER  
DOCKED: REMARK  10 active torsions:
DOCKED: REMARK  status: ('A' for Active; 'I' for Inactive)
DOCKED: REMARK    1  A    between atoms: C_6  and  C_10 
DOCKED: REMARK    2  A    between atoms: C_10  and  C_11 
DOCKED: REMARK    3  A    between atoms: C_11  and  C_12 
DOCKED: REMARK    4  A    between atoms: C_12  and  O_14 
DOCKED: REMARK    5  A    between atoms: C_17  and  C_20 
DOCKED: REMARK    6  A    between atoms: C_24  and  C_27 
DOCKED: REMARK    7  A    between atoms: C_31  and  C_34 
DOCKED: REMARK    8  A    between atoms: C_34  and  C_35 
DOCKED: REMARK    9  A    between atoms: C_35  and  C_36 
DOCKED: REMARK   10  A    between atoms: C_36  and  O_38 
DOCKED: USER                              x       y       z     vdW  Elec       q    Type
DOCKED: USER                           _______ _______ _______ _____ _____    ______ ____
DOCKED: ROOT
DOCKED: ATOM      1  C   UNL d   1       7.060  35.892  -2.455 -0.28 +0.01    +0.064 A 
DOCKED: ATOM      2  C   UNL d   1       7.538  33.610   1.682 -0.37 +0.01    +0.064 A 
DOCKED: ATOM      3  C   UNL d   1      12.327  33.852   1.369 -0.40 +0.00    +0.064 C 
DOCKED: ATOM      4  C   UNL d   1      11.842  36.622  -2.651 -0.42 +0.00    +0.064 A 
DOCKED: ATOM      5  C   UNL d   1       6.799  35.253  -1.303 -0.26 +0.01    +0.066 A 
DOCKED: ATOM      6  C   UNL d   1       5.512  34.955  -0.848 -0.28 -0.00    -0.021 A 
DOCKED: ATOM      7  C   UNL d   1       5.647  34.333   0.371 -0.32 -0.00    -0.025 A 
DOCKED: ATOM      8  C   UNL d   1       7.016  34.225   0.604 -0.34 +0.01    +0.066 A 
DOCKED: ATOM      9  C   UNL d   1       4.498  33.903   1.256 -0.35 +0.01    +0.051 C 
DOCKED: ATOM     10  C   UNL d   1       8.964  33.445   1.969 -0.35 +0.01    +0.066 A 
DOCKED: ATOM     11  C   UNL d   1       9.452  32.657   3.017 -0.42 -0.00    -0.021 A 
DOCKED: ATOM     12  C   UNL d   1      10.831  32.700   2.933 -0.42 +0.00    +0.000 A 
DOCKED: ATOM     13  C   UNL d   1      11.113  33.540   1.820 -0.35 +0.01    +0.070 A 
DOCKED: ATOM     14  C   UNL d   1       8.636  31.874   4.040 -0.51 +0.00    +0.052 C 
DOCKED: ATOM     15  C   UNL d   1      12.655  34.727   0.268 -0.34 +0.01    +0.066 A 
DOCKED: ATOM     16  C   UNL d   1      13.946  35.144  -0.052 -0.41 -0.00    -0.021 A 
DOCKED: ATOM     17  C   UNL d   1      13.833  35.935  -1.195 -0.43 +0.00    +0.000 A 
DOCKED: ATOM     18  C   UNL d   1      12.463  35.940  -1.491 -0.37 +0.01    +0.070 A 
DOCKED: ATOM     19  C   UNL d   1      15.153  34.799   0.783 -0.57 +0.00    +0.052 C 
DOCKED: ATOM     20  C   UNL d   1      10.528  36.683  -2.941 -0.39 +0.00    +0.066 A 
DOCKED: ATOM     21  C   UNL d   1      10.004  37.325  -4.059 -0.36 -0.00    -0.025 A 
DOCKED: ATOM     22  C   UNL d   1       8.645  37.104  -4.034 -0.26 -0.00    -0.021 A 
DOCKED: ATOM     23  C   UNL d   1       8.387  36.348  -2.887 -0.33 +0.01    +0.066 A 
DOCKED: ATOM     24  C   UNL d   1      10.761  38.113  -5.096 -0.40 -0.01    +0.051 C 
DOCKED: ATOM     25  N   UNL d   1       7.723  34.850  -0.397 -0.21 -0.05    -0.248 N 
DOCKED: ATOM     26  N   UNL d   1       9.971  33.993   1.243 -0.06 -0.05    -0.248 N 
DOCKED: ATOM     27  N   UNL d   1      11.755  35.264  -0.550 -0.18 -0.03    -0.248 N 
DOCKED: ATOM     28  N   UNL d   1       9.528  36.132  -2.201 -0.26 -0.04    -0.248 N 
DOCKED: ATOM     29 FE   UNL d   1       9.751  35.071  -0.492 -0.07 +0.00    +0.000 Fe
DOCKED: ATOM     30  O   UNL d   1       9.079  35.912   0.633 -0.76 +0.00    +0.000 OA
DOCKED: ATOM     31  O   UNL d   1      10.258  36.533  -0.209 -0.67 +0.00    +0.000 OA
DOCKED: ENDROOT
DOCKED: BRANCH   6  32
DOCKED: ATOM     32  C   UNL d   1       4.198  35.360  -1.464 -0.22 +0.02    +0.052 C 
DOCKED: BRANCH  32  33
DOCKED: ATOM     33  C   UNL d   1       3.267  36.053  -0.474 -0.16 +0.07    +0.115 C 
DOCKED: BRANCH  33  34
DOCKED: ATOM     34  C   UNL d   1       2.614  37.280  -1.060 +0.05 +0.17    +0.139 C 
DOCKED: ATOM     35  O   UNL d   1       3.280  38.284  -1.255 -0.19 -0.78    -0.650 OA
DOCKED: BRANCH  34  36
DOCKED: ATOM     36  O   UNL d   1       1.296  37.304  -1.350 -0.32 -1.41    -0.776 OA
DOCKED: ATOM     37  H   UNL d   1       0.930  36.826  -2.103 +0.02 +0.16    +0.167 HD
DOCKED: ENDBRANCH  34  36
DOCKED: ENDBRANCH  33  34
DOCKED: ENDBRANCH  32  33
DOCKED: ENDBRANCH   6  32
DOCKED: BRANCH  22  38
DOCKED: ATOM     38  C   UNL d   1       7.648  37.648  -5.025 -0.26 +0.00    +0.052 C 
DOCKED: BRANCH  38  39
DOCKED: ATOM     39  C   UNL d   1       7.890  39.122  -5.344 -0.22 -0.00    +0.115 C 
DOCKED: BRANCH  39  40
DOCKED: ATOM     40  C   UNL d   1       8.028  39.966  -4.102 -0.34 -0.01    +0.139 C 
DOCKED: ATOM     41  O   UNL d   1       7.517  39.595  -3.057 -0.07 -0.03    -0.650 OA
DOCKED: BRANCH  40  42
DOCKED: ATOM     42  O   UNL d   1       8.750  41.103  -4.110 +0.02 +0.13    -0.776 OA
DOCKED: ATOM     43  H   UNL d   1       9.537  41.197  -4.660 -0.47 -0.10    +0.167 HD
DOCKED: ENDBRANCH  40  42
DOCKED: ENDBRANCH  39  40
DOCKED: ENDBRANCH  38  39
DOCKED: ENDBRANCH  22  38
DOCKED: BRANCH  12  44
DOCKED: ATOM     44  C   UNL d   1      11.720  31.952   3.905 -0.52 +0.00    +0.004 C 
DOCKED: ATOM     45  C   UNL d   1      12.821  31.253   3.636 -0.62 +0.00    +0.012 C 
DOCKED: ENDBRANCH  12  44
DOCKED: BRANCH  17  46
DOCKED: ATOM     46  C   UNL d   1      14.868  36.708  -1.969 -0.61 +0.00    +0.004 C 
DOCKED: ATOM     47  C   UNL d   1      15.415  37.892  -1.667 -0.66 +0.00    +0.012 C 
DOCKED: ENDBRANCH  17  46
DOCKED: TORSDOF 10
DOCKED: TER
DOCKED: ENDMDL
________________________________________________________________________________


	BEGINNING GENETIC ALGORITHM DOCKING 52 of 100
Run: 52 Seed: 1683445745 1313839804 [ Run 52 of 100 GA/GALS ]
Beginning LAMARCKIAN GENETIC ALGORITHM (LGA), with a maximum of 25000000 energy evaluations.

Final-Value: -10.875


	FINAL GENETIC ALGORITHM DOCKED STATE
	_______________________________________________


Detailed state:  trans 26.159 44.676 -2.507 quatxyzw -0.608626 0.298506 0.697854 0.231232 center 8.287 34.468 -0.670 ntor 10 129.1111 -122.4564 75.2296 -101.1813 149.3400 180.0000 -91.8500 -84.8735 146.2219 -17.9623
State:	 26.159  44.676  -2.507  -0.626  0.307  0.717 153.261    129.11 -122.46   75.23 -101.18  149.34  180.00  -91.85  -84.87  146.22  -17.96

DOCKED: MODEL       52
DOCKED: USER    Run = 52
DOCKED: USER    DPF = D:/Protein_go_brrr/autodock/final/2DN3/heme_O2/dock.dpf
DOCKED: USER  
DOCKED: USER    Estimated Free Energy of Binding    =   -7.39 kcal/mol  [=(1)+(2)+(3)-(4)]
DOCKED: USER    Estimated Inhibition Constant, Ki   =    3.84 uM (micromolar)  [Temperature = 298.15 K]
DOCKED: USER    
DOCKED: USER    (1) Final Intermolecular Energy     =  -10.37 kcal/mol
DOCKED: USER        vdW + Hbond + desolv Energy     =   -7.91 kcal/mol
DOCKED: USER        Electrostatic Energy            =   -2.46 kcal/mol
DOCKED: USER    (2) Final Total Internal Energy     =   -0.50 kcal/mol
DOCKED: USER    (3) Torsional Free Energy           =   +2.98 kcal/mol
DOCKED: USER    (4) Unbound System's Energy  [=(2)] =   -0.50 kcal/mol
DOCKED: USER    
DOCKED: USER    
DOCKED: USER    NEWDPF move heme_O2_opt.pdbqt
DOCKED: USER    NEWDPF about 8.287000 34.468000 -0.670000
DOCKED: USER    NEWDPF tran0 26.159271 44.675859 -2.506691
DOCKED: USER    NEWDPF quaternion0 -0.608626 0.298506 0.697854 0.231232
DOCKED: USER    NEWDPF axisangle0 -0.625580 0.306822 0.717293 153.260805
DOCKED: USER    NEWDPF quat0 -0.625580 0.306822 0.717293 153.260805
DOCKED: USER    NEWDPF dihe0 129.11 -122.46 75.23 -101.18 149.34 180.00 -91.85 -84.87 146.22 -17.96 
DOCKED: USER  keepresnum = 1 
DOCKED: USER  
DOCKED: REMARK  10 active torsions:
DOCKED: REMARK  status: ('A' for Active; 'I' for Inactive)
DOCKED: REMARK    1  A    between atoms: C_6  and  C_10 
DOCKED: REMARK    2  A    between atoms: C_10  and  C_11 
DOCKED: REMARK    3  A    between atoms: C_11  and  C_12 
DOCKED: REMARK    4  A    between atoms: C_12  and  O_14 
DOCKED: REMARK    5  A    between atoms: C_17  and  C_20 
DOCKED: REMARK    6  A    between atoms: C_24  and  C_27 
DOCKED: REMARK    7  A    between atoms: C_31  and  C_34 
DOCKED: REMARK    8  A    between atoms: C_34  and  C_35 
DOCKED: REMARK    9  A    between atoms: C_35  and  C_36 
DOCKED: REMARK   10  A    between atoms: C_36  and  O_38 
DOCKED: USER                              x       y       z     vdW  Elec       q    Type
DOCKED: USER                           _______ _______ _______ _____ _____    ______ ____
DOCKED: ROOT
DOCKED: ATOM      1  C   UNL d   1      27.209  45.420  -0.821 -0.13 +0.02    +0.064 A 
DOCKED: ATOM      2  C   UNL d   1      23.481  47.065  -3.260 -0.15 +0.01    +0.064 A 
DOCKED: ATOM      3  C   UNL d   1      23.686  43.326  -6.273 -0.18 +0.01    +0.064 C 
DOCKED: ATOM      4  C   UNL d   1      27.222  41.378  -3.485 -0.16 +0.01    +0.064 A 
DOCKED: ATOM      5  C   UNL d   1      26.177  46.172  -1.237 -0.06 +0.02    +0.066 A 
DOCKED: ATOM      6  C   UNL d   1      25.793  47.375  -0.638 -0.09 -0.01    -0.021 A 
DOCKED: ATOM      7  C   UNL d   1      24.686  47.830  -1.317 -0.10 -0.00    -0.025 A 
DOCKED: ATOM      8  C   UNL d   1      24.455  46.917  -2.342 -0.08 +0.01    +0.066 A 
DOCKED: ATOM      9  C   UNL d   1      23.896  49.068  -0.953 -0.10 +0.00    +0.051 C 
DOCKED: ATOM     10  C   UNL d   1      23.204  46.153  -4.372 -0.19 +0.00    +0.066 A 
DOCKED: ATOM     11  C   UNL d   1      22.288  46.438  -5.390 -0.14 -0.00    -0.021 A 
DOCKED: ATOM     12  C   UNL d   1      22.345  45.379  -6.278 -0.15 +0.00    +0.000 A 
DOCKED: ATOM     13  C   UNL d   1      23.307  44.484  -5.733 -0.18 +0.01    +0.070 A 
DOCKED: ATOM     14  C   UNL d   1      21.414  47.679  -5.525 -0.10 -0.00    +0.052 C 
DOCKED: ATOM     15  C   UNL d   1      24.629  42.375  -5.735 -0.05 +0.01    +0.066 A 
DOCKED: ATOM     16  C   UNL d   1      24.861  41.106  -6.265 -0.13 -0.00    -0.021 A 
DOCKED: ATOM     17  C   UNL d   1      25.865  40.532  -5.485 -0.18 +0.00    +0.000 A 
DOCKED: ATOM     18  C   UNL d   1      26.176  41.507  -4.527 -0.19 +0.01    +0.070 A 
DOCKED: ATOM     19  C   UNL d   1      24.075  40.540  -7.420 -0.14 +0.01    +0.052 C 
DOCKED: ATOM     20  C   UNL d   1      27.515  42.276  -2.525 -0.15 +0.01    +0.066 A 
DOCKED: ATOM     21  C   UNL d   1      28.524  42.107  -1.581 -0.12 -0.01    -0.025 A 
DOCKED: ATOM     22  C   UNL d   1      28.554  43.260  -0.830 -0.11 -0.01    -0.021 A 
DOCKED: ATOM     23  C   UNL d   1      27.545  44.087  -1.334 -0.14 +0.02    +0.066 A 
DOCKED: ATOM     24  C   UNL d   1      29.413  40.903  -1.402 -0.09 +0.01    +0.051 C 
DOCKED: ATOM     25  N   UNL d   1      25.334  45.862  -2.253 -0.10 -0.05    -0.248 N 
DOCKED: ATOM     26  N   UNL d   1      23.820  44.960  -4.570 -0.16 -0.03    -0.248 N 
DOCKED: ATOM     27  N   UNL d   1      25.364  42.589  -4.647 -0.16 -0.05    -0.248 N 
DOCKED: ATOM     28  N   UNL d   1      26.887  43.466  -2.335 -0.12 -0.06    -0.248 N 
DOCKED: ATOM     29 FE   UNL d   1      25.365  44.205  -3.446 -0.04 +0.00    +0.000 Fe
DOCKED: ATOM     30  O   UNL d   1      24.130  44.276  -2.500 -0.31 +0.00    +0.000 OA
DOCKED: ATOM     31  O   UNL d   1      24.847  42.894  -2.748 -0.54 +0.00    +0.000 OA
DOCKED: ENDROOT
DOCKED: BRANCH   6  32
DOCKED: ATOM     32  C   UNL d   1      26.355  48.006   0.609 -0.12 +0.02    +0.052 C 
DOCKED: BRANCH  32  33
DOCKED: ATOM     33  C   UNL d   1      25.274  48.409   1.608 -0.14 +0.04    +0.115 C 
DOCKED: BRANCH  33  34
DOCKED: ATOM     34  C   UNL d   1      24.880  47.274   2.519 -0.23 +0.10    +0.139 C 
DOCKED: ATOM     35  O   UNL d   1      25.400  46.178   2.378 -0.22 -0.93    -0.650 OA
DOCKED: BRANCH  34  36
DOCKED: ATOM     36  O   UNL d   1      23.941  47.432   3.475 +0.06 -0.32    -0.776 OA
DOCKED: ATOM     37  H   UNL d   1      23.200  46.823   3.569 -0.48 -0.02    +0.167 HD
DOCKED: ENDBRANCH  34  36
DOCKED: ENDBRANCH  33  34
DOCKED: ENDBRANCH  32  33
DOCKED: ENDBRANCH   6  32
DOCKED: BRANCH  22  38
DOCKED: ATOM     38  C   UNL d   1      29.459  43.521   0.346 -0.13 +0.02    +0.052 C 
DOCKED: BRANCH  38  39
DOCKED: ATOM     39  C   UNL d   1      30.835  44.029  -0.080 -0.11 +0.08    +0.115 C 
DOCKED: BRANCH  39  40
DOCKED: ATOM     40  C   UNL d   1      30.918  45.535  -0.082 -0.15 +0.12    +0.139 C 
DOCKED: ATOM     41  O   UNL d   1      29.945  46.195  -0.408 +0.02 -0.32    -0.650 OA
DOCKED: BRANCH  40  42
DOCKED: ATOM     42  O   UNL d   1      32.036  46.170   0.320 -0.53 -1.39    -0.776 OA
DOCKED: ATOM     43  H   UNL d   1      32.028  46.782   1.066 -0.55 +0.19    +0.167 HD
DOCKED: ENDBRANCH  40  42
DOCKED: ENDBRANCH  39  40
DOCKED: ENDBRANCH  38  39
DOCKED: ENDBRANCH  22  38
DOCKED: BRANCH  12  44
DOCKED: ATOM     44  C   UNL d   1      21.492  45.332  -7.529 -0.13 +0.00    +0.004 C 
DOCKED: ATOM     45  C   UNL d   1      20.453  44.537  -7.781 -0.25 +0.00    +0.012 C 
DOCKED: ENDBRANCH  12  44
DOCKED: BRANCH  17  46
DOCKED: ATOM     46  C   UNL d   1      26.492  39.164  -5.533 -0.16 +0.00    +0.004 C 
DOCKED: ATOM     47  C   UNL d   1      26.337  38.150  -4.672 -0.23 +0.00    +0.012 C 
DOCKED: ENDBRANCH  17  46
DOCKED: TORSDOF 10
DOCKED: TER
DOCKED: ENDMDL
________________________________________________________________________________


	BEGINNING GENETIC ALGORITHM DOCKING 53 of 100
Run: 53 Seed: 1776758390 1816874205 [ Run 53 of 100 GA/GALS ]
Beginning LAMARCKIAN GENETIC ALGORITHM (LGA), with a maximum of 25000000 energy evaluations.

Final-Value: -20.485


	FINAL GENETIC ALGORITHM DOCKED STATE
	_______________________________________________


Detailed state:  trans 41.489 28.706 16.324 quatxyzw 0.330383 -0.392496 -0.858274 0.012627 center 8.287 34.468 -0.670 ntor 10 -0.4859 24.4765 -13.4869 -49.7323 -135.2533 -105.2837 -13.3609 31.4128 -112.2312 41.3214
State:	 41.489  28.706  16.324   0.330 -0.393 -0.858 178.553     -0.49   24.48  -13.49  -49.73 -135.25 -105.28  -13.36   31.41 -112.23   41.32

DOCKED: MODEL       53
DOCKED: USER    Run = 53
DOCKED: USER    DPF = D:/Protein_go_brrr/autodock/final/2DN3/heme_O2/dock.dpf
DOCKED: USER  
DOCKED: USER    Estimated Free Energy of Binding    =  -16.15 kcal/mol  [=(1)+(2)+(3)-(4)]
DOCKED: USER    Estimated Inhibition Constant, Ki   =    1.45 pM (picomolar)  [Temperature = 298.15 K]
DOCKED: USER    
DOCKED: USER    (1) Final Intermolecular Energy     =  -19.14 kcal/mol
DOCKED: USER        vdW + Hbond + desolv Energy     =  -16.51 kcal/mol
DOCKED: USER        Electrostatic Energy            =   -2.63 kcal/mol
DOCKED: USER    (2) Final Total Internal Energy     =   -1.35 kcal/mol
DOCKED: USER    (3) Torsional Free Energy           =   +2.98 kcal/mol
DOCKED: USER    (4) Unbound System's Energy  [=(2)] =   -1.35 kcal/mol
DOCKED: USER    
DOCKED: USER    
DOCKED: USER    NEWDPF move heme_O2_opt.pdbqt
DOCKED: USER    NEWDPF about 8.287000 34.468000 -0.670000
DOCKED: USER    NEWDPF tran0 41.489336 28.705851 16.323585
DOCKED: USER    NEWDPF quaternion0 0.330383 -0.392496 -0.858274 0.012627
DOCKED: USER    NEWDPF axisangle0 0.330409 -0.392528 -0.858343 178.553010
DOCKED: USER    NEWDPF quat0 0.330409 -0.392528 -0.858343 178.553010
DOCKED: USER    NEWDPF dihe0 -0.49 24.48 -13.49 -49.73 -135.25 -105.28 -13.36 31.41 -112.23 41.32 
DOCKED: USER  keepresnum = 1 
DOCKED: USER  
DOCKED: REMARK  10 active torsions:
DOCKED: REMARK  status: ('A' for Active; 'I' for Inactive)
DOCKED: REMARK    1  A    between atoms: C_6  and  C_10 
DOCKED: REMARK    2  A    between atoms: C_10  and  C_11 
DOCKED: REMARK    3  A    between atoms: C_11  and  C_12 
DOCKED: REMARK    4  A    between atoms: C_12  and  O_14 
DOCKED: REMARK    5  A    between atoms: C_17  and  C_20 
DOCKED: REMARK    6  A    between atoms: C_24  and  C_27 
DOCKED: REMARK    7  A    between atoms: C_31  and  C_34 
DOCKED: REMARK    8  A    between atoms: C_34  and  C_35 
DOCKED: REMARK    9  A    between atoms: C_35  and  C_36 
DOCKED: REMARK   10  A    between atoms: C_36  and  O_38 
DOCKED: USER                              x       y       z     vdW  Elec       q    Type
DOCKED: USER                           _______ _______ _______ _____ _____    ______ ____
DOCKED: ROOT
DOCKED: ATOM      1  C   UNL d   1      43.227  28.188  17.424 -0.27 +0.02    +0.064 A 
DOCKED: ATOM      2  C   UNL d   1      41.010  32.323  16.687 -0.42 +0.01    +0.064 A 
DOCKED: ATOM      3  C   UNL d   1      37.728  30.175  13.911 -0.40 +0.01    +0.064 C 
DOCKED: ATOM      4  C   UNL d   1      39.723  25.840  15.049 -0.36 +0.01    +0.064 A 
DOCKED: ATOM      5  C   UNL d   1      42.891  29.488  17.452 -0.30 +0.02    +0.066 A 
DOCKED: ATOM      6  C   UNL d   1      43.613  30.469  18.137 -0.32 -0.01    -0.021 A 
DOCKED: ATOM      7  C   UNL d   1      42.948  31.660  17.960 -0.39 -0.01    -0.025 A 
DOCKED: ATOM      8  C   UNL d   1      41.864  31.382  17.132 -0.38 +0.02    +0.066 A 
DOCKED: ATOM      9  C   UNL d   1      43.344  32.975  18.594 -0.44 +0.01    +0.051 C 
DOCKED: ATOM     10  C   UNL d   1      39.869  32.096  15.799 -0.38 +0.01    +0.066 A 
DOCKED: ATOM     11  C   UNL d   1      39.113  33.131  15.237 -0.43 -0.00    -0.021 A 
DOCKED: ATOM     12  C   UNL d   1      38.173  32.532  14.419 -0.40 +0.00    +0.000 A 
DOCKED: ATOM     13  C   UNL d   1      38.406  31.134  14.541 -0.35 +0.01    +0.070 A 
DOCKED: ATOM     14  C   UNL d   1      39.297  34.629  15.451 -0.55 +0.01    +0.052 C 
DOCKED: ATOM     15  C   UNL d   1      37.910  28.748  14.034 -0.36 +0.01    +0.066 A 
DOCKED: ATOM     16  C   UNL d   1      37.062  27.792  13.476 -0.43 -0.00    -0.021 A 
DOCKED: ATOM     17  C   UNL d   1      37.610  26.548  13.788 -0.46 +0.00    +0.000 A 
DOCKED: ATOM     18  C   UNL d   1      38.768  26.843  14.521 -0.38 +0.01    +0.070 A 
DOCKED: ATOM     19  C   UNL d   1      35.788  28.146  12.749 -0.62 +0.01    +0.052 C 
DOCKED: ATOM     20  C   UNL d   1      40.819  26.085  15.793 -0.38 +0.02    +0.066 A 
DOCKED: ATOM     21  C   UNL d   1      41.690  25.099  16.247 -0.37 -0.01    -0.025 A 
DOCKED: ATOM     22  C   UNL d   1      42.710  25.753  16.903 -0.31 -0.01    -0.021 A 
DOCKED: ATOM     23  C   UNL d   1      42.412  27.117  16.840 -0.33 +0.02    +0.066 A 
DOCKED: ATOM     24  C   UNL d   1      41.555  23.609  16.068 -0.54 +0.01    +0.051 C 
DOCKED: ATOM     25  N   UNL d   1      41.792  30.032  16.873 -0.22 -0.08    -0.248 N 
DOCKED: ATOM     26  N   UNL d   1      39.437  30.878  15.386 -0.11 -0.06    -0.248 N 
DOCKED: ATOM     27  N   UNL d   1      38.894  28.179  14.725 -0.18 -0.06    -0.248 N 
DOCKED: ATOM     28  N   UNL d   1      41.238  27.311  16.203 -0.27 -0.08    -0.248 N 
DOCKED: ATOM     29 FE   UNL d   1      40.342  29.080  15.796 -0.09 +0.00    +0.000 Fe
DOCKED: ATOM     30  O   UNL d   1      39.846  29.640  17.161 -0.83 +0.00    +0.000 OA
DOCKED: ATOM     31  O   UNL d   1      39.341  28.233  16.665 -0.76 +0.00    +0.000 OA
DOCKED: ENDROOT
DOCKED: BRANCH   6  32
DOCKED: ATOM     32  C   UNL d   1      44.806  30.277  19.037 -0.28 +0.03    +0.052 C 
DOCKED: BRANCH  32  33
DOCKED: ATOM     33  C   UNL d   1      44.820  28.912  19.719 -0.18 +0.08    +0.115 C 
DOCKED: BRANCH  33  34
DOCKED: ATOM     34  C   UNL d   1      46.168  28.577  20.307 -0.15 +0.14    +0.139 C 
DOCKED: ATOM     35  O   UNL d   1      46.538  29.138  21.326 -0.45 -1.20    -0.650 OA
DOCKED: BRANCH  34  36
DOCKED: ATOM     36  O   UNL d   1      46.991  27.687  19.716 +0.06 -0.52    -0.776 OA
DOCKED: ATOM     37  H   UNL d   1      46.751  27.231  18.901 +0.05 +0.09    +0.167 HD
DOCKED: ENDBRANCH  34  36
DOCKED: ENDBRANCH  33  34
DOCKED: ENDBRANCH  32  33
DOCKED: ENDBRANCH   6  32
DOCKED: BRANCH  22  38
DOCKED: ATOM     38  C   UNL d   1      43.868  25.092  17.604 -0.31 +0.02    +0.052 C 
DOCKED: BRANCH  38  39
DOCKED: ATOM     39  C   UNL d   1      45.168  25.878  17.447 -0.24 +0.06    +0.115 C 
DOCKED: BRANCH  39  40
DOCKED: ATOM     40  C   UNL d   1      46.385  24.987  17.461 -0.25 +0.11    +0.139 C 
DOCKED: ATOM     41  O   UNL d   1      46.352  23.907  16.895 -0.41 -0.90    -0.650 OA
DOCKED: BRANCH  40  42
DOCKED: ATOM     42  O   UNL d   1      47.532  25.385  18.047 +0.03 -0.54    -0.776 OA
DOCKED: ATOM     43  H   UNL d   1      47.534  26.017  18.775 +0.04 +0.10    +0.167 HD
DOCKED: ENDBRANCH  40  42
DOCKED: ENDBRANCH  39  40
DOCKED: ENDBRANCH  38  39
DOCKED: ENDBRANCH  22  38
DOCKED: BRANCH  12  44
DOCKED: ATOM     44  C   UNL d   1      37.167  33.339  13.625 -0.49 +0.00    +0.004 C 
DOCKED: ATOM     45  C   UNL d   1      36.443  32.944  12.579 -0.56 +0.00    +0.012 C 
DOCKED: ENDBRANCH  12  44
DOCKED: BRANCH  17  46
DOCKED: ATOM     46  C   UNL d   1      37.117  25.153  13.511 -0.65 +0.00    +0.004 C 
DOCKED: ATOM     47  C   UNL d   1      35.944  24.606  13.854 -0.70 +0.00    +0.012 C 
DOCKED: ENDBRANCH  17  46
DOCKED: TORSDOF 10
DOCKED: TER
DOCKED: ENDMDL
________________________________________________________________________________


	BEGINNING GENETIC ALGORITHM DOCKING 54 of 100
Run: 54 Seed: 1712873994 294428525 [ Run 54 of 100 GA/GALS ]
Beginning LAMARCKIAN GENETIC ALGORITHM (LGA), with a maximum of 25000000 energy evaluations.

Final-Value: -20.479


	FINAL GENETIC ALGORITHM DOCKED STATE
	_______________________________________________


Detailed state:  trans 41.094 29.103 16.162 quatxyzw -0.373372 0.402868 0.835121 -0.029395 center 8.287 34.468 -0.670 ntor 10 -162.6113 -74.3060 36.4384 -62.5916 111.9582 148.3861 61.3312 21.5787 -39.1685 172.4828
State:	 41.094  29.103  16.162  -0.374  0.403  0.835 -176.631   -162.61  -74.31   36.44  -62.59  111.96  148.39   61.33   21.58  -39.17  172.48

DOCKED: MODEL       54
DOCKED: USER    Run = 54
DOCKED: USER    DPF = D:/Protein_go_brrr/autodock/final/2DN3/heme_O2/dock.dpf
DOCKED: USER  
DOCKED: USER    Estimated Free Energy of Binding    =  -15.33 kcal/mol  [=(1)+(2)+(3)-(4)]
DOCKED: USER    Estimated Inhibition Constant, Ki   =    5.75 pM (picomolar)  [Temperature = 298.15 K]
DOCKED: USER    
DOCKED: USER    (1) Final Intermolecular Energy     =  -18.32 kcal/mol
DOCKED: USER        vdW + Hbond + desolv Energy     =  -16.45 kcal/mol
DOCKED: USER        Electrostatic Energy            =   -1.87 kcal/mol
DOCKED: USER    (2) Final Total Internal Energy     =   -2.16 kcal/mol
DOCKED: USER    (3) Torsional Free Energy           =   +2.98 kcal/mol
DOCKED: USER    (4) Unbound System's Energy  [=(2)] =   -2.16 kcal/mol
DOCKED: USER    
DOCKED: USER    
DOCKED: USER    NEWDPF move heme_O2_opt.pdbqt
DOCKED: USER    NEWDPF about 8.287000 34.468000 -0.670000
DOCKED: USER    NEWDPF tran0 41.093840 29.102562 16.162398
DOCKED: USER    NEWDPF quaternion0 -0.373372 0.402868 0.835121 -0.029395
DOCKED: USER    NEWDPF axisangle0 -0.373534 0.403042 0.835482 -176.631077
DOCKED: USER    NEWDPF quat0 -0.373534 0.403042 0.835482 -176.631077
DOCKED: USER    NEWDPF dihe0 -162.61 -74.31 36.44 -62.59 111.96 148.39 61.33 21.58 -39.17 172.48 
DOCKED: USER  keepresnum = 1 
DOCKED: USER  
DOCKED: REMARK  10 active torsions:
DOCKED: REMARK  status: ('A' for Active; 'I' for Inactive)
DOCKED: REMARK    1  A    between atoms: C_6  and  C_10 
DOCKED: REMARK    2  A    between atoms: C_10  and  C_11 
DOCKED: REMARK    3  A    between atoms: C_11  and  C_12 
DOCKED: REMARK    4  A    between atoms: C_12  and  O_14 
DOCKED: REMARK    5  A    between atoms: C_17  and  C_20 
DOCKED: REMARK    6  A    between atoms: C_24  and  C_27 
DOCKED: REMARK    7  A    between atoms: C_31  and  C_34 
DOCKED: REMARK    8  A    between atoms: C_34  and  C_35 
DOCKED: REMARK    9  A    between atoms: C_35  and  C_36 
DOCKED: REMARK   10  A    between atoms: C_36  and  O_38 
DOCKED: USER                              x       y       z     vdW  Elec       q    Type
DOCKED: USER                           _______ _______ _______ _____ _____    ______ ____
DOCKED: ROOT
DOCKED: ATOM      1  C   UNL d   1      42.709  28.612  17.447 -0.15 +0.02    +0.064 A 
DOCKED: ATOM      2  C   UNL d   1      40.593  32.729  16.382 -0.42 +0.01    +0.064 A 
DOCKED: ATOM      3  C   UNL d   1      37.603  30.512  13.342 -0.41 +0.01    +0.064 C 
DOCKED: ATOM      4  C   UNL d   1      39.455  26.206  14.789 -0.39 +0.01    +0.064 A 
DOCKED: ATOM      5  C   UNL d   1      42.376  29.912  17.407 -0.29 +0.02    +0.066 A 
DOCKED: ATOM      6  C   UNL d   1      43.029  30.910  18.136 -0.37 -0.01    -0.021 A 
DOCKED: ATOM      7  C   UNL d   1      42.389  32.096  17.862 -0.45 -0.01    -0.025 A 
DOCKED: ATOM      8  C   UNL d   1      41.394  31.798  16.935 -0.40 +0.01    +0.066 A 
DOCKED: ATOM      9  C   UNL d   1      42.724  33.428  18.499 -0.42 +0.01    +0.051 C 
DOCKED: ATOM     10  C   UNL d   1      39.548  32.480  15.388 -0.39 +0.01    +0.066 A 
DOCKED: ATOM     11  C   UNL d   1      38.857  33.500  14.726 -0.42 -0.00    -0.021 A 
DOCKED: ATOM     12  C   UNL d   1      38.003  32.882  13.832 -0.40 +0.00    +0.000 A 
DOCKED: ATOM     13  C   UNL d   1      38.217  31.487  14.013 -0.37 +0.01    +0.070 A 
DOCKED: ATOM     14  C   UNL d   1      39.024  35.003  14.918 -0.54 +0.01    +0.052 C 
DOCKED: ATOM     15  C   UNL d   1      37.766  29.089  13.520 -0.39 +0.01    +0.066 A 
DOCKED: ATOM     16  C   UNL d   1      36.976  28.120  12.903 -0.48 -0.00    -0.021 A 
DOCKED: ATOM     17  C   UNL d   1      37.485  26.884  13.301 -0.46 +0.00    +0.000 A 
DOCKED: ATOM     18  C   UNL d   1      38.563  27.196  14.141 -0.37 +0.01    +0.070 A 
DOCKED: ATOM     19  C   UNL d   1      35.784  28.456  12.042 -0.66 +0.01    +0.052 C 
DOCKED: ATOM     20  C   UNL d   1      40.471  26.470  15.634 -0.37 +0.02    +0.066 A 
DOCKED: ATOM     21  C   UNL d   1      41.288  25.495  16.200 -0.38 -0.01    -0.025 A 
DOCKED: ATOM     22  C   UNL d   1      42.238  26.164  16.939 -0.36 -0.01    -0.021 A 
DOCKED: ATOM     23  C   UNL d   1      41.953  27.527  16.811 -0.31 +0.02    +0.066 A 
DOCKED: ATOM     24  C   UNL d   1      41.166  24.001  16.047 -0.53 +0.01    +0.051 C 
DOCKED: ATOM     25  N   UNL d   1      41.344  30.443  16.705 -0.18 -0.08    -0.248 N 
DOCKED: ATOM     26  N   UNL d   1      39.155  31.251  14.965 -0.23 -0.05    -0.248 N 
DOCKED: ATOM     27  N   UNL d   1      38.672  28.537  14.322 -0.21 -0.06    -0.248 N 
DOCKED: ATOM     28  N   UNL d   1      40.851  27.706  16.053 -0.22 -0.09    -0.248 N 
DOCKED: ATOM     29 FE   UNL d   1      40.007  29.464  15.512 -0.06 +0.00    +0.000 Fe
DOCKED: ATOM     30  O   UNL d   1      39.377  30.060  16.804 -0.61 +0.00    +0.000 OA
DOCKED: ATOM     31  O   UNL d   1      38.920  28.641  16.295 -0.60 +0.00    +0.000 OA
DOCKED: ENDROOT
DOCKED: BRANCH   6  32
DOCKED: ATOM     32  C   UNL d   1      44.123  30.740  19.159 -0.34 +0.02    +0.052 C 
DOCKED: BRANCH  32  33
DOCKED: ATOM     33  C   UNL d   1      45.207  29.765  18.710 -0.22 +0.05    +0.115 C 
DOCKED: BRANCH  33  34
DOCKED: ATOM     34  C   UNL d   1      45.359  28.599  19.655 -0.20 +0.10    +0.139 C 
DOCKED: ATOM     35  O   UNL d   1      45.274  28.783  20.859 -0.09 -0.91    -0.650 OA
DOCKED: BRANCH  34  36
DOCKED: ATOM     36  O   UNL d   1      45.616  27.355  19.201 +0.08 -0.47    -0.776 OA
DOCKED: ATOM     37  H   UNL d   1      45.471  26.573  19.746 +0.06 +0.11    +0.167 HD
DOCKED: ENDBRANCH  34  36
DOCKED: ENDBRANCH  33  34
DOCKED: ENDBRANCH  32  33
DOCKED: ENDBRANCH   6  32
DOCKED: BRANCH  22  38
DOCKED: ATOM     38  C   UNL d   1      43.316  25.521  17.772 -0.34 +0.02    +0.052 C 
DOCKED: BRANCH  38  39
DOCKED: ATOM     39  C   UNL d   1      42.833  25.165  19.176 -0.38 +0.04    +0.115 C 
DOCKED: BRANCH  39  40
DOCKED: ATOM     40  C   UNL d   1      43.971  24.991  20.150 -0.27 +0.08    +0.139 C 
DOCKED: ATOM     41  O   UNL d   1      44.746  24.057  20.017 -0.48 -0.41    -0.650 OA
DOCKED: BRANCH  40  42
DOCKED: ATOM     42  O   UNL d   1      44.181  25.879  21.141 +0.00 -0.57    -0.776 OA
DOCKED: ATOM     43  H   UNL d   1      44.520  26.764  20.962 +0.05 +0.16    +0.167 HD
DOCKED: ENDBRANCH  40  42
DOCKED: ENDBRANCH  39  40
DOCKED: ENDBRANCH  38  39
DOCKED: ENDBRANCH  22  38
DOCKED: BRANCH  12  44
DOCKED: ATOM     44  C   UNL d   1      37.086  33.669  12.919 -0.51 +0.00    +0.004 C 
DOCKED: ATOM     45  C   UNL d   1      35.880  33.322  12.472 -0.64 -0.00    +0.012 C 
DOCKED: ENDBRANCH  12  44
DOCKED: BRANCH  17  46
DOCKED: ATOM     46  C   UNL d   1      37.017  25.483  13.011 -0.64 +0.00    +0.004 C 
DOCKED: ATOM     47  C   UNL d   1      35.909  24.872  13.450 -0.69 +0.00    +0.012 C 
DOCKED: ENDBRANCH  17  46
DOCKED: TORSDOF 10
DOCKED: TER
DOCKED: ENDMDL
________________________________________________________________________________


	BEGINNING GENETIC ALGORITHM DOCKING 55 of 100
Run: 55 Seed: 838976843 2101626910 [ Run 55 of 100 GA/GALS ]
Beginning LAMARCKIAN GENETIC ALGORITHM (LGA), with a maximum of 25000000 energy evaluations.

Final-Value: -19.108


	FINAL GENETIC ALGORITHM DOCKED STATE
	_______________________________________________


Detailed state:  trans 8.840 34.923 -0.900 quatxyzw -0.023668 -0.041820 -0.044127 -0.997870 center 8.287 34.468 -0.670 ntor 10 82.9516 123.3495 22.7011 -110.0243 -137.6286 94.3125 -16.6108 55.6375 -175.1565 141.8203
State:	  8.840  34.923  -0.900  -0.363 -0.641 -0.676 -7.481     82.95  123.35   22.70 -110.02 -137.63   94.31  -16.61   55.64 -175.16  141.82

DOCKED: MODEL       55
DOCKED: USER    Run = 55
DOCKED: USER    DPF = D:/Protein_go_brrr/autodock/final/2DN3/heme_O2/dock.dpf
DOCKED: USER  
DOCKED: USER    Estimated Free Energy of Binding    =  -13.94 kcal/mol  [=(1)+(2)+(3)-(4)]
DOCKED: USER    Estimated Inhibition Constant, Ki   =   60.75 pM (picomolar)  [Temperature = 298.15 K]
DOCKED: USER    
DOCKED: USER    (1) Final Intermolecular Energy     =  -16.92 kcal/mol
DOCKED: USER        vdW + Hbond + desolv Energy     =  -15.12 kcal/mol
DOCKED: USER        Electrostatic Energy            =   -1.80 kcal/mol
DOCKED: USER    (2) Final Total Internal Energy     =   -2.19 kcal/mol
DOCKED: USER    (3) Torsional Free Energy           =   +2.98 kcal/mol
DOCKED: USER    (4) Unbound System's Energy  [=(2)] =   -2.19 kcal/mol
DOCKED: USER    
DOCKED: USER    
DOCKED: USER    NEWDPF move heme_O2_opt.pdbqt
DOCKED: USER    NEWDPF about 8.287000 34.468000 -0.670000
DOCKED: USER    NEWDPF tran0 8.839624 34.922820 -0.900396
DOCKED: USER    NEWDPF quaternion0 -0.023668 -0.041820 -0.044127 -0.997870
DOCKED: USER    NEWDPF axisangle0 -0.362779 -0.641018 -0.676378 -7.481305
DOCKED: USER    NEWDPF quat0 -0.362779 -0.641018 -0.676378 -7.481305
DOCKED: USER    NEWDPF dihe0 82.95 123.35 22.70 -110.02 -137.63 94.31 -16.61 55.64 -175.16 141.82 
DOCKED: USER  keepresnum = 1 
DOCKED: USER  
DOCKED: REMARK  10 active torsions:
DOCKED: REMARK  status: ('A' for Active; 'I' for Inactive)
DOCKED: REMARK    1  A    between atoms: C_6  and  C_10 
DOCKED: REMARK    2  A    between atoms: C_10  and  C_11 
DOCKED: REMARK    3  A    between atoms: C_11  and  C_12 
DOCKED: REMARK    4  A    between atoms: C_12  and  O_14 
DOCKED: REMARK    5  A    between atoms: C_17  and  C_20 
DOCKED: REMARK    6  A    between atoms: C_24  and  C_27 
DOCKED: REMARK    7  A    between atoms: C_31  and  C_34 
DOCKED: REMARK    8  A    between atoms: C_34  and  C_35 
DOCKED: REMARK    9  A    between atoms: C_35  and  C_36 
DOCKED: REMARK   10  A    between atoms: C_36  and  O_38 
DOCKED: USER                              x       y       z     vdW  Elec       q    Type
DOCKED: USER                           _______ _______ _______ _____ _____    ______ ____
DOCKED: ROOT
DOCKED: ATOM      1  C   UNL d   1       7.103  35.642  -1.883 -0.28 +0.01    +0.064 A 
DOCKED: ATOM      2  C   UNL d   1       7.722  33.016   2.026 -0.40 +0.01    +0.064 A 
DOCKED: ATOM      3  C   UNL d   1      12.492  33.123   1.454 -0.45 +0.00    +0.064 C 
DOCKED: ATOM      4  C   UNL d   1      11.891  36.225  -2.299 -0.41 +0.00    +0.064 A 
DOCKED: ATOM      5  C   UNL d   1       6.882  34.921  -0.772 -0.30 +0.01    +0.066 A 
DOCKED: ATOM      6  C   UNL d   1       5.611  34.630  -0.267 -0.30 -0.00    -0.021 A 
DOCKED: ATOM      7  C   UNL d   1       5.791  33.906   0.889 -0.34 -0.00    -0.025 A 
DOCKED: ATOM      8  C   UNL d   1       7.165  33.734   1.032 -0.35 +0.01    +0.066 A 
DOCKED: ATOM      9  C   UNL d   1       4.676  33.445   1.803 -0.39 +0.01    +0.051 C 
DOCKED: ATOM     10  C   UNL d   1       9.154  32.781   2.216 -0.39 +0.00    +0.066 A 
DOCKED: ATOM     11  C   UNL d   1       9.669  31.895   3.168 -0.47 -0.00    -0.021 A 
DOCKED: ATOM     12  C   UNL d   1      11.042  31.898   3.007 -0.44 +0.00    +0.000 A 
DOCKED: ATOM     13  C   UNL d   1      11.294  32.816   1.950 -0.37 +0.00    +0.070 A 
DOCKED: ATOM     14  C   UNL d   1       8.882  31.059   4.171 -0.58 +0.00    +0.052 C 
DOCKED: ATOM     15  C   UNL d   1      12.792  34.073   0.410 -0.36 +0.01    +0.066 A 
DOCKED: ATOM     16  C   UNL d   1      14.078  34.471   0.048 -0.45 -0.00    -0.021 A 
DOCKED: ATOM     17  C   UNL d   1      13.932  35.356  -1.020 -0.43 +0.00    +0.000 A 
DOCKED: ATOM     18  C   UNL d   1      12.548  35.431  -1.234 -0.34 +0.01    +0.070 A 
DOCKED: ATOM     19  C   UNL d   1      15.316  34.019   0.782 -0.60 +0.00    +0.052 C 
DOCKED: ATOM     20  C   UNL d   1      10.566  36.353  -2.505 -0.38 +0.01    +0.066 A 
DOCKED: ATOM     21  C   UNL d   1      10.005  37.101  -3.537 -0.37 -0.00    -0.025 A 
DOCKED: ATOM     22  C   UNL d   1       8.643  36.925  -3.450 -0.34 -0.00    -0.021 A 
DOCKED: ATOM     23  C   UNL d   1       8.420  36.086  -2.353 -0.32 +0.01    +0.066 A 
DOCKED: ATOM     24  C   UNL d   1      10.733  37.945  -4.551 -0.49 -0.00    +0.051 C 
DOCKED: ATOM     25  N   UNL d   1       7.839  34.415   0.044 -0.11 -0.05    -0.248 N 
DOCKED: ATOM     26  N   UNL d   1      10.140  33.352   1.477 -0.22 -0.03    -0.248 N 
DOCKED: ATOM     27  N   UNL d   1      11.869  34.705  -0.310 -0.08 -0.04    -0.248 N 
DOCKED: ATOM     28  N   UNL d   1       9.589  35.777  -1.755 -0.21 -0.05    -0.248 N 
DOCKED: ATOM     29 FE   UNL d   1       9.865  34.574  -0.151 -0.07 +0.00    +0.000 Fe
DOCKED: ATOM     30  O   UNL d   1       9.289  35.343   1.074 -0.65 +0.00    +0.000 OA
DOCKED: ATOM     31  O   UNL d   1      10.442  35.991   0.217 -0.68 +0.00    +0.000 OA
DOCKED: ENDROOT
DOCKED: BRANCH   6  32
DOCKED: ATOM     32  C   UNL d   1       4.282  35.127  -0.772 -0.25 +0.02    +0.052 C 
DOCKED: BRANCH  32  33
DOCKED: ATOM     33  C   UNL d   1       3.834  36.417  -0.091 +0.02 +0.07    +0.115 C 
DOCKED: BRANCH  33  34
DOCKED: ATOM     34  C   UNL d   1       2.775  37.146  -0.880 +0.01 +0.16    +0.139 C 
DOCKED: ATOM     35  O   UNL d   1       1.645  36.688  -0.940 -0.29 -0.86    -0.650 OA
DOCKED: BRANCH  34  36
DOCKED: ATOM     36  O   UNL d   1       3.054  38.284  -1.548 -0.12 -0.95    -0.776 OA
DOCKED: ATOM     37  H   UNL d   1       3.443  38.276  -2.431 +0.03 +0.12    +0.167 HD
DOCKED: ENDBRANCH  34  36
DOCKED: ENDBRANCH  33  34
DOCKED: ENDBRANCH  32  33
DOCKED: ENDBRANCH   6  32
DOCKED: BRANCH  22  38
DOCKED: ATOM     38  C   UNL d   1       7.614  37.580  -4.335 -0.28 +0.00    +0.052 C 
DOCKED: BRANCH  38  39
DOCKED: ATOM     39  C   UNL d   1       6.690  38.516  -3.559 -0.21 +0.01    +0.115 C 
DOCKED: BRANCH  39  40
DOCKED: ATOM     40  C   UNL d   1       5.233  38.184  -3.760 -0.12 +0.03    +0.139 C 
DOCKED: ATOM     41  O   UNL d   1       4.478  39.024  -4.222 +0.03 -0.18    -0.650 OA
DOCKED: BRANCH  40  42
DOCKED: ATOM     42  O   UNL d   1       4.755  36.955  -3.486 +0.05 -0.20    -0.776 OA
DOCKED: ATOM     43  H   UNL d   1       4.004  36.825  -2.894 +0.04 +0.06    +0.167 HD
DOCKED: ENDBRANCH  40  42
DOCKED: ENDBRANCH  39  40
DOCKED: ENDBRANCH  38  39
DOCKED: ENDBRANCH  22  38
DOCKED: BRANCH  12  44
DOCKED: ATOM     44  C   UNL d   1      11.954  31.045   3.864 -0.57 +0.00    +0.004 C 
DOCKED: ATOM     45  C   UNL d   1      13.266  31.186   4.055 -0.67 +0.00    +0.012 C 
DOCKED: ENDBRANCH  12  44
DOCKED: BRANCH  17  46
DOCKED: ATOM     46  C   UNL d   1      14.951  36.154  -1.789 -0.55 +0.00    +0.004 C 
DOCKED: ATOM     47  C   UNL d   1      15.066  37.485  -1.877 -0.65 +0.00    +0.012 C 
DOCKED: ENDBRANCH  17  46
DOCKED: TORSDOF 10
DOCKED: TER
DOCKED: ENDMDL
________________________________________________________________________________


	BEGINNING GENETIC ALGORITHM DOCKING 56 of 100
Run: 56 Seed: 1583315193 603770965 [ Run 56 of 100 GA/GALS ]
Beginning LAMARCKIAN GENETIC ALGORITHM (LGA), with a maximum of 25000000 energy evaluations.

Final-Value: -16.881


	FINAL GENETIC ALGORITHM DOCKED STATE
	_______________________________________________


Detailed state:  trans 8.858 34.993 -0.952 quatxyzw 0.021038 0.040614 0.012921 0.998870 center 8.287 34.468 -0.670 ntor 10 1.2999 -148.6917 15.4711 -75.9517 19.6730 179.8250 -9.0657 21.3078 -169.4483 -142.4782
State:	  8.858  34.993  -0.952   0.443  0.855  0.272  5.449      1.30 -148.69   15.47  -75.95   19.67  179.82   -9.07   21.31 -169.45 -142.48

DOCKED: MODEL       56
DOCKED: USER    Run = 56
DOCKED: USER    DPF = D:/Protein_go_brrr/autodock/final/2DN3/heme_O2/dock.dpf
DOCKED: USER  
DOCKED: USER    Estimated Free Energy of Binding    =  -13.64 kcal/mol  [=(1)+(2)+(3)-(4)]
DOCKED: USER    Estimated Inhibition Constant, Ki   =   99.84 pM (picomolar)  [Temperature = 298.15 K]
DOCKED: USER    
DOCKED: USER    (1) Final Intermolecular Energy     =  -16.63 kcal/mol
DOCKED: USER        vdW + Hbond + desolv Energy     =  -15.08 kcal/mol
DOCKED: USER        Electrostatic Energy            =   -1.55 kcal/mol
DOCKED: USER    (2) Final Total Internal Energy     =   -0.25 kcal/mol
DOCKED: USER    (3) Torsional Free Energy           =   +2.98 kcal/mol
DOCKED: USER    (4) Unbound System's Energy  [=(2)] =   -0.25 kcal/mol
DOCKED: USER    
DOCKED: USER    
DOCKED: USER    NEWDPF move heme_O2_opt.pdbqt
DOCKED: USER    NEWDPF about 8.287000 34.468000 -0.670000
DOCKED: USER    NEWDPF tran0 8.858413 34.993135 -0.951586
DOCKED: USER    NEWDPF quaternion0 0.021038 0.040614 0.012921 0.998870
DOCKED: USER    NEWDPF axisangle0 0.442631 0.854505 0.271842 5.448537
DOCKED: USER    NEWDPF quat0 0.442631 0.854505 0.271842 5.448537
DOCKED: USER    NEWDPF dihe0 1.30 -148.69 15.47 -75.95 19.67 179.82 -9.07 21.31 -169.45 -142.48 
DOCKED: USER  keepresnum = 1 
DOCKED: USER  
DOCKED: REMARK  10 active torsions:
DOCKED: REMARK  status: ('A' for Active; 'I' for Inactive)
DOCKED: REMARK    1  A    between atoms: C_6  and  C_10 
DOCKED: REMARK    2  A    between atoms: C_10  and  C_11 
DOCKED: REMARK    3  A    between atoms: C_11  and  C_12 
DOCKED: REMARK    4  A    between atoms: C_12  and  O_14 
DOCKED: REMARK    5  A    between atoms: C_17  and  C_20 
DOCKED: REMARK    6  A    between atoms: C_24  and  C_27 
DOCKED: REMARK    7  A    between atoms: C_31  and  C_34 
DOCKED: REMARK    8  A    between atoms: C_34  and  C_35 
DOCKED: REMARK    9  A    between atoms: C_35  and  C_36 
DOCKED: REMARK   10  A    between atoms: C_36  and  O_38 
DOCKED: USER                              x       y       z     vdW  Elec       q    Type
DOCKED: USER                           _______ _______ _______ _____ _____    ______ ____
DOCKED: ROOT
DOCKED: ATOM      1  C   UNL d   1       7.076  35.605  -1.926 -0.28 +0.01    +0.064 A 
DOCKED: ATOM      2  C   UNL d   1       7.873  33.013   1.974 -0.40 +0.01    +0.064 A 
DOCKED: ATOM      3  C   UNL d   1      12.625  33.419   1.385 -0.44 +0.00    +0.064 C 
DOCKED: ATOM      4  C   UNL d   1      11.817  36.487  -2.357 -0.40 +0.00    +0.064 A 
DOCKED: ATOM      5  C   UNL d   1       6.905  34.868  -0.816 -0.30 +0.01    +0.066 A 
DOCKED: ATOM      6  C   UNL d   1       5.657  34.497  -0.308 -0.30 -0.00    -0.021 A 
DOCKED: ATOM      7  C   UNL d   1       5.886  33.783   0.845 -0.33 -0.00    -0.025 A 
DOCKED: ATOM      8  C   UNL d   1       7.268  33.697   0.983 -0.34 +0.01    +0.066 A 
DOCKED: ATOM      9  C   UNL d   1       4.806  33.251   1.762 -0.37 +0.01    +0.051 C 
DOCKED: ATOM     10  C   UNL d   1       9.318  32.867   2.157 -0.38 +0.00    +0.066 A 
DOCKED: ATOM     11  C   UNL d   1       9.891  32.012   3.105 -0.46 -0.00    -0.021 A 
DOCKED: ATOM     12  C   UNL d   1      11.261  32.102   2.939 -0.43 +0.00    +0.000 A 
DOCKED: ATOM     13  C   UNL d   1      11.450  33.037   1.883 -0.37 +0.00    +0.070 A 
DOCKED: ATOM     14  C   UNL d   1       9.162  31.126   4.109 -0.60 +0.00    +0.052 C 
DOCKED: ATOM     15  C   UNL d   1      12.861  34.388   0.341 -0.36 +0.01    +0.066 A 
DOCKED: ATOM     16  C   UNL d   1      14.119  34.867  -0.023 -0.43 -0.00    -0.021 A 
DOCKED: ATOM     17  C   UNL d   1      13.913  35.744  -1.088 -0.43 +0.00    +0.000 A 
DOCKED: ATOM     18  C   UNL d   1      12.527  35.733  -1.297 -0.37 +0.01    +0.070 A 
DOCKED: ATOM     19  C   UNL d   1      15.385  34.492   0.705 -0.60 +0.00    +0.052 C 
DOCKED: ATOM     20  C   UNL d   1      10.486  36.532  -2.558 -0.38 +0.01    +0.066 A 
DOCKED: ATOM     21  C   UNL d   1       9.876  37.247  -3.586 -0.38 -0.00    -0.025 A 
DOCKED: ATOM     22  C   UNL d   1       8.527  36.985  -3.495 -0.34 -0.00    -0.021 A 
DOCKED: ATOM     23  C   UNL d   1       8.361  36.132  -2.400 -0.33 +0.01    +0.066 A 
DOCKED: ATOM     24  C   UNL d   1      10.545  38.137  -4.600 -0.49 -0.00    +0.051 C 
DOCKED: ATOM     25  N   UNL d   1       7.895  34.421  -0.005 -0.06 -0.05    -0.248 N 
DOCKED: ATOM     26  N   UNL d   1      10.263  33.501   1.417 -0.22 -0.03    -0.248 N 
DOCKED: ATOM     27  N   UNL d   1      11.897  34.963  -0.373 -0.14 -0.03    -0.248 N 
DOCKED: ATOM     28  N   UNL d   1       9.549  35.895  -1.806 -0.23 -0.05    -0.248 N 
DOCKED: ATOM     29 FE   UNL d   1       9.906  34.707  -0.207 -0.07 +0.00    +0.000 Fe
DOCKED: ATOM     30  O   UNL d   1       9.288  35.436   1.022 -0.65 +0.00    +0.000 OA
DOCKED: ATOM     31  O   UNL d   1      10.395  36.156   0.163 -0.62 +0.00    +0.000 OA
DOCKED: ENDROOT
DOCKED: BRANCH   6  32
DOCKED: ATOM     32  C   UNL d   1       4.297  34.912  -0.806 -0.25 +0.01    +0.052 C 
DOCKED: BRANCH  32  33
DOCKED: ATOM     33  C   UNL d   1       3.833  36.243  -0.223 -0.18 +0.06    +0.115 C 
DOCKED: BRANCH  33  34
DOCKED: ATOM     34  C   UNL d   1       2.610  36.782  -0.923 -0.07 +0.14    +0.139 C 
DOCKED: ATOM     35  O   UNL d   1       2.591  37.944  -1.296 -0.08 -1.00    -0.650 OA
DOCKED: BRANCH  34  36
DOCKED: ATOM     36  O   UNL d   1       1.519  36.015  -1.123 -0.10 -0.66    -0.776 OA
DOCKED: ATOM     37  H   UNL d   1       1.469  35.104  -0.809 +0.03 +0.09    +0.167 HD
DOCKED: ENDBRANCH  34  36
DOCKED: ENDBRANCH  33  34
DOCKED: ENDBRANCH  32  33
DOCKED: ENDBRANCH   6  32
DOCKED: BRANCH  22  38
DOCKED: ATOM     38  C   UNL d   1       7.456  37.578  -4.374 -0.27 +0.00    +0.052 C 
DOCKED: BRANCH  38  39
DOCKED: ATOM     39  C   UNL d   1       7.696  39.057  -4.667 -0.24 +0.00    +0.115 C 
DOCKED: BRANCH  39  40
DOCKED: ATOM     40  C   UNL d   1       6.441  39.768  -5.110 -0.13 +0.01    +0.139 C 
DOCKED: ATOM     41  O   UNL d   1       5.624  39.180  -5.802 +0.05 -0.07    -0.650 OA
DOCKED: BRANCH  40  42
DOCKED: ATOM     42  O   UNL d   1       6.178  41.028  -4.714 +0.09 -0.09    -0.776 OA
DOCKED: ATOM     43  H   UNL d   1       5.276  41.328  -4.551 +0.06 +0.03    +0.167 HD
DOCKED: ENDBRANCH  40  42
DOCKED: ENDBRANCH  39  40
DOCKED: ENDBRANCH  38  39
DOCKED: ENDBRANCH  22  38
DOCKED: BRANCH  12  44
DOCKED: ATOM     44  C   UNL d   1      12.227  31.305   3.790 -0.58 +0.00    +0.004 C 
DOCKED: ATOM     45  C   UNL d   1      13.550  31.444   3.875 -0.66 +0.00    +0.012 C 
DOCKED: ENDBRANCH  12  44
DOCKED: BRANCH  17  46
DOCKED: ATOM     46  C   UNL d   1      14.877  36.606  -1.859 -0.60 +0.00    +0.004 C 
DOCKED: ATOM     47  C   UNL d   1      15.351  37.816  -1.532 -0.64 +0.00    +0.012 C 
DOCKED: ENDBRANCH  17  46
DOCKED: TORSDOF 10
DOCKED: TER
DOCKED: ENDMDL
________________________________________________________________________________


	BEGINNING GENETIC ALGORITHM DOCKING 57 of 100
Run: 57 Seed: 253397373 595378393 [ Run 57 of 100 GA/GALS ]
Beginning LAMARCKIAN GENETIC ALGORITHM (LGA), with a maximum of 25000000 energy evaluations.

Final-Value: -18.667


	FINAL GENETIC ALGORITHM DOCKED STATE
	_______________________________________________


Detailed state:  trans 8.674 34.834 -0.838 quatxyzw 0.036322 0.029414 0.007174 0.998881 center 8.287 34.468 -0.670 ntor 10 109.8258 -98.1327 -16.4246 -56.1404 130.7132 -175.9558 -23.5129 21.2437 -147.4046 146.2150
State:	  8.674  34.834  -0.838   0.768  0.622  0.152  5.421    109.83  -98.13  -16.42  -56.14  130.71 -175.96  -23.51   21.24 -147.40  146.22

DOCKED: MODEL       57
DOCKED: USER    Run = 57
DOCKED: USER    DPF = D:/Protein_go_brrr/autodock/final/2DN3/heme_O2/dock.dpf
DOCKED: USER  
DOCKED: USER    Estimated Free Energy of Binding    =  -13.66 kcal/mol  [=(1)+(2)+(3)-(4)]
DOCKED: USER    Estimated Inhibition Constant, Ki   =   97.39 pM (picomolar)  [Temperature = 298.15 K]
DOCKED: USER    
DOCKED: USER    (1) Final Intermolecular Energy     =  -16.64 kcal/mol
DOCKED: USER        vdW + Hbond + desolv Energy     =  -15.03 kcal/mol
DOCKED: USER        Electrostatic Energy            =   -1.61 kcal/mol
DOCKED: USER    (2) Final Total Internal Energy     =   -2.03 kcal/mol
DOCKED: USER    (3) Torsional Free Energy           =   +2.98 kcal/mol
DOCKED: USER    (4) Unbound System's Energy  [=(2)] =   -2.03 kcal/mol
DOCKED: USER    
DOCKED: USER    
DOCKED: USER    NEWDPF move heme_O2_opt.pdbqt
DOCKED: USER    NEWDPF about 8.287000 34.468000 -0.670000
DOCKED: USER    NEWDPF tran0 8.673826 34.834364 -0.837856
DOCKED: USER    NEWDPF quaternion0 0.036322 0.029414 0.007174 0.998881
DOCKED: USER    NEWDPF axisangle0 0.768135 0.622054 0.151713 5.420520
DOCKED: USER    NEWDPF quat0 0.768135 0.622054 0.151713 5.420520
DOCKED: USER    NEWDPF dihe0 109.83 -98.13 -16.42 -56.14 130.71 -175.96 -23.51 21.24 -147.40 146.22 
DOCKED: USER  keepresnum = 1 
DOCKED: USER  
DOCKED: REMARK  10 active torsions:
DOCKED: REMARK  status: ('A' for Active; 'I' for Inactive)
DOCKED: REMARK    1  A    between atoms: C_6  and  C_10 
DOCKED: REMARK    2  A    between atoms: C_10  and  C_11 
DOCKED: REMARK    3  A    between atoms: C_11  and  C_12 
DOCKED: REMARK    4  A    between atoms: C_12  and  O_14 
DOCKED: REMARK    5  A    between atoms: C_17  and  C_20 
DOCKED: REMARK    6  A    between atoms: C_24  and  C_27 
DOCKED: REMARK    7  A    between atoms: C_31  and  C_34 
DOCKED: REMARK    8  A    between atoms: C_34  and  C_35 
DOCKED: REMARK    9  A    between atoms: C_35  and  C_36 
DOCKED: REMARK   10  A    between atoms: C_36  and  O_38 
DOCKED: USER                              x       y       z     vdW  Elec       q    Type
DOCKED: USER                           _______ _______ _______ _____ _____    ______ ____
DOCKED: ROOT
DOCKED: ATOM      1  C   UNL d   1       6.864  35.399  -1.789 -0.27 +0.01    +0.064 A 
DOCKED: ATOM      2  C   UNL d   1       7.776  32.936   2.169 -0.41 +0.01    +0.064 A 
DOCKED: ATOM      3  C   UNL d   1      12.509  33.369   1.457 -0.43 +0.00    +0.064 C 
DOCKED: ATOM      4  C   UNL d   1      11.584  36.312  -2.357 -0.40 +0.00    +0.064 A 
DOCKED: ATOM      5  C   UNL d   1       6.726  34.695  -0.653 -0.30 +0.01    +0.066 A 
DOCKED: ATOM      6  C   UNL d   1       5.493  34.328  -0.105 -0.30 -0.00    -0.021 A 
DOCKED: ATOM      7  C   UNL d   1       5.755  33.652   1.064 -0.34 -0.00    -0.025 A 
DOCKED: ATOM      8  C   UNL d   1       7.142  33.583   1.172 -0.36 +0.01    +0.066 A 
DOCKED: ATOM      9  C   UNL d   1       4.702  33.138   2.021 -0.40 +0.00    +0.051 C 
DOCKED: ATOM     10  C   UNL d   1       9.226  32.810   2.323 -0.39 +0.00    +0.066 A 
DOCKED: ATOM     11  C   UNL d   1       9.829  31.990   3.283 -0.46 -0.00    -0.021 A 
DOCKED: ATOM     12  C   UNL d   1      11.194  32.087   3.083 -0.44 +0.00    +0.000 A 
DOCKED: ATOM     13  C   UNL d   1      11.349  32.991   1.995 -0.37 +0.00    +0.070 A 
DOCKED: ATOM     14  C   UNL d   1       9.132  31.128   4.330 -0.61 +0.00    +0.052 C 
DOCKED: ATOM     15  C   UNL d   1      12.711  34.307   0.380 -0.35 +0.01    +0.066 A 
DOCKED: ATOM     16  C   UNL d   1      13.955  34.787  -0.028 -0.43 -0.00    -0.021 A 
DOCKED: ATOM     17  C   UNL d   1      13.716  35.629  -1.114 -0.43 +0.00    +0.000 A 
DOCKED: ATOM     18  C   UNL d   1      12.326  35.598  -1.291 -0.35 +0.01    +0.070 A 
DOCKED: ATOM     19  C   UNL d   1      15.241  34.446   0.682 -0.59 +0.00    +0.052 C 
DOCKED: ATOM     20  C   UNL d   1      10.248  36.339  -2.528 -0.38 +0.01    +0.066 A 
DOCKED: ATOM     21  C   UNL d   1       9.608  37.015  -3.563 -0.34 -0.00    -0.025 A 
DOCKED: ATOM     22  C   UNL d   1       8.264  36.744  -3.432 -0.33 -0.00    -0.021 A 
DOCKED: ATOM     23  C   UNL d   1       8.132  35.923  -2.308 -0.31 +0.01    +0.066 A 
DOCKED: ATOM     24  C   UNL d   1      10.245  37.880  -4.619 -0.48 -0.00    +0.051 C 
DOCKED: ATOM     25  N   UNL d   1       7.738  34.282   0.148 -0.15 -0.04    -0.248 N 
DOCKED: ATOM     26  N   UNL d   1      10.147  33.429   1.542 -0.22 -0.03    -0.248 N 
DOCKED: ATOM     27  N   UNL d   1      11.725  34.851  -0.329 -0.07 -0.04    -0.248 N 
DOCKED: ATOM     28  N   UNL d   1       9.336  35.716  -1.736 -0.21 -0.05    -0.248 N 
DOCKED: ATOM     29 FE   UNL d   1       9.741  34.582  -0.109 -0.07 +0.00    +0.000 Fe
DOCKED: ATOM     30  O   UNL d   1       9.144  35.342   1.111 -0.60 +0.00    +0.000 OA
DOCKED: ATOM     31  O   UNL d   1      10.224  36.045   0.205 -0.72 +0.00    +0.000 OA
DOCKED: ENDROOT
DOCKED: BRANCH   6  32
DOCKED: ATOM     32  C   UNL d   1       4.118  34.714  -0.584 -0.25 +0.01    +0.052 C 
DOCKED: BRANCH  32  33
DOCKED: ATOM     33  C   UNL d   1       3.862  36.216  -0.502 -0.20 +0.06    +0.115 C 
DOCKED: BRANCH  33  34
DOCKED: ATOM     34  C   UNL d   1       2.824  36.678  -1.495 -0.17 +0.11    +0.139 C 
DOCKED: ATOM     35  O   UNL d   1       2.572  35.987  -2.469 +0.02 -0.30    -0.650 OA
DOCKED: BRANCH  34  36
DOCKED: ATOM     36  O   UNL d   1       2.185  37.857  -1.347 -0.04 -1.36    -0.776 OA
DOCKED: ATOM     37  H   UNL d   1       2.346  38.603  -1.936 +0.02 +0.24    +0.167 HD
DOCKED: ENDBRANCH  34  36
DOCKED: ENDBRANCH  33  34
DOCKED: ENDBRANCH  32  33
DOCKED: ENDBRANCH   6  32
DOCKED: BRANCH  22  38
DOCKED: ATOM     38  C   UNL d   1       7.168  37.299  -4.305 -0.26 +0.00    +0.052 C 
DOCKED: BRANCH  38  39
DOCKED: ATOM     39  C   UNL d   1       6.262  38.272  -3.553 -0.16 +0.02    +0.115 C 
DOCKED: BRANCH  39  40
DOCKED: ATOM     40  C   UNL d   1       4.925  38.453  -4.227 -0.09 +0.03    +0.139 C 
DOCKED: ATOM     41  O   UNL d   1       4.842  38.366  -5.441 +0.03 -0.11    -0.650 OA
DOCKED: BRANCH  40  42
DOCKED: ATOM     42  O   UNL d   1       3.806  38.660  -3.507 +0.05 -0.32    -0.776 OA
DOCKED: ATOM     43  H   UNL d   1       3.218  37.934  -3.268 +0.03 +0.08    +0.167 HD
DOCKED: ENDBRANCH  40  42
DOCKED: ENDBRANCH  39  40
DOCKED: ENDBRANCH  38  39
DOCKED: ENDBRANCH  22  38
DOCKED: BRANCH  12  44
DOCKED: ATOM     44  C   UNL d   1      12.188  31.326   3.935 -0.58 +0.00    +0.004 C 
DOCKED: ATOM     45  C   UNL d   1      13.451  31.019   3.642 -0.68 +0.00    +0.012 C 
DOCKED: ENDBRANCH  12  44
DOCKED: BRANCH  17  46
DOCKED: ATOM     46  C   UNL d   1      14.654  36.475  -1.933 -0.58 +0.00    +0.004 C 
DOCKED: ATOM     47  C   UNL d   1      15.404  37.509  -1.529 -0.64 +0.00    +0.012 C 
DOCKED: ENDBRANCH  17  46
DOCKED: TORSDOF 10
DOCKED: TER
DOCKED: ENDMDL
________________________________________________________________________________


	BEGINNING GENETIC ALGORITHM DOCKING 58 of 100
Run: 58 Seed: 965841476 386754257 [ Run 58 of 100 GA/GALS ]
Beginning LAMARCKIAN GENETIC ALGORITHM (LGA), with a maximum of 25000000 energy evaluations.

Final-Value: -20.108


	FINAL GENETIC ALGORITHM DOCKED STATE
	_______________________________________________


Detailed state:  trans 41.511 28.564 16.229 quatxyzw -0.289675 0.387416 0.874257 -0.040880 center 8.287 34.468 -0.670 ntor 10 -16.9343 176.4020 -23.1840 -26.0527 -130.5428 111.1901 -14.9460 72.2082 -153.5450 180.0000
State:	 41.511  28.564  16.229  -0.290  0.388  0.875 -175.314    -16.93  176.40  -23.18  -26.05 -130.54  111.19  -14.95   72.21 -153.55  180.00

DOCKED: MODEL       58
DOCKED: USER    Run = 58
DOCKED: USER    DPF = D:/Protein_go_brrr/autodock/final/2DN3/heme_O2/dock.dpf
DOCKED: USER  
DOCKED: USER    Estimated Free Energy of Binding    =  -15.09 kcal/mol  [=(1)+(2)+(3)-(4)]
DOCKED: USER    Estimated Inhibition Constant, Ki   =    8.73 pM (picomolar)  [Temperature = 298.15 K]
DOCKED: USER    
DOCKED: USER    (1) Final Intermolecular Energy     =  -18.07 kcal/mol
DOCKED: USER        vdW + Hbond + desolv Energy     =  -16.01 kcal/mol
DOCKED: USER        Electrostatic Energy            =   -2.06 kcal/mol
DOCKED: USER    (2) Final Total Internal Energy     =   -2.04 kcal/mol
DOCKED: USER    (3) Torsional Free Energy           =   +2.98 kcal/mol
DOCKED: USER    (4) Unbound System's Energy  [=(2)] =   -2.04 kcal/mol
DOCKED: USER    
DOCKED: USER    
DOCKED: USER    NEWDPF move heme_O2_opt.pdbqt
DOCKED: USER    NEWDPF about 8.287000 34.468000 -0.670000
DOCKED: USER    NEWDPF tran0 41.510618 28.564437 16.228898
DOCKED: USER    NEWDPF quaternion0 -0.289675 0.387416 0.874257 -0.040880
DOCKED: USER    NEWDPF axisangle0 -0.289918 0.387740 0.874989 -175.314147
DOCKED: USER    NEWDPF quat0 -0.289918 0.387740 0.874989 -175.314147
DOCKED: USER    NEWDPF dihe0 -16.93 176.40 -23.18 -26.05 -130.54 111.19 -14.95 72.21 -153.55 180.00 
DOCKED: USER  keepresnum = 1 
DOCKED: USER  
DOCKED: REMARK  10 active torsions:
DOCKED: REMARK  status: ('A' for Active; 'I' for Inactive)
DOCKED: REMARK    1  A    between atoms: C_6  and  C_10 
DOCKED: REMARK    2  A    between atoms: C_10  and  C_11 
DOCKED: REMARK    3  A    between atoms: C_11  and  C_12 
DOCKED: REMARK    4  A    between atoms: C_12  and  O_14 
DOCKED: REMARK    5  A    between atoms: C_17  and  C_20 
DOCKED: REMARK    6  A    between atoms: C_24  and  C_27 
DOCKED: REMARK    7  A    between atoms: C_31  and  C_34 
DOCKED: REMARK    8  A    between atoms: C_34  and  C_35 
DOCKED: REMARK    9  A    between atoms: C_35  and  C_36 
DOCKED: REMARK   10  A    between atoms: C_36  and  O_38 
DOCKED: USER                              x       y       z     vdW  Elec       q    Type
DOCKED: USER                           _______ _______ _______ _____ _____    ______ ____
DOCKED: ROOT
DOCKED: ATOM      1  C   UNL d   1      43.262  27.870  17.203 -0.30 +0.02    +0.064 A 
DOCKED: ATOM      2  C   UNL d   1      41.335  32.189  16.760 -0.41 +0.01    +0.064 A 
DOCKED: ATOM      3  C   UNL d   1      37.745  30.415  14.104 -0.36 +0.01    +0.064 C 
DOCKED: ATOM      4  C   UNL d   1      39.457  25.897  14.952 -0.33 +0.01    +0.064 A 
DOCKED: ATOM      5  C   UNL d   1      43.030  29.189  17.301 -0.30 +0.02    +0.066 A 
DOCKED: ATOM      6  C   UNL d   1      43.864  30.083  17.979 -0.31 -0.01    -0.021 A 
DOCKED: ATOM      7  C   UNL d   1      43.285  31.327  17.888 -0.34 -0.01    -0.025 A 
DOCKED: ATOM      8  C   UNL d   1      42.137  31.167  17.116 -0.36 +0.02    +0.066 A 
DOCKED: ATOM      9  C   UNL d   1      43.817  32.580  18.548 -0.39 +0.01    +0.051 C 
DOCKED: ATOM     10  C   UNL d   1      40.132  32.087  15.934 -0.38 +0.01    +0.066 A 
DOCKED: ATOM     11  C   UNL d   1      39.428  33.199  15.458 -0.44 -0.00    -0.021 A 
DOCKED: ATOM     12  C   UNL d   1      38.399  32.708  14.675 -0.41 +0.00    +0.000 A 
DOCKED: ATOM     13  C   UNL d   1      38.530  31.293  14.728 -0.35 +0.01    +0.070 A 
DOCKED: ATOM     14  C   UNL d   1      39.740  34.668  15.718 -0.49 +0.01    +0.052 C 
DOCKED: ATOM     15  C   UNL d   1      37.822  28.975  14.160 -0.35 +0.01    +0.066 A 
DOCKED: ATOM     16  C   UNL d   1      36.872  28.111  13.617 -0.43 -0.00    -0.021 A 
DOCKED: ATOM     17  C   UNL d   1      37.338  26.817  13.847 -0.45 +0.00    +0.000 A 
DOCKED: ATOM     18  C   UNL d   1      38.555  26.991  14.521 -0.37 +0.01    +0.070 A 
DOCKED: ATOM     19  C   UNL d   1      35.591  28.591  12.982 -0.59 +0.01    +0.052 C 
DOCKED: ATOM     20  C   UNL d   1      40.609  26.027  15.638 -0.36 +0.02    +0.066 A 
DOCKED: ATOM     21  C   UNL d   1      41.426  24.960  16.001 -0.42 -0.01    -0.025 A 
DOCKED: ATOM     22  C   UNL d   1      42.528  25.505  16.620 -0.21 -0.01    -0.021 A 
DOCKED: ATOM     23  C   UNL d   1      42.334  26.890  16.627 -0.30 +0.02    +0.066 A 
DOCKED: ATOM     24  C   UNL d   1      41.166  23.493  15.773 -0.55 +0.01    +0.051 C 
DOCKED: ATOM     25  N   UNL d   1      41.946  29.839  16.810 -0.18 -0.08    -0.248 N 
DOCKED: ATOM     26  N   UNL d   1      39.583  30.923  15.500 -0.10 -0.07    -0.248 N 
DOCKED: ATOM     27  N   UNL d   1      38.796  28.304  14.769 -0.19 -0.06    -0.248 N 
DOCKED: ATOM     28  N   UNL d   1      41.145  27.199  16.070 -0.27 -0.08    -0.248 N 
DOCKED: ATOM     29 FE   UNL d   1      40.368  29.046  15.786 -0.09 +0.00    +0.000 Fe
DOCKED: ATOM     30  O   UNL d   1      39.994  29.583  17.199 -0.86 +0.00    +0.000 OA
DOCKED: ATOM     31  O   UNL d   1      39.355  28.240  16.679 -0.77 +0.00    +0.000 OA
DOCKED: ENDROOT
DOCKED: BRANCH   6  32
DOCKED: ATOM     32  C   UNL d   1      45.087  29.763  18.799 -0.25 +0.03    +0.052 C 
DOCKED: BRANCH  32  33
DOCKED: ATOM     33  C   UNL d   1      44.755  29.042  20.102 -0.15 +0.10    +0.115 C 
DOCKED: BRANCH  33  34
DOCKED: ATOM     34  C   UNL d   1      45.960  28.366  20.709 -0.14 +0.17    +0.139 C 
DOCKED: ATOM     35  O   UNL d   1      46.778  29.030  21.325 -0.52 -1.13    -0.650 OA
DOCKED: BRANCH  34  36
DOCKED: ATOM     36  O   UNL d   1      46.171  27.042  20.562 +0.04 -0.70    -0.776 OA
DOCKED: ATOM     37  H   UNL d   1      45.471  26.441  20.281 +0.06 +0.12    +0.167 HD
DOCKED: ENDBRANCH  34  36
DOCKED: ENDBRANCH  33  34
DOCKED: ENDBRANCH  32  33
DOCKED: ENDBRANCH   6  32
DOCKED: BRANCH  22  38
DOCKED: ATOM     38  C   UNL d   1      43.670  24.730  17.225 -0.29 +0.02    +0.052 C 
DOCKED: BRANCH  38  39
DOCKED: ATOM     39  C   UNL d   1      43.317  24.144  18.590 -0.34 +0.05    +0.115 C 
DOCKED: BRANCH  39  40
DOCKED: ATOM     40  C   UNL d   1      44.034  24.841  19.719 -0.26 +0.07    +0.139 C 
DOCKED: ATOM     41  O   UNL d   1      44.984  24.298  20.260 -0.34 -0.40    -0.650 OA
DOCKED: BRANCH  40  42
DOCKED: ATOM     42  O   UNL d   1      43.678  26.080  20.111 +0.14 -0.42    -0.776 OA
DOCKED: ATOM     43  H   UNL d   1      44.124  26.527  20.840 +0.06 +0.13    +0.167 HD
DOCKED: ENDBRANCH  40  42
DOCKED: ENDBRANCH  39  40
DOCKED: ENDBRANCH  38  39
DOCKED: ENDBRANCH  22  38
DOCKED: BRANCH  12  44
DOCKED: ATOM     44  C   UNL d   1      37.416  33.623  13.975 -0.49 +0.00    +0.004 C 
DOCKED: ATOM     45  C   UNL d   1      36.736  33.388  12.853 -0.54 +0.00    +0.012 C 
DOCKED: ENDBRANCH  12  44
DOCKED: BRANCH  17  46
DOCKED: ATOM     46  C   UNL d   1      36.723  25.476  13.546 -0.64 +0.00    +0.004 C 
DOCKED: ATOM     47  C   UNL d   1      35.426  25.142  13.542 -0.71 +0.00    +0.012 C 
DOCKED: ENDBRANCH  17  46
DOCKED: TORSDOF 10
DOCKED: TER
DOCKED: ENDMDL
________________________________________________________________________________


	BEGINNING GENETIC ALGORITHM DOCKING 59 of 100
Run: 59 Seed: 402552423 1818453286 [ Run 59 of 100 GA/GALS ]
Beginning LAMARCKIAN GENETIC ALGORITHM (LGA), with a maximum of 25000000 energy evaluations.

Final-Value: -14.433


	FINAL GENETIC ALGORITHM DOCKED STATE
	_______________________________________________


Detailed state:  trans 44.576 22.558 17.475 quatxyzw -0.137493 0.147596 0.882629 -0.424591 center 8.287 34.468 -0.670 ntor 10 94.8636 26.2083 -14.5506 -6.4100 -118.6235 163.0858 145.2729 152.2850 15.2701 10.8526
State:	 44.576  22.558  17.475  -0.152  0.163  0.975 -129.750     94.86   26.21  -14.55   -6.41 -118.62  163.09  145.27  152.28   15.27   10.85

DOCKED: MODEL       59
DOCKED: USER    Run = 59
DOCKED: USER    DPF = D:/Protein_go_brrr/autodock/final/2DN3/heme_O2/dock.dpf
DOCKED: USER  
DOCKED: USER    Estimated Free Energy of Binding    =   -9.70 kcal/mol  [=(1)+(2)+(3)-(4)]
DOCKED: USER    Estimated Inhibition Constant, Ki   =   77.49 nM (nanomolar)  [Temperature = 298.15 K]
DOCKED: USER    
DOCKED: USER    (1) Final Intermolecular Energy     =  -12.68 kcal/mol
DOCKED: USER        vdW + Hbond + desolv Energy     =   -9.38 kcal/mol
DOCKED: USER        Electrostatic Energy            =   -3.31 kcal/mol
DOCKED: USER    (2) Final Total Internal Energy     =   -1.75 kcal/mol
DOCKED: USER    (3) Torsional Free Energy           =   +2.98 kcal/mol
DOCKED: USER    (4) Unbound System's Energy  [=(2)] =   -1.75 kcal/mol
DOCKED: USER    
DOCKED: USER    
DOCKED: USER    NEWDPF move heme_O2_opt.pdbqt
DOCKED: USER    NEWDPF about 8.287000 34.468000 -0.670000
DOCKED: USER    NEWDPF tran0 44.576399 22.558191 17.475139
DOCKED: USER    NEWDPF quaternion0 -0.137493 0.147596 0.882629 -0.424591
DOCKED: USER    NEWDPF axisangle0 -0.151861 0.163021 0.974865 -129.750396
DOCKED: USER    NEWDPF quat0 -0.151861 0.163021 0.974865 -129.750396
DOCKED: USER    NEWDPF dihe0 94.86 26.21 -14.55 -6.41 -118.62 163.09 145.27 152.28 15.27 10.85 
DOCKED: USER  keepresnum = 1 
DOCKED: USER  
DOCKED: REMARK  10 active torsions:
DOCKED: REMARK  status: ('A' for Active; 'I' for Inactive)
DOCKED: REMARK    1  A    between atoms: C_6  and  C_10 
DOCKED: REMARK    2  A    between atoms: C_10  and  C_11 
DOCKED: REMARK    3  A    between atoms: C_11  and  C_12 
DOCKED: REMARK    4  A    between atoms: C_12  and  O_14 
DOCKED: REMARK    5  A    between atoms: C_17  and  C_20 
DOCKED: REMARK    6  A    between atoms: C_24  and  C_27 
DOCKED: REMARK    7  A    between atoms: C_31  and  C_34 
DOCKED: REMARK    8  A    between atoms: C_34  and  C_35 
DOCKED: REMARK    9  A    between atoms: C_35  and  C_36 
DOCKED: REMARK   10  A    between atoms: C_36  and  O_38 
DOCKED: USER                              x       y       z     vdW  Elec       q    Type
DOCKED: USER                           _______ _______ _______ _____ _____    ______ ____
DOCKED: ROOT
DOCKED: ATOM      1  C   UNL d   1      45.320  20.572  17.515 -0.22 +0.05    +0.064 A 
DOCKED: ATOM      2  C   UNL d   1      46.332  24.429  20.096 -0.10 +0.04    +0.064 A 
DOCKED: ATOM      3  C   UNL d   1      43.187  27.051  17.581 -0.29 +0.02    +0.064 C 
DOCKED: ATOM      4  C   UNL d   1      41.790  22.975  15.234 -0.42 +0.01    +0.064 A 
DOCKED: ATOM      5  C   UNL d   1      45.850  21.406  18.423 -0.20 +0.05    +0.066 A 
DOCKED: ATOM      6  C   UNL d   1      46.835  21.038  19.344 -0.16 -0.01    -0.021 A 
DOCKED: ATOM      7  C   UNL d   1      47.098  22.142  20.121 -0.12 -0.01    -0.025 A 
DOCKED: ATOM      8  C   UNL d   1      46.301  23.168  19.621 -0.13 +0.04    +0.066 A 
DOCKED: ATOM      9  C   UNL d   1      48.051  22.167  21.295 -0.06 +0.02    +0.051 C 
DOCKED: ATOM     10  C   UNL d   1      45.537  25.552  19.598 -0.13 +0.04    +0.066 A 
DOCKED: ATOM     11  C   UNL d   1      45.727  26.874  20.017 -0.15 -0.02    -0.021 A 
DOCKED: ATOM     12  C   UNL d   1      44.841  27.648  19.290 -0.18 +0.00    +0.000 A 
DOCKED: ATOM     13  C   UNL d   1      44.138  26.732  18.459 -0.19 +0.03    +0.070 A 
DOCKED: ATOM     14  C   UNL d   1      46.729  27.381  21.047 -0.11 +0.06    +0.052 C 
DOCKED: ATOM     15  C   UNL d   1      42.427  26.151  16.747 -0.26 +0.02    +0.066 A 
DOCKED: ATOM     16  C   UNL d   1      41.333  26.528  15.969 -0.39 -0.01    -0.021 A 
DOCKED: ATOM     17  C   UNL d   1      40.917  25.382  15.292 -0.46 +0.00    +0.000 A 
DOCKED: ATOM     18  C   UNL d   1      41.802  24.378  15.711 -0.31 +0.02    +0.070 A 
DOCKED: ATOM     19  C   UNL d   1      40.754  27.920  15.984 -0.15 +0.02    +0.052 C 
DOCKED: ATOM     20  C   UNL d   1      42.596  21.978  15.648 -0.18 +0.01    +0.066 A 
DOCKED: ATOM     21  C   UNL d   1      42.549  20.679  15.149 -0.17 -0.00    -0.025 A 
DOCKED: ATOM     22  C   UNL d   1      43.566  19.987  15.768 -0.29 -0.01    -0.021 A 
DOCKED: ATOM     23  C   UNL d   1      44.186  20.888  16.638 -0.27 +0.04    +0.066 A 
DOCKED: ATOM     24  C   UNL d   1      41.581  20.126  14.136 -0.25 +0.01    +0.051 C 
DOCKED: ATOM     25  N   UNL d   1      45.486  22.697  18.618 -0.14 -0.17    -0.248 N 
DOCKED: ATOM     26  N   UNL d   1      44.564  25.459  18.656 -0.11 -0.13    -0.248 N 
DOCKED: ATOM     27  N   UNL d   1      42.663  24.845  16.650 -0.18 -0.08    -0.248 N 
DOCKED: ATOM     28  N   UNL d   1      43.565  22.085  16.595 -0.19 -0.11    -0.248 N 
DOCKED: ATOM     29 FE   UNL d   1      44.058  23.761  17.617 -0.06 +0.00    +0.000 Fe
DOCKED: ATOM     30  O   UNL d   1      43.704  23.482  19.107 -0.49 +0.00    +0.000 OA
DOCKED: ATOM     31  O   UNL d   1      42.581  23.389  18.007 -0.49 +0.00    +0.000 OA
DOCKED: ENDROOT
DOCKED: BRANCH   6  32
DOCKED: ATOM     32  C   UNL d   1      47.411  19.665  19.580 -0.11 +0.02    +0.052 C 
DOCKED: BRANCH  32  33
DOCKED: ATOM     33  C   UNL d   1      48.754  19.459  18.885 -0.04 +0.07    +0.115 C 
DOCKED: BRANCH  33  34
DOCKED: ATOM     34  C   UNL d   1      48.815  20.136  17.539 +0.29 +0.20    +0.139 C 
DOCKED: ATOM     35  O   UNL d   1      49.220  21.284  17.459 -0.11 -1.17    -0.650 OA
DOCKED: BRANCH  34  36
DOCKED: ATOM     36  O   UNL d   1      48.404  19.509  16.417 -0.33 -1.34    -0.776 OA
DOCKED: ATOM     37  H   UNL d   1      47.514  19.622  16.065 +0.02 +0.32    +0.167 HD
DOCKED: ENDBRANCH  34  36
DOCKED: ENDBRANCH  33  34
DOCKED: ENDBRANCH  32  33
DOCKED: ENDBRANCH   6  32
DOCKED: BRANCH  22  38
DOCKED: ATOM     38  C   UNL d   1      43.877  18.525  15.576 -0.21 +0.02    +0.052 C 
DOCKED: BRANCH  38  39
DOCKED: ATOM     39  C   UNL d   1      45.216  18.302  14.877 -0.09 +0.06    +0.115 C 
DOCKED: BRANCH  39  40
DOCKED: ATOM     40  C   UNL d   1      45.580  19.437  13.953 -0.20 +0.11    +0.139 C 
DOCKED: ATOM     41  O   UNL d   1      44.782  19.810  13.108 -0.04 -0.33    -0.650 OA
DOCKED: BRANCH  40  42
DOCKED: ATOM     42  O   UNL d   1      46.754  20.085  14.076 +0.02 -1.52    -0.776 OA
DOCKED: ATOM     43  H   UNL d   1      47.539  19.645  14.425 +0.03 +0.31    +0.167 HD
DOCKED: ENDBRANCH  40  42
DOCKED: ENDBRANCH  39  40
DOCKED: ENDBRANCH  38  39
DOCKED: ENDBRANCH  22  38
DOCKED: BRANCH  12  44
DOCKED: ATOM     44  C   UNL d   1      44.757  29.150  19.462 -0.26 +0.00    +0.004 C 
DOCKED: ATOM     45  C   UNL d   1      44.230  30.042  18.624 -0.33 +0.00    +0.012 C 
DOCKED: ENDBRANCH  12  44
DOCKED: BRANCH  17  46
DOCKED: ATOM     46  C   UNL d   1      39.758  25.151  14.359 -0.59 +0.00    +0.004 C 
DOCKED: ATOM     47  C   UNL d   1      38.702  25.944  14.137 -0.55 +0.00    +0.012 C 
DOCKED: ENDBRANCH  17  46
DOCKED: TORSDOF 10
DOCKED: TER
DOCKED: ENDMDL
________________________________________________________________________________


	BEGINNING GENETIC ALGORITHM DOCKING 60 of 100
Run: 60 Seed: 964917871 201010466 [ Run 60 of 100 GA/GALS ]
Beginning LAMARCKIAN GENETIC ALGORITHM (LGA), with a maximum of 25000000 energy evaluations.

Final-Value: -20.399


	FINAL GENETIC ALGORITHM DOCKED STATE
	_______________________________________________


Detailed state:  trans 41.517 28.995 16.390 quatxyzw 0.362783 -0.403046 -0.840198 0.003032 center 8.287 34.468 -0.670 ntor 10 98.7184 132.7006 21.2039 -48.0185 34.0473 -1.4302 43.7327 59.1667 -64.8737 -179.6982
State:	 41.517  28.995  16.390   0.363 -0.403 -0.840 179.653     98.72  132.70   21.20  -48.02   34.05   -1.43   43.73   59.17  -64.87 -179.70

DOCKED: MODEL       60
DOCKED: USER    Run = 60
DOCKED: USER    DPF = D:/Protein_go_brrr/autodock/final/2DN3/heme_O2/dock.dpf
DOCKED: USER  
DOCKED: USER    Estimated Free Energy of Binding    =  -15.46 kcal/mol  [=(1)+(2)+(3)-(4)]
DOCKED: USER    Estimated Inhibition Constant, Ki   =    4.68 pM (picomolar)  [Temperature = 298.15 K]
DOCKED: USER    
DOCKED: USER    (1) Final Intermolecular Energy     =  -18.44 kcal/mol
DOCKED: USER        vdW + Hbond + desolv Energy     =  -16.03 kcal/mol
DOCKED: USER        Electrostatic Energy            =   -2.41 kcal/mol
DOCKED: USER    (2) Final Total Internal Energy     =   -1.96 kcal/mol
DOCKED: USER    (3) Torsional Free Energy           =   +2.98 kcal/mol
DOCKED: USER    (4) Unbound System's Energy  [=(2)] =   -1.96 kcal/mol
DOCKED: USER    
DOCKED: USER    
DOCKED: USER    NEWDPF move heme_O2_opt.pdbqt
DOCKED: USER    NEWDPF about 8.287000 34.468000 -0.670000
DOCKED: USER    NEWDPF tran0 41.517282 28.995287 16.390239
DOCKED: USER    NEWDPF quaternion0 0.362783 -0.403046 -0.840198 0.003032
DOCKED: USER    NEWDPF axisangle0 0.362785 -0.403047 -0.840202 179.652609
DOCKED: USER    NEWDPF quat0 0.362785 -0.403047 -0.840202 179.652609
DOCKED: USER    NEWDPF dihe0 98.72 132.70 21.20 -48.02 34.05 -1.43 43.73 59.17 -64.87 -179.70 
DOCKED: USER  keepresnum = 1 
DOCKED: USER  
DOCKED: REMARK  10 active torsions:
DOCKED: REMARK  status: ('A' for Active; 'I' for Inactive)
DOCKED: REMARK    1  A    between atoms: C_6  and  C_10 
DOCKED: REMARK    2  A    between atoms: C_10  and  C_11 
DOCKED: REMARK    3  A    between atoms: C_11  and  C_12 
DOCKED: REMARK    4  A    between atoms: C_12  and  O_14 
DOCKED: REMARK    5  A    between atoms: C_17  and  C_20 
DOCKED: REMARK    6  A    between atoms: C_24  and  C_27 
DOCKED: REMARK    7  A    between atoms: C_31  and  C_34 
DOCKED: REMARK    8  A    between atoms: C_34  and  C_35 
DOCKED: REMARK    9  A    between atoms: C_35  and  C_36 
DOCKED: REMARK   10  A    between atoms: C_36  and  O_38 
DOCKED: USER                              x       y       z     vdW  Elec       q    Type
DOCKED: USER                           _______ _______ _______ _____ _____    ______ ____
DOCKED: ROOT
DOCKED: ATOM      1  C   UNL d   1      43.202  28.583  17.612 -0.14 +0.02    +0.064 A 
DOCKED: ATOM      2  C   UNL d   1      40.897  32.605  16.578 -0.43 +0.01    +0.064 A 
DOCKED: ATOM      3  C   UNL d   1      37.862  30.235  13.702 -0.42 +0.01    +0.064 C 
DOCKED: ATOM      4  C   UNL d   1      39.927  26.021  15.131 -0.38 +0.01    +0.064 A 
DOCKED: ATOM      5  C   UNL d   1      42.821  29.870  17.567 -0.28 +0.02    +0.066 A 
DOCKED: ATOM      6  C   UNL d   1      43.468  30.902  18.253 -0.34 -0.01    -0.021 A 
DOCKED: ATOM      7  C   UNL d   1      42.775  32.060  17.989 -0.42 -0.01    -0.025 A 
DOCKED: ATOM      8  C   UNL d   1      41.753  31.712  17.110 -0.40 +0.01    +0.066 A 
DOCKED: ATOM      9  C   UNL d   1      43.088  33.412  18.592 -0.44 +0.01    +0.051 C 
DOCKED: ATOM     10  C   UNL d   1      39.820  32.303  15.634 -0.39 +0.01    +0.066 A 
DOCKED: ATOM     11  C   UNL d   1      39.065  33.288  14.988 -0.43 -0.00    -0.021 A 
DOCKED: ATOM     12  C   UNL d   1      38.196  32.625  14.140 -0.41 +0.00    +0.000 A 
DOCKED: ATOM     13  C   UNL d   1      38.468  31.242  14.332 -0.36 +0.01    +0.070 A 
DOCKED: ATOM     14  C   UNL d   1      39.186  34.798  15.150 -0.55 +0.01    +0.052 C 
DOCKED: ATOM     15  C   UNL d   1      38.083  28.822  13.893 -0.37 +0.01    +0.066 A 
DOCKED: ATOM     16  C   UNL d   1      37.303  27.816  13.325 -0.44 -0.00    -0.021 A 
DOCKED: ATOM     17  C   UNL d   1      37.872  26.605  13.719 -0.46 +0.00    +0.000 A 
DOCKED: ATOM     18  C   UNL d   1      38.973  26.969  14.507 -0.37 +0.01    +0.070 A 
DOCKED: ATOM     19  C   UNL d   1      36.064  28.096  12.511 -0.62 +0.01    +0.052 C 
DOCKED: ATOM     20  C   UNL d   1      40.967  26.334  15.928 -0.38 +0.02    +0.066 A 
DOCKED: ATOM     21  C   UNL d   1      41.842  25.398  16.472 -0.36 -0.01    -0.025 A 
DOCKED: ATOM     22  C   UNL d   1      42.798  26.112  17.160 -0.32 -0.01    -0.021 A 
DOCKED: ATOM     23  C   UNL d   1      42.459  27.462  17.024 -0.29 +0.02    +0.066 A 
DOCKED: ATOM     24  C   UNL d   1      41.768  23.898  16.346 -0.51 +0.01    +0.051 C 
DOCKED: ATOM     25  N   UNL d   1      41.742  30.352  16.902 -0.25 -0.07    -0.248 N 
DOCKED: ATOM     26  N   UNL d   1      39.454  31.055  15.246 -0.14 -0.06    -0.248 N 
DOCKED: ATOM     27  N   UNL d   1      39.042  28.315  14.664 -0.12 -0.07    -0.248 N 
DOCKED: ATOM     28  N   UNL d   1      41.320  27.589  16.312 -0.26 -0.09    -0.248 N 
DOCKED: ATOM     29 FE   UNL d   1      40.392  29.308  15.782 -0.08 +0.00    +0.000 Fe
DOCKED: ATOM     30  O   UNL d   1      39.796  29.902  17.091 -0.73 +0.00    +0.000 OA
DOCKED: ATOM     31  O   UNL d   1      39.369  28.459  16.623 -0.81 +0.00    +0.000 OA
DOCKED: ENDROOT
DOCKED: BRANCH   6  32
DOCKED: ATOM     32  C   UNL d   1      44.610  30.787  19.229 -0.30 +0.02    +0.052 C 
DOCKED: BRANCH  32  33
DOCKED: ATOM     33  C   UNL d   1      45.363  29.466  19.108 -0.21 +0.06    +0.115 C 
DOCKED: BRANCH  33  34
DOCKED: ATOM     34  C   UNL d   1      45.719  28.881  20.452 -0.15 +0.15    +0.139 C 
DOCKED: ATOM     35  O   UNL d   1      46.893  28.743  20.758 -0.32 -0.74    -0.650 OA
DOCKED: BRANCH  34  36
DOCKED: ATOM     36  O   UNL d   1      44.767  28.478  21.318 +0.00 -1.36    -0.776 OA
DOCKED: ATOM     37  H   UNL d   1      44.513  27.551  21.404 +0.04 +0.25    +0.167 HD
DOCKED: ENDBRANCH  34  36
DOCKED: ENDBRANCH  33  34
DOCKED: ENDBRANCH  32  33
DOCKED: ENDBRANCH   6  32
DOCKED: BRANCH  22  38
DOCKED: ATOM     38  C   UNL d   1      43.933  25.520  17.954 -0.30 +0.02    +0.052 C 
DOCKED: BRANCH  38  39
DOCKED: ATOM     39  C   UNL d   1      43.480  24.995  19.315 -0.33 +0.05    +0.115 C 
DOCKED: BRANCH  39  40
DOCKED: ATOM     40  C   UNL d   1      44.216  25.647  20.459 -0.26 +0.08    +0.139 C 
DOCKED: ATOM     41  O   UNL d   1      43.625  25.896  21.497 -0.05 -0.47    -0.650 OA
DOCKED: BRANCH  40  42
DOCKED: ATOM     42  O   UNL d   1      45.534  25.915  20.375 +0.08 -0.54    -0.776 OA
DOCKED: ATOM     43  H   UNL d   1      45.896  26.760  20.666 +0.05 +0.15    +0.167 HD
DOCKED: ENDBRANCH  40  42
DOCKED: ENDBRANCH  39  40
DOCKED: ENDBRANCH  38  39
DOCKED: ENDBRANCH  22  38
DOCKED: BRANCH  12  44
DOCKED: ATOM     44  C   UNL d   1      37.214  33.365  13.256 -0.49 +0.00    +0.004 C 
DOCKED: ATOM     45  C   UNL d   1      36.138  32.877  12.641 -0.57 +0.00    +0.012 C 
DOCKED: ENDBRANCH  12  44
DOCKED: BRANCH  17  46
DOCKED: ATOM     46  C   UNL d   1      37.443  25.184  13.470 -0.64 +0.00    +0.004 C 
DOCKED: ATOM     47  C   UNL d   1      36.260  24.617  13.737 -0.66 +0.00    +0.012 C 
DOCKED: ENDBRANCH  17  46
DOCKED: TORSDOF 10
DOCKED: TER
DOCKED: ENDMDL
________________________________________________________________________________


	BEGINNING GENETIC ALGORITHM DOCKING 61 of 100
Run: 61 Seed: 1846907163 1983520176 [ Run 61 of 100 GA/GALS ]
Beginning LAMARCKIAN GENETIC ALGORITHM (LGA), with a maximum of 25000000 energy evaluations.

Final-Value: -20.713


	FINAL GENETIC ALGORITHM DOCKED STATE
	_______________________________________________


Detailed state:  trans 41.438 28.555 16.246 quatxyzw -0.315065 0.374405 0.869819 -0.063007 center 8.287 34.468 -0.670 ntor 10 15.0251 -172.1351 -9.8685 -81.7678 140.9376 127.4221 28.0358 71.7751 -111.4784 -178.8835
State:	 41.438  28.555  16.246  -0.316  0.375  0.872 -172.775     15.03 -172.14   -9.87  -81.77  140.94  127.42   28.04   71.78 -111.48 -178.88

DOCKED: MODEL       61
DOCKED: USER    Run = 61
DOCKED: USER    DPF = D:/Protein_go_brrr/autodock/final/2DN3/heme_O2/dock.dpf
DOCKED: USER  
DOCKED: USER    Estimated Free Energy of Binding    =  -15.78 kcal/mol  [=(1)+(2)+(3)-(4)]
DOCKED: USER    Estimated Inhibition Constant, Ki   =    2.72 pM (picomolar)  [Temperature = 298.15 K]
DOCKED: USER    
DOCKED: USER    (1) Final Intermolecular Energy     =  -18.76 kcal/mol
DOCKED: USER        vdW + Hbond + desolv Energy     =  -16.15 kcal/mol
DOCKED: USER        Electrostatic Energy            =   -2.61 kcal/mol
DOCKED: USER    (2) Final Total Internal Energy     =   -1.95 kcal/mol
DOCKED: USER    (3) Torsional Free Energy           =   +2.98 kcal/mol
DOCKED: USER    (4) Unbound System's Energy  [=(2)] =   -1.95 kcal/mol
DOCKED: USER    
DOCKED: USER    
DOCKED: USER    NEWDPF move heme_O2_opt.pdbqt
DOCKED: USER    NEWDPF about 8.287000 34.468000 -0.670000
DOCKED: USER    NEWDPF tran0 41.438033 28.555146 16.245570
DOCKED: USER    NEWDPF quaternion0 -0.315065 0.374405 0.869819 -0.063007
DOCKED: USER    NEWDPF axisangle0 -0.315692 0.375150 0.871551 -172.775167
DOCKED: USER    NEWDPF quat0 -0.315692 0.375150 0.871551 -172.775167
DOCKED: USER    NEWDPF dihe0 15.03 -172.14 -9.87 -81.77 140.94 127.42 28.04 71.78 -111.48 -178.88 
DOCKED: USER  keepresnum = 1 
DOCKED: USER  
DOCKED: REMARK  10 active torsions:
DOCKED: REMARK  status: ('A' for Active; 'I' for Inactive)
DOCKED: REMARK    1  A    between atoms: C_6  and  C_10 
DOCKED: REMARK    2  A    between atoms: C_10  and  C_11 
DOCKED: REMARK    3  A    between atoms: C_11  and  C_12 
DOCKED: REMARK    4  A    between atoms: C_12  and  O_14 
DOCKED: REMARK    5  A    between atoms: C_17  and  C_20 
DOCKED: REMARK    6  A    between atoms: C_24  and  C_27 
DOCKED: REMARK    7  A    between atoms: C_31  and  C_34 
DOCKED: REMARK    8  A    between atoms: C_34  and  C_35 
DOCKED: REMARK    9  A    between atoms: C_35  and  C_36 
DOCKED: REMARK   10  A    between atoms: C_36  and  O_38 
DOCKED: USER                              x       y       z     vdW  Elec       q    Type
DOCKED: USER                           _______ _______ _______ _____ _____    ______ ____
DOCKED: ROOT
DOCKED: ATOM      1  C   UNL d   1      43.115  27.810  17.310 -0.28 +0.02    +0.064 A 
DOCKED: ATOM      2  C   UNL d   1      41.268  32.164  16.874 -0.41 +0.01    +0.064 A 
DOCKED: ATOM      3  C   UNL d   1      37.839  30.516  13.937 -0.39 +0.01    +0.064 C 
DOCKED: ATOM      4  C   UNL d   1      39.443  25.953  14.758 -0.40 +0.01    +0.064 A 
DOCKED: ATOM      5  C   UNL d   1      42.891  29.128  17.433 -0.26 +0.02    +0.066 A 
DOCKED: ATOM      6  C   UNL d   1      43.689  29.991  18.190 -0.29 -0.01    -0.021 A 
DOCKED: ATOM      7  C   UNL d   1      43.130  31.244  18.100 -0.37 -0.01    -0.025 A 
DOCKED: ATOM      8  C   UNL d   1      42.034  31.122  17.250 -0.37 +0.02    +0.066 A 
DOCKED: ATOM      9  C   UNL d   1      43.631  32.470  18.831 -0.40 +0.01    +0.051 C 
DOCKED: ATOM     10  C   UNL d   1      40.120  32.102  15.969 -0.38 +0.01    +0.066 A 
DOCKED: ATOM     11  C   UNL d   1      39.461  33.236  15.483 -0.44 -0.00    -0.021 A 
DOCKED: ATOM     12  C   UNL d   1      38.480  32.783  14.620 -0.41 +0.00    +0.000 A 
DOCKED: ATOM     13  C   UNL d   1      38.591  31.365  14.638 -0.36 +0.01    +0.070 A 
DOCKED: ATOM     14  C   UNL d   1      39.771  34.693  15.807 -0.47 +0.01    +0.052 C 
DOCKED: ATOM     15  C   UNL d   1      37.897  29.074  13.955 -0.36 +0.01    +0.066 A 
DOCKED: ATOM     16  C   UNL d   1      36.975  28.239  13.325 -0.45 -0.00    -0.021 A 
DOCKED: ATOM     17  C   UNL d   1      37.412  26.933  13.546 -0.45 +0.00    +0.000 A 
DOCKED: ATOM     18  C   UNL d   1      38.584  27.071  14.303 -0.37 +0.01    +0.070 A 
DOCKED: ATOM     19  C   UNL d   1      35.743  28.754  12.623 -0.63 +0.01    +0.052 C 
DOCKED: ATOM     20  C   UNL d   1      40.550  26.048  15.521 -0.37 +0.02    +0.066 A 
DOCKED: ATOM     21  C   UNL d   1      41.329  24.960  15.904 -0.42 -0.01    -0.025 A 
DOCKED: ATOM     22  C   UNL d   1      42.395  25.473  16.609 -0.25 -0.01    -0.021 A 
DOCKED: ATOM     23  C   UNL d   1      42.216  26.859  16.646 -0.32 +0.02    +0.066 A 
DOCKED: ATOM     24  C   UNL d   1      41.069  23.505  15.614 -0.54 +0.01    +0.051 C 
DOCKED: ATOM     25  N   UNL d   1      41.849  29.807  16.892 -0.23 -0.08    -0.248 N 
DOCKED: ATOM     26  N   UNL d   1      39.588  30.959  15.465 -0.10 -0.07    -0.248 N 
DOCKED: ATOM     27  N   UNL d   1      38.821  28.373  14.605 -0.16 -0.06    -0.248 N 
DOCKED: ATOM     28  N   UNL d   1      41.069  27.200  16.022 -0.27 -0.08    -0.248 N 
DOCKED: ATOM     29 FE   UNL d   1      40.332  29.065  15.744 -0.08 +0.00    +0.000 Fe
DOCKED: ATOM     30  O   UNL d   1      39.873  29.564  17.145 -0.86 +0.00    +0.000 OA
DOCKED: ATOM     31  O   UNL d   1      39.254  28.246  16.545 -0.69 +0.00    +0.000 OA
DOCKED: ENDROOT
DOCKED: BRANCH   6  32
DOCKED: ATOM     32  C   UNL d   1      44.852  29.631  19.078 -0.27 +0.03    +0.052 C 
DOCKED: BRANCH  32  33
DOCKED: ATOM     33  C   UNL d   1      44.752  28.217  19.642 -0.11 +0.08    +0.115 C 
DOCKED: BRANCH  33  34
DOCKED: ATOM     34  C   UNL d   1      45.499  28.062  20.943 +0.00 +0.20    +0.139 C 
DOCKED: ATOM     35  O   UNL d   1      46.238  28.956  21.325 -0.31 -1.28    -0.650 OA
DOCKED: BRANCH  34  36
DOCKED: ATOM     36  O   UNL d   1      45.392  26.942  21.687 -0.08 -1.18    -0.776 OA
DOCKED: ATOM     37  H   UNL d   1      45.022  26.126  21.331 +0.06 +0.15    +0.167 HD
DOCKED: ENDBRANCH  34  36
DOCKED: ENDBRANCH  33  34
DOCKED: ENDBRANCH  32  33
DOCKED: ENDBRANCH   6  32
DOCKED: BRANCH  22  38
DOCKED: ATOM     38  C   UNL d   1      43.486  24.665  17.263 -0.32 +0.02    +0.052 C 
DOCKED: BRANCH  38  39
DOCKED: ATOM     39  C   UNL d   1      43.029  24.022  18.570 -0.36 +0.04    +0.115 C 
DOCKED: BRANCH  39  40
DOCKED: ATOM     40  C   UNL d   1      43.669  24.657  19.779 -0.29 +0.07    +0.139 C 
DOCKED: ATOM     41  O   UNL d   1      44.745  24.245  20.183 -0.44 -0.40    -0.650 OA
DOCKED: BRANCH  40  42
DOCKED: ATOM     42  O   UNL d   1      43.098  25.710  20.396 +0.06 -0.36    -0.776 OA
DOCKED: ATOM     43  H   UNL d   1      43.568  26.216  21.070 +0.06 +0.11    +0.167 HD
DOCKED: ENDBRANCH  40  42
DOCKED: ENDBRANCH  39  40
DOCKED: ENDBRANCH  38  39
DOCKED: ENDBRANCH  22  38
DOCKED: BRANCH  12  44
DOCKED: ATOM     44  C   UNL d   1      37.555  33.730  13.885 -0.49 +0.00    +0.004 C 
DOCKED: ATOM     45  C   UNL d   1      36.760  33.460  12.850 -0.54 +0.00    +0.012 C 
DOCKED: ENDBRANCH  12  44
DOCKED: BRANCH  17  46
DOCKED: ATOM     46  C   UNL d   1      36.803  25.609  13.165 -0.64 +0.00    +0.004 C 
DOCKED: ATOM     47  C   UNL d   1      35.921  24.874  13.854 -0.70 +0.00    +0.012 C 
DOCKED: ENDBRANCH  17  46
DOCKED: TORSDOF 10
DOCKED: TER
DOCKED: ENDMDL
________________________________________________________________________________


	BEGINNING GENETIC ALGORITHM DOCKING 62 of 100
Run: 62 Seed: 366667862 1847725338 [ Run 62 of 100 GA/GALS ]
Beginning LAMARCKIAN GENETIC ALGORITHM (LGA), with a maximum of 25000000 energy evaluations.

Final-Value: -20.496


	FINAL GENETIC ALGORITHM DOCKED STATE
	_______________________________________________


Detailed state:  trans 41.318 28.927 16.254 quatxyzw -0.352331 0.396940 0.847131 -0.025875 center 8.287 34.468 -0.670 ntor 10 67.5000 8.4654 18.0516 -52.5539 99.0040 -20.9142 45.1180 12.7296 -57.8686 -3.3193
State:	 41.318  28.927  16.254  -0.352  0.397  0.847 -177.035     67.50    8.47   18.05  -52.55   99.00  -20.91   45.12   12.73  -57.87   -3.32

DOCKED: MODEL       62
DOCKED: USER    Run = 62
DOCKED: USER    DPF = D:/Protein_go_brrr/autodock/final/2DN3/heme_O2/dock.dpf
DOCKED: USER  
DOCKED: USER    Estimated Free Energy of Binding    =  -16.16 kcal/mol  [=(1)+(2)+(3)-(4)]
DOCKED: USER    Estimated Inhibition Constant, Ki   =    1.44 pM (picomolar)  [Temperature = 298.15 K]
DOCKED: USER    
DOCKED: USER    (1) Final Intermolecular Energy     =  -19.14 kcal/mol
DOCKED: USER        vdW + Hbond + desolv Energy     =  -16.34 kcal/mol
DOCKED: USER        Electrostatic Energy            =   -2.80 kcal/mol
DOCKED: USER    (2) Final Total Internal Energy     =   -1.36 kcal/mol
DOCKED: USER    (3) Torsional Free Energy           =   +2.98 kcal/mol
DOCKED: USER    (4) Unbound System's Energy  [=(2)] =   -1.36 kcal/mol
DOCKED: USER    
DOCKED: USER    
DOCKED: USER    NEWDPF move heme_O2_opt.pdbqt
DOCKED: USER    NEWDPF about 8.287000 34.468000 -0.670000
DOCKED: USER    NEWDPF tran0 41.317702 28.927049 16.253725
DOCKED: USER    NEWDPF quaternion0 -0.352331 0.396940 0.847131 -0.025875
DOCKED: USER    NEWDPF axisangle0 -0.352449 0.397073 0.847415 -177.034639
DOCKED: USER    NEWDPF quat0 -0.352449 0.397073 0.847415 -177.034639
DOCKED: USER    NEWDPF dihe0 67.50 8.47 18.05 -52.55 99.00 -20.91 45.12 12.73 -57.87 -3.32 
DOCKED: USER  keepresnum = 1 
DOCKED: USER  
DOCKED: REMARK  10 active torsions:
DOCKED: REMARK  status: ('A' for Active; 'I' for Inactive)
DOCKED: REMARK    1  A    between atoms: C_6  and  C_10 
DOCKED: REMARK    2  A    between atoms: C_10  and  C_11 
DOCKED: REMARK    3  A    between atoms: C_11  and  C_12 
DOCKED: REMARK    4  A    between atoms: C_12  and  O_14 
DOCKED: REMARK    5  A    between atoms: C_17  and  C_20 
DOCKED: REMARK    6  A    between atoms: C_24  and  C_27 
DOCKED: REMARK    7  A    between atoms: C_31  and  C_34 
DOCKED: REMARK    8  A    between atoms: C_34  and  C_35 
DOCKED: REMARK    9  A    between atoms: C_35  and  C_36 
DOCKED: REMARK   10  A    between atoms: C_36  and  O_38 
DOCKED: USER                              x       y       z     vdW  Elec       q    Type
DOCKED: USER                           _______ _______ _______ _____ _____    ______ ____
DOCKED: ROOT
DOCKED: ATOM      1  C   UNL d   1      42.987  28.404  17.453 -0.23 +0.02    +0.064 A 
DOCKED: ATOM      2  C   UNL d   1      40.851  32.552  16.562 -0.42 +0.01    +0.064 A 
DOCKED: ATOM      3  C   UNL d   1      37.709  30.407  13.625 -0.43 +0.01    +0.064 C 
DOCKED: ATOM      4  C   UNL d   1      39.598  26.065  14.907 -0.37 +0.01    +0.064 A 
DOCKED: ATOM      5  C   UNL d   1      42.662  29.707  17.452 -0.30 +0.02    +0.066 A 
DOCKED: ATOM      6  C   UNL d   1      43.354  30.688  18.168 -0.34 -0.01    -0.021 A 
DOCKED: ATOM      7  C   UNL d   1      42.710  31.882  17.945 -0.42 -0.01    -0.025 A 
DOCKED: ATOM      8  C   UNL d   1      41.671  31.606  17.060 -0.39 +0.01    +0.066 A 
DOCKED: ATOM      9  C   UNL d   1      43.082  33.199  18.589 -0.45 +0.01    +0.051 C 
DOCKED: ATOM     10  C   UNL d   1      39.759  32.326  15.614 -0.39 +0.01    +0.066 A 
DOCKED: ATOM     11  C   UNL d   1      39.045  33.363  15.003 -0.43 -0.00    -0.021 A 
DOCKED: ATOM     12  C   UNL d   1      38.146  32.765  14.139 -0.41 +0.00    +0.000 A 
DOCKED: ATOM     13  C   UNL d   1      38.359  31.366  14.284 -0.36 +0.01    +0.070 A 
DOCKED: ATOM     14  C   UNL d   1      39.230  34.861  15.214 -0.56 +0.01    +0.052 C 
DOCKED: ATOM     15  C   UNL d   1      37.871  28.981  13.769 -0.37 +0.01    +0.066 A 
DOCKED: ATOM     16  C   UNL d   1      37.046  28.027  13.172 -0.46 -0.00    -0.021 A 
DOCKED: ATOM     17  C   UNL d   1      37.565  26.781  13.524 -0.46 +0.00    +0.000 A 
DOCKED: ATOM     18  C   UNL d   1      38.684  27.072  14.319 -0.37 +0.01    +0.070 A 
DOCKED: ATOM     19  C   UNL d   1      35.818  28.386  12.374 -0.65 +0.01    +0.052 C 
DOCKED: ATOM     20  C   UNL d   1      40.654  26.308  15.708 -0.37 +0.02    +0.066 A 
DOCKED: ATOM     21  C   UNL d   1      41.490  25.318  16.217 -0.39 -0.01    -0.025 A 
DOCKED: ATOM     22  C   UNL d   1      42.478  25.968  16.923 -0.34 -0.01    -0.021 A 
DOCKED: ATOM     23  C   UNL d   1      42.196  27.335  16.833 -0.34 +0.02    +0.066 A 
DOCKED: ATOM     24  C   UNL d   1      41.352  23.828  16.043 -0.54 +0.01    +0.051 C 
DOCKED: ATOM     25  N   UNL d   1      41.602  30.255  16.808 -0.20 -0.08    -0.248 N 
DOCKED: ATOM     26  N   UNL d   1      39.339  31.108  15.187 -0.18 -0.05    -0.248 N 
DOCKED: ATOM     27  N   UNL d   1      38.810  28.409  14.518 -0.16 -0.06    -0.248 N 
DOCKED: ATOM     28  N   UNL d   1      41.061  27.534  16.131 -0.25 -0.08    -0.248 N 
DOCKED: ATOM     29 FE   UNL d   1      40.204  29.306  15.661 -0.07 +0.00    +0.000 Fe
DOCKED: ATOM     30  O   UNL d   1      39.639  29.882  16.992 -0.71 +0.00    +0.000 OA
DOCKED: ATOM     31  O   UNL d   1      39.150  28.475  16.479 -0.68 +0.00    +0.000 OA
DOCKED: ENDROOT
DOCKED: BRANCH   6  32
DOCKED: ATOM     32  C   UNL d   1      44.493  30.493  19.134 -0.30 +0.02    +0.052 C 
DOCKED: BRANCH  32  33
DOCKED: ATOM     33  C   UNL d   1      45.295  29.225  18.857 -0.21 +0.06    +0.115 C 
DOCKED: BRANCH  33  34
DOCKED: ATOM     34  C   UNL d   1      45.636  28.473  20.120 -0.19 +0.13    +0.139 C 
DOCKED: ATOM     35  O   UNL d   1      46.172  29.060  21.046 -0.32 -1.06    -0.650 OA
DOCKED: BRANCH  34  36
DOCKED: ATOM     36  O   UNL d   1      45.387  27.152  20.240 +0.06 -0.64    -0.776 OA
DOCKED: ATOM     37  H   UNL d   1      45.863  26.493  19.722 +0.06 +0.11    +0.167 HD
DOCKED: ENDBRANCH  34  36
DOCKED: ENDBRANCH  33  34
DOCKED: ENDBRANCH  32  33
DOCKED: ENDBRANCH   6  32
DOCKED: BRANCH  22  38
DOCKED: ATOM     38  C   UNL d   1      43.590  25.304  17.693 -0.32 +0.02    +0.052 C 
DOCKED: BRANCH  38  39
DOCKED: ATOM     39  C   UNL d   1      44.898  25.262  16.906 -0.18 +0.07    +0.115 C 
DOCKED: BRANCH  39  40
DOCKED: ATOM     40  C   UNL d   1      45.926  24.362  17.545 -0.23 +0.12    +0.139 C 
DOCKED: ATOM     41  O   UNL d   1      46.414  23.447  16.902 -0.37 -1.12    -0.650 OA
DOCKED: BRANCH  40  42
DOCKED: ATOM     42  O   UNL d   1      46.358  24.583  18.802 +0.08 -0.51    -0.776 OA
DOCKED: ATOM     43  H   UNL d   1      45.916  25.212  19.384 +0.06 +0.10    +0.167 HD
DOCKED: ENDBRANCH  40  42
DOCKED: ENDBRANCH  39  40
DOCKED: ENDBRANCH  38  39
DOCKED: ENDBRANCH  22  38
DOCKED: BRANCH  12  44
DOCKED: ATOM     44  C   UNL d   1      37.193  33.574  13.284 -0.50 +0.00    +0.004 C 
DOCKED: ATOM     45  C   UNL d   1      36.127  33.141  12.611 -0.59 +0.00    +0.012 C 
DOCKED: ENDBRANCH  12  44
DOCKED: BRANCH  17  46
DOCKED: ATOM     46  C   UNL d   1      37.076  25.388  13.231 -0.64 +0.00    +0.004 C 
DOCKED: ATOM     47  C   UNL d   1      35.900  24.837  13.559 -0.70 +0.00    +0.012 C 
DOCKED: ENDBRANCH  17  46
DOCKED: TORSDOF 10
DOCKED: TER
DOCKED: ENDMDL
________________________________________________________________________________


	BEGINNING GENETIC ALGORITHM DOCKING 63 of 100
Run: 63 Seed: 1094761401 3218901 [ Run 63 of 100 GA/GALS ]
Beginning LAMARCKIAN GENETIC ALGORITHM (LGA), with a maximum of 25000000 energy evaluations.

Final-Value: -20.314


	FINAL GENETIC ALGORITHM DOCKED STATE
	_______________________________________________


Detailed state:  trans 41.603 28.725 16.328 quatxyzw -0.302836 0.394208 0.866889 -0.037351 center 8.287 34.468 -0.670 ntor 10 58.4872 -35.8665 4.2009 36.5554 -135.1832 -57.2832 -22.2006 9.0488 -150.2621 34.9115
State:	 41.603  28.725  16.328  -0.303  0.394  0.867 -175.719     58.49  -35.87    4.20   36.56 -135.18  -57.28  -22.20    9.05 -150.26   34.91

DOCKED: MODEL       63
DOCKED: USER    Run = 63
DOCKED: USER    DPF = D:/Protein_go_brrr/autodock/final/2DN3/heme_O2/dock.dpf
DOCKED: USER  
DOCKED: USER    Estimated Free Energy of Binding    =  -15.82 kcal/mol  [=(1)+(2)+(3)-(4)]
DOCKED: USER    Estimated Inhibition Constant, Ki   =    2.54 pM (picomolar)  [Temperature = 298.15 K]
DOCKED: USER    
DOCKED: USER    (1) Final Intermolecular Energy     =  -18.80 kcal/mol
DOCKED: USER        vdW + Hbond + desolv Energy     =  -16.04 kcal/mol
DOCKED: USER        Electrostatic Energy            =   -2.76 kcal/mol
DOCKED: USER    (2) Final Total Internal Energy     =   -1.51 kcal/mol
DOCKED: USER    (3) Torsional Free Energy           =   +2.98 kcal/mol
DOCKED: USER    (4) Unbound System's Energy  [=(2)] =   -1.51 kcal/mol
DOCKED: USER    
DOCKED: USER    
DOCKED: USER    NEWDPF move heme_O2_opt.pdbqt
DOCKED: USER    NEWDPF about 8.287000 34.468000 -0.670000
DOCKED: USER    NEWDPF tran0 41.602618 28.724779 16.327552
DOCKED: USER    NEWDPF quaternion0 -0.302836 0.394208 0.866889 -0.037351
DOCKED: USER    NEWDPF axisangle0 -0.303047 0.394483 0.867494 -175.718908
DOCKED: USER    NEWDPF quat0 -0.303047 0.394483 0.867494 -175.718908
DOCKED: USER    NEWDPF dihe0 58.49 -35.87 4.20 36.56 -135.18 -57.28 -22.20 9.05 -150.26 34.91 
DOCKED: USER  keepresnum = 1 
DOCKED: USER  
DOCKED: REMARK  10 active torsions:
DOCKED: REMARK  status: ('A' for Active; 'I' for Inactive)
DOCKED: REMARK    1  A    between atoms: C_6  and  C_10 
DOCKED: REMARK    2  A    between atoms: C_10  and  C_11 
DOCKED: REMARK    3  A    between atoms: C_11  and  C_12 
DOCKED: REMARK    4  A    between atoms: C_12  and  O_14 
DOCKED: REMARK    5  A    between atoms: C_17  and  C_20 
DOCKED: REMARK    6  A    between atoms: C_24  and  C_27 
DOCKED: REMARK    7  A    between atoms: C_31  and  C_34 
DOCKED: REMARK    8  A    between atoms: C_34  and  C_35 
DOCKED: REMARK    9  A    between atoms: C_35  and  C_36 
DOCKED: REMARK   10  A    between atoms: C_36  and  O_38 
DOCKED: USER                              x       y       z     vdW  Elec       q    Type
DOCKED: USER                           _______ _______ _______ _____ _____    ______ ____
DOCKED: ROOT
DOCKED: ATOM      1  C   UNL d   1      43.338  28.072  17.358 -0.28 +0.02    +0.064 A 
DOCKED: ATOM      2  C   UNL d   1      41.372  32.357  16.779 -0.41 +0.01    +0.064 A 
DOCKED: ATOM      3  C   UNL d   1      37.868  30.486  14.075 -0.38 +0.01    +0.064 C 
DOCKED: ATOM      4  C   UNL d   1      39.611  26.007  15.058 -0.34 +0.01    +0.064 A 
DOCKED: ATOM      5  C   UNL d   1      43.088  29.390  17.422 -0.31 +0.02    +0.066 A 
DOCKED: ATOM      6  C   UNL d   1      43.896  30.307  18.101 -0.31 -0.01    -0.021 A 
DOCKED: ATOM      7  C   UNL d   1      43.304  31.542  17.971 -0.35 -0.01    -0.025 A 
DOCKED: ATOM      8  C   UNL d   1      42.178  31.352  17.175 -0.36 +0.02    +0.066 A 
DOCKED: ATOM      9  C   UNL d   1      43.806  32.815  18.617 -0.39 +0.01    +0.051 C 
DOCKED: ATOM     10  C   UNL d   1      40.191  32.223  15.926 -0.39 +0.01    +0.066 A 
DOCKED: ATOM     11  C   UNL d   1      39.486  33.317  15.411 -0.44 -0.00    -0.021 A 
DOCKED: ATOM     12  C   UNL d   1      38.482  32.798  14.614 -0.41 +0.00    +0.000 A 
DOCKED: ATOM     13  C   UNL d   1      38.627  31.386  14.700 -0.36 +0.01    +0.070 A 
DOCKED: ATOM     14  C   UNL d   1      39.774  34.795  15.647 -0.46 +0.01    +0.052 C 
DOCKED: ATOM     15  C   UNL d   1      37.960  29.048  14.163 -0.35 +0.01    +0.066 A 
DOCKED: ATOM     16  C   UNL d   1      37.034  28.162  13.615 -0.42 -0.00    -0.021 A 
DOCKED: ATOM     17  C   UNL d   1      37.510  26.878  13.884 -0.44 +0.00    +0.000 A 
DOCKED: ATOM     18  C   UNL d   1      38.708  27.081  14.583 -0.36 +0.01    +0.070 A 
DOCKED: ATOM     19  C   UNL d   1      35.763  28.613  12.940 -0.60 +0.01    +0.052 C 
DOCKED: ATOM     20  C   UNL d   1      40.745  26.165  15.769 -0.38 +0.02    +0.066 A 
DOCKED: ATOM     21  C   UNL d   1      41.565  25.115  16.173 -0.38 -0.01    -0.025 A 
DOCKED: ATOM     22  C   UNL d   1      42.646  25.687  16.806 -0.25 -0.01    -0.021 A 
DOCKED: ATOM     23  C   UNL d   1      42.436  27.069  16.780 -0.32 +0.02    +0.066 A 
DOCKED: ATOM     24  C   UNL d   1      41.327  23.642  15.969 -0.55 +0.01    +0.051 C 
DOCKED: ATOM     25  N   UNL d   1      42.010  30.016  16.892 -0.23 -0.08    -0.248 N 
DOCKED: ATOM     26  N   UNL d   1      39.666  31.045  15.504 -0.13 -0.06    -0.248 N 
DOCKED: ATOM     27  N   UNL d   1      38.927  28.402  14.809 -0.15 -0.07    -0.248 N 
DOCKED: ATOM     28  N   UNL d   1      41.257  27.352  16.189 -0.27 -0.08    -0.248 N 
DOCKED: ATOM     29 FE   UNL d   1      40.465  29.184  15.848 -0.09 +0.00    +0.000 Fe
DOCKED: ATOM     30  O   UNL d   1      40.052  29.745  17.239 -0.80 +0.00    +0.000 OA
DOCKED: ATOM     31  O   UNL d   1      39.441  28.384  16.733 -0.85 +0.00    +0.000 OA
DOCKED: ENDROOT
DOCKED: BRANCH   6  32
DOCKED: ATOM     32  C   UNL d   1      45.102  30.019  18.957 -0.26 +0.03    +0.052 C 
DOCKED: BRANCH  32  33
DOCKED: ATOM     33  C   UNL d   1      44.757  29.251  20.229 -0.14 +0.10    +0.115 C 
DOCKED: BRANCH  33  34
DOCKED: ATOM     34  C   UNL d   1      45.930  28.468  20.765 -0.13 +0.18    +0.139 C 
DOCKED: ATOM     35  O   UNL d   1      46.845  29.057  21.318 -0.54 -1.10    -0.650 OA
DOCKED: BRANCH  34  36
DOCKED: ATOM     36  O   UNL d   1      46.007  27.129  20.623 +0.04 -0.74    -0.776 OA
DOCKED: ATOM     37  H   UNL d   1      45.998  26.706  19.756 +0.05 +0.11    +0.167 HD
DOCKED: ENDBRANCH  34  36
DOCKED: ENDBRANCH  33  34
DOCKED: ENDBRANCH  32  33
DOCKED: ENDBRANCH   6  32
DOCKED: BRANCH  22  38
DOCKED: ATOM     38  C   UNL d   1      43.781  24.938  17.454 -0.32 +0.02    +0.052 C 
DOCKED: BRANCH  38  39
DOCKED: ATOM     39  C   UNL d   1      45.142  25.555  17.138 -0.23 +0.07    +0.115 C 
DOCKED: BRANCH  39  40
DOCKED: ATOM     40  C   UNL d   1      46.288  24.703  17.624 -0.23 +0.11    +0.139 C 
DOCKED: ATOM     41  O   UNL d   1      46.732  23.819  16.909 -0.29 -1.04    -0.650 OA
DOCKED: BRANCH  40  42
DOCKED: ATOM     42  O   UNL d   1      46.870  24.935  18.817 +0.07 -0.50    -0.776 OA
DOCKED: ATOM     43  H   UNL d   1      46.947  25.827  19.176 +0.04 +0.10    +0.167 HD
DOCKED: ENDBRANCH  40  42
DOCKED: ENDBRANCH  39  40
DOCKED: ENDBRANCH  38  39
DOCKED: ENDBRANCH  22  38
DOCKED: BRANCH  12  44
DOCKED: ATOM     44  C   UNL d   1      37.506  33.686  13.871 -0.49 +0.00    +0.004 C 
DOCKED: ATOM     45  C   UNL d   1      36.504  33.314  13.075 -0.54 +0.00    +0.012 C 
DOCKED: ENDBRANCH  12  44
DOCKED: BRANCH  17  46
DOCKED: ATOM     46  C   UNL d   1      36.917  25.524  13.597 -0.63 +0.00    +0.004 C 
DOCKED: ATOM     47  C   UNL d   1      36.110  25.171  12.588 -0.69 +0.00    +0.012 C 
DOCKED: ENDBRANCH  17  46
DOCKED: TORSDOF 10
DOCKED: TER
DOCKED: ENDMDL
________________________________________________________________________________


	BEGINNING GENETIC ALGORITHM DOCKING 64 of 100
Run: 64 Seed: 302554809 1156829193 [ Run 64 of 100 GA/GALS ]
Beginning LAMARCKIAN GENETIC ALGORITHM (LGA), with a maximum of 25000000 energy evaluations.

Final-Value: -19.675


	FINAL GENETIC ALGORITHM DOCKED STATE
	_______________________________________________


Detailed state:  trans 41.554 29.020 16.367 quatxyzw -0.353696 0.392733 0.848907 0.004142 center 8.287 34.468 -0.670 ntor 10 -23.2181 25.0403 -2.2149 -49.0124 -103.3763 160.3214 45.5795 -77.7600 -79.4135 143.5710
State:	 41.554  29.020  16.367  -0.354  0.393  0.849 179.525    -23.22   25.04   -2.21  -49.01 -103.38  160.32   45.58  -77.76  -79.41  143.57

DOCKED: MODEL       64
DOCKED: USER    Run = 64
DOCKED: USER    DPF = D:/Protein_go_brrr/autodock/final/2DN3/heme_O2/dock.dpf
DOCKED: USER  
DOCKED: USER    Estimated Free Energy of Binding    =  -16.60 kcal/mol  [=(1)+(2)+(3)-(4)]
DOCKED: USER    Estimated Inhibition Constant, Ki   =  679.15 fM (femtomolar)  [Temperature = 298.15 K]
DOCKED: USER    
DOCKED: USER    (1) Final Intermolecular Energy     =  -19.58 kcal/mol
DOCKED: USER        vdW + Hbond + desolv Energy     =  -16.99 kcal/mol
DOCKED: USER        Electrostatic Energy            =   -2.60 kcal/mol
DOCKED: USER    (2) Final Total Internal Energy     =   -0.09 kcal/mol
DOCKED: USER    (3) Torsional Free Energy           =   +2.98 kcal/mol
DOCKED: USER    (4) Unbound System's Energy  [=(2)] =   -0.09 kcal/mol
DOCKED: USER    
DOCKED: USER    
DOCKED: USER    NEWDPF move heme_O2_opt.pdbqt
DOCKED: USER    NEWDPF about 8.287000 34.468000 -0.670000
DOCKED: USER    NEWDPF tran0 41.554432 29.020407 16.366592
DOCKED: USER    NEWDPF quaternion0 -0.353696 0.392733 0.848907 0.004142
DOCKED: USER    NEWDPF axisangle0 -0.353699 0.392737 0.848914 179.525308
DOCKED: USER    NEWDPF quat0 -0.353699 0.392737 0.848914 179.525308
DOCKED: USER    NEWDPF dihe0 -23.22 25.04 -2.21 -49.01 -103.38 160.32 45.58 -77.76 -79.41 143.57 
DOCKED: USER  keepresnum = 1 
DOCKED: USER  
DOCKED: REMARK  10 active torsions:
DOCKED: REMARK  status: ('A' for Active; 'I' for Inactive)
DOCKED: REMARK    1  A    between atoms: C_6  and  C_10 
DOCKED: REMARK    2  A    between atoms: C_10  and  C_11 
DOCKED: REMARK    3  A    between atoms: C_11  and  C_12 
DOCKED: REMARK    4  A    between atoms: C_12  and  O_14 
DOCKED: REMARK    5  A    between atoms: C_17  and  C_20 
DOCKED: REMARK    6  A    between atoms: C_24  and  C_27 
DOCKED: REMARK    7  A    between atoms: C_31  and  C_34 
DOCKED: REMARK    8  A    between atoms: C_34  and  C_35 
DOCKED: REMARK    9  A    between atoms: C_35  and  C_36 
DOCKED: REMARK   10  A    between atoms: C_36  and  O_38 
DOCKED: USER                              x       y       z     vdW  Elec       q    Type
DOCKED: USER                           _______ _______ _______ _____ _____    ______ ____
DOCKED: ROOT
DOCKED: ATOM      1  C   UNL d   1      43.276  28.606  17.534 -0.22 +0.02    +0.064 A 
DOCKED: ATOM      2  C   UNL d   1      40.896  32.618  16.641 -0.43 +0.01    +0.064 A 
DOCKED: ATOM      3  C   UNL d   1      37.812  30.265  13.804 -0.41 +0.01    +0.064 C 
DOCKED: ATOM      4  C   UNL d   1      39.966  26.051  15.094 -0.39 +0.01    +0.064 A 
DOCKED: ATOM      5  C   UNL d   1      42.880  29.888  17.524 -0.30 +0.02    +0.066 A 
DOCKED: ATOM      6  C   UNL d   1      43.533  30.915  18.212 -0.34 -0.01    -0.021 A 
DOCKED: ATOM      7  C   UNL d   1      42.819  32.070  17.990 -0.42 -0.01    -0.025 A 
DOCKED: ATOM      8  C   UNL d   1      41.777  31.725  17.132 -0.40 +0.01    +0.066 A 
DOCKED: ATOM      9  C   UNL d   1      43.132  33.414  18.610 -0.43 +0.01    +0.051 C 
DOCKED: ATOM     10  C   UNL d   1      39.797  32.320  15.721 -0.39 +0.01    +0.066 A 
DOCKED: ATOM     11  C   UNL d   1      39.013  33.308  15.115 -0.43 -0.00    -0.021 A 
DOCKED: ATOM     12  C   UNL d   1      38.130  32.650  14.279 -0.40 +0.00    +0.000 A 
DOCKED: ATOM     13  C   UNL d   1      38.423  31.267  14.436 -0.36 +0.01    +0.070 A 
DOCKED: ATOM     14  C   UNL d   1      39.120  34.816  15.303 -0.56 +0.01    +0.052 C 
DOCKED: ATOM     15  C   UNL d   1      38.056  28.852  13.961 -0.36 +0.01    +0.066 A 
DOCKED: ATOM     16  C   UNL d   1      37.272  27.847  13.395 -0.44 -0.00    -0.021 A 
DOCKED: ATOM     17  C   UNL d   1      37.867  26.636  13.750 -0.46 +0.00    +0.000 A 
DOCKED: ATOM     18  C   UNL d   1      38.984  26.998  14.515 -0.37 +0.02    +0.070 A 
DOCKED: ATOM     19  C   UNL d   1      36.008  28.127  12.621 -0.62 +0.01    +0.052 C 
DOCKED: ATOM     20  C   UNL d   1      41.024  26.362  15.868 -0.38 +0.02    +0.066 A 
DOCKED: ATOM     21  C   UNL d   1      41.925  25.427  16.370 -0.35 -0.01    -0.025 A 
DOCKED: ATOM     22  C   UNL d   1      42.890  26.139  17.045 -0.31 -0.01    -0.021 A 
DOCKED: ATOM     23  C   UNL d   1      42.532  27.487  16.945 -0.32 +0.02    +0.066 A 
DOCKED: ATOM     24  C   UNL d   1      41.865  23.929  16.216 -0.50 +0.01    +0.051 C 
DOCKED: ATOM     25  N   UNL d   1      41.777  30.370  16.899 -0.24 -0.07    -0.248 N 
DOCKED: ATOM     26  N   UNL d   1      39.436  31.075  15.319 -0.16 -0.06    -0.248 N 
DOCKED: ATOM     27  N   UNL d   1      39.041  28.343  14.695 -0.13 -0.07    -0.248 N 
DOCKED: ATOM     28  N   UNL d   1      41.372  27.614  16.267 -0.25 -0.08    -0.248 N 
DOCKED: ATOM     29 FE   UNL d   1      40.409  29.330  15.795 -0.09 +0.00    +0.000 Fe
DOCKED: ATOM     30  O   UNL d   1      39.842  29.892  17.131 -0.74 +0.00    +0.000 OA
DOCKED: ATOM     31  O   UNL d   1      39.420  28.453  16.647 -0.84 +0.00    +0.000 OA
DOCKED: ENDROOT
DOCKED: BRANCH   6  32
DOCKED: ATOM     32  C   UNL d   1      44.702  30.796  19.155 -0.29 +0.02    +0.052 C 
DOCKED: BRANCH  32  33
DOCKED: ATOM     33  C   UNL d   1      45.248  29.375  19.244 -0.22 +0.07    +0.115 C 
DOCKED: BRANCH  33  34
DOCKED: ATOM     34  C   UNL d   1      45.554  28.964  20.664 -0.12 +0.17    +0.139 C 
DOCKED: ATOM     35  O   UNL d   1      44.813  28.184  21.239 -0.11 -1.06    -0.650 OA
DOCKED: BRANCH  34  36
DOCKED: ATOM     36  O   UNL d   1      46.619  29.463  21.326 -0.44 -1.33    -0.776 OA
DOCKED: ATOM     37  H   UNL d   1      47.385  29.822  20.864 +0.02 +0.16    +0.167 HD
DOCKED: ENDBRANCH  34  36
DOCKED: ENDBRANCH  33  34
DOCKED: ENDBRANCH  32  33
DOCKED: ENDBRANCH   6  32
DOCKED: BRANCH  22  38
DOCKED: ATOM     38  C   UNL d   1      44.054  25.547  17.797 -0.29 +0.02    +0.052 C 
DOCKED: BRANCH  38  39
DOCKED: ATOM     39  C   UNL d   1      43.969  25.807  19.299 -0.23 +0.06    +0.115 C 
DOCKED: BRANCH  39  40
DOCKED: ATOM     40  C   UNL d   1      43.469  24.607  20.065 -0.30 +0.07    +0.139 C 
DOCKED: ATOM     41  O   UNL d   1      42.405  24.094  19.759 -0.23 -0.24    -0.650 OA
DOCKED: BRANCH  40  42
DOCKED: ATOM     42  O   UNL d   1      44.203  24.056  21.051 -0.46 -0.56    -0.776 OA
DOCKED: ATOM     43  H   UNL d   1      44.830  24.578  21.566 +0.06 +0.11    +0.167 HD
DOCKED: ENDBRANCH  40  42
DOCKED: ENDBRANCH  39  40
DOCKED: ENDBRANCH  38  39
DOCKED: ENDBRANCH  22  38
DOCKED: BRANCH  12  44
DOCKED: ATOM     44  C   UNL d   1      37.115  33.394  13.436 -0.50 +0.00    +0.004 C 
DOCKED: ATOM     45  C   UNL d   1      36.297  32.896  12.509 -0.57 +0.00    +0.012 C 
DOCKED: ENDBRANCH  12  44
DOCKED: BRANCH  17  46
DOCKED: ATOM     46  C   UNL d   1      37.448  25.214  13.485 -0.63 +0.00    +0.004 C 
DOCKED: ATOM     47  C   UNL d   1      36.286  24.622  13.789 -0.65 +0.00    +0.012 C 
DOCKED: ENDBRANCH  17  46
DOCKED: TORSDOF 10
DOCKED: TER
DOCKED: ENDMDL
________________________________________________________________________________


	BEGINNING GENETIC ALGORITHM DOCKING 65 of 100
Run: 65 Seed: 122843599 1534012028 [ Run 65 of 100 GA/GALS ]
Beginning LAMARCKIAN GENETIC ALGORITHM (LGA), with a maximum of 25000000 energy evaluations.

Final-Value: -11.600


	FINAL GENETIC ALGORITHM DOCKED STATE
	_______________________________________________


Detailed state:  trans 28.155 40.294 -1.171 quatxyzw 0.131866 0.694771 -0.544700 -0.450784 center 8.287 34.468 -0.670 ntor 10 -27.8382 -107.9936 -49.2529 117.8343 -109.7348 173.2780 -22.3361 47.3738 -151.6450 173.1007
State:	 28.155  40.294  -1.171   0.148  0.778 -0.610 -126.412    -27.84 -107.99  -49.25  117.83 -109.73  173.28  -22.34   47.37 -151.65  173.10

DOCKED: MODEL       65
DOCKED: USER    Run = 65
DOCKED: USER    DPF = D:/Protein_go_brrr/autodock/final/2DN3/heme_O2/dock.dpf
DOCKED: USER  
DOCKED: USER    Estimated Free Energy of Binding    =   -6.73 kcal/mol  [=(1)+(2)+(3)-(4)]
DOCKED: USER    Estimated Inhibition Constant, Ki   =   11.72 uM (micromolar)  [Temperature = 298.15 K]
DOCKED: USER    
DOCKED: USER    (1) Final Intermolecular Energy     =   -9.71 kcal/mol
DOCKED: USER        vdW + Hbond + desolv Energy     =   -6.70 kcal/mol
DOCKED: USER        Electrostatic Energy            =   -3.01 kcal/mol
DOCKED: USER    (2) Final Total Internal Energy     =   -1.89 kcal/mol
DOCKED: USER    (3) Torsional Free Energy           =   +2.98 kcal/mol
DOCKED: USER    (4) Unbound System's Energy  [=(2)] =   -1.89 kcal/mol
DOCKED: USER    
DOCKED: USER    
DOCKED: USER    NEWDPF move heme_O2_opt.pdbqt
DOCKED: USER    NEWDPF about 8.287000 34.468000 -0.670000
DOCKED: USER    NEWDPF tran0 28.155416 40.294065 -1.170757
DOCKED: USER    NEWDPF quaternion0 0.131866 0.694771 -0.544700 -0.450784
DOCKED: USER    NEWDPF axisangle0 0.147727 0.778339 -0.610217 -126.412000
DOCKED: USER    NEWDPF quat0 0.147727 0.778339 -0.610217 -126.412000
DOCKED: USER    NEWDPF dihe0 -27.84 -107.99 -49.25 117.83 -109.73 173.28 -22.34 47.37 -151.65 173.10 
DOCKED: USER  keepresnum = 1 
DOCKED: USER  
DOCKED: REMARK  10 active torsions:
DOCKED: REMARK  status: ('A' for Active; 'I' for Inactive)
DOCKED: REMARK    1  A    between atoms: C_6  and  C_10 
DOCKED: REMARK    2  A    between atoms: C_10  and  C_11 
DOCKED: REMARK    3  A    between atoms: C_11  and  C_12 
DOCKED: REMARK    4  A    between atoms: C_12  and  O_14 
DOCKED: REMARK    5  A    between atoms: C_17  and  C_20 
DOCKED: REMARK    6  A    between atoms: C_24  and  C_27 
DOCKED: REMARK    7  A    between atoms: C_31  and  C_34 
DOCKED: REMARK    8  A    between atoms: C_34  and  C_35 
DOCKED: REMARK    9  A    between atoms: C_35  and  C_36 
DOCKED: REMARK   10  A    between atoms: C_36  and  O_38 
DOCKED: USER                              x       y       z     vdW  Elec       q    Type
DOCKED: USER                           _______ _______ _______ _____ _____    ______ ____
DOCKED: ROOT
DOCKED: ATOM      1  C   UNL d   1      29.220  41.794  -0.115 -0.09 +0.02    +0.064 A 
DOCKED: ATOM      2  C   UNL d   1      28.514  37.172   0.720 -0.13 +0.01    +0.064 A 
DOCKED: ATOM      3  C   UNL d   1      25.819  36.775  -3.240 -0.24 +0.00    +0.064 C 
DOCKED: ATOM      4  C   UNL d   1      26.932  41.418  -4.365 -0.16 +0.01    +0.064 A 
DOCKED: ATOM      5  C   UNL d   1      29.250  40.569   0.434 -0.11 +0.01    +0.066 A 
DOCKED: ATOM      6  C   UNL d   1      29.914  40.260   1.625 -0.12 -0.00    -0.021 A 
DOCKED: ATOM      7  C   UNL d   1      29.747  38.913   1.844 -0.12 -0.00    -0.025 A 
DOCKED: ATOM      8  C   UNL d   1      28.944  38.446   0.808 -0.13 +0.01    +0.066 A 
DOCKED: ATOM      9  C   UNL d   1      30.367  38.139   2.987 -0.07 +0.00    +0.051 C 
DOCKED: ATOM     10  C   UNL d   1      27.652  36.629  -0.331 -0.12 +0.01    +0.066 A 
DOCKED: ATOM     11  C   UNL d   1      27.103  35.343  -0.287 -0.20 -0.00    -0.021 A 
DOCKED: ATOM     12  C   UNL d   1      26.308  35.215  -1.411 -0.22 +0.00    +0.000 A 
DOCKED: ATOM     13  C   UNL d   1      26.430  36.454  -2.099 -0.10 +0.00    +0.070 A 
DOCKED: ATOM     14  C   UNL d   1      27.305  34.289   0.796 -0.26 +0.02    +0.052 C 
DOCKED: ATOM     15  C   UNL d   1      25.944  38.004  -3.985 -0.22 +0.01    +0.066 A 
DOCKED: ATOM     16  C   UNL d   1      25.409  38.216  -5.255 -0.22 -0.00    -0.021 A 
DOCKED: ATOM     17  C   UNL d   1      25.714  39.533  -5.597 -0.19 +0.00    +0.000 A 
DOCKED: ATOM     18  C   UNL d   1      26.421  40.033  -4.495 -0.19 +0.01    +0.070 A 
DOCKED: ATOM     19  C   UNL d   1      24.709  37.137  -6.044 -0.16 +0.00    +0.052 C 
DOCKED: ATOM     20  C   UNL d   1      27.651  41.918  -3.341 -0.13 +0.01    +0.066 A 
DOCKED: ATOM     21  C   UNL d   1      28.090  43.237  -3.266 -0.07 -0.00    -0.025 A 
DOCKED: ATOM     22  C   UNL d   1      28.721  43.369  -2.049 -0.07 -0.01    -0.021 A 
DOCKED: ATOM     23  C   UNL d   1      28.658  42.116  -1.432 -0.10 +0.02    +0.066 A 
DOCKED: ATOM     24  C   UNL d   1      27.920  44.315  -4.305 -0.04 +0.01    +0.051 C 
DOCKED: ATOM     25  N   UNL d   1      28.692  39.452  -0.095 -0.09 -0.04    -0.248 N 
DOCKED: ATOM     26  N   UNL d   1      27.253  37.307  -1.437 -0.05 -0.03    -0.248 N 
DOCKED: ATOM     27  N   UNL d   1      26.616  39.069  -3.559 -0.17 -0.03    -0.248 N 
DOCKED: ATOM     28  N   UNL d   1      28.047  41.226  -2.240 -0.09 -0.05    -0.248 N 
DOCKED: ATOM     29 FE   UNL d   1      27.652  39.280  -1.844 -0.05 +0.00    +0.000 Fe
DOCKED: ATOM     30  O   UNL d   1      29.025  38.547  -1.855 -0.12 +0.00    +0.000 OA
DOCKED: ATOM     31  O   UNL d   1      28.546  39.327  -3.137 -0.12 +0.00    +0.000 OA
DOCKED: ENDROOT
DOCKED: BRANCH   6  32
DOCKED: ATOM     32  C   UNL d   1      30.789  41.164   2.454 -0.20 +0.01    +0.052 C 
DOCKED: BRANCH  32  33
DOCKED: ATOM     33  C   UNL d   1      32.092  41.536   1.751 -0.13 +0.06    +0.115 C 
DOCKED: BRANCH  33  34
DOCKED: ATOM     34  C   UNL d   1      32.668  42.835   2.257 -0.22 +0.15    +0.139 C 
DOCKED: ATOM     35  O   UNL d   1      33.572  42.815   3.078 -0.49 -0.64    -0.650 OA
DOCKED: BRANCH  34  36
DOCKED: ATOM     36  O   UNL d   1      32.187  44.026   1.844 +0.10 -1.33    -0.776 OA
DOCKED: ATOM     37  H   UNL d   1      31.771  44.137   0.982 +0.04 +0.24    +0.167 HD
DOCKED: ENDBRANCH  34  36
DOCKED: ENDBRANCH  33  34
DOCKED: ENDBRANCH  32  33
DOCKED: ENDBRANCH   6  32
DOCKED: BRANCH  22  38
DOCKED: ATOM     38  C   UNL d   1      29.399  44.615  -1.543 -0.05 +0.02    +0.052 C 
DOCKED: BRANCH  38  39
DOCKED: ATOM     39  C   UNL d   1      30.840  44.735  -2.036 -0.04 +0.05    +0.115 C 
DOCKED: BRANCH  39  40
DOCKED: ATOM     40  C   UNL d   1      31.798  45.109  -0.933 -0.10 +0.14    +0.139 C 
DOCKED: ATOM     41  O   UNL d   1      31.482  45.961  -0.118 -0.53 -0.71    -0.650 OA
DOCKED: BRANCH  40  42
DOCKED: ATOM     42  O   UNL d   1      32.982  44.480  -0.797 +0.03 -1.34    -0.776 OA
DOCKED: ATOM     43  H   UNL d   1      33.132  43.832  -0.099 +0.03 +0.34    +0.167 HD
DOCKED: ENDBRANCH  40  42
DOCKED: ENDBRANCH  39  40
DOCKED: ENDBRANCH  38  39
DOCKED: ENDBRANCH  22  38
DOCKED: BRANCH  12  44
DOCKED: ATOM     44  C   UNL d   1      25.533  33.949  -1.708 -0.29 -0.00    +0.004 C 
DOCKED: ATOM     45  C   UNL d   1      24.229  33.826  -1.957 -0.42 -0.00    +0.012 C 
DOCKED: ENDBRANCH  12  44
DOCKED: BRANCH  17  46
DOCKED: ATOM     46  C   UNL d   1      25.454  40.312  -6.859 -0.13 +0.00    +0.004 C 
DOCKED: ATOM     47  C   UNL d   1      24.614  41.340  -7.039 -0.14 +0.00    +0.012 C 
DOCKED: ENDBRANCH  17  46
DOCKED: TORSDOF 10
DOCKED: TER
DOCKED: ENDMDL
________________________________________________________________________________


	BEGINNING GENETIC ALGORITHM DOCKING 66 of 100
Run: 66 Seed: 243364808 975731723 [ Run 66 of 100 GA/GALS ]
Beginning LAMARCKIAN GENETIC ALGORITHM (LGA), with a maximum of 25000000 energy evaluations.

Final-Value: -19.057


	FINAL GENETIC ALGORITHM DOCKED STATE
	_______________________________________________


Detailed state:  trans 8.725 34.887 -0.841 quatxyzw -0.027542 -0.041020 -0.037324 -0.998081 center 8.287 34.468 -0.670 ntor 10 54.2712 146.8648 18.2360 -109.7265 -129.2578 -92.6270 -13.8452 -56.4235 -163.2679 29.9403
State:	  8.725  34.887  -0.841  -0.445 -0.662 -0.603 -7.100     54.27  146.86   18.24 -109.73 -129.26  -92.63  -13.85  -56.42 -163.27   29.94

DOCKED: MODEL       66
DOCKED: USER    Run = 66
DOCKED: USER    DPF = D:/Protein_go_brrr/autodock/final/2DN3/heme_O2/dock.dpf
DOCKED: USER  
DOCKED: USER    Estimated Free Energy of Binding    =  -13.87 kcal/mol  [=(1)+(2)+(3)-(4)]
DOCKED: USER    Estimated Inhibition Constant, Ki   =   68.13 pM (picomolar)  [Temperature = 298.15 K]
DOCKED: USER    
DOCKED: USER    (1) Final Intermolecular Energy     =  -16.85 kcal/mol
DOCKED: USER        vdW + Hbond + desolv Energy     =  -15.21 kcal/mol
DOCKED: USER        Electrostatic Energy            =   -1.65 kcal/mol
DOCKED: USER    (2) Final Total Internal Energy     =   -2.20 kcal/mol
DOCKED: USER    (3) Torsional Free Energy           =   +2.98 kcal/mol
DOCKED: USER    (4) Unbound System's Energy  [=(2)] =   -2.20 kcal/mol
DOCKED: USER    
DOCKED: USER    
DOCKED: USER    NEWDPF move heme_O2_opt.pdbqt
DOCKED: USER    NEWDPF about 8.287000 34.468000 -0.670000
DOCKED: USER    NEWDPF tran0 8.725055 34.887181 -0.841201
DOCKED: USER    NEWDPF quaternion0 -0.027542 -0.041020 -0.037324 -0.998081
DOCKED: USER    NEWDPF axisangle0 -0.444789 -0.662453 -0.602759 -7.100202
DOCKED: USER    NEWDPF quat0 -0.444789 -0.662453 -0.602759 -7.100202
DOCKED: USER    NEWDPF dihe0 54.27 146.86 18.24 -109.73 -129.26 -92.63 -13.85 -56.42 -163.27 29.94 
DOCKED: USER  keepresnum = 1 
DOCKED: USER  
DOCKED: REMARK  10 active torsions:
DOCKED: REMARK  status: ('A' for Active; 'I' for Inactive)
DOCKED: REMARK    1  A    between atoms: C_6  and  C_10 
DOCKED: REMARK    2  A    between atoms: C_10  and  C_11 
DOCKED: REMARK    3  A    between atoms: C_11  and  C_12 
DOCKED: REMARK    4  A    between atoms: C_12  and  O_14 
DOCKED: REMARK    5  A    between atoms: C_17  and  C_20 
DOCKED: REMARK    6  A    between atoms: C_24  and  C_27 
DOCKED: REMARK    7  A    between atoms: C_31  and  C_34 
DOCKED: REMARK    8  A    between atoms: C_34  and  C_35 
DOCKED: REMARK    9  A    between atoms: C_35  and  C_36 
DOCKED: REMARK   10  A    between atoms: C_36  and  O_38 
DOCKED: USER                              x       y       z     vdW  Elec       q    Type
DOCKED: USER                           _______ _______ _______ _____ _____    ______ ____
DOCKED: ROOT
DOCKED: ATOM      1  C   UNL d   1       6.977  35.575  -1.826 -0.27 +0.01    +0.064 A 
DOCKED: ATOM      2  C   UNL d   1       7.639  32.990   2.104 -0.41 +0.01    +0.064 A 
DOCKED: ATOM      3  C   UNL d   1      12.406  33.156   1.520 -0.44 +0.00    +0.064 C 
DOCKED: ATOM      4  C   UNL d   1      11.756  36.218  -2.257 -0.41 +0.00    +0.064 A 
DOCKED: ATOM      5  C   UNL d   1       6.768  34.860  -0.708 -0.30 +0.01    +0.066 A 
DOCKED: ATOM      6  C   UNL d   1       5.502  34.557  -0.198 -0.30 -0.00    -0.021 A 
DOCKED: ATOM      7  C   UNL d   1       5.694  33.845   0.963 -0.34 -0.00    -0.025 A 
DOCKED: ATOM      8  C   UNL d   1       7.070  33.692   1.105 -0.36 +0.01    +0.066 A 
DOCKED: ATOM      9  C   UNL d   1       4.588  33.377   1.884 -0.39 +0.01    +0.051 C 
DOCKED: ATOM     10  C   UNL d   1       9.075  32.776   2.292 -0.39 +0.00    +0.066 A 
DOCKED: ATOM     11  C   UNL d   1       9.604  31.904   3.250 -0.48 -0.00    -0.021 A 
DOCKED: ATOM     12  C   UNL d   1      10.976  31.924   3.086 -0.45 +0.00    +0.000 A 
DOCKED: ATOM     13  C   UNL d   1      11.213  32.837   2.020 -0.37 +0.00    +0.070 A 
DOCKED: ATOM     14  C   UNL d   1       8.830  31.067   4.262 -0.57 +0.00    +0.052 C 
DOCKED: ATOM     15  C   UNL d   1      12.691  34.100   0.466 -0.36 +0.01    +0.066 A 
DOCKED: ATOM     16  C   UNL d   1      13.971  34.513   0.099 -0.44 -0.00    -0.021 A 
DOCKED: ATOM     17  C   UNL d   1      13.811  35.387  -0.976 -0.43 +0.00    +0.000 A 
DOCKED: ATOM     18  C   UNL d   1      12.426  35.441  -1.188 -0.33 +0.01    +0.070 A 
DOCKED: ATOM     19  C   UNL d   1      15.216  34.083   0.834 -0.60 +0.00    +0.052 C 
DOCKED: ATOM     20  C   UNL d   1      10.429  36.326  -2.462 -0.38 +0.01    +0.066 A 
DOCKED: ATOM     21  C   UNL d   1       9.856  37.059  -3.498 -0.36 -0.00    -0.025 A 
DOCKED: ATOM     22  C   UNL d   1       8.496  36.865  -3.407 -0.34 -0.00    -0.021 A 
DOCKED: ATOM     23  C   UNL d   1       8.287  36.033  -2.303 -0.31 +0.01    +0.066 A 
DOCKED: ATOM     24  C   UNL d   1      10.570  37.903  -4.521 -0.51 -0.00    +0.051 C 
DOCKED: ATOM     25  N   UNL d   1       7.733  34.374   0.110 -0.17 -0.05    -0.248 N 
DOCKED: ATOM     26  N   UNL d   1      10.051  33.354   1.546 -0.22 -0.03    -0.248 N 
DOCKED: ATOM     27  N   UNL d   1      11.758  34.714  -0.256 -0.07 -0.04    -0.248 N 
DOCKED: ATOM     28  N   UNL d   1       9.461  35.745  -1.704 -0.21 -0.05    -0.248 N 
DOCKED: ATOM     29 FE   UNL d   1       9.757  34.559  -0.091 -0.07 +0.00    +0.000 Fe
DOCKED: ATOM     30  O   UNL d   1       9.173  35.330   1.129 -0.59 +0.00    +0.000 OA
DOCKED: ATOM     31  O   UNL d   1      10.315  35.985   0.263 -0.72 +0.00    +0.000 OA
DOCKED: ENDROOT
DOCKED: BRANCH   6  32
DOCKED: ATOM     32  C   UNL d   1       4.165  35.032  -0.704 -0.25 +0.02    +0.052 C 
DOCKED: BRANCH  32  33
DOCKED: ATOM     33  C   UNL d   1       3.834  36.453  -0.257 -0.06 +0.07    +0.115 C 
DOCKED: BRANCH  33  34
DOCKED: ATOM     34  C   UNL d   1       2.710  37.061  -1.060 -0.06 +0.15    +0.139 C 
DOCKED: ATOM     35  O   UNL d   1       1.554  36.769  -0.797 -0.33 -0.97    -0.650 OA
DOCKED: BRANCH  34  36
DOCKED: ATOM     36  O   UNL d   1       2.954  37.903  -2.085 -0.02 -0.70    -0.776 OA
DOCKED: ATOM     37  H   UNL d   1       3.533  37.662  -2.818 +0.04 +0.09    +0.167 HD
DOCKED: ENDBRANCH  34  36
DOCKED: ENDBRANCH  33  34
DOCKED: ENDBRANCH  32  33
DOCKED: ENDBRANCH   6  32
DOCKED: BRANCH  22  38
DOCKED: ATOM     38  C   UNL d   1       7.457  37.499  -4.295 -0.28 +0.00    +0.052 C 
DOCKED: BRANCH  38  39
DOCKED: ATOM     39  C   UNL d   1       6.445  36.485  -4.823 -0.22 +0.01    +0.115 C 
DOCKED: BRANCH  39  40
DOCKED: ATOM     40  C   UNL d   1       5.026  36.841  -4.454 -0.13 +0.03    +0.139 C 
DOCKED: ATOM     41  O   UNL d   1       4.597  37.957  -4.701 +0.03 -0.14    -0.650 OA
DOCKED: BRANCH  40  42
DOCKED: ATOM     42  O   UNL d   1       4.202  35.930  -3.901 +0.04 -0.17    -0.776 OA
DOCKED: ATOM     43  H   UNL d   1       3.503  36.189  -3.288 +0.04 +0.05    +0.167 HD
DOCKED: ENDBRANCH  40  42
DOCKED: ENDBRANCH  39  40
DOCKED: ENDBRANCH  38  39
DOCKED: ENDBRANCH  22  38
DOCKED: BRANCH  12  44
DOCKED: ATOM     44  C   UNL d   1      11.901  31.091   3.947 -0.58 +0.00    +0.004 C 
DOCKED: ATOM     45  C   UNL d   1      13.224  31.199   4.071 -0.67 +0.00    +0.012 C 
DOCKED: ENDBRANCH  12  44
DOCKED: BRANCH  17  46
DOCKED: ATOM     46  C   UNL d   1      14.817  36.192  -1.754 -0.56 +0.00    +0.004 C 
DOCKED: ATOM     47  C   UNL d   1      14.918  37.524  -1.849 -0.64 +0.00    +0.012 C 
DOCKED: ENDBRANCH  17  46
DOCKED: TORSDOF 10
DOCKED: TER
DOCKED: ENDMDL
________________________________________________________________________________


	BEGINNING GENETIC ALGORITHM DOCKING 67 of 100
Run: 67 Seed: 1424198431 2088148951 [ Run 67 of 100 GA/GALS ]
Beginning LAMARCKIAN GENETIC ALGORITHM (LGA), with a maximum of 25000000 energy evaluations.

Final-Value: -11.003


	FINAL GENETIC ALGORITHM DOCKED STATE
	_______________________________________________


Detailed state:  trans 13.715 41.299 24.095 quatxyzw 0.205602 -0.746961 -0.497522 -0.390191 center 8.287 34.468 -0.670 ntor 10 106.7497 -77.9667 101.9031 -8.4248 -116.6901 -77.2277 50.1026 78.1367 164.6318 -16.5910
State:	 13.715  41.299  24.095   0.223 -0.811 -0.540 -134.067    106.75  -77.97  101.90   -8.42 -116.69  -77.23   50.10   78.14  164.63  -16.59

DOCKED: MODEL       67
DOCKED: USER    Run = 67
DOCKED: USER    DPF = D:/Protein_go_brrr/autodock/final/2DN3/heme_O2/dock.dpf
DOCKED: USER  
DOCKED: USER    Estimated Free Energy of Binding    =   -7.46 kcal/mol  [=(1)+(2)+(3)-(4)]
DOCKED: USER    Estimated Inhibition Constant, Ki   =    3.40 uM (micromolar)  [Temperature = 298.15 K]
DOCKED: USER    
DOCKED: USER    (1) Final Intermolecular Energy     =  -10.44 kcal/mol
DOCKED: USER        vdW + Hbond + desolv Energy     =  -10.63 kcal/mol
DOCKED: USER        Electrostatic Energy            =   +0.19 kcal/mol
DOCKED: USER    (2) Final Total Internal Energy     =   -0.56 kcal/mol
DOCKED: USER    (3) Torsional Free Energy           =   +2.98 kcal/mol
DOCKED: USER    (4) Unbound System's Energy  [=(2)] =   -0.56 kcal/mol
DOCKED: USER    
DOCKED: USER    
DOCKED: USER    NEWDPF move heme_O2_opt.pdbqt
DOCKED: USER    NEWDPF about 8.287000 34.468000 -0.670000
DOCKED: USER    NEWDPF tran0 13.714660 41.299007 24.095056
DOCKED: USER    NEWDPF quaternion0 0.205602 -0.746961 -0.497522 -0.390191
DOCKED: USER    NEWDPF axisangle0 0.223302 -0.811267 -0.540353 -134.067243
DOCKED: USER    NEWDPF quat0 0.223302 -0.811267 -0.540353 -134.067243
DOCKED: USER    NEWDPF dihe0 106.75 -77.97 101.90 -8.42 -116.69 -77.23 50.10 78.14 164.63 -16.59 
DOCKED: USER  keepresnum = 1 
DOCKED: USER  
DOCKED: REMARK  10 active torsions:
DOCKED: REMARK  status: ('A' for Active; 'I' for Inactive)
DOCKED: REMARK    1  A    between atoms: C_6  and  C_10 
DOCKED: REMARK    2  A    between atoms: C_10  and  C_11 
DOCKED: REMARK    3  A    between atoms: C_11  and  C_12 
DOCKED: REMARK    4  A    between atoms: C_12  and  O_14 
DOCKED: REMARK    5  A    between atoms: C_17  and  C_20 
DOCKED: REMARK    6  A    between atoms: C_24  and  C_27 
DOCKED: REMARK    7  A    between atoms: C_31  and  C_34 
DOCKED: REMARK    8  A    between atoms: C_34  and  C_35 
DOCKED: REMARK    9  A    between atoms: C_35  and  C_36 
DOCKED: REMARK   10  A    between atoms: C_36  and  O_38 
DOCKED: USER                              x       y       z     vdW  Elec       q    Type
DOCKED: USER                           _______ _______ _______ _____ _____    ______ ____
DOCKED: ROOT
DOCKED: ATOM      1  C   UNL d   1      15.536  42.386  24.092 -0.29 -0.02    +0.064 A 
DOCKED: ATOM      2  C   UNL d   1      11.678  42.583  21.329 -0.19 -0.02    +0.064 A 
DOCKED: ATOM      3  C   UNL d   1       9.615  39.012  23.796 -0.33 -0.02    +0.064 C 
DOCKED: ATOM      4  C   UNL d   1      13.378  39.122  26.943 -0.23 -0.02    +0.064 A 
DOCKED: ATOM      5  C   UNL d   1      14.654  42.732  23.140 -0.29 -0.02    +0.066 A 
DOCKED: ATOM      6  C   UNL d   1      14.883  43.727  22.186 -0.37 +0.01    -0.021 A 
DOCKED: ATOM      7  C   UNL d   1      13.749  43.815  21.412 -0.30 +0.01    -0.025 A 
DOCKED: ATOM      8  C   UNL d   1      12.878  42.838  21.885 -0.28 -0.02    +0.066 A 
DOCKED: ATOM      9  C   UNL d   1      13.535  44.820  20.301 -0.23 -0.01    +0.051 C 
DOCKED: ATOM     10  C   UNL d   1      10.730  41.557  21.767 -0.22 -0.02    +0.066 A 
DOCKED: ATOM     11  C   UNL d   1       9.573  41.225  21.054 -0.27 +0.01    -0.021 A 
DOCKED: ATOM     12  C   UNL d   1       8.973  40.184  21.740 -0.30 -0.00    +0.000 A 
DOCKED: ATOM     13  C   UNL d   1       9.812  39.944  22.864 -0.26 -0.02    +0.070 A 
DOCKED: ATOM     14  C   UNL d   1       9.073  41.855  19.759 -0.34 -0.03    +0.052 C 
DOCKED: ATOM     15  C   UNL d   1      10.421  38.760  24.967 -0.25 -0.02    +0.066 A 
DOCKED: ATOM     16  C   UNL d   1      10.073  37.880  25.991 -0.26 +0.01    -0.021 A 
DOCKED: ATOM     17  C   UNL d   1      11.131  37.896  26.901 -0.25 -0.00    +0.000 A 
DOCKED: ATOM     18  C   UNL d   1      12.058  38.794  26.354 -0.25 -0.03    +0.070 A 
DOCKED: ATOM     19  C   UNL d   1       8.752  37.153  26.039 -0.29 -0.01    +0.052 C 
DOCKED: ATOM     20  C   UNL d   1      14.272  40.011  26.468 -0.23 -0.02    +0.066 A 
DOCKED: ATOM     21  C   UNL d   1      15.507  40.265  27.056 -0.22 +0.00    -0.025 A 
DOCKED: ATOM     22  C   UNL d   1      16.148  41.173  26.243 -0.25 +0.00    -0.021 A 
DOCKED: ATOM     23  C   UNL d   1      15.268  41.454  25.193 -0.27 -0.02    +0.066 A 
DOCKED: ATOM     24  C   UNL d   1      16.048  39.675  28.333 -0.19 -0.01    +0.051 C 
DOCKED: ATOM     25  N   UNL d   1      13.410  42.216  22.991 -0.16 +0.08    -0.248 N 
DOCKED: ATOM     26  N   UNL d   1      10.876  40.786  22.874 -0.17 +0.07    -0.248 N 
DOCKED: ATOM     27  N   UNL d   1      11.578  39.365  25.220 -0.16 +0.11    -0.248 N 
DOCKED: ATOM     28  N   UNL d   1      14.111  40.779  25.358 +0.08 +0.11    -0.248 N 
DOCKED: ATOM     29 FE   UNL d   1      12.504  40.781  24.127 -0.06 -0.00    +0.000 Fe
DOCKED: ATOM     30  O   UNL d   1      11.856  42.190  24.260 -0.16 -0.00    +0.000 OA
DOCKED: ATOM     31  O   UNL d   1      12.019  41.281  25.537 -0.15 -0.00    +0.000 OA
DOCKED: ENDROOT
DOCKED: BRANCH   6  32
DOCKED: ATOM     32  C   UNL d   1      16.065  44.657  22.086 -0.19 -0.01    +0.052 C 
DOCKED: BRANCH  32  33
DOCKED: ATOM     33  C   UNL d   1      15.704  46.108  22.390 -0.22 -0.02    +0.115 C 
DOCKED: BRANCH  33  34
DOCKED: ATOM     34  C   UNL d   1      16.249  47.064  21.358 -0.24 -0.02    +0.139 C 
DOCKED: ATOM     35  O   UNL d   1      15.559  47.377  20.401 +0.03 +0.10    -0.650 OA
DOCKED: BRANCH  34  36
DOCKED: ATOM     36  O   UNL d   1      17.499  47.563  21.453 -0.03 +0.13    -0.776 OA
DOCKED: ATOM     37  H   UNL d   1      18.211  47.272  20.871 -0.24 -0.06    +0.167 HD
DOCKED: ENDBRANCH  34  36
DOCKED: ENDBRANCH  33  34
DOCKED: ENDBRANCH  32  33
DOCKED: ENDBRANCH   6  32
DOCKED: BRANCH  22  38
DOCKED: ATOM     38  C   UNL d   1      17.502  41.781  26.500 -0.24 -0.01    +0.052 C 
DOCKED: BRANCH  38  39
DOCKED: ATOM     39  C   UNL d   1      18.641  40.900  25.992 -0.34 -0.02    +0.115 C 
DOCKED: BRANCH  39  40
DOCKED: ATOM     40  C   UNL d   1      19.333  40.152  27.104 -0.29 -0.01    +0.139 C 
DOCKED: ATOM     41  O   UNL d   1      18.734  39.279  27.711 -0.36 -0.09    -0.650 OA
DOCKED: BRANCH  40  42
DOCKED: ATOM     42  O   UNL d   1      20.622  40.395  27.410 +0.03 +0.18    -0.776 OA
DOCKED: ATOM     43  H   UNL d   1      21.342  40.072  26.855 -0.48 -0.08    +0.167 HD
DOCKED: ENDBRANCH  40  42
DOCKED: ENDBRANCH  39  40
DOCKED: ENDBRANCH  38  39
DOCKED: ENDBRANCH  22  38
DOCKED: BRANCH  12  44
DOCKED: ATOM     44  C   UNL d   1       7.687  39.543  21.265 -0.40 -0.00    +0.004 C 
DOCKED: ATOM     45  C   UNL d   1       6.439  39.968  21.460 -0.28 -0.00    +0.012 C 
DOCKED: ENDBRANCH  12  44
DOCKED: BRANCH  17  46
DOCKED: ATOM     46  C   UNL d   1      11.306  37.201  28.225 -0.07 -0.00    +0.004 C 
DOCKED: ATOM     47  C   UNL d   1      10.371  36.610  28.980 -0.16 -0.00    +0.012 C 
DOCKED: ENDBRANCH  17  46
DOCKED: TORSDOF 10
DOCKED: TER
DOCKED: ENDMDL
________________________________________________________________________________


	BEGINNING GENETIC ALGORITHM DOCKING 68 of 100
Run: 68 Seed: 884128308 290606289 [ Run 68 of 100 GA/GALS ]
Beginning LAMARCKIAN GENETIC ALGORITHM (LGA), with a maximum of 25000000 energy evaluations.

Final-Value: -13.572


	FINAL GENETIC ALGORITHM DOCKED STATE
	_______________________________________________


Detailed state:  trans 44.791 21.175 17.706 quatxyzw -0.680920 -0.657108 -0.185918 -0.264560 center 8.287 34.468 -0.670 ntor 10 -171.2950 -5.8169 106.9378 105.5807 55.1625 -37.4171 -114.1904 170.9756 -175.6426 179.1339
State:	 44.791  21.175  17.706  -0.706 -0.681 -0.193 -149.318   -171.29   -5.82  106.94  105.58   55.16  -37.42 -114.19  170.98 -175.64  179.13

DOCKED: MODEL       68
DOCKED: USER    Run = 68
DOCKED: USER    DPF = D:/Protein_go_brrr/autodock/final/2DN3/heme_O2/dock.dpf
DOCKED: USER  
DOCKED: USER    Estimated Free Energy of Binding    =   -8.36 kcal/mol  [=(1)+(2)+(3)-(4)]
DOCKED: USER    Estimated Inhibition Constant, Ki   =  747.06 nM (nanomolar)  [Temperature = 298.15 K]
DOCKED: USER    
DOCKED: USER    (1) Final Intermolecular Energy     =  -11.34 kcal/mol
DOCKED: USER        vdW + Hbond + desolv Energy     =   -8.58 kcal/mol
DOCKED: USER        Electrostatic Energy            =   -2.76 kcal/mol
DOCKED: USER    (2) Final Total Internal Energy     =   -2.23 kcal/mol
DOCKED: USER    (3) Torsional Free Energy           =   +2.98 kcal/mol
DOCKED: USER    (4) Unbound System's Energy  [=(2)] =   -2.23 kcal/mol
DOCKED: USER    
DOCKED: USER    
DOCKED: USER    NEWDPF move heme_O2_opt.pdbqt
DOCKED: USER    NEWDPF about 8.287000 34.468000 -0.670000
DOCKED: USER    NEWDPF tran0 44.790852 21.175229 17.706468
DOCKED: USER    NEWDPF quaternion0 -0.680920 -0.657108 -0.185918 -0.264560
DOCKED: USER    NEWDPF axisangle0 -0.706078 -0.681386 -0.192787 -149.318368
DOCKED: USER    NEWDPF quat0 -0.706078 -0.681386 -0.192787 -149.318368
DOCKED: USER    NEWDPF dihe0 -171.29 -5.82 106.94 105.58 55.16 -37.42 -114.19 170.98 -175.64 179.13 
DOCKED: USER  keepresnum = 1 
DOCKED: USER  
DOCKED: REMARK  10 active torsions:
DOCKED: REMARK  status: ('A' for Active; 'I' for Inactive)
DOCKED: REMARK    1  A    between atoms: C_6  and  C_10 
DOCKED: REMARK    2  A    between atoms: C_10  and  C_11 
DOCKED: REMARK    3  A    between atoms: C_11  and  C_12 
DOCKED: REMARK    4  A    between atoms: C_12  and  O_14 
DOCKED: REMARK    5  A    between atoms: C_17  and  C_20 
DOCKED: REMARK    6  A    between atoms: C_24  and  C_27 
DOCKED: REMARK    7  A    between atoms: C_31  and  C_34 
DOCKED: REMARK    8  A    between atoms: C_34  and  C_35 
DOCKED: REMARK    9  A    between atoms: C_35  and  C_36 
DOCKED: REMARK   10  A    between atoms: C_36  and  O_38 
DOCKED: USER                              x       y       z     vdW  Elec       q    Type
DOCKED: USER                           _______ _______ _______ _____ _____    ______ ____
DOCKED: ROOT
DOCKED: ATOM      1  C   UNL d   1      45.339  19.204  17.146 -0.17 +0.04    +0.064 A 
DOCKED: ATOM      2  C   UNL d   1      42.359  22.372  15.236 -0.27 +0.02    +0.064 A 
DOCKED: ATOM      3  C   UNL d   1      43.321  25.523  18.734 -0.33 +0.03    +0.064 C 
DOCKED: ATOM      4  C   UNL d   1      46.748  22.457  20.443 -0.11 +0.03    +0.064 A 
DOCKED: ATOM      5  C   UNL d   1      44.451  19.809  16.340 -0.22 +0.04    +0.066 A 
DOCKED: ATOM      6  C   UNL d   1      43.892  19.215  15.205 -0.21 -0.01    -0.021 A 
DOCKED: ATOM      7  C   UNL d   1      43.062  20.147  14.627 -0.34 -0.01    -0.025 A 
DOCKED: ATOM      8  C   UNL d   1      43.100  21.268  15.452 -0.30 +0.02    +0.066 A 
DOCKED: ATOM      9  C   UNL d   1      42.308  19.948  13.330 -0.43 +0.01    +0.051 C 
DOCKED: ATOM     10  C   UNL d   1      42.339  23.569  16.078 -0.33 +0.02    +0.066 A 
DOCKED: ATOM     11  C   UNL d   1      41.432  24.619  15.901 -0.45 -0.01    -0.021 A 
DOCKED: ATOM     12  C   UNL d   1      41.681  25.530  16.911 -0.38 +0.00    +0.000 A 
DOCKED: ATOM     13  C   UNL d   1      42.759  24.977  17.656 -0.33 +0.02    +0.070 A 
DOCKED: ATOM     14  C   UNL d   1      40.354  24.736  14.829 -0.56 +0.01    +0.052 C 
DOCKED: ATOM     15  C   UNL d   1      44.435  25.013  19.496 -0.22 +0.04    +0.066 A 
DOCKED: ATOM     16  C   UNL d   1      45.083  25.712  20.514 -0.20 -0.01    -0.021 A 
DOCKED: ATOM     17  C   UNL d   1      46.065  24.858  21.015 -0.13 +0.00    +0.000 A 
DOCKED: ATOM     18  C   UNL d   1      45.939  23.685  20.257 -0.12 +0.04    +0.070 A 
DOCKED: ATOM     19  C   UNL d   1      44.748  27.137  20.876 -0.18 +0.05    +0.052 C 
DOCKED: ATOM     20  C   UNL d   1      46.683  21.332  19.705 -0.14 +0.03    +0.066 A 
DOCKED: ATOM     21  C   UNL d   1      47.458  20.199  19.939 -0.11 -0.01    -0.025 A 
DOCKED: ATOM     22  C   UNL d   1      47.051  19.253  19.027 -0.11 -0.01    -0.021 A 
DOCKED: ATOM     23  C   UNL d   1      46.051  19.851  18.254 -0.17 +0.04    +0.066 A 
DOCKED: ATOM     24  C   UNL d   1      48.536  20.031  20.979 -0.04 +0.02    +0.051 C 
DOCKED: ATOM     25  N   UNL d   1      44.006  21.083  16.470 -0.19 -0.14    -0.248 N 
DOCKED: ATOM     26  N   UNL d   1      43.156  23.786  17.140 -0.21 -0.10    -0.248 N 
DOCKED: ATOM     27  N   UNL d   1      44.996  23.825  19.290 -0.10 -0.15    -0.248 N 
DOCKED: ATOM     28  N   UNL d   1      45.862  21.129  18.641 -0.15 -0.16    -0.248 N 
DOCKED: ATOM     29 FE   UNL d   1      44.520  22.450  17.898 -0.06 +0.00    +0.000 Fe
DOCKED: ATOM     30  O   UNL d   1      45.016  22.817  16.469 +0.16 +0.00    +0.000 OA
DOCKED: ATOM     31  O   UNL d   1      45.950  23.075  17.711 -0.38 +0.00    +0.000 OA
DOCKED: ENDROOT
DOCKED: BRANCH   6  32
DOCKED: ATOM     32  C   UNL d   1      44.226  17.873  14.606 -0.12 +0.02    +0.052 C 
DOCKED: BRANCH  32  33
DOCKED: ATOM     33  C   UNL d   1      45.316  17.955  13.542 -0.08 +0.05    +0.115 C 
DOCKED: BRANCH  33  34
DOCKED: ATOM     34  C   UNL d   1      46.635  18.424  14.104 -0.10 +0.10    +0.139 C 
DOCKED: ATOM     35  O   UNL d   1      46.937  19.605  14.032 -0.26 -0.95    -0.650 OA
DOCKED: BRANCH  34  36
DOCKED: ATOM     36  O   UNL d   1      47.508  17.561  14.664 +0.04 -0.44    -0.776 OA
DOCKED: ATOM     37  H   UNL d   1      48.292  17.862  15.137 +0.02 +0.11    +0.167 HD
DOCKED: ENDBRANCH  34  36
DOCKED: ENDBRANCH  33  34
DOCKED: ENDBRANCH  32  33
DOCKED: ENDBRANCH   6  32
DOCKED: BRANCH  22  38
DOCKED: ATOM     38  C   UNL d   1      47.640  17.875  18.869 -0.05 +0.02    +0.052 C 
DOCKED: BRANCH  38  39
DOCKED: ATOM     39  C   UNL d   1      48.955  17.889  18.093 -0.02 +0.05    +0.115 C 
DOCKED: BRANCH  39  40
DOCKED: ATOM     40  C   UNL d   1      49.235  19.228  17.457 -0.06 +0.12    +0.139 C 
DOCKED: ATOM     41  O   UNL d   1      50.104  19.948  17.920 -0.06 -0.49    -0.650 OA
DOCKED: BRANCH  40  42
DOCKED: ATOM     42  O   UNL d   1      48.575  19.625  16.352 -0.33 -1.45    -0.776 OA
DOCKED: ATOM     43  H   UNL d   1      47.939  19.050  15.910 +0.02 +0.22    +0.167 HD
DOCKED: ENDBRANCH  40  42
DOCKED: ENDBRANCH  39  40
DOCKED: ENDBRANCH  38  39
DOCKED: ENDBRANCH  22  38
DOCKED: BRANCH  12  44
DOCKED: ATOM     44  C   UNL d   1      40.884  26.809  17.055 -0.26 +0.00    +0.004 C 
DOCKED: ATOM     45  C   UNL d   1      41.000  27.931  16.345 -0.40 +0.00    +0.012 C 
DOCKED: ENDBRANCH  12  44
DOCKED: BRANCH  17  46
DOCKED: ATOM     46  C   UNL d   1      47.113  25.071  22.075 -0.07 +0.00    +0.004 C 
DOCKED: ATOM     47  C   UNL d   1      47.080  24.697  23.361 -0.07 +0.01    +0.012 C 
DOCKED: ENDBRANCH  17  46
DOCKED: TORSDOF 10
DOCKED: TER
DOCKED: ENDMDL
________________________________________________________________________________


	BEGINNING GENETIC ALGORITHM DOCKING 69 of 100
Run: 69 Seed: 634794622 2141226529 [ Run 69 of 100 GA/GALS ]
Beginning LAMARCKIAN GENETIC ALGORITHM (LGA), with a maximum of 25000000 energy evaluations.

Final-Value: -19.906


	FINAL GENETIC ALGORITHM DOCKED STATE
	_______________________________________________


Detailed state:  trans 41.734 28.902 16.422 quatxyzw -0.344817 0.397766 0.850216 -0.003911 center 8.287 34.468 -0.670 ntor 10 90.2143 -45.8139 9.8670 -50.8999 -144.8859 44.6565 -23.4990 57.0025 -131.1638 16.6204
State:	 41.734  28.902  16.422  -0.345  0.398  0.850 -179.552     90.21  -45.81    9.87  -50.90 -144.89   44.66  -23.50   57.00 -131.16   16.62

DOCKED: MODEL       69
DOCKED: USER    Run = 69
DOCKED: USER    DPF = D:/Protein_go_brrr/autodock/final/2DN3/heme_O2/dock.dpf
DOCKED: USER  
DOCKED: USER    Estimated Free Energy of Binding    =  -16.37 kcal/mol  [=(1)+(2)+(3)-(4)]
DOCKED: USER    Estimated Inhibition Constant, Ki   =    1.00 pM (picomolar)  [Temperature = 298.15 K]
DOCKED: USER    
DOCKED: USER    (1) Final Intermolecular Energy     =  -19.35 kcal/mol
DOCKED: USER        vdW + Hbond + desolv Energy     =  -16.40 kcal/mol
DOCKED: USER        Electrostatic Energy            =   -2.96 kcal/mol
DOCKED: USER    (2) Final Total Internal Energy     =   -0.55 kcal/mol
DOCKED: USER    (3) Torsional Free Energy           =   +2.98 kcal/mol
DOCKED: USER    (4) Unbound System's Energy  [=(2)] =   -0.55 kcal/mol
DOCKED: USER    
DOCKED: USER    
DOCKED: USER    NEWDPF move heme_O2_opt.pdbqt
DOCKED: USER    NEWDPF about 8.287000 34.468000 -0.670000
DOCKED: USER    NEWDPF tran0 41.734404 28.902412 16.422030
DOCKED: USER    NEWDPF quaternion0 -0.344817 0.397766 0.850216 -0.003911
DOCKED: USER    NEWDPF axisangle0 -0.344820 0.397769 0.850223 -179.551886
DOCKED: USER    NEWDPF quat0 -0.344820 0.397769 0.850223 -179.551886
DOCKED: USER    NEWDPF dihe0 90.21 -45.81 9.87 -50.90 -144.89 44.66 -23.50 57.00 -131.16 16.62 
DOCKED: USER  keepresnum = 1 
DOCKED: USER  
DOCKED: REMARK  10 active torsions:
DOCKED: REMARK  status: ('A' for Active; 'I' for Inactive)
DOCKED: REMARK    1  A    between atoms: C_6  and  C_10 
DOCKED: REMARK    2  A    between atoms: C_10  and  C_11 
DOCKED: REMARK    3  A    between atoms: C_11  and  C_12 
DOCKED: REMARK    4  A    between atoms: C_12  and  O_14 
DOCKED: REMARK    5  A    between atoms: C_17  and  C_20 
DOCKED: REMARK    6  A    between atoms: C_24  and  C_27 
DOCKED: REMARK    7  A    between atoms: C_31  and  C_34 
DOCKED: REMARK    8  A    between atoms: C_34  and  C_35 
DOCKED: REMARK    9  A    between atoms: C_35  and  C_36 
DOCKED: REMARK   10  A    between atoms: C_36  and  O_38 
DOCKED: USER                              x       y       z     vdW  Elec       q    Type
DOCKED: USER                           _______ _______ _______ _____ _____    ______ ____
DOCKED: ROOT
DOCKED: ATOM      1  C   UNL d   1      43.457  28.448  17.573 -0.22 +0.02    +0.064 A 
DOCKED: ATOM      2  C   UNL d   1      41.166  32.515  16.696 -0.42 +0.01    +0.064 A 
DOCKED: ATOM      3  C   UNL d   1      37.999  30.233  13.893 -0.41 +0.01    +0.064 C 
DOCKED: ATOM      4  C   UNL d   1      40.062  25.970  15.170 -0.39 +0.01    +0.064 A 
DOCKED: ATOM      5  C   UNL d   1      43.091  29.740  17.565 -0.30 +0.02    +0.066 A 
DOCKED: ATOM      6  C   UNL d   1      43.776  30.752  18.244 -0.32 -0.01    -0.021 A 
DOCKED: ATOM      7  C   UNL d   1      43.088  31.923  18.027 -0.39 -0.01    -0.025 A 
DOCKED: ATOM      8  C   UNL d   1      42.030  31.603  17.180 -0.38 +0.01    +0.066 A 
DOCKED: ATOM      9  C   UNL d   1      43.440  33.260  18.641 -0.42 +0.01    +0.051 C 
DOCKED: ATOM     10  C   UNL d   1      40.051  32.243  15.787 -0.39 +0.01    +0.066 A 
DOCKED: ATOM     11  C   UNL d   1      39.286  33.248  15.186 -0.43 -0.00    -0.021 A 
DOCKED: ATOM     12  C   UNL d   1      38.378  32.610  14.360 -0.41 +0.00    +0.000 A 
DOCKED: ATOM     13  C   UNL d   1      38.640  31.221  14.517 -0.36 +0.01    +0.070 A 
DOCKED: ATOM     14  C   UNL d   1      39.431  34.754  15.370 -0.54 +0.01    +0.052 C 
DOCKED: ATOM     15  C   UNL d   1      38.209  28.814  14.051 -0.33 +0.01    +0.066 A 
DOCKED: ATOM     16  C   UNL d   1      37.396  27.828  13.494 -0.43 -0.00    -0.021 A 
DOCKED: ATOM     17  C   UNL d   1      37.965  26.603  13.846 -0.46 +0.00    +0.000 A 
DOCKED: ATOM     18  C   UNL d   1      39.098  26.940  14.599 -0.37 +0.02    +0.070 A 
DOCKED: ATOM     19  C   UNL d   1      36.133  28.137  12.731 -0.60 +0.01    +0.052 C 
DOCKED: ATOM     20  C   UNL d   1      41.135  26.256  15.934 -0.37 +0.02    +0.066 A 
DOCKED: ATOM     21  C   UNL d   1      42.018  25.301  16.429 -0.34 -0.01    -0.025 A 
DOCKED: ATOM     22  C   UNL d   1      43.007  25.991  17.093 -0.29 -0.01    -0.021 A 
DOCKED: ATOM     23  C   UNL d   1      42.680  27.347  16.994 -0.31 +0.02    +0.066 A 
DOCKED: ATOM     24  C   UNL d   1      41.920  23.805  16.279 -0.51 +0.01    +0.051 C 
DOCKED: ATOM     25  N   UNL d   1      41.995  30.247  16.949 -0.24 -0.07    -0.248 N 
DOCKED: ATOM     26  N   UNL d   1      39.656  31.006  15.391 -0.08 -0.06    -0.248 N 
DOCKED: ATOM     27  N   UNL d   1      39.189  28.283  14.776 -0.12 -0.07    -0.248 N 
DOCKED: ATOM     28  N   UNL d   1      41.517  27.500  16.327 -0.26 -0.08    -0.248 N 
DOCKED: ATOM     29 FE   UNL d   1      40.591  29.239  15.861 -0.09 +0.00    +0.000 Fe
DOCKED: ATOM     30  O   UNL d   1      40.051  29.817  17.201 -0.79 +0.00    +0.000 OA
DOCKED: ATOM     31  O   UNL d   1      39.590  28.388  16.724 -0.92 +0.00    +0.000 OA
DOCKED: ENDROOT
DOCKED: BRANCH   6  32
DOCKED: ATOM     32  C   UNL d   1      44.951  30.606  19.176 -0.28 +0.03    +0.052 C 
DOCKED: BRANCH  32  33
DOCKED: ATOM     33  C   UNL d   1      44.754  29.501  20.209 -0.16 +0.10    +0.115 C 
DOCKED: BRANCH  33  34
DOCKED: ATOM     34  C   UNL d   1      46.063  28.937  20.704 -0.11 +0.18    +0.139 C 
DOCKED: ATOM     35  O   UNL d   1      46.832  29.653  21.325 -0.52 -1.01    -0.650 OA
DOCKED: BRANCH  34  36
DOCKED: ATOM     36  O   UNL d   1      46.419  27.661  20.452 -0.00 -0.74    -0.776 OA
DOCKED: ATOM     37  H   UNL d   1      46.924  27.416  19.668 +0.04 +0.11    +0.167 HD
DOCKED: ENDBRANCH  34  36
DOCKED: ENDBRANCH  33  34
DOCKED: ENDBRANCH  32  33
DOCKED: ENDBRANCH   6  32
DOCKED: BRANCH  22  38
DOCKED: ATOM     38  C   UNL d   1      44.163  25.372  17.835 -0.29 +0.02    +0.052 C 
DOCKED: BRANCH  38  39
DOCKED: ATOM     39  C   UNL d   1      45.514  25.777  17.249 -0.25 +0.07    +0.115 C 
DOCKED: BRANCH  39  40
DOCKED: ATOM     40  C   UNL d   1      46.354  24.586  16.862 -0.18 +0.14    +0.139 C 
DOCKED: ATOM     41  O   UNL d   1      47.520  24.746  16.539 -0.11 -0.82    -0.650 OA
DOCKED: BRANCH  40  42
DOCKED: ATOM     42  O   UNL d   1      45.855  23.336  16.914 -0.39 -1.07    -0.776 OA
DOCKED: ATOM     43  H   UNL d   1      45.320  23.037  17.658 +0.06 +0.15    +0.167 HD
DOCKED: ENDBRANCH  40  42
DOCKED: ENDBRANCH  39  40
DOCKED: ENDBRANCH  38  39
DOCKED: ENDBRANCH  22  38
DOCKED: BRANCH  12  44
DOCKED: ATOM     44  C   UNL d   1      37.374  33.378  13.526 -0.49 +0.00    +0.004 C 
DOCKED: ATOM     45  C   UNL d   1      36.389  32.887  12.774 -0.54 +0.00    +0.012 C 
DOCKED: ENDBRANCH  12  44
DOCKED: BRANCH  17  46
DOCKED: ATOM     46  C   UNL d   1      37.509  25.192  13.588 -0.63 +0.00    +0.004 C 
DOCKED: ATOM     47  C   UNL d   1      36.350  24.619  13.935 -0.65 +0.00    +0.012 C 
DOCKED: ENDBRANCH  17  46
DOCKED: TORSDOF 10
DOCKED: TER
DOCKED: ENDMDL
________________________________________________________________________________


	BEGINNING GENETIC ALGORITHM DOCKING 70 of 100
Run: 70 Seed: 828987436 1685791109 [ Run 70 of 100 GA/GALS ]
Beginning LAMARCKIAN GENETIC ALGORITHM (LGA), with a maximum of 25000000 energy evaluations.

Final-Value: -20.806


	FINAL GENETIC ALGORITHM DOCKED STATE
	_______________________________________________


Detailed state:  trans 41.309 28.596 16.181 quatxyzw 0.324914 -0.388672 -0.860905 0.046987 center 8.287 34.468 -0.670 ntor 10 38.7313 -131.8168 -0.6722 -82.9658 120.8927 144.8665 35.3780 63.1661 -99.5545 -173.4605
State:	 41.309  28.596  16.181   0.325 -0.389 -0.862 174.614     38.73 -131.82   -0.67  -82.97  120.89  144.87   35.38   63.17  -99.55 -173.46

DOCKED: MODEL       70
DOCKED: USER    Run = 70
DOCKED: USER    DPF = D:/Protein_go_brrr/autodock/final/2DN3/heme_O2/dock.dpf
DOCKED: USER  
DOCKED: USER    Estimated Free Energy of Binding    =  -16.11 kcal/mol  [=(1)+(2)+(3)-(4)]
DOCKED: USER    Estimated Inhibition Constant, Ki   =    1.56 pM (picomolar)  [Temperature = 298.15 K]
DOCKED: USER    
DOCKED: USER    (1) Final Intermolecular Energy     =  -19.09 kcal/mol
DOCKED: USER        vdW + Hbond + desolv Energy     =  -16.51 kcal/mol
DOCKED: USER        Electrostatic Energy            =   -2.58 kcal/mol
DOCKED: USER    (2) Final Total Internal Energy     =   -1.72 kcal/mol
DOCKED: USER    (3) Torsional Free Energy           =   +2.98 kcal/mol
DOCKED: USER    (4) Unbound System's Energy  [=(2)] =   -1.72 kcal/mol
DOCKED: USER    
DOCKED: USER    
DOCKED: USER    NEWDPF move heme_O2_opt.pdbqt
DOCKED: USER    NEWDPF about 8.287000 34.468000 -0.670000
DOCKED: USER    NEWDPF tran0 41.308503 28.595661 16.180902
DOCKED: USER    NEWDPF quaternion0 0.324914 -0.388672 -0.860905 0.046987
DOCKED: USER    NEWDPF axisangle0 0.325273 -0.389102 -0.861857 174.613658
DOCKED: USER    NEWDPF quat0 0.325273 -0.389102 -0.861857 174.613658
DOCKED: USER    NEWDPF dihe0 38.73 -131.82 -0.67 -82.97 120.89 144.87 35.38 63.17 -99.55 -173.46 
DOCKED: USER  keepresnum = 1 
DOCKED: USER  
DOCKED: REMARK  10 active torsions:
DOCKED: REMARK  status: ('A' for Active; 'I' for Inactive)
DOCKED: REMARK    1  A    between atoms: C_6  and  C_10 
DOCKED: REMARK    2  A    between atoms: C_10  and  C_11 
DOCKED: REMARK    3  A    between atoms: C_11  and  C_12 
DOCKED: REMARK    4  A    between atoms: C_12  and  O_14 
DOCKED: REMARK    5  A    between atoms: C_17  and  C_20 
DOCKED: REMARK    6  A    between atoms: C_24  and  C_27 
DOCKED: REMARK    7  A    between atoms: C_31  and  C_34 
DOCKED: REMARK    8  A    between atoms: C_34  and  C_35 
DOCKED: REMARK    9  A    between atoms: C_35  and  C_36 
DOCKED: REMARK   10  A    between atoms: C_36  and  O_38 
DOCKED: USER                              x       y       z     vdW  Elec       q    Type
DOCKED: USER                           _______ _______ _______ _____ _____    ______ ____
DOCKED: ROOT
DOCKED: ATOM      1  C   UNL d   1      42.993  27.939  17.290 -0.26 +0.02    +0.064 A 
DOCKED: ATOM      2  C   UNL d   1      41.042  32.223  16.653 -0.41 +0.01    +0.064 A 
DOCKED: ATOM      3  C   UNL d   1      37.684  30.365  13.760 -0.41 +0.01    +0.064 C 
DOCKED: ATOM      4  C   UNL d   1      39.394  25.883  14.790 -0.38 +0.01    +0.064 A 
DOCKED: ATOM      5  C   UNL d   1      42.735  29.256  17.354 -0.26 +0.02    +0.066 A 
DOCKED: ATOM      6  C   UNL d   1      43.504  30.170  18.081 -0.31 -0.01    -0.021 A 
DOCKED: ATOM      7  C   UNL d   1      42.915  31.403  17.932 -0.38 -0.01    -0.025 A 
DOCKED: ATOM      8  C   UNL d   1      41.830  31.217  17.080 -0.37 +0.02    +0.066 A 
DOCKED: ATOM      9  C   UNL d   1      43.379  32.672  18.614 -0.43 +0.01    +0.051 C 
DOCKED: ATOM     10  C   UNL d   1      39.905  32.093  15.741 -0.38 +0.01    +0.066 A 
DOCKED: ATOM     11  C   UNL d   1      39.222  33.189  15.201 -0.43 -0.00    -0.021 A 
DOCKED: ATOM     12  C   UNL d   1      38.262  32.674  14.350 -0.41 +0.00    +0.000 A 
DOCKED: ATOM     13  C   UNL d   1      38.408  31.261  14.431 -0.36 +0.01    +0.070 A 
DOCKED: ATOM     14  C   UNL d   1      39.493  34.665  15.465 -0.53 +0.01    +0.052 C 
DOCKED: ATOM     15  C   UNL d   1      37.777  28.927  13.840 -0.37 +0.01    +0.066 A 
DOCKED: ATOM     16  C   UNL d   1      36.883  28.042  13.239 -0.46 -0.00    -0.021 A 
DOCKED: ATOM     17  C   UNL d   1      37.350  26.758  13.520 -0.46 +0.00    +0.000 A 
DOCKED: ATOM     18  C   UNL d   1      38.511  26.958  14.280 -0.38 +0.01    +0.070 A 
DOCKED: ATOM     19  C   UNL d   1      35.645  28.495  12.506 -0.65 +0.01    +0.052 C 
DOCKED: ATOM     20  C   UNL d   1      40.490  26.038  15.557 -0.36 +0.02    +0.066 A 
DOCKED: ATOM     21  C   UNL d   1      41.293  24.988  15.993 -0.41 -0.01    -0.025 A 
DOCKED: ATOM     22  C   UNL d   1      42.338  25.557  16.684 -0.28 -0.01    -0.021 A 
DOCKED: ATOM     23  C   UNL d   1      42.124  26.939  16.660 -0.33 +0.02    +0.066 A 
DOCKED: ATOM     24  C   UNL d   1      41.071  23.515  15.764 -0.55 +0.01    +0.051 C 
DOCKED: ATOM     25  N   UNL d   1      41.682  29.884  16.777 -0.16 -0.09    -0.248 N 
DOCKED: ATOM     26  N   UNL d   1      39.407  30.916  15.282 -0.12 -0.06    -0.248 N 
DOCKED: ATOM     27  N   UNL d   1      38.713  28.278  14.527 -0.20 -0.06    -0.248 N 
DOCKED: ATOM     28  N   UNL d   1      40.976  27.224  16.013 -0.27 -0.08    -0.248 N 
DOCKED: ATOM     29 FE   UNL d   1      40.195  29.055  15.649 -0.08 +0.00    +0.000 Fe
DOCKED: ATOM     30  O   UNL d   1      39.710  29.602  17.023 -0.84 +0.00    +0.000 OA
DOCKED: ATOM     31  O   UNL d   1      39.130  28.244  16.475 -0.64 +0.00    +0.000 OA
DOCKED: ENDROOT
DOCKED: BRANCH   6  32
DOCKED: ATOM     32  C   UNL d   1      44.668  29.877  18.993 -0.28 +0.03    +0.052 C 
DOCKED: BRANCH  32  33
DOCKED: ATOM     33  C   UNL d   1      44.757  28.406  19.386 -0.15 +0.07    +0.115 C 
DOCKED: BRANCH  33  34
DOCKED: ATOM     34  C   UNL d   1      45.299  28.215  20.781 -0.16 +0.18    +0.139 C 
DOCKED: ATOM     35  O   UNL d   1      46.087  29.027  21.239 -0.26 -1.23    -0.650 OA
DOCKED: BRANCH  34  36
DOCKED: ATOM     36  O   UNL d   1      44.953  27.148  21.530 -0.15 -1.16    -0.776 OA
DOCKED: ATOM     37  H   UNL d   1      44.854  26.267  21.149 +0.06 +0.15    +0.167 HD
DOCKED: ENDBRANCH  34  36
DOCKED: ENDBRANCH  33  34
DOCKED: ENDBRANCH  32  33
DOCKED: ENDBRANCH   6  32
DOCKED: BRANCH  22  38
DOCKED: ATOM     38  C   UNL d   1      43.443  24.806  17.381 -0.33 +0.02    +0.052 C 
DOCKED: BRANCH  38  39
DOCKED: ATOM     39  C   UNL d   1      42.958  24.097  18.644 -0.37 +0.04    +0.115 C 
DOCKED: BRANCH  39  40
DOCKED: ATOM     40  C   UNL d   1      43.642  24.604  19.889 -0.29 +0.07    +0.139 C 
DOCKED: ATOM     41  O   UNL d   1      44.819  24.346  20.082 -0.34 -0.39    -0.650 OA
DOCKED: BRANCH  40  42
DOCKED: ATOM     42  O   UNL d   1      42.989  25.385  20.772 -0.00 -0.36    -0.776 OA
DOCKED: ATOM     43  H   UNL d   1      43.363  26.219  21.080 +0.07 +0.11    +0.167 HD
DOCKED: ENDBRANCH  40  42
DOCKED: ENDBRANCH  39  40
DOCKED: ENDBRANCH  38  39
DOCKED: ENDBRANCH  22  38
DOCKED: BRANCH  12  44
DOCKED: ATOM     44  C   UNL d   1      37.320  33.565  13.568 -0.50 +0.00    +0.004 C 
DOCKED: ATOM     45  C   UNL d   1      36.421  33.203  12.653 -0.57 +0.00    +0.012 C 
DOCKED: ENDBRANCH  12  44
DOCKED: BRANCH  17  46
DOCKED: ATOM     46  C   UNL d   1      36.778  25.405  13.191 -0.66 +0.00    +0.004 C 
DOCKED: ATOM     47  C   UNL d   1      35.924  24.668  13.914 -0.70 +0.00    +0.012 C 
DOCKED: ENDBRANCH  17  46
DOCKED: TORSDOF 10
DOCKED: TER
DOCKED: ENDMDL
________________________________________________________________________________


	BEGINNING GENETIC ALGORITHM DOCKING 71 of 100
Run: 71 Seed: 1406183481 739332920 [ Run 71 of 100 GA/GALS ]
Beginning LAMARCKIAN GENETIC ALGORITHM (LGA), with a maximum of 25000000 energy evaluations.

Final-Value: -12.160


	FINAL GENETIC ALGORITHM DOCKED STATE
	_______________________________________________


Detailed state:  trans 27.959 41.259 -0.867 quatxyzw 0.123153 0.737765 -0.434943 -0.501359 center 8.287 34.468 -0.670 ntor 10 100.6978 130.7301 -72.8807 119.1577 -123.1319 -51.0024 -69.4115 106.4761 165.9272 177.3315
State:	 27.959  41.259  -0.867   0.142  0.853 -0.503 -119.820    100.70  130.73  -72.88  119.16 -123.13  -51.00  -69.41  106.48  165.93  177.33

DOCKED: MODEL       71
DOCKED: USER    Run = 71
DOCKED: USER    DPF = D:/Protein_go_brrr/autodock/final/2DN3/heme_O2/dock.dpf
DOCKED: USER  
DOCKED: USER    Estimated Free Energy of Binding    =   -6.60 kcal/mol  [=(1)+(2)+(3)-(4)]
DOCKED: USER    Estimated Inhibition Constant, Ki   =   14.41 uM (micromolar)  [Temperature = 298.15 K]
DOCKED: USER    
DOCKED: USER    (1) Final Intermolecular Energy     =   -9.59 kcal/mol
DOCKED: USER        vdW + Hbond + desolv Energy     =   -6.85 kcal/mol
DOCKED: USER        Electrostatic Energy            =   -2.74 kcal/mol
DOCKED: USER    (2) Final Total Internal Energy     =   -2.57 kcal/mol
DOCKED: USER    (3) Torsional Free Energy           =   +2.98 kcal/mol
DOCKED: USER    (4) Unbound System's Energy  [=(2)] =   -2.57 kcal/mol
DOCKED: USER    
DOCKED: USER    
DOCKED: USER    NEWDPF move heme_O2_opt.pdbqt
DOCKED: USER    NEWDPF about 8.287000 34.468000 -0.670000
DOCKED: USER    NEWDPF tran0 27.959191 41.258786 -0.866862
DOCKED: USER    NEWDPF quaternion0 0.123153 0.737765 -0.434943 -0.501359
DOCKED: USER    NEWDPF axisangle0 0.142334 0.852672 -0.502685 -119.820101
DOCKED: USER    NEWDPF quat0 0.142334 0.852672 -0.502685 -119.820101
DOCKED: USER    NEWDPF dihe0 100.70 130.73 -72.88 119.16 -123.13 -51.00 -69.41 106.48 165.93 177.33 
DOCKED: USER  keepresnum = 1 
DOCKED: USER  
DOCKED: REMARK  10 active torsions:
DOCKED: REMARK  status: ('A' for Active; 'I' for Inactive)
DOCKED: REMARK    1  A    between atoms: C_6  and  C_10 
DOCKED: REMARK    2  A    between atoms: C_10  and  C_11 
DOCKED: REMARK    3  A    between atoms: C_11  and  C_12 
DOCKED: REMARK    4  A    between atoms: C_12  and  O_14 
DOCKED: REMARK    5  A    between atoms: C_17  and  C_20 
DOCKED: REMARK    6  A    between atoms: C_24  and  C_27 
DOCKED: REMARK    7  A    between atoms: C_31  and  C_34 
DOCKED: REMARK    8  A    between atoms: C_34  and  C_35 
DOCKED: REMARK    9  A    between atoms: C_35  and  C_36 
DOCKED: REMARK   10  A    between atoms: C_36  and  O_38 
DOCKED: USER                              x       y       z     vdW  Elec       q    Type
DOCKED: USER                           _______ _______ _______ _____ _____    ______ ____
DOCKED: ROOT
DOCKED: ATOM      1  C   UNL d   1      28.698  42.703   0.500 -0.14 +0.02    +0.064 A 
DOCKED: ATOM      2  C   UNL d   1      28.810  37.954   0.477 -0.13 +0.01    +0.064 A 
DOCKED: ATOM      3  C   UNL d   1      26.370  37.825  -3.661 -0.25 +0.01    +0.064 C 
DOCKED: ATOM      4  C   UNL d   1      26.665  42.716  -3.894 -0.17 +0.01    +0.064 A 
DOCKED: ATOM      5  C   UNL d   1      28.929  41.422   0.831 -0.14 +0.02    +0.066 A 
DOCKED: ATOM      6  C   UNL d   1      29.597  41.021   1.991 -0.17 -0.00    -0.021 A 
DOCKED: ATOM      7  C   UNL d   1      29.668  39.648   1.964 -0.14 -0.00    -0.025 A 
DOCKED: ATOM      8  C   UNL d   1      28.999  39.245   0.812 -0.13 +0.01    +0.066 A 
DOCKED: ATOM      9  C   UNL d   1      30.377  38.798   2.995 -0.06 +0.00    +0.051 C 
DOCKED: ATOM     10  C   UNL d   1      28.097  37.471  -0.706 -0.11 +0.01    +0.066 A 
DOCKED: ATOM     11  C   UNL d   1      27.788  36.123  -0.920 -0.15 -0.00    -0.021 A 
DOCKED: ATOM     12  C   UNL d   1      27.069  36.067  -2.100 -0.19 +0.00    +0.000 A 
DOCKED: ATOM     13  C   UNL d   1      26.989  37.413  -2.555 -0.18 +0.01    +0.070 A 
DOCKED: ATOM     14  C   UNL d   1      28.139  34.942  -0.024 -0.15 +0.02    +0.052 C 
DOCKED: ATOM     15  C   UNL d   1      26.297  39.172  -4.174 -0.19 +0.01    +0.066 A 
DOCKED: ATOM     16  C   UNL d   1      25.776  39.515  -5.421 -0.19 -0.00    -0.021 A 
DOCKED: ATOM     17  C   UNL d   1      25.851  40.905  -5.510 -0.18 +0.00    +0.000 A 
DOCKED: ATOM     18  C   UNL d   1      26.417  41.311  -4.294 -0.19 +0.01    +0.070 A 
DOCKED: ATOM     19  C   UNL d   1      25.311  38.494  -6.428 -0.14 +0.01    +0.052 C 
DOCKED: ATOM     20  C   UNL d   1      27.246  43.138  -2.754 -0.15 +0.01    +0.066 A 
DOCKED: ATOM     21  C   UNL d   1      27.437  44.477  -2.424 -0.10 -0.01    -0.025 A 
DOCKED: ATOM     22  C   UNL d   1      27.990  44.493  -1.163 -0.11 -0.01    -0.021 A 
DOCKED: ATOM     23  C   UNL d   1      28.133  43.157  -0.776 -0.14 +0.02    +0.066 A 
DOCKED: ATOM     24  C   UNL d   1      27.111  45.680  -3.271 -0.07 +0.01    +0.051 C 
DOCKED: ATOM     25  N   UNL d   1      28.602  40.341   0.081 -0.08 -0.04    -0.248 N 
DOCKED: ATOM     26  N   UNL d   1      27.621  38.259  -1.703 -0.08 -0.03    -0.248 N 
DOCKED: ATOM     27  N   UNL d   1      26.750  40.241  -3.527 -0.08 -0.04    -0.248 N 
DOCKED: ATOM     28  N   UNL d   1      27.721  42.336  -1.764 -0.10 -0.06    -0.248 N 
DOCKED: ATOM     29 FE   UNL d   1      27.671  40.313  -1.737 -0.05 +0.00    +0.000 Fe
DOCKED: ATOM     30  O   UNL d   1      29.153  39.840  -1.782 -0.11 +0.00    +0.000 OA
DOCKED: ATOM     31  O   UNL d   1      28.586  40.745  -2.940 -0.12 +0.00    +0.000 OA
DOCKED: ENDROOT
DOCKED: BRANCH   6  32
DOCKED: ATOM     32  C   UNL d   1      30.265  41.896   3.020 -0.29 +0.02    +0.052 C 
DOCKED: BRANCH  32  33
DOCKED: ATOM     33  C   UNL d   1      31.786  41.779   2.999 -0.28 +0.04    +0.115 C 
DOCKED: BRANCH  33  34
DOCKED: ATOM     34  C   UNL d   1      32.451  43.012   2.440 -0.23 +0.15    +0.139 C 
DOCKED: ATOM     35  O   UNL d   1      32.694  43.954   3.177 -0.48 -0.88    -0.650 OA
DOCKED: BRANCH  34  36
DOCKED: ATOM     36  O   UNL d   1      32.759  43.112   1.130 +0.12 -1.16    -0.776 OA
DOCKED: ATOM     37  H   UNL d   1      32.214  43.614   0.513 +0.03 +0.24    +0.167 HD
DOCKED: ENDBRANCH  34  36
DOCKED: ENDBRANCH  33  34
DOCKED: ENDBRANCH  32  33
DOCKED: ENDBRANCH   6  32
DOCKED: BRANCH  22  38
DOCKED: ATOM     38  C   UNL d   1      28.415  45.724  -0.406 -0.11 +0.02    +0.052 C 
DOCKED: BRANCH  38  39
DOCKED: ATOM     39  C   UNL d   1      29.783  46.237  -0.849 -0.07 +0.05    +0.115 C 
DOCKED: BRANCH  39  40
DOCKED: ATOM     40  C   UNL d   1      30.913  45.382  -0.332 -0.13 +0.11    +0.139 C 
DOCKED: ATOM     41  O   UNL d   1      31.355  44.478  -1.023 -0.02 -0.49    -0.650 OA
DOCKED: BRANCH  40  42
DOCKED: ATOM     42  O   UNL d   1      31.483  45.629   0.864 -0.52 -1.07    -0.776 OA
DOCKED: ATOM     43  H   UNL d   1      31.653  44.922   1.498 +0.02 +0.26    +0.167 HD
DOCKED: ENDBRANCH  40  42
DOCKED: ENDBRANCH  39  40
DOCKED: ENDBRANCH  38  39
DOCKED: ENDBRANCH  22  38
DOCKED: BRANCH  12  44
DOCKED: ATOM     44  C   UNL d   1      26.546  34.762  -2.662 -0.16 +0.00    +0.004 C 
DOCKED: ATOM     45  C   UNL d   1      25.299  34.293  -2.619 -0.27 -0.00    +0.012 C 
DOCKED: ENDBRANCH  12  44
DOCKED: BRANCH  17  46
DOCKED: ATOM     46  C   UNL d   1      25.498  41.844  -6.633 -0.13 +0.00    +0.004 C 
DOCKED: ATOM     47  C   UNL d   1      24.508  42.745  -6.680 -0.15 +0.00    +0.012 C 
DOCKED: ENDBRANCH  17  46
DOCKED: TORSDOF 10
DOCKED: TER
DOCKED: ENDMDL
________________________________________________________________________________


	BEGINNING GENETIC ALGORITHM DOCKING 72 of 100
Run: 72 Seed: 1523648542 487872317 [ Run 72 of 100 GA/GALS ]
Beginning LAMARCKIAN GENETIC ALGORITHM (LGA), with a maximum of 25000000 energy evaluations.

Final-Value: -9.827


	FINAL GENETIC ALGORITHM DOCKED STATE
	_______________________________________________


Detailed state:  trans 36.172 38.303 0.289 quatxyzw -0.661866 0.699203 -0.269995 -0.012313 center 8.287 34.468 -0.670 ntor 10 -23.8765 -75.9888 20.5079 70.2488 165.7721 -31.5995 -57.3530 -66.1039 -151.2202 -30.3952
State:	 36.172  38.303   0.289  -0.662  0.699 -0.270 -178.589    -23.88  -75.99   20.51   70.25  165.77  -31.60  -57.35  -66.10 -151.22  -30.40

DOCKED: MODEL       72
DOCKED: USER    Run = 72
DOCKED: USER    DPF = D:/Protein_go_brrr/autodock/final/2DN3/heme_O2/dock.dpf
DOCKED: USER  
DOCKED: USER    Estimated Free Energy of Binding    =   -6.49 kcal/mol  [=(1)+(2)+(3)-(4)]
DOCKED: USER    Estimated Inhibition Constant, Ki   =   17.39 uM (micromolar)  [Temperature = 298.15 K]
DOCKED: USER    
DOCKED: USER    (1) Final Intermolecular Energy     =   -9.48 kcal/mol
DOCKED: USER        vdW + Hbond + desolv Energy     =   -6.39 kcal/mol
DOCKED: USER        Electrostatic Energy            =   -3.09 kcal/mol
DOCKED: USER    (2) Final Total Internal Energy     =   -0.35 kcal/mol
DOCKED: USER    (3) Torsional Free Energy           =   +2.98 kcal/mol
DOCKED: USER    (4) Unbound System's Energy  [=(2)] =   -0.35 kcal/mol
DOCKED: USER    
DOCKED: USER    
DOCKED: USER    NEWDPF move heme_O2_opt.pdbqt
DOCKED: USER    NEWDPF about 8.287000 34.468000 -0.670000
DOCKED: USER    NEWDPF tran0 36.171847 38.303059 0.289267
DOCKED: USER    NEWDPF quaternion0 -0.661866 0.699203 -0.269995 -0.012313
DOCKED: USER    NEWDPF axisangle0 -0.661917 0.699256 -0.270015 -178.589046
DOCKED: USER    NEWDPF quat0 -0.661917 0.699256 -0.270015 -178.589046
DOCKED: USER    NEWDPF dihe0 -23.88 -75.99 20.51 70.25 165.77 -31.60 -57.35 -66.10 -151.22 -30.40 
DOCKED: USER  keepresnum = 1 
DOCKED: USER  
DOCKED: REMARK  10 active torsions:
DOCKED: REMARK  status: ('A' for Active; 'I' for Inactive)
DOCKED: REMARK    1  A    between atoms: C_6  and  C_10 
DOCKED: REMARK    2  A    between atoms: C_10  and  C_11 
DOCKED: REMARK    3  A    between atoms: C_11  and  C_12 
DOCKED: REMARK    4  A    between atoms: C_12  and  O_14 
DOCKED: REMARK    5  A    between atoms: C_17  and  C_20 
DOCKED: REMARK    6  A    between atoms: C_24  and  C_27 
DOCKED: REMARK    7  A    between atoms: C_31  and  C_34 
DOCKED: REMARK    8  A    between atoms: C_34  and  C_35 
DOCKED: REMARK    9  A    between atoms: C_35  and  C_36 
DOCKED: REMARK   10  A    between atoms: C_36  and  O_38 
DOCKED: USER                              x       y       z     vdW  Elec       q    Type
DOCKED: USER                           _______ _______ _______ _____ _____    ______ ____
DOCKED: ROOT
DOCKED: ATOM      1  C   UNL d   1      35.550  40.322   0.099 -0.09 +0.03    +0.064 A 
DOCKED: ATOM      2  C   UNL d   1      39.299  37.947  -1.593 -0.05 +0.01    +0.064 A 
DOCKED: ATOM      3  C   UNL d   1      37.849  33.919   0.590 -0.27 +0.01    +0.064 C 
DOCKED: ATOM      4  C   UNL d   1      33.738  36.229   1.942 -0.15 +0.01    +0.064 A 
DOCKED: ATOM      5  C   UNL d   1      36.687  40.004  -0.541 -0.07 +0.02    +0.066 A 
DOCKED: ATOM      6  C   UNL d   1      37.447  40.912  -1.283 -0.04 -0.01    -0.021 A 
DOCKED: ATOM      7  C   UNL d   1      38.510  40.216  -1.809 -0.03 -0.01    -0.025 A 
DOCKED: ATOM      8  C   UNL d   1      38.396  38.912  -1.334 -0.05 +0.01    +0.066 A 
DOCKED: ATOM      9  C   UNL d   1      39.549  40.797  -2.744 -0.01 +0.01    +0.051 C 
DOCKED: ATOM     10  C   UNL d   1      39.246  36.569  -1.103 -0.02 +0.01    +0.066 A 
DOCKED: ATOM     11  C   UNL d   1      40.291  35.654  -1.265 -0.10 -0.00    -0.021 A 
DOCKED: ATOM     12  C   UNL d   1      39.900  34.491  -0.627 -0.19 +0.00    +0.000 A 
DOCKED: ATOM     13  C   UNL d   1      38.603  34.766  -0.111 -0.17 +0.01    +0.070 A 
DOCKED: ATOM     14  C   UNL d   1      41.620  35.887  -1.976 -0.07 +0.01    +0.052 C 
DOCKED: ATOM     15  C   UNL d   1      36.519  34.146   1.100 -0.22 +0.00    +0.066 A 
DOCKED: ATOM     16  C   UNL d   1      35.717  33.165   1.684 -0.22 -0.00    -0.021 A 
DOCKED: ATOM     17  C   UNL d   1      34.539  33.800   2.076 -0.20 +0.00    +0.000 A 
DOCKED: ATOM     18  C   UNL d   1      34.713  35.140   1.700 -0.15 +0.00    +0.070 A 
DOCKED: ATOM     19  C   UNL d   1      36.120  31.714   1.764 -0.27 +0.01    +0.052 C 
DOCKED: ATOM     20  C   UNL d   1      33.854  37.514   1.556 -0.06 +0.01    +0.066 A 
DOCKED: ATOM     21  C   UNL d   1      32.909  38.499   1.829 -0.15 -0.00    -0.025 A 
DOCKED: ATOM     22  C   UNL d   1      33.422  39.678   1.335 -0.13 -0.01    -0.021 A 
DOCKED: ATOM     23  C   UNL d   1      34.657  39.363   0.761 -0.11 +0.02    +0.066 A 
DOCKED: ATOM     24  C   UNL d   1      31.584  38.324   2.523 -0.05 +0.01    +0.051 C 
DOCKED: ATOM     25  N   UNL d   1      37.238  38.767  -0.606 -0.02 -0.07    -0.248 N 
DOCKED: ATOM     26  N   UNL d   1      38.211  36.031  -0.409 +0.04 -0.04    -0.248 N 
DOCKED: ATOM     27  N   UNL d   1      35.888  35.316   1.042 -0.04 +0.00    -0.248 N 
DOCKED: ATOM     28  N   UNL d   1      34.895  38.039   0.857 +0.04 -0.07    -0.248 N 
DOCKED: ATOM     29 FE   UNL d   1      36.540  37.040   0.230 -0.05 +0.00    +0.000 Fe
DOCKED: ATOM     30  O   UNL d   1      36.488  37.051  -1.326 -0.08 +0.00    +0.000 OA
DOCKED: ATOM     31  O   UNL d   1      35.299  36.417  -0.509 -0.11 +0.00    +0.000 OA
DOCKED: ENDROOT
DOCKED: BRANCH   6  32
DOCKED: ATOM     32  C   UNL d   1      37.118  42.348  -1.603 -0.05 +0.02    +0.052 C 
DOCKED: BRANCH  32  33
DOCKED: ATOM     33  C   UNL d   1      35.917  42.487  -2.533 -0.04 +0.05    +0.115 C 
DOCKED: BRANCH  33  34
DOCKED: ATOM     34  C   UNL d   1      34.798  43.286  -1.912 -0.08 +0.11    +0.139 C 
DOCKED: ATOM     35  O   UNL d   1      35.017  43.957  -0.916 -0.31 -1.26    -0.650 OA
DOCKED: BRANCH  34  36
DOCKED: ATOM     36  O   UNL d   1      33.548  43.256  -2.417 +0.01 -0.46    -0.776 OA
DOCKED: ATOM     37  H   UNL d   1      33.373  43.022  -3.336 +0.01 +0.06    +0.167 HD
DOCKED: ENDBRANCH  34  36
DOCKED: ENDBRANCH  33  34
DOCKED: ENDBRANCH  32  33
DOCKED: ENDBRANCH   6  32
DOCKED: BRANCH  22  38
DOCKED: ATOM     38  C   UNL d   1      32.729  41.016   1.360 -0.12 +0.02    +0.052 C 
DOCKED: BRANCH  38  39
DOCKED: ATOM     39  C   UNL d   1      32.660  41.610   2.765 -0.28 +0.05    +0.115 C 
DOCKED: BRANCH  39  40
DOCKED: ATOM     40  C   UNL d   1      33.503  42.853   2.906 -0.24 +0.15    +0.139 C 
DOCKED: ATOM     41  O   UNL d   1      32.965  43.932   3.091 -0.51 -1.05    -0.650 OA
DOCKED: BRANCH  40  42
DOCKED: ATOM     42  O   UNL d   1      34.849  42.787   2.884 -0.22 -0.81    -0.776 OA
DOCKED: ATOM     43  H   UNL d   1      35.349  42.433   3.629 -0.47 +0.03    +0.167 HD
DOCKED: ENDBRANCH  40  42
DOCKED: ENDBRANCH  39  40
DOCKED: ENDBRANCH  38  39
DOCKED: ENDBRANCH  22  38
DOCKED: BRANCH  12  44
DOCKED: ATOM     44  C   UNL d   1      40.784  33.263  -0.580 -0.28 +0.00    +0.004 C 
DOCKED: ATOM     45  C   UNL d   1      40.435  32.014  -0.273 -0.27 +0.00    +0.012 C 
DOCKED: ENDBRANCH  12  44
DOCKED: BRANCH  17  46
DOCKED: ATOM     46  C   UNL d   1      33.284  33.255   2.703 -0.20 +0.00    +0.004 C 
DOCKED: ATOM     47  C   UNL d   1      33.141  32.670   3.899 -0.24 +0.01    +0.012 C 
DOCKED: ENDBRANCH  17  46
DOCKED: TORSDOF 10
DOCKED: TER
DOCKED: ENDMDL
________________________________________________________________________________


	BEGINNING GENETIC ALGORITHM DOCKING 73 of 100
Run: 73 Seed: 685176323 1113307470 [ Run 73 of 100 GA/GALS ]
Beginning LAMARCKIAN GENETIC ALGORITHM (LGA), with a maximum of 25000000 energy evaluations.

Final-Value: -11.498


	FINAL GENETIC ALGORITHM DOCKED STATE
	_______________________________________________


Detailed state:  trans 43.341 16.968 17.116 quatxyzw -0.155924 0.534607 -0.688898 -0.464007 center 8.287 34.468 -0.670 ntor 10 -113.9632 95.0056 -55.5164 126.5394 63.9813 48.7823 -129.9518 87.5187 163.5073 -178.0112
State:	 43.341  16.968  17.116  -0.176  0.604 -0.778 -124.708   -113.96   95.01  -55.52  126.54   63.98   48.78 -129.95   87.52  163.51 -178.01

DOCKED: MODEL       73
DOCKED: USER    Run = 73
DOCKED: USER    DPF = D:/Protein_go_brrr/autodock/final/2DN3/heme_O2/dock.dpf
DOCKED: USER  
DOCKED: USER    Estimated Free Energy of Binding    =   -6.88 kcal/mol  [=(1)+(2)+(3)-(4)]
DOCKED: USER    Estimated Inhibition Constant, Ki   =    9.04 uM (micromolar)  [Temperature = 298.15 K]
DOCKED: USER    
DOCKED: USER    (1) Final Intermolecular Energy     =   -9.86 kcal/mol
DOCKED: USER        vdW + Hbond + desolv Energy     =   -6.66 kcal/mol
DOCKED: USER        Electrostatic Energy            =   -3.20 kcal/mol
DOCKED: USER    (2) Final Total Internal Energy     =   -1.63 kcal/mol
DOCKED: USER    (3) Torsional Free Energy           =   +2.98 kcal/mol
DOCKED: USER    (4) Unbound System's Energy  [=(2)] =   -1.63 kcal/mol
DOCKED: USER    
DOCKED: USER    
DOCKED: USER    NEWDPF move heme_O2_opt.pdbqt
DOCKED: USER    NEWDPF about 8.287000 34.468000 -0.670000
DOCKED: USER    NEWDPF tran0 43.341471 16.967994 17.115701
DOCKED: USER    NEWDPF quaternion0 -0.155924 0.534607 -0.688898 -0.464007
DOCKED: USER    NEWDPF axisangle0 -0.176020 0.603509 -0.777685 -124.708083
DOCKED: USER    NEWDPF quat0 -0.176020 0.603509 -0.777685 -124.708083
DOCKED: USER    NEWDPF dihe0 -113.96 95.01 -55.52 126.54 63.98 48.78 -129.95 87.52 163.51 -178.01 
DOCKED: USER  keepresnum = 1 
DOCKED: USER  
DOCKED: REMARK  10 active torsions:
DOCKED: REMARK  status: ('A' for Active; 'I' for Inactive)
DOCKED: REMARK    1  A    between atoms: C_6  and  C_10 
DOCKED: REMARK    2  A    between atoms: C_10  and  C_11 
DOCKED: REMARK    3  A    between atoms: C_11  and  C_12 
DOCKED: REMARK    4  A    between atoms: C_12  and  O_14 
DOCKED: REMARK    5  A    between atoms: C_17  and  C_20 
DOCKED: REMARK    6  A    between atoms: C_24  and  C_27 
DOCKED: REMARK    7  A    between atoms: C_31  and  C_34 
DOCKED: REMARK    8  A    between atoms: C_34  and  C_35 
DOCKED: REMARK    9  A    between atoms: C_35  and  C_36 
DOCKED: REMARK   10  A    between atoms: C_36  and  O_38 
DOCKED: USER                              x       y       z     vdW  Elec       q    Type
DOCKED: USER                           _______ _______ _______ _____ _____    ______ ____
DOCKED: ROOT
DOCKED: ATOM      1  C   UNL d   1      44.031  18.950  16.807 -0.25 +0.02    +0.064 A 
DOCKED: ATOM      2  C   UNL d   1      44.766  15.803  20.288 -0.21 +0.01    +0.064 A 
DOCKED: ATOM      3  C   UNL d   1      41.919  12.598  18.116 -0.09 +0.01    +0.064 C 
DOCKED: ATOM      4  C   UNL d   1      41.537  15.649  14.294 -0.15 +0.01    +0.064 A 
DOCKED: ATOM      5  C   UNL d   1      44.465  18.355  17.930 -0.24 +0.02    +0.066 A 
DOCKED: ATOM      6  C   UNL d   1      45.305  18.966  18.866 -0.21 -0.01    -0.021 A 
DOCKED: ATOM      7  C   UNL d   1      45.553  18.040  19.852 -0.17 -0.01    -0.025 A 
DOCKED: ATOM      8  C   UNL d   1      44.819  16.906  19.517 -0.25 +0.02    +0.066 A 
DOCKED: ATOM      9  C   UNL d   1      46.479  18.257  21.029 -0.16 +0.01    +0.051 C 
DOCKED: ATOM     10  C   UNL d   1      43.996  14.592  20.000 -0.19 +0.01    +0.066 A 
DOCKED: ATOM     11  C   UNL d   1      43.845  13.541  20.912 -0.14 -0.00    -0.021 A 
DOCKED: ATOM     12  C   UNL d   1      43.013  12.615  20.311 -0.12 +0.00    +0.000 A 
DOCKED: ATOM     13  C   UNL d   1      42.706  13.160  19.033 -0.09 +0.01    +0.070 A 
DOCKED: ATOM     14  C   UNL d   1      44.448  13.437  22.308 -0.09 +0.01    +0.052 C 
DOCKED: ATOM     15  C   UNL d   1      41.611  13.100  16.799 -0.08 +0.01    +0.066 A 
DOCKED: ATOM     16  C   UNL d   1      40.914  12.387  15.824 -0.07 -0.00    -0.021 A 
DOCKED: ATOM     17  C   UNL d   1      40.794  13.237  14.724 -0.08 +0.00    +0.000 A 
DOCKED: ATOM     18  C   UNL d   1      41.433  14.421  15.117 -0.12 +0.01    +0.070 A 
DOCKED: ATOM     19  C   UNL d   1      40.478  10.955  16.006 -0.03 +0.01    +0.052 C 
DOCKED: ATOM     20  C   UNL d   1      42.180  16.786  14.622 -0.19 +0.01    +0.066 A 
DOCKED: ATOM     21  C   UNL d   1      42.228  17.917  13.812 -0.23 -0.00    -0.025 A 
DOCKED: ATOM     22  C   UNL d   1      42.911  18.877  14.524 -0.26 -0.01    -0.021 A 
DOCKED: ATOM     23  C   UNL d   1      43.272  18.288  15.740 -0.22 +0.02    +0.066 A 
DOCKED: ATOM     24  C   UNL d   1      41.654  18.073  12.428 -0.26 +0.01    +0.051 C 
DOCKED: ATOM     25  N   UNL d   1      44.201  17.078  18.300 -0.17 -0.08    -0.248 N 
DOCKED: ATOM     26  N   UNL d   1      43.312  14.361  18.851 +0.03 -0.05    -0.248 N 
DOCKED: ATOM     27  N   UNL d   1      41.988  14.293  16.349 -0.02 -0.05    -0.248 N 
DOCKED: ATOM     28  N   UNL d   1      42.865  17.003  15.777 -0.10 -0.06    -0.248 N 
DOCKED: ATOM     29 FE   UNL d   1      43.085  15.689  17.301 -0.05 +0.00    +0.000 Fe
DOCKED: ATOM     30  O   UNL d   1      44.603  15.348  17.365 -0.13 +0.00    +0.000 OA
DOCKED: ATOM     31  O   UNL d   1      43.795  15.073  16.040 -0.11 +0.00    +0.000 OA
DOCKED: ENDROOT
DOCKED: BRANCH   6  32
DOCKED: ATOM     32  C   UNL d   1      45.962  20.318  18.771 -0.21 +0.03    +0.052 C 
DOCKED: BRANCH  32  33
DOCKED: ATOM     33  C   UNL d   1      47.480  20.231  18.641 -0.11 +0.09    +0.115 C 
DOCKED: BRANCH  33  34
DOCKED: ATOM     34  C   UNL d   1      47.911  19.236  17.592 -0.06 +0.13    +0.139 C 
DOCKED: ATOM     35  O   UNL d   1      48.049  18.062  17.895 +0.02 -0.34    -0.650 OA
DOCKED: BRANCH  34  36
DOCKED: ATOM     36  O   UNL d   1      48.176  19.619  16.326 -0.25 -1.52    -0.776 OA
DOCKED: ATOM     37  H   UNL d   1      47.631  19.338  15.582 +0.02 +0.28    +0.167 HD
DOCKED: ENDBRANCH  34  36
DOCKED: ENDBRANCH  33  34
DOCKED: ENDBRANCH  32  33
DOCKED: ENDBRANCH   6  32
DOCKED: BRANCH  22  38
DOCKED: ATOM     38  C   UNL d   1      43.251  20.260  14.031 -0.38 +0.02    +0.052 C 
DOCKED: BRANCH  38  39
DOCKED: ATOM     39  C   UNL d   1      44.412  20.255  13.039 -0.33 +0.05    +0.115 C 
DOCKED: BRANCH  39  40
DOCKED: ATOM     40  C   UNL d   1      45.743  20.495  13.707 -0.14 +0.17    +0.139 C 
DOCKED: ATOM     41  O   UNL d   1      46.722  20.761  13.029 -0.67 -0.98    -0.650 OA
DOCKED: BRANCH  40  42
DOCKED: ATOM     42  O   UNL d   1      45.862  20.471  15.048 +0.11 -1.30    -0.776 OA
DOCKED: ATOM     43  H   UNL d   1      46.173  19.685  15.513 +0.04 +0.22    +0.167 HD
DOCKED: ENDBRANCH  40  42
DOCKED: ENDBRANCH  39  40
DOCKED: ENDBRANCH  38  39
DOCKED: ENDBRANCH  22  38
DOCKED: BRANCH  12  44
DOCKED: ATOM     44  C   UNL d   1      42.607  11.330  21.003 -0.06 +0.00    +0.004 C 
DOCKED: ATOM     45  C   UNL d   1      41.378  10.919  21.311 -0.05 +0.00    +0.012 C 
DOCKED: ENDBRANCH  12  44
DOCKED: BRANCH  17  46
DOCKED: ATOM     46  C   UNL d   1      40.197  13.010  13.361 -0.05 +0.00    +0.004 C 
DOCKED: ATOM     47  C   UNL d   1      39.179  13.661  12.784 -0.09 +0.00    +0.012 C 
DOCKED: ENDBRANCH  17  46
DOCKED: TORSDOF 10
DOCKED: TER
DOCKED: ENDMDL
________________________________________________________________________________


	BEGINNING GENETIC ALGORITHM DOCKING 74 of 100
Run: 74 Seed: 623834413 1788195859 [ Run 74 of 100 GA/GALS ]
Beginning LAMARCKIAN GENETIC ALGORITHM (LGA), with a maximum of 25000000 energy evaluations.

Final-Value: -20.190


	FINAL GENETIC ALGORITHM DOCKED STATE
	_______________________________________________


Detailed state:  trans 41.565 29.049 16.371 quatxyzw 0.323812 -0.398016 -0.858327 0.001719 center 8.287 34.468 -0.670 ntor 10 56.4267 1.1955 -18.7518 -49.6762 178.0188 -163.3461 -5.8261 -29.5642 -131.2594 129.7748
State:	 41.565  29.049  16.371   0.324 -0.398 -0.858 179.803     56.43    1.20  -18.75  -49.68  178.02 -163.35   -5.83  -29.56 -131.26  129.77

DOCKED: MODEL       74
DOCKED: USER    Run = 74
DOCKED: USER    DPF = D:/Protein_go_brrr/autodock/final/2DN3/heme_O2/dock.dpf
DOCKED: USER  
DOCKED: USER    Estimated Free Energy of Binding    =  -15.59 kcal/mol  [=(1)+(2)+(3)-(4)]
DOCKED: USER    Estimated Inhibition Constant, Ki   =    3.72 pM (picomolar)  [Temperature = 298.15 K]
DOCKED: USER    
DOCKED: USER    (1) Final Intermolecular Energy     =  -18.58 kcal/mol
DOCKED: USER        vdW + Hbond + desolv Energy     =  -16.33 kcal/mol
DOCKED: USER        Electrostatic Energy            =   -2.24 kcal/mol
DOCKED: USER    (2) Final Total Internal Energy     =   -1.62 kcal/mol
DOCKED: USER    (3) Torsional Free Energy           =   +2.98 kcal/mol
DOCKED: USER    (4) Unbound System's Energy  [=(2)] =   -1.62 kcal/mol
DOCKED: USER    
DOCKED: USER    
DOCKED: USER    NEWDPF move heme_O2_opt.pdbqt
DOCKED: USER    NEWDPF about 8.287000 34.468000 -0.670000
DOCKED: USER    NEWDPF tran0 41.564877 29.049196 16.371187
DOCKED: USER    NEWDPF quaternion0 0.323812 -0.398016 -0.858327 0.001719
DOCKED: USER    NEWDPF axisangle0 0.323813 -0.398017 -0.858329 179.803014
DOCKED: USER    NEWDPF quat0 0.323813 -0.398017 -0.858329 179.803014
DOCKED: USER    NEWDPF dihe0 56.43 1.20 -18.75 -49.68 178.02 -163.35 -5.83 -29.56 -131.26 129.77 
DOCKED: USER  keepresnum = 1 
DOCKED: USER  
DOCKED: REMARK  10 active torsions:
DOCKED: REMARK  status: ('A' for Active; 'I' for Inactive)
DOCKED: REMARK    1  A    between atoms: C_6  and  C_10 
DOCKED: REMARK    2  A    between atoms: C_10  and  C_11 
DOCKED: REMARK    3  A    between atoms: C_11  and  C_12 
DOCKED: REMARK    4  A    between atoms: C_12  and  O_14 
DOCKED: REMARK    5  A    between atoms: C_17  and  C_20 
DOCKED: REMARK    6  A    between atoms: C_24  and  C_27 
DOCKED: REMARK    7  A    between atoms: C_31  and  C_34 
DOCKED: REMARK    8  A    between atoms: C_34  and  C_35 
DOCKED: REMARK    9  A    between atoms: C_35  and  C_36 
DOCKED: REMARK   10  A    between atoms: C_36  and  O_38 
DOCKED: USER                              x       y       z     vdW  Elec       q    Type
DOCKED: USER                           _______ _______ _______ _____ _____    ______ ____
DOCKED: ROOT
DOCKED: ATOM      1  C   UNL d   1      43.329  28.567  17.445 -0.28 +0.02    +0.064 A 
DOCKED: ATOM      2  C   UNL d   1      41.056  32.667  16.685 -0.42 +0.01    +0.064 A 
DOCKED: ATOM      3  C   UNL d   1      37.742  30.441  14.011 -0.38 +0.01    +0.064 C 
DOCKED: ATOM      4  C   UNL d   1      39.802  26.145  15.180 -0.37 +0.01    +0.064 A 
DOCKED: ATOM      5  C   UNL d   1      42.981  29.864  17.458 -0.32 +0.02    +0.066 A 
DOCKED: ATOM      6  C   UNL d   1      43.707  30.863  18.112 -0.33 -0.01    -0.021 A 
DOCKED: ATOM      7  C   UNL d   1      43.026  32.044  17.929 -0.38 -0.01    -0.025 A 
DOCKED: ATOM      8  C   UNL d   1      41.929  31.741  17.128 -0.39 +0.01    +0.066 A 
DOCKED: ATOM      9  C   UNL d   1      43.421  33.374  18.534 -0.44 +0.01    +0.051 C 
DOCKED: ATOM     10  C   UNL d   1      39.900  32.414  15.824 -0.40 +0.01    +0.066 A 
DOCKED: ATOM     11  C   UNL d   1      39.123  33.432  15.261 -0.44 -0.00    -0.021 A 
DOCKED: ATOM     12  C   UNL d   1      38.172  32.811  14.472 -0.40 +0.00    +0.000 A 
DOCKED: ATOM     13  C   UNL d   1      38.422  31.417  14.611 -0.35 +0.01    +0.070 A 
DOCKED: ATOM     14  C   UNL d   1      39.296  34.935  15.446 -0.56 +0.01    +0.052 C 
DOCKED: ATOM     15  C   UNL d   1      37.940  29.019  14.153 -0.35 +0.01    +0.066 A 
DOCKED: ATOM     16  C   UNL d   1      37.091  28.045  13.628 -0.42 -0.00    -0.021 A 
DOCKED: ATOM     17  C   UNL d   1      37.658  26.812  13.950 -0.44 +0.00    +0.000 A 
DOCKED: ATOM     18  C   UNL d   1      38.827  27.130  14.655 -0.36 +0.01    +0.070 A 
DOCKED: ATOM     19  C   UNL d   1      35.800  28.375  12.922 -0.60 +0.01    +0.052 C 
DOCKED: ATOM     20  C   UNL d   1      40.910  26.414  15.897 -0.38 +0.02    +0.066 A 
DOCKED: ATOM     21  C   UNL d   1      41.801  25.444  16.350 -0.36 -0.01    -0.025 A 
DOCKED: ATOM     22  C   UNL d   1      42.826  26.118  16.974 -0.31 -0.01    -0.021 A 
DOCKED: ATOM     23  C   UNL d   1      42.513  27.478  16.895 -0.33 +0.02    +0.066 A 
DOCKED: ATOM     24  C   UNL d   1      41.677  23.950  16.198 -0.52 +0.01    +0.051 C 
DOCKED: ATOM     25  N   UNL d   1      41.865  30.387  16.892 -0.24 -0.07    -0.248 N 
DOCKED: ATOM     26  N   UNL d   1      39.472  31.185  15.439 -0.20 -0.05    -0.248 N 
DOCKED: ATOM     27  N   UNL d   1      38.943  28.471  14.834 -0.14 -0.07    -0.248 N 
DOCKED: ATOM     28  N   UNL d   1      41.325  27.651  16.279 -0.25 -0.09    -0.248 N 
DOCKED: ATOM     29 FE   UNL d   1      40.403  29.403  15.861 -0.09 +0.00    +0.000 Fe
DOCKED: ATOM     30  O   UNL d   1      39.929  29.981  17.226 -0.71 +0.00    +0.000 OA
DOCKED: ATOM     31  O   UNL d   1      39.429  28.561  16.763 -0.87 +0.00    +0.000 OA
DOCKED: ENDROOT
DOCKED: BRANCH   6  32
DOCKED: ATOM     32  C   UNL d   1      44.919  30.698  18.992 -0.28 +0.02    +0.052 C 
DOCKED: BRANCH  32  33
DOCKED: ATOM     33  C   UNL d   1      44.752  29.591  20.029 -0.19 +0.09    +0.115 C 
DOCKED: BRANCH  33  34
DOCKED: ATOM     34  C   UNL d   1      46.032  29.302  20.773 -0.08 +0.18    +0.139 C 
DOCKED: ATOM     35  O   UNL d   1      46.868  30.183  20.900 -0.23 -0.68    -0.650 OA
DOCKED: BRANCH  34  36
DOCKED: ATOM     36  O   UNL d   1      46.289  28.079  21.281 -0.22 -1.30    -0.776 OA
DOCKED: ATOM     37  H   UNL d   1      46.293  27.288  20.730 +0.04 +0.17    +0.167 HD
DOCKED: ENDBRANCH  34  36
DOCKED: ENDBRANCH  33  34
DOCKED: ENDBRANCH  32  33
DOCKED: ENDBRANCH   6  32
DOCKED: BRANCH  22  38
DOCKED: ATOM     38  C   UNL d   1      44.005  25.480  17.663 -0.30 +0.02    +0.052 C 
DOCKED: BRANCH  38  39
DOCKED: ATOM     39  C   UNL d   1      44.202  26.004  19.084 -0.22 +0.06    +0.115 C 
DOCKED: BRANCH  39  40
DOCKED: ATOM     40  C   UNL d   1      44.803  24.969  20.002 -0.20 +0.08    +0.139 C 
DOCKED: ATOM     41  O   UNL d   1      44.757  23.788  19.696 -0.35 -0.40    -0.650 OA
DOCKED: BRANCH  40  42
DOCKED: ATOM     42  O   UNL d   1      45.438  25.328  21.134 +0.05 -0.55    -0.776 OA
DOCKED: ATOM     43  H   UNL d   1      45.479  26.248  21.420 +0.05 +0.17    +0.167 HD
DOCKED: ENDBRANCH  40  42
DOCKED: ENDBRANCH  39  40
DOCKED: ENDBRANCH  38  39
DOCKED: ENDBRANCH  22  38
DOCKED: BRANCH  12  44
DOCKED: ATOM     44  C   UNL d   1      37.143  33.595  13.685 -0.50 +0.00    +0.004 C 
DOCKED: ATOM     45  C   UNL d   1      36.472  33.208  12.601 -0.57 +0.00    +0.012 C 
DOCKED: ENDBRANCH  12  44
DOCKED: BRANCH  17  46
DOCKED: ATOM     46  C   UNL d   1      37.173  25.408  13.705 -0.62 +0.00    +0.004 C 
DOCKED: ATOM     47  C   UNL d   1      36.013  24.855  14.080 -0.69 +0.00    +0.012 C 
DOCKED: ENDBRANCH  17  46
DOCKED: TORSDOF 10
DOCKED: TER
DOCKED: ENDMDL
________________________________________________________________________________


	BEGINNING GENETIC ALGORITHM DOCKING 75 of 100
Run: 75 Seed: 1253925549 1798434530 [ Run 75 of 100 GA/GALS ]
Beginning LAMARCKIAN GENETIC ALGORITHM (LGA), with a maximum of 25000000 energy evaluations.

Final-Value: -19.833


	FINAL GENETIC ALGORITHM DOCKED STATE
	_______________________________________________


Detailed state:  trans 41.442 28.960 16.317 quatxyzw 0.355779 -0.398130 -0.845508 0.005500 center 8.287 34.468 -0.670 ntor 10 60.4747 -16.9624 8.5193 -49.7145 39.3320 -175.0433 19.7217 -35.3777 -55.3880 118.6618
State:	 41.442  28.960  16.317   0.356 -0.398 -0.846 179.370     60.47  -16.96    8.52  -49.71   39.33 -175.04   19.72  -35.38  -55.39  118.66

DOCKED: MODEL       75
DOCKED: USER    Run = 75
DOCKED: USER    DPF = D:/Protein_go_brrr/autodock/final/2DN3/heme_O2/dock.dpf
DOCKED: USER  
DOCKED: USER    Estimated Free Energy of Binding    =  -15.54 kcal/mol  [=(1)+(2)+(3)-(4)]
DOCKED: USER    Estimated Inhibition Constant, Ki   =    4.06 pM (picomolar)  [Temperature = 298.15 K]
DOCKED: USER    
DOCKED: USER    (1) Final Intermolecular Energy     =  -18.52 kcal/mol
DOCKED: USER        vdW + Hbond + desolv Energy     =  -16.36 kcal/mol
DOCKED: USER        Electrostatic Energy            =   -2.17 kcal/mol
DOCKED: USER    (2) Final Total Internal Energy     =   -1.31 kcal/mol
DOCKED: USER    (3) Torsional Free Energy           =   +2.98 kcal/mol
DOCKED: USER    (4) Unbound System's Energy  [=(2)] =   -1.31 kcal/mol
DOCKED: USER    
DOCKED: USER    
DOCKED: USER    NEWDPF move heme_O2_opt.pdbqt
DOCKED: USER    NEWDPF about 8.287000 34.468000 -0.670000
DOCKED: USER    NEWDPF tran0 41.441553 28.960247 16.316960
DOCKED: USER    NEWDPF quaternion0 0.355779 -0.398130 -0.845508 0.005500
DOCKED: USER    NEWDPF axisangle0 0.355785 -0.398136 -0.845520 179.369763
DOCKED: USER    NEWDPF quat0 0.355785 -0.398136 -0.845520 179.369763
DOCKED: USER    NEWDPF dihe0 60.47 -16.96 8.52 -49.71 39.33 -175.04 19.72 -35.38 -55.39 118.66 
DOCKED: USER  keepresnum = 1 
DOCKED: USER  
DOCKED: REMARK  10 active torsions:
DOCKED: REMARK  status: ('A' for Active; 'I' for Inactive)
DOCKED: REMARK    1  A    between atoms: C_6  and  C_10 
DOCKED: REMARK    2  A    between atoms: C_10  and  C_11 
DOCKED: REMARK    3  A    between atoms: C_11  and  C_12 
DOCKED: REMARK    4  A    between atoms: C_12  and  O_14 
DOCKED: REMARK    5  A    between atoms: C_17  and  C_20 
DOCKED: REMARK    6  A    between atoms: C_24  and  C_27 
DOCKED: REMARK    7  A    between atoms: C_31  and  C_34 
DOCKED: REMARK    8  A    between atoms: C_34  and  C_35 
DOCKED: REMARK    9  A    between atoms: C_35  and  C_36 
DOCKED: REMARK   10  A    between atoms: C_36  and  O_38 
DOCKED: USER                              x       y       z     vdW  Elec       q    Type
DOCKED: USER                           _______ _______ _______ _____ _____    ______ ____
DOCKED: ROOT
DOCKED: ATOM      1  C   UNL d   1      43.140  28.520  17.509 -0.22 +0.02    +0.064 A 
DOCKED: ATOM      2  C   UNL d   1      40.846  32.570  16.565 -0.42 +0.01    +0.064 A 
DOCKED: ATOM      3  C   UNL d   1      37.758  30.261  13.697 -0.42 +0.01    +0.064 C 
DOCKED: ATOM      4  C   UNL d   1      39.816  26.014  15.037 -0.38 +0.01    +0.064 A 
DOCKED: ATOM      5  C   UNL d   1      42.767  29.810  17.488 -0.30 +0.02    +0.066 A 
DOCKED: ATOM      6  C   UNL d   1      43.429  30.828  18.180 -0.34 -0.01    -0.021 A 
DOCKED: ATOM      7  C   UNL d   1      42.740  31.994  17.942 -0.42 -0.01    -0.025 A 
DOCKED: ATOM      8  C   UNL d   1      41.704  31.664  17.072 -0.39 +0.01    +0.066 A 
DOCKED: ATOM      9  C   UNL d   1      43.070  33.335  18.560 -0.46 +0.01    +0.051 C 
DOCKED: ATOM     10  C   UNL d   1      39.755  32.289  15.632 -0.39 +0.01    +0.066 A 
DOCKED: ATOM     11  C   UNL d   1      38.997  33.287  15.010 -0.42 -0.00    -0.021 A 
DOCKED: ATOM     12  C   UNL d   1      38.113  32.642  14.165 -0.41 +0.00    +0.000 A 
DOCKED: ATOM     13  C   UNL d   1      38.379  31.255  14.333 -0.36 +0.01    +0.070 A 
DOCKED: ATOM     14  C   UNL d   1      39.130  34.795  15.192 -0.55 +0.01    +0.052 C 
DOCKED: ATOM     15  C   UNL d   1      37.973  28.844  13.865 -0.37 +0.01    +0.066 A 
DOCKED: ATOM     16  C   UNL d   1      37.179  27.851  13.293 -0.44 -0.00    -0.021 A 
DOCKED: ATOM     17  C   UNL d   1      37.746  26.631  13.662 -0.46 +0.00    +0.000 A 
DOCKED: ATOM     18  C   UNL d   1      38.860  26.976  14.440 -0.37 +0.01    +0.070 A 
DOCKED: ATOM     19  C   UNL d   1      35.931  28.150  12.500 -0.64 +0.01    +0.052 C 
DOCKED: ATOM     20  C   UNL d   1      40.869  26.309  15.824 -0.39 +0.02    +0.066 A 
DOCKED: ATOM     21  C   UNL d   1      41.745  25.360  16.343 -0.37 -0.01    -0.025 A 
DOCKED: ATOM     22  C   UNL d   1      42.714  26.058  17.027 -0.32 -0.01    -0.021 A 
DOCKED: ATOM     23  C   UNL d   1      42.382  27.412  16.916 -0.33 +0.02    +0.066 A 
DOCKED: ATOM     24  C   UNL d   1      41.660  23.863  16.196 -0.52 +0.01    +0.051 C 
DOCKED: ATOM     25  N   UNL d   1      41.682  30.308  16.845 -0.22 -0.08    -0.248 N 
DOCKED: ATOM     26  N   UNL d   1      39.376  31.049  15.230 -0.16 -0.06    -0.248 N 
DOCKED: ATOM     27  N   UNL d   1      38.939  28.320  14.615 -0.14 -0.07    -0.248 N 
DOCKED: ATOM     28  N   UNL d   1      41.235  27.557  16.221 -0.25 -0.08    -0.248 N 
DOCKED: ATOM     29 FE   UNL d   1      40.310  29.288  15.728 -0.08 +0.00    +0.000 Fe
DOCKED: ATOM     30  O   UNL d   1      39.735  29.867  17.054 -0.74 +0.00    +0.000 OA
DOCKED: ATOM     31  O   UNL d   1      39.294  28.434  16.571 -0.76 +0.00    +0.000 OA
DOCKED: ENDROOT
DOCKED: BRANCH   6  32
DOCKED: ATOM     32  C   UNL d   1      44.584  30.692  19.139 -0.30 +0.02    +0.052 C 
DOCKED: BRANCH  32  33
DOCKED: ATOM     33  C   UNL d   1      45.464  29.482  18.839 -0.20 +0.06    +0.115 C 
DOCKED: BRANCH  33  34
DOCKED: ATOM     34  C   UNL d   1      46.340  29.105  20.008 -0.16 +0.12    +0.139 C 
DOCKED: ATOM     35  O   UNL d   1      47.548  29.257  19.930 -0.01 -0.43    -0.650 OA
DOCKED: BRANCH  34  36
DOCKED: ATOM     36  O   UNL d   1      45.820  28.573  21.134 -0.12 -1.37    -0.776 OA
DOCKED: ATOM     37  H   UNL d   1      45.338  27.738  21.129 +0.04 +0.25    +0.167 HD
DOCKED: ENDBRANCH  34  36
DOCKED: ENDBRANCH  33  34
DOCKED: ENDBRANCH  32  33
DOCKED: ENDBRANCH   6  32
DOCKED: BRANCH  22  38
DOCKED: ATOM     38  C   UNL d   1      43.857  25.448  17.798 -0.31 +0.02    +0.052 C 
DOCKED: BRANCH  38  39
DOCKED: ATOM     39  C   UNL d   1      44.120  26.171  19.117 -0.20 +0.06    +0.115 C 
DOCKED: BRANCH  39  40
DOCKED: ATOM     40  C   UNL d   1      44.528  25.227  20.221 -0.23 +0.08    +0.139 C 
DOCKED: ATOM     41  O   UNL d   1      44.107  24.081  20.224 -0.54 -0.44    -0.650 OA
DOCKED: BRANCH  40  42
DOCKED: ATOM     42  O   UNL d   1      45.392  25.610  21.180 +0.06 -0.59    -0.776 OA
DOCKED: ATOM     43  H   UNL d   1      45.927  26.407  21.089 +0.05 +0.16    +0.167 HD
DOCKED: ENDBRANCH  40  42
DOCKED: ENDBRANCH  39  40
DOCKED: ENDBRANCH  38  39
DOCKED: ENDBRANCH  22  38
DOCKED: BRANCH  12  44
DOCKED: ATOM     44  C   UNL d   1      37.124  33.401  13.305 -0.50 +0.00    +0.004 C 
DOCKED: ATOM     45  C   UNL d   1      36.176  32.901  12.513 -0.59 +0.00    +0.012 C 
DOCKED: ENDBRANCH  12  44
DOCKED: BRANCH  17  46
DOCKED: ATOM     46  C   UNL d   1      37.304  25.216  13.398 -0.64 +0.00    +0.004 C 
DOCKED: ATOM     47  C   UNL d   1      36.132  24.644  13.701 -0.67 +0.00    +0.012 C 
DOCKED: ENDBRANCH  17  46
DOCKED: TORSDOF 10
DOCKED: TER
DOCKED: ENDMDL
________________________________________________________________________________


	BEGINNING GENETIC ALGORITHM DOCKING 76 of 100
Run: 76 Seed: 1009832870 1623395849 [ Run 76 of 100 GA/GALS ]
Beginning LAMARCKIAN GENETIC ALGORITHM (LGA), with a maximum of 25000000 energy evaluations.

Final-Value: -19.304


	FINAL GENETIC ALGORITHM DOCKED STATE
	_______________________________________________


Detailed state:  trans 8.982 34.996 -1.000 quatxyzw -0.028926 -0.062028 -0.044256 -0.996673 center 8.287 34.468 -0.670 ntor 10 44.6591 -152.2528 -3.5367 -112.5536 -110.0573 -134.7041 -16.0183 71.6902 167.4113 158.0716
State:	  8.982  34.996  -1.000  -0.355 -0.761 -0.543 -9.350     44.66 -152.25   -3.54 -112.55 -110.06 -134.70  -16.02   71.69  167.41  158.07

DOCKED: MODEL       76
DOCKED: USER    Run = 76
DOCKED: USER    DPF = D:/Protein_go_brrr/autodock/final/2DN3/heme_O2/dock.dpf
DOCKED: USER  
DOCKED: USER    Estimated Free Energy of Binding    =  -14.12 kcal/mol  [=(1)+(2)+(3)-(4)]
DOCKED: USER    Estimated Inhibition Constant, Ki   =   44.35 pM (picomolar)  [Temperature = 298.15 K]
DOCKED: USER    
DOCKED: USER    (1) Final Intermolecular Energy     =  -17.11 kcal/mol
DOCKED: USER        vdW + Hbond + desolv Energy     =  -15.31 kcal/mol
DOCKED: USER        Electrostatic Energy            =   -1.80 kcal/mol
DOCKED: USER    (2) Final Total Internal Energy     =   -2.20 kcal/mol
DOCKED: USER    (3) Torsional Free Energy           =   +2.98 kcal/mol
DOCKED: USER    (4) Unbound System's Energy  [=(2)] =   -2.20 kcal/mol
DOCKED: USER    
DOCKED: USER    
DOCKED: USER    NEWDPF move heme_O2_opt.pdbqt
DOCKED: USER    NEWDPF about 8.287000 34.468000 -0.670000
DOCKED: USER    NEWDPF tran0 8.981520 34.995710 -0.999753
DOCKED: USER    NEWDPF quaternion0 -0.028926 -0.062028 -0.044256 -0.996673
DOCKED: USER    NEWDPF axisangle0 -0.354906 -0.761050 -0.542996 -9.350010
DOCKED: USER    NEWDPF quat0 -0.354906 -0.761050 -0.542996 -9.350010
DOCKED: USER    NEWDPF dihe0 44.66 -152.25 -3.54 -112.55 -110.06 -134.70 -16.02 71.69 167.41 158.07 
DOCKED: USER  keepresnum = 1 
DOCKED: USER  
DOCKED: REMARK  10 active torsions:
DOCKED: REMARK  status: ('A' for Active; 'I' for Inactive)
DOCKED: REMARK    1  A    between atoms: C_6  and  C_10 
DOCKED: REMARK    2  A    between atoms: C_10  and  C_11 
DOCKED: REMARK    3  A    between atoms: C_11  and  C_12 
DOCKED: REMARK    4  A    between atoms: C_12  and  O_14 
DOCKED: REMARK    5  A    between atoms: C_17  and  C_20 
DOCKED: REMARK    6  A    between atoms: C_24  and  C_27 
DOCKED: REMARK    7  A    between atoms: C_31  and  C_34 
DOCKED: REMARK    8  A    between atoms: C_34  and  C_35 
DOCKED: REMARK    9  A    between atoms: C_35  and  C_36 
DOCKED: REMARK   10  A    between atoms: C_36  and  O_38 
DOCKED: USER                              x       y       z     vdW  Elec       q    Type
DOCKED: USER                           _______ _______ _______ _____ _____    ______ ____
DOCKED: ROOT
DOCKED: ATOM      1  C   UNL d   1       7.285  35.702  -2.060 -0.28 +0.01    +0.064 A 
DOCKED: ATOM      2  C   UNL d   1       7.748  33.125   1.903 -0.39 +0.01    +0.064 A 
DOCKED: ATOM      3  C   UNL d   1      12.537  33.227   1.521 -0.43 +0.00    +0.064 C 
DOCKED: ATOM      4  C   UNL d   1      12.086  36.281  -2.291 -0.41 +0.00    +0.064 A 
DOCKED: ATOM      5  C   UNL d   1       7.020  34.994  -0.950 -0.30 +0.01    +0.066 A 
DOCKED: ATOM      6  C   UNL d   1       5.730  34.709  -0.493 -0.30 -0.00    -0.021 A 
DOCKED: ATOM      7  C   UNL d   1       5.863  34.000   0.678 -0.34 -0.00    -0.025 A 
DOCKED: ATOM      8  C   UNL d   1       7.230  33.830   0.878 -0.34 +0.01    +0.066 A 
DOCKED: ATOM      9  C   UNL d   1       4.713  33.550   1.553 -0.37 +0.01    +0.051 C 
DOCKED: ATOM     10  C   UNL d   1       9.171  32.893   2.153 -0.38 +0.01    +0.066 A 
DOCKED: ATOM     11  C   UNL d   1       9.647  32.019   3.136 -0.46 -0.00    -0.021 A 
DOCKED: ATOM     12  C   UNL d   1      11.026  32.021   3.029 -0.44 +0.00    +0.000 A 
DOCKED: ATOM     13  C   UNL d   1      11.319  32.926   1.972 -0.37 +0.00    +0.070 A 
DOCKED: ATOM     14  C   UNL d   1       8.821  31.195   4.117 -0.58 +0.00    +0.052 C 
DOCKED: ATOM     15  C   UNL d   1      12.878  34.163   0.477 -0.36 +0.01    +0.066 A 
DOCKED: ATOM     16  C   UNL d   1      14.178  34.558   0.163 -0.45 -0.00    -0.021 A 
DOCKED: ATOM     17  C   UNL d   1      14.074  35.430  -0.921 -0.43 +0.00    +0.000 A 
DOCKED: ATOM     18  C   UNL d   1      12.701  35.501  -1.191 -0.36 +0.01    +0.070 A 
DOCKED: ATOM     19  C   UNL d   1      15.385  34.116   0.951 -0.60 +0.00    +0.052 C 
DOCKED: ATOM     20  C   UNL d   1      10.771  36.406  -2.552 -0.39 +0.00    +0.066 A 
DOCKED: ATOM     21  C   UNL d   1      10.252  37.142  -3.614 -0.38 -0.00    -0.025 A 
DOCKED: ATOM     22  C   UNL d   1       8.887  36.966  -3.580 -0.33 -0.00    -0.021 A 
DOCKED: ATOM     23  C   UNL d   1       8.620  36.141  -2.483 -0.35 +0.01    +0.066 A 
DOCKED: ATOM     24  C   UNL d   1      11.020  37.973  -4.609 -0.46 -0.00    +0.051 C 
DOCKED: ATOM     25  N   UNL d   1       7.944  34.499  -0.090 -0.07 -0.05    -0.248 N 
DOCKED: ATOM     26  N   UNL d   1      10.185  33.455   1.447 -0.22 -0.03    -0.248 N 
DOCKED: ATOM     27  N   UNL d   1      11.985  34.786  -0.286 -0.14 -0.03    -0.248 N 
DOCKED: ATOM     28  N   UNL d   1       9.764  35.840  -1.834 -0.22 -0.04    -0.248 N 
DOCKED: ATOM     29 FE   UNL d   1       9.976  34.657  -0.205 -0.07 +0.00    +0.000 Fe
DOCKED: ATOM     30  O   UNL d   1       9.352  35.441   0.986 -0.68 +0.00    +0.000 OA
DOCKED: ATOM     31  O   UNL d   1      10.538  36.078   0.167 -0.62 +0.00    +0.000 OA
DOCKED: ENDROOT
DOCKED: BRANCH   6  32
DOCKED: ATOM     32  C   UNL d   1       4.422  35.199  -1.056 -0.24 +0.01    +0.052 C 
DOCKED: BRANCH  32  33
DOCKED: ATOM     33  C   UNL d   1       3.738  36.226  -0.158 -0.13 +0.06    +0.115 C 
DOCKED: BRANCH  33  34
DOCKED: ATOM     34  C   UNL d   1       2.692  37.026  -0.893 +0.00 +0.16    +0.139 C 
DOCKED: ATOM     35  O   UNL d   1       1.514  36.721  -0.790 -0.32 -0.95    -0.650 OA
DOCKED: BRANCH  34  36
DOCKED: ATOM     36  O   UNL d   1       3.030  38.062  -1.690 -0.07 -0.85    -0.776 OA
DOCKED: ATOM     37  H   UNL d   1       3.757  38.005  -2.320 +0.04 +0.10    +0.167 HD
DOCKED: ENDBRANCH  34  36
DOCKED: ENDBRANCH  33  34
DOCKED: ENDBRANCH  32  33
DOCKED: ENDBRANCH   6  32
DOCKED: BRANCH  22  38
DOCKED: ATOM     38  C   UNL d   1       7.895  37.610  -4.513 -0.29 +0.00    +0.052 C 
DOCKED: BRANCH  38  39
DOCKED: ATOM     39  C   UNL d   1       7.214  38.827  -3.890 -0.25 +0.01    +0.115 C 
DOCKED: BRANCH  39  40
DOCKED: ATOM     40  C   UNL d   1       5.762  38.573  -3.569 -0.14 +0.03    +0.139 C 
DOCKED: ATOM     41  O   UNL d   1       5.313  37.441  -3.644 +0.02 -0.14    -0.650 OA
DOCKED: BRANCH  40  42
DOCKED: ATOM     42  O   UNL d   1       4.958  39.570  -3.150 +0.05 -0.25    -0.776 OA
DOCKED: ATOM     43  H   UNL d   1       4.218  39.404  -2.554 +0.04 +0.09    +0.167 HD
DOCKED: ENDBRANCH  40  42
DOCKED: ENDBRANCH  39  40
DOCKED: ENDBRANCH  38  39
DOCKED: ENDBRANCH  22  38
DOCKED: BRANCH  12  44
DOCKED: ATOM     44  C   UNL d   1      11.903  31.178   3.932 -0.58 +0.00    +0.004 C 
DOCKED: ATOM     45  C   UNL d   1      13.217  30.978   3.842 -0.67 +0.00    +0.012 C 
DOCKED: ENDBRANCH  12  44
DOCKED: BRANCH  17  46
DOCKED: ATOM     46  C   UNL d   1      15.123  36.218  -1.658 -0.57 +0.00    +0.004 C 
DOCKED: ATOM     47  C   UNL d   1      15.217  37.547  -1.796 -0.65 +0.00    +0.012 C 
DOCKED: ENDBRANCH  17  46
DOCKED: TORSDOF 10
DOCKED: TER
DOCKED: ENDMDL
________________________________________________________________________________


	BEGINNING GENETIC ALGORITHM DOCKING 77 of 100
Run: 77 Seed: 1253320701 210414767 [ Run 77 of 100 GA/GALS ]
Beginning LAMARCKIAN GENETIC ALGORITHM (LGA), with a maximum of 25000000 energy evaluations.

Final-Value: -11.340


	FINAL GENETIC ALGORITHM DOCKED STATE
	_______________________________________________


Detailed state:  trans 30.868 36.477 2.969 quatxyzw -0.018327 -0.459583 0.009405 0.887896 center 8.287 34.468 -0.670 ntor 10 -71.2680 -69.1349 -100.0533 125.3493 45.2197 -174.1553 -123.8733 -73.3875 2.4443 160.3037
State:	 30.868  36.477   2.969  -0.040 -0.999  0.020 54.780    -71.27  -69.13 -100.05  125.35   45.22 -174.16 -123.87  -73.39    2.44  160.30

DOCKED: MODEL       77
DOCKED: USER    Run = 77
DOCKED: USER    DPF = D:/Protein_go_brrr/autodock/final/2DN3/heme_O2/dock.dpf
DOCKED: USER  
DOCKED: USER    Estimated Free Energy of Binding    =   -7.54 kcal/mol  [=(1)+(2)+(3)-(4)]
DOCKED: USER    Estimated Inhibition Constant, Ki   =    2.96 uM (micromolar)  [Temperature = 298.15 K]
DOCKED: USER    
DOCKED: USER    (1) Final Intermolecular Energy     =  -10.53 kcal/mol
DOCKED: USER        vdW + Hbond + desolv Energy     =   -9.10 kcal/mol
DOCKED: USER        Electrostatic Energy            =   -1.43 kcal/mol
DOCKED: USER    (2) Final Total Internal Energy     =   -0.81 kcal/mol
DOCKED: USER    (3) Torsional Free Energy           =   +2.98 kcal/mol
DOCKED: USER    (4) Unbound System's Energy  [=(2)] =   -0.81 kcal/mol
DOCKED: USER    
DOCKED: USER    
DOCKED: USER    NEWDPF move heme_O2_opt.pdbqt
DOCKED: USER    NEWDPF about 8.287000 34.468000 -0.670000
DOCKED: USER    NEWDPF tran0 30.867733 36.476529 2.968523
DOCKED: USER    NEWDPF quaternion0 -0.018327 -0.459583 0.009405 0.887896
DOCKED: USER    NEWDPF axisangle0 -0.039837 -0.998997 0.020444 54.779994
DOCKED: USER    NEWDPF quat0 -0.039837 -0.998997 0.020444 54.779994
DOCKED: USER    NEWDPF dihe0 -71.27 -69.13 -100.05 125.35 45.22 -174.16 -123.87 -73.39 2.44 160.30 
DOCKED: USER  keepresnum = 1 
DOCKED: USER  
DOCKED: REMARK  10 active torsions:
DOCKED: REMARK  status: ('A' for Active; 'I' for Inactive)
DOCKED: REMARK    1  A    between atoms: C_6  and  C_10 
DOCKED: REMARK    2  A    between atoms: C_10  and  C_11 
DOCKED: REMARK    3  A    between atoms: C_11  and  C_12 
DOCKED: REMARK    4  A    between atoms: C_12  and  O_14 
DOCKED: REMARK    5  A    between atoms: C_17  and  C_20 
DOCKED: REMARK    6  A    between atoms: C_24  and  C_27 
DOCKED: REMARK    7  A    between atoms: C_31  and  C_34 
DOCKED: REMARK    8  A    between atoms: C_34  and  C_35 
DOCKED: REMARK    9  A    between atoms: C_35  and  C_36 
DOCKED: REMARK   10  A    between atoms: C_36  and  O_38 
DOCKED: USER                              x       y       z     vdW  Elec       q    Type
DOCKED: USER                           _______ _______ _______ _____ _____    ______ ____
DOCKED: ROOT
DOCKED: ATOM      1  C   UNL d   1      29.156  37.111   4.048 -0.20 -0.01    +0.064 A 
DOCKED: ATOM      2  C   UNL d   1      32.767  34.233   5.162 -0.35 +0.02    +0.064 A 
DOCKED: ATOM      3  C   UNL d   1      34.709  34.834   0.808 -0.13 +0.01    +0.064 C 
DOCKED: ATOM      4  C   UNL d   1      31.253  38.171  -0.184 -0.02 +0.01    +0.064 A 
DOCKED: ATOM      5  C   UNL d   1      29.980  36.281   4.707 -0.14 +0.00    +0.066 A 
DOCKED: ATOM      6  C   UNL d   1      29.759  35.830   6.012 -0.31 +0.00    -0.021 A 
DOCKED: ATOM      7  C   UNL d   1      30.826  35.032   6.351 -0.39 -0.01    -0.025 A 
DOCKED: ATOM      8  C   UNL d   1      31.645  34.977   5.227 -0.29 +0.02    +0.066 A 
DOCKED: ATOM      9  C   UNL d   1      31.033  34.393   7.707 -0.13 +0.02    +0.051 C 
DOCKED: ATOM     10  C   UNL d   1      33.654  34.118   4.004 -0.31 +0.02    +0.066 A 
DOCKED: ATOM     11  C   UNL d   1      34.713  33.207   3.933 -0.41 -0.00    -0.021 A 
DOCKED: ATOM     12  C   UNL d   1      35.274  33.352   2.678 -0.32 +0.00    +0.000 A 
DOCKED: ATOM     13  C   UNL d   1      34.517  34.375   2.044 -0.18 +0.01    +0.070 A 
DOCKED: ATOM     14  C   UNL d   1      35.154  32.219   5.008 -0.60 +0.01    +0.052 C 
DOCKED: ATOM     15  C   UNL d   1      33.987  35.892   0.143 -0.06 +0.01    +0.066 A 
DOCKED: ATOM     16  C   UNL d   1      34.343  36.438  -1.090 -0.04 -0.00    -0.021 A 
DOCKED: ATOM     17  C   UNL d   1      33.372  37.393  -1.393 -0.02 +0.00    +0.000 A 
DOCKED: ATOM     18  C   UNL d   1      32.484  37.355  -0.308 -0.02 +0.01    +0.070 A 
DOCKED: ATOM     19  C   UNL d   1      35.593  36.043  -1.835 -0.03 +0.01    +0.052 C 
DOCKED: ATOM     20  C   UNL d   1      30.404  38.192   0.861 -0.05 +0.01    +0.066 A 
DOCKED: ATOM     21  C   UNL d   1      29.250  38.969   0.914 -0.13 -0.00    -0.025 A 
DOCKED: ATOM     22  C   UNL d   1      28.625  38.659   2.101 -0.21 +0.00    -0.021 A 
DOCKED: ATOM     23  C   UNL d   1      29.434  37.714   2.740 -0.14 -0.00    +0.066 A 
DOCKED: ATOM     24  C   UNL d   1      28.770  39.960  -0.115 -0.15 +0.01    +0.051 C 
DOCKED: ATOM     25  N   UNL d   1      31.157  35.799   4.237 -0.11 -0.06    -0.248 N 
DOCKED: ATOM     26  N   UNL d   1      33.536  34.839   2.860 -0.13 -0.05    -0.248 N 
DOCKED: ATOM     27  N   UNL d   1      32.914  36.493   0.648 -0.03 -0.05    -0.248 N 
DOCKED: ATOM     28  N   UNL d   1      30.536  37.467   2.003 -0.04 -0.04    -0.248 N 
DOCKED: ATOM     29 FE   UNL d   1      32.026  36.163   2.426 -0.03 +0.00    +0.000 Fe
DOCKED: ATOM     30  O   UNL d   1      32.805  36.769   3.630 -0.24 +0.00    +0.000 OA
DOCKED: ATOM     31  O   UNL d   1      32.672  37.591   2.292 -0.22 +0.00    +0.000 OA
DOCKED: ENDROOT
DOCKED: BRANCH   6  32
DOCKED: ATOM     32  C   UNL d   1      28.660  36.242   6.956 -0.31 -0.04    +0.052 C 
DOCKED: BRANCH  32  33
DOCKED: ATOM     33  C   UNL d   1      27.385  35.423   6.775 -0.31 -0.06    +0.115 C 
DOCKED: BRANCH  33  34
DOCKED: ATOM     34  C   UNL d   1      27.638  33.939   6.864 -0.34 +0.03    +0.139 C 
DOCKED: ATOM     35  O   UNL d   1      27.623  33.262   5.848 -0.38 -0.48    -0.650 OA
DOCKED: BRANCH  34  36
DOCKED: ATOM     36  O   UNL d   1      27.852  33.332   8.050 +0.15 -0.16    -0.776 OA
DOCKED: ATOM     37  H   UNL d   1      28.667  33.461   8.549 -0.41 +0.01    +0.167 HD
DOCKED: ENDBRANCH  34  36
DOCKED: ENDBRANCH  33  34
DOCKED: ENDBRANCH  32  33
DOCKED: ENDBRANCH   6  32
DOCKED: BRANCH  22  38
DOCKED: ATOM     38  C   UNL d   1      27.356  39.288   2.616 -0.35 -0.01    +0.052 C 
DOCKED: BRANCH  38  39
DOCKED: ATOM     39  C   UNL d   1      27.627  40.407   3.619 -0.40 -0.06    +0.115 C 
DOCKED: BRANCH  39  40
DOCKED: ATOM     40  C   UNL d   1      27.398  41.777   3.030 -0.43 +0.01    +0.139 C 
DOCKED: ATOM     41  O   UNL d   1      27.571  41.960   1.836 -0.00 -0.17    -0.650 OA
DOCKED: BRANCH  40  42
DOCKED: ATOM     42  O   UNL d   1      26.955  42.796   3.792 +0.14 -0.51    -0.776 OA
DOCKED: ATOM     43  H   UNL d   1      26.071  42.791   4.177 -0.43 +0.05    +0.167 HD
DOCKED: ENDBRANCH  40  42
DOCKED: ENDBRANCH  39  40
DOCKED: ENDBRANCH  38  39
DOCKED: ENDBRANCH  22  38
DOCKED: BRANCH  12  44
DOCKED: ATOM     44  C   UNL d   1      36.454  32.519   2.224 -0.27 -0.00    +0.004 C 
DOCKED: ATOM     45  C   UNL d   1      36.457  31.242   1.843 -0.33 +0.00    +0.012 C 
DOCKED: ENDBRANCH  12  44
DOCKED: BRANCH  17  46
DOCKED: ATOM     46  C   UNL d   1      33.250  38.344  -2.553 -0.00 +0.00    +0.004 C 
DOCKED: ATOM     47  C   UNL d   1      32.275  38.414  -3.468 -0.00 +0.00    +0.012 C 
DOCKED: ENDBRANCH  17  46
DOCKED: TORSDOF 10
DOCKED: TER
DOCKED: ENDMDL
________________________________________________________________________________


	BEGINNING GENETIC ALGORITHM DOCKING 78 of 100
Run: 78 Seed: 1981179255 1245681091 [ Run 78 of 100 GA/GALS ]
Beginning LAMARCKIAN GENETIC ALGORITHM (LGA), with a maximum of 25000000 energy evaluations.

Final-Value: -11.465


	FINAL GENETIC ALGORITHM DOCKED STATE
	_______________________________________________


Detailed state:  trans 27.114 44.009 -2.723 quatxyzw 0.488176 -0.198675 -0.836951 -0.147392 center 8.287 34.468 -0.670 ntor 10 -107.0888 -111.6222 77.3888 -100.8227 115.8876 100.8166 65.2401 -76.5864 2.3656 -23.3239
State:	 27.114  44.009  -2.723   0.494 -0.201 -0.846 -163.048   -107.09 -111.62   77.39 -100.82  115.89  100.82   65.24  -76.59    2.37  -23.32

DOCKED: MODEL       78
DOCKED: USER    Run = 78
DOCKED: USER    DPF = D:/Protein_go_brrr/autodock/final/2DN3/heme_O2/dock.dpf
DOCKED: USER  
DOCKED: USER    Estimated Free Energy of Binding    =   -5.88 kcal/mol  [=(1)+(2)+(3)-(4)]
DOCKED: USER    Estimated Inhibition Constant, Ki   =   48.76 uM (micromolar)  [Temperature = 298.15 K]
DOCKED: USER    
DOCKED: USER    (1) Final Intermolecular Energy     =   -8.87 kcal/mol
DOCKED: USER        vdW + Hbond + desolv Energy     =   -6.29 kcal/mol
DOCKED: USER        Electrostatic Energy            =   -2.58 kcal/mol
DOCKED: USER    (2) Final Total Internal Energy     =   -2.60 kcal/mol
DOCKED: USER    (3) Torsional Free Energy           =   +2.98 kcal/mol
DOCKED: USER    (4) Unbound System's Energy  [=(2)] =   -2.60 kcal/mol
DOCKED: USER    
DOCKED: USER    
DOCKED: USER    NEWDPF move heme_O2_opt.pdbqt
DOCKED: USER    NEWDPF about 8.287000 34.468000 -0.670000
DOCKED: USER    NEWDPF tran0 27.114266 44.009355 -2.723426
DOCKED: USER    NEWDPF quaternion0 0.488176 -0.198675 -0.836951 -0.147392
DOCKED: USER    NEWDPF axisangle0 0.493567 -0.200869 -0.846194 -163.048343
DOCKED: USER    NEWDPF quat0 0.493567 -0.200869 -0.846194 -163.048343
DOCKED: USER    NEWDPF dihe0 -107.09 -111.62 77.39 -100.82 115.89 100.82 65.24 -76.59 2.37 -23.32 
DOCKED: USER  keepresnum = 1 
DOCKED: USER  
DOCKED: REMARK  10 active torsions:
DOCKED: REMARK  status: ('A' for Active; 'I' for Inactive)
DOCKED: REMARK    1  A    between atoms: C_6  and  C_10 
DOCKED: REMARK    2  A    between atoms: C_10  and  C_11 
DOCKED: REMARK    3  A    between atoms: C_11  and  C_12 
DOCKED: REMARK    4  A    between atoms: C_12  and  O_14 
DOCKED: REMARK    5  A    between atoms: C_17  and  C_20 
DOCKED: REMARK    6  A    between atoms: C_24  and  C_27 
DOCKED: REMARK    7  A    between atoms: C_31  and  C_34 
DOCKED: REMARK    8  A    between atoms: C_34  and  C_35 
DOCKED: REMARK    9  A    between atoms: C_35  and  C_36 
DOCKED: REMARK   10  A    between atoms: C_36  and  O_38 
DOCKED: USER                              x       y       z     vdW  Elec       q    Type
DOCKED: USER                           _______ _______ _______ _____ _____    ______ ____
DOCKED: ROOT
DOCKED: ATOM      1  C   UNL d   1      28.744  44.154  -1.374 -0.06 +0.02    +0.064 A 
DOCKED: ATOM      2  C   UNL d   1      24.790  46.729  -1.917 -0.02 +0.01    +0.064 A 
DOCKED: ATOM      3  C   UNL d   1      23.409  43.996  -5.620 -0.22 +0.01    +0.064 C 
DOCKED: ATOM      4  C   UNL d   1      27.236  41.048  -4.768 -0.12 +0.01    +0.064 A 
DOCKED: ATOM      5  C   UNL d   1      27.780  45.076  -1.218 -0.10 +0.02    +0.066 A 
DOCKED: ATOM      6  C   UNL d   1      27.813  46.088  -0.253 -0.11 -0.01    -0.021 A 
DOCKED: ATOM      7  C   UNL d   1      26.648  46.807  -0.381 -0.12 -0.01    -0.025 A 
DOCKED: ATOM      8  C   UNL d   1      25.958  46.246  -1.452 -0.08 +0.02    +0.066 A 
DOCKED: ATOM      9  C   UNL d   1      26.235  47.953   0.517 -0.12 +0.02    +0.051 C 
DOCKED: ATOM     10  C   UNL d   1      24.032  46.197  -3.050 -0.17 +0.01    +0.066 A 
DOCKED: ATOM     11  C   UNL d   1      22.910  46.834  -3.593 -0.21 -0.00    -0.021 A 
DOCKED: ATOM     12  C   UNL d   1      22.508  46.071  -4.673 -0.23 +0.00    +0.000 A 
DOCKED: ATOM     13  C   UNL d   1      23.420  44.980  -4.722 -0.23 +0.01    +0.070 A 
DOCKED: ATOM     14  C   UNL d   1      22.266  48.131  -3.118 -0.18 -0.00    +0.052 C 
DOCKED: ATOM     15  C   UNL d   1      24.292  42.856  -5.683 -0.12 +0.01    +0.066 A 
DOCKED: ATOM     16  C   UNL d   1      24.127  41.775  -6.548 -0.05 -0.00    -0.021 A 
DOCKED: ATOM     17  C   UNL d   1      25.206  40.921  -6.322 -0.15 +0.00    +0.000 A 
DOCKED: ATOM     18  C   UNL d   1      25.960  41.555  -5.324 -0.16 +0.01    +0.070 A 
DOCKED: ATOM     19  C   UNL d   1      22.937  41.628  -7.464 -0.20 +0.01    +0.052 C 
DOCKED: ATOM     20  C   UNL d   1      27.962  41.609  -3.780 -0.10 +0.01    +0.066 A 
DOCKED: ATOM     21  C   UNL d   1      29.167  41.095  -3.310 -0.06 -0.00    -0.025 A 
DOCKED: ATOM     22  C   UNL d   1      29.625  41.981  -2.361 -0.04 -0.00    -0.021 A 
DOCKED: ATOM     23  C   UNL d   1      28.669  42.998  -2.275 -0.06 +0.02    +0.066 A 
DOCKED: ATOM     24  C   UNL d   1      29.845  39.820  -3.740 -0.04 +0.01    +0.051 C 
DOCKED: ATOM     25  N   UNL d   1      26.625  45.139  -1.925 -0.09 -0.06    -0.248 N 
DOCKED: ATOM     26  N   UNL d   1      24.341  45.062  -3.728 -0.19 -0.04    -0.248 N 
DOCKED: ATOM     27  N   UNL d   1      25.351  42.690  -4.896 -0.14 -0.05    -0.248 N 
DOCKED: ATOM     28  N   UNL d   1      27.638  42.744  -3.107 -0.07 -0.05    -0.248 N 
DOCKED: ATOM     29 FE   UNL d   1      26.001  43.893  -3.417 -0.04 +0.00    +0.000 Fe
DOCKED: ATOM     30  O   UNL d   1      25.148  43.795  -2.118 -0.46 +0.00    +0.000 OA
DOCKED: ATOM     31  O   UNL d   1      25.503  42.486  -2.920 -0.34 +0.00    +0.000 OA
DOCKED: ENDROOT
DOCKED: BRANCH   6  32
DOCKED: ATOM     32  C   UNL d   1      28.832  46.289   0.838 -0.10 +0.03    +0.052 C 
DOCKED: BRANCH  32  33
DOCKED: ATOM     33  C   UNL d   1      30.042  47.096   0.378 -0.15 +0.05    +0.115 C 
DOCKED: BRANCH  33  34
DOCKED: ATOM     34  C   UNL d   1      31.322  46.301   0.443 -0.09 +0.14    +0.139 C 
DOCKED: ATOM     35  O   UNL d   1      31.483  45.488   1.340 -0.43 -0.86    -0.650 OA
DOCKED: BRANCH  34  36
DOCKED: ATOM     36  O   UNL d   1      32.312  46.486  -0.455 -0.35 -1.10    -0.776 OA
DOCKED: ATOM     37  H   UNL d   1      32.499  45.843  -1.149 +0.01 +0.21    +0.167 HD
DOCKED: ENDBRANCH  34  36
DOCKED: ENDBRANCH  33  34
DOCKED: ENDBRANCH  32  33
DOCKED: ENDBRANCH   6  32
DOCKED: BRANCH  22  38
DOCKED: ATOM     38  C   UNL d   1      30.879  41.820  -1.541 -0.03 +0.02    +0.052 C 
DOCKED: BRANCH  38  39
DOCKED: ATOM     39  C   UNL d   1      32.137  42.189  -2.324 -0.01 +0.04    +0.115 C 
DOCKED: BRANCH  39  40
DOCKED: ATOM     40  C   UNL d   1      32.665  43.553  -1.957 -0.06 +0.09    +0.139 C 
DOCKED: ATOM     41  O   UNL d   1      32.663  44.447  -2.788 +0.01 -0.35    -0.650 OA
DOCKED: BRANCH  40  42
DOCKED: ATOM     42  O   UNL d   1      33.095  43.820  -0.709 +0.04 -1.16    -0.776 OA
DOCKED: ATOM     43  H   UNL d   1      32.596  44.394  -0.115 +0.02 +0.34    +0.167 HD
DOCKED: ENDBRANCH  40  42
DOCKED: ENDBRANCH  39  40
DOCKED: ENDBRANCH  38  39
DOCKED: ENDBRANCH  22  38
DOCKED: BRANCH  12  44
DOCKED: ATOM     44  C   UNL d   1      21.317  46.451  -5.528 -0.21 -0.00    +0.004 C 
DOCKED: ATOM     45  C   UNL d   1      20.117  45.874  -5.562 -0.37 -0.00    +0.012 C 
DOCKED: ENDBRANCH  12  44
DOCKED: BRANCH  17  46
DOCKED: ATOM     46  C   UNL d   1      25.541  39.575  -6.909 -0.12 +0.00    +0.004 C 
DOCKED: ATOM     47  C   UNL d   1      25.478  38.375  -6.318 -0.15 +0.00    +0.012 C 
DOCKED: ENDBRANCH  17  46
DOCKED: TORSDOF 10
DOCKED: TER
DOCKED: ENDMDL
________________________________________________________________________________


	BEGINNING GENETIC ALGORITHM DOCKING 79 of 100
Run: 79 Seed: 841808818 1158945464 [ Run 79 of 100 GA/GALS ]
Beginning LAMARCKIAN GENETIC ALGORITHM (LGA), with a maximum of 25000000 energy evaluations.

Final-Value: -10.999


	FINAL GENETIC ALGORITHM DOCKED STATE
	_______________________________________________


Detailed state:  trans 19.960 37.374 31.827 quatxyzw 0.158428 -0.550180 -0.542409 0.614813 center 8.287 34.468 -0.670 ntor 10 168.6705 -12.5817 121.0051 21.8555 -72.4866 -175.6046 100.8680 135.2118 17.4009 31.5744
State:	 19.960  37.374  31.827   0.201 -0.698 -0.688 104.123    168.67  -12.58  121.01   21.86  -72.49 -175.60  100.87  135.21   17.40   31.57

DOCKED: MODEL       79
DOCKED: USER    Run = 79
DOCKED: USER    DPF = D:/Protein_go_brrr/autodock/final/2DN3/heme_O2/dock.dpf
DOCKED: USER  
DOCKED: USER    Estimated Free Energy of Binding    =   -5.88 kcal/mol  [=(1)+(2)+(3)-(4)]
DOCKED: USER    Estimated Inhibition Constant, Ki   =   49.18 uM (micromolar)  [Temperature = 298.15 K]
DOCKED: USER    
DOCKED: USER    (1) Final Intermolecular Energy     =   -8.86 kcal/mol
DOCKED: USER        vdW + Hbond + desolv Energy     =   -6.88 kcal/mol
DOCKED: USER        Electrostatic Energy            =   -1.98 kcal/mol
DOCKED: USER    (2) Final Total Internal Energy     =   -2.14 kcal/mol
DOCKED: USER    (3) Torsional Free Energy           =   +2.98 kcal/mol
DOCKED: USER    (4) Unbound System's Energy  [=(2)] =   -2.14 kcal/mol
DOCKED: USER    
DOCKED: USER    
DOCKED: USER    NEWDPF move heme_O2_opt.pdbqt
DOCKED: USER    NEWDPF about 8.287000 34.468000 -0.670000
DOCKED: USER    NEWDPF tran0 19.960304 37.373613 31.826593
DOCKED: USER    NEWDPF quaternion0 0.158428 -0.550180 -0.542409 0.614813
DOCKED: USER    NEWDPF axisangle0 0.200879 -0.697603 -0.687749 104.123329
DOCKED: USER    NEWDPF quat0 0.200879 -0.697603 -0.687749 104.123329
DOCKED: USER    NEWDPF dihe0 168.67 -12.58 121.01 21.86 -72.49 -175.60 100.87 135.21 17.40 31.57 
DOCKED: USER  keepresnum = 1 
DOCKED: USER  
DOCKED: REMARK  10 active torsions:
DOCKED: REMARK  status: ('A' for Active; 'I' for Inactive)
DOCKED: REMARK    1  A    between atoms: C_6  and  C_10 
DOCKED: REMARK    2  A    between atoms: C_10  and  C_11 
DOCKED: REMARK    3  A    between atoms: C_11  and  C_12 
DOCKED: REMARK    4  A    between atoms: C_12  and  O_14 
DOCKED: REMARK    5  A    between atoms: C_17  and  C_20 
DOCKED: REMARK    6  A    between atoms: C_24  and  C_27 
DOCKED: REMARK    7  A    between atoms: C_31  and  C_34 
DOCKED: REMARK    8  A    between atoms: C_34  and  C_35 
DOCKED: REMARK    9  A    between atoms: C_35  and  C_36 
DOCKED: REMARK   10  A    between atoms: C_36  and  O_38 
DOCKED: USER                              x       y       z     vdW  Elec       q    Type
DOCKED: USER                           _______ _______ _______ _____ _____    ______ ____
DOCKED: ROOT
DOCKED: ATOM      1  C   UNL d   1      19.413  36.037  33.380 -0.06 +0.02    +0.064 A 
DOCKED: ATOM      2  C   UNL d   1      23.350  38.565  32.563 -0.05 -0.00    +0.064 A 
DOCKED: ATOM      3  C   UNL d   1      21.491  40.318  28.493 -0.31 -0.01    +0.064 C 
DOCKED: ATOM      4  C   UNL d   1      17.252  38.095  29.567 -0.22 +0.01    +0.064 A 
DOCKED: ATOM      5  C   UNL d   1      20.634  36.583  33.491 -0.03 +0.02    +0.066 A 
DOCKED: ATOM      6  C   UNL d   1      21.522  36.309  34.535 -0.07 -0.01    -0.021 A 
DOCKED: ATOM      7  C   UNL d   1      22.645  37.073  34.323 -0.06 -0.00    -0.025 A 
DOCKED: ATOM      8  C   UNL d   1      22.432  37.756  33.128 -0.07 +0.01    +0.066 A 
DOCKED: ATOM      9  C   UNL d   1      23.834  37.144  35.257 -0.02 +0.00    +0.051 C 
DOCKED: ATOM     10  C   UNL d   1      23.193  39.290  31.301 -0.09 -0.00    +0.066 A 
DOCKED: ATOM     11  C   UNL d   1      24.235  39.984  30.678 -0.15 +0.00    -0.021 A 
DOCKED: ATOM     12  C   UNL d   1      23.724  40.481  29.493 -0.23 -0.00    +0.000 A 
DOCKED: ATOM     13  C   UNL d   1      22.364  40.064  29.467 -0.20 -0.01    +0.070 A 
DOCKED: ATOM     14  C   UNL d   1      25.667  40.142  31.177 -0.23 -0.02    +0.052 C 
DOCKED: ATOM     15  C   UNL d   1      20.098  39.943  28.445 -0.24 -0.00    +0.066 A 
DOCKED: ATOM     16  C   UNL d   1      19.195  40.379  27.476 -0.29 +0.00    -0.021 A 
DOCKED: ATOM     17  C   UNL d   1      17.979  39.759  27.763 -0.25 +0.00    +0.000 A 
DOCKED: ATOM     18  C   UNL d   1      18.236  38.979  28.899 -0.19 +0.01    +0.070 A 
DOCKED: ATOM     19  C   UNL d   1      19.555  41.381  26.408 -0.33 -0.01    +0.052 C 
DOCKED: ATOM     20  C   UNL d   1      17.452  37.367  30.683 -0.16 +0.01    +0.066 A 
DOCKED: ATOM     21  C   UNL d   1      16.492  36.538  31.257 -0.17 -0.00    -0.025 A 
DOCKED: ATOM     22  C   UNL d   1      17.099  35.923  32.329 -0.13 -0.00    -0.021 A 
DOCKED: ATOM     23  C   UNL d   1      18.407  36.414  32.380 -0.11 +0.01    +0.066 A 
DOCKED: ATOM     24  C   UNL d   1      15.067  36.346  30.807 -0.17 -0.00    +0.051 C 
DOCKED: ATOM     25  N   UNL d   1      21.167  37.504  32.651 -0.06 -0.05    -0.248 N 
DOCKED: ATOM     26  N   UNL d   1      22.048  39.343  30.573 -0.07 +0.01    -0.248 N 
DOCKED: ATOM     27  N   UNL d   1      19.505  39.161  29.343 -0.14 -0.02    -0.248 N 
DOCKED: ATOM     28  N   UNL d   1      18.603  37.326  31.405 -0.07 -0.05    -0.248 N 
DOCKED: ATOM     29 FE   UNL d   1      20.312  38.328  30.990 -0.04 +0.00    +0.000 Fe
DOCKED: ATOM     30  O   UNL d   1      20.518  39.337  32.157 -0.07 +0.00    +0.000 OA
DOCKED: ATOM     31  O   UNL d   1      19.200  39.398  31.297 -0.09 +0.00    +0.000 OA
DOCKED: ENDROOT
DOCKED: BRANCH   6  32
DOCKED: ATOM     32  C   UNL d   1      21.275  35.467  35.760 -0.04 +0.01    +0.052 C 
DOCKED: BRANCH  32  33
DOCKED: ATOM     33  C   UNL d   1      21.887  34.074  35.656 -0.06 +0.04    +0.115 C 
DOCKED: BRANCH  33  34
DOCKED: ATOM     34  C   UNL d   1      21.023  33.124  34.865 -0.08 +0.10    +0.139 C 
DOCKED: ATOM     35  O   UNL d   1      21.537  32.379  34.046 -0.56 -1.12    -0.650 OA
DOCKED: BRANCH  34  36
DOCKED: ATOM     36  O   UNL d   1      19.683  33.095  35.023 -0.01 -0.35    -0.776 OA
DOCKED: ATOM     37  H   UNL d   1      19.108  32.610  34.419 +0.02 +0.08    +0.167 HD
DOCKED: ENDBRANCH  34  36
DOCKED: ENDBRANCH  33  34
DOCKED: ENDBRANCH  32  33
DOCKED: ENDBRANCH   6  32
DOCKED: BRANCH  22  38
DOCKED: ATOM     38  C   UNL d   1      16.433  34.966  33.284 -0.07 +0.01    +0.052 C 
DOCKED: BRANCH  38  39
DOCKED: ATOM     39  C   UNL d   1      17.279  33.721  33.544 -0.07 +0.03    +0.115 C 
DOCKED: BRANCH  39  40
DOCKED: ATOM     40  C   UNL d   1      17.839  33.129  32.275 -0.15 +0.06    +0.139 C 
DOCKED: ATOM     41  O   UNL d   1      17.215  33.233  31.231 -0.06 -0.17    -0.650 OA
DOCKED: BRANCH  40  42
DOCKED: ATOM     42  O   UNL d   1      19.046  32.530  32.260 -0.03 -0.78    -0.776 OA
DOCKED: ATOM     43  H   UNL d   1      19.645  32.583  33.015 +0.01 +0.21    +0.167 HD
DOCKED: ENDBRANCH  40  42
DOCKED: ENDBRANCH  39  40
DOCKED: ENDBRANCH  38  39
DOCKED: ENDBRANCH  22  38
DOCKED: BRANCH  12  44
DOCKED: ATOM     44  C   UNL d   1      24.567  41.291  28.531 -0.35 -0.00    +0.004 C 
DOCKED: ATOM     45  C   UNL d   1      25.139  42.476  28.741 -0.36 -0.00    +0.012 C 
DOCKED: ENDBRANCH  12  44
DOCKED: BRANCH  17  46
DOCKED: ATOM     46  C   UNL d   1      16.628  39.884  27.110 -0.30 -0.00    +0.004 C 
DOCKED: ATOM     47  C   UNL d   1      16.330  40.418  25.918 -0.38 -0.00    +0.012 C 
DOCKED: ENDBRANCH  17  46
DOCKED: TORSDOF 10
DOCKED: TER
DOCKED: ENDMDL
________________________________________________________________________________


	BEGINNING GENETIC ALGORITHM DOCKING 80 of 100
Run: 80 Seed: 1611336777 594111259 [ Run 80 of 100 GA/GALS ]
Beginning LAMARCKIAN GENETIC ALGORITHM (LGA), with a maximum of 25000000 energy evaluations.

Final-Value: -11.005


	FINAL GENETIC ALGORITHM DOCKED STATE
	_______________________________________________


Detailed state:  trans 27.598 39.710 -1.072 quatxyzw 0.175304 -0.408048 0.702850 0.555669 center 8.287 34.468 -0.670 ntor 10 177.1882 -20.2293 39.2411 84.7197 -121.9378 -37.3001 51.0832 136.7126 -173.9270 22.8008
State:	 27.598  39.710  -1.072   0.211 -0.491  0.845 112.486    177.19  -20.23   39.24   84.72 -121.94  -37.30   51.08  136.71 -173.93   22.80

DOCKED: MODEL       80
DOCKED: USER    Run = 80
DOCKED: USER    DPF = D:/Protein_go_brrr/autodock/final/2DN3/heme_O2/dock.dpf
DOCKED: USER  
DOCKED: USER    Estimated Free Energy of Binding    =   -7.22 kcal/mol  [=(1)+(2)+(3)-(4)]
DOCKED: USER    Estimated Inhibition Constant, Ki   =    5.13 uM (micromolar)  [Temperature = 298.15 K]
DOCKED: USER    
DOCKED: USER    (1) Final Intermolecular Energy     =  -10.20 kcal/mol
DOCKED: USER        vdW + Hbond + desolv Energy     =   -8.24 kcal/mol
DOCKED: USER        Electrostatic Energy            =   -1.96 kcal/mol
DOCKED: USER    (2) Final Total Internal Energy     =   -0.81 kcal/mol
DOCKED: USER    (3) Torsional Free Energy           =   +2.98 kcal/mol
DOCKED: USER    (4) Unbound System's Energy  [=(2)] =   -0.81 kcal/mol
DOCKED: USER    
DOCKED: USER    
DOCKED: USER    NEWDPF move heme_O2_opt.pdbqt
DOCKED: USER    NEWDPF about 8.287000 34.468000 -0.670000
DOCKED: USER    NEWDPF tran0 27.598479 39.709814 -1.072076
DOCKED: USER    NEWDPF quaternion0 0.175304 -0.408048 0.702850 0.555669
DOCKED: USER    NEWDPF axisangle0 0.210852 -0.490794 0.845377 112.486428
DOCKED: USER    NEWDPF quat0 0.210852 -0.490794 0.845377 112.486428
DOCKED: USER    NEWDPF dihe0 177.19 -20.23 39.24 84.72 -121.94 -37.30 51.08 136.71 -173.93 22.80 
DOCKED: USER  keepresnum = 1 
DOCKED: USER  
DOCKED: REMARK  10 active torsions:
DOCKED: REMARK  status: ('A' for Active; 'I' for Inactive)
DOCKED: REMARK    1  A    between atoms: C_6  and  C_10 
DOCKED: REMARK    2  A    between atoms: C_10  and  C_11 
DOCKED: REMARK    3  A    between atoms: C_11  and  C_12 
DOCKED: REMARK    4  A    between atoms: C_12  and  O_14 
DOCKED: REMARK    5  A    between atoms: C_17  and  C_20 
DOCKED: REMARK    6  A    between atoms: C_24  and  C_27 
DOCKED: REMARK    7  A    between atoms: C_31  and  C_34 
DOCKED: REMARK    8  A    between atoms: C_34  and  C_35 
DOCKED: REMARK    9  A    between atoms: C_35  and  C_36 
DOCKED: REMARK   10  A    between atoms: C_36  and  O_38 
DOCKED: USER                              x       y       z     vdW  Elec       q    Type
DOCKED: USER                           _______ _______ _______ _____ _____    ______ ____
DOCKED: ROOT
DOCKED: ATOM      1  C   UNL d   1      28.023  41.711  -1.632 -0.13 +0.01    +0.064 A 
DOCKED: ATOM      2  C   UNL d   1      28.500  39.356   2.465 -0.23 -0.01    +0.064 A 
DOCKED: ATOM      3  C   UNL d   1      26.691  35.367   0.489 -0.26 +0.01    +0.064 C 
DOCKED: ATOM      4  C   UNL d   1      26.640  37.640  -3.858 -0.21 +0.01    +0.064 A 
DOCKED: ATOM      5  C   UNL d   1      28.302  41.396  -0.357 -0.13 +0.01    +0.066 A 
DOCKED: ATOM      6  C   UNL d   1      28.827  42.295   0.575 -0.16 -0.01    -0.021 A 
DOCKED: ATOM      7  C   UNL d   1      29.006  41.603   1.750 -0.19 -0.01    -0.025 A 
DOCKED: ATOM      8  C   UNL d   1      28.541  40.312   1.517 -0.18 +0.01    +0.066 A 
DOCKED: ATOM      9  C   UNL d   1      29.625  42.176   3.006 -0.27 +0.02    +0.051 C 
DOCKED: ATOM     10  C   UNL d   1      28.002  37.992   2.286 -0.22 -0.00    +0.066 A 
DOCKED: ATOM     11  C   UNL d   1      27.831  37.091   3.343 -0.27 +0.00    -0.021 A 
DOCKED: ATOM     12  C   UNL d   1      27.293  35.940   2.796 -0.29 +0.00    +0.000 A 
DOCKED: ATOM     13  C   UNL d   1      27.175  36.206   1.404 -0.21 +0.01    +0.070 A 
DOCKED: ATOM     14  C   UNL d   1      28.141  37.327   4.817 -0.32 -0.04    +0.052 C 
DOCKED: ATOM     15  C   UNL d   1      26.588  35.585  -0.934 -0.18 +0.01    +0.066 A 
DOCKED: ATOM     16  C   UNL d   1      26.225  34.607  -1.859 -0.19 -0.00    -0.021 A 
DOCKED: ATOM     17  C   UNL d   1      26.205  35.232  -3.106 -0.17 +0.00    +0.000 A 
DOCKED: ATOM     18  C   UNL d   1      26.559  36.563  -2.844 -0.20 +0.00    +0.070 A 
DOCKED: ATOM     19  C   UNL d   1      25.987  33.166  -1.483 -0.18 +0.00    +0.052 C 
DOCKED: ATOM     20  C   UNL d   1      27.018  38.916  -3.647 -0.20 +0.01    +0.066 A 
DOCKED: ATOM     21  C   UNL d   1      27.057  39.892  -4.640 -0.16 -0.00    -0.025 A 
DOCKED: ATOM     22  C   UNL d   1      27.423  41.065  -4.018 -0.15 -0.00    -0.021 A 
DOCKED: ATOM     23  C   UNL d   1      27.612  40.756  -2.668 -0.12 +0.01    +0.066 A 
DOCKED: ATOM     24  C   UNL d   1      26.764  39.713  -6.107 -0.10 +0.01    +0.051 C 
DOCKED: ATOM     25  N   UNL d   1      28.168  40.167   0.200 -0.06 -0.04    -0.248 N 
DOCKED: ATOM     26  N   UNL d   1      27.614  37.455   1.102 -0.07 -0.02    -0.248 N 
DOCKED: ATOM     27  N   UNL d   1      26.861  36.741  -1.532 -0.07 -0.03    -0.248 N 
DOCKED: ATOM     28  N   UNL d   1      27.409  39.440  -2.455 +0.01 -0.04    -0.248 N 
DOCKED: ATOM     29 FE   UNL d   1      27.510  38.452  -0.691 -0.06 +0.00    +0.000 Fe
DOCKED: ATOM     30  O   UNL d   1      29.015  38.418  -0.298 -0.14 +0.00    +0.000 OA
DOCKED: ATOM     31  O   UNL d   1      28.551  37.787  -1.665 -0.15 +0.00    +0.000 OA
DOCKED: ENDROOT
DOCKED: BRANCH   6  32
DOCKED: ATOM     32  C   UNL d   1      29.273  43.715   0.338 -0.13 +0.02    +0.052 C 
DOCKED: BRANCH  32  33
DOCKED: ATOM     33  C   UNL d   1      30.746  43.816  -0.049 -0.10 +0.08    +0.115 C 
DOCKED: BRANCH  33  34
DOCKED: ATOM     34  C   UNL d   1      31.483  44.854   0.760 -0.03 +0.19    +0.139 C 
DOCKED: ATOM     35  O   UNL d   1      31.973  44.545   1.835 -0.07 -1.12    -0.650 OA
DOCKED: BRANCH  34  36
DOCKED: ATOM     36  O   UNL d   1      31.590  46.130   0.337 -0.58 -1.00    -0.776 OA
DOCKED: ATOM     37  H   UNL d   1      32.028  46.809   0.864 -0.55 +0.21    +0.167 HD
DOCKED: ENDBRANCH  34  36
DOCKED: ENDBRANCH  33  34
DOCKED: ENDBRANCH  32  33
DOCKED: ENDBRANCH   6  32
DOCKED: BRANCH  22  38
DOCKED: ATOM     38  C   UNL d   1      27.640  42.390  -4.702 -0.09 +0.01    +0.052 C 
DOCKED: BRANCH  38  39
DOCKED: ATOM     39  C   UNL d   1      26.789  43.504  -4.096 -0.12 +0.02    +0.115 C 
DOCKED: BRANCH  39  40
DOCKED: ATOM     40  C   UNL d   1      25.366  43.070  -3.845 -0.27 +0.03    +0.139 C 
DOCKED: ATOM     41  O   UNL d   1      24.985  42.873  -2.702 -0.15 -0.19    -0.650 OA
DOCKED: BRANCH  40  42
DOCKED: ATOM     42  O   UNL d   1      24.488  42.943  -4.858 +0.06 -0.17    -0.776 OA
DOCKED: ATOM     43  H   UNL d   1      24.648  43.351  -5.718 +0.05 +0.03    +0.167 HD
DOCKED: ENDBRANCH  40  42
DOCKED: ENDBRANCH  39  40
DOCKED: ENDBRANCH  38  39
DOCKED: ENDBRANCH  22  38
DOCKED: BRANCH  12  44
DOCKED: ATOM     44  C   UNL d   1      26.956  34.729   3.641 -0.37 +0.00    +0.004 C 
DOCKED: ATOM     45  C   UNL d   1      27.052  33.444   3.304 -0.36 +0.01    +0.012 C 
DOCKED: ENDBRANCH  12  44
DOCKED: BRANCH  17  46
DOCKED: ATOM     46  C   UNL d   1      25.944  34.682  -4.483 -0.10 -0.00    +0.004 C 
DOCKED: ATOM     47  C   UNL d   1      24.767  34.374  -5.043 -0.15 -0.00    +0.012 C 
DOCKED: ENDBRANCH  17  46
DOCKED: TORSDOF 10
DOCKED: TER
DOCKED: ENDMDL
________________________________________________________________________________


	BEGINNING GENETIC ALGORITHM DOCKING 81 of 100
Run: 81 Seed: 1249344966 2083332810 [ Run 81 of 100 GA/GALS ]
Beginning LAMARCKIAN GENETIC ALGORITHM (LGA), with a maximum of 25000000 energy evaluations.

Final-Value: -18.592


	FINAL GENETIC ALGORITHM DOCKED STATE
	_______________________________________________


Detailed state:  trans 8.832 34.819 -0.702 quatxyzw -0.032807 -0.019130 -0.007772 -0.999248 center 8.287 34.468 -0.670 ntor 10 50.4398 -128.2472 -14.7015 -100.4306 173.6140 -0.1896 4.9079 -41.4316 -140.9947 28.9285
State:	  8.832  34.819  -0.702  -0.846 -0.494 -0.200 -4.443     50.44 -128.25  -14.70 -100.43  173.61   -0.19    4.91  -41.43 -140.99   28.93

DOCKED: MODEL       81
DOCKED: USER    Run = 81
DOCKED: USER    DPF = D:/Protein_go_brrr/autodock/final/2DN3/heme_O2/dock.dpf
DOCKED: USER  
DOCKED: USER    Estimated Free Energy of Binding    =  -13.95 kcal/mol  [=(1)+(2)+(3)-(4)]
DOCKED: USER    Estimated Inhibition Constant, Ki   =   59.45 pM (picomolar)  [Temperature = 298.15 K]
DOCKED: USER    
DOCKED: USER    (1) Final Intermolecular Energy     =  -16.93 kcal/mol
DOCKED: USER        vdW + Hbond + desolv Energy     =  -15.26 kcal/mol
DOCKED: USER        Electrostatic Energy            =   -1.68 kcal/mol
DOCKED: USER    (2) Final Total Internal Energy     =   -1.66 kcal/mol
DOCKED: USER    (3) Torsional Free Energy           =   +2.98 kcal/mol
DOCKED: USER    (4) Unbound System's Energy  [=(2)] =   -1.66 kcal/mol
DOCKED: USER    
DOCKED: USER    
DOCKED: USER    NEWDPF move heme_O2_opt.pdbqt
DOCKED: USER    NEWDPF about 8.287000 34.468000 -0.670000
DOCKED: USER    NEWDPF tran0 8.831571 34.818684 -0.702270
DOCKED: USER    NEWDPF quaternion0 -0.032807 -0.019130 -0.007772 -0.999248
DOCKED: USER    NEWDPF axisangle0 -0.846319 -0.493503 -0.200499 -4.443181
DOCKED: USER    NEWDPF quat0 -0.846319 -0.493503 -0.200499 -4.443181
DOCKED: USER    NEWDPF dihe0 50.44 -128.25 -14.70 -100.43 173.61 -0.19 4.91 -41.43 -140.99 28.93 
DOCKED: USER  keepresnum = 1 
DOCKED: USER  
DOCKED: REMARK  10 active torsions:
DOCKED: REMARK  status: ('A' for Active; 'I' for Inactive)
DOCKED: REMARK    1  A    between atoms: C_6  and  C_10 
DOCKED: REMARK    2  A    between atoms: C_10  and  C_11 
DOCKED: REMARK    3  A    between atoms: C_11  and  C_12 
DOCKED: REMARK    4  A    between atoms: C_12  and  O_14 
DOCKED: REMARK    5  A    between atoms: C_17  and  C_20 
DOCKED: REMARK    6  A    between atoms: C_24  and  C_27 
DOCKED: REMARK    7  A    between atoms: C_31  and  C_34 
DOCKED: REMARK    8  A    between atoms: C_34  and  C_35 
DOCKED: REMARK    9  A    between atoms: C_35  and  C_36 
DOCKED: REMARK   10  A    between atoms: C_36  and  O_38 
DOCKED: USER                              x       y       z     vdW  Elec       q    Type
DOCKED: USER                           _______ _______ _______ _____ _____    ______ ____
DOCKED: ROOT
DOCKED: ATOM      1  C   UNL d   1       7.003  35.393  -1.612 -0.26 +0.01    +0.064 A 
DOCKED: ATOM      2  C   UNL d   1       7.992  32.900   2.308 -0.41 +0.01    +0.064 A 
DOCKED: ATOM      3  C   UNL d   1      12.710  33.330   1.503 -0.43 +0.00    +0.064 C 
DOCKED: ATOM      4  C   UNL d   1      11.713  36.302  -2.270 -0.40 +0.00    +0.064 A 
DOCKED: ATOM      5  C   UNL d   1       6.887  34.682  -0.479 -0.31 +0.01    +0.066 A 
DOCKED: ATOM      6  C   UNL d   1       5.666  34.313   0.092 -0.31 -0.00    -0.021 A 
DOCKED: ATOM      7  C   UNL d   1       5.950  33.628   1.250 -0.37 -0.00    -0.025 A 
DOCKED: ATOM      8  C   UNL d   1       7.339  33.555   1.329 -0.36 +0.01    +0.066 A 
DOCKED: ATOM      9  C   UNL d   1       4.916  33.109   2.225 -0.42 +0.00    +0.051 C 
DOCKED: ATOM     10  C   UNL d   1       9.444  32.770   2.432 -0.39 +0.00    +0.066 A 
DOCKED: ATOM     11  C   UNL d   1      10.066  31.942   3.373 -0.46 -0.00    -0.021 A 
DOCKED: ATOM     12  C   UNL d   1      11.426  32.039   3.146 -0.44 +0.00    +0.000 A 
DOCKED: ATOM     13  C   UNL d   1      11.561  32.950   2.062 -0.36 +0.00    +0.070 A 
DOCKED: ATOM     14  C   UNL d   1       9.389  31.075   4.428 -0.64 +0.00    +0.052 C 
DOCKED: ATOM     15  C   UNL d   1      12.891  34.276   0.429 -0.36 +0.01    +0.066 A 
DOCKED: ATOM     16  C   UNL d   1      14.128  34.756  -0.001 -0.44 -0.00    -0.021 A 
DOCKED: ATOM     17  C   UNL d   1      13.869  35.607  -1.076 -0.43 +0.00    +0.000 A 
DOCKED: ATOM     18  C   UNL d   1      12.475  35.579  -1.224 -0.35 +0.01    +0.070 A 
DOCKED: ATOM     19  C   UNL d   1      15.428  34.408   0.680 -0.60 +0.00    +0.052 C 
DOCKED: ATOM     20  C   UNL d   1      10.374  36.333  -2.414 -0.38 +0.01    +0.066 A 
DOCKED: ATOM     21  C   UNL d   1       9.713  37.018  -3.430 -0.36 -0.00    -0.025 A 
DOCKED: ATOM     22  C   UNL d   1       8.372  36.748  -3.274 -0.34 -0.00    -0.021 A 
DOCKED: ATOM     23  C   UNL d   1       8.262  35.919  -2.153 -0.29 +0.01    +0.066 A 
DOCKED: ATOM     24  C   UNL d   1      10.331  37.889  -4.493 -0.50 -0.00    +0.051 C 
DOCKED: ATOM     25  N   UNL d   1       7.915  34.261   0.299 -0.15 -0.05    -0.248 N 
DOCKED: ATOM     26  N   UNL d   1      10.351  33.394   1.637 -0.23 -0.02    -0.248 N 
DOCKED: ATOM     27  N   UNL d   1      11.893  34.826  -0.256 -0.14 -0.03    -0.248 N 
DOCKED: ATOM     28  N   UNL d   1       9.477  35.706  -1.607 -0.20 -0.05    -0.248 N 
DOCKED: ATOM     29 FE   UNL d   1       9.913  34.559   0.003 -0.07 +0.00    +0.000 Fe
DOCKED: ATOM     30  O   UNL d   1       9.343  35.311   1.240 -0.56 +0.00    +0.000 OA
DOCKED: ATOM     31  O   UNL d   1      10.405  36.020   0.317 -0.66 +0.00    +0.000 OA
DOCKED: ENDROOT
DOCKED: BRANCH   6  32
DOCKED: ATOM     32  C   UNL d   1       4.282  34.704  -0.356 -0.27 +0.01    +0.052 C 
DOCKED: BRANCH  32  33
DOCKED: ATOM     33  C   UNL d   1       4.081  36.216  -0.406 -0.13 +0.06    +0.115 C 
DOCKED: BRANCH  33  34
DOCKED: ATOM     34  C   UNL d   1       2.673  36.597  -0.793 -0.09 +0.13    +0.139 C 
DOCKED: ATOM     35  O   UNL d   1       1.764  35.800  -0.623 -0.06 -0.52    -0.650 OA
DOCKED: BRANCH  34  36
DOCKED: ATOM     36  O   UNL d   1       2.397  37.793  -1.352 -0.06 -1.21    -0.776 OA
DOCKED: ATOM     37  H   UNL d   1       2.885  38.126  -2.114 +0.03 +0.16    +0.167 HD
DOCKED: ENDBRANCH  34  36
DOCKED: ENDBRANCH  33  34
DOCKED: ENDBRANCH  32  33
DOCKED: ENDBRANCH   6  32
DOCKED: BRANCH  22  38
DOCKED: ATOM     38  C   UNL d   1       7.259  37.311  -4.120 -0.28 +0.00    +0.052 C 
DOCKED: BRANCH  38  39
DOCKED: ATOM     39  C   UNL d   1       6.298  36.230  -4.611 -0.22 +0.01    +0.115 C 
DOCKED: BRANCH  39  40
DOCKED: ATOM     40  C   UNL d   1       4.854  36.654  -4.510 -0.13 +0.03    +0.139 C 
DOCKED: ATOM     41  O   UNL d   1       4.057  36.299  -5.363 +0.00 -0.11    -0.650 OA
DOCKED: BRANCH  40  42
DOCKED: ATOM     42  O   UNL d   1       4.413  37.379  -3.464 +0.05 -0.23    -0.776 OA
DOCKED: ATOM     43  H   UNL d   1       3.666  37.089  -2.927 +0.04 +0.07    +0.167 HD
DOCKED: ENDBRANCH  40  42
DOCKED: ENDBRANCH  39  40
DOCKED: ENDBRANCH  38  39
DOCKED: ENDBRANCH  22  38
DOCKED: BRANCH  12  44
DOCKED: ATOM     44  C   UNL d   1      12.436  31.270   3.972 -0.60 +0.00    +0.004 C 
DOCKED: ATOM     45  C   UNL d   1      13.702  30.990   3.665 -0.70 +0.00    +0.012 C 
DOCKED: ENDBRANCH  12  44
DOCKED: BRANCH  17  46
DOCKED: ATOM     46  C   UNL d   1      14.791  36.458  -1.908 -0.58 +0.00    +0.004 C 
DOCKED: ATOM     47  C   UNL d   1      14.926  37.790  -1.895 -0.63 +0.00    +0.012 C 
DOCKED: ENDBRANCH  17  46
DOCKED: TORSDOF 10
DOCKED: TER
DOCKED: ENDMDL
________________________________________________________________________________


	BEGINNING GENETIC ALGORITHM DOCKING 82 of 100
Run: 82 Seed: 1555681016 848688815 [ Run 82 of 100 GA/GALS ]
Beginning LAMARCKIAN GENETIC ALGORITHM (LGA), with a maximum of 25000000 energy evaluations.

Final-Value: -16.827


	FINAL GENETIC ALGORITHM DOCKED STATE
	_______________________________________________


Detailed state:  trans 8.434 34.354 -0.290 quatxyzw 0.034094 -0.284294 -0.260336 0.922084 center 8.287 34.468 -0.670 ntor 10 160.2187 107.1824 56.2281 124.5331 -159.4216 -99.3629 -57.3827 -2.6659 -142.6910 -180.0000
State:	  8.434  34.354  -0.290   0.088 -0.735 -0.673 45.535    160.22  107.18   56.23  124.53 -159.42  -99.36  -57.38   -2.67 -142.69 -180.00

DOCKED: MODEL       82
DOCKED: USER    Run = 82
DOCKED: USER    DPF = D:/Protein_go_brrr/autodock/final/2DN3/heme_O2/dock.dpf
DOCKED: USER  
DOCKED: USER    Estimated Free Energy of Binding    =  -12.85 kcal/mol  [=(1)+(2)+(3)-(4)]
DOCKED: USER    Estimated Inhibition Constant, Ki   =  379.80 pM (picomolar)  [Temperature = 298.15 K]
DOCKED: USER    
DOCKED: USER    (1) Final Intermolecular Energy     =  -15.83 kcal/mol
DOCKED: USER        vdW + Hbond + desolv Energy     =  -14.18 kcal/mol
DOCKED: USER        Electrostatic Energy            =   -1.66 kcal/mol
DOCKED: USER    (2) Final Total Internal Energy     =   -0.99 kcal/mol
DOCKED: USER    (3) Torsional Free Energy           =   +2.98 kcal/mol
DOCKED: USER    (4) Unbound System's Energy  [=(2)] =   -0.99 kcal/mol
DOCKED: USER    
DOCKED: USER    
DOCKED: USER    NEWDPF move heme_O2_opt.pdbqt
DOCKED: USER    NEWDPF about 8.287000 34.468000 -0.670000
DOCKED: USER    NEWDPF tran0 8.433537 34.353624 -0.290038
DOCKED: USER    NEWDPF quaternion0 0.034094 -0.284294 -0.260336 0.922084
DOCKED: USER    NEWDPF axisangle0 0.088101 -0.734632 -0.672722 45.534525
DOCKED: USER    NEWDPF quat0 0.088101 -0.734632 -0.672722 45.534525
DOCKED: USER    NEWDPF dihe0 160.22 107.18 56.23 124.53 -159.42 -99.36 -57.38 -2.67 -142.69 -180.00 
DOCKED: USER  keepresnum = 1 
DOCKED: USER  
DOCKED: REMARK  10 active torsions:
DOCKED: REMARK  status: ('A' for Active; 'I' for Inactive)
DOCKED: REMARK    1  A    between atoms: C_6  and  C_10 
DOCKED: REMARK    2  A    between atoms: C_10  and  C_11 
DOCKED: REMARK    3  A    between atoms: C_11  and  C_12 
DOCKED: REMARK    4  A    between atoms: C_12  and  O_14 
DOCKED: REMARK    5  A    between atoms: C_17  and  C_20 
DOCKED: REMARK    6  A    between atoms: C_24  and  C_27 
DOCKED: REMARK    7  A    between atoms: C_31  and  C_34 
DOCKED: REMARK    8  A    between atoms: C_34  and  C_35 
DOCKED: REMARK    9  A    between atoms: C_35  and  C_36 
DOCKED: REMARK   10  A    between atoms: C_36  and  O_38 
DOCKED: USER                              x       y       z     vdW  Elec       q    Type
DOCKED: USER                           _______ _______ _______ _____ _____    ______ ____
DOCKED: ROOT
DOCKED: ATOM      1  C   UNL d   1       6.413  33.842   0.106 -0.29 +0.01    +0.064 A 
DOCKED: ATOM      2  C   UNL d   1      10.479  32.814   2.336 -0.38 +0.00    +0.064 A 
DOCKED: ATOM      3  C   UNL d   1      13.004  35.252  -0.947 -0.43 +0.01    +0.064 C 
DOCKED: ATOM      4  C   UNL d   1       8.787  36.716  -2.983 -0.35 +0.01    +0.064 A 
DOCKED: ATOM      5  C   UNL d   1       7.313  33.365   0.981 -0.31 +0.01    +0.066 A 
DOCKED: ATOM      6  C   UNL d   1       6.987  32.573   2.086 -0.42 -0.00    -0.021 A 
DOCKED: ATOM      7  C   UNL d   1       8.158  32.311   2.757 -0.47 -0.00    -0.025 A 
DOCKED: ATOM      8  C   UNL d   1       9.174  32.910   2.017 -0.38 +0.01    +0.066 A 
DOCKED: ATOM      9  C   UNL d   1       8.258  31.546   4.058 -0.26 +0.00    +0.051 C 
DOCKED: ATOM     10  C   UNL d   1      11.591  33.401   1.586 -0.36 +0.00    +0.066 A 
DOCKED: ATOM     11  C   UNL d   1      12.935  33.135   1.869 -0.35 -0.00    -0.021 A 
DOCKED: ATOM     12  C   UNL d   1      13.678  33.815   0.922 -0.47 +0.00    +0.000 A 
DOCKED: ATOM     13  C   UNL d   1      12.724  34.482   0.104 -0.34 +0.01    +0.070 A 
DOCKED: ATOM     14  C   UNL d   1      13.486  32.248   2.979 -0.44 +0.00    +0.052 C 
DOCKED: ATOM     15  C   UNL d   1      12.070  35.973  -1.778 -0.38 +0.01    +0.066 A 
DOCKED: ATOM     16  C   UNL d   1      12.433  36.893  -2.761 -0.45 -0.00    -0.021 A 
DOCKED: ATOM     17  C   UNL d   1      11.247  37.324  -3.355 -0.47 +0.00    +0.000 A 
DOCKED: ATOM     18  C   UNL d   1      10.235  36.624  -2.682 -0.38 +0.01    +0.070 A 
DOCKED: ATOM     19  C   UNL d   1      13.860  37.314  -3.006 -0.39 +0.00    +0.052 C 
DOCKED: ATOM     20  C   UNL d   1       7.788  36.093  -2.329 -0.26 +0.01    +0.066 A 
DOCKED: ATOM     21  C   UNL d   1       6.443  36.204  -2.670 -0.23 -0.00    -0.025 A 
DOCKED: ATOM     22  C   UNL d   1       5.754  35.371  -1.818 -0.24 -0.00    -0.021 A 
DOCKED: ATOM     23  C   UNL d   1       6.707  34.793  -0.973 -0.30 +0.01    +0.066 A 
DOCKED: ATOM     24  C   UNL d   1       5.845  37.065  -3.753 -0.20 +0.01    +0.051 C 
DOCKED: ATOM     25  N   UNL d   1       8.645  33.614   0.959 -0.08 -0.04    -0.248 N 
DOCKED: ATOM     26  N   UNL d   1      11.457  34.229   0.518 -0.04 -0.04    -0.248 N 
DOCKED: ATOM     27  N   UNL d   1      10.748  35.866  -1.679 -0.22 -0.03    -0.248 N 
DOCKED: ATOM     28  N   UNL d   1       7.936  35.269  -1.258 -0.20 -0.06    -0.248 N 
DOCKED: ATOM     29 FE   UNL d   1       9.685  34.755  -0.378 -0.04 +0.00    +0.000 Fe
DOCKED: ATOM     30  O   UNL d   1       9.642  35.353   1.058 -0.68 +0.00    +0.000 OA
DOCKED: ATOM     31  O   UNL d   1       9.500  36.305  -0.189 -0.96 +0.00    +0.000 OA
DOCKED: ENDROOT
DOCKED: BRANCH   6  32
DOCKED: ATOM     32  C   UNL d   1       5.613  32.190   2.573 -0.25 +0.00    +0.052 C 
DOCKED: BRANCH  32  33
DOCKED: ATOM     33  C   UNL d   1       4.746  33.399   2.911 -0.19 +0.00    +0.115 C 
DOCKED: BRANCH  33  34
DOCKED: ATOM     34  C   UNL d   1       3.482  33.447   2.089 -0.29 +0.02    +0.139 C 
DOCKED: ATOM     35  O   UNL d   1       2.778  32.453   2.005 +0.01 -0.05    -0.650 OA
DOCKED: BRANCH  34  36
DOCKED: ATOM     36  O   UNL d   1       3.123  34.560   1.416 +0.05 -0.26    -0.776 OA
DOCKED: ATOM     37  H   UNL d   1       2.494  34.535   0.685 +0.05 +0.06    +0.167 HD
DOCKED: ENDBRANCH  34  36
DOCKED: ENDBRANCH  33  34
DOCKED: ENDBRANCH  32  33
DOCKED: ENDBRANCH   6  32
DOCKED: BRANCH  22  38
DOCKED: ATOM     38  C   UNL d   1       4.258  35.194  -1.781 -0.20 +0.01    +0.052 C 
DOCKED: BRANCH  38  39
DOCKED: ATOM     39  C   UNL d   1       3.554  36.345  -1.066 -0.19 +0.07    +0.115 C 
DOCKED: BRANCH  39  40
DOCKED: ATOM     40  C   UNL d   1       2.052  36.216  -1.108 -0.13 +0.12    +0.139 C 
DOCKED: ATOM     41  O   UNL d   1       1.529  35.140  -0.869 -0.01 -0.35    -0.650 OA
DOCKED: BRANCH  40  42
DOCKED: ATOM     42  O   UNL d   1       1.269  37.284  -1.355 -0.33 -1.40    -0.776 OA
DOCKED: ATOM     43  H   UNL d   1       0.782  37.372  -2.183 +0.01 +0.20    +0.167 HD
DOCKED: ENDBRANCH  40  42
DOCKED: ENDBRANCH  39  40
DOCKED: ENDBRANCH  38  39
DOCKED: ENDBRANCH  22  38
DOCKED: BRANCH  12  44
DOCKED: ATOM     44  C   UNL d   1      15.191  33.761   0.897 -0.61 +0.00    +0.004 C 
DOCKED: ATOM     45  C   UNL d   1      16.046  34.783   0.864 -0.51 +0.00    +0.012 C 
DOCKED: ENDBRANCH  12  44
DOCKED: BRANCH  17  46
DOCKED: ATOM     46  C   UNL d   1      10.995  38.350  -4.428 -0.41 -0.00    +0.004 C 
DOCKED: ATOM     47  C   UNL d   1      10.458  38.166  -5.641 -0.43 -0.00    +0.012 C 
DOCKED: ENDBRANCH  17  46
DOCKED: TORSDOF 10
DOCKED: TER
DOCKED: ENDMDL
________________________________________________________________________________


	BEGINNING GENETIC ALGORITHM DOCKING 83 of 100
Run: 83 Seed: 434377718 1302960151 [ Run 83 of 100 GA/GALS ]
Beginning LAMARCKIAN GENETIC ALGORITHM (LGA), with a maximum of 25000000 energy evaluations.

Final-Value: -20.510


	FINAL GENETIC ALGORITHM DOCKED STATE
	_______________________________________________


Detailed state:  trans 41.543 29.113 16.371 quatxyzw 0.343803 -0.402883 -0.848224 -0.000484 center 8.287 34.468 -0.670 ntor 10 -123.9622 6.6684 -0.3768 -40.8757 -90.1387 155.8080 -42.6336 -13.2902 -129.0365 133.8231
State:	 41.543  29.113  16.371   0.344 -0.403 -0.848 -179.945   -123.96    6.67   -0.38  -40.88  -90.14  155.81  -42.63  -13.29 -129.04  133.82

DOCKED: MODEL       83
DOCKED: USER    Run = 83
DOCKED: USER    DPF = D:/Protein_go_brrr/autodock/final/2DN3/heme_O2/dock.dpf
DOCKED: USER  
DOCKED: USER    Estimated Free Energy of Binding    =  -15.39 kcal/mol  [=(1)+(2)+(3)-(4)]
DOCKED: USER    Estimated Inhibition Constant, Ki   =    5.21 pM (picomolar)  [Temperature = 298.15 K]
DOCKED: USER    
DOCKED: USER    (1) Final Intermolecular Energy     =  -18.38 kcal/mol
DOCKED: USER        vdW + Hbond + desolv Energy     =  -16.25 kcal/mol
DOCKED: USER        Electrostatic Energy            =   -2.12 kcal/mol
DOCKED: USER    (2) Final Total Internal Energy     =   -2.13 kcal/mol
DOCKED: USER    (3) Torsional Free Energy           =   +2.98 kcal/mol
DOCKED: USER    (4) Unbound System's Energy  [=(2)] =   -2.13 kcal/mol
DOCKED: USER    
DOCKED: USER    
DOCKED: USER    NEWDPF move heme_O2_opt.pdbqt
DOCKED: USER    NEWDPF about 8.287000 34.468000 -0.670000
DOCKED: USER    NEWDPF tran0 41.543038 29.112597 16.370811
DOCKED: USER    NEWDPF quaternion0 0.343803 -0.402883 -0.848224 -0.000484
DOCKED: USER    NEWDPF axisangle0 0.343803 -0.402883 -0.848225 -179.944566
DOCKED: USER    NEWDPF quat0 0.343803 -0.402883 -0.848225 -179.944566
DOCKED: USER    NEWDPF dihe0 -123.96 6.67 -0.38 -40.88 -90.14 155.81 -42.63 -13.29 -129.04 133.82 
DOCKED: USER  keepresnum = 1 
DOCKED: USER  
DOCKED: REMARK  10 active torsions:
DOCKED: REMARK  status: ('A' for Active; 'I' for Inactive)
DOCKED: REMARK    1  A    between atoms: C_6  and  C_10 
DOCKED: REMARK    2  A    between atoms: C_10  and  C_11 
DOCKED: REMARK    3  A    between atoms: C_11  and  C_12 
DOCKED: REMARK    4  A    between atoms: C_12  and  O_14 
DOCKED: REMARK    5  A    between atoms: C_17  and  C_20 
DOCKED: REMARK    6  A    between atoms: C_24  and  C_27 
DOCKED: REMARK    7  A    between atoms: C_31  and  C_34 
DOCKED: REMARK    8  A    between atoms: C_34  and  C_35 
DOCKED: REMARK    9  A    between atoms: C_35  and  C_36 
DOCKED: REMARK   10  A    between atoms: C_36  and  O_38 
DOCKED: USER                              x       y       z     vdW  Elec       q    Type
DOCKED: USER                           _______ _______ _______ _____ _____    ______ ____
DOCKED: ROOT
DOCKED: ATOM      1  C   UNL d   1      43.272  28.679  17.521 -0.24 +0.02    +0.064 A 
DOCKED: ATOM      2  C   UNL d   1      40.964  32.727  16.599 -0.43 +0.01    +0.064 A 
DOCKED: ATOM      3  C   UNL d   1      37.793  30.398  13.839 -0.40 +0.01    +0.064 C 
DOCKED: ATOM      4  C   UNL d   1      39.875  26.159  15.165 -0.38 +0.01    +0.064 A 
DOCKED: ATOM      5  C   UNL d   1      42.902  29.970  17.497 -0.31 +0.02    +0.066 A 
DOCKED: ATOM      6  C   UNL d   1      43.585  30.993  18.161 -0.33 -0.01    -0.021 A 
DOCKED: ATOM      7  C   UNL d   1      42.893  32.158  17.930 -0.40 -0.01    -0.025 A 
DOCKED: ATOM      8  C   UNL d   1      41.833  31.823  17.092 -0.39 +0.01    +0.066 A 
DOCKED: ATOM      9  C   UNL d   1      43.243  33.505  18.525 -0.44 +0.01    +0.051 C 
DOCKED: ATOM     10  C   UNL d   1      39.847  32.439  15.698 -0.40 +0.01    +0.066 A 
DOCKED: ATOM     11  C   UNL d   1      39.076  33.434  15.086 -0.43 -0.00    -0.021 A 
DOCKED: ATOM     12  C   UNL d   1      38.167  32.782  14.272 -0.41 +0.00    +0.000 A 
DOCKED: ATOM     13  C   UNL d   1      38.434  31.396  14.447 -0.36 +0.01    +0.070 A 
DOCKED: ATOM     14  C   UNL d   1      39.217  34.942  15.250 -0.56 +0.01    +0.052 C 
DOCKED: ATOM     15  C   UNL d   1      38.009  28.982  14.015 -0.36 +0.01    +0.066 A 
DOCKED: ATOM     16  C   UNL d   1      37.197  27.985  13.474 -0.43 -0.00    -0.021 A 
DOCKED: ATOM     17  C   UNL d   1      37.771  26.768  13.840 -0.45 +0.00    +0.000 A 
DOCKED: ATOM     18  C   UNL d   1      38.906  27.118  14.584 -0.36 +0.02    +0.070 A 
DOCKED: ATOM     19  C   UNL d   1      35.929  28.280  12.713 -0.62 +0.01    +0.052 C 
DOCKED: ATOM     20  C   UNL d   1      40.950  26.458  15.920 -0.38 +0.02    +0.066 A 
DOCKED: ATOM     21  C   UNL d   1      41.838  25.512  16.425 -0.36 -0.01    -0.025 A 
DOCKED: ATOM     22  C   UNL d   1      42.827  26.214  17.076 -0.31 -0.01    -0.021 A 
DOCKED: ATOM     23  C   UNL d   1      42.495  27.567  16.959 -0.31 +0.02    +0.066 A 
DOCKED: ATOM     24  C   UNL d   1      41.745  24.014  16.295 -0.51 +0.01    +0.051 C 
DOCKED: ATOM     25  N   UNL d   1      41.801  30.465  16.879 -0.24 -0.07    -0.248 N 
DOCKED: ATOM     26  N   UNL d   1      39.454  31.196  15.320 -0.20 -0.05    -0.248 N 
DOCKED: ATOM     27  N   UNL d   1      38.993  28.463  14.743 -0.12 -0.07    -0.248 N 
DOCKED: ATOM     28  N   UNL d   1      41.330  27.709  16.295 -0.25 -0.09    -0.248 N 
DOCKED: ATOM     29 FE   UNL d   1      40.397  29.438  15.810 -0.09 +0.00    +0.000 Fe
DOCKED: ATOM     30  O   UNL d   1      39.860  30.032  17.144 -0.69 +0.00    +0.000 OA
DOCKED: ATOM     31  O   UNL d   1      39.401  28.595  16.688 -0.85 +0.00    +0.000 OA
DOCKED: ENDROOT
DOCKED: BRANCH   6  32
DOCKED: ATOM     32  C   UNL d   1      44.765  30.863  19.090 -0.29 +0.02    +0.052 C 
DOCKED: BRANCH  32  33
DOCKED: ATOM     33  C   UNL d   1      44.598  29.737  20.105 -0.06 +0.09    +0.115 C 
DOCKED: BRANCH  33  34
DOCKED: ATOM     34  C   UNL d   1      45.845  28.900  20.246 -0.18 +0.14    +0.139 C 
DOCKED: ATOM     35  O   UNL d   1      46.410  28.836  21.326 -0.39 -1.24    -0.650 OA
DOCKED: BRANCH  34  36
DOCKED: ATOM     36  O   UNL d   1      46.370  28.238  19.194 +0.05 -0.47    -0.776 OA
DOCKED: ATOM     37  H   UNL d   1      46.518  27.285  19.212 +0.05 +0.10    +0.167 HD
DOCKED: ENDBRANCH  34  36
DOCKED: ENDBRANCH  33  34
DOCKED: ENDBRANCH  32  33
DOCKED: ENDBRANCH   6  32
DOCKED: BRANCH  22  38
DOCKED: ATOM     38  C   UNL d   1      43.988  25.609  17.821 -0.30 +0.02    +0.052 C 
DOCKED: BRANCH  38  39
DOCKED: ATOM     39  C   UNL d   1      44.062  26.086  19.270 -0.18 +0.06    +0.115 C 
DOCKED: BRANCH  39  40
DOCKED: ATOM     40  C   UNL d   1      44.987  25.240  20.109 -0.18 +0.08    +0.139 C 
DOCKED: ATOM     41  O   UNL d   1      44.768  24.046  20.236 -0.51 -0.42    -0.650 OA
DOCKED: BRANCH  40  42
DOCKED: ATOM     42  O   UNL d   1      46.084  25.769  20.684 +0.09 -0.55    -0.776 OA
DOCKED: ATOM     43  H   UNL d   1      46.242  26.721  20.690 +0.04 +0.15    +0.167 HD
DOCKED: ENDBRANCH  40  42
DOCKED: ENDBRANCH  39  40
DOCKED: ENDBRANCH  38  39
DOCKED: ENDBRANCH  22  38
DOCKED: BRANCH  12  44
DOCKED: ATOM     44  C   UNL d   1      37.157  33.535  13.432 -0.50 +0.00    +0.004 C 
DOCKED: ATOM     45  C   UNL d   1      36.294  33.037  12.548 -0.58 +0.00    +0.012 C 
DOCKED: ENDBRANCH  12  44
DOCKED: BRANCH  17  46
DOCKED: ATOM     46  C   UNL d   1      37.319  25.352  13.603 -0.63 +0.00    +0.004 C 
DOCKED: ATOM     47  C   UNL d   1      36.102  24.827  13.795 -0.68 +0.00    +0.012 C 
DOCKED: ENDBRANCH  17  46
DOCKED: TORSDOF 10
DOCKED: TER
DOCKED: ENDMDL
________________________________________________________________________________


	BEGINNING GENETIC ALGORITHM DOCKING 84 of 100
Run: 84 Seed: 1349790535 358821119 [ Run 84 of 100 GA/GALS ]
Beginning LAMARCKIAN GENETIC ALGORITHM (LGA), with a maximum of 25000000 energy evaluations.

Final-Value: -19.132


	FINAL GENETIC ALGORITHM DOCKED STATE
	_______________________________________________


Detailed state:  trans 41.406 29.143 16.312 quatxyzw 0.338211 -0.401147 -0.851262 -0.006868 center 8.287 34.468 -0.670 ntor 10 -111.8482 -97.0528 -8.1402 -49.6259 62.9819 -174.8981 -33.3452 -18.4559 -129.9705 -180.0000
State:	 41.406  29.143  16.312   0.338 -0.401 -0.851 -179.213   -111.85  -97.05   -8.14  -49.63   62.98 -174.90  -33.35  -18.46 -129.97 -180.00

DOCKED: MODEL       84
DOCKED: USER    Run = 84
DOCKED: USER    DPF = D:/Protein_go_brrr/autodock/final/2DN3/heme_O2/dock.dpf
DOCKED: USER  
DOCKED: USER    Estimated Free Energy of Binding    =  -15.68 kcal/mol  [=(1)+(2)+(3)-(4)]
DOCKED: USER    Estimated Inhibition Constant, Ki   =    3.23 pM (picomolar)  [Temperature = 298.15 K]
DOCKED: USER    
DOCKED: USER    (1) Final Intermolecular Energy     =  -18.66 kcal/mol
DOCKED: USER        vdW + Hbond + desolv Energy     =  -16.55 kcal/mol
DOCKED: USER        Electrostatic Energy            =   -2.11 kcal/mol
DOCKED: USER    (2) Final Total Internal Energy     =   -0.47 kcal/mol
DOCKED: USER    (3) Torsional Free Energy           =   +2.98 kcal/mol
DOCKED: USER    (4) Unbound System's Energy  [=(2)] =   -0.47 kcal/mol
DOCKED: USER    
DOCKED: USER    
DOCKED: USER    NEWDPF move heme_O2_opt.pdbqt
DOCKED: USER    NEWDPF about 8.287000 34.468000 -0.670000
DOCKED: USER    NEWDPF tran0 41.406167 29.142899 16.311658
DOCKED: USER    NEWDPF quaternion0 0.338211 -0.401147 -0.851262 -0.006868
DOCKED: USER    NEWDPF axisangle0 0.338219 -0.401156 -0.851282 -179.212972
DOCKED: USER    NEWDPF quat0 0.338219 -0.401156 -0.851282 -179.212972
DOCKED: USER    NEWDPF dihe0 -111.85 -97.05 -8.14 -49.63 62.98 -174.90 -33.35 -18.46 -129.97 -180.00 
DOCKED: USER  keepresnum = 1 
DOCKED: USER  
DOCKED: REMARK  10 active torsions:
DOCKED: REMARK  status: ('A' for Active; 'I' for Inactive)
DOCKED: REMARK    1  A    between atoms: C_6  and  C_10 
DOCKED: REMARK    2  A    between atoms: C_10  and  C_11 
DOCKED: REMARK    3  A    between atoms: C_11  and  C_12 
DOCKED: REMARK    4  A    between atoms: C_12  and  O_14 
DOCKED: REMARK    5  A    between atoms: C_17  and  C_20 
DOCKED: REMARK    6  A    between atoms: C_24  and  C_27 
DOCKED: REMARK    7  A    between atoms: C_31  and  C_34 
DOCKED: REMARK    8  A    between atoms: C_34  and  C_35 
DOCKED: REMARK    9  A    between atoms: C_35  and  C_36 
DOCKED: REMARK   10  A    between atoms: C_36  and  O_38 
DOCKED: USER                              x       y       z     vdW  Elec       q    Type
DOCKED: USER                           _______ _______ _______ _____ _____    ______ ____
DOCKED: ROOT
DOCKED: ATOM      1  C   UNL d   1      43.157  28.721  17.433 -0.28 +0.02    +0.064 A 
DOCKED: ATOM      2  C   UNL d   1      40.804  32.752  16.553 -0.42 +0.01    +0.064 A 
DOCKED: ATOM      3  C   UNL d   1      37.605  30.402  13.844 -0.39 +0.01    +0.064 C 
DOCKED: ATOM      4  C   UNL d   1      39.741  26.178  15.131 -0.37 +0.01    +0.064 A 
DOCKED: ATOM      5  C   UNL d   1      42.777  30.009  17.416 -0.32 +0.02    +0.066 A 
DOCKED: ATOM      6  C   UNL d   1      43.464  31.037  18.069 -0.34 -0.01    -0.021 A 
DOCKED: ATOM      7  C   UNL d   1      42.759  32.197  17.851 -0.40 -0.01    -0.025 A 
DOCKED: ATOM      8  C   UNL d   1      41.688  31.855  17.031 -0.40 +0.01    +0.066 A 
DOCKED: ATOM      9  C   UNL d   1      43.109  33.546  18.442 -0.44 +0.01    +0.051 C 
DOCKED: ATOM     10  C   UNL d   1      39.674  32.457  15.671 -0.39 +0.01    +0.066 A 
DOCKED: ATOM     11  C   UNL d   1      38.885  33.446  15.073 -0.43 -0.00    -0.021 A 
DOCKED: ATOM     12  C   UNL d   1      37.968  32.789  14.274 -0.40 +0.00    +0.000 A 
DOCKED: ATOM     13  C   UNL d   1      38.248  31.405  14.442 -0.36 +0.01    +0.070 A 
DOCKED: ATOM     14  C   UNL d   1      39.019  34.956  15.237 -0.56 +0.01    +0.052 C 
DOCKED: ATOM     15  C   UNL d   1      37.835  28.988  14.015 -0.36 +0.01    +0.066 A 
DOCKED: ATOM     16  C   UNL d   1      37.021  27.986  13.487 -0.43 -0.00    -0.021 A 
DOCKED: ATOM     17  C   UNL d   1      37.610  26.772  13.842 -0.45 +0.00    +0.000 A 
DOCKED: ATOM     18  C   UNL d   1      38.755  27.130  14.567 -0.36 +0.01    +0.070 A 
DOCKED: ATOM     19  C   UNL d   1      35.739  28.272  12.747 -0.62 +0.01    +0.052 C 
DOCKED: ATOM     20  C   UNL d   1      40.826  26.485  15.868 -0.38 +0.02    +0.066 A 
DOCKED: ATOM     21  C   UNL d   1      41.729  25.545  16.357 -0.37 -0.01    -0.025 A 
DOCKED: ATOM     22  C   UNL d   1      42.723  26.253  16.992 -0.32 -0.01    -0.021 A 
DOCKED: ATOM     23  C   UNL d   1      42.380  27.604  16.883 -0.33 +0.02    +0.066 A 
DOCKED: ATOM     24  C   UNL d   1      41.645  24.046  16.227 -0.52 +0.01    +0.051 C 
DOCKED: ATOM     25  N   UNL d   1      41.663  30.496  16.817 -0.21 -0.07    -0.248 N 
DOCKED: ATOM     26  N   UNL d   1      39.284  31.212  15.298 -0.22 -0.05    -0.248 N 
DOCKED: ATOM     27  N   UNL d   1      38.835  28.476  14.726 -0.16 -0.07    -0.248 N 
DOCKED: ATOM     28  N   UNL d   1      41.202  27.738  16.238 -0.24 -0.09    -0.248 N 
DOCKED: ATOM     29 FE   UNL d   1      40.248  29.460  15.770 -0.08 +0.00    +0.000 Fe
DOCKED: ATOM     30  O   UNL d   1      39.729  30.049  17.114 -0.65 +0.00    +0.000 OA
DOCKED: ATOM     31  O   UNL d   1      39.274  28.609  16.664 -0.77 +0.00    +0.000 OA
DOCKED: ENDROOT
DOCKED: BRANCH   6  32
DOCKED: ATOM     32  C   UNL d   1      44.660  30.915  18.978 -0.30 +0.02    +0.052 C 
DOCKED: BRANCH  32  33
DOCKED: ATOM     33  C   UNL d   1      44.508  29.802  20.010 -0.05 +0.08    +0.115 C 
DOCKED: BRANCH  33  34
DOCKED: ATOM     34  C   UNL d   1      45.815  29.106  20.301 -0.17 +0.14    +0.139 C 
DOCKED: ATOM     35  O   UNL d   1      46.160  28.157  19.616 +0.01 -0.46    -0.650 OA
DOCKED: BRANCH  34  36
DOCKED: ATOM     36  O   UNL d   1      46.604  29.493  21.325 -0.43 -1.33    -0.776 OA
DOCKED: ATOM     37  H   UNL d   1      47.462  29.909  21.180 +0.02 +0.18    +0.167 HD
DOCKED: ENDBRANCH  34  36
DOCKED: ENDBRANCH  33  34
DOCKED: ENDBRANCH  32  33
DOCKED: ENDBRANCH   6  32
DOCKED: BRANCH  22  38
DOCKED: ATOM     38  C   UNL d   1      43.901  25.656  17.717 -0.30 +0.02    +0.052 C 
DOCKED: BRANCH  38  39
DOCKED: ATOM     39  C   UNL d   1      43.527  25.131  19.102 -0.32 +0.05    +0.115 C 
DOCKED: BRANCH  39  40
DOCKED: ATOM     40  C   UNL d   1      44.531  24.138  19.632 -0.11 +0.08    +0.139 C 
DOCKED: ATOM     41  O   UNL d   1      45.152  23.431  18.856 -0.06 -0.40    -0.650 OA
DOCKED: BRANCH  40  42
DOCKED: ATOM     42  O   UNL d   1      44.793  24.051  20.951 -0.47 -0.51    -0.776 OA
DOCKED: ATOM     43  H   UNL d   1      45.527  24.531  21.352 +0.05 +0.10    +0.167 HD
DOCKED: ENDBRANCH  40  42
DOCKED: ENDBRANCH  39  40
DOCKED: ENDBRANCH  38  39
DOCKED: ENDBRANCH  22  38
DOCKED: BRANCH  12  44
DOCKED: ATOM     44  C   UNL d   1      36.939  33.535  13.451 -0.51 +0.00    +0.004 C 
DOCKED: ATOM     45  C   UNL d   1      36.162  33.055  12.481 -0.60 +0.00    +0.012 C 
DOCKED: ENDBRANCH  12  44
DOCKED: BRANCH  17  46
DOCKED: ATOM     46  C   UNL d   1      37.165  25.353  13.611 -0.63 +0.00    +0.004 C 
DOCKED: ATOM     47  C   UNL d   1      36.009  24.778  13.968 -0.69 +0.00    +0.012 C 
DOCKED: ENDBRANCH  17  46
DOCKED: TORSDOF 10
DOCKED: TER
DOCKED: ENDMDL
________________________________________________________________________________


	BEGINNING GENETIC ALGORITHM DOCKING 85 of 100
Run: 85 Seed: 1454360789 1239985601 [ Run 85 of 100 GA/GALS ]
Beginning LAMARCKIAN GENETIC ALGORITHM (LGA), with a maximum of 25000000 energy evaluations.

Final-Value: -11.519


	FINAL GENETIC ALGORITHM DOCKED STATE
	_______________________________________________


Detailed state:  trans 23.784 17.255 14.768 quatxyzw 0.689280 -0.134501 -0.694629 0.155864 center 8.287 34.468 -0.670 ntor 10 73.4400 -14.4547 -114.2498 -101.7084 -143.5322 159.0580 180.0000 -87.8206 180.0000 -19.6636
State:	 23.784  17.255  14.768   0.698 -0.136 -0.703 162.066     73.44  -14.45 -114.25 -101.71 -143.53  159.06  180.00  -87.82  180.00  -19.66

DOCKED: MODEL       85
DOCKED: USER    Run = 85
DOCKED: USER    DPF = D:/Protein_go_brrr/autodock/final/2DN3/heme_O2/dock.dpf
DOCKED: USER  
DOCKED: USER    Estimated Free Energy of Binding    =   -7.96 kcal/mol  [=(1)+(2)+(3)-(4)]
DOCKED: USER    Estimated Inhibition Constant, Ki   =    1.45 uM (micromolar)  [Temperature = 298.15 K]
DOCKED: USER    
DOCKED: USER    (1) Final Intermolecular Energy     =  -10.95 kcal/mol
DOCKED: USER        vdW + Hbond + desolv Energy     =   -8.24 kcal/mol
DOCKED: USER        Electrostatic Energy            =   -2.71 kcal/mol
DOCKED: USER    (2) Final Total Internal Energy     =   -0.57 kcal/mol
DOCKED: USER    (3) Torsional Free Energy           =   +2.98 kcal/mol
DOCKED: USER    (4) Unbound System's Energy  [=(2)] =   -0.57 kcal/mol
DOCKED: USER    
DOCKED: USER    
DOCKED: USER    NEWDPF move heme_O2_opt.pdbqt
DOCKED: USER    NEWDPF about 8.287000 34.468000 -0.670000
DOCKED: USER    NEWDPF tran0 23.783799 17.254593 14.768016
DOCKED: USER    NEWDPF quaternion0 0.689280 -0.134501 -0.694629 0.155864
DOCKED: USER    NEWDPF axisangle0 0.697808 -0.136165 -0.703223 162.066147
DOCKED: USER    NEWDPF quat0 0.697808 -0.136165 -0.703223 162.066147
DOCKED: USER    NEWDPF dihe0 73.44 -14.45 -114.25 -101.71 -143.53 159.06 180.00 -87.82 180.00 -19.66 
DOCKED: USER  keepresnum = 1 
DOCKED: USER  
DOCKED: REMARK  10 active torsions:
DOCKED: REMARK  status: ('A' for Active; 'I' for Inactive)
DOCKED: REMARK    1  A    between atoms: C_6  and  C_10 
DOCKED: REMARK    2  A    between atoms: C_10  and  C_11 
DOCKED: REMARK    3  A    between atoms: C_11  and  C_12 
DOCKED: REMARK    4  A    between atoms: C_12  and  O_14 
DOCKED: REMARK    5  A    between atoms: C_17  and  C_20 
DOCKED: REMARK    6  A    between atoms: C_24  and  C_27 
DOCKED: REMARK    7  A    between atoms: C_31  and  C_34 
DOCKED: REMARK    8  A    between atoms: C_34  and  C_35 
DOCKED: REMARK    9  A    between atoms: C_35  and  C_36 
DOCKED: REMARK   10  A    between atoms: C_36  and  O_38 
DOCKED: USER                              x       y       z     vdW  Elec       q    Type
DOCKED: USER                           _______ _______ _______ _____ _____    ______ ____
DOCKED: ROOT
DOCKED: ATOM      1  C   UNL d   1      24.277  16.324  16.609 -0.08 +0.03    +0.064 A 
DOCKED: ATOM      2  C   UNL d   1      21.977  20.346  15.562 -0.31 +0.01    +0.064 A 
DOCKED: ATOM      3  C   UNL d   1      22.618  19.595  10.858 -0.16 +0.01    +0.064 C 
DOCKED: ATOM      4  C   UNL d   1      24.566  15.217  11.905 -0.05 +0.01    +0.064 A 
DOCKED: ATOM      5  C   UNL d   1      23.597  17.478  16.708 -0.09 +0.03    +0.066 A 
DOCKED: ATOM      6  C   UNL d   1      23.229  18.068  17.921 -0.20 -0.01    -0.021 A 
DOCKED: ATOM      7  C   UNL d   1      22.525  19.210  17.618 -0.29 -0.00    -0.025 A 
DOCKED: ATOM      8  C   UNL d   1      22.525  19.312  16.229 -0.28 +0.02    +0.066 A 
DOCKED: ATOM      9  C   UNL d   1      21.872  20.120  18.635 -0.38 -0.01    +0.051 C 
DOCKED: ATOM     10  C   UNL d   1      21.966  20.519  14.108 -0.34 +0.01    +0.066 A 
DOCKED: ATOM     11  C   UNL d   1      21.529  21.688  13.476 -0.45 -0.00    -0.021 A 
DOCKED: ATOM     12  C   UNL d   1      21.723  21.498  12.120 -0.39 +0.00    +0.000 A 
DOCKED: ATOM     13  C   UNL d   1      22.267  20.190  11.999 -0.23 +0.01    +0.070 A 
DOCKED: ATOM     14  C   UNL d   1      20.976  22.944  14.139 -0.37 -0.00    +0.052 C 
DOCKED: ATOM     15  C   UNL d   1      23.139  18.260  10.690 -0.11 +0.02    +0.066 A 
DOCKED: ATOM     16  C   UNL d   1      23.332  17.636   9.458 -0.07 -0.00    -0.021 A 
DOCKED: ATOM     17  C   UNL d   1      23.886  16.386   9.731 -0.06 +0.00    +0.000 A 
DOCKED: ATOM     18  C   UNL d   1      23.993  16.341  11.129 -0.08 +0.02    +0.070 A 
DOCKED: ATOM     19  C   UNL d   1      22.923  18.260   8.147 -0.04 +0.01    +0.052 C 
DOCKED: ATOM     20  C   UNL d   1      24.644  15.123  13.247 -0.07 +0.02    +0.066 A 
DOCKED: ATOM     21  C   UNL d   1      25.211  14.045  13.922 -0.04 -0.01    -0.025 A 
DOCKED: ATOM     22  C   UNL d   1      25.162  14.356  15.262 -0.06 -0.01    -0.021 A 
DOCKED: ATOM     23  C   UNL d   1      24.548  15.608  15.357 -0.07 +0.02    +0.066 A 
DOCKED: ATOM     24  C   UNL d   1      25.769  12.782  13.319 -0.02 +0.01    +0.051 C 
DOCKED: ATOM     25  N   UNL d   1      23.129  18.211  15.668 -0.10 -0.10    -0.248 N 
DOCKED: ATOM     26  N   UNL d   1      22.407  19.599  13.213 -0.17 -0.07    -0.248 N 
DOCKED: ATOM     27  N   UNL d   1      23.466  17.455  11.697 -0.07 -0.06    -0.248 N 
DOCKED: ATOM     28  N   UNL d   1      24.194  16.050  14.133 -0.06 -0.08    -0.248 N 
DOCKED: ATOM     29 FE   UNL d   1      23.307  17.811  13.673 -0.05 +0.00    +0.000 Fe
DOCKED: ATOM     30  O   UNL d   1      21.848  17.715  14.205 -0.29 +0.00    +0.000 OA
DOCKED: ATOM     31  O   UNL d   1      22.368  16.661  13.156 -0.21 +0.00    +0.000 OA
DOCKED: ENDROOT
DOCKED: BRANCH   6  32
DOCKED: ATOM     32  C   UNL d   1      23.409  17.513  19.310 -0.12 +0.01    +0.052 C 
DOCKED: BRANCH  32  33
DOCKED: ATOM     33  C   UNL d   1      22.164  16.800  19.829 -0.06 +0.02    +0.115 C 
DOCKED: BRANCH  33  34
DOCKED: ATOM     34  C   UNL d   1      21.016  16.861  18.851 -0.10 +0.08    +0.139 C 
DOCKED: ATOM     35  O   UNL d   1      21.110  16.292  17.775 -0.49 -0.64    -0.650 OA
DOCKED: BRANCH  34  36
DOCKED: ATOM     36  O   UNL d   1      19.894  17.557  19.126 -0.07 -0.24    -0.776 OA
DOCKED: ATOM     37  H   UNL d   1      19.871  18.520  19.104 -0.36 -0.12    +0.167 HD
DOCKED: ENDBRANCH  34  36
DOCKED: ENDBRANCH  33  34
DOCKED: ENDBRANCH  32  33
DOCKED: ENDBRANCH   6  32
DOCKED: BRANCH  22  38
DOCKED: ATOM     38  C   UNL d   1      25.623  13.466  16.388 -0.03 +0.02    +0.052 C 
DOCKED: BRANCH  38  39
DOCKED: ATOM     39  C   UNL d   1      27.130  13.550  16.617 -0.06 +0.05    +0.115 C 
DOCKED: BRANCH  39  40
DOCKED: ATOM     40  C   UNL d   1      27.501  14.608  17.626 -0.03 +0.15    +0.139 C 
DOCKED: ATOM     41  O   UNL d   1      27.148  15.763  17.452 -0.44 -0.89    -0.650 OA
DOCKED: BRANCH  40  42
DOCKED: ATOM     42  O   UNL d   1      28.175  14.292  18.749 -0.30 -1.18    -0.776 OA
DOCKED: ATOM     43  H   UNL d   1      28.295  13.375  19.025 +0.01 +0.13    +0.167 HD
DOCKED: ENDBRANCH  40  42
DOCKED: ENDBRANCH  39  40
DOCKED: ENDBRANCH  38  39
DOCKED: ENDBRANCH  22  38
DOCKED: BRANCH  12  44
DOCKED: ATOM     44  C   UNL d   1      21.372  22.562  11.101 -0.46 +0.00    +0.004 C 
DOCKED: ATOM     45  C   UNL d   1      21.876  23.790  10.993 -0.50 +0.00    +0.012 C 
DOCKED: ENDBRANCH  12  44
DOCKED: BRANCH  17  46
DOCKED: ATOM     46  C   UNL d   1      24.255  15.248   8.818 -0.03 +0.00    +0.004 C 
DOCKED: ATOM     47  C   UNL d   1      23.646  14.063   8.683 -0.03 +0.00    +0.012 C 
DOCKED: ENDBRANCH  17  46
DOCKED: TORSDOF 10
DOCKED: TER
DOCKED: ENDMDL
________________________________________________________________________________


	BEGINNING GENETIC ALGORITHM DOCKING 86 of 100
Run: 86 Seed: 753350777 1486032122 [ Run 86 of 100 GA/GALS ]
Beginning LAMARCKIAN GENETIC ALGORITHM (LGA), with a maximum of 25000000 energy evaluations.

Final-Value: -10.340


	FINAL GENETIC ALGORITHM DOCKED STATE
	_______________________________________________


Detailed state:  trans 27.245 43.879 -0.881 quatxyzw -0.129246 -0.868063 0.227836 0.421726 center 8.287 34.468 -0.670 ntor 10 173.5376 176.6996 -63.8690 117.9164 172.7113 -131.3978 62.2979 -128.1056 175.6862 -45.1956
State:	 27.245  43.879  -0.881  -0.143 -0.957  0.251 130.113    173.54  176.70  -63.87  117.92  172.71 -131.40   62.30 -128.11  175.69  -45.20

DOCKED: MODEL       86
DOCKED: USER    Run = 86
DOCKED: USER    DPF = D:/Protein_go_brrr/autodock/final/2DN3/heme_O2/dock.dpf
DOCKED: USER  
DOCKED: USER    Estimated Free Energy of Binding    =   -6.74 kcal/mol  [=(1)+(2)+(3)-(4)]
DOCKED: USER    Estimated Inhibition Constant, Ki   =   11.56 uM (micromolar)  [Temperature = 298.15 K]
DOCKED: USER    
DOCKED: USER    (1) Final Intermolecular Energy     =   -9.72 kcal/mol
DOCKED: USER        vdW + Hbond + desolv Energy     =   -7.47 kcal/mol
DOCKED: USER        Electrostatic Energy            =   -2.24 kcal/mol
DOCKED: USER    (2) Final Total Internal Energy     =   -0.62 kcal/mol
DOCKED: USER    (3) Torsional Free Energy           =   +2.98 kcal/mol
DOCKED: USER    (4) Unbound System's Energy  [=(2)] =   -0.62 kcal/mol
DOCKED: USER    
DOCKED: USER    
DOCKED: USER    NEWDPF move heme_O2_opt.pdbqt
DOCKED: USER    NEWDPF about 8.287000 34.468000 -0.670000
DOCKED: USER    NEWDPF tran0 27.244557 43.878975 -0.880602
DOCKED: USER    NEWDPF quaternion0 -0.129246 -0.868063 0.227836 0.421726
DOCKED: USER    NEWDPF axisangle0 -0.142542 -0.957362 0.251275 130.112727
DOCKED: USER    NEWDPF quat0 -0.142542 -0.957362 0.251275 130.112727
DOCKED: USER    NEWDPF dihe0 173.54 176.70 -63.87 117.92 172.71 -131.40 62.30 -128.11 175.69 -45.20 
DOCKED: USER  keepresnum = 1 
DOCKED: USER  
DOCKED: REMARK  10 active torsions:
DOCKED: REMARK  status: ('A' for Active; 'I' for Inactive)
DOCKED: REMARK    1  A    between atoms: C_6  and  C_10 
DOCKED: REMARK    2  A    between atoms: C_10  and  C_11 
DOCKED: REMARK    3  A    between atoms: C_11  and  C_12 
DOCKED: REMARK    4  A    between atoms: C_12  and  O_14 
DOCKED: REMARK    5  A    between atoms: C_17  and  C_20 
DOCKED: REMARK    6  A    between atoms: C_24  and  C_27 
DOCKED: REMARK    7  A    between atoms: C_31  and  C_34 
DOCKED: REMARK    8  A    between atoms: C_34  and  C_35 
DOCKED: REMARK    9  A    between atoms: C_35  and  C_36 
DOCKED: REMARK   10  A    between atoms: C_36  and  O_38 
DOCKED: USER                              x       y       z     vdW  Elec       q    Type
DOCKED: USER                           _______ _______ _______ _____ _____    ______ ____
DOCKED: ROOT
DOCKED: ATOM      1  C   UNL d   1      28.099  44.742   0.859 -0.09 +0.04    +0.064 A 
DOCKED: ATOM      2  C   UNL d   1      28.741  40.556  -1.293 -0.12 +0.01    +0.064 A 
DOCKED: ATOM      3  C   UNL d   1      25.477  41.671  -4.639 -0.15 +0.01    +0.064 C 
DOCKED: ATOM      4  C   UNL d   1      25.156  46.170  -2.710 -0.14 +0.01    +0.064 A 
DOCKED: ATOM      5  C   UNL d   1      28.541  43.513   0.545 -0.15 +0.03    +0.066 A 
DOCKED: ATOM      6  C   UNL d   1      29.491  42.809   1.292 -0.16 -0.01    -0.021 A 
DOCKED: ATOM      7  C   UNL d   1      29.709  41.615   0.646 -0.10 -0.01    -0.025 A 
DOCKED: ATOM      8  C   UNL d   1      28.852  41.602  -0.451 -0.11 +0.02    +0.066 A 
DOCKED: ATOM      9  C   UNL d   1      30.721  40.573   1.071 -0.09 +0.01    +0.051 C 
DOCKED: ATOM     10  C   UNL d   1      27.844  40.476  -2.446 -0.10 +0.01    +0.066 A 
DOCKED: ATOM     11  C   UNL d   1      27.649  39.306  -3.190 -0.18 -0.00    -0.021 A 
DOCKED: ATOM     12  C   UNL d   1      26.698  39.602  -4.148 -0.22 +0.00    +0.000 A 
DOCKED: ATOM     13  C   UNL d   1      26.368  40.970  -3.938 -0.06 +0.01    +0.070 A 
DOCKED: ATOM     14  C   UNL d   1      28.323  37.955  -2.977 -0.13 +0.01    +0.052 C 
DOCKED: ATOM     15  C   UNL d   1      25.139  43.066  -4.481 -0.21 +0.01    +0.066 A 
DOCKED: ATOM     16  C   UNL d   1      24.320  43.784  -5.351 -0.20 -0.00    -0.021 A 
DOCKED: ATOM     17  C   UNL d   1      24.215  45.070  -4.822 -0.19 +0.00    +0.000 A 
DOCKED: ATOM     18  C   UNL d   1      24.986  45.039  -3.652 -0.21 +0.01    +0.070 A 
DOCKED: ATOM     19  C   UNL d   1      23.762  43.202  -6.625 -0.17 +0.01    +0.052 C 
DOCKED: ATOM     20  C   UNL d   1      25.922  46.188  -1.602 -0.08 +0.02    +0.066 A 
DOCKED: ATOM     21  C   UNL d   1      26.028  47.278  -0.744 -0.11 -0.01    -0.025 A 
DOCKED: ATOM     22  C   UNL d   1      26.842  46.880   0.293 -0.14 -0.01    -0.021 A 
DOCKED: ATOM     23  C   UNL d   1      27.218  45.562   0.019 -0.15 +0.03    +0.066 A 
DOCKED: ATOM     24  C   UNL d   1      25.389  48.633  -0.906 -0.08 +0.01    +0.051 C 
DOCKED: ATOM     25  N   UNL d   1      28.181  42.799  -0.549 -0.09 -0.08    -0.248 N 
DOCKED: ATOM     26  N   UNL d   1      27.073  41.495  -2.904 -0.11 -0.05    -0.248 N 
DOCKED: ATOM     27  N   UNL d   1      25.600  43.837  -3.501 -0.17 -0.05    -0.248 N 
DOCKED: ATOM     28  N   UNL d   1      26.693  45.160  -1.157 -0.10 -0.08    -0.248 N 
DOCKED: ATOM     29 FE   UNL d   1      26.880  43.342  -2.027 -0.04 +0.00    +0.000 Fe
DOCKED: ATOM     30  O   UNL d   1      28.359  43.236  -2.499 -0.09 +0.00    +0.000 OA
DOCKED: ATOM     31  O   UNL d   1      27.451  44.407  -3.033 -0.10 +0.00    +0.000 OA
DOCKED: ENDROOT
DOCKED: BRANCH   6  32
DOCKED: ATOM     32  C   UNL d   1      30.266  43.292   2.490 -0.22 +0.03    +0.052 C 
DOCKED: BRANCH  32  33
DOCKED: ATOM     33  C   UNL d   1      31.687  43.725   2.140 -0.24 +0.12    +0.115 C 
DOCKED: BRANCH  33  34
DOCKED: ATOM     34  C   UNL d   1      32.730  42.921   2.876 -0.30 +0.13    +0.139 C 
DOCKED: ATOM     35  O   UNL d   1      32.443  41.820   3.318 -0.04 -0.25    -0.650 OA
DOCKED: BRANCH  34  36
DOCKED: ATOM     36  O   UNL d   1      33.973  43.404   3.083 -0.51 -1.24    -0.776 OA
DOCKED: ATOM     37  H   UNL d   1      34.619  42.937   3.626 -0.31 +0.10    +0.167 HD
DOCKED: ENDBRANCH  34  36
DOCKED: ENDBRANCH  33  34
DOCKED: ENDBRANCH  32  33
DOCKED: ENDBRANCH   6  32
DOCKED: BRANCH  22  38
DOCKED: ATOM     38  C   UNL d   1      27.281  47.744   1.447 -0.11 +0.03    +0.052 C 
DOCKED: BRANCH  38  39
DOCKED: ATOM     39  C   UNL d   1      26.100  48.331   2.217 -0.14 +0.05    +0.115 C 
DOCKED: BRANCH  39  40
DOCKED: ATOM     40  C   UNL d   1      25.089  47.282   2.610 -0.19 +0.11    +0.139 C 
DOCKED: ATOM     41  O   UNL d   1      25.379  46.099   2.523 -0.22 -1.03    -0.650 OA
DOCKED: BRANCH  40  42
DOCKED: ATOM     42  O   UNL d   1      23.885  47.627   3.105 +0.04 -0.27    -0.776 OA
DOCKED: ATOM     43  H   UNL d   1      23.231  46.961   3.350 -0.44 -0.00    +0.167 HD
DOCKED: ENDBRANCH  40  42
DOCKED: ENDBRANCH  39  40
DOCKED: ENDBRANCH  38  39
DOCKED: ENDBRANCH  22  38
DOCKED: BRANCH  12  44
DOCKED: ATOM     44  C   UNL d   1      26.215  38.572  -5.147 -0.21 +0.00    +0.004 C 
DOCKED: ATOM     45  C   UNL d   1      25.009  38.011  -5.227 -0.25 +0.00    +0.012 C 
DOCKED: ENDBRANCH  12  44
DOCKED: BRANCH  17  46
DOCKED: ATOM     46  C   UNL d   1      23.518  46.299  -5.342 -0.12 +0.00    +0.004 C 
DOCKED: ATOM     47  C   UNL d   1      22.433  46.909  -4.847 -0.17 +0.00    +0.012 C 
DOCKED: ENDBRANCH  17  46
DOCKED: TORSDOF 10
DOCKED: TER
DOCKED: ENDMDL
________________________________________________________________________________


	BEGINNING GENETIC ALGORITHM DOCKING 87 of 100
Run: 87 Seed: 1750295328 728633209 [ Run 87 of 100 GA/GALS ]
Beginning LAMARCKIAN GENETIC ALGORITHM (LGA), with a maximum of 25000000 energy evaluations.

Final-Value: -18.983


	FINAL GENETIC ALGORITHM DOCKED STATE
	_______________________________________________


Detailed state:  trans 8.691 35.107 -1.031 quatxyzw 0.035797 0.054848 0.011041 0.997792 center 8.287 34.468 -0.670 ntor 10 58.3320 -151.6221 -20.4615 -57.8566 -111.9909 57.5045 -11.0541 -68.5181 176.9930 41.4127
State:	  8.691  35.107  -1.031   0.539  0.826  0.166  7.617     58.33 -151.62  -20.46  -57.86 -111.99   57.50  -11.05  -68.52  176.99   41.41

DOCKED: MODEL       87
DOCKED: USER    Run = 87
DOCKED: USER    DPF = D:/Protein_go_brrr/autodock/final/2DN3/heme_O2/dock.dpf
DOCKED: USER  
DOCKED: USER    Estimated Free Energy of Binding    =  -13.91 kcal/mol  [=(1)+(2)+(3)-(4)]
DOCKED: USER    Estimated Inhibition Constant, Ki   =   63.29 pM (picomolar)  [Temperature = 298.15 K]
DOCKED: USER    
DOCKED: USER    (1) Final Intermolecular Energy     =  -16.90 kcal/mol
DOCKED: USER        vdW + Hbond + desolv Energy     =  -15.24 kcal/mol
DOCKED: USER        Electrostatic Energy            =   -1.65 kcal/mol
DOCKED: USER    (2) Final Total Internal Energy     =   -2.09 kcal/mol
DOCKED: USER    (3) Torsional Free Energy           =   +2.98 kcal/mol
DOCKED: USER    (4) Unbound System's Energy  [=(2)] =   -2.09 kcal/mol
DOCKED: USER    
DOCKED: USER    
DOCKED: USER    NEWDPF move heme_O2_opt.pdbqt
DOCKED: USER    NEWDPF about 8.287000 34.468000 -0.670000
DOCKED: USER    NEWDPF tran0 8.691272 35.107106 -1.030727
DOCKED: USER    NEWDPF quaternion0 0.035797 0.054848 0.011041 0.997792
DOCKED: USER    NEWDPF axisangle0 0.538945 0.825777 0.166223 7.616743
DOCKED: USER    NEWDPF quat0 0.538945 0.825777 0.166223 7.616743
DOCKED: USER    NEWDPF dihe0 58.33 -151.62 -20.46 -57.86 -111.99 57.50 -11.05 -68.52 176.99 41.41 
DOCKED: USER  keepresnum = 1 
DOCKED: USER  
DOCKED: REMARK  10 active torsions:
DOCKED: REMARK  status: ('A' for Active; 'I' for Inactive)
DOCKED: REMARK    1  A    between atoms: C_6  and  C_10 
DOCKED: REMARK    2  A    between atoms: C_10  and  C_11 
DOCKED: REMARK    3  A    between atoms: C_11  and  C_12 
DOCKED: REMARK    4  A    between atoms: C_12  and  O_14 
DOCKED: REMARK    5  A    between atoms: C_17  and  C_20 
DOCKED: REMARK    6  A    between atoms: C_24  and  C_27 
DOCKED: REMARK    7  A    between atoms: C_31  and  C_34 
DOCKED: REMARK    8  A    between atoms: C_34  and  C_35 
DOCKED: REMARK    9  A    between atoms: C_35  and  C_36 
DOCKED: REMARK   10  A    between atoms: C_36  and  O_38 
DOCKED: USER                              x       y       z     vdW  Elec       q    Type
DOCKED: USER                           _______ _______ _______ _____ _____    ______ ____
DOCKED: ROOT
DOCKED: ATOM      1  C   UNL d   1       6.936  35.683  -2.072 -0.27 +0.01    +0.064 A 
DOCKED: ATOM      2  C   UNL d   1       7.630  33.212   1.924 -0.40 +0.01    +0.064 A 
DOCKED: ATOM      3  C   UNL d   1      12.395  33.617   1.456 -0.40 +0.00    +0.064 C 
DOCKED: ATOM      4  C   UNL d   1      11.684  36.569  -2.397 -0.39 +0.00    +0.064 A 
DOCKED: ATOM      5  C   UNL d   1       6.735  34.979  -0.946 -0.30 +0.01    +0.066 A 
DOCKED: ATOM      6  C   UNL d   1       5.475  34.619  -0.462 -0.29 -0.00    -0.021 A 
DOCKED: ATOM      7  C   UNL d   1       5.672  33.941   0.718 -0.33 -0.00    -0.025 A 
DOCKED: ATOM      8  C   UNL d   1       7.051  33.864   0.897 -0.35 +0.01    +0.066 A 
DOCKED: ATOM      9  C   UNL d   1       4.569  33.433   1.620 -0.36 +0.01    +0.051 C 
DOCKED: ATOM     10  C   UNL d   1       9.069  33.077   2.152 -0.36 +0.01    +0.066 A 
DOCKED: ATOM     11  C   UNL d   1       9.617  32.253   3.141 -0.45 -0.00    -0.021 A 
DOCKED: ATOM     12  C   UNL d   1      10.991  32.342   3.011 -0.43 +0.00    +0.000 A 
DOCKED: ATOM     13  C   UNL d   1      11.208  33.246   1.933 -0.36 +0.00    +0.070 A 
DOCKED: ATOM     14  C   UNL d   1       8.863  31.395   4.150 -0.58 +0.00    +0.052 C 
DOCKED: ATOM     15  C   UNL d   1      12.657  34.555   0.392 -0.34 +0.01    +0.066 A 
DOCKED: ATOM     16  C   UNL d   1      13.924  35.028   0.048 -0.41 -0.00    -0.021 A 
DOCKED: ATOM     17  C   UNL d   1      13.746  35.872  -1.048 -0.43 +0.00    +0.000 A 
DOCKED: ATOM     18  C   UNL d   1      12.366  35.849  -1.296 -0.36 +0.01    +0.070 A 
DOCKED: ATOM     19  C   UNL d   1      15.170  34.679   0.822 -0.58 +0.00    +0.052 C 
DOCKED: ATOM     20  C   UNL d   1      10.359  36.603  -2.637 -0.38 +0.01    +0.066 A 
DOCKED: ATOM     21  C   UNL d   1       9.776  37.284  -3.702 -0.37 -0.00    -0.025 A 
DOCKED: ATOM     22  C   UNL d   1       8.426  37.021  -3.641 -0.32 -0.00    -0.021 A 
DOCKED: ATOM     23  C   UNL d   1       8.232  36.200  -2.526 -0.33 +0.01    +0.066 A 
DOCKED: ATOM     24  C   UNL d   1      10.472  38.146  -4.724 -0.50 -0.00    +0.051 C 
DOCKED: ATOM     25  N   UNL d   1       7.703  34.560  -0.094 -0.22 -0.05    -0.248 N 
DOCKED: ATOM     26  N   UNL d   1      10.033  33.691   1.420 -0.22 -0.03    -0.248 N 
DOCKED: ATOM     27  N   UNL d   1      11.713  35.105  -0.367 -0.18 -0.04    -0.248 N 
DOCKED: ATOM     28  N   UNL d   1       9.404  35.986  -1.893 -0.25 -0.04    -0.248 N 
DOCKED: ATOM     29 FE   UNL d   1       9.719  34.848  -0.249 -0.07 +0.00    +0.000 Fe
DOCKED: ATOM     30  O   UNL d   1       9.064  35.610   0.940 -0.63 +0.00    +0.000 OA
DOCKED: ATOM     31  O   UNL d   1      10.193  36.308   0.091 -0.67 +0.00    +0.000 OA
DOCKED: ENDROOT
DOCKED: BRANCH   6  32
DOCKED: ATOM     32  C   UNL d   1       4.128  35.014  -1.011 -0.23 +0.02    +0.052 C 
DOCKED: BRANCH  32  33
DOCKED: ATOM     33  C   UNL d   1       3.495  36.175  -0.249 -0.15 +0.07    +0.115 C 
DOCKED: BRANCH  33  34
DOCKED: ATOM     34  C   UNL d   1       2.319  36.770  -0.983 -0.04 +0.15    +0.139 C 
DOCKED: ATOM     35  O   UNL d   1       1.186  36.422  -0.690 -0.32 -0.85    -0.650 OA
DOCKED: BRANCH  34  36
DOCKED: ATOM     36  O   UNL d   1       2.490  37.663  -1.979 -0.05 -0.82    -0.776 OA
DOCKED: ATOM     37  H   UNL d   1       3.002  37.455  -2.769 +0.03 +0.10    +0.167 HD
DOCKED: ENDBRANCH  34  36
DOCKED: ENDBRANCH  33  34
DOCKED: ENDBRANCH  32  33
DOCKED: ENDBRANCH   6  32
DOCKED: BRANCH  22  38
DOCKED: ATOM     38  C   UNL d   1       7.379  37.583  -4.568 -0.26 +0.00    +0.052 C 
DOCKED: BRANCH  38  39
DOCKED: ATOM     39  C   UNL d   1       6.275  36.574  -4.878 -0.21 +0.01    +0.115 C 
DOCKED: BRANCH  39  40
DOCKED: ATOM     40  C   UNL d   1       4.957  36.949  -4.246 -0.13 +0.03    +0.139 C 
DOCKED: ATOM     41  O   UNL d   1       4.112  36.091  -4.052 +0.01 -0.14    -0.650 OA
DOCKED: BRANCH  40  42
DOCKED: ATOM     42  O   UNL d   1       4.713  38.212  -3.844 +0.06 -0.21    -0.776 OA
DOCKED: ATOM     43  H   UNL d   1       4.139  38.399  -3.092 +0.04 +0.07    +0.167 HD
DOCKED: ENDBRANCH  40  42
DOCKED: ENDBRANCH  39  40
DOCKED: ENDBRANCH  38  39
DOCKED: ENDBRANCH  22  38
DOCKED: BRANCH  12  44
DOCKED: ATOM     44  C   UNL d   1      11.936  31.575   3.912 -0.56 +0.00    +0.004 C 
DOCKED: ATOM     45  C   UNL d   1      13.187  31.197   3.654 -0.66 +0.00    +0.012 C 
DOCKED: ENDBRANCH  12  44
DOCKED: BRANCH  17  46
DOCKED: ATOM     46  C   UNL d   1      14.729  36.714  -1.817 -0.60 +0.00    +0.004 C 
DOCKED: ATOM     47  C   UNL d   1      15.440  37.762  -1.382 -0.64 +0.00    +0.012 C 
DOCKED: ENDBRANCH  17  46
DOCKED: TORSDOF 10
DOCKED: TER
DOCKED: ENDMDL
________________________________________________________________________________


	BEGINNING GENETIC ALGORITHM DOCKING 88 of 100
Run: 88 Seed: 42283682 1912206734 [ Run 88 of 100 GA/GALS ]
Beginning LAMARCKIAN GENETIC ALGORITHM (LGA), with a maximum of 25000000 energy evaluations.

Final-Value: -19.639


	FINAL GENETIC ALGORITHM DOCKED STATE
	_______________________________________________


Detailed state:  trans 41.431 28.588 16.084 quatxyzw -0.284847 0.392417 0.874294 -0.021924 center 8.287 34.468 -0.670 ntor 10 29.0674 157.6715 -24.5978 -24.3039 -123.5331 -146.9480 -1.8584 -68.8305 -170.2135 43.5472
State:	 41.431  28.588  16.084  -0.285  0.393  0.875 -177.487     29.07  157.67  -24.60  -24.30 -123.53 -146.95   -1.86  -68.83 -170.21   43.55

DOCKED: MODEL       88
DOCKED: USER    Run = 88
DOCKED: USER    DPF = D:/Protein_go_brrr/autodock/final/2DN3/heme_O2/dock.dpf
DOCKED: USER  
DOCKED: USER    Estimated Free Energy of Binding    =  -14.56 kcal/mol  [=(1)+(2)+(3)-(4)]
DOCKED: USER    Estimated Inhibition Constant, Ki   =   21.18 pM (picomolar)  [Temperature = 298.15 K]
DOCKED: USER    
DOCKED: USER    (1) Final Intermolecular Energy     =  -17.55 kcal/mol
DOCKED: USER        vdW + Hbond + desolv Energy     =  -15.48 kcal/mol
DOCKED: USER        Electrostatic Energy            =   -2.07 kcal/mol
DOCKED: USER    (2) Final Total Internal Energy     =   -2.09 kcal/mol
DOCKED: USER    (3) Torsional Free Energy           =   +2.98 kcal/mol
DOCKED: USER    (4) Unbound System's Energy  [=(2)] =   -2.09 kcal/mol
DOCKED: USER    
DOCKED: USER    
DOCKED: USER    NEWDPF move heme_O2_opt.pdbqt
DOCKED: USER    NEWDPF about 8.287000 34.468000 -0.670000
DOCKED: USER    NEWDPF tran0 41.431070 28.588019 16.083740
DOCKED: USER    NEWDPF quaternion0 -0.284847 0.392417 0.874294 -0.021924
DOCKED: USER    NEWDPF axisangle0 -0.284916 0.392511 0.874505 -177.487485
DOCKED: USER    NEWDPF quat0 -0.284916 0.392511 0.874505 -177.487485
DOCKED: USER    NEWDPF dihe0 29.07 157.67 -24.60 -24.30 -123.53 -146.95 -1.86 -68.83 -170.21 43.55 
DOCKED: USER  keepresnum = 1 
DOCKED: USER  
DOCKED: REMARK  10 active torsions:
DOCKED: REMARK  status: ('A' for Active; 'I' for Inactive)
DOCKED: REMARK    1  A    between atoms: C_6  and  C_10 
DOCKED: REMARK    2  A    between atoms: C_10  and  C_11 
DOCKED: REMARK    3  A    between atoms: C_11  and  C_12 
DOCKED: REMARK    4  A    between atoms: C_12  and  O_14 
DOCKED: REMARK    5  A    between atoms: C_17  and  C_20 
DOCKED: REMARK    6  A    between atoms: C_24  and  C_27 
DOCKED: REMARK    7  A    between atoms: C_31  and  C_34 
DOCKED: REMARK    8  A    between atoms: C_34  and  C_35 
DOCKED: REMARK    9  A    between atoms: C_35  and  C_36 
DOCKED: REMARK   10  A    between atoms: C_36  and  O_38 
DOCKED: USER                              x       y       z     vdW  Elec       q    Type
DOCKED: USER                           _______ _______ _______ _____ _____    ______ ____
DOCKED: ROOT
DOCKED: ATOM      1  C   UNL d   1      43.223  27.959  17.029 -0.31 +0.02    +0.064 A 
DOCKED: ATOM      2  C   UNL d   1      41.171  32.216  16.550 -0.40 +0.01    +0.064 A 
DOCKED: ATOM      3  C   UNL d   1      37.569  30.297  14.014 -0.37 +0.01    +0.064 C 
DOCKED: ATOM      4  C   UNL d   1      39.420  25.843  14.907 -0.33 +0.01    +0.064 A 
DOCKED: ATOM      5  C   UNL d   1      42.958  29.274  17.107 -0.31 +0.02    +0.066 A 
DOCKED: ATOM      6  C   UNL d   1      43.784  30.202  17.748 -0.32 -0.01    -0.021 A 
DOCKED: ATOM      7  C   UNL d   1      43.169  31.428  17.648 -0.33 -0.01    -0.025 A 
DOCKED: ATOM      8  C   UNL d   1      42.008  31.223  16.906 -0.35 +0.02    +0.066 A 
DOCKED: ATOM      9  C   UNL d   1      43.683  32.707  18.271 -0.36 +0.01    +0.051 C 
DOCKED: ATOM     10  C   UNL d   1      39.952  32.066  15.755 -0.38 +0.01    +0.066 A 
DOCKED: ATOM     11  C   UNL d   1      39.208  33.150  15.275 -0.43 -0.00    -0.021 A 
DOCKED: ATOM     12  C   UNL d   1      38.175  32.617  14.526 -0.40 +0.00    +0.000 A 
DOCKED: ATOM     13  C   UNL d   1      38.344  31.207  14.603 -0.35 +0.01    +0.070 A 
DOCKED: ATOM     14  C   UNL d   1      39.486  34.632  15.499 -0.53 +0.01    +0.052 C 
DOCKED: ATOM     15  C   UNL d   1      37.685  28.861  14.096 -0.36 +0.01    +0.066 A 
DOCKED: ATOM     16  C   UNL d   1      36.746  27.962  13.592 -0.44 -0.00    -0.021 A 
DOCKED: ATOM     17  C   UNL d   1      37.253  26.685  13.836 -0.45 +0.00    +0.000 A 
DOCKED: ATOM     18  C   UNL d   1      38.480  26.905  14.477 -0.37 +0.01    +0.070 A 
DOCKED: ATOM     19  C   UNL d   1      35.439  28.395  12.979 -0.61 +0.01    +0.052 C 
DOCKED: ATOM     20  C   UNL d   1      40.584  26.017  15.563 -0.37 +0.02    +0.066 A 
DOCKED: ATOM     21  C   UNL d   1      41.437  24.979  15.927 -0.42 -0.01    -0.025 A 
DOCKED: ATOM     22  C   UNL d   1      42.539  25.565  16.508 -0.15 -0.01    -0.021 A 
DOCKED: ATOM     23  C   UNL d   1      42.308  26.944  16.494 -0.29 +0.02    +0.066 A 
DOCKED: ATOM     24  C   UNL d   1      41.211  23.502  15.733 -0.55 +0.01    +0.051 C 
DOCKED: ATOM     25  N   UNL d   1      41.846  29.885  16.630 -0.07 -0.08    -0.248 N 
DOCKED: ATOM     26  N   UNL d   1      39.425  30.881  15.356 -0.11 -0.06    -0.248 N 
DOCKED: ATOM     27  N   UNL d   1      38.691  28.228  14.694 -0.21 -0.06    -0.248 N 
DOCKED: ATOM     28  N   UNL d   1      41.099  27.211  15.960 -0.27 -0.07    -0.248 N 
DOCKED: ATOM     29 FE   UNL d   1      40.266  29.031  15.659 -0.08 +0.00    +0.000 Fe
DOCKED: ATOM     30  O   UNL d   1      39.911  29.585  17.070 -0.90 +0.00    +0.000 OA
DOCKED: ATOM     31  O   UNL d   1      39.296  28.216  16.591 -0.72 +0.00    +0.000 OA
DOCKED: ENDROOT
DOCKED: BRANCH   6  32
DOCKED: ATOM     32  C   UNL d   1      45.033  29.930  18.545 -0.26 +0.02    +0.052 C 
DOCKED: BRANCH  32  33
DOCKED: ATOM     33  C   UNL d   1      44.745  29.610  20.008 -0.18 +0.09    +0.115 C 
DOCKED: BRANCH  33  34
DOCKED: ATOM     34  C   UNL d   1      45.993  29.243  20.773 -0.08 +0.18    +0.139 C 
DOCKED: ATOM     35  O   UNL d   1      46.682  30.125  21.262 -0.38 -0.88    -0.650 OA
DOCKED: BRANCH  34  36
DOCKED: ATOM     36  O   UNL d   1      46.384  27.959  20.908 -0.15 -1.00    -0.776 OA
DOCKED: ATOM     37  H   UNL d   1      46.182  27.291  20.242 +0.05 +0.14    +0.167 HD
DOCKED: ENDBRANCH  34  36
DOCKED: ENDBRANCH  33  34
DOCKED: ENDBRANCH  32  33
DOCKED: ENDBRANCH   6  32
DOCKED: BRANCH  22  38
DOCKED: ATOM     38  C   UNL d   1      43.715  24.831  17.101 -0.27 +0.02    +0.052 C 
DOCKED: BRANCH  38  39
DOCKED: ATOM     39  C   UNL d   1      45.030  25.581  16.899 -0.21 +0.06    +0.115 C 
DOCKED: BRANCH  39  40
DOCKED: ATOM     40  C   UNL d   1      45.577  26.142  18.188 -0.18 +0.07    +0.139 C 
DOCKED: ATOM     41  O   UNL d   1      44.947  26.004  19.224 +0.05 -0.36    -0.650 OA
DOCKED: BRANCH  40  42
DOCKED: ATOM     42  O   UNL d   1      46.778  26.750  18.228 +0.06 -0.42    -0.776 OA
DOCKED: ATOM     43  H   UNL d   1      47.020  27.344  18.948 +0.04 +0.09    +0.167 HD
DOCKED: ENDBRANCH  40  42
DOCKED: ENDBRANCH  39  40
DOCKED: ENDBRANCH  38  39
DOCKED: ENDBRANCH  22  38
DOCKED: BRANCH  12  44
DOCKED: ATOM     44  C   UNL d   1      37.152  33.492  13.832 -0.49 +0.00    +0.004 C 
DOCKED: ATOM     45  C   UNL d   1      36.471  33.228  12.717 -0.56 +0.00    +0.012 C 
DOCKED: ENDBRANCH  12  44
DOCKED: BRANCH  17  46
DOCKED: ATOM     46  C   UNL d   1      36.667  25.323  13.575 -0.66 +0.00    +0.004 C 
DOCKED: ATOM     47  C   UNL d   1      35.377  24.962  13.577 -0.71 +0.00    +0.012 C 
DOCKED: ENDBRANCH  17  46
DOCKED: TORSDOF 10
DOCKED: TER
DOCKED: ENDMDL
________________________________________________________________________________


	BEGINNING GENETIC ALGORITHM DOCKING 89 of 100
Run: 89 Seed: 2068366419 129257748 [ Run 89 of 100 GA/GALS ]
Beginning LAMARCKIAN GENETIC ALGORITHM (LGA), with a maximum of 25000000 energy evaluations.

Final-Value: -19.065


	FINAL GENETIC ALGORITHM DOCKED STATE
	_______________________________________________


Detailed state:  trans 8.690 35.126 -1.023 quatxyzw -0.032784 -0.051488 -0.014248 -0.998034 center 8.287 34.468 -0.670 ntor 10 48.3276 -143.3440 -18.2655 -58.6071 -125.0284 81.1462 -2.9567 -64.5432 -155.0732 28.8669
State:	  8.690  35.126  -1.023  -0.523 -0.821 -0.227 -7.187     48.33 -143.34  -18.27  -58.61 -125.03   81.15   -2.96  -64.54 -155.07   28.87

DOCKED: MODEL       89
DOCKED: USER    Run = 89
DOCKED: USER    DPF = D:/Protein_go_brrr/autodock/final/2DN3/heme_O2/dock.dpf
DOCKED: USER  
DOCKED: USER    Estimated Free Energy of Binding    =  -13.87 kcal/mol  [=(1)+(2)+(3)-(4)]
DOCKED: USER    Estimated Inhibition Constant, Ki   =   67.58 pM (picomolar)  [Temperature = 298.15 K]
DOCKED: USER    
DOCKED: USER    (1) Final Intermolecular Energy     =  -16.86 kcal/mol
DOCKED: USER        vdW + Hbond + desolv Energy     =  -15.30 kcal/mol
DOCKED: USER        Electrostatic Energy            =   -1.56 kcal/mol
DOCKED: USER    (2) Final Total Internal Energy     =   -2.21 kcal/mol
DOCKED: USER    (3) Torsional Free Energy           =   +2.98 kcal/mol
DOCKED: USER    (4) Unbound System's Energy  [=(2)] =   -2.21 kcal/mol
DOCKED: USER    
DOCKED: USER    
DOCKED: USER    NEWDPF move heme_O2_opt.pdbqt
DOCKED: USER    NEWDPF about 8.287000 34.468000 -0.670000
DOCKED: USER    NEWDPF tran0 8.690349 35.126069 -1.022899
DOCKED: USER    NEWDPF quaternion0 -0.032784 -0.051488 -0.014248 -0.998034
DOCKED: USER    NEWDPF axisangle0 -0.523041 -0.821436 -0.227311 -7.187345
DOCKED: USER    NEWDPF quat0 -0.523041 -0.821436 -0.227311 -7.187345
DOCKED: USER    NEWDPF dihe0 48.33 -143.34 -18.27 -58.61 -125.03 81.15 -2.96 -64.54 -155.07 28.87 
DOCKED: USER  keepresnum = 1 
DOCKED: USER  
DOCKED: REMARK  10 active torsions:
DOCKED: REMARK  status: ('A' for Active; 'I' for Inactive)
DOCKED: REMARK    1  A    between atoms: C_6  and  C_10 
DOCKED: REMARK    2  A    between atoms: C_10  and  C_11 
DOCKED: REMARK    3  A    between atoms: C_11  and  C_12 
DOCKED: REMARK    4  A    between atoms: C_12  and  O_14 
DOCKED: REMARK    5  A    between atoms: C_17  and  C_20 
DOCKED: REMARK    6  A    between atoms: C_24  and  C_27 
DOCKED: REMARK    7  A    between atoms: C_31  and  C_34 
DOCKED: REMARK    8  A    between atoms: C_34  and  C_35 
DOCKED: REMARK    9  A    between atoms: C_35  and  C_36 
DOCKED: REMARK   10  A    between atoms: C_36  and  O_38 
DOCKED: USER                              x       y       z     vdW  Elec       q    Type
DOCKED: USER                           _______ _______ _______ _____ _____    ______ ____
DOCKED: ROOT
DOCKED: ATOM      1  C   UNL d   1       6.932  35.720  -2.049 -0.25 +0.01    +0.064 A 
DOCKED: ATOM      2  C   UNL d   1       7.636  33.218   1.926 -0.40 +0.01    +0.064 A 
DOCKED: ATOM      3  C   UNL d   1      12.401  33.597   1.431 -0.42 +0.00    +0.064 C 
DOCKED: ATOM      4  C   UNL d   1      11.684  36.577  -2.399 -0.39 +0.00    +0.064 A 
DOCKED: ATOM      5  C   UNL d   1       6.734  35.010  -0.927 -0.30 +0.01    +0.066 A 
DOCKED: ATOM      6  C   UNL d   1       5.474  34.655  -0.437 -0.29 -0.00    -0.021 A 
DOCKED: ATOM      7  C   UNL d   1       5.676  33.968   0.738 -0.33 -0.00    -0.025 A 
DOCKED: ATOM      8  C   UNL d   1       7.055  33.880   0.907 -0.35 +0.01    +0.066 A 
DOCKED: ATOM      9  C   UNL d   1       4.575  33.460   1.643 -0.37 +0.01    +0.051 C 
DOCKED: ATOM     10  C   UNL d   1       9.076  33.073   2.144 -0.37 +0.01    +0.066 A 
DOCKED: ATOM     11  C   UNL d   1       9.625  32.239   3.124 -0.45 -0.00    -0.021 A 
DOCKED: ATOM     12  C   UNL d   1      10.998  32.321   2.986 -0.43 +0.00    +0.000 A 
DOCKED: ATOM     13  C   UNL d   1      11.214  33.230   1.913 -0.36 +0.00    +0.070 A 
DOCKED: ATOM     14  C   UNL d   1       8.872  31.380   4.133 -0.58 +0.00    +0.052 C 
DOCKED: ATOM     15  C   UNL d   1      12.662  34.540   0.370 -0.34 +0.01    +0.066 A 
DOCKED: ATOM     16  C   UNL d   1      13.929  35.007   0.021 -0.42 -0.00    -0.021 A 
DOCKED: ATOM     17  C   UNL d   1      13.749  35.859  -1.068 -0.43 +0.00    +0.000 A 
DOCKED: ATOM     18  C   UNL d   1      12.368  35.847  -1.307 -0.36 +0.01    +0.070 A 
DOCKED: ATOM     19  C   UNL d   1      15.178  34.645   0.785 -0.58 +0.00    +0.052 C 
DOCKED: ATOM     20  C   UNL d   1      10.357  36.622  -2.630 -0.38 +0.01    +0.066 A 
DOCKED: ATOM     21  C   UNL d   1       9.772  37.314  -3.687 -0.38 -0.00    -0.025 A 
DOCKED: ATOM     22  C   UNL d   1       8.420  37.059  -3.619 -0.32 -0.00    -0.021 A 
DOCKED: ATOM     23  C   UNL d   1       8.228  36.232  -2.508 -0.33 +0.01    +0.066 A 
DOCKED: ATOM     24  C   UNL d   1      10.466  38.178  -4.708 -0.50 -0.01    +0.051 C 
DOCKED: ATOM     25  N   UNL d   1       7.705  34.579  -0.084 -0.22 -0.05    -0.248 N 
DOCKED: ATOM     26  N   UNL d   1      10.039  33.686   1.410 -0.21 -0.03    -0.248 N 
DOCKED: ATOM     27  N   UNL d   1      11.716  35.101  -0.378 -0.18 -0.04    -0.248 N 
DOCKED: ATOM     28  N   UNL d   1       9.403  36.006  -1.884 -0.25 -0.05    -0.248 N 
DOCKED: ATOM     29 FE   UNL d   1       9.721  34.855  -0.249 -0.08 +0.00    +0.000 Fe
DOCKED: ATOM     30  O   UNL d   1       9.079  35.614   0.949 -0.63 +0.00    +0.000 OA
DOCKED: ATOM     31  O   UNL d   1      10.207  36.310   0.097 -0.66 +0.00    +0.000 OA
DOCKED: ENDROOT
DOCKED: BRANCH   6  32
DOCKED: ATOM     32  C   UNL d   1       4.127  35.061  -0.974 -0.23 +0.02    +0.052 C 
DOCKED: BRANCH  32  33
DOCKED: ATOM     33  C   UNL d   1       3.808  36.532  -0.723 -0.09 +0.07    +0.115 C 
DOCKED: BRANCH  33  34
DOCKED: ATOM     34  C   UNL d   1       2.515  36.959  -1.373 -0.15 +0.14    +0.139 C 
DOCKED: ATOM     35  O   UNL d   1       1.457  36.764  -0.796 -0.35 -0.99    -0.650 OA
DOCKED: BRANCH  34  36
DOCKED: ATOM     36  O   UNL d   1       2.497  37.529  -2.595 +0.01 -0.58    -0.776 OA
DOCKED: ATOM     37  H   UNL d   1       2.975  37.152  -3.342 +0.03 +0.07    +0.167 HD
DOCKED: ENDBRANCH  34  36
DOCKED: ENDBRANCH  33  34
DOCKED: ENDBRANCH  32  33
DOCKED: ENDBRANCH   6  32
DOCKED: BRANCH  22  38
DOCKED: ATOM     38  C   UNL d   1       7.371  37.633  -4.535 -0.26 +0.00    +0.052 C 
DOCKED: BRANCH  38  39
DOCKED: ATOM     39  C   UNL d   1       6.433  36.562  -5.089 -0.22 +0.01    +0.115 C 
DOCKED: BRANCH  39  40
DOCKED: ATOM     40  C   UNL d   1       5.017  36.726  -4.597 -0.13 +0.02    +0.139 C 
DOCKED: ATOM     41  O   UNL d   1       4.399  35.754  -4.194 +0.00 -0.12    -0.650 OA
DOCKED: BRANCH  40  42
DOCKED: ATOM     42  O   UNL d   1       4.434  37.940  -4.545 +0.06 -0.18    -0.776 OA
DOCKED: ATOM     43  H   UNL d   1       3.862  38.194  -3.812 +0.03 +0.06    +0.167 HD
DOCKED: ENDBRANCH  40  42
DOCKED: ENDBRANCH  39  40
DOCKED: ENDBRANCH  38  39
DOCKED: ENDBRANCH  22  38
DOCKED: BRANCH  12  44
DOCKED: ATOM     44  C   UNL d   1      11.944  31.542   3.876 -0.56 +0.00    +0.004 C 
DOCKED: ATOM     45  C   UNL d   1      13.205  31.192   3.623 -0.66 +0.00    +0.012 C 
DOCKED: ENDBRANCH  12  44
DOCKED: BRANCH  17  46
DOCKED: ATOM     46  C   UNL d   1      14.733  36.700  -1.838 -0.60 +0.00    +0.004 C 
DOCKED: ATOM     47  C   UNL d   1      15.443  37.749  -1.405 -0.64 +0.00    +0.012 C 
DOCKED: ENDBRANCH  17  46
DOCKED: TORSDOF 10
DOCKED: TER
DOCKED: ENDMDL
________________________________________________________________________________


	BEGINNING GENETIC ALGORITHM DOCKING 90 of 100
Run: 90 Seed: 919724434 493574502 [ Run 90 of 100 GA/GALS ]
Beginning LAMARCKIAN GENETIC ALGORITHM (LGA), with a maximum of 25000000 energy evaluations.

Final-Value: -19.379


	FINAL GENETIC ALGORITHM DOCKED STATE
	_______________________________________________


Detailed state:  trans 8.476 35.161 -0.992 quatxyzw 0.043428 0.032499 0.018152 0.998363 center 8.287 34.468 -0.670 ntor 10 31.2799 165.4919 -19.0140 -44.4230 122.9237 11.0340 39.7745 70.5848 -110.9502 -179.9720
State:	  8.476  35.161  -0.992   0.759  0.568  0.317  6.558     31.28  165.49  -19.01  -44.42  122.92   11.03   39.77   70.58 -110.95 -179.97

DOCKED: MODEL       90
DOCKED: USER    Run = 90
DOCKED: USER    DPF = D:/Protein_go_brrr/autodock/final/2DN3/heme_O2/dock.dpf
DOCKED: USER  
DOCKED: USER    Estimated Free Energy of Binding    =  -14.56 kcal/mol  [=(1)+(2)+(3)-(4)]
DOCKED: USER    Estimated Inhibition Constant, Ki   =   21.42 pM (picomolar)  [Temperature = 298.15 K]
DOCKED: USER    
DOCKED: USER    (1) Final Intermolecular Energy     =  -17.54 kcal/mol
DOCKED: USER        vdW + Hbond + desolv Energy     =  -15.31 kcal/mol
DOCKED: USER        Electrostatic Energy            =   -2.23 kcal/mol
DOCKED: USER    (2) Final Total Internal Energy     =   -1.84 kcal/mol
DOCKED: USER    (3) Torsional Free Energy           =   +2.98 kcal/mol
DOCKED: USER    (4) Unbound System's Energy  [=(2)] =   -1.84 kcal/mol
DOCKED: USER    
DOCKED: USER    
DOCKED: USER    NEWDPF move heme_O2_opt.pdbqt
DOCKED: USER    NEWDPF about 8.287000 34.468000 -0.670000
DOCKED: USER    NEWDPF tran0 8.475819 35.160867 -0.991883
DOCKED: USER    NEWDPF quaternion0 0.043428 0.032499 0.018152 0.998363
DOCKED: USER    NEWDPF axisangle0 0.759249 0.568178 0.317356 6.558118
DOCKED: USER    NEWDPF quat0 0.759249 0.568178 0.317356 6.558118
DOCKED: USER    NEWDPF dihe0 31.28 165.49 -19.01 -44.42 122.92 11.03 39.77 70.58 -110.95 -179.97 
DOCKED: USER  keepresnum = 1 
DOCKED: USER  
DOCKED: REMARK  10 active torsions:
DOCKED: REMARK  status: ('A' for Active; 'I' for Inactive)
DOCKED: REMARK    1  A    between atoms: C_6  and  C_10 
DOCKED: REMARK    2  A    between atoms: C_10  and  C_11 
DOCKED: REMARK    3  A    between atoms: C_11  and  C_12 
DOCKED: REMARK    4  A    between atoms: C_12  and  O_14 
DOCKED: REMARK    5  A    between atoms: C_17  and  C_20 
DOCKED: REMARK    6  A    between atoms: C_24  and  C_27 
DOCKED: REMARK    7  A    between atoms: C_31  and  C_34 
DOCKED: REMARK    8  A    between atoms: C_34  and  C_35 
DOCKED: REMARK    9  A    between atoms: C_35  and  C_36 
DOCKED: REMARK   10  A    between atoms: C_36  and  O_38 
DOCKED: USER                              x       y       z     vdW  Elec       q    Type
DOCKED: USER                           _______ _______ _______ _____ _____    ______ ____
DOCKED: ROOT
DOCKED: ATOM      1  C   UNL d   1       6.685  35.752  -1.963 -0.21 +0.01    +0.064 A 
DOCKED: ATOM      2  C   UNL d   1       7.516  33.324   2.034 -0.40 +0.01    +0.064 A 
DOCKED: ATOM      3  C   UNL d   1      12.262  33.643   1.350 -0.41 +0.00    +0.064 C 
DOCKED: ATOM      4  C   UNL d   1      11.428  36.553  -2.510 -0.40 +0.00    +0.064 A 
DOCKED: ATOM      5  C   UNL d   1       6.524  35.067  -0.819 -0.29 +0.01    +0.066 A 
DOCKED: ATOM      6  C   UNL d   1       5.280  34.735  -0.275 -0.29 -0.00    -0.021 A 
DOCKED: ATOM      7  C   UNL d   1       5.519  34.070   0.905 -0.34 -0.00    -0.025 A 
DOCKED: ATOM      8  C   UNL d   1       6.903  33.971   1.024 -0.36 +0.01    +0.066 A 
DOCKED: ATOM      9  C   UNL d   1       4.449  33.592   1.862 -0.38 +0.01    +0.051 C 
DOCKED: ATOM     10  C   UNL d   1       8.961  33.168   2.200 -0.35 +0.01    +0.066 A 
DOCKED: ATOM     11  C   UNL d   1       9.540  32.348   3.175 -0.45 -0.00    -0.021 A 
DOCKED: ATOM     12  C   UNL d   1      10.907  32.413   2.983 -0.43 +0.00    +0.000 A 
DOCKED: ATOM     13  C   UNL d   1      11.091  33.297   1.884 -0.36 +0.01    +0.070 A 
DOCKED: ATOM     14  C   UNL d   1       8.817  31.517   4.229 -0.58 +0.00    +0.052 C 
DOCKED: ATOM     15  C   UNL d   1      12.492  34.562   0.261 -0.33 +0.01    +0.066 A 
DOCKED: ATOM     16  C   UNL d   1      13.749  35.008  -0.145 -0.41 -0.00    -0.021 A 
DOCKED: ATOM     17  C   UNL d   1      13.536  35.840  -1.244 -0.43 +0.00    +0.000 A 
DOCKED: ATOM     18  C   UNL d   1      12.147  35.837  -1.429 -0.36 +0.01    +0.070 A 
DOCKED: ATOM     19  C   UNL d   1      15.022  34.648   0.579 -0.57 +0.00    +0.052 C 
DOCKED: ATOM     20  C   UNL d   1      10.095  36.607  -2.691 -0.38 +0.01    +0.066 A 
DOCKED: ATOM     21  C   UNL d   1       9.476  37.283  -3.739 -0.35 -0.00    -0.025 A 
DOCKED: ATOM     22  C   UNL d   1       8.126  37.044  -3.615 -0.32 -0.00    -0.021 A 
DOCKED: ATOM     23  C   UNL d   1       7.968  36.241  -2.481 -0.31 +0.01    +0.066 A 
DOCKED: ATOM     24  C   UNL d   1      10.140  38.119  -4.803 -0.47 -0.00    +0.051 C 
DOCKED: ATOM     25  N   UNL d   1       7.521  34.643  -0.005 -0.23 -0.05    -0.248 N 
DOCKED: ATOM     26  N   UNL d   1       9.902  33.756   1.417 -0.21 -0.04    -0.248 N 
DOCKED: ATOM     27  N   UNL d   1      11.524  35.117  -0.462 -0.15 -0.04    -0.248 N 
DOCKED: ATOM     28  N   UNL d   1       9.163  36.015  -1.897 -0.25 -0.05    -0.248 N 
DOCKED: ATOM     29 FE   UNL d   1       9.533  34.895  -0.252 -0.08 +0.00    +0.000 Fe
DOCKED: ATOM     30  O   UNL d   1       8.944  35.684   0.953 -0.61 +0.00    +0.000 OA
DOCKED: ATOM     31  O   UNL d   1      10.045  36.352   0.045 -0.72 +0.00    +0.000 OA
DOCKED: ENDROOT
DOCKED: BRANCH   6  32
DOCKED: ATOM     32  C   UNL d   1       3.917  35.145  -0.769 -0.24 +0.02    +0.052 C 
DOCKED: BRANCH  32  33
DOCKED: ATOM     33  C   UNL d   1       3.936  36.465  -1.533 -0.11 +0.05    +0.115 C 
DOCKED: BRANCH  33  34
DOCKED: ATOM     34  C   UNL d   1       2.716  37.308  -1.255 -0.12 +0.16    +0.139 C 
DOCKED: ATOM     35  O   UNL d   1       1.666  36.767  -0.948 -0.30 -0.89    -0.650 OA
DOCKED: BRANCH  34  36
DOCKED: ATOM     36  O   UNL d   1       2.749  38.652  -1.367 -0.22 -1.33    -0.776 OA
DOCKED: ATOM     37  H   UNL d   1       3.317  39.098  -2.006 +0.03 +0.16    +0.167 HD
DOCKED: ENDBRANCH  34  36
DOCKED: ENDBRANCH  33  34
DOCKED: ENDBRANCH  32  33
DOCKED: ENDBRANCH   6  32
DOCKED: BRANCH  22  38
DOCKED: ATOM     38  C   UNL d   1       7.048  37.610  -4.502 -0.24 +0.00    +0.052 C 
DOCKED: BRANCH  38  39
DOCKED: ATOM     39  C   UNL d   1       6.721  39.063  -4.165 -0.21 +0.01    +0.115 C 
DOCKED: BRANCH  39  40
DOCKED: ATOM     40  C   UNL d   1       5.354  39.218  -3.547 -0.14 +0.03    +0.139 C 
DOCKED: ATOM     41  O   UNL d   1       5.117  40.180  -2.834 +0.01 -0.21    -0.650 OA
DOCKED: BRANCH  40  42
DOCKED: ATOM     42  O   UNL d   1       4.368  38.338  -3.809 +0.06 -0.24    -0.776 OA
DOCKED: ATOM     43  H   UNL d   1       3.551  38.329  -3.297 +0.03 +0.08    +0.167 HD
DOCKED: ENDBRANCH  40  42
DOCKED: ENDBRANCH  39  40
DOCKED: ENDBRANCH  38  39
DOCKED: ENDBRANCH  22  38
DOCKED: BRANCH  12  44
DOCKED: ATOM     44  C   UNL d   1      11.879  31.642   3.852 -0.55 +0.00    +0.004 C 
DOCKED: ATOM     45  C   UNL d   1      13.121  31.262   3.554 -0.64 +0.00    +0.012 C 
DOCKED: ENDBRANCH  12  44
DOCKED: BRANCH  17  46
DOCKED: ATOM     46  C   UNL d   1      14.498  36.654  -2.067 -0.59 +0.00    +0.004 C 
DOCKED: ATOM     47  C   UNL d   1      15.420  37.527  -1.642 -0.65 +0.00    +0.012 C 
DOCKED: ENDBRANCH  17  46
DOCKED: TORSDOF 10
DOCKED: TER
DOCKED: ENDMDL
________________________________________________________________________________


	BEGINNING GENETIC ALGORITHM DOCKING 91 of 100
Run: 91 Seed: 510047744 802880429 [ Run 91 of 100 GA/GALS ]
Beginning LAMARCKIAN GENETIC ALGORITHM (LGA), with a maximum of 25000000 energy evaluations.

Final-Value: -11.431


	FINAL GENETIC ALGORITHM DOCKED STATE
	_______________________________________________


Detailed state:  trans 19.488 45.511 -8.309 quatxyzw 0.243408 -0.183636 0.844173 -0.440912 center 8.287 34.468 -0.670 ntor 10 32.6898 177.0665 -10.7450 -37.2611 -109.8171 -106.8306 -6.1602 68.2698 -178.8479 149.4525
State:	 19.488  45.511  -8.309   0.271 -0.205  0.941 -127.676     32.69  177.07  -10.74  -37.26 -109.82 -106.83   -6.16   68.27 -178.85  149.45

DOCKED: MODEL       91
DOCKED: USER    Run = 91
DOCKED: USER    DPF = D:/Protein_go_brrr/autodock/final/2DN3/heme_O2/dock.dpf
DOCKED: USER  
DOCKED: USER    Estimated Free Energy of Binding    =   -6.36 kcal/mol  [=(1)+(2)+(3)-(4)]
DOCKED: USER    Estimated Inhibition Constant, Ki   =   21.95 uM (micromolar)  [Temperature = 298.15 K]
DOCKED: USER    
DOCKED: USER    (1) Final Intermolecular Energy     =   -9.34 kcal/mol
DOCKED: USER        vdW + Hbond + desolv Energy     =   -7.84 kcal/mol
DOCKED: USER        Electrostatic Energy            =   -1.50 kcal/mol
DOCKED: USER    (2) Final Total Internal Energy     =   -2.09 kcal/mol
DOCKED: USER    (3) Torsional Free Energy           =   +2.98 kcal/mol
DOCKED: USER    (4) Unbound System's Energy  [=(2)] =   -2.09 kcal/mol
DOCKED: USER    
DOCKED: USER    
DOCKED: USER    NEWDPF move heme_O2_opt.pdbqt
DOCKED: USER    NEWDPF about 8.287000 34.468000 -0.670000
DOCKED: USER    NEWDPF tran0 19.488068 45.511391 -8.308879
DOCKED: USER    NEWDPF quaternion0 0.243408 -0.183636 0.844173 -0.440912
DOCKED: USER    NEWDPF axisangle0 0.271192 -0.204596 0.940529 -127.675887
DOCKED: USER    NEWDPF quat0 0.271192 -0.204596 0.940529 -127.675887
DOCKED: USER    NEWDPF dihe0 32.69 177.07 -10.74 -37.26 -109.82 -106.83 -6.16 68.27 -178.85 149.45 
DOCKED: USER  keepresnum = 1 
DOCKED: USER  
DOCKED: REMARK  10 active torsions:
DOCKED: REMARK  status: ('A' for Active; 'I' for Inactive)
DOCKED: REMARK    1  A    between atoms: C_6  and  C_10 
DOCKED: REMARK    2  A    between atoms: C_10  and  C_11 
DOCKED: REMARK    3  A    between atoms: C_11  and  C_12 
DOCKED: REMARK    4  A    between atoms: C_12  and  O_14 
DOCKED: REMARK    5  A    between atoms: C_17  and  C_20 
DOCKED: REMARK    6  A    between atoms: C_24  and  C_27 
DOCKED: REMARK    7  A    between atoms: C_31  and  C_34 
DOCKED: REMARK    8  A    between atoms: C_34  and  C_35 
DOCKED: REMARK    9  A    between atoms: C_35  and  C_36 
DOCKED: REMARK   10  A    between atoms: C_36  and  O_38 
DOCKED: USER                              x       y       z     vdW  Elec       q    Type
DOCKED: USER                           _______ _______ _______ _____ _____    ______ ____
DOCKED: ROOT
DOCKED: ATOM      1  C   UNL d   1      19.708  44.379 -10.089 -0.11 +0.01    +0.064 A 
DOCKED: ATOM      2  C   UNL d   1      22.326  44.686  -6.138 -0.20 +0.01    +0.064 A 
DOCKED: ATOM      3  C   UNL d   1      19.317  47.944  -4.287 -0.04 -0.02    +0.064 C 
DOCKED: ATOM      4  C   UNL d   1      16.358  47.282  -8.143 -0.18 -0.01    +0.064 A 
DOCKED: ATOM      5  C   UNL d   1      20.665  44.195  -9.165 -0.13 +0.01    +0.066 A 
DOCKED: ATOM      6  C   UNL d   1      21.755  43.335  -9.326 -0.11 -0.00    -0.021 A 
DOCKED: ATOM      7  C   UNL d   1      22.490  43.391  -8.165 -0.12 -0.00    -0.025 A 
DOCKED: ATOM      8  C   UNL d   1      21.856  44.320  -7.345 -0.15 +0.01    +0.066 A 
DOCKED: ATOM      9  C   UNL d   1      23.720  42.557  -7.879 -0.10 +0.01    +0.051 C 
DOCKED: ATOM     10  C   UNL d   1      21.717  45.671  -5.243 -0.24 +0.00    +0.066 A 
DOCKED: ATOM     11  C   UNL d   1      22.333  46.135  -4.075 -0.27 -0.00    -0.021 A 
DOCKED: ATOM     12  C   UNL d   1      21.489  47.088  -3.536 -0.30 -0.00    +0.000 A 
DOCKED: ATOM     13  C   UNL d   1      20.375  47.145  -4.420 -0.25 -0.01    +0.070 A 
DOCKED: ATOM     14  C   UNL d   1      23.683  45.706  -3.511 -0.27 +0.01    +0.052 C 
DOCKED: ATOM     15  C   UNL d   1      18.154  48.007  -5.139 -0.20 -0.01    +0.066 A 
DOCKED: ATOM     16  C   UNL d   1      17.006  48.747  -4.856 -0.23 +0.00    -0.021 A 
DOCKED: ATOM     17  C   UNL d   1      16.148  48.573  -5.942 -0.22 -0.00    +0.000 A 
DOCKED: ATOM     18  C   UNL d   1      16.846  47.730  -6.818 -0.19 -0.01    +0.070 A 
DOCKED: ATOM     19  C   UNL d   1      16.810  49.501  -3.565 -0.18 -0.02    +0.052 C 
DOCKED: ATOM     20  C   UNL d   1      16.983  46.441  -8.989 -0.18 -0.01    +0.066 A 
DOCKED: ATOM     21  C   UNL d   1      16.482  46.069 -10.233 -0.17 +0.01    -0.025 A 
DOCKED: ATOM     22  C   UNL d   1      17.436  45.264 -10.814 -0.14 +0.00    -0.021 A 
DOCKED: ATOM     23  C   UNL d   1      18.481  45.158  -9.890 -0.14 +0.00    +0.066 A 
DOCKED: ATOM     24  C   UNL d   1      15.158  46.460 -10.837 -0.03 -0.02    +0.051 C 
DOCKED: ATOM     25  N   UNL d   1      20.695  44.766  -7.935 -0.10 -0.03    -0.248 N 
DOCKED: ATOM     26  N   UNL d   1      20.520  46.276  -5.452 -0.15 +0.01    -0.248 N 
DOCKED: ATOM     27  N   UNL d   1      18.030  47.337  -6.281 -0.13 +0.02    -0.248 N 
DOCKED: ATOM     28  N   UNL d   1      18.181  45.839  -8.765 -0.11 +0.00    -0.248 N 
DOCKED: ATOM     29 FE   UNL d   1      19.340  46.057  -7.119 -0.04 +0.00    +0.000 Fe
DOCKED: ATOM     30  O   UNL d   1      19.377  44.665  -6.425 -0.46 +0.00    +0.000 OA
DOCKED: ATOM     31  O   UNL d   1      17.995  45.382  -6.663 -0.24 -0.00    +0.000 OA
DOCKED: ENDROOT
DOCKED: BRANCH   6  32
DOCKED: ATOM     32  C   UNL d   1      22.025  42.392 -10.470 -0.10 +0.01    +0.052 C 
DOCKED: BRANCH  32  33
DOCKED: ATOM     33  C   UNL d   1      21.531  40.975 -10.198 +0.04 +0.06    +0.115 C 
DOCKED: BRANCH  33  34
DOCKED: ATOM     34  C   UNL d   1      21.621  40.090 -11.417 -0.11 +0.08    +0.139 C 
DOCKED: ATOM     35  O   UNL d   1      22.562  39.322 -11.537 -0.01 -0.24    -0.650 OA
DOCKED: BRANCH  34  36
DOCKED: ATOM     36  O   UNL d   1      20.696  40.148 -12.397 -0.03 -0.65    -0.776 OA
DOCKED: ATOM     37  H   UNL d   1      20.250  40.970 -12.632 -0.00 +0.14    +0.167 HD
DOCKED: ENDBRANCH  34  36
DOCKED: ENDBRANCH  33  34
DOCKED: ENDBRANCH  32  33
DOCKED: ENDBRANCH   6  32
DOCKED: BRANCH  22  38
DOCKED: ATOM     38  C   UNL d   1      17.315  44.584 -12.153 -0.10 -0.00    +0.052 C 
DOCKED: BRANCH  38  39
DOCKED: ATOM     39  C   UNL d   1      17.130  43.074 -12.025 -0.15 +0.02    +0.115 C 
DOCKED: BRANCH  39  40
DOCKED: ATOM     40  C   UNL d   1      18.315  42.302 -12.551 -0.05 +0.09    +0.139 C 
DOCKED: ATOM     41  O   UNL d   1      19.444  42.727 -12.371 -0.18 -0.31    -0.650 OA
DOCKED: BRANCH  40  42
DOCKED: ATOM     42  O   UNL d   1      18.152  41.119 -13.175 -0.48 -0.85    -0.776 OA
DOCKED: ATOM     43  H   UNL d   1      18.905  40.621 -13.516 -0.00 +0.18    +0.167 HD
DOCKED: ENDBRANCH  40  42
DOCKED: ENDBRANCH  39  40
DOCKED: ENDBRANCH  38  39
DOCKED: ENDBRANCH  22  38
DOCKED: BRANCH  12  44
DOCKED: ATOM     44  C   UNL d   1      21.824  47.829  -2.259 -0.28 -0.00    +0.004 C 
DOCKED: ATOM     45  C   UNL d   1      21.260  48.939  -1.784 -0.25 -0.00    +0.012 C 
DOCKED: ENDBRANCH  12  44
DOCKED: BRANCH  17  46
DOCKED: ATOM     46  C   UNL d   1      14.748  49.071  -6.185 -0.30 -0.00    +0.004 C 
DOCKED: ATOM     47  C   UNL d   1      13.714  49.086  -5.333 -0.46 -0.00    +0.012 C 
DOCKED: ENDBRANCH  17  46
DOCKED: TORSDOF 10
DOCKED: TER
DOCKED: ENDMDL
________________________________________________________________________________


	BEGINNING GENETIC ALGORITHM DOCKING 92 of 100
Run: 92 Seed: 1014282601 700420853 [ Run 92 of 100 GA/GALS ]
Beginning LAMARCKIAN GENETIC ALGORITHM (LGA), with a maximum of 25000000 energy evaluations.

Final-Value: -12.089


	FINAL GENETIC ALGORITHM DOCKED STATE
	_______________________________________________


Detailed state:  trans 17.949 26.363 29.230 quatxyzw -0.176030 0.912106 -0.275193 -0.247679 center 8.287 34.468 -0.670 ntor 10 89.5774 -85.8764 80.5809 -118.3922 -111.1083 54.1719 -40.9473 -74.1143 166.6478 29.6060
State:	 17.949  26.363  29.230  -0.182  0.941 -0.284 -151.320     89.58  -85.88   80.58 -118.39 -111.11   54.17  -40.95  -74.11  166.65   29.61

DOCKED: MODEL       92
DOCKED: USER    Run = 92
DOCKED: USER    DPF = D:/Protein_go_brrr/autodock/final/2DN3/heme_O2/dock.dpf
DOCKED: USER  
DOCKED: USER    Estimated Free Energy of Binding    =   -7.59 kcal/mol  [=(1)+(2)+(3)-(4)]
DOCKED: USER    Estimated Inhibition Constant, Ki   =    2.71 uM (micromolar)  [Temperature = 298.15 K]
DOCKED: USER    
DOCKED: USER    (1) Final Intermolecular Energy     =  -10.58 kcal/mol
DOCKED: USER        vdW + Hbond + desolv Energy     =   -7.67 kcal/mol
DOCKED: USER        Electrostatic Energy            =   -2.90 kcal/mol
DOCKED: USER    (2) Final Total Internal Energy     =   -1.51 kcal/mol
DOCKED: USER    (3) Torsional Free Energy           =   +2.98 kcal/mol
DOCKED: USER    (4) Unbound System's Energy  [=(2)] =   -1.51 kcal/mol
DOCKED: USER    
DOCKED: USER    
DOCKED: USER    NEWDPF move heme_O2_opt.pdbqt
DOCKED: USER    NEWDPF about 8.287000 34.468000 -0.670000
DOCKED: USER    NEWDPF tran0 17.948747 26.362528 29.230415
DOCKED: USER    NEWDPF quaternion0 -0.176030 0.912106 -0.275193 -0.247679
DOCKED: USER    NEWDPF axisangle0 -0.181691 0.941439 -0.284043 -151.319530
DOCKED: USER    NEWDPF quat0 -0.181691 0.941439 -0.284043 -151.319530
DOCKED: USER    NEWDPF dihe0 89.58 -85.88 80.58 -118.39 -111.11 54.17 -40.95 -74.11 166.65 29.61 
DOCKED: USER  keepresnum = 1 
DOCKED: USER  
DOCKED: REMARK  10 active torsions:
DOCKED: REMARK  status: ('A' for Active; 'I' for Inactive)
DOCKED: REMARK    1  A    between atoms: C_6  and  C_10 
DOCKED: REMARK    2  A    between atoms: C_10  and  C_11 
DOCKED: REMARK    3  A    between atoms: C_11  and  C_12 
DOCKED: REMARK    4  A    between atoms: C_12  and  O_14 
DOCKED: REMARK    5  A    between atoms: C_17  and  C_20 
DOCKED: REMARK    6  A    between atoms: C_24  and  C_27 
DOCKED: REMARK    7  A    between atoms: C_31  and  C_34 
DOCKED: REMARK    8  A    between atoms: C_34  and  C_35 
DOCKED: REMARK    9  A    between atoms: C_35  and  C_36 
DOCKED: REMARK   10  A    between atoms: C_36  and  O_38 
DOCKED: USER                              x       y       z     vdW  Elec       q    Type
DOCKED: USER                           _______ _______ _______ _____ _____    ______ ____
DOCKED: ROOT
DOCKED: ATOM      1  C   UNL d   1      18.923  28.023  30.120 +0.06 +0.02    +0.064 A 
DOCKED: ATOM      2  C   UNL d   1      20.503  23.803  28.619 -0.11 +0.00    +0.064 A 
DOCKED: ATOM      3  C   UNL d   1      16.064  22.500  27.320 -0.15 -0.01    +0.064 C 
DOCKED: ATOM      4  C   UNL d   1      14.503  27.019  28.419 -0.09 -0.00    +0.064 A 
DOCKED: ATOM      5  C   UNL d   1      19.715  26.983  29.816 -0.10 +0.01    +0.066 A 
DOCKED: ATOM      6  C   UNL d   1      21.091  26.948  30.062 -0.13 -0.00    -0.021 A 
DOCKED: ATOM      7  C   UNL d   1      21.557  25.744  29.588 -0.16 -0.00    -0.025 A 
DOCKED: ATOM      8  C   UNL d   1      20.445  25.056  29.110 -0.15 +0.01    +0.066 A 
DOCKED: ATOM      9  C   UNL d   1      23.009  25.320  29.582 -0.23 -0.00    +0.051 C 
DOCKED: ATOM     10  C   UNL d   1      19.368  23.022  28.125 -0.11 -0.00    +0.066 A 
DOCKED: ATOM     11  C   UNL d   1      19.457  21.669  27.779 -0.10 +0.00    -0.021 A 
DOCKED: ATOM     12  C   UNL d   1      18.183  21.271  27.419 -0.11 -0.00    +0.000 A 
DOCKED: ATOM     13  C   UNL d   1      17.374  22.432  27.556 -0.10 -0.01    +0.070 A 
DOCKED: ATOM     14  C   UNL d   1      20.700  20.787  27.817 -0.08 -0.01    +0.052 C 
DOCKED: ATOM     15  C   UNL d   1      15.216  23.664  27.413 -0.13 -0.00    +0.066 A 
DOCKED: ATOM     16  C   UNL d   1      13.886  23.709  26.994 -0.21 +0.00    -0.021 A 
DOCKED: ATOM     17  C   UNL d   1      13.421  24.988  27.297 -0.19 -0.00    +0.000 A 
DOCKED: ATOM     18  C   UNL d   1      14.515  25.636  27.888 -0.11 +0.00    +0.070 A 
DOCKED: ATOM     19  C   UNL d   1      13.203  22.557  26.299 -0.34 -0.01    +0.052 C 
DOCKED: ATOM     20  C   UNL d   1      15.546  27.685  28.952 -0.12 +0.00    +0.066 A 
DOCKED: ATOM     21  C   UNL d   1      15.470  28.982  29.453 -0.15 -0.00    -0.025 A 
DOCKED: ATOM     22  C   UNL d   1      16.713  29.274  29.966 -0.15 -0.00    -0.021 A 
DOCKED: ATOM     23  C   UNL d   1      17.510  28.147  29.743 -0.05 +0.01    +0.066 A 
DOCKED: ATOM     24  C   UNL d   1      14.273  29.896  29.439 -0.20 -0.01    +0.051 C 
DOCKED: ATOM     25  N   UNL d   1      19.321  25.846  29.191 -0.11 -0.04    -0.248 N 
DOCKED: ATOM     26  N   UNL d   1      18.104  23.494  27.982 -0.07 -0.00    -0.248 N 
DOCKED: ATOM     27  N   UNL d   1      15.616  24.842  27.881 -0.06 -0.00    -0.248 N 
DOCKED: ATOM     28  N   UNL d   1      16.809  27.201  29.086 -0.08 -0.03    -0.248 N 
DOCKED: ATOM     29 FE   UNL d   1      17.449  25.361  28.537 -0.03 +0.00    +0.000 Fe
DOCKED: ATOM     30  O   UNL d   1      18.478  25.582  27.390 -0.87 +0.00    +0.000 OA
DOCKED: ATOM     31  O   UNL d   1      17.004  26.114  27.230 -0.46 +0.00    +0.000 OA
DOCKED: ENDROOT
DOCKED: BRANCH   6  32
DOCKED: ATOM     32  C   UNL d   1      21.962  28.056  30.595 -0.16 +0.02    +0.052 C 
DOCKED: BRANCH  32  33
DOCKED: ATOM     33  C   UNL d   1      22.905  28.627  29.541 -0.24 +0.04    +0.115 C 
DOCKED: BRANCH  33  34
DOCKED: ATOM     34  C   UNL d   1      22.971  30.134  29.582 -0.15 +0.13    +0.139 C 
DOCKED: ATOM     35  O   UNL d   1      23.888  30.682  30.172 -0.30 -0.85    -0.650 OA
DOCKED: BRANCH  34  36
DOCKED: ATOM     36  O   UNL d   1      22.019  30.895  29.005 +0.04 -0.84    -0.776 OA
DOCKED: ATOM     37  H   UNL d   1      21.232  31.181  29.484 +0.03 +0.28    +0.167 HD
DOCKED: ENDBRANCH  34  36
DOCKED: ENDBRANCH  33  34
DOCKED: ENDBRANCH  32  33
DOCKED: ENDBRANCH   6  32
DOCKED: BRANCH  22  38
DOCKED: ATOM     38  C   UNL d   1      17.124  30.589  30.578 -0.23 +0.01    +0.052 C 
DOCKED: BRANCH  38  39
DOCKED: ATOM     39  C   UNL d   1      17.833  30.411  31.919 -0.10 +0.04    +0.115 C 
DOCKED: BRANCH  39  40
DOCKED: ATOM     40  C   UNL d   1      19.323  30.622  31.815 -0.15 +0.13    +0.139 C 
DOCKED: ATOM     41  O   UNL d   1      20.058  30.190  32.689 -0.02 -0.62    -0.650 OA
DOCKED: BRANCH  40  42
DOCKED: ATOM     42  O   UNL d   1      19.866  31.235  30.746 -0.48 -1.37    -0.776 OA
DOCKED: ATOM     43  H   UNL d   1      20.056  30.755  29.931 +0.02 +0.19    +0.167 HD
DOCKED: ENDBRANCH  40  42
DOCKED: ENDBRANCH  39  40
DOCKED: ENDBRANCH  38  39
DOCKED: ENDBRANCH  22  38
DOCKED: BRANCH  12  44
DOCKED: ATOM     44  C   UNL d   1      17.878  19.852  26.985 -0.18 -0.00    +0.004 C 
DOCKED: ATOM     45  C   UNL d   1      17.666  19.401  25.750 -0.24 -0.01    +0.012 C 
DOCKED: ENDBRANCH  12  44
DOCKED: BRANCH  17  46
DOCKED: ATOM     46  C   UNL d   1      12.092  25.645  27.031 -0.29 -0.00    +0.004 C 
DOCKED: ATOM     47  C   UNL d   1      11.851  26.798  26.393 -0.36 -0.00    +0.012 C 
DOCKED: ENDBRANCH  17  46
DOCKED: TORSDOF 10
DOCKED: TER
DOCKED: ENDMDL
________________________________________________________________________________


	BEGINNING GENETIC ALGORITHM DOCKING 93 of 100
Run: 93 Seed: 1713489837 1381054067 [ Run 93 of 100 GA/GALS ]
Beginning LAMARCKIAN GENETIC ALGORITHM (LGA), with a maximum of 25000000 energy evaluations.

Final-Value: -20.441


	FINAL GENETIC ALGORITHM DOCKED STATE
	_______________________________________________


Detailed state:  trans 41.565 28.568 16.334 quatxyzw 0.324505 -0.389167 -0.860709 0.049244 center 8.287 34.468 -0.670 ntor 10 -25.6486 138.4870 14.6909 -63.0797 -179.5655 -50.4035 -1.2098 64.0596 -119.4690 -179.9973
State:	 41.565  28.568  16.334   0.325 -0.390 -0.862 174.355    -25.65  138.49   14.69  -63.08 -179.57  -50.40   -1.21   64.06 -119.47 -180.00

DOCKED: MODEL       93
DOCKED: USER    Run = 93
DOCKED: USER    DPF = D:/Protein_go_brrr/autodock/final/2DN3/heme_O2/dock.dpf
DOCKED: USER  
DOCKED: USER    Estimated Free Energy of Binding    =  -15.45 kcal/mol  [=(1)+(2)+(3)-(4)]
DOCKED: USER    Estimated Inhibition Constant, Ki   =    4.75 pM (picomolar)  [Temperature = 298.15 K]
DOCKED: USER    
DOCKED: USER    (1) Final Intermolecular Energy     =  -18.43 kcal/mol
DOCKED: USER        vdW + Hbond + desolv Energy     =  -16.28 kcal/mol
DOCKED: USER        Electrostatic Energy            =   -2.15 kcal/mol
DOCKED: USER    (2) Final Total Internal Energy     =   -2.01 kcal/mol
DOCKED: USER    (3) Torsional Free Energy           =   +2.98 kcal/mol
DOCKED: USER    (4) Unbound System's Energy  [=(2)] =   -2.01 kcal/mol
DOCKED: USER    
DOCKED: USER    
DOCKED: USER    NEWDPF move heme_O2_opt.pdbqt
DOCKED: USER    NEWDPF about 8.287000 34.468000 -0.670000
DOCKED: USER    NEWDPF tran0 41.565464 28.568163 16.333844
DOCKED: USER    NEWDPF quaternion0 0.324505 -0.389167 -0.860709 0.049244
DOCKED: USER    NEWDPF axisangle0 0.324899 -0.389640 -0.861755 174.354724
DOCKED: USER    NEWDPF quat0 0.324899 -0.389640 -0.861755 174.354724
DOCKED: USER    NEWDPF dihe0 -25.65 138.49 14.69 -63.08 -179.57 -50.40 -1.21 64.06 -119.47 -180.00 
DOCKED: USER  keepresnum = 1 
DOCKED: USER  
DOCKED: REMARK  10 active torsions:
DOCKED: REMARK  status: ('A' for Active; 'I' for Inactive)
DOCKED: REMARK    1  A    between atoms: C_6  and  C_10 
DOCKED: REMARK    2  A    between atoms: C_10  and  C_11 
DOCKED: REMARK    3  A    between atoms: C_11  and  C_12 
DOCKED: REMARK    4  A    between atoms: C_12  and  O_14 
DOCKED: REMARK    5  A    between atoms: C_17  and  C_20 
DOCKED: REMARK    6  A    between atoms: C_24  and  C_27 
DOCKED: REMARK    7  A    between atoms: C_31  and  C_34 
DOCKED: REMARK    8  A    between atoms: C_34  and  C_35 
DOCKED: REMARK    9  A    between atoms: C_35  and  C_36 
DOCKED: REMARK   10  A    between atoms: C_36  and  O_38 
DOCKED: USER                              x       y       z     vdW  Elec       q    Type
DOCKED: USER                           _______ _______ _______ _____ _____    ______ ____
DOCKED: ROOT
DOCKED: ATOM      1  C   UNL d   1      43.246  27.904  17.445 -0.27 +0.02    +0.064 A 
DOCKED: ATOM      2  C   UNL d   1      41.315  32.196  16.807 -0.41 +0.01    +0.064 A 
DOCKED: ATOM      3  C   UNL d   1      37.952  30.355  13.910 -0.41 +0.01    +0.064 C 
DOCKED: ATOM      4  C   UNL d   1      39.640  25.865  14.939 -0.37 +0.01    +0.064 A 
DOCKED: ATOM      5  C   UNL d   1      42.994  29.221  17.509 -0.24 +0.02    +0.066 A 
DOCKED: ATOM      6  C   UNL d   1      43.766  30.131  18.237 -0.30 -0.01    -0.021 A 
DOCKED: ATOM      7  C   UNL d   1      43.183  31.368  18.089 -0.37 -0.01    -0.025 A 
DOCKED: ATOM      8  C   UNL d   1      42.098  31.187  17.234 -0.37 +0.02    +0.066 A 
DOCKED: ATOM      9  C   UNL d   1      43.652  32.634  18.771 -0.40 +0.01    +0.051 C 
DOCKED: ATOM     10  C   UNL d   1      40.178  32.072  15.894 -0.38 +0.01    +0.066 A 
DOCKED: ATOM     11  C   UNL d   1      39.501  33.171  15.354 -0.44 -0.00    -0.021 A 
DOCKED: ATOM     12  C   UNL d   1      38.539  32.661  14.502 -0.41 +0.00    +0.000 A 
DOCKED: ATOM     13  C   UNL d   1      38.679  31.248  14.582 -0.36 +0.01    +0.070 A 
DOCKED: ATOM     14  C   UNL d   1      39.778  34.646  15.619 -0.50 +0.01    +0.052 C 
DOCKED: ATOM     15  C   UNL d   1      38.039  28.917  13.989 -0.36 +0.01    +0.066 A 
DOCKED: ATOM     16  C   UNL d   1      37.141  28.036  13.387 -0.44 -0.00    -0.021 A 
DOCKED: ATOM     17  C   UNL d   1      37.601  26.750  13.667 -0.45 +0.00    +0.000 A 
DOCKED: ATOM     18  C   UNL d   1      38.762  26.945  14.429 -0.37 +0.01    +0.070 A 
DOCKED: ATOM     19  C   UNL d   1      35.906  28.495  12.652 -0.63 +0.01    +0.052 C 
DOCKED: ATOM     20  C   UNL d   1      40.736  26.015  15.708 -0.37 +0.02    +0.066 A 
DOCKED: ATOM     21  C   UNL d   1      41.533  24.960  16.144 -0.40 -0.01    -0.025 A 
DOCKED: ATOM     22  C   UNL d   1      42.581  25.525  16.836 -0.30 -0.01    -0.021 A 
DOCKED: ATOM     23  C   UNL d   1      42.373  26.907  16.813 -0.32 +0.02    +0.066 A 
DOCKED: ATOM     24  C   UNL d   1      41.305  23.489  15.914 -0.55 +0.01    +0.051 C 
DOCKED: ATOM     25  N   UNL d   1      41.944  29.854  16.931 -0.24 -0.08    -0.248 N 
DOCKED: ATOM     26  N   UNL d   1      39.675  30.898  15.434 -0.03 -0.07    -0.248 N 
DOCKED: ATOM     27  N   UNL d   1      38.970  28.263  14.677 -0.15 -0.07    -0.248 N 
DOCKED: ATOM     28  N   UNL d   1      41.227  27.198  16.164 -0.27 -0.08    -0.248 N 
DOCKED: ATOM     29 FE   UNL d   1      40.454  29.033  15.801 -0.09 +0.00    +0.000 Fe
DOCKED: ATOM     30  O   UNL d   1      39.971  29.581  17.175 -0.87 +0.00    +0.000 OA
DOCKED: ATOM     31  O   UNL d   1      39.385  28.226  16.625 -0.77 +0.00    +0.000 OA
DOCKED: ENDROOT
DOCKED: BRANCH   6  32
DOCKED: ATOM     32  C   UNL d   1      44.927  29.833  19.150 -0.27 +0.03    +0.052 C 
DOCKED: BRANCH  32  33
DOCKED: ATOM     33  C   UNL d   1      44.755  28.528  19.921 -0.10 +0.09    +0.115 C 
DOCKED: BRANCH  33  34
DOCKED: ATOM     34  C   UNL d   1      45.958  28.198  20.769 -0.14 +0.18    +0.139 C 
DOCKED: ATOM     35  O   UNL d   1      46.647  29.101  21.217 -0.46 -1.09    -0.650 OA
DOCKED: BRANCH  34  36
DOCKED: ATOM     36  O   UNL d   1      46.310  26.920  21.024 +0.03 -0.81    -0.776 OA
DOCKED: ATOM     37  H   UNL d   1      45.669  26.201  21.005 +0.05 +0.14    +0.167 HD
DOCKED: ENDBRANCH  34  36
DOCKED: ENDBRANCH  33  34
DOCKED: ENDBRANCH  32  33
DOCKED: ENDBRANCH   6  32
DOCKED: BRANCH  22  38
DOCKED: ATOM     38  C   UNL d   1      43.681  24.768  17.535 -0.33 +0.02    +0.052 C 
DOCKED: BRANCH  38  39
DOCKED: ATOM     39  C   UNL d   1      43.232  24.194  18.877 -0.33 +0.05    +0.115 C 
DOCKED: BRANCH  39  40
DOCKED: ATOM     40  C   UNL d   1      44.000  24.775  20.038 -0.26 +0.08    +0.139 C 
DOCKED: ATOM     41  O   UNL d   1      43.550  25.735  20.642 -0.04 -0.36    -0.650 OA
DOCKED: BRANCH  40  42
DOCKED: ATOM     42  O   UNL d   1      45.154  24.221  20.456 -0.29 -0.47    -0.776 OA
DOCKED: ATOM     43  H   UNL d   1      45.899  24.762  20.744 +0.05 +0.10    +0.167 HD
DOCKED: ENDBRANCH  40  42
DOCKED: ENDBRANCH  39  40
DOCKED: ENDBRANCH  38  39
DOCKED: ENDBRANCH  22  38
DOCKED: BRANCH  12  44
DOCKED: ATOM     44  C   UNL d   1      37.603  33.557  13.719 -0.48 +0.00    +0.004 C 
DOCKED: ATOM     45  C   UNL d   1      36.524  33.203  13.020 -0.54 +0.00    +0.012 C 
DOCKED: ENDBRANCH  12  44
DOCKED: BRANCH  17  46
DOCKED: ATOM     46  C   UNL d   1      37.024  25.399  13.337 -0.64 +0.00    +0.004 C 
DOCKED: ATOM     47  C   UNL d   1      35.923  24.824  13.839 -0.70 +0.00    +0.012 C 
DOCKED: ENDBRANCH  17  46
DOCKED: TORSDOF 10
DOCKED: TER
DOCKED: ENDMDL
________________________________________________________________________________


	BEGINNING GENETIC ALGORITHM DOCKING 94 of 100
Run: 94 Seed: 1551367281 362757043 [ Run 94 of 100 GA/GALS ]
Beginning LAMARCKIAN GENETIC ALGORITHM (LGA), with a maximum of 25000000 energy evaluations.

Final-Value: -20.104


	FINAL GENETIC ALGORITHM DOCKED STATE
	_______________________________________________


Detailed state:  trans 41.321 28.504 16.001 quatxyzw -0.282707 0.385214 0.877097 -0.048852 center 8.287 34.468 -0.670 ntor 10 66.8145 176.9943 -22.4277 -101.1966 -129.3532 82.7150 -24.4308 84.4319 177.3874 178.3773
State:	 41.321  28.504  16.001  -0.283  0.386  0.878 -174.400     66.81  176.99  -22.43 -101.20 -129.35   82.72  -24.43   84.43  177.39  178.38

DOCKED: MODEL       94
DOCKED: USER    Run = 94
DOCKED: USER    DPF = D:/Protein_go_brrr/autodock/final/2DN3/heme_O2/dock.dpf
DOCKED: USER  
DOCKED: USER    Estimated Free Energy of Binding    =  -15.32 kcal/mol  [=(1)+(2)+(3)-(4)]
DOCKED: USER    Estimated Inhibition Constant, Ki   =    5.92 pM (picomolar)  [Temperature = 298.15 K]
DOCKED: USER    
DOCKED: USER    (1) Final Intermolecular Energy     =  -18.30 kcal/mol
DOCKED: USER        vdW + Hbond + desolv Energy     =  -16.12 kcal/mol
DOCKED: USER        Electrostatic Energy            =   -2.18 kcal/mol
DOCKED: USER    (2) Final Total Internal Energy     =   -1.80 kcal/mol
DOCKED: USER    (3) Torsional Free Energy           =   +2.98 kcal/mol
DOCKED: USER    (4) Unbound System's Energy  [=(2)] =   -1.80 kcal/mol
DOCKED: USER    
DOCKED: USER    
DOCKED: USER    NEWDPF move heme_O2_opt.pdbqt
DOCKED: USER    NEWDPF about 8.287000 34.468000 -0.670000
DOCKED: USER    NEWDPF tran0 41.321197 28.504114 16.001366
DOCKED: USER    NEWDPF quaternion0 -0.282707 0.385214 0.877097 -0.048852
DOCKED: USER    NEWDPF axisangle0 -0.283045 0.385675 0.878146 -174.399737
DOCKED: USER    NEWDPF quat0 -0.283045 0.385675 0.878146 -174.399737
DOCKED: USER    NEWDPF dihe0 66.81 176.99 -22.43 -101.20 -129.35 82.72 -24.43 84.43 177.39 178.38 
DOCKED: USER  keepresnum = 1 
DOCKED: USER  
DOCKED: REMARK  10 active torsions:
DOCKED: REMARK  status: ('A' for Active; 'I' for Inactive)
DOCKED: REMARK    1  A    between atoms: C_6  and  C_10 
DOCKED: REMARK    2  A    between atoms: C_10  and  C_11 
DOCKED: REMARK    3  A    between atoms: C_11  and  C_12 
DOCKED: REMARK    4  A    between atoms: C_12  and  O_14 
DOCKED: REMARK    5  A    between atoms: C_17  and  C_20 
DOCKED: REMARK    6  A    between atoms: C_24  and  C_27 
DOCKED: REMARK    7  A    between atoms: C_31  and  C_34 
DOCKED: REMARK    8  A    between atoms: C_34  and  C_35 
DOCKED: REMARK    9  A    between atoms: C_35  and  C_36 
DOCKED: REMARK   10  A    between atoms: C_36  and  O_38 
DOCKED: USER                              x       y       z     vdW  Elec       q    Type
DOCKED: USER                           _______ _______ _______ _____ _____    ______ ____
DOCKED: ROOT
DOCKED: ATOM      1  C   UNL d   1      43.067  27.768  16.955 -0.32 +0.02    +0.064 A 
DOCKED: ATOM      2  C   UNL d   1      41.214  32.125  16.575 -0.39 +0.01    +0.064 A 
DOCKED: ATOM      3  C   UNL d   1      37.573  30.445  13.925 -0.37 +0.01    +0.064 C 
DOCKED: ATOM      4  C   UNL d   1      39.211  25.888  14.711 -0.40 +0.01    +0.064 A 
DOCKED: ATOM      5  C   UNL d   1      42.859  29.090  17.069 -0.30 +0.02    +0.066 A 
DOCKED: ATOM      6  C   UNL d   1      43.715  29.961  17.750 -0.32 -0.01    -0.021 A 
DOCKED: ATOM      7  C   UNL d   1      43.157  31.215  17.678 -0.35 -0.01    -0.025 A 
DOCKED: ATOM      8  C   UNL d   1      42.001  31.085  16.913 -0.35 +0.02    +0.066 A 
DOCKED: ATOM      9  C   UNL d   1      43.716  32.451  18.348 -0.37 +0.01    +0.051 C 
DOCKED: ATOM     10  C   UNL d   1      40.003  32.053  15.756 -0.37 +0.01    +0.066 A 
DOCKED: ATOM     11  C   UNL d   1      39.316  33.183  15.298 -0.43 -0.00    -0.021 A 
DOCKED: ATOM     12  C   UNL d   1      38.273  32.720  14.518 -0.41 +0.00    +0.000 A 
DOCKED: ATOM     13  C   UNL d   1      38.378  31.302  14.554 -0.35 +0.01    +0.070 A 
DOCKED: ATOM     14  C   UNL d   1      39.656  34.644  15.572 -0.51 +0.01    +0.052 C 
DOCKED: ATOM     15  C   UNL d   1      37.625  29.004  13.965 -0.36 +0.01    +0.066 A 
DOCKED: ATOM     16  C   UNL d   1      36.656  28.163  13.419 -0.45 -0.00    -0.021 A 
DOCKED: ATOM     17  C   UNL d   1      37.101  26.858  13.632 -0.45 +0.00    +0.000 A 
DOCKED: ATOM     18  C   UNL d   1      38.326  27.003  14.299 -0.37 +0.01    +0.070 A 
DOCKED: ATOM     19  C   UNL d   1      35.379  28.672  12.800 -0.61 +0.01    +0.052 C 
DOCKED: ATOM     20  C   UNL d   1      40.370  25.990  15.389 -0.38 +0.02    +0.066 A 
DOCKED: ATOM     21  C   UNL d   1      41.170  24.904  15.734 -0.43 -0.01    -0.025 A 
DOCKED: ATOM     22  C   UNL d   1      42.287  25.423  16.350 -0.21 -0.01    -0.021 A 
DOCKED: ATOM     23  C   UNL d   1      42.118  26.811  16.375 -0.31 +0.02    +0.066 A 
DOCKED: ATOM     24  C   UNL d   1      40.882  23.445  15.492 -0.47 +0.01    +0.051 C 
DOCKED: ATOM     25  N   UNL d   1      41.784  29.764  16.593 -0.06 -0.09    -0.248 N 
DOCKED: ATOM     26  N   UNL d   1      39.431  30.905  15.313 -0.11 -0.06    -0.248 N 
DOCKED: ATOM     27  N   UNL d   1      38.591  28.309  14.559 -0.21 -0.06    -0.248 N 
DOCKED: ATOM     28  N   UNL d   1      40.930  27.148  15.830 -0.27 -0.07    -0.248 N 
DOCKED: ATOM     29 FE   UNL d   1      40.184  29.011  15.573 -0.07 +0.00    +0.000 Fe
DOCKED: ATOM     30  O   UNL d   1      39.831  29.539  16.994 -0.92 +0.00    +0.000 OA
DOCKED: ATOM     31  O   UNL d   1      39.163  28.213  16.464 -0.64 +0.00    +0.000 OA
DOCKED: ENDROOT
DOCKED: BRANCH   6  32
DOCKED: ATOM     32  C   UNL d   1      44.938  29.609  18.557 -0.26 +0.02    +0.052 C 
DOCKED: BRANCH  32  33
DOCKED: ATOM     33  C   UNL d   1      44.662  29.554  20.057 -0.11 +0.09    +0.115 C 
DOCKED: BRANCH  33  34
DOCKED: ATOM     34  C   UNL d   1      45.609  28.629  20.782 -0.11 +0.19    +0.139 C 
DOCKED: ATOM     35  O   UNL d   1      46.734  29.014  21.058 -0.45 -0.97    -0.650 OA
DOCKED: BRANCH  34  36
DOCKED: ATOM     36  O   UNL d   1      45.250  27.371  21.109 -0.06 -1.02    -0.776 OA
DOCKED: ATOM     37  H   UNL d   1      45.093  26.694  20.441 +0.06 +0.13    +0.167 HD
DOCKED: ENDBRANCH  34  36
DOCKED: ENDBRANCH  33  34
DOCKED: ENDBRANCH  32  33
DOCKED: ENDBRANCH   6  32
DOCKED: BRANCH  22  38
DOCKED: ATOM     38  C   UNL d   1      43.419  24.620  16.938 -0.29 +0.02    +0.052 C 
DOCKED: BRANCH  38  39
DOCKED: ATOM     39  C   UNL d   1      43.079  24.059  18.317 -0.36 +0.04    +0.115 C 
DOCKED: BRANCH  39  40
DOCKED: ATOM     40  C   UNL d   1      43.605  24.923  19.436 -0.31 +0.07    +0.139 C 
DOCKED: ATOM     41  O   UNL d   1      44.205  24.411  20.367 -0.55 -0.41    -0.650 OA
DOCKED: BRANCH  40  42
DOCKED: ATOM     42  O   UNL d   1      43.468  26.263  19.404 +0.24 -0.36    -0.776 OA
DOCKED: ATOM     43  H   UNL d   1      43.798  26.822  20.117 +0.08 +0.11    +0.167 HD
DOCKED: ENDBRANCH  40  42
DOCKED: ENDBRANCH  39  40
DOCKED: ENDBRANCH  38  39
DOCKED: ENDBRANCH  22  38
DOCKED: BRANCH  12  44
DOCKED: ATOM     44  C   UNL d   1      37.301  33.659  13.835 -0.49 +0.00    +0.004 C 
DOCKED: ATOM     45  C   UNL d   1      36.599  33.444  12.723 -0.56 +0.00    +0.012 C 
DOCKED: ENDBRANCH  12  44
DOCKED: BRANCH  17  46
DOCKED: ATOM     46  C   UNL d   1      36.460  25.532  13.321 -0.66 +0.00    +0.004 C 
DOCKED: ATOM     47  C   UNL d   1      35.927  24.648  14.175 -0.70 +0.00    +0.012 C 
DOCKED: ENDBRANCH  17  46
DOCKED: TORSDOF 10
DOCKED: TER
DOCKED: ENDMDL
________________________________________________________________________________


	BEGINNING GENETIC ALGORITHM DOCKING 95 of 100
Run: 95 Seed: 1909278565 1619800471 [ Run 95 of 100 GA/GALS ]
Beginning LAMARCKIAN GENETIC ALGORITHM (LGA), with a maximum of 25000000 energy evaluations.

Final-Value: -12.138


	FINAL GENETIC ALGORITHM DOCKED STATE
	_______________________________________________


Detailed state:  trans 27.818 40.889 -0.782 quatxyzw -0.184592 -0.741964 0.420250 0.488676 center 8.287 34.468 -0.670 ntor 10 132.1571 102.1799 -79.1409 116.1970 169.3083 -31.9512 -74.4318 79.9256 -161.6403 -160.4105
State:	 27.818  40.889  -0.782  -0.212 -0.850  0.482 121.493    132.16  102.18  -79.14  116.20  169.31  -31.95  -74.43   79.93 -161.64 -160.41

DOCKED: MODEL       95
DOCKED: USER    Run = 95
DOCKED: USER    DPF = D:/Protein_go_brrr/autodock/final/2DN3/heme_O2/dock.dpf
DOCKED: USER  
DOCKED: USER    Estimated Free Energy of Binding    =   -6.53 kcal/mol  [=(1)+(2)+(3)-(4)]
DOCKED: USER    Estimated Inhibition Constant, Ki   =   16.37 uM (micromolar)  [Temperature = 298.15 K]
DOCKED: USER    
DOCKED: USER    (1) Final Intermolecular Energy     =   -9.51 kcal/mol
DOCKED: USER        vdW + Hbond + desolv Energy     =   -7.04 kcal/mol
DOCKED: USER        Electrostatic Energy            =   -2.47 kcal/mol
DOCKED: USER    (2) Final Total Internal Energy     =   -2.63 kcal/mol
DOCKED: USER    (3) Torsional Free Energy           =   +2.98 kcal/mol
DOCKED: USER    (4) Unbound System's Energy  [=(2)] =   -2.63 kcal/mol
DOCKED: USER    
DOCKED: USER    
DOCKED: USER    NEWDPF move heme_O2_opt.pdbqt
DOCKED: USER    NEWDPF about 8.287000 34.468000 -0.670000
DOCKED: USER    NEWDPF tran0 27.817626 40.888750 -0.782004
DOCKED: USER    NEWDPF quaternion0 -0.184592 -0.741964 0.420250 0.488676
DOCKED: USER    NEWDPF axisangle0 -0.211575 -0.850423 0.481681 121.492757
DOCKED: USER    NEWDPF quat0 -0.211575 -0.850423 0.481681 121.492757
DOCKED: USER    NEWDPF dihe0 132.16 102.18 -79.14 116.20 169.31 -31.95 -74.43 79.93 -161.64 -160.41 
DOCKED: USER  keepresnum = 1 
DOCKED: USER  
DOCKED: REMARK  10 active torsions:
DOCKED: REMARK  status: ('A' for Active; 'I' for Inactive)
DOCKED: REMARK    1  A    between atoms: C_6  and  C_10 
DOCKED: REMARK    2  A    between atoms: C_10  and  C_11 
DOCKED: REMARK    3  A    between atoms: C_11  and  C_12 
DOCKED: REMARK    4  A    between atoms: C_12  and  O_14 
DOCKED: REMARK    5  A    between atoms: C_17  and  C_20 
DOCKED: REMARK    6  A    between atoms: C_24  and  C_27 
DOCKED: REMARK    7  A    between atoms: C_31  and  C_34 
DOCKED: REMARK    8  A    between atoms: C_34  and  C_35 
DOCKED: REMARK    9  A    between atoms: C_35  and  C_36 
DOCKED: REMARK   10  A    between atoms: C_36  and  O_38 
DOCKED: USER                              x       y       z     vdW  Elec       q    Type
DOCKED: USER                           _______ _______ _______ _____ _____    ______ ____
DOCKED: ROOT
DOCKED: ATOM      1  C   UNL d   1      28.623  42.136   0.733 -0.16 +0.02    +0.064 A 
DOCKED: ATOM      2  C   UNL d   1      28.335  37.417   0.280 -0.13 +0.01    +0.064 A 
DOCKED: ATOM      3  C   UNL d   1      26.052  37.867  -3.925 -0.26 +0.00    +0.064 C 
DOCKED: ATOM      4  C   UNL d   1      26.767  42.715  -3.701 -0.17 +0.01    +0.064 A 
DOCKED: ATOM      5  C   UNL d   1      28.733  40.816   0.952 -0.15 +0.01    +0.066 A 
DOCKED: ATOM      6  C   UNL d   1      29.320  40.257   2.091 -0.17 -0.00    -0.021 A 
DOCKED: ATOM      7  C   UNL d   1      29.276  38.891   1.941 -0.15 -0.00    -0.025 A 
DOCKED: ATOM      8  C   UNL d   1      28.620  38.652   0.736 -0.13 +0.01    +0.066 A 
DOCKED: ATOM      9  C   UNL d   1      29.872  37.894   2.911 -0.15 +0.00    +0.051 C 
DOCKED: ATOM     10  C   UNL d   1      27.630  37.104  -0.964 -0.09 +0.01    +0.066 A 
DOCKED: ATOM     11  C   UNL d   1      27.216  35.813  -1.310 -0.17 -0.00    -0.021 A 
DOCKED: ATOM     12  C   UNL d   1      26.540  35.924  -2.511 -0.21 +0.00    +0.000 A 
DOCKED: ATOM     13  C   UNL d   1      26.592  37.306  -2.843 -0.20 +0.01    +0.070 A 
DOCKED: ATOM     14  C   UNL d   1      27.433  34.530  -0.514 -0.18 +0.01    +0.052 C 
DOCKED: ATOM     15  C   UNL d   1      26.112  39.255  -4.315 -0.18 +0.01    +0.066 A 
DOCKED: ATOM     16  C   UNL d   1      25.670  39.752  -5.541 -0.18 -0.00    -0.021 A 
DOCKED: ATOM     17  C   UNL d   1      25.865  41.132  -5.500 -0.18 +0.00    +0.000 A 
DOCKED: ATOM     18  C   UNL d   1      26.416  41.378  -4.235 -0.19 +0.01    +0.070 A 
DOCKED: ATOM     19  C   UNL d   1      25.159  38.868  -6.650 -0.14 +0.01    +0.052 C 
DOCKED: ATOM     20  C   UNL d   1      27.337  42.982  -2.510 -0.15 +0.01    +0.066 A 
DOCKED: ATOM     21  C   UNL d   1      27.627  44.265  -2.054 -0.11 -0.01    -0.025 A 
DOCKED: ATOM     22  C   UNL d   1      28.132  44.121  -0.781 -0.13 -0.01    -0.021 A 
DOCKED: ATOM     23  C   UNL d   1      28.148  42.749  -0.513 -0.15 +0.02    +0.066 A 
DOCKED: ATOM     24  C   UNL d   1      27.437  45.562  -2.796 -0.07 +0.01    +0.051 C 
DOCKED: ATOM     25  N   UNL d   1      28.344  39.838   0.097 -0.06 -0.04    -0.248 N 
DOCKED: ATOM     26  N   UNL d   1      27.260  38.016  -1.898 -0.03 -0.03    -0.248 N 
DOCKED: ATOM     27  N   UNL d   1      26.629  40.220  -3.559 -0.09 -0.04    -0.248 N 
DOCKED: ATOM     28  N   UNL d   1      27.706  42.058  -1.584 -0.11 -0.06    -0.248 N 
DOCKED: ATOM     29 FE   UNL d   1      27.484  40.052  -1.743 -0.06 +0.00    +0.000 Fe
DOCKED: ATOM     30  O   UNL d   1      28.922  39.458  -1.787 -0.14 +0.00    +0.000 OA
DOCKED: ATOM     31  O   UNL d   1      28.477  40.508  -2.874 -0.14 +0.00    +0.000 OA
DOCKED: ENDROOT
DOCKED: BRANCH   6  32
DOCKED: ATOM     32  C   UNL d   1      30.020  40.976   3.215 -0.30 +0.00    +0.052 C 
DOCKED: BRANCH  32  33
DOCKED: ATOM     33  C   UNL d   1      31.436  41.410   2.849 -0.24 +0.04    +0.115 C 
DOCKED: BRANCH  33  34
DOCKED: ATOM     34  C   UNL d   1      31.526  42.886   2.548 -0.26 +0.10    +0.139 C 
DOCKED: ATOM     35  O   UNL d   1      30.639  43.634   2.927 +0.06 -0.45    -0.650 OA
DOCKED: BRANCH  34  36
DOCKED: ATOM     36  O   UNL d   1      32.554  43.398   1.840 -0.06 -1.20    -0.776 OA
DOCKED: ATOM     37  H   UNL d   1      32.416  44.010   1.108 +0.04 +0.35    +0.167 HD
DOCKED: ENDBRANCH  34  36
DOCKED: ENDBRANCH  33  34
DOCKED: ENDBRANCH  32  33
DOCKED: ENDBRANCH   6  32
DOCKED: BRANCH  22  38
DOCKED: ATOM     38  C   UNL d   1      28.630  45.239   0.098 -0.14 +0.03    +0.052 C 
DOCKED: BRANCH  38  39
DOCKED: ATOM     39  C   UNL d   1      29.767  46.026  -0.549 -0.08 +0.05    +0.115 C 
DOCKED: BRANCH  39  40
DOCKED: ATOM     40  C   UNL d   1      31.120  45.633  -0.009 -0.13 +0.13    +0.139 C 
DOCKED: ATOM     41  O   UNL d   1      31.919  45.063  -0.733 -0.32 -0.78    -0.650 OA
DOCKED: BRANCH  40  42
DOCKED: ATOM     42  O   UNL d   1      31.484  45.948   1.250 -0.38 -0.93    -0.776 OA
DOCKED: ATOM     43  H   UNL d   1      31.505  45.284   1.950 -0.05 +0.20    +0.167 HD
DOCKED: ENDBRANCH  40  42
DOCKED: ENDBRANCH  39  40
DOCKED: ENDBRANCH  38  39
DOCKED: ENDBRANCH  22  38
DOCKED: BRANCH  12  44
DOCKED: ATOM     44  C   UNL d   1      25.931  34.724  -3.205 -0.18 -0.00    +0.004 C 
DOCKED: ATOM     45  C   UNL d   1      24.669  34.300  -3.150 -0.31 -0.00    +0.012 C 
DOCKED: ENDBRANCH  12  44
DOCKED: BRANCH  17  46
DOCKED: ATOM     46  C   UNL d   1      25.635  42.194  -6.543 -0.12 +0.00    +0.004 C 
DOCKED: ATOM     47  C   UNL d   1      24.693  43.145  -6.563 -0.14 +0.00    +0.012 C 
DOCKED: ENDBRANCH  17  46
DOCKED: TORSDOF 10
DOCKED: TER
DOCKED: ENDMDL
________________________________________________________________________________


	BEGINNING GENETIC ALGORITHM DOCKING 96 of 100
Run: 96 Seed: 495363597 431552172 [ Run 96 of 100 GA/GALS ]
Beginning LAMARCKIAN GENETIC ALGORITHM (LGA), with a maximum of 25000000 energy evaluations.

Final-Value: -20.478


	FINAL GENETIC ALGORITHM DOCKED STATE
	_______________________________________________


Detailed state:  trans 41.462 29.085 16.317 quatxyzw -0.338647 0.405399 0.849078 0.006130 center 8.287 34.468 -0.670 ntor 10 -125.9330 33.8942 -4.5929 -53.9104 -72.7423 130.3376 -45.0021 -6.9342 -133.7166 141.8097
State:	 41.462  29.085  16.317  -0.339  0.405  0.849 179.298   -125.93   33.89   -4.59  -53.91  -72.74  130.34  -45.00   -6.93 -133.72  141.81

DOCKED: MODEL       96
DOCKED: USER    Run = 96
DOCKED: USER    DPF = D:/Protein_go_brrr/autodock/final/2DN3/heme_O2/dock.dpf
DOCKED: USER  
DOCKED: USER    Estimated Free Energy of Binding    =  -15.30 kcal/mol  [=(1)+(2)+(3)-(4)]
DOCKED: USER    Estimated Inhibition Constant, Ki   =    6.11 pM (picomolar)  [Temperature = 298.15 K]
DOCKED: USER    
DOCKED: USER    (1) Final Intermolecular Energy     =  -18.28 kcal/mol
DOCKED: USER        vdW + Hbond + desolv Energy     =  -16.16 kcal/mol
DOCKED: USER        Electrostatic Energy            =   -2.12 kcal/mol
DOCKED: USER    (2) Final Total Internal Energy     =   -2.20 kcal/mol
DOCKED: USER    (3) Torsional Free Energy           =   +2.98 kcal/mol
DOCKED: USER    (4) Unbound System's Energy  [=(2)] =   -2.20 kcal/mol
DOCKED: USER    
DOCKED: USER    
DOCKED: USER    NEWDPF move heme_O2_opt.pdbqt
DOCKED: USER    NEWDPF about 8.287000 34.468000 -0.670000
DOCKED: USER    NEWDPF tran0 41.461943 29.084520 16.316840
DOCKED: USER    NEWDPF quaternion0 -0.338647 0.405399 0.849078 0.006130
DOCKED: USER    NEWDPF axisangle0 -0.338653 0.405406 0.849094 179.297505
DOCKED: USER    NEWDPF quat0 -0.338653 0.405406 0.849094 179.297505
DOCKED: USER    NEWDPF dihe0 -125.93 33.89 -4.59 -53.91 -72.74 130.34 -45.00 -6.93 -133.72 141.81 
DOCKED: USER  keepresnum = 1 
DOCKED: USER  
DOCKED: REMARK  10 active torsions:
DOCKED: REMARK  status: ('A' for Active; 'I' for Inactive)
DOCKED: REMARK    1  A    between atoms: C_6  and  C_10 
DOCKED: REMARK    2  A    between atoms: C_10  and  C_11 
DOCKED: REMARK    3  A    between atoms: C_11  and  C_12 
DOCKED: REMARK    4  A    between atoms: C_12  and  O_14 
DOCKED: REMARK    5  A    between atoms: C_17  and  C_20 
DOCKED: REMARK    6  A    between atoms: C_24  and  C_27 
DOCKED: REMARK    7  A    between atoms: C_31  and  C_34 
DOCKED: REMARK    8  A    between atoms: C_34  and  C_35 
DOCKED: REMARK    9  A    between atoms: C_35  and  C_36 
DOCKED: REMARK   10  A    between atoms: C_36  and  O_38 
DOCKED: USER                              x       y       z     vdW  Elec       q    Type
DOCKED: USER                           _______ _______ _______ _____ _____    ______ ____
DOCKED: ROOT
DOCKED: ATOM      1  C   UNL d   1      43.208  28.666  17.446 -0.28 +0.02    +0.064 A 
DOCKED: ATOM      2  C   UNL d   1      40.873  32.698  16.526 -0.43 +0.01    +0.064 A 
DOCKED: ATOM      3  C   UNL d   1      37.673  30.337  13.827 -0.40 +0.01    +0.064 C 
DOCKED: ATOM      4  C   UNL d   1      39.789  26.116  15.156 -0.37 +0.01    +0.064 A 
DOCKED: ATOM      5  C   UNL d   1      42.833  29.955  17.418 -0.32 +0.02    +0.066 A 
DOCKED: ATOM      6  C   UNL d   1      43.522  30.985  18.064 -0.34 -0.01    -0.021 A 
DOCKED: ATOM      7  C   UNL d   1      42.822  32.147  17.834 -0.39 -0.01    -0.025 A 
DOCKED: ATOM      8  C   UNL d   1      41.752  31.802  17.013 -0.39 +0.01    +0.066 A 
DOCKED: ATOM      9  C   UNL d   1      43.175  33.499  18.414 -0.44 +0.01    +0.051 C 
DOCKED: ATOM     10  C   UNL d   1      39.744  32.400  15.643 -0.39 +0.01    +0.066 A 
DOCKED: ATOM     11  C   UNL d   1      38.961  33.387  15.035 -0.43 -0.00    -0.021 A 
DOCKED: ATOM     12  C   UNL d   1      38.044  32.726  14.238 -0.40 +0.00    +0.000 A 
DOCKED: ATOM     13  C   UNL d   1      38.318  31.342  14.419 -0.36 +0.01    +0.070 A 
DOCKED: ATOM     14  C   UNL d   1      39.099  34.897  15.186 -0.56 +0.01    +0.052 C 
DOCKED: ATOM     15  C   UNL d   1      37.896  28.924  14.011 -0.36 +0.01    +0.066 A 
DOCKED: ATOM     16  C   UNL d   1      37.080  27.920  13.489 -0.43 -0.00    -0.021 A 
DOCKED: ATOM     17  C   UNL d   1      37.664  26.707  13.856 -0.45 +0.00    +0.000 A 
DOCKED: ATOM     18  C   UNL d   1      38.808  27.067  14.582 -0.37 +0.01    +0.070 A 
DOCKED: ATOM     19  C   UNL d   1      35.801  28.205  12.743 -0.62 +0.01    +0.052 C 
DOCKED: ATOM     20  C   UNL d   1      40.873  26.425  15.894 -0.39 +0.02    +0.066 A 
DOCKED: ATOM     21  C   UNL d   1      41.771  25.486  16.393 -0.36 -0.01    -0.025 A 
DOCKED: ATOM     22  C   UNL d   1      42.766  26.196  17.025 -0.32 -0.01    -0.021 A 
DOCKED: ATOM     23  C   UNL d   1      42.428  27.547  16.904 -0.33 +0.02    +0.066 A 
DOCKED: ATOM     24  C   UNL d   1      41.681  23.986  16.276 -0.52 +0.01    +0.051 C 
DOCKED: ATOM     25  N   UNL d   1      41.722  30.441  16.811 -0.20 -0.07    -0.248 N 
DOCKED: ATOM     26  N   UNL d   1      39.351  31.152  15.279 -0.20 -0.05    -0.248 N 
DOCKED: ATOM     27  N   UNL d   1      38.892  28.414  14.730 -0.15 -0.07    -0.248 N 
DOCKED: ATOM     28  N   UNL d   1      41.253  27.679  16.254 -0.25 -0.09    -0.248 N 
DOCKED: ATOM     29 FE   UNL d   1      40.307  29.402  15.769 -0.08 +0.00    +0.000 Fe
DOCKED: ATOM     30  O   UNL d   1      39.786  30.003  17.107 -0.69 +0.00    +0.000 OA
DOCKED: ATOM     31  O   UNL d   1      39.327  28.562  16.668 -0.80 +0.00    +0.000 OA
DOCKED: ENDROOT
DOCKED: BRANCH   6  32
DOCKED: ATOM     32  C   UNL d   1      44.714  30.867  18.977 -0.29 +0.02    +0.052 C 
DOCKED: BRANCH  32  33
DOCKED: ATOM     33  C   UNL d   1      44.519  29.825  20.075 -0.04 +0.09    +0.115 C 
DOCKED: BRANCH  33  34
DOCKED: ATOM     34  C   UNL d   1      45.707  28.906  20.213 -0.19 +0.13    +0.139 C 
DOCKED: ATOM     35  O   UNL d   1      46.125  28.623  21.324 -0.24 -1.26    -0.650 OA
DOCKED: BRANCH  34  36
DOCKED: ATOM     36  O   UNL d   1      46.341  28.408  19.131 +0.05 -0.46    -0.776 OA
DOCKED: ATOM     37  H   UNL d   1      46.477  27.461  19.009 +0.05 +0.10    +0.167 HD
DOCKED: ENDBRANCH  34  36
DOCKED: ENDBRANCH  33  34
DOCKED: ENDBRANCH  32  33
DOCKED: ENDBRANCH   6  32
DOCKED: BRANCH  22  38
DOCKED: ATOM     38  C   UNL d   1      43.940  25.600  17.759 -0.30 +0.02    +0.052 C 
DOCKED: BRANCH  38  39
DOCKED: ATOM     39  C   UNL d   1      43.923  25.932  19.250 -0.20 +0.06    +0.115 C 
DOCKED: BRANCH  39  40
DOCKED: ATOM     40  C   UNL d   1      44.982  25.181  20.019 -0.18 +0.08    +0.139 C 
DOCKED: ATOM     41  O   UNL d   1      44.753  24.051  20.419 -0.53 -0.42    -0.650 OA
DOCKED: BRANCH  40  42
DOCKED: ATOM     42  O   UNL d   1      46.199  25.717  20.231 +0.09 -0.50    -0.776 OA
DOCKED: ATOM     43  H   UNL d   1      46.314  26.660  20.397 +0.05 +0.13    +0.167 HD
DOCKED: ENDBRANCH  40  42
DOCKED: ENDBRANCH  39  40
DOCKED: ENDBRANCH  38  39
DOCKED: ENDBRANCH  22  38
DOCKED: BRANCH  12  44
DOCKED: ATOM     44  C   UNL d   1      37.019  33.469  13.407 -0.51 +0.00    +0.004 C 
DOCKED: ATOM     45  C   UNL d   1      36.198  32.971  12.483 -0.59 +0.00    +0.012 C 
DOCKED: ENDBRANCH  12  44
DOCKED: BRANCH  17  46
DOCKED: ATOM     46  C   UNL d   1      37.214  25.288  13.636 -0.63 +0.00    +0.004 C 
DOCKED: ATOM     47  C   UNL d   1      36.089  24.699  14.062 -0.69 +0.00    +0.012 C 
DOCKED: ENDBRANCH  17  46
DOCKED: TORSDOF 10
DOCKED: TER
DOCKED: ENDMDL
________________________________________________________________________________


	BEGINNING GENETIC ALGORITHM DOCKING 97 of 100
Run: 97 Seed: 17489983 1827329368 [ Run 97 of 100 GA/GALS ]
Beginning LAMARCKIAN GENETIC ALGORITHM (LGA), with a maximum of 25000000 energy evaluations.

Final-Value: -20.459


	FINAL GENETIC ALGORITHM DOCKED STATE
	_______________________________________________


Detailed state:  trans 41.471 28.933 16.310 quatxyzw -0.316606 0.395452 0.862147 -0.008933 center 8.287 34.468 -0.670 ntor 10 46.6779 118.0289 -23.1082 -57.4361 173.0318 56.2062 6.2201 49.9026 -125.1053 -168.9489
State:	 41.471  28.933  16.310  -0.317  0.395  0.862 -178.976     46.68  118.03  -23.11  -57.44  173.03   56.21    6.22   49.90 -125.11 -168.95

DOCKED: MODEL       97
DOCKED: USER    Run = 97
DOCKED: USER    DPF = D:/Protein_go_brrr/autodock/final/2DN3/heme_O2/dock.dpf
DOCKED: USER  
DOCKED: USER    Estimated Free Energy of Binding    =  -16.01 kcal/mol  [=(1)+(2)+(3)-(4)]
DOCKED: USER    Estimated Inhibition Constant, Ki   =    1.85 pM (picomolar)  [Temperature = 298.15 K]
DOCKED: USER    
DOCKED: USER    (1) Final Intermolecular Energy     =  -18.99 kcal/mol
DOCKED: USER        vdW + Hbond + desolv Energy     =  -16.62 kcal/mol
DOCKED: USER        Electrostatic Energy            =   -2.37 kcal/mol
DOCKED: USER    (2) Final Total Internal Energy     =   -1.47 kcal/mol
DOCKED: USER    (3) Torsional Free Energy           =   +2.98 kcal/mol
DOCKED: USER    (4) Unbound System's Energy  [=(2)] =   -1.47 kcal/mol
DOCKED: USER    
DOCKED: USER    
DOCKED: USER    NEWDPF move heme_O2_opt.pdbqt
DOCKED: USER    NEWDPF about 8.287000 34.468000 -0.670000
DOCKED: USER    NEWDPF tran0 41.470553 28.933104 16.310453
DOCKED: USER    NEWDPF quaternion0 -0.316606 0.395452 0.862147 -0.008933
DOCKED: USER    NEWDPF axisangle0 -0.316619 0.395468 0.862182 -178.976393
DOCKED: USER    NEWDPF quat0 -0.316619 0.395468 0.862182 -178.976393
DOCKED: USER    NEWDPF dihe0 46.68 118.03 -23.11 -57.44 173.03 56.21 6.22 49.90 -125.11 -168.95 
DOCKED: USER  keepresnum = 1 
DOCKED: USER  
DOCKED: REMARK  10 active torsions:
DOCKED: REMARK  status: ('A' for Active; 'I' for Inactive)
DOCKED: REMARK    1  A    between atoms: C_6  and  C_10 
DOCKED: REMARK    2  A    between atoms: C_10  and  C_11 
DOCKED: REMARK    3  A    between atoms: C_11  and  C_12 
DOCKED: REMARK    4  A    between atoms: C_12  and  O_14 
DOCKED: REMARK    5  A    between atoms: C_17  and  C_20 
DOCKED: REMARK    6  A    between atoms: C_24  and  C_27 
DOCKED: REMARK    7  A    between atoms: C_31  and  C_34 
DOCKED: REMARK    8  A    between atoms: C_34  and  C_35 
DOCKED: REMARK    9  A    between atoms: C_35  and  C_36 
DOCKED: REMARK   10  A    between atoms: C_36  and  O_38 
DOCKED: USER                              x       y       z     vdW  Elec       q    Type
DOCKED: USER                           _______ _______ _______ _____ _____    ______ ____
DOCKED: ROOT
DOCKED: ATOM      1  C   UNL d   1      43.236  28.409  17.362 -0.28 +0.02    +0.064 A 
DOCKED: ATOM      2  C   UNL d   1      41.024  32.555  16.673 -0.42 +0.01    +0.064 A 
DOCKED: ATOM      3  C   UNL d   1      37.650  30.416  14.002 -0.37 +0.01    +0.064 C 
DOCKED: ATOM      4  C   UNL d   1      39.649  26.073  15.101 -0.34 +0.01    +0.064 A 
DOCKED: ATOM      5  C   UNL d   1      42.909  29.711  17.394 -0.31 +0.02    +0.066 A 
DOCKED: ATOM      6  C   UNL d   1      43.658  30.690  18.053 -0.33 -0.01    -0.021 A 
DOCKED: ATOM      7  C   UNL d   1      42.995  31.884  17.891 -0.38 -0.01    -0.025 A 
DOCKED: ATOM      8  C   UNL d   1      41.885  31.610  17.096 -0.39 +0.01    +0.066 A 
DOCKED: ATOM      9  C   UNL d   1      43.417  33.200  18.508 -0.43 +0.01    +0.051 C 
DOCKED: ATOM     10  C   UNL d   1      39.857  32.331  15.819 -0.39 +0.01    +0.066 A 
DOCKED: ATOM     11  C   UNL d   1      39.091  33.369  15.275 -0.43 -0.00    -0.021 A 
DOCKED: ATOM     12  C   UNL d   1      38.124  32.773  14.488 -0.40 +0.00    +0.000 A 
DOCKED: ATOM     13  C   UNL d   1      38.352  31.374  14.608 -0.35 +0.01    +0.070 A 
DOCKED: ATOM     14  C   UNL d   1      39.291  34.866  15.477 -0.55 +0.01    +0.052 C 
DOCKED: ATOM     15  C   UNL d   1      37.826  28.989  14.126 -0.35 +0.01    +0.066 A 
DOCKED: ATOM     16  C   UNL d   1      36.956  28.036  13.597 -0.43 -0.00    -0.021 A 
DOCKED: ATOM     17  C   UNL d   1      37.506  26.790  13.898 -0.44 +0.00    +0.000 A 
DOCKED: ATOM     18  C   UNL d   1      38.686  27.080  14.596 -0.36 +0.01    +0.070 A 
DOCKED: ATOM     19  C   UNL d   1      35.664  28.395  12.906 -0.61 +0.01    +0.052 C 
DOCKED: ATOM     20  C   UNL d   1      40.768  26.315  15.811 -0.38 +0.02    +0.066 A 
DOCKED: ATOM     21  C   UNL d   1      41.647  25.325  16.244 -0.36 -0.01    -0.025 A 
DOCKED: ATOM     22  C   UNL d   1      42.689  25.974  16.866 -0.29 -0.01    -0.021 A 
DOCKED: ATOM     23  C   UNL d   1      42.398  27.341  16.806 -0.33 +0.02    +0.066 A 
DOCKED: ATOM     24  C   UNL d   1      41.497  23.835  16.075 -0.54 +0.01    +0.051 C 
DOCKED: ATOM     25  N   UNL d   1      41.798  30.260  16.845 -0.21 -0.08    -0.248 N 
DOCKED: ATOM     26  N   UNL d   1      39.405  31.114  15.424 -0.19 -0.06    -0.248 N 
DOCKED: ATOM     27  N   UNL d   1      38.826  28.417  14.790 -0.17 -0.07    -0.248 N 
DOCKED: ATOM     28  N   UNL d   1      41.207  27.540  16.204 -0.25 -0.08    -0.248 N 
DOCKED: ATOM     29 FE   UNL d   1      40.310  29.312  15.815 -0.09 +0.00    +0.000 Fe
DOCKED: ATOM     30  O   UNL d   1      39.858  29.881  17.192 -0.73 +0.00    +0.000 OA
DOCKED: ATOM     31  O   UNL d   1      39.330  28.475  16.716 -0.81 +0.00    +0.000 OA
DOCKED: ENDROOT
DOCKED: BRANCH   6  32
DOCKED: ATOM     32  C   UNL d   1      44.875  30.494  18.920 -0.28 +0.02    +0.052 C 
DOCKED: BRANCH  32  33
DOCKED: ATOM     33  C   UNL d   1      44.757  29.285  19.842 -0.19 +0.09    +0.115 C 
DOCKED: BRANCH  33  34
DOCKED: ATOM     34  C   UNL d   1      45.937  29.153  20.772 -0.09 +0.18    +0.139 C 
DOCKED: ATOM     35  O   UNL d   1      46.621  30.133  21.022 -0.28 -0.78    -0.650 OA
DOCKED: BRANCH  34  36
DOCKED: ATOM     36  O   UNL d   1      46.275  27.966  21.316 -0.21 -1.29    -0.776 OA
DOCKED: ATOM     37  H   UNL d   1      46.332  27.160  20.790 +0.04 +0.17    +0.167 HD
DOCKED: ENDBRANCH  34  36
DOCKED: ENDBRANCH  33  34
DOCKED: ENDBRANCH  32  33
DOCKED: ENDBRANCH   6  32
DOCKED: BRANCH  22  38
DOCKED: ATOM     38  C   UNL d   1      43.863  25.309  17.537 -0.31 +0.02    +0.052 C 
DOCKED: BRANCH  38  39
DOCKED: ATOM     39  C   UNL d   1      43.456  24.529  18.784 -0.32 +0.05    +0.115 C 
DOCKED: BRANCH  39  40
DOCKED: ATOM     40  C   UNL d   1      44.329  24.845  19.973 -0.24 +0.08    +0.139 C 
DOCKED: ATOM     41  O   UNL d   1      44.391  24.061  20.906 -0.54 -0.46    -0.650 OA
DOCKED: BRANCH  40  42
DOCKED: ATOM     42  O   UNL d   1      45.086  25.959  20.003 +0.08 -0.49    -0.776 OA
DOCKED: ATOM     43  H   UNL d   1      44.979  26.624  20.693 +0.06 +0.14    +0.167 HD
DOCKED: ENDBRANCH  40  42
DOCKED: ENDBRANCH  39  40
DOCKED: ENDBRANCH  38  39
DOCKED: ENDBRANCH  22  38
DOCKED: BRANCH  12  44
DOCKED: ATOM     44  C   UNL d   1      37.100  33.583  13.720 -0.50 +0.00    +0.004 C 
DOCKED: ATOM     45  C   UNL d   1      36.472  33.252  12.593 -0.57 +0.00    +0.012 C 
DOCKED: ENDBRANCH  12  44
DOCKED: BRANCH  17  46
DOCKED: ATOM     46  C   UNL d   1      36.996  25.397  13.641 -0.63 +0.00    +0.004 C 
DOCKED: ATOM     47  C   UNL d   1      35.897  24.813  14.136 -0.70 +0.00    +0.012 C 
DOCKED: ENDBRANCH  17  46
DOCKED: TORSDOF 10
DOCKED: TER
DOCKED: ENDMDL
________________________________________________________________________________


	BEGINNING GENETIC ALGORITHM DOCKING 98 of 100
Run: 98 Seed: 1675441305 1023681006 [ Run 98 of 100 GA/GALS ]
Beginning LAMARCKIAN GENETIC ALGORITHM (LGA), with a maximum of 25000000 energy evaluations.

Final-Value: -20.625


	FINAL GENETIC ALGORITHM DOCKED STATE
	_______________________________________________


Detailed state:  trans 41.315 28.623 16.126 quatxyzw 0.319416 -0.385015 -0.864764 0.043822 center 8.287 34.468 -0.670 ntor 10 38.4693 -70.2909 -6.1248 -81.0482 113.0838 -159.0086 38.0270 5.9517 -103.4731 152.6365
State:	 41.315  28.623  16.126   0.320 -0.385 -0.866 174.977     38.47  -70.29   -6.12  -81.05  113.08 -159.01   38.03    5.95 -103.47  152.64

DOCKED: MODEL       98
DOCKED: USER    Run = 98
DOCKED: USER    DPF = D:/Protein_go_brrr/autodock/final/2DN3/heme_O2/dock.dpf
DOCKED: USER  
DOCKED: USER    Estimated Free Energy of Binding    =  -16.35 kcal/mol  [=(1)+(2)+(3)-(4)]
DOCKED: USER    Estimated Inhibition Constant, Ki   =    1.04 pM (picomolar)  [Temperature = 298.15 K]
DOCKED: USER    
DOCKED: USER    (1) Final Intermolecular Energy     =  -19.33 kcal/mol
DOCKED: USER        vdW + Hbond + desolv Energy     =  -16.56 kcal/mol
DOCKED: USER        Electrostatic Energy            =   -2.77 kcal/mol
DOCKED: USER    (2) Final Total Internal Energy     =   -1.30 kcal/mol
DOCKED: USER    (3) Torsional Free Energy           =   +2.98 kcal/mol
DOCKED: USER    (4) Unbound System's Energy  [=(2)] =   -1.30 kcal/mol
DOCKED: USER    
DOCKED: USER    
DOCKED: USER    NEWDPF move heme_O2_opt.pdbqt
DOCKED: USER    NEWDPF about 8.287000 34.468000 -0.670000
DOCKED: USER    NEWDPF tran0 41.315073 28.622774 16.125852
DOCKED: USER    NEWDPF quaternion0 0.319416 -0.385015 -0.864764 0.043822
DOCKED: USER    NEWDPF axisangle0 0.319723 -0.385385 -0.865596 174.976726
DOCKED: USER    NEWDPF quat0 0.319723 -0.385385 -0.865596 174.976726
DOCKED: USER    NEWDPF dihe0 38.47 -70.29 -6.12 -81.05 113.08 -159.01 38.03 5.95 -103.47 152.64 
DOCKED: USER  keepresnum = 1 
DOCKED: USER  
DOCKED: REMARK  10 active torsions:
DOCKED: REMARK  status: ('A' for Active; 'I' for Inactive)
DOCKED: REMARK    1  A    between atoms: C_6  and  C_10 
DOCKED: REMARK    2  A    between atoms: C_10  and  C_11 
DOCKED: REMARK    3  A    between atoms: C_11  and  C_12 
DOCKED: REMARK    4  A    between atoms: C_12  and  O_14 
DOCKED: REMARK    5  A    between atoms: C_17  and  C_20 
DOCKED: REMARK    6  A    between atoms: C_24  and  C_27 
DOCKED: REMARK    7  A    between atoms: C_31  and  C_34 
DOCKED: REMARK    8  A    between atoms: C_34  and  C_35 
DOCKED: REMARK    9  A    between atoms: C_35  and  C_36 
DOCKED: REMARK   10  A    between atoms: C_36  and  O_38 
DOCKED: USER                              x       y       z     vdW  Elec       q    Type
DOCKED: USER                           _______ _______ _______ _____ _____    ______ ____
DOCKED: ROOT
DOCKED: ATOM      1  C   UNL d   1      43.018  27.965  17.206 -0.28 +0.02    +0.064 A 
DOCKED: ATOM      2  C   UNL d   1      41.041  32.245  16.630 -0.41 +0.01    +0.064 A 
DOCKED: ATOM      3  C   UNL d   1      37.650  30.396  13.770 -0.40 +0.01    +0.064 C 
DOCKED: ATOM      4  C   UNL d   1      39.391  25.913  14.741 -0.40 +0.01    +0.064 A 
DOCKED: ATOM      5  C   UNL d   1      42.756  29.279  17.284 -0.28 +0.02    +0.066 A 
DOCKED: ATOM      6  C   UNL d   1      43.531  30.191  18.007 -0.32 -0.01    -0.021 A 
DOCKED: ATOM      7  C   UNL d   1      42.935  31.423  17.876 -0.38 -0.01    -0.025 A 
DOCKED: ATOM      8  C   UNL d   1      41.839  31.239  17.037 -0.37 +0.02    +0.066 A 
DOCKED: ATOM      9  C   UNL d   1      43.404  32.688  18.561 -0.43 +0.01    +0.051 C 
DOCKED: ATOM     10  C   UNL d   1      39.892  32.118  15.733 -0.38 +0.01    +0.066 A 
DOCKED: ATOM     11  C   UNL d   1      39.197  33.215  15.211 -0.43 -0.00    -0.021 A 
DOCKED: ATOM     12  C   UNL d   1      38.227  32.703  14.370 -0.41 +0.00    +0.000 A 
DOCKED: ATOM     13  C   UNL d   1      38.380  31.290  14.437 -0.36 +0.01    +0.070 A 
DOCKED: ATOM     14  C   UNL d   1      39.466  34.691  15.483 -0.53 +0.01    +0.052 C 
DOCKED: ATOM     15  C   UNL d   1      37.750  28.958  13.838 -0.37 +0.01    +0.066 A 
DOCKED: ATOM     16  C   UNL d   1      36.850  28.074  13.242 -0.46 -0.00    -0.021 A 
DOCKED: ATOM     17  C   UNL d   1      37.326  26.790  13.507 -0.46 +0.00    +0.000 A 
DOCKED: ATOM     18  C   UNL d   1      38.497  26.989  14.251 -0.38 +0.01    +0.070 A 
DOCKED: ATOM     19  C   UNL d   1      35.601  28.528  12.530 -0.65 +0.01    +0.052 C 
DOCKED: ATOM     20  C   UNL d   1      40.498  26.067  15.494 -0.37 +0.02    +0.066 A 
DOCKED: ATOM     21  C   UNL d   1      41.310  25.016  15.910 -0.41 -0.01    -0.025 A 
DOCKED: ATOM     22  C   UNL d   1      42.364  25.584  16.591 -0.24 -0.01    -0.021 A 
DOCKED: ATOM     23  C   UNL d   1      42.144  26.965  16.580 -0.33 +0.02    +0.066 A 
DOCKED: ATOM     24  C   UNL d   1      41.091  23.545  15.673 -0.55 +0.01    +0.051 C 
DOCKED: ATOM     25  N   UNL d   1      41.692  29.907  16.726 -0.14 -0.09    -0.248 N 
DOCKED: ATOM     26  N   UNL d   1      39.392  30.943  15.272 -0.13 -0.06    -0.248 N 
DOCKED: ATOM     27  N   UNL d   1      38.698  28.307  14.507 -0.20 -0.06    -0.248 N 
DOCKED: ATOM     28  N   UNL d   1      40.985  27.251  15.952 -0.27 -0.08    -0.248 N 
DOCKED: ATOM     29 FE   UNL d   1      40.192  29.082  15.613 -0.07 +0.00    +0.000 Fe
DOCKED: ATOM     30  O   UNL d   1      39.725  29.616  16.998 -0.85 +0.00    +0.000 OA
DOCKED: ATOM     31  O   UNL d   1      39.142  28.260  16.448 -0.64 +0.00    +0.000 OA
DOCKED: ENDROOT
DOCKED: BRANCH   6  32
DOCKED: ATOM     32  C   UNL d   1      44.709  29.896  18.900 -0.28 +0.03    +0.052 C 
DOCKED: BRANCH  32  33
DOCKED: ATOM     33  C   UNL d   1      44.756  28.441  19.358 -0.16 +0.07    +0.115 C 
DOCKED: BRANCH  33  34
DOCKED: ATOM     34  C   UNL d   1      45.269  28.299  20.769 -0.16 +0.18    +0.139 C 
DOCKED: ATOM     35  O   UNL d   1      46.173  29.021  21.158 -0.31 -1.16    -0.650 OA
DOCKED: BRANCH  34  36
DOCKED: ATOM     36  O   UNL d   1      44.771  27.367  21.608 -0.21 -1.30    -0.776 OA
DOCKED: ATOM     37  H   UNL d   1      44.535  26.482  21.307 +0.05 +0.16    +0.167 HD
DOCKED: ENDBRANCH  34  36
DOCKED: ENDBRANCH  33  34
DOCKED: ENDBRANCH  32  33
DOCKED: ENDBRANCH   6  32
DOCKED: BRANCH  22  38
DOCKED: ATOM     38  C   UNL d   1      43.481  24.832  17.266 -0.32 +0.02    +0.052 C 
DOCKED: BRANCH  38  39
DOCKED: ATOM     39  C   UNL d   1      43.340  24.824  18.787 -0.33 +0.05    +0.115 C 
DOCKED: BRANCH  39  40
DOCKED: ATOM     40  C   UNL d   1      44.516  24.172  19.471 -0.14 +0.08    +0.139 C 
DOCKED: ATOM     41  O   UNL d   1      45.299  23.499  18.820 -0.04 -0.41    -0.650 OA
DOCKED: BRANCH  40  42
DOCKED: ATOM     42  O   UNL d   1      44.749  24.360  20.784 -0.41 -0.50    -0.776 OA
DOCKED: ATOM     43  H   UNL d   1      45.013  25.220  21.132 +0.06 +0.11    +0.167 HD
DOCKED: ENDBRANCH  40  42
DOCKED: ENDBRANCH  39  40
DOCKED: ENDBRANCH  38  39
DOCKED: ENDBRANCH  22  38
DOCKED: BRANCH  12  44
DOCKED: ATOM     44  C   UNL d   1      37.271  33.596  13.608 -0.50 +0.00    +0.004 C 
DOCKED: ATOM     45  C   UNL d   1      36.430  33.253  12.633 -0.57 +0.00    +0.012 C 
DOCKED: ENDBRANCH  12  44
DOCKED: BRANCH  17  46
DOCKED: ATOM     46  C   UNL d   1      36.755  25.437  13.175 -0.65 +0.00    +0.004 C 
DOCKED: ATOM     47  C   UNL d   1      35.887  24.707  13.888 -0.70 +0.00    +0.012 C 
DOCKED: ENDBRANCH  17  46
DOCKED: TORSDOF 10
DOCKED: TER
DOCKED: ENDMDL
________________________________________________________________________________


	BEGINNING GENETIC ALGORITHM DOCKING 99 of 100
Run: 99 Seed: 1690646049 895250414 [ Run 99 of 100 GA/GALS ]
Beginning LAMARCKIAN GENETIC ALGORITHM (LGA), with a maximum of 25000000 energy evaluations.

Final-Value: -11.722


	FINAL GENETIC ALGORITHM DOCKED STATE
	_______________________________________________


Detailed state:  trans 25.240 45.740 -1.869 quatxyzw 0.385495 0.917864 0.014919 0.093262 center 8.287 34.468 -0.670 ntor 10 -172.6887 79.0811 34.0538 72.6833 -147.4333 47.2935 -66.1353 31.1887 -157.9874 -176.1142
State:	 25.240  45.740  -1.869   0.387  0.922  0.015 169.297   -172.69   79.08   34.05   72.68 -147.43   47.29  -66.14   31.19 -157.99 -176.11

DOCKED: MODEL       99
DOCKED: USER    Run = 99
DOCKED: USER    DPF = D:/Protein_go_brrr/autodock/final/2DN3/heme_O2/dock.dpf
DOCKED: USER  
DOCKED: USER    Estimated Free Energy of Binding    =   -6.53 kcal/mol  [=(1)+(2)+(3)-(4)]
DOCKED: USER    Estimated Inhibition Constant, Ki   =   16.47 uM (micromolar)  [Temperature = 298.15 K]
DOCKED: USER    
DOCKED: USER    (1) Final Intermolecular Energy     =   -9.51 kcal/mol
DOCKED: USER        vdW + Hbond + desolv Energy     =   -7.58 kcal/mol
DOCKED: USER        Electrostatic Energy            =   -1.93 kcal/mol
DOCKED: USER    (2) Final Total Internal Energy     =   -2.21 kcal/mol
DOCKED: USER    (3) Torsional Free Energy           =   +2.98 kcal/mol
DOCKED: USER    (4) Unbound System's Energy  [=(2)] =   -2.21 kcal/mol
DOCKED: USER    
DOCKED: USER    
DOCKED: USER    NEWDPF move heme_O2_opt.pdbqt
DOCKED: USER    NEWDPF about 8.287000 34.468000 -0.670000
DOCKED: USER    NEWDPF tran0 25.239575 45.739752 -1.869314
DOCKED: USER    NEWDPF quaternion0 0.385495 0.917864 0.014919 0.093262
DOCKED: USER    NEWDPF axisangle0 0.387182 0.921881 0.014984 169.297455
DOCKED: USER    NEWDPF quat0 0.387182 0.921881 0.014984 169.297455
DOCKED: USER    NEWDPF dihe0 -172.69 79.08 34.05 72.68 -147.43 47.29 -66.14 31.19 -157.99 -176.11 
DOCKED: USER  keepresnum = 1 
DOCKED: USER  
DOCKED: REMARK  10 active torsions:
DOCKED: REMARK  status: ('A' for Active; 'I' for Inactive)
DOCKED: REMARK    1  A    between atoms: C_6  and  C_10 
DOCKED: REMARK    2  A    between atoms: C_10  and  C_11 
DOCKED: REMARK    3  A    between atoms: C_11  and  C_12 
DOCKED: REMARK    4  A    between atoms: C_12  and  O_14 
DOCKED: REMARK    5  A    between atoms: C_17  and  C_20 
DOCKED: REMARK    6  A    between atoms: C_24  and  C_27 
DOCKED: REMARK    7  A    between atoms: C_31  and  C_34 
DOCKED: REMARK    8  A    between atoms: C_34  and  C_35 
DOCKED: REMARK    9  A    between atoms: C_35  and  C_36 
DOCKED: REMARK   10  A    between atoms: C_36  and  O_38 
DOCKED: USER                              x       y       z     vdW  Elec       q    Type
DOCKED: USER                           _______ _______ _______ _____ _____    ______ ____
DOCKED: ROOT
DOCKED: ATOM      1  C   UNL d   1      27.077  44.765  -1.452 -0.14 +0.02    +0.064 A 
DOCKED: ATOM      2  C   UNL d   1      23.742  44.046  -4.757 -0.22 +0.01    +0.064 A 
DOCKED: ATOM      3  C   UNL d   1      21.087  47.642  -2.992 -0.30 -0.01    +0.064 C 
DOCKED: ATOM      4  C   UNL d   1      24.733  48.701   0.115 -0.09 +0.01    +0.064 A 
DOCKED: ATOM      5  C   UNL d   1      26.387  44.277  -2.496 -0.19 +0.02    +0.066 A 
DOCKED: ATOM      6  C   UNL d   1      26.808  43.196  -3.275 -0.18 -0.00    -0.021 A 
DOCKED: ATOM      7  C   UNL d   1      25.864  43.014  -4.259 -0.21 -0.00    -0.025 A 
DOCKED: ATOM      8  C   UNL d   1      24.869  43.959  -4.024 -0.26 +0.01    +0.066 A 
DOCKED: ATOM      9  C   UNL d   1      25.960  41.994  -5.373 -0.18 +0.01    +0.051 C 
DOCKED: ATOM     10  C   UNL d   1      22.653  45.000  -4.544 -0.24 +0.00    +0.066 A 
DOCKED: ATOM     11  C   UNL d   1      21.434  44.941  -5.229 -0.33 -0.00    -0.021 A 
DOCKED: ATOM     12  C   UNL d   1      20.648  45.959  -4.721 -0.35 -0.00    +0.000 A 
DOCKED: ATOM     13  C   UNL d   1      21.454  46.604  -3.742 -0.26 -0.01    +0.070 A 
DOCKED: ATOM     14  C   UNL d   1      21.026  43.939  -6.302 -0.39 +0.01    +0.052 C 
DOCKED: ATOM     15  C   UNL d   1      21.885  48.344  -2.017 -0.21 -0.00    +0.066 A 
DOCKED: ATOM     16  C   UNL d   1      21.501  49.526  -1.383 -0.19 +0.00    -0.021 A 
DOCKED: ATOM     17  C   UNL d   1      22.525  49.847  -0.492 -0.13 +0.00    +0.000 A 
DOCKED: ATOM     18  C   UNL d   1      23.470  48.823  -0.651 -0.11 +0.01    +0.070 A 
DOCKED: ATOM     19  C   UNL d   1      20.229  50.263  -1.719 -0.25 -0.01    +0.052 C 
DOCKED: ATOM     20  C   UNL d   1      25.680  47.756  -0.042 -0.09 +0.02    +0.066 A 
DOCKED: ATOM     21  C   UNL d   1      26.842  47.682   0.722 -0.12 -0.01    -0.025 A 
DOCKED: ATOM     22  C   UNL d   1      27.509  46.551   0.308 -0.13 -0.01    -0.021 A 
DOCKED: ATOM     23  C   UNL d   1      26.735  45.984  -0.710 -0.11 +0.02    +0.066 A 
DOCKED: ATOM     24  C   UNL d   1      27.294  48.643   1.790 -0.12 +0.02    +0.051 C 
DOCKED: ATOM     25  N   UNL d   1      25.224  44.779  -2.978 -0.18 -0.05    -0.248 N 
DOCKED: ATOM     26  N   UNL d   1      22.674  46.017  -3.645 -0.20 -0.01    -0.248 N 
DOCKED: ATOM     27  N   UNL d   1      23.100  47.962  -1.633 -0.07 -0.02    -0.248 N 
DOCKED: ATOM     28  N   UNL d   1      25.647  46.745  -0.950 -0.00 -0.07    -0.248 N 
DOCKED: ATOM     29 FE   UNL d   1      24.171  46.386  -2.287 -0.05 +0.00    +0.000 Fe
DOCKED: ATOM     30  O   UNL d   1      24.796  46.603  -3.695 -0.13 +0.00    +0.000 OA
DOCKED: ATOM     31  O   UNL d   1      24.804  47.780  -2.647 -0.11 +0.00    +0.000 OA
DOCKED: ENDROOT
DOCKED: BRANCH   6  32
DOCKED: ATOM     32  C   UNL d   1      28.112  42.447  -3.188 -0.11 +0.01    +0.052 C 
DOCKED: BRANCH  32  33
DOCKED: ATOM     33  C   UNL d   1      29.289  43.239  -3.750 -0.02 +0.02    +0.115 C 
DOCKED: BRANCH  33  34
DOCKED: ATOM     34  C   UNL d   1      30.264  43.659  -2.678 -0.01 +0.04    +0.139 C 
DOCKED: ATOM     35  O   UNL d   1      30.843  42.809  -2.022 +0.03 -0.23    -0.650 OA
DOCKED: BRANCH  34  36
DOCKED: ATOM     36  O   UNL d   1      30.491  44.961  -2.406 +0.04 -0.29    -0.776 OA
DOCKED: ATOM     37  H   UNL d   1      31.187  45.242  -1.801 +0.02 +0.09    +0.167 HD
DOCKED: ENDBRANCH  34  36
DOCKED: ENDBRANCH  33  34
DOCKED: ENDBRANCH  32  33
DOCKED: ENDBRANCH   6  32
DOCKED: BRANCH  22  38
DOCKED: ATOM     38  C   UNL d   1      28.846  46.082   0.821 -0.09 +0.03    +0.052 C 
DOCKED: BRANCH  38  39
DOCKED: ATOM     39  C   UNL d   1      30.002  46.929   0.292 -0.14 +0.05    +0.115 C 
DOCKED: BRANCH  39  40
DOCKED: ATOM     40  C   UNL d   1      31.281  46.141   0.160 -0.13 +0.14    +0.139 C 
DOCKED: ATOM     41  O   UNL d   1      32.334  46.724  -0.039 -0.34 -0.98    -0.650 OA
DOCKED: BRANCH  40  42
DOCKED: ATOM     42  O   UNL d   1      31.292  44.802   0.310 -0.27 -0.88    -0.776 OA
DOCKED: ATOM     43  H   UNL d   1      31.043  44.212  -0.411 +0.03 +0.13    +0.167 HD
DOCKED: ENDBRANCH  40  42
DOCKED: ENDBRANCH  39  40
DOCKED: ENDBRANCH  38  39
DOCKED: ENDBRANCH  22  38
DOCKED: BRANCH  12  44
DOCKED: ATOM     44  C   UNL d   1      19.238  46.209  -5.215 -0.39 -0.00    +0.004 C 
DOCKED: ATOM     45  C   UNL d   1      18.581  47.367  -5.263 -0.30 -0.00    +0.012 C 
DOCKED: ENDBRANCH  12  44
DOCKED: BRANCH  17  46
DOCKED: ATOM     46  C   UNL d   1      22.706  51.030   0.420 -0.12 -0.00    +0.004 C 
DOCKED: ATOM     47  C   UNL d   1      21.973  51.373   1.488 -0.23 -0.00    +0.012 C 
DOCKED: ENDBRANCH  17  46
DOCKED: TORSDOF 10
DOCKED: TER
DOCKED: ENDMDL
________________________________________________________________________________


	BEGINNING GENETIC ALGORITHM DOCKING 100 of 100
Run: 100 Seed: 1486416743 828920285 [ Run 100 of 100 GA/GALS ]
Beginning LAMARCKIAN GENETIC ALGORITHM (LGA), with a maximum of 25000000 energy evaluations.

Final-Value: -13.193


	FINAL GENETIC ALGORITHM DOCKED STATE
	_______________________________________________


Detailed state:  trans 45.293 30.965 18.317 quatxyzw -0.370070 0.383962 0.779794 0.327937 center 8.287 34.468 -0.670 ntor 10 0.1106 -3.0074 -79.2434 -34.7562 -98.8335 -76.0843 -54.2455 176.0847 -171.7426 167.6599
State:	 45.293  30.965  18.317  -0.392  0.406  0.825 141.713      0.11   -3.01  -79.24  -34.76  -98.83  -76.08  -54.25  176.08 -171.74  167.66

DOCKED: MODEL      100
DOCKED: USER    Run = 100
DOCKED: USER    DPF = D:/Protein_go_brrr/autodock/final/2DN3/heme_O2/dock.dpf
DOCKED: USER  
DOCKED: USER    Estimated Free Energy of Binding    =   -8.52 kcal/mol  [=(1)+(2)+(3)-(4)]
DOCKED: USER    Estimated Inhibition Constant, Ki   =  569.26 nM (nanomolar)  [Temperature = 298.15 K]
DOCKED: USER    
DOCKED: USER    (1) Final Intermolecular Energy     =  -11.50 kcal/mol
DOCKED: USER        vdW + Hbond + desolv Energy     =   -9.50 kcal/mol
DOCKED: USER        Electrostatic Energy            =   -2.00 kcal/mol
DOCKED: USER    (2) Final Total Internal Energy     =   -1.69 kcal/mol
DOCKED: USER    (3) Torsional Free Energy           =   +2.98 kcal/mol
DOCKED: USER    (4) Unbound System's Energy  [=(2)] =   -1.69 kcal/mol
DOCKED: USER    
DOCKED: USER    
DOCKED: USER    NEWDPF move heme_O2_opt.pdbqt
DOCKED: USER    NEWDPF about 8.287000 34.468000 -0.670000
DOCKED: USER    NEWDPF tran0 45.293265 30.964580 18.317343
DOCKED: USER    NEWDPF quaternion0 -0.370070 0.383962 0.779794 0.327937
DOCKED: USER    NEWDPF axisangle0 -0.391733 0.406438 0.825441 141.712799
DOCKED: USER    NEWDPF quat0 -0.391733 0.406438 0.825441 141.712799
DOCKED: USER    NEWDPF dihe0 0.11 -3.01 -79.24 -34.76 -98.83 -76.08 -54.25 176.08 -171.74 167.66 
DOCKED: USER  keepresnum = 1 
DOCKED: USER  
DOCKED: REMARK  10 active torsions:
DOCKED: REMARK  status: ('A' for Active; 'I' for Inactive)
DOCKED: REMARK    1  A    between atoms: C_6  and  C_10 
DOCKED: REMARK    2  A    between atoms: C_10  and  C_11 
DOCKED: REMARK    3  A    between atoms: C_11  and  C_12 
DOCKED: REMARK    4  A    between atoms: C_12  and  O_14 
DOCKED: REMARK    5  A    between atoms: C_17  and  C_20 
DOCKED: REMARK    6  A    between atoms: C_24  and  C_27 
DOCKED: REMARK    7  A    between atoms: C_31  and  C_34 
DOCKED: REMARK    8  A    between atoms: C_34  and  C_35 
DOCKED: REMARK    9  A    between atoms: C_35  and  C_36 
DOCKED: REMARK   10  A    between atoms: C_36  and  O_38 
DOCKED: USER                              x       y       z     vdW  Elec       q    Type
DOCKED: USER                           _______ _______ _______ _____ _____    ______ ____
DOCKED: ROOT
DOCKED: ATOM      1  C   UNL d   1      47.049  31.873  19.087 -0.11 +0.02    +0.064 A 
DOCKED: ATOM      2  C   UNL d   1      42.756  33.594  18.009 -0.38 +0.01    +0.064 A 
DOCKED: ATOM      3  C   UNL d   1      41.282  29.259  16.549 +0.27 +0.03    +0.064 C 
DOCKED: ATOM      4  C   UNL d   1      45.539  27.379  18.101 -0.17 +0.03    +0.064 A 
DOCKED: ATOM      5  C   UNL d   1      46.001  32.694  18.915 -0.16 +0.02    +0.066 A 
DOCKED: ATOM      6  C   UNL d   1      46.024  34.063  19.199 -0.18 -0.00    -0.021 A 
DOCKED: ATOM      7  C   UNL d   1      44.768  34.554  18.928 -0.32 -0.00    -0.025 A 
DOCKED: ATOM      8  C   UNL d   1      44.027  33.481  18.440 -0.31 +0.01    +0.066 A 
DOCKED: ATOM      9  C   UNL d   1      44.327  35.981  19.167 -0.35 +0.00    +0.051 C 
DOCKED: ATOM     10  C   UNL d   1      41.935  32.511  17.465 -0.44 +0.01    +0.066 A 
DOCKED: ATOM     11  C   UNL d   1      40.680  32.715  16.881 -0.44 -0.00    -0.021 A 
DOCKED: ATOM     12  C   UNL d   1      40.247  31.479  16.437 -0.39 +0.00    +0.000 A 
DOCKED: ATOM     13  C   UNL d   1      41.280  30.569  16.795 -0.25 +0.02    +0.070 A 
DOCKED: ATOM     14  C   UNL d   1      39.938  34.037  16.727 -0.33 +0.01    +0.052 C 
DOCKED: ATOM     15  C   UNL d   1      42.291  28.299  16.926 -0.26 +0.02    +0.066 A 
DOCKED: ATOM     16  C   UNL d   1      42.160  26.917  16.784 -0.36 -0.01    -0.021 A 
DOCKED: ATOM     17  C   UNL d   1      43.362  26.360  17.221 -0.29 +0.00    +0.000 A 
DOCKED: ATOM     18  C   UNL d   1      44.147  27.458  17.600 -0.25 +0.03    +0.070 A 
DOCKED: ATOM     19  C   UNL d   1      40.893  26.257  16.302 -0.42 +0.01    +0.052 C 
DOCKED: ATOM     20  C   UNL d   1      46.306  28.408  18.513 -0.11 +0.03    +0.066 A 
DOCKED: ATOM     21  C   UNL d   1      47.618  28.274  18.959 -0.10 -0.01    -0.025 A 
DOCKED: ATOM     22  C   UNL d   1      48.073  29.547  19.219 -0.09 -0.01    -0.021 A 
DOCKED: ATOM     23  C   UNL d   1      47.011  30.413  18.938 -0.12 +0.03    +0.066 A 
DOCKED: ATOM     24  C   UNL d   1      48.396  26.996  19.132 -0.08 +0.03    +0.051 C 
DOCKED: ATOM     25  N   UNL d   1      44.767  32.323  18.494 -0.14 -0.07    -0.248 N 
DOCKED: ATOM     26  N   UNL d   1      42.301  31.204  17.424 -0.26 -0.06    -0.248 N 
DOCKED: ATOM     27  N   UNL d   1      43.455  28.620  17.484 -0.20 -0.09    -0.248 N 
DOCKED: ATOM     28  N   UNL d   1      45.925  29.712  18.552 -0.10 -0.11    -0.248 N 
DOCKED: ATOM     29 FE   UNL d   1      44.125  30.450  17.992 -0.06 +0.00    +0.000 Fe
DOCKED: ATOM     30  O   UNL d   1      43.466  31.016  19.284 -0.43 +0.00    +0.000 OA
DOCKED: ATOM     31  O   UNL d   1      43.883  29.498  19.220 -0.07 +0.00    +0.000 OA
DOCKED: ENDROOT
DOCKED: BRANCH   6  32
DOCKED: ATOM     32  C   UNL d   1      47.138  34.855  19.832 -0.10 +0.01    +0.052 C 
DOCKED: BRANCH  32  33
DOCKED: ATOM     33  C   UNL d   1      47.068  34.864  21.356 -0.10 +0.02    +0.115 C 
DOCKED: BRANCH  33  34
DOCKED: ATOM     34  C   UNL d   1      48.335  34.349  21.993 -0.04 +0.03    +0.139 C 
DOCKED: ATOM     35  O   UNL d   1      49.067  35.121  22.591 +0.02 -0.09    -0.650 OA
DOCKED: BRANCH  34  36
DOCKED: ATOM     36  O   UNL d   1      48.696  33.053  21.892 +0.03 -0.25    -0.776 OA
DOCKED: ATOM     37  H   UNL d   1      48.165  32.410  21.408 +0.02 +0.07    +0.167 HD
DOCKED: ENDBRANCH  34  36
DOCKED: ENDBRANCH  33  34
DOCKED: ENDBRANCH  32  33
DOCKED: ENDBRANCH   6  32
DOCKED: BRANCH  22  38
DOCKED: ATOM     38  C   UNL d   1      49.431  29.900  19.768 -0.04 +0.02    +0.052 C 
DOCKED: BRANCH  38  39
DOCKED: ATOM     39  C   UNL d   1      49.446  29.955  21.294 -0.04 +0.06    +0.115 C 
DOCKED: BRANCH  39  40
DOCKED: ATOM     40  C   UNL d   1      48.074  29.765  21.891 -0.06 +0.16    +0.139 C 
DOCKED: ATOM     41  O   UNL d   1      47.522  28.680  21.808 -0.52 -1.08    -0.650 OA
DOCKED: BRANCH  40  42
DOCKED: ATOM     42  O   UNL d   1      47.463  30.761  22.562 -0.13 -1.03    -0.776 OA
DOCKED: ATOM     43  H   UNL d   1      47.884  31.620  22.683 +0.01 +0.13    +0.167 HD
DOCKED: ENDBRANCH  40  42
DOCKED: ENDBRANCH  39  40
DOCKED: ENDBRANCH  38  39
DOCKED: ENDBRANCH  22  38
DOCKED: BRANCH  12  44
DOCKED: ATOM     44  C   UNL d   1      38.917  31.298  15.736 -0.44 +0.00    +0.004 C 
DOCKED: ATOM     45  C   UNL d   1      38.683  31.253  14.425 -0.45 +0.00    +0.012 C 
DOCKED: ENDBRANCH  12  44
DOCKED: BRANCH  17  46
DOCKED: ATOM     46  C   UNL d   1      43.792  24.924  17.361 -0.33 +0.00    +0.004 C 
DOCKED: ATOM     47  C   UNL d   1      43.082  23.888  17.826 -0.43 +0.00    +0.012 C 
DOCKED: ENDBRANCH  17  46
DOCKED: TORSDOF 10
DOCKED: TER
DOCKED: ENDMDL
________________________________________________________________________________

DPF> analysis                             # perform a ranked cluster analysis


		CLUSTER ANALYSIS OF CONFORMATIONS
		_________________________________

Number of conformations = 100

RMSD cluster analysis will be performed using the ligand atoms only (47 / 47 total atoms).

Outputting structurally similar clusters, ranked in order of increasing energy.


________________________________________________________________________________

Number of distinct conformational clusters found = 20,  out of 100 runs,
Using an rmsd-tolerance of 2.0 A


	CLUSTERING HISTOGRAM
	____________________

________________________________________________________________________________
     |           |     |           |     |                                    
Clus | Lowest    | Run | Mean      | Num | Histogram                          
-ter | Binding   |     | Binding   | in  |                                    
Rank | Energy    |     | Energy    | Clus|    5    10   15   20   25   30   35
_____|___________|_____|___________|_____|____:____|____:____|____:____|____:___
   1 |    -16.82 |  24 |    -15.51 |  44 |############################################
   2 |    -14.60 |  51 |    -13.91 |  22 |######################
   3 |     -9.70 |  59 |     -8.93 |   4 |####
   4 |     -8.52 | 100 |     -8.52 |   1 |#
   5 |     -8.17 |  33 |     -7.15 |   3 |###
   6 |     -7.96 |  85 |     -7.96 |   1 |#
   7 |     -7.59 |  92 |     -7.59 |   1 |#
   8 |     -7.54 |  77 |     -7.54 |   1 |#
   9 |     -7.46 |  67 |     -7.46 |   1 |#
  10 |     -7.40 |  13 |     -7.09 |   4 |####
  11 |     -7.30 |  43 |     -7.30 |   1 |#
  12 |     -7.24 |  29 |     -6.71 |   6 |######
  13 |     -7.22 |  80 |     -7.16 |   3 |###
  14 |     -6.88 |  73 |     -6.88 |   1 |#
  15 |     -6.74 |  86 |     -6.74 |   1 |#
  16 |     -6.49 |  72 |     -6.49 |   1 |#
  17 |     -6.36 |  91 |     -6.36 |   1 |#
  18 |     -6.16 |  35 |     -6.02 |   2 |##
  19 |     -6.15 |  48 |     -6.15 |   1 |#
  20 |     -5.40 |  50 |     -5.40 |   1 |#
_____|___________|_____|___________|_____|______________________________________


Number of multi-member conformational clusters found = 8, out of 100 runs.

	RMSD TABLE
	__________

_____________________________________________________________________
     |      |      |           |         |                 |
Rank | Sub- | Run  | Binding   | Cluster | Reference       | Grep
     | Rank |      | Energy    | RMSD    | RMSD            | Pattern
_____|______|______|___________|_________|_________________|___________
   1      1     24      -16.82      0.00     34.02           RANKING
   1      2     64      -16.60      1.36     33.85           RANKING
   1      3     69      -16.37      0.76     34.10           RANKING
   1      4     98      -16.35      1.33     33.68           RANKING
   1      5     47      -16.32      1.22     33.79           RANKING
   1      6     41      -16.27      1.40     33.66           RANKING
   1      7     30      -16.23      0.87     33.91           RANKING
   1      8     62      -16.16      0.90     33.71           RANKING
   1      9     53      -16.15      0.62     33.98           RANKING
   1     10     70      -16.11      1.48     33.59           RANKING
   1     11     97      -16.01      1.16     33.85           RANKING
   1     12      6      -15.97      1.13     33.90           RANKING
   1     13     22      -15.91      1.12     33.88           RANKING
   1     14     31      -15.84      1.13     33.83           RANKING
   1     15     63      -15.82      0.81     34.06           RANKING
   1     16     61      -15.78      1.47     33.74           RANKING
   1     17     38      -15.74      1.22     33.75           RANKING
   1     18     84      -15.68      1.15     33.83           RANKING
   1     19     15      -15.61      1.31     33.47           RANKING
   1     20     74      -15.59      1.13     33.99           RANKING
   1     21     21      -15.59      1.12     33.96           RANKING
   1     22     75      -15.54      1.20     33.85           RANKING
   1     23      2      -15.48      1.27     33.42           RANKING
   1     24     60      -15.46      1.20     33.83           RANKING
   1     25     93      -15.45      1.29     33.98           RANKING
   1     26     10      -15.44      1.38     33.58           RANKING
   1     27     17      -15.40      1.27     33.53           RANKING
   1     28     83      -15.39      1.15     33.92           RANKING
   1     29     32      -15.39      1.11     33.98           RANKING
   1     30     39      -15.34      1.19     33.85           RANKING
   1     31     27      -15.34      1.48     33.52           RANKING
   1     32     54      -15.33      1.37     33.37           RANKING
   1     33     94      -15.32      1.40     33.55           RANKING
   1     34     96      -15.30      1.17     33.84           RANKING
   1     35     28      -15.29      1.36     33.43           RANKING
   1     36     45      -15.26      1.40     33.85           RANKING
   1     37     18      -15.14      1.25     33.59           RANKING
   1     38     49      -15.14      1.30     33.61           RANKING
   1     39     58      -15.09      1.31     33.82           RANKING
   1     40     34      -15.03      1.20     33.56           RANKING
   1     41      5      -14.76      0.99     33.83           RANKING
   1     42     37      -14.70      1.29     33.60           RANKING
   1     43     88      -14.56      0.94     33.81           RANKING
   1     44      9      -10.40      1.96     36.21           RANKING
   2      1     51      -14.60      0.00      2.05           RANKING
   2      2     90      -14.56      1.10      1.43           RANKING
   2      3     25      -14.43      0.51      1.88           RANKING
   2      4     26      -14.41      0.71      1.89           RANKING
   2      5     12      -14.40      0.73      1.82           RANKING
   2      6     11      -14.13      1.15      1.43           RANKING
   2      7     76      -14.12      1.19      1.34           RANKING
   2      8     40      -14.06      1.08      1.40           RANKING
   2      9     23      -14.03      1.05      1.44           RANKING
   2     10     46      -14.01      1.24      1.21           RANKING
   2     11      8      -13.97      1.23      1.24           RANKING
   2     12     81      -13.95      1.33      1.06           RANKING
   2     13     55      -13.94      1.21      1.22           RANKING
   2     14     87      -13.91      1.14      1.17           RANKING
   2     15     89      -13.87      1.21      1.16           RANKING
   2     16     66      -13.87      1.26      1.11           RANKING
   2     17      7      -13.85      1.08      1.63           RANKING
   2     18     57      -13.66      1.22      1.13           RANKING
   2     19     56      -13.64      1.13      1.46           RANKING
   2     20     42      -13.00      1.44      1.05           RANKING
   2     21     82      -12.85      1.69      1.56           RANKING
   2     22     36      -12.69      1.68      1.54           RANKING
   3      1     59       -9.70      0.00     38.12           RANKING
   3      2     20       -9.27      1.56     38.72           RANKING
   3      3     19       -8.39      1.53     39.20           RANKING
   3      4     68       -8.36      1.53     39.09           RANKING
   4      1    100       -8.52      0.00     37.67           RANKING
   5      1     33       -8.17      0.00     16.84           RANKING
   5      2     52       -7.39      0.90     16.67           RANKING
   5      3     78       -5.88      1.63     17.63           RANKING
   6      1     85       -7.96      0.00     23.40           RANKING
   7      1     92       -7.59      0.00     28.36           RANKING
   8      1     77       -7.54      0.00     19.25           RANKING
   9      1     67       -7.46      0.00     24.38           RANKING
  10      1     13       -7.40      0.00     16.96           RANKING
  10      2     14       -7.35      0.33     17.03           RANKING
  10      3      4       -7.10      0.66     17.19           RANKING
  10      4     99       -6.53      1.24     17.48           RANKING
  11      1     43       -7.30      0.00     31.64           RANKING
  12      1     29       -7.24      0.00     17.44           RANKING
  12      2     65       -6.73      1.49     17.27           RANKING
  12      3      3       -6.66      1.14     17.13           RANKING
  12      4     71       -6.60      0.73     17.40           RANKING
  12      5     95       -6.53      0.81     17.18           RANKING
  12      6     16       -6.49      0.73     17.40           RANKING
  13      1     80       -7.22      0.00     16.18           RANKING
  13      2     44       -7.19      0.61     16.18           RANKING
  13      3      1       -7.07      1.11     16.29           RANKING
  14      1     73       -6.88      0.00     39.44           RANKING
  15      1     86       -6.74      0.00     17.40           RANKING
  16      1     72       -6.49      0.00     23.79           RANKING
  17      1     91       -6.36      0.00     14.27           RANKING
  18      1     35       -6.16      0.00     30.08           RANKING
  18      2     79       -5.88      1.91     31.37           RANKING
  19      1     48       -6.15      0.00     31.26           RANKING
  20      1     50       -5.40      0.00     31.58           RANKING
_______________________________________________________________________



	INFORMATION ENTROPY ANALYSIS FOR THIS CLUSTERING
	________________________________________________


Information entropy for this clustering = 0.43  (rmstol = 2.00 Angstrom)

_______________________________________________________________________


	STATISTICAL MECHANICAL ANALYSIS
	_______________________________


Partition function, Q =   102.10            at Temperature, T = 298.15 K
Free energy,        A ~ -2740.81 kcal/mol   at Temperature, T = 298.15 K
Internal energy,    U =   -12.35 kcal/mol   at Temperature, T = 298.15 K
Entropy,            S =     9.15 kcal/mol/K at Temperature, T = 298.15 K

_______________________________________________________________________


	LOWEST ENERGY DOCKED CONFORMATION from EACH CLUSTER
	___________________________________________________



Keeping original residue number (specified in the input PDBQ file) for outputting.

MODEL       24
USER    Run = 24
USER    Cluster Rank = 1
USER    Number of conformations in this cluster = 44
USER  
USER    RMSD from reference structure       = 34.023 A
USER  
USER    Estimated Free Energy of Binding    =  -16.82 kcal/mol  [=(1)+(2)+(3)-(4)]
USER    Estimated Inhibition Constant, Ki   =  471.18 fM (femtomolar)  [Temperature = 298.15 K]
USER    
USER    (1) Final Intermolecular Energy     =  -19.80 kcal/mol
USER        vdW + Hbond + desolv Energy     =  -16.66 kcal/mol
USER        Electrostatic Energy            =   -3.14 kcal/mol
USER    (2) Final Total Internal Energy     =   -0.45 kcal/mol
USER    (3) Torsional Free Energy           =   +2.98 kcal/mol
USER    (4) Unbound System's Energy  [=(2)] =   -0.45 kcal/mol
USER    
USER    
USER  
USER    DPF = D:/Protein_go_brrr/autodock/final/2DN3/heme_O2/dock.dpf
USER    NEWDPF move	heme_O2_opt.pdbqt
USER    NEWDPF about	8.287000 34.468000 -0.670000
USER    NEWDPF tran0	41.556660 28.768448 16.326861
USER    NEWDPF axisangle0	0.328791 -0.393855 -0.858356 178.122401
USER    NEWDPF quaternion0	0.328747 -0.393802 -0.858241 0.016384
USER    NEWDPF dihe0	-86.24 36.15 -5.98 -52.29 7.59 -132.04 -0.79 44.41 -123.47 23.36 
USER  
USER                              x       y       z    vdW   Elec        q     RMS 
ATOM      1  C   UNL d   1      43.290  28.236  17.428 -0.28 +0.02    +0.064    34.023
ATOM      2  C   UNL d   1      41.108  32.390  16.692 -0.42 +0.01    +0.064    34.023
ATOM      3  C   UNL d   1      37.808  30.270  13.914 -0.40 +0.01    +0.064    34.023
ATOM      4  C   UNL d   1      39.765  25.918  15.052 -0.37 +0.01    +0.064    34.023
ATOM      5  C   UNL d   1      42.965  29.538  17.456 -0.30 +0.02    +0.066    34.023
ATOM      6  C   UNL d   1      43.696  30.513  18.141 -0.32 -0.01    -0.021    34.023
ATOM      7  C   UNL d   1      43.040  31.709  17.964 -0.38 -0.01    -0.025    34.023
ATOM      8  C   UNL d   1      41.954  31.441  17.136 -0.38 +0.02    +0.066    34.023
ATOM      9  C   UNL d   1      43.448  33.021  18.599 -0.43 +0.01    +0.051    34.023
ATOM     10  C   UNL d   1      39.965  32.173  15.803 -0.38 +0.01    +0.066    34.023
ATOM     11  C   UNL d   1      39.218  33.214  15.242 -0.43 -0.00    -0.021    34.023
ATOM     12  C   UNL d   1      38.273  32.623  14.423 -0.41 +0.00    +0.000    34.023
ATOM     13  C   UNL d   1      38.494  31.223  14.544 -0.35 +0.01    +0.070    34.023
ATOM     14  C   UNL d   1      39.416  34.710  15.455 -0.54 +0.01    +0.052    34.023
ATOM     15  C   UNL d   1      37.978  28.842  14.037 -0.36 +0.01    +0.066    34.023
ATOM     16  C   UNL d   1      37.122  27.894  13.478 -0.43 -0.00    -0.021    34.023
ATOM     17  C   UNL d   1      37.659  26.645  13.790 -0.46 +0.00    +0.000    34.023
ATOM     18  C   UNL d   1      38.820  26.929  14.524 -0.37 +0.01    +0.070    34.023
ATOM     19  C   UNL d   1      35.852  28.259  12.752 -0.62 +0.01    +0.052    34.023
ATOM     20  C   UNL d   1      40.864  26.154  15.796 -0.39 +0.02    +0.066    34.023
ATOM     21  C   UNL d   1      41.727  25.160  16.250 -0.35 -0.01    -0.025    34.023
ATOM     22  C   UNL d   1      42.752  25.805  16.906 -0.31 -0.01    -0.021    34.023
ATOM     23  C   UNL d   1      42.465  27.172  16.843 -0.33 +0.02    +0.066    34.023
ATOM     24  C   UNL d   1      41.579  23.672  16.070 -0.54 +0.01    +0.051    34.023
ATOM     25  N   UNL d   1      41.871  30.092  16.877 -0.23 -0.08    -0.248    34.023
ATOM     26  N   UNL d   1      39.523  30.958  15.389 -0.10 -0.06    -0.248    34.023
ATOM     27  N   UNL d   1      38.957  28.264  14.728 -0.16 -0.07    -0.248    34.023
ATOM     28  N   UNL d   1      41.293  27.376  16.206 -0.27 -0.08    -0.248    34.023
ATOM     29 FE   UNL d   1      40.412  29.153  15.800 -0.09 +0.00    +0.000    34.023
ATOM     30  O   UNL d   1      39.921  29.717  17.164 -0.81 +0.00    +0.000    34.023
ATOM     31  O   UNL d   1      39.404  28.314  16.668 -0.81 +0.00    +0.000    34.023
ATOM     32  C   UNL d   1      44.886  30.311  19.042 -0.28 +0.03    +0.052    34.023
ATOM     33  C   UNL d   1      44.756  29.075  19.927 -0.17 +0.09    +0.115    34.023
ATOM     34  C   UNL d   1      45.984  28.841  20.772 -0.11 +0.18    +0.139    34.023
ATOM     35  O   UNL d   1      46.359  27.699  20.987 -0.14 -0.83    -0.650    34.023
ATOM     36  O   UNL d   1      46.665  29.867  21.322 -0.41 -1.18    -0.776    34.023
ATOM     37  H   UNL d   1      47.353  30.340  20.841 +0.02 +0.14    +0.167    34.023
ATOM     38  C   UNL d   1      43.904  25.134  17.607 -0.31 +0.02    +0.052    34.023
ATOM     39  C   UNL d   1      45.259  25.634  17.109 -0.24 +0.07    +0.115    34.023
ATOM     40  C   UNL d   1      46.246  24.513  16.902 -0.19 +0.14    +0.139    34.023
ATOM     41  O   UNL d   1      45.859  23.355  16.908 -0.45 -0.90    -0.650    34.023
ATOM     42  O   UNL d   1      47.547  24.767  16.659 -0.05 -0.94    -0.776    34.023
ATOM     43  H   UNL d   1      48.014  25.482  17.108 +0.04 +0.14    +0.167    34.023
ATOM     44  C   UNL d   1      37.275  33.440  13.629 -0.49 +0.00    +0.004    34.023
ATOM     45  C   UNL d   1      36.449  33.018  12.672 -0.55 +0.00    +0.012    34.023
ATOM     46  C   UNL d   1      37.154  25.254  13.513 -0.64 +0.00    +0.004    34.023
ATOM     47  C   UNL d   1      35.996  24.702  13.895 -0.69 +0.00    +0.012    34.023
TER
ENDMDL
MODEL       51
USER    Run = 51
USER    Cluster Rank = 2
USER    Number of conformations in this cluster = 22
USER  
USER    RMSD from reference structure       = 2.048 A
USER  
USER    Estimated Free Energy of Binding    =  -14.60 kcal/mol  [=(1)+(2)+(3)-(4)]
USER    Estimated Inhibition Constant, Ki   =   19.99 pM (picomolar)  [Temperature = 298.15 K]
USER    
USER    (1) Final Intermolecular Energy     =  -17.58 kcal/mol
USER        vdW + Hbond + desolv Energy     =  -15.71 kcal/mol
USER        Electrostatic Energy            =   -1.86 kcal/mol
USER    (2) Final Total Internal Energy     =   -0.26 kcal/mol
USER    (3) Torsional Free Energy           =   +2.98 kcal/mol
USER    (4) Unbound System's Energy  [=(2)] =   -0.26 kcal/mol
USER    
USER    
USER  
USER    DPF = D:/Protein_go_brrr/autodock/final/2DN3/heme_O2/dock.dpf
USER    NEWDPF move	heme_O2_opt.pdbqt
USER    NEWDPF about	8.287000 34.468000 -0.670000
USER    NEWDPF tran0	8.759752 35.319714 -1.322979
USER    NEWDPF axisangle0	0.627168 0.735413 0.256569 11.288333
USER    NEWDPF quaternion0	0.061682 0.072328 0.025234 0.995152
USER    NEWDPF dihe0	-73.29 -35.93 -37.88 -71.47 79.19 -169.31 -42.31 130.85 148.91 -146.50 
USER  
USER                              x       y       z    vdW   Elec        q     RMS 
ATOM      1  C   UNL d   1       7.060  35.892  -2.455 -0.28 +0.01    +0.064     2.048
ATOM      2  C   UNL d   1       7.538  33.610   1.682 -0.37 +0.01    +0.064     2.048
ATOM      3  C   UNL d   1      12.327  33.852   1.369 -0.40 +0.00    +0.064     2.048
ATOM      4  C   UNL d   1      11.842  36.622  -2.651 -0.42 +0.00    +0.064     2.048
ATOM      5  C   UNL d   1       6.799  35.253  -1.303 -0.26 +0.01    +0.066     2.048
ATOM      6  C   UNL d   1       5.512  34.955  -0.848 -0.28 -0.00    -0.021     2.048
ATOM      7  C   UNL d   1       5.647  34.333   0.371 -0.32 -0.00    -0.025     2.048
ATOM      8  C   UNL d   1       7.016  34.225   0.604 -0.34 +0.01    +0.066     2.048
ATOM      9  C   UNL d   1       4.498  33.903   1.256 -0.35 +0.01    +0.051     2.048
ATOM     10  C   UNL d   1       8.964  33.445   1.969 -0.35 +0.01    +0.066     2.048
ATOM     11  C   UNL d   1       9.452  32.657   3.017 -0.42 -0.00    -0.021     2.048
ATOM     12  C   UNL d   1      10.831  32.700   2.933 -0.42 +0.00    +0.000     2.048
ATOM     13  C   UNL d   1      11.113  33.540   1.820 -0.35 +0.01    +0.070     2.048
ATOM     14  C   UNL d   1       8.636  31.874   4.040 -0.51 +0.00    +0.052     2.048
ATOM     15  C   UNL d   1      12.655  34.727   0.268 -0.34 +0.01    +0.066     2.048
ATOM     16  C   UNL d   1      13.946  35.144  -0.052 -0.41 -0.00    -0.021     2.048
ATOM     17  C   UNL d   1      13.833  35.935  -1.195 -0.43 +0.00    +0.000     2.048
ATOM     18  C   UNL d   1      12.463  35.940  -1.491 -0.37 +0.01    +0.070     2.048
ATOM     19  C   UNL d   1      15.153  34.799   0.783 -0.57 +0.00    +0.052     2.048
ATOM     20  C   UNL d   1      10.528  36.683  -2.941 -0.39 +0.00    +0.066     2.048
ATOM     21  C   UNL d   1      10.004  37.325  -4.059 -0.36 -0.00    -0.025     2.048
ATOM     22  C   UNL d   1       8.645  37.104  -4.034 -0.26 -0.00    -0.021     2.048
ATOM     23  C   UNL d   1       8.387  36.348  -2.887 -0.33 +0.01    +0.066     2.048
ATOM     24  C   UNL d   1      10.761  38.113  -5.096 -0.40 -0.01    +0.051     2.048
ATOM     25  N   UNL d   1       7.723  34.850  -0.397 -0.21 -0.05    -0.248     2.048
ATOM     26  N   UNL d   1       9.971  33.993   1.243 -0.06 -0.05    -0.248     2.048
ATOM     27  N   UNL d   1      11.755  35.264  -0.550 -0.18 -0.03    -0.248     2.048
ATOM     28  N   UNL d   1       9.528  36.132  -2.201 -0.26 -0.04    -0.248     2.048
ATOM     29 FE   UNL d   1       9.751  35.071  -0.492 -0.07 +0.00    +0.000     2.048
ATOM     30  O   UNL d   1       9.079  35.912   0.633 -0.76 +0.00    +0.000     2.048
ATOM     31  O   UNL d   1      10.258  36.533  -0.209 -0.67 +0.00    +0.000     2.048
ATOM     32  C   UNL d   1       4.198  35.360  -1.464 -0.22 +0.02    +0.052     2.048
ATOM     33  C   UNL d   1       3.267  36.053  -0.474 -0.16 +0.07    +0.115     2.048
ATOM     34  C   UNL d   1       2.614  37.280  -1.060 +0.05 +0.17    +0.139     2.048
ATOM     35  O   UNL d   1       3.280  38.284  -1.255 -0.19 -0.78    -0.650     2.048
ATOM     36  O   UNL d   1       1.296  37.304  -1.350 -0.32 -1.41    -0.776     2.048
ATOM     37  H   UNL d   1       0.930  36.826  -2.103 +0.02 +0.16    +0.167     2.048
ATOM     38  C   UNL d   1       7.648  37.648  -5.025 -0.26 +0.00    +0.052     2.048
ATOM     39  C   UNL d   1       7.890  39.122  -5.344 -0.22 -0.00    +0.115     2.048
ATOM     40  C   UNL d   1       8.028  39.966  -4.102 -0.34 -0.01    +0.139     2.048
ATOM     41  O   UNL d   1       7.517  39.595  -3.057 -0.07 -0.03    -0.650     2.048
ATOM     42  O   UNL d   1       8.750  41.103  -4.110 +0.02 +0.13    -0.776     2.048
ATOM     43  H   UNL d   1       9.537  41.197  -4.660 -0.47 -0.10    +0.167     2.048
ATOM     44  C   UNL d   1      11.720  31.952   3.905 -0.52 +0.00    +0.004     2.048
ATOM     45  C   UNL d   1      12.821  31.253   3.636 -0.62 +0.00    +0.012     2.048
ATOM     46  C   UNL d   1      14.868  36.708  -1.969 -0.61 +0.00    +0.004     2.048
ATOM     47  C   UNL d   1      15.415  37.892  -1.667 -0.66 +0.00    +0.012     2.048
TER
ENDMDL
MODEL       59
USER    Run = 59
USER    Cluster Rank = 3
USER    Number of conformations in this cluster = 4
USER  
USER    RMSD from reference structure       = 38.123 A
USER  
USER    Estimated Free Energy of Binding    =   -9.70 kcal/mol  [=(1)+(2)+(3)-(4)]
USER    Estimated Inhibition Constant, Ki   =   77.49 nM (nanomolar)  [Temperature = 298.15 K]
USER    
USER    (1) Final Intermolecular Energy     =  -12.68 kcal/mol
USER        vdW + Hbond + desolv Energy     =   -9.38 kcal/mol
USER        Electrostatic Energy            =   -3.31 kcal/mol
USER    (2) Final Total Internal Energy     =   -1.75 kcal/mol
USER    (3) Torsional Free Energy           =   +2.98 kcal/mol
USER    (4) Unbound System's Energy  [=(2)] =   -1.75 kcal/mol
USER    
USER    
USER  
USER    DPF = D:/Protein_go_brrr/autodock/final/2DN3/heme_O2/dock.dpf
USER    NEWDPF move	heme_O2_opt.pdbqt
USER    NEWDPF about	8.287000 34.468000 -0.670000
USER    NEWDPF tran0	44.576399 22.558191 17.475139
USER    NEWDPF axisangle0	-0.151861 0.163021 0.974865 -129.750396
USER    NEWDPF quaternion0	-0.137493 0.147596 0.882629 -0.424591
USER    NEWDPF dihe0	94.86 26.21 -14.55 -6.41 -118.62 163.09 145.27 152.28 15.27 10.85 
USER  
USER                              x       y       z    vdW   Elec        q     RMS 
ATOM      1  C   UNL d   1      45.320  20.572  17.515 -0.22 +0.05    +0.064    38.123
ATOM      2  C   UNL d   1      46.332  24.429  20.096 -0.10 +0.04    +0.064    38.123
ATOM      3  C   UNL d   1      43.187  27.051  17.581 -0.29 +0.02    +0.064    38.123
ATOM      4  C   UNL d   1      41.790  22.975  15.234 -0.42 +0.01    +0.064    38.123
ATOM      5  C   UNL d   1      45.850  21.406  18.423 -0.20 +0.05    +0.066    38.123
ATOM      6  C   UNL d   1      46.835  21.038  19.344 -0.16 -0.01    -0.021    38.123
ATOM      7  C   UNL d   1      47.098  22.142  20.121 -0.12 -0.01    -0.025    38.123
ATOM      8  C   UNL d   1      46.301  23.168  19.621 -0.13 +0.04    +0.066    38.123
ATOM      9  C   UNL d   1      48.051  22.167  21.295 -0.06 +0.02    +0.051    38.123
ATOM     10  C   UNL d   1      45.537  25.552  19.598 -0.13 +0.04    +0.066    38.123
ATOM     11  C   UNL d   1      45.727  26.874  20.017 -0.15 -0.02    -0.021    38.123
ATOM     12  C   UNL d   1      44.841  27.648  19.290 -0.18 +0.00    +0.000    38.123
ATOM     13  C   UNL d   1      44.138  26.732  18.459 -0.19 +0.03    +0.070    38.123
ATOM     14  C   UNL d   1      46.729  27.381  21.047 -0.11 +0.06    +0.052    38.123
ATOM     15  C   UNL d   1      42.427  26.151  16.747 -0.26 +0.02    +0.066    38.123
ATOM     16  C   UNL d   1      41.333  26.528  15.969 -0.39 -0.01    -0.021    38.123
ATOM     17  C   UNL d   1      40.917  25.382  15.292 -0.46 +0.00    +0.000    38.123
ATOM     18  C   UNL d   1      41.802  24.378  15.711 -0.31 +0.02    +0.070    38.123
ATOM     19  C   UNL d   1      40.754  27.920  15.984 -0.15 +0.02    +0.052    38.123
ATOM     20  C   UNL d   1      42.596  21.978  15.648 -0.18 +0.01    +0.066    38.123
ATOM     21  C   UNL d   1      42.549  20.679  15.149 -0.17 -0.00    -0.025    38.123
ATOM     22  C   UNL d   1      43.566  19.987  15.768 -0.29 -0.01    -0.021    38.123
ATOM     23  C   UNL d   1      44.186  20.888  16.638 -0.27 +0.04    +0.066    38.123
ATOM     24  C   UNL d   1      41.581  20.126  14.136 -0.25 +0.01    +0.051    38.123
ATOM     25  N   UNL d   1      45.486  22.697  18.618 -0.14 -0.17    -0.248    38.123
ATOM     26  N   UNL d   1      44.564  25.459  18.656 -0.11 -0.13    -0.248    38.123
ATOM     27  N   UNL d   1      42.663  24.845  16.650 -0.18 -0.08    -0.248    38.123
ATOM     28  N   UNL d   1      43.565  22.085  16.595 -0.19 -0.11    -0.248    38.123
ATOM     29 FE   UNL d   1      44.058  23.761  17.617 -0.06 +0.00    +0.000    38.123
ATOM     30  O   UNL d   1      43.704  23.482  19.107 -0.49 +0.00    +0.000    38.123
ATOM     31  O   UNL d   1      42.581  23.389  18.007 -0.49 +0.00    +0.000    38.123
ATOM     32  C   UNL d   1      47.411  19.665  19.580 -0.11 +0.02    +0.052    38.123
ATOM     33  C   UNL d   1      48.754  19.459  18.885 -0.04 +0.07    +0.115    38.123
ATOM     34  C   UNL d   1      48.815  20.136  17.539 +0.29 +0.20    +0.139    38.123
ATOM     35  O   UNL d   1      49.220  21.284  17.459 -0.11 -1.17    -0.650    38.123
ATOM     36  O   UNL d   1      48.404  19.509  16.417 -0.33 -1.34    -0.776    38.123
ATOM     37  H   UNL d   1      47.514  19.622  16.065 +0.02 +0.32    +0.167    38.123
ATOM     38  C   UNL d   1      43.877  18.525  15.576 -0.21 +0.02    +0.052    38.123
ATOM     39  C   UNL d   1      45.216  18.302  14.877 -0.09 +0.06    +0.115    38.123
ATOM     40  C   UNL d   1      45.580  19.437  13.953 -0.20 +0.11    +0.139    38.123
ATOM     41  O   UNL d   1      44.782  19.810  13.108 -0.04 -0.33    -0.650    38.123
ATOM     42  O   UNL d   1      46.754  20.085  14.076 +0.02 -1.52    -0.776    38.123
ATOM     43  H   UNL d   1      47.539  19.645  14.425 +0.03 +0.31    +0.167    38.123
ATOM     44  C   UNL d   1      44.757  29.150  19.462 -0.26 +0.00    +0.004    38.123
ATOM     45  C   UNL d   1      44.230  30.042  18.624 -0.33 +0.00    +0.012    38.123
ATOM     46  C   UNL d   1      39.758  25.151  14.359 -0.59 +0.00    +0.004    38.123
ATOM     47  C   UNL d   1      38.702  25.944  14.137 -0.55 +0.00    +0.012    38.123
TER
ENDMDL
MODEL      100
USER    Run = 100
USER    Cluster Rank = 4
USER    Number of conformations in this cluster = 1
USER  
USER    RMSD from reference structure       = 37.674 A
USER  
USER    Estimated Free Energy of Binding    =   -8.52 kcal/mol  [=(1)+(2)+(3)-(4)]
USER    Estimated Inhibition Constant, Ki   =  569.26 nM (nanomolar)  [Temperature = 298.15 K]
USER    
USER    (1) Final Intermolecular Energy     =  -11.50 kcal/mol
USER        vdW + Hbond + desolv Energy     =   -9.50 kcal/mol
USER        Electrostatic Energy            =   -2.00 kcal/mol
USER    (2) Final Total Internal Energy     =   -1.69 kcal/mol
USER    (3) Torsional Free Energy           =   +2.98 kcal/mol
USER    (4) Unbound System's Energy  [=(2)] =   -1.69 kcal/mol
USER    
USER    
USER  
USER    DPF = D:/Protein_go_brrr/autodock/final/2DN3/heme_O2/dock.dpf
USER    NEWDPF move	heme_O2_opt.pdbqt
USER    NEWDPF about	8.287000 34.468000 -0.670000
USER    NEWDPF tran0	45.293265 30.964580 18.317343
USER    NEWDPF axisangle0	-0.391733 0.406438 0.825441 141.712799
USER    NEWDPF quaternion0	-0.370070 0.383962 0.779794 0.327937
USER    NEWDPF dihe0	0.11 -3.01 -79.24 -34.76 -98.83 -76.08 -54.25 176.08 -171.74 167.66 
USER  
USER                              x       y       z    vdW   Elec        q     RMS 
ATOM      1  C   UNL d   1      47.049  31.873  19.087 -0.11 +0.02    +0.064    37.674
ATOM      2  C   UNL d   1      42.756  33.594  18.009 -0.38 +0.01    +0.064    37.674
ATOM      3  C   UNL d   1      41.282  29.259  16.549 +0.27 +0.03    +0.064    37.674
ATOM      4  C   UNL d   1      45.539  27.379  18.101 -0.17 +0.03    +0.064    37.674
ATOM      5  C   UNL d   1      46.001  32.694  18.915 -0.16 +0.02    +0.066    37.674
ATOM      6  C   UNL d   1      46.024  34.063  19.199 -0.18 -0.00    -0.021    37.674
ATOM      7  C   UNL d   1      44.768  34.554  18.928 -0.32 -0.00    -0.025    37.674
ATOM      8  C   UNL d   1      44.027  33.481  18.440 -0.31 +0.01    +0.066    37.674
ATOM      9  C   UNL d   1      44.327  35.981  19.167 -0.35 +0.00    +0.051    37.674
ATOM     10  C   UNL d   1      41.935  32.511  17.465 -0.44 +0.01    +0.066    37.674
ATOM     11  C   UNL d   1      40.680  32.715  16.881 -0.44 -0.00    -0.021    37.674
ATOM     12  C   UNL d   1      40.247  31.479  16.437 -0.39 +0.00    +0.000    37.674
ATOM     13  C   UNL d   1      41.280  30.569  16.795 -0.25 +0.02    +0.070    37.674
ATOM     14  C   UNL d   1      39.938  34.037  16.727 -0.33 +0.01    +0.052    37.674
ATOM     15  C   UNL d   1      42.291  28.299  16.926 -0.26 +0.02    +0.066    37.674
ATOM     16  C   UNL d   1      42.160  26.917  16.784 -0.36 -0.01    -0.021    37.674
ATOM     17  C   UNL d   1      43.362  26.360  17.221 -0.29 +0.00    +0.000    37.674
ATOM     18  C   UNL d   1      44.147  27.458  17.600 -0.25 +0.03    +0.070    37.674
ATOM     19  C   UNL d   1      40.893  26.257  16.302 -0.42 +0.01    +0.052    37.674
ATOM     20  C   UNL d   1      46.306  28.408  18.513 -0.11 +0.03    +0.066    37.674
ATOM     21  C   UNL d   1      47.618  28.274  18.959 -0.10 -0.01    -0.025    37.674
ATOM     22  C   UNL d   1      48.073  29.547  19.219 -0.09 -0.01    -0.021    37.674
ATOM     23  C   UNL d   1      47.011  30.413  18.938 -0.12 +0.03    +0.066    37.674
ATOM     24  C   UNL d   1      48.396  26.996  19.132 -0.08 +0.03    +0.051    37.674
ATOM     25  N   UNL d   1      44.767  32.323  18.494 -0.14 -0.07    -0.248    37.674
ATOM     26  N   UNL d   1      42.301  31.204  17.424 -0.26 -0.06    -0.248    37.674
ATOM     27  N   UNL d   1      43.455  28.620  17.484 -0.20 -0.09    -0.248    37.674
ATOM     28  N   UNL d   1      45.925  29.712  18.552 -0.10 -0.11    -0.248    37.674
ATOM     29 FE   UNL d   1      44.125  30.450  17.992 -0.06 +0.00    +0.000    37.674
ATOM     30  O   UNL d   1      43.466  31.016  19.284 -0.43 +0.00    +0.000    37.674
ATOM     31  O   UNL d   1      43.883  29.498  19.220 -0.07 +0.00    +0.000    37.674
ATOM     32  C   UNL d   1      47.138  34.855  19.832 -0.10 +0.01    +0.052    37.674
ATOM     33  C   UNL d   1      47.068  34.864  21.356 -0.10 +0.02    +0.115    37.674
ATOM     34  C   UNL d   1      48.335  34.349  21.993 -0.04 +0.03    +0.139    37.674
ATOM     35  O   UNL d   1      49.067  35.121  22.591 +0.02 -0.09    -0.650    37.674
ATOM     36  O   UNL d   1      48.696  33.053  21.892 +0.03 -0.25    -0.776    37.674
ATOM     37  H   UNL d   1      48.165  32.410  21.408 +0.02 +0.07    +0.167    37.674
ATOM     38  C   UNL d   1      49.431  29.900  19.768 -0.04 +0.02    +0.052    37.674
ATOM     39  C   UNL d   1      49.446  29.955  21.294 -0.04 +0.06    +0.115    37.674
ATOM     40  C   UNL d   1      48.074  29.765  21.891 -0.06 +0.16    +0.139    37.674
ATOM     41  O   UNL d   1      47.522  28.680  21.808 -0.52 -1.08    -0.650    37.674
ATOM     42  O   UNL d   1      47.463  30.761  22.562 -0.13 -1.03    -0.776    37.674
ATOM     43  H   UNL d   1      47.884  31.620  22.683 +0.01 +0.13    +0.167    37.674
ATOM     44  C   UNL d   1      38.917  31.298  15.736 -0.44 +0.00    +0.004    37.674
ATOM     45  C   UNL d   1      38.683  31.253  14.425 -0.45 +0.00    +0.012    37.674
ATOM     46  C   UNL d   1      43.792  24.924  17.361 -0.33 +0.00    +0.004    37.674
ATOM     47  C   UNL d   1      43.082  23.888  17.826 -0.43 +0.00    +0.012    37.674
TER
ENDMDL
MODEL       33
USER    Run = 33
USER    Cluster Rank = 5
USER    Number of conformations in this cluster = 3
USER  
USER    RMSD from reference structure       = 16.838 A
USER  
USER    Estimated Free Energy of Binding    =   -8.17 kcal/mol  [=(1)+(2)+(3)-(4)]
USER    Estimated Inhibition Constant, Ki   =    1.03 uM (micromolar)  [Temperature = 298.15 K]
USER    
USER    (1) Final Intermolecular Energy     =  -11.15 kcal/mol
USER        vdW + Hbond + desolv Energy     =   -8.03 kcal/mol
USER        Electrostatic Energy            =   -3.12 kcal/mol
USER    (2) Final Total Internal Energy     =   -0.71 kcal/mol
USER    (3) Torsional Free Energy           =   +2.98 kcal/mol
USER    (4) Unbound System's Energy  [=(2)] =   -0.71 kcal/mol
USER    
USER    
USER  
USER    DPF = D:/Protein_go_brrr/autodock/final/2DN3/heme_O2/dock.dpf
USER    NEWDPF move	heme_O2_opt.pdbqt
USER    NEWDPF about	8.287000 34.468000 -0.670000
USER    NEWDPF tran0	26.259368 44.760209 -2.247105
USER    NEWDPF axisangle0	-0.676778 0.344593 0.650560 147.586893
USER    NEWDPF quaternion0	-0.649884 0.330900 0.624707 0.279101
USER    NEWDPF dihe0	78.94 61.12 73.88 -95.21 133.84 -146.14 -92.59 87.14 178.25 26.74 
USER  
USER                              x       y       z    vdW   Elec        q     RMS 
ATOM      1  C   UNL d   1      27.007  45.800  -0.556 -0.13 +0.02    +0.064    16.838
ATOM      2  C   UNL d   1      23.535  46.777  -3.646 -0.16 +0.01    +0.064    16.838
ATOM      3  C   UNL d   1      24.440  42.736  -6.083 -0.15 +0.01    +0.064    16.838
ATOM      4  C   UNL d   1      27.697  41.482  -2.635 -0.14 +0.01    +0.064    16.838
ATOM      5  C   UNL d   1      25.987  46.394  -1.196 -0.04 +0.02    +0.066    16.838
ATOM      6  C   UNL d   1      25.432  47.620  -0.816 -0.09 -0.00    -0.021    16.838
ATOM      7  C   UNL d   1      24.399  47.883  -1.684 -0.11 -0.00    -0.025    16.838
ATOM      8  C   UNL d   1      24.382  46.834  -2.600 -0.13 +0.01    +0.066    16.838
ATOM      9  C   UNL d   1      23.473  49.076  -1.592 -0.11 +0.00    +0.051    16.838
ATOM     10  C   UNL d   1      23.485  45.716  -4.652 -0.19 +0.01    +0.066    16.838
ATOM     11  C   UNL d   1      22.698  45.786  -5.807 -0.14 -0.00    -0.021    16.838
ATOM     12  C   UNL d   1      22.959  44.638  -6.532 -0.15 +0.00    +0.000    16.838
ATOM     13  C   UNL d   1      23.902  43.910  -5.754 -0.17 +0.01    +0.070    16.838
ATOM     14  C   UNL d   1      21.758  46.915  -6.215 -0.09 +0.00    +0.052    16.838
ATOM     15  C   UNL d   1      25.370  41.950  -5.308 -0.15 +0.01    +0.066    16.838
ATOM     16  C   UNL d   1      25.770  40.654  -5.630 -0.17 -0.00    -0.021    16.838
ATOM     17  C   UNL d   1      26.698  40.275  -4.661 -0.20 +0.00    +0.000    16.838
ATOM     18  C   UNL d   1      26.798  41.385  -3.809 -0.16 +0.01    +0.070    16.838
ATOM     19  C   UNL d   1      25.196  39.880  -6.791 -0.13 +0.01    +0.052    16.838
ATOM     20  C   UNL d   1      27.785  42.514  -1.773 -0.15 +0.02    +0.066    16.838
ATOM     21  C   UNL d   1      28.665  42.556  -0.695 -0.12 -0.01    -0.025    16.838
ATOM     22  C   UNL d   1      28.501  43.790  -0.107 -0.14 -0.01    -0.021    16.838
ATOM     23  C   UNL d   1      27.511  44.451  -0.841 -0.15 +0.02    +0.066    16.838
ATOM     24  C   UNL d   1      29.610  41.472  -0.246 -0.09 +0.01    +0.051    16.838
ATOM     25  N   UNL d   1      25.318  45.886  -2.260 -0.10 -0.05    -0.248    16.838
ATOM     26  N   UNL d   1      24.212  44.570  -4.610 -0.15 -0.04    -0.248    16.838
ATOM     27  N   UNL d   1      25.930  42.363  -4.174 -0.16 -0.05    -0.248    16.838
ATOM     28  N   UNL d   1      27.047  43.654  -1.825 -0.12 -0.06    -0.248    16.838
ATOM     29 FE   UNL d   1      25.640  44.106  -3.208 -0.04 +0.00    +0.000    16.838
ATOM     30  O   UNL d   1      24.286  44.175  -2.445 -0.45 +0.00    +0.000    16.838
ATOM     31  O   UNL d   1      25.133  42.847  -2.414 -0.52 +0.00    +0.000    16.838
ATOM     32  C   UNL d   1      25.767  48.448   0.397 -0.10 +0.01    +0.052    16.838
ATOM     33  C   UNL d   1      24.791  48.232   1.550 -0.15 +0.04    +0.115    16.838
ATOM     34  C   UNL d   1      25.162  47.043   2.402 -0.04 +0.12    +0.139    16.838
ATOM     35  O   UNL d   1      25.940  46.209   1.968 -0.14 -0.76    -0.650    16.838
ATOM     36  O   UNL d   1      24.628  46.864   3.628 -0.04 -0.89    -0.776    16.838
ATOM     37  H   UNL d   1      23.742  46.504   3.752 -0.45 +0.04    +0.167    16.838
ATOM     38  C   UNL d   1      29.214  44.276   1.129 -0.10 +0.03    +0.052    16.838
ATOM     39  C   UNL d   1      29.868  45.641   0.926 -0.16 +0.07    +0.115    16.838
ATOM     40  C   UNL d   1      31.314  45.531   0.513 -0.03 +0.17    +0.139    16.838
ATOM     41  O   UNL d   1      31.833  44.431   0.408 -0.22 -1.00    -0.650    16.838
ATOM     42  O   UNL d   1      32.036  46.626   0.207 -0.50 -1.07    -0.776    16.838
ATOM     43  H   UNL d   1      32.224  47.307   0.865 -0.54 +0.15    +0.167    16.838
ATOM     44  C   UNL d   1      22.293  44.359  -7.863 -0.13 +0.00    +0.004    16.838
ATOM     45  C   UNL d   1      21.380  43.429  -8.142 -0.22 +0.00    +0.012    16.838
ATOM     46  C   UNL d   1      27.429  38.977  -4.446 -0.16 +0.00    +0.004    16.838
ATOM     47  C   UNL d   1      27.165  38.015  -3.552 -0.23 +0.00    +0.012    16.838
TER
ENDMDL
MODEL       85
USER    Run = 85
USER    Cluster Rank = 6
USER    Number of conformations in this cluster = 1
USER  
USER    RMSD from reference structure       = 23.398 A
USER  
USER    Estimated Free Energy of Binding    =   -7.96 kcal/mol  [=(1)+(2)+(3)-(4)]
USER    Estimated Inhibition Constant, Ki   =    1.45 uM (micromolar)  [Temperature = 298.15 K]
USER    
USER    (1) Final Intermolecular Energy     =  -10.95 kcal/mol
USER        vdW + Hbond + desolv Energy     =   -8.24 kcal/mol
USER        Electrostatic Energy            =   -2.71 kcal/mol
USER    (2) Final Total Internal Energy     =   -0.57 kcal/mol
USER    (3) Torsional Free Energy           =   +2.98 kcal/mol
USER    (4) Unbound System's Energy  [=(2)] =   -0.57 kcal/mol
USER    
USER    
USER  
USER    DPF = D:/Protein_go_brrr/autodock/final/2DN3/heme_O2/dock.dpf
USER    NEWDPF move	heme_O2_opt.pdbqt
USER    NEWDPF about	8.287000 34.468000 -0.670000
USER    NEWDPF tran0	23.783799 17.254593 14.768016
USER    NEWDPF axisangle0	0.697808 -0.136165 -0.703223 162.066147
USER    NEWDPF quaternion0	0.689280 -0.134501 -0.694629 0.155864
USER    NEWDPF dihe0	73.44 -14.45 -114.25 -101.71 -143.53 159.06 180.00 -87.82 180.00 -19.66 
USER  
USER                              x       y       z    vdW   Elec        q     RMS 
ATOM      1  C   UNL d   1      24.277  16.324  16.609 -0.08 +0.03    +0.064    23.398
ATOM      2  C   UNL d   1      21.977  20.346  15.562 -0.31 +0.01    +0.064    23.398
ATOM      3  C   UNL d   1      22.618  19.595  10.858 -0.16 +0.01    +0.064    23.398
ATOM      4  C   UNL d   1      24.566  15.217  11.905 -0.05 +0.01    +0.064    23.398
ATOM      5  C   UNL d   1      23.597  17.478  16.708 -0.09 +0.03    +0.066    23.398
ATOM      6  C   UNL d   1      23.229  18.068  17.921 -0.20 -0.01    -0.021    23.398
ATOM      7  C   UNL d   1      22.525  19.210  17.618 -0.29 -0.00    -0.025    23.398
ATOM      8  C   UNL d   1      22.525  19.312  16.229 -0.28 +0.02    +0.066    23.398
ATOM      9  C   UNL d   1      21.872  20.120  18.635 -0.38 -0.01    +0.051    23.398
ATOM     10  C   UNL d   1      21.966  20.519  14.108 -0.34 +0.01    +0.066    23.398
ATOM     11  C   UNL d   1      21.529  21.688  13.476 -0.45 -0.00    -0.021    23.398
ATOM     12  C   UNL d   1      21.723  21.498  12.120 -0.39 +0.00    +0.000    23.398
ATOM     13  C   UNL d   1      22.267  20.190  11.999 -0.23 +0.01    +0.070    23.398
ATOM     14  C   UNL d   1      20.976  22.944  14.139 -0.37 -0.00    +0.052    23.398
ATOM     15  C   UNL d   1      23.139  18.260  10.690 -0.11 +0.02    +0.066    23.398
ATOM     16  C   UNL d   1      23.332  17.636   9.458 -0.07 -0.00    -0.021    23.398
ATOM     17  C   UNL d   1      23.886  16.386   9.731 -0.06 +0.00    +0.000    23.398
ATOM     18  C   UNL d   1      23.993  16.341  11.129 -0.08 +0.02    +0.070    23.398
ATOM     19  C   UNL d   1      22.923  18.260   8.147 -0.04 +0.01    +0.052    23.398
ATOM     20  C   UNL d   1      24.644  15.123  13.247 -0.07 +0.02    +0.066    23.398
ATOM     21  C   UNL d   1      25.211  14.045  13.922 -0.04 -0.01    -0.025    23.398
ATOM     22  C   UNL d   1      25.162  14.356  15.262 -0.06 -0.01    -0.021    23.398
ATOM     23  C   UNL d   1      24.548  15.608  15.357 -0.07 +0.02    +0.066    23.398
ATOM     24  C   UNL d   1      25.769  12.782  13.319 -0.02 +0.01    +0.051    23.398
ATOM     25  N   UNL d   1      23.129  18.211  15.668 -0.10 -0.10    -0.248    23.398
ATOM     26  N   UNL d   1      22.407  19.599  13.213 -0.17 -0.07    -0.248    23.398
ATOM     27  N   UNL d   1      23.466  17.455  11.697 -0.07 -0.06    -0.248    23.398
ATOM     28  N   UNL d   1      24.194  16.050  14.133 -0.06 -0.08    -0.248    23.398
ATOM     29 FE   UNL d   1      23.307  17.811  13.673 -0.05 +0.00    +0.000    23.398
ATOM     30  O   UNL d   1      21.848  17.715  14.205 -0.29 +0.00    +0.000    23.398
ATOM     31  O   UNL d   1      22.368  16.661  13.156 -0.21 +0.00    +0.000    23.398
ATOM     32  C   UNL d   1      23.409  17.513  19.310 -0.12 +0.01    +0.052    23.398
ATOM     33  C   UNL d   1      22.164  16.800  19.829 -0.06 +0.02    +0.115    23.398
ATOM     34  C   UNL d   1      21.016  16.861  18.851 -0.10 +0.08    +0.139    23.398
ATOM     35  O   UNL d   1      21.110  16.292  17.775 -0.49 -0.64    -0.650    23.398
ATOM     36  O   UNL d   1      19.894  17.557  19.126 -0.07 -0.24    -0.776    23.398
ATOM     37  H   UNL d   1      19.871  18.520  19.104 -0.36 -0.12    +0.167    23.398
ATOM     38  C   UNL d   1      25.623  13.466  16.388 -0.03 +0.02    +0.052    23.398
ATOM     39  C   UNL d   1      27.130  13.550  16.617 -0.06 +0.05    +0.115    23.398
ATOM     40  C   UNL d   1      27.501  14.608  17.626 -0.03 +0.15    +0.139    23.398
ATOM     41  O   UNL d   1      27.148  15.763  17.452 -0.44 -0.89    -0.650    23.398
ATOM     42  O   UNL d   1      28.175  14.292  18.749 -0.30 -1.18    -0.776    23.398
ATOM     43  H   UNL d   1      28.295  13.375  19.025 +0.01 +0.13    +0.167    23.398
ATOM     44  C   UNL d   1      21.372  22.562  11.101 -0.46 +0.00    +0.004    23.398
ATOM     45  C   UNL d   1      21.876  23.790  10.993 -0.50 +0.00    +0.012    23.398
ATOM     46  C   UNL d   1      24.255  15.248   8.818 -0.03 +0.00    +0.004    23.398
ATOM     47  C   UNL d   1      23.646  14.063   8.683 -0.03 +0.00    +0.012    23.398
TER
ENDMDL
MODEL       92
USER    Run = 92
USER    Cluster Rank = 7
USER    Number of conformations in this cluster = 1
USER  
USER    RMSD from reference structure       = 28.362 A
USER  
USER    Estimated Free Energy of Binding    =   -7.59 kcal/mol  [=(1)+(2)+(3)-(4)]
USER    Estimated Inhibition Constant, Ki   =    2.71 uM (micromolar)  [Temperature = 298.15 K]
USER    
USER    (1) Final Intermolecular Energy     =  -10.58 kcal/mol
USER        vdW + Hbond + desolv Energy     =   -7.67 kcal/mol
USER        Electrostatic Energy            =   -2.90 kcal/mol
USER    (2) Final Total Internal Energy     =   -1.51 kcal/mol
USER    (3) Torsional Free Energy           =   +2.98 kcal/mol
USER    (4) Unbound System's Energy  [=(2)] =   -1.51 kcal/mol
USER    
USER    
USER  
USER    DPF = D:/Protein_go_brrr/autodock/final/2DN3/heme_O2/dock.dpf
USER    NEWDPF move	heme_O2_opt.pdbqt
USER    NEWDPF about	8.287000 34.468000 -0.670000
USER    NEWDPF tran0	17.948747 26.362528 29.230415
USER    NEWDPF axisangle0	-0.181691 0.941439 -0.284043 -151.319530
USER    NEWDPF quaternion0	-0.176030 0.912106 -0.275193 -0.247679
USER    NEWDPF dihe0	89.58 -85.88 80.58 -118.39 -111.11 54.17 -40.95 -74.11 166.65 29.61 
USER  
USER                              x       y       z    vdW   Elec        q     RMS 
ATOM      1  C   UNL d   1      18.923  28.023  30.120 +0.06 +0.02    +0.064    28.362
ATOM      2  C   UNL d   1      20.503  23.803  28.619 -0.11 +0.00    +0.064    28.362
ATOM      3  C   UNL d   1      16.064  22.500  27.320 -0.15 -0.01    +0.064    28.362
ATOM      4  C   UNL d   1      14.503  27.019  28.419 -0.09 -0.00    +0.064    28.362
ATOM      5  C   UNL d   1      19.715  26.983  29.816 -0.10 +0.01    +0.066    28.362
ATOM      6  C   UNL d   1      21.091  26.948  30.062 -0.13 -0.00    -0.021    28.362
ATOM      7  C   UNL d   1      21.557  25.744  29.588 -0.16 -0.00    -0.025    28.362
ATOM      8  C   UNL d   1      20.445  25.056  29.110 -0.15 +0.01    +0.066    28.362
ATOM      9  C   UNL d   1      23.009  25.320  29.582 -0.23 -0.00    +0.051    28.362
ATOM     10  C   UNL d   1      19.368  23.022  28.125 -0.11 -0.00    +0.066    28.362
ATOM     11  C   UNL d   1      19.457  21.669  27.779 -0.10 +0.00    -0.021    28.362
ATOM     12  C   UNL d   1      18.183  21.271  27.419 -0.11 -0.00    +0.000    28.362
ATOM     13  C   UNL d   1      17.374  22.432  27.556 -0.10 -0.01    +0.070    28.362
ATOM     14  C   UNL d   1      20.700  20.787  27.817 -0.08 -0.01    +0.052    28.362
ATOM     15  C   UNL d   1      15.216  23.664  27.413 -0.13 -0.00    +0.066    28.362
ATOM     16  C   UNL d   1      13.886  23.709  26.994 -0.21 +0.00    -0.021    28.362
ATOM     17  C   UNL d   1      13.421  24.988  27.297 -0.19 -0.00    +0.000    28.362
ATOM     18  C   UNL d   1      14.515  25.636  27.888 -0.11 +0.00    +0.070    28.362
ATOM     19  C   UNL d   1      13.203  22.557  26.299 -0.34 -0.01    +0.052    28.362
ATOM     20  C   UNL d   1      15.546  27.685  28.952 -0.12 +0.00    +0.066    28.362
ATOM     21  C   UNL d   1      15.470  28.982  29.453 -0.15 -0.00    -0.025    28.362
ATOM     22  C   UNL d   1      16.713  29.274  29.966 -0.15 -0.00    -0.021    28.362
ATOM     23  C   UNL d   1      17.510  28.147  29.743 -0.05 +0.01    +0.066    28.362
ATOM     24  C   UNL d   1      14.273  29.896  29.439 -0.20 -0.01    +0.051    28.362
ATOM     25  N   UNL d   1      19.321  25.846  29.191 -0.11 -0.04    -0.248    28.362
ATOM     26  N   UNL d   1      18.104  23.494  27.982 -0.07 -0.00    -0.248    28.362
ATOM     27  N   UNL d   1      15.616  24.842  27.881 -0.06 -0.00    -0.248    28.362
ATOM     28  N   UNL d   1      16.809  27.201  29.086 -0.08 -0.03    -0.248    28.362
ATOM     29 FE   UNL d   1      17.449  25.361  28.537 -0.03 +0.00    +0.000    28.362
ATOM     30  O   UNL d   1      18.478  25.582  27.390 -0.87 +0.00    +0.000    28.362
ATOM     31  O   UNL d   1      17.004  26.114  27.230 -0.46 +0.00    +0.000    28.362
ATOM     32  C   UNL d   1      21.962  28.056  30.595 -0.16 +0.02    +0.052    28.362
ATOM     33  C   UNL d   1      22.905  28.627  29.541 -0.24 +0.04    +0.115    28.362
ATOM     34  C   UNL d   1      22.971  30.134  29.582 -0.15 +0.13    +0.139    28.362
ATOM     35  O   UNL d   1      23.888  30.682  30.172 -0.30 -0.85    -0.650    28.362
ATOM     36  O   UNL d   1      22.019  30.895  29.005 +0.04 -0.84    -0.776    28.362
ATOM     37  H   UNL d   1      21.232  31.181  29.484 +0.03 +0.28    +0.167    28.362
ATOM     38  C   UNL d   1      17.124  30.589  30.578 -0.23 +0.01    +0.052    28.362
ATOM     39  C   UNL d   1      17.833  30.411  31.919 -0.10 +0.04    +0.115    28.362
ATOM     40  C   UNL d   1      19.323  30.622  31.815 -0.15 +0.13    +0.139    28.362
ATOM     41  O   UNL d   1      20.058  30.190  32.689 -0.02 -0.62    -0.650    28.362
ATOM     42  O   UNL d   1      19.866  31.235  30.746 -0.48 -1.37    -0.776    28.362
ATOM     43  H   UNL d   1      20.056  30.755  29.931 +0.02 +0.19    +0.167    28.362
ATOM     44  C   UNL d   1      17.878  19.852  26.985 -0.18 -0.00    +0.004    28.362
ATOM     45  C   UNL d   1      17.666  19.401  25.750 -0.24 -0.01    +0.012    28.362
ATOM     46  C   UNL d   1      12.092  25.645  27.031 -0.29 -0.00    +0.004    28.362
ATOM     47  C   UNL d   1      11.851  26.798  26.393 -0.36 -0.00    +0.012    28.362
TER
ENDMDL
MODEL       77
USER    Run = 77
USER    Cluster Rank = 8
USER    Number of conformations in this cluster = 1
USER  
USER    RMSD from reference structure       = 19.248 A
USER  
USER    Estimated Free Energy of Binding    =   -7.54 kcal/mol  [=(1)+(2)+(3)-(4)]
USER    Estimated Inhibition Constant, Ki   =    2.96 uM (micromolar)  [Temperature = 298.15 K]
USER    
USER    (1) Final Intermolecular Energy     =  -10.53 kcal/mol
USER        vdW + Hbond + desolv Energy     =   -9.10 kcal/mol
USER        Electrostatic Energy            =   -1.43 kcal/mol
USER    (2) Final Total Internal Energy     =   -0.81 kcal/mol
USER    (3) Torsional Free Energy           =   +2.98 kcal/mol
USER    (4) Unbound System's Energy  [=(2)] =   -0.81 kcal/mol
USER    
USER    
USER  
USER    DPF = D:/Protein_go_brrr/autodock/final/2DN3/heme_O2/dock.dpf
USER    NEWDPF move	heme_O2_opt.pdbqt
USER    NEWDPF about	8.287000 34.468000 -0.670000
USER    NEWDPF tran0	30.867733 36.476529 2.968523
USER    NEWDPF axisangle0	-0.039837 -0.998997 0.020444 54.779994
USER    NEWDPF quaternion0	-0.018327 -0.459583 0.009405 0.887896
USER    NEWDPF dihe0	-71.27 -69.13 -100.05 125.35 45.22 -174.16 -123.87 -73.39 2.44 160.30 
USER  
USER                              x       y       z    vdW   Elec        q     RMS 
ATOM      1  C   UNL d   1      29.156  37.111   4.048 -0.20 -0.01    +0.064    19.248
ATOM      2  C   UNL d   1      32.767  34.233   5.162 -0.35 +0.02    +0.064    19.248
ATOM      3  C   UNL d   1      34.709  34.834   0.808 -0.13 +0.01    +0.064    19.248
ATOM      4  C   UNL d   1      31.253  38.171  -0.184 -0.02 +0.01    +0.064    19.248
ATOM      5  C   UNL d   1      29.980  36.281   4.707 -0.14 +0.00    +0.066    19.248
ATOM      6  C   UNL d   1      29.759  35.830   6.012 -0.31 +0.00    -0.021    19.248
ATOM      7  C   UNL d   1      30.826  35.032   6.351 -0.39 -0.01    -0.025    19.248
ATOM      8  C   UNL d   1      31.645  34.977   5.227 -0.29 +0.02    +0.066    19.248
ATOM      9  C   UNL d   1      31.033  34.393   7.707 -0.13 +0.02    +0.051    19.248
ATOM     10  C   UNL d   1      33.654  34.118   4.004 -0.31 +0.02    +0.066    19.248
ATOM     11  C   UNL d   1      34.713  33.207   3.933 -0.41 -0.00    -0.021    19.248
ATOM     12  C   UNL d   1      35.274  33.352   2.678 -0.32 +0.00    +0.000    19.248
ATOM     13  C   UNL d   1      34.517  34.375   2.044 -0.18 +0.01    +0.070    19.248
ATOM     14  C   UNL d   1      35.154  32.219   5.008 -0.60 +0.01    +0.052    19.248
ATOM     15  C   UNL d   1      33.987  35.892   0.143 -0.06 +0.01    +0.066    19.248
ATOM     16  C   UNL d   1      34.343  36.438  -1.090 -0.04 -0.00    -0.021    19.248
ATOM     17  C   UNL d   1      33.372  37.393  -1.393 -0.02 +0.00    +0.000    19.248
ATOM     18  C   UNL d   1      32.484  37.355  -0.308 -0.02 +0.01    +0.070    19.248
ATOM     19  C   UNL d   1      35.593  36.043  -1.835 -0.03 +0.01    +0.052    19.248
ATOM     20  C   UNL d   1      30.404  38.192   0.861 -0.05 +0.01    +0.066    19.248
ATOM     21  C   UNL d   1      29.250  38.969   0.914 -0.13 -0.00    -0.025    19.248
ATOM     22  C   UNL d   1      28.625  38.659   2.101 -0.21 +0.00    -0.021    19.248
ATOM     23  C   UNL d   1      29.434  37.714   2.740 -0.14 -0.00    +0.066    19.248
ATOM     24  C   UNL d   1      28.770  39.960  -0.115 -0.15 +0.01    +0.051    19.248
ATOM     25  N   UNL d   1      31.157  35.799   4.237 -0.11 -0.06    -0.248    19.248
ATOM     26  N   UNL d   1      33.536  34.839   2.860 -0.13 -0.05    -0.248    19.248
ATOM     27  N   UNL d   1      32.914  36.493   0.648 -0.03 -0.05    -0.248    19.248
ATOM     28  N   UNL d   1      30.536  37.467   2.003 -0.04 -0.04    -0.248    19.248
ATOM     29 FE   UNL d   1      32.026  36.163   2.426 -0.03 +0.00    +0.000    19.248
ATOM     30  O   UNL d   1      32.805  36.769   3.630 -0.24 +0.00    +0.000    19.248
ATOM     31  O   UNL d   1      32.672  37.591   2.292 -0.22 +0.00    +0.000    19.248
ATOM     32  C   UNL d   1      28.660  36.242   6.956 -0.31 -0.04    +0.052    19.248
ATOM     33  C   UNL d   1      27.385  35.423   6.775 -0.31 -0.06    +0.115    19.248
ATOM     34  C   UNL d   1      27.638  33.939   6.864 -0.34 +0.03    +0.139    19.248
ATOM     35  O   UNL d   1      27.623  33.262   5.848 -0.38 -0.48    -0.650    19.248
ATOM     36  O   UNL d   1      27.852  33.332   8.050 +0.15 -0.16    -0.776    19.248
ATOM     37  H   UNL d   1      28.667  33.461   8.549 -0.41 +0.01    +0.167    19.248
ATOM     38  C   UNL d   1      27.356  39.288   2.616 -0.35 -0.01    +0.052    19.248
ATOM     39  C   UNL d   1      27.627  40.407   3.619 -0.40 -0.06    +0.115    19.248
ATOM     40  C   UNL d   1      27.398  41.777   3.030 -0.43 +0.01    +0.139    19.248
ATOM     41  O   UNL d   1      27.571  41.960   1.836 -0.00 -0.17    -0.650    19.248
ATOM     42  O   UNL d   1      26.955  42.796   3.792 +0.14 -0.51    -0.776    19.248
ATOM     43  H   UNL d   1      26.071  42.791   4.177 -0.43 +0.05    +0.167    19.248
ATOM     44  C   UNL d   1      36.454  32.519   2.224 -0.27 -0.00    +0.004    19.248
ATOM     45  C   UNL d   1      36.457  31.242   1.843 -0.33 +0.00    +0.012    19.248
ATOM     46  C   UNL d   1      33.250  38.344  -2.553 -0.00 +0.00    +0.004    19.248
ATOM     47  C   UNL d   1      32.275  38.414  -3.468 -0.00 +0.00    +0.012    19.248
TER
ENDMDL
MODEL       67
USER    Run = 67
USER    Cluster Rank = 9
USER    Number of conformations in this cluster = 1
USER  
USER    RMSD from reference structure       = 24.377 A
USER  
USER    Estimated Free Energy of Binding    =   -7.46 kcal/mol  [=(1)+(2)+(3)-(4)]
USER    Estimated Inhibition Constant, Ki   =    3.40 uM (micromolar)  [Temperature = 298.15 K]
USER    
USER    (1) Final Intermolecular Energy     =  -10.44 kcal/mol
USER        vdW + Hbond + desolv Energy     =  -10.63 kcal/mol
USER        Electrostatic Energy            =   +0.19 kcal/mol
USER    (2) Final Total Internal Energy     =   -0.56 kcal/mol
USER    (3) Torsional Free Energy           =   +2.98 kcal/mol
USER    (4) Unbound System's Energy  [=(2)] =   -0.56 kcal/mol
USER    
USER    
USER  
USER    DPF = D:/Protein_go_brrr/autodock/final/2DN3/heme_O2/dock.dpf
USER    NEWDPF move	heme_O2_opt.pdbqt
USER    NEWDPF about	8.287000 34.468000 -0.670000
USER    NEWDPF tran0	13.714660 41.299007 24.095056
USER    NEWDPF axisangle0	0.223302 -0.811267 -0.540353 -134.067243
USER    NEWDPF quaternion0	0.205602 -0.746961 -0.497522 -0.390191
USER    NEWDPF dihe0	106.75 -77.97 101.90 -8.42 -116.69 -77.23 50.10 78.14 164.63 -16.59 
USER  
USER                              x       y       z    vdW   Elec        q     RMS 
ATOM      1  C   UNL d   1      15.536  42.386  24.092 -0.29 -0.02    +0.064    24.377
ATOM      2  C   UNL d   1      11.678  42.583  21.329 -0.19 -0.02    +0.064    24.377
ATOM      3  C   UNL d   1       9.615  39.012  23.796 -0.33 -0.02    +0.064    24.377
ATOM      4  C   UNL d   1      13.378  39.122  26.943 -0.23 -0.02    +0.064    24.377
ATOM      5  C   UNL d   1      14.654  42.732  23.140 -0.29 -0.02    +0.066    24.377
ATOM      6  C   UNL d   1      14.883  43.727  22.186 -0.37 +0.01    -0.021    24.377
ATOM      7  C   UNL d   1      13.749  43.815  21.412 -0.30 +0.01    -0.025    24.377
ATOM      8  C   UNL d   1      12.878  42.838  21.885 -0.28 -0.02    +0.066    24.377
ATOM      9  C   UNL d   1      13.535  44.820  20.301 -0.23 -0.01    +0.051    24.377
ATOM     10  C   UNL d   1      10.730  41.557  21.767 -0.22 -0.02    +0.066    24.377
ATOM     11  C   UNL d   1       9.573  41.225  21.054 -0.27 +0.01    -0.021    24.377
ATOM     12  C   UNL d   1       8.973  40.184  21.740 -0.30 -0.00    +0.000    24.377
ATOM     13  C   UNL d   1       9.812  39.944  22.864 -0.26 -0.02    +0.070    24.377
ATOM     14  C   UNL d   1       9.073  41.855  19.759 -0.34 -0.03    +0.052    24.377
ATOM     15  C   UNL d   1      10.421  38.760  24.967 -0.25 -0.02    +0.066    24.377
ATOM     16  C   UNL d   1      10.073  37.880  25.991 -0.26 +0.01    -0.021    24.377
ATOM     17  C   UNL d   1      11.131  37.896  26.901 -0.25 -0.00    +0.000    24.377
ATOM     18  C   UNL d   1      12.058  38.794  26.354 -0.25 -0.03    +0.070    24.377
ATOM     19  C   UNL d   1       8.752  37.153  26.039 -0.29 -0.01    +0.052    24.377
ATOM     20  C   UNL d   1      14.272  40.011  26.468 -0.23 -0.02    +0.066    24.377
ATOM     21  C   UNL d   1      15.507  40.265  27.056 -0.22 +0.00    -0.025    24.377
ATOM     22  C   UNL d   1      16.148  41.173  26.243 -0.25 +0.00    -0.021    24.377
ATOM     23  C   UNL d   1      15.268  41.454  25.193 -0.27 -0.02    +0.066    24.377
ATOM     24  C   UNL d   1      16.048  39.675  28.333 -0.19 -0.01    +0.051    24.377
ATOM     25  N   UNL d   1      13.410  42.216  22.991 -0.16 +0.08    -0.248    24.377
ATOM     26  N   UNL d   1      10.876  40.786  22.874 -0.17 +0.07    -0.248    24.377
ATOM     27  N   UNL d   1      11.578  39.365  25.220 -0.16 +0.11    -0.248    24.377
ATOM     28  N   UNL d   1      14.111  40.779  25.358 +0.08 +0.11    -0.248    24.377
ATOM     29 FE   UNL d   1      12.504  40.781  24.127 -0.06 -0.00    +0.000    24.377
ATOM     30  O   UNL d   1      11.856  42.190  24.260 -0.16 -0.00    +0.000    24.377
ATOM     31  O   UNL d   1      12.019  41.281  25.537 -0.15 -0.00    +0.000    24.377
ATOM     32  C   UNL d   1      16.065  44.657  22.086 -0.19 -0.01    +0.052    24.377
ATOM     33  C   UNL d   1      15.704  46.108  22.390 -0.22 -0.02    +0.115    24.377
ATOM     34  C   UNL d   1      16.249  47.064  21.358 -0.24 -0.02    +0.139    24.377
ATOM     35  O   UNL d   1      15.559  47.377  20.401 +0.03 +0.10    -0.650    24.377
ATOM     36  O   UNL d   1      17.499  47.563  21.453 -0.03 +0.13    -0.776    24.377
ATOM     37  H   UNL d   1      18.211  47.272  20.871 -0.24 -0.06    +0.167    24.377
ATOM     38  C   UNL d   1      17.502  41.781  26.500 -0.24 -0.01    +0.052    24.377
ATOM     39  C   UNL d   1      18.641  40.900  25.992 -0.34 -0.02    +0.115    24.377
ATOM     40  C   UNL d   1      19.333  40.152  27.104 -0.29 -0.01    +0.139    24.377
ATOM     41  O   UNL d   1      18.734  39.279  27.711 -0.36 -0.09    -0.650    24.377
ATOM     42  O   UNL d   1      20.622  40.395  27.410 +0.03 +0.18    -0.776    24.377
ATOM     43  H   UNL d   1      21.342  40.072  26.855 -0.48 -0.08    +0.167    24.377
ATOM     44  C   UNL d   1       7.687  39.543  21.265 -0.40 -0.00    +0.004    24.377
ATOM     45  C   UNL d   1       6.439  39.968  21.460 -0.28 -0.00    +0.012    24.377
ATOM     46  C   UNL d   1      11.306  37.201  28.225 -0.07 -0.00    +0.004    24.377
ATOM     47  C   UNL d   1      10.371  36.610  28.980 -0.16 -0.00    +0.012    24.377
TER
ENDMDL
MODEL       13
USER    Run = 13
USER    Cluster Rank = 10
USER    Number of conformations in this cluster = 4
USER  
USER    RMSD from reference structure       = 16.960 A
USER  
USER    Estimated Free Energy of Binding    =   -7.40 kcal/mol  [=(1)+(2)+(3)-(4)]
USER    Estimated Inhibition Constant, Ki   =    3.76 uM (micromolar)  [Temperature = 298.15 K]
USER    
USER    (1) Final Intermolecular Energy     =  -10.38 kcal/mol
USER        vdW + Hbond + desolv Energy     =   -8.67 kcal/mol
USER        Electrostatic Energy            =   -1.71 kcal/mol
USER    (2) Final Total Internal Energy     =   -0.65 kcal/mol
USER    (3) Torsional Free Energy           =   +2.98 kcal/mol
USER    (4) Unbound System's Energy  [=(2)] =   -0.65 kcal/mol
USER    
USER    
USER  
USER    DPF = D:/Protein_go_brrr/autodock/final/2DN3/heme_O2/dock.dpf
USER    NEWDPF move	heme_O2_opt.pdbqt
USER    NEWDPF about	8.287000 34.468000 -0.670000
USER    NEWDPF tran0	25.023093 45.591898 -2.269917
USER    NEWDPF axisangle0	-0.406259 -0.913483 -0.022400 -165.268577
USER    NEWDPF quaternion0	-0.402907 -0.905945 -0.022215 -0.128202
USER    NEWDPF dihe0	-37.70 -74.64 36.70 62.03 67.69 5.64 -78.82 -5.16 8.74 174.15 
USER  
USER                              x       y       z    vdW   Elec        q     RMS 
ATOM      1  C   UNL d   1      26.839  44.529  -2.003 -0.16 +0.02    +0.064    16.960
ATOM      2  C   UNL d   1      23.283  44.073  -5.118 -0.15 +0.01    +0.064    16.960
ATOM      3  C   UNL d   1      20.895  47.702  -3.064 -0.26 -0.01    +0.064    16.960
ATOM      4  C   UNL d   1      24.764  48.492  -0.152 -0.09 +0.01    +0.064    16.960
ATOM      5  C   UNL d   1      26.067  44.110  -3.019 -0.22 +0.01    +0.066    16.960
ATOM      6  C   UNL d   1      26.394  43.043  -3.862 -0.19 -0.00    -0.021    16.960
ATOM      7  C   UNL d   1      25.386  42.938  -4.791 -0.21 -0.00    -0.025    16.960
ATOM      8  C   UNL d   1      24.448  43.912  -4.461 -0.24 +0.01    +0.066    16.960
ATOM      9  C   UNL d   1      25.370  41.959  -5.944 -0.17 +0.01    +0.051    16.960
ATOM     10  C   UNL d   1      22.250  45.061  -4.804 -0.27 +0.00    +0.066    16.960
ATOM     11  C   UNL d   1      20.991  45.078  -5.414 -0.36 -0.00    -0.021    16.960
ATOM     12  C   UNL d   1      20.281  46.107  -4.822 -0.36 -0.00    +0.000    16.960
ATOM     13  C   UNL d   1      21.172  46.679  -3.872 -0.28 -0.01    +0.070    16.960
ATOM     14  C   UNL d   1      20.476  44.135  -6.495 -0.40 +0.01    +0.052    16.960
ATOM     15  C   UNL d   1      21.780  48.333  -2.115 -0.21 -0.00    +0.066    16.960
ATOM     16  C   UNL d   1      21.485  49.504  -1.416 -0.19 +0.00    -0.021    16.960
ATOM     17  C   UNL d   1      22.574  49.749  -0.580 -0.13 +0.00    +0.000    16.960
ATOM     18  C   UNL d   1      23.463  48.695  -0.833 -0.11 +0.01    +0.070    16.960
ATOM     19  C   UNL d   1      20.228  50.305  -1.646 -0.26 -0.01    +0.052    16.960
ATOM     20  C   UNL d   1      25.659  47.517  -0.402 -0.06 +0.02    +0.066    16.960
ATOM     21  C   UNL d   1      26.860  47.366   0.285 -0.12 -0.01    -0.025    16.960
ATOM     22  C   UNL d   1      27.452  46.226  -0.210 -0.13 -0.01    -0.021    16.960
ATOM     23  C   UNL d   1      26.595  45.731  -1.198 -0.12 +0.02    +0.066    16.960
ATOM     24  C   UNL d   1      27.417  48.267   1.358 -0.12 +0.02    +0.051    16.960
ATOM     25  N   UNL d   1      24.899  44.676  -3.409 -0.19 -0.05    -0.248    16.960
ATOM     26  N   UNL d   1      22.369  46.040  -3.872 -0.19 -0.00    -0.248    16.960
ATOM     27  N   UNL d   1      22.998  47.888  -1.821 -0.09 -0.02    -0.248    16.960
ATOM     28  N   UNL d   1      25.528  46.544  -1.342 -0.03 -0.06    -0.248    16.960
ATOM     29 FE   UNL d   1      23.959  46.296  -2.597 -0.05 +0.00    +0.000    16.960
ATOM     30  O   UNL d   1      24.507  46.543  -4.033 -0.13 +0.00    +0.000    16.960
ATOM     31  O   UNL d   1      24.629  47.676  -2.945 -0.11 +0.00    +0.000    16.960
ATOM     32  C   UNL d   1      27.668  42.239  -3.882 -0.12 +0.01    +0.052    16.960
ATOM     33  C   UNL d   1      27.592  40.985  -3.017 -0.16 +0.02    +0.115    16.960
ATOM     34  C   UNL d   1      27.298  39.746  -3.825 -0.17 +0.02    +0.139    16.960
ATOM     35  O   UNL d   1      26.144  39.475  -4.117 -0.08 -0.09    -0.650    16.960
ATOM     36  O   UNL d   1      28.283  38.909  -4.212 +0.02 -0.09    -0.776    16.960
ATOM     37  H   UNL d   1      29.150  39.231  -4.484 +0.02 +0.02    +0.167    16.960
ATOM     38  C   UNL d   1      28.797  45.684   0.202 -0.13 +0.03    +0.052    16.960
ATOM     39  C   UNL d   1      29.948  46.350  -0.550 -0.09 +0.05    +0.115    16.960
ATOM     40  C   UNL d   1      31.298  45.921  -0.033 -0.13 +0.14    +0.139    16.960
ATOM     41  O   UNL d   1      32.255  45.892  -0.790 -0.42 -0.87    -0.650    16.960
ATOM     42  O   UNL d   1      31.481  45.615   1.266 -0.42 -1.03    -0.776    16.960
ATOM     43  H   UNL d   1      31.483  46.296   1.949 -0.46 +0.13    +0.167    16.960
ATOM     44  C   UNL d   1      18.856  46.432  -5.218 -0.33 -0.00    +0.004    16.960
ATOM     45  C   UNL d   1      18.261  47.624  -5.229 -0.29 -0.00    +0.012    16.960
ATOM     46  C   UNL d   1      22.860  50.888   0.362 -0.11 -0.00    +0.004    16.960
ATOM     47  C   UNL d   1      22.104  51.338   1.371 -0.21 -0.00    +0.012    16.960
TER
ENDMDL
MODEL       43
USER    Run = 43
USER    Cluster Rank = 11
USER    Number of conformations in this cluster = 1
USER  
USER    RMSD from reference structure       = 31.640 A
USER  
USER    Estimated Free Energy of Binding    =   -7.30 kcal/mol  [=(1)+(2)+(3)-(4)]
USER    Estimated Inhibition Constant, Ki   =    4.48 uM (micromolar)  [Temperature = 298.15 K]
USER    
USER    (1) Final Intermolecular Energy     =  -10.28 kcal/mol
USER        vdW + Hbond + desolv Energy     =   -7.58 kcal/mol
USER        Electrostatic Energy            =   -2.70 kcal/mol
USER    (2) Final Total Internal Energy     =   -1.50 kcal/mol
USER    (3) Torsional Free Energy           =   +2.98 kcal/mol
USER    (4) Unbound System's Energy  [=(2)] =   -1.50 kcal/mol
USER    
USER    
USER  
USER    DPF = D:/Protein_go_brrr/autodock/final/2DN3/heme_O2/dock.dpf
USER    NEWDPF move	heme_O2_opt.pdbqt
USER    NEWDPF about	8.287000 34.468000 -0.670000
USER    NEWDPF tran0	27.038003 19.289953 26.053290
USER    NEWDPF axisangle0	0.344234 0.444459 0.827018 145.876559
USER    NEWDPF quaternion0	0.329084 0.424898 0.790620 0.293402
USER    NEWDPF dihe0	4.59 -52.45 121.81 -105.02 -175.16 -11.50 -124.02 -36.97 -45.98 -5.03 
USER  
USER                              x       y       z    vdW   Elec        q     RMS 
ATOM      1  C   UNL d   1      28.412  18.662  24.564 -0.20 +0.01    +0.064    31.640
ATOM      2  C   UNL d   1      26.671  22.924  25.729 -0.27 -0.05    +0.064    31.640
ATOM      3  C   UNL d   1      23.971  20.977  29.195 -0.09 -0.00    +0.064    31.640
ATOM      4  C   UNL d   1      26.115  16.652  28.322 -0.01 -0.00    +0.064    31.640
ATOM      5  C   UNL d   1      28.160  19.980  24.599 -0.28 -0.00    +0.066    31.640
ATOM      6  C   UNL d   1      28.732  20.910  23.727 -0.38 +0.00    -0.021    31.640
ATOM      7  C   UNL d   1      28.262  22.150  24.091 -0.34 +0.01    -0.025    31.640
ATOM      8  C   UNL d   1      27.378  21.938  25.145 -0.30 -0.03    +0.066    31.640
ATOM      9  C   UNL d   1      28.686  23.457  23.456 -0.23 -0.02    +0.051    31.640
ATOM     10  C   UNL d   1      25.712  22.760  26.822 -0.35 -0.03    +0.066    31.640
ATOM     11  C   UNL d   1      24.884  23.791  27.281 -0.40 +0.01    -0.021    31.640
ATOM     12  C   UNL d   1      24.085  23.245  28.268 -0.26 -0.00    +0.000    31.640
ATOM     13  C   UNL d   1      24.489  21.884  28.367 -0.15 -0.01    +0.070    31.640
ATOM     14  C   UNL d   1      24.838  25.230  26.779 -0.38 -0.05    +0.052    31.640
ATOM     15  C   UNL d   1      24.375  19.600  29.350 -0.03 -0.00    +0.066    31.640
ATOM     16  C   UNL d   1      23.906  18.747  30.348 -0.01 +0.00    -0.021    31.640
ATOM     17  C   UNL d   1      24.505  17.507  30.120 -0.01 -0.00    +0.000    31.640
ATOM     18  C   UNL d   1      25.302  17.700  28.983 -0.02 -0.00    +0.070    31.640
ATOM     19  C   UNL d   1      22.983  19.199  31.451 -0.01 -0.00    +0.052    31.640
ATOM     20  C   UNL d   1      26.924  16.813  27.257 -0.03 +0.00    +0.066    31.640
ATOM     21  C   UNL d   1      27.651  15.783  26.667 -0.01 -0.00    -0.025    31.640
ATOM     22  C   UNL d   1      28.291  16.332  25.578 -0.04 -0.00    -0.021    31.640
ATOM     23  C   UNL d   1      27.943  17.686  25.555 -0.09 +0.01    +0.066    31.640
ATOM     24  C   UNL d   1      27.735  14.349  27.122 -0.00 -0.00    +0.051    31.640
ATOM     25  N   UNL d   1      27.365  20.609  25.500 -0.20 +0.03    -0.248    31.640
ATOM     26  N   UNL d   1      25.482  21.599  27.487 -0.15 +0.04    -0.248    31.640
ATOM     27  N   UNL d   1      25.270  18.995  28.575 -0.02 +0.01    -0.248    31.640
ATOM     28  N   UNL d   1      27.148  17.983  26.603 -0.05 -0.01    -0.248    31.640
ATOM     29 FE   UNL d   1      26.320  19.777  27.044 -0.03 -0.00    +0.000    31.640
ATOM     30  O   UNL d   1      27.490  20.696  27.501 -0.63 +0.00    +0.000    31.640
ATOM     31  O   UNL d   1      27.206  19.352  28.272 -0.36 +0.00    +0.000    31.640
ATOM     32  C   UNL d   1      29.787  20.665  22.679 -0.50 +0.01    +0.052    31.640
ATOM     33  C   UNL d   1      29.609  19.331  21.960 -0.18 +0.08    +0.115    31.640
ATOM     34  C   UNL d   1      28.227  19.171  21.378 -0.16 +0.15    +0.139    31.640
ATOM     35  O   UNL d   1      27.636  20.149  20.948 -0.09 -0.33    -0.650    31.640
ATOM     36  O   UNL d   1      27.611  17.971  21.345 -0.39 -1.41    -0.776    31.640
ATOM     37  H   UNL d   1      27.999  17.187  21.751 +0.04 +0.30    +0.167    31.640
ATOM     38  C   UNL d   1      29.233  15.604  24.655 -0.04 +0.01    +0.052    31.640
ATOM     39  C   UNL d   1      28.539  15.107  23.389 -0.04 +0.05    +0.115    31.640
ATOM     40  C   UNL d   1      29.410  15.236  22.165 -0.02 +0.14    +0.139    31.640
ATOM     41  O   UNL d   1      29.512  14.297  21.391 -0.13 -0.63    -0.650    31.640
ATOM     42  O   UNL d   1      30.042  16.391  21.879 -0.33 -1.26    -0.776    31.640
ATOM     43  H   UNL d   1      29.574  17.234  21.875 +0.04 +0.29    +0.167    31.640
ATOM     44  C   UNL d   1      23.044  24.062  29.004 -0.24 -0.00    +0.004    31.640
ATOM     45  C   UNL d   1      23.237  25.125  29.783 -0.24 -0.00    +0.012    31.640
ATOM     46  C   UNL d   1      24.433  16.218  30.894 -0.00 -0.00    +0.004    31.640
ATOM     47  C   UNL d   1      25.404  15.616  31.593 -0.00 -0.00    +0.012    31.640
TER
ENDMDL
MODEL       29
USER    Run = 29
USER    Cluster Rank = 12
USER    Number of conformations in this cluster = 6
USER  
USER    RMSD from reference structure       = 17.440 A
USER  
USER    Estimated Free Energy of Binding    =   -7.24 kcal/mol  [=(1)+(2)+(3)-(4)]
USER    Estimated Inhibition Constant, Ki   =    4.91 uM (micromolar)  [Temperature = 298.15 K]
USER    
USER    (1) Final Intermolecular Energy     =  -10.23 kcal/mol
USER        vdW + Hbond + desolv Energy     =   -7.13 kcal/mol
USER        Electrostatic Energy            =   -3.09 kcal/mol
USER    (2) Final Total Internal Energy     =   -2.35 kcal/mol
USER    (3) Torsional Free Energy           =   +2.98 kcal/mol
USER    (4) Unbound System's Energy  [=(2)] =   -2.35 kcal/mol
USER    
USER    
USER  
USER    DPF = D:/Protein_go_brrr/autodock/final/2DN3/heme_O2/dock.dpf
USER    NEWDPF move	heme_O2_opt.pdbqt
USER    NEWDPF about	8.287000 34.468000 -0.670000
USER    NEWDPF tran0	27.970716 41.354558 -0.899529
USER    NEWDPF axisangle0	0.149480 0.891330 -0.428002 -125.053741
USER    NEWDPF quaternion0	0.132623 0.790813 -0.379735 -0.461333
USER    NEWDPF dihe0	112.19 148.26 -66.57 120.23 -112.31 28.08 -67.76 74.36 169.59 175.80 
USER  
USER                              x       y       z    vdW   Elec        q     RMS 
ATOM      1  C   UNL d   1      28.813  42.603   0.594 -0.14 +0.02    +0.064    17.440
ATOM      2  C   UNL d   1      28.983  37.913  -0.137 -0.11 +0.01    +0.064    17.440
ATOM      3  C   UNL d   1      26.177  38.323  -4.017 -0.24 +0.01    +0.064    17.440
ATOM      4  C   UNL d   1      26.386  43.202  -3.552 -0.19 +0.01    +0.064    17.440
ATOM      5  C   UNL d   1      29.090  41.294   0.711 -0.12 +0.02    +0.066    17.440
ATOM      6  C   UNL d   1      29.866  40.747   1.736 -0.13 -0.00    -0.021    17.440
ATOM      7  C   UNL d   1      29.952  39.394   1.501 -0.10 -0.00    -0.025    17.440
ATOM      8  C   UNL d   1      29.186  39.146   0.365 -0.11 +0.01    +0.066    17.440
ATOM      9  C   UNL d   1      30.764  38.422   2.328 -0.11 +0.01    +0.051    17.440
ATOM     10  C   UNL d   1      28.172  37.588  -1.311 -0.15 +0.01    +0.066    17.440
ATOM     11  C   UNL d   1      27.861  36.279  -1.694 -0.14 -0.00    -0.021    17.440
ATOM     12  C   UNL d   1      27.038  36.376  -2.800 -0.18 +0.00    +0.000    17.440
ATOM     13  C   UNL d   1      26.900  37.771  -3.043 -0.20 +0.01    +0.070    17.440
ATOM     14  C   UNL d   1      28.309  34.989  -1.015 -0.10 +0.01    +0.052    17.440
ATOM     15  C   UNL d   1      26.040  39.728  -4.318 -0.14 +0.01    +0.066    17.440
ATOM     16  C   UNL d   1      25.403  40.236  -5.450 -0.17 -0.00    -0.021    17.440
ATOM     17  C   UNL d   1      25.451  41.625  -5.339 -0.18 +0.00    +0.000    17.440
ATOM     18  C   UNL d   1      26.121  41.864  -4.131 -0.21 +0.01    +0.070    17.440
ATOM     19  C   UNL d   1      24.860  39.360  -6.551 -0.17 +0.01    +0.052    17.440
ATOM     20  C   UNL d   1      27.063  43.469  -2.418 -0.17 +0.02    +0.066    17.440
ATOM     21  C   UNL d   1      27.266  44.750  -1.913 -0.13 -0.01    -0.025    17.440
ATOM     22  C   UNL d   1      27.933  44.597  -0.718 -0.13 -0.01    -0.021    17.440
ATOM     23  C   UNL d   1      28.128  43.223  -0.546 -0.14 +0.02    +0.066    17.440
ATOM     24  C   UNL d   1      26.849  46.055  -2.541 -0.09 +0.01    +0.051    17.440
ATOM     25  N   UNL d   1      28.709  40.326  -0.158 -0.09 -0.04    -0.248    17.440
ATOM     26  N   UNL d   1      27.596  38.501  -2.135 -0.11 -0.03    -0.248    17.440
ATOM     27  N   UNL d   1      26.537  40.704  -3.562 -0.09 -0.04    -0.248    17.440
ATOM     28  N   UNL d   1      27.638  42.544  -1.604 -0.11 -0.06    -0.248    17.440
ATOM     29 FE   UNL d   1      27.616  40.538  -1.870 -0.05 +0.00    +0.000    17.440
ATOM     30  O   UNL d   1      29.094  40.116  -2.116 -0.11 +0.00    +0.000    17.440
ATOM     31  O   UNL d   1      28.411  41.165  -3.073 -0.12 +0.00    +0.000    17.440
ATOM     32  C   UNL d   1      30.614  41.480   2.819 -0.26 +0.01    +0.052    17.440
ATOM     33  C   UNL d   1      32.124  41.482   2.598 -0.23 +0.05    +0.115    17.440
ATOM     34  C   UNL d   1      32.650  42.849   2.234 -0.22 +0.15    +0.139    17.440
ATOM     35  O   UNL d   1      33.124  43.564   3.102 -0.57 -0.93    -0.650    17.440
ATOM     36  O   UNL d   1      32.582  43.314   0.969 +0.08 -1.19    -0.776    17.440
ATOM     37  H   UNL d   1      32.016  44.055   0.727 +0.03 +0.26    +0.167    17.440
ATOM     38  C   UNL d   1      28.409  45.716   0.172 -0.14 +0.03    +0.052    17.440
ATOM     39  C   UNL d   1      29.743  46.298  -0.289 -0.10 +0.05    +0.115    17.440
ATOM     40  C   UNL d   1      30.888  45.895   0.608 -0.20 +0.12    +0.139    17.440
ATOM     41  O   UNL d   1      32.033  46.173   0.291 -0.58 -1.15    -0.650    17.440
ATOM     42  O   UNL d   1      30.666  45.276   1.784 -0.03 -0.66    -0.776    17.440
ATOM     43  H   UNL d   1      31.310  44.666   2.162 +0.04 +0.18    +0.167    17.440
ATOM     44  C   UNL d   1      26.483  35.153  -3.499 -0.14 +0.00    +0.004    17.440
ATOM     45  C   UNL d   1      25.224  34.716  -3.508 -0.23 -0.00    +0.012    17.440
ATOM     46  C   UNL d   1      24.985  42.708  -6.276 -0.16 +0.00    +0.004    17.440
ATOM     47  C   UNL d   1      23.996  43.592  -6.093 -0.19 +0.00    +0.012    17.440
TER
ENDMDL
MODEL       80
USER    Run = 80
USER    Cluster Rank = 13
USER    Number of conformations in this cluster = 3
USER  
USER    RMSD from reference structure       = 16.181 A
USER  
USER    Estimated Free Energy of Binding    =   -7.22 kcal/mol  [=(1)+(2)+(3)-(4)]
USER    Estimated Inhibition Constant, Ki   =    5.13 uM (micromolar)  [Temperature = 298.15 K]
USER    
USER    (1) Final Intermolecular Energy     =  -10.20 kcal/mol
USER        vdW + Hbond + desolv Energy     =   -8.24 kcal/mol
USER        Electrostatic Energy            =   -1.96 kcal/mol
USER    (2) Final Total Internal Energy     =   -0.81 kcal/mol
USER    (3) Torsional Free Energy           =   +2.98 kcal/mol
USER    (4) Unbound System's Energy  [=(2)] =   -0.81 kcal/mol
USER    
USER    
USER  
USER    DPF = D:/Protein_go_brrr/autodock/final/2DN3/heme_O2/dock.dpf
USER    NEWDPF move	heme_O2_opt.pdbqt
USER    NEWDPF about	8.287000 34.468000 -0.670000
USER    NEWDPF tran0	27.598479 39.709814 -1.072076
USER    NEWDPF axisangle0	0.210852 -0.490794 0.845377 112.486428
USER    NEWDPF quaternion0	0.175304 -0.408048 0.702850 0.555669
USER    NEWDPF dihe0	177.19 -20.23 39.24 84.72 -121.94 -37.30 51.08 136.71 -173.93 22.80 
USER  
USER                              x       y       z    vdW   Elec        q     RMS 
ATOM      1  C   UNL d   1      28.023  41.711  -1.632 -0.13 +0.01    +0.064    16.181
ATOM      2  C   UNL d   1      28.500  39.356   2.465 -0.23 -0.01    +0.064    16.181
ATOM      3  C   UNL d   1      26.691  35.367   0.489 -0.26 +0.01    +0.064    16.181
ATOM      4  C   UNL d   1      26.640  37.640  -3.858 -0.21 +0.01    +0.064    16.181
ATOM      5  C   UNL d   1      28.302  41.396  -0.357 -0.13 +0.01    +0.066    16.181
ATOM      6  C   UNL d   1      28.827  42.295   0.575 -0.16 -0.01    -0.021    16.181
ATOM      7  C   UNL d   1      29.006  41.603   1.750 -0.19 -0.01    -0.025    16.181
ATOM      8  C   UNL d   1      28.541  40.312   1.517 -0.18 +0.01    +0.066    16.181
ATOM      9  C   UNL d   1      29.625  42.176   3.006 -0.27 +0.02    +0.051    16.181
ATOM     10  C   UNL d   1      28.002  37.992   2.286 -0.22 -0.00    +0.066    16.181
ATOM     11  C   UNL d   1      27.831  37.091   3.343 -0.27 +0.00    -0.021    16.181
ATOM     12  C   UNL d   1      27.293  35.940   2.796 -0.29 +0.00    +0.000    16.181
ATOM     13  C   UNL d   1      27.175  36.206   1.404 -0.21 +0.01    +0.070    16.181
ATOM     14  C   UNL d   1      28.141  37.327   4.817 -0.32 -0.04    +0.052    16.181
ATOM     15  C   UNL d   1      26.588  35.585  -0.934 -0.18 +0.01    +0.066    16.181
ATOM     16  C   UNL d   1      26.225  34.607  -1.859 -0.19 -0.00    -0.021    16.181
ATOM     17  C   UNL d   1      26.205  35.232  -3.106 -0.17 +0.00    +0.000    16.181
ATOM     18  C   UNL d   1      26.559  36.563  -2.844 -0.20 +0.00    +0.070    16.181
ATOM     19  C   UNL d   1      25.987  33.166  -1.483 -0.18 +0.00    +0.052    16.181
ATOM     20  C   UNL d   1      27.018  38.916  -3.647 -0.20 +0.01    +0.066    16.181
ATOM     21  C   UNL d   1      27.057  39.892  -4.640 -0.16 -0.00    -0.025    16.181
ATOM     22  C   UNL d   1      27.423  41.065  -4.018 -0.15 -0.00    -0.021    16.181
ATOM     23  C   UNL d   1      27.612  40.756  -2.668 -0.12 +0.01    +0.066    16.181
ATOM     24  C   UNL d   1      26.764  39.713  -6.107 -0.10 +0.01    +0.051    16.181
ATOM     25  N   UNL d   1      28.168  40.167   0.200 -0.06 -0.04    -0.248    16.181
ATOM     26  N   UNL d   1      27.614  37.455   1.102 -0.07 -0.02    -0.248    16.181
ATOM     27  N   UNL d   1      26.861  36.741  -1.532 -0.07 -0.03    -0.248    16.181
ATOM     28  N   UNL d   1      27.409  39.440  -2.455 +0.01 -0.04    -0.248    16.181
ATOM     29 FE   UNL d   1      27.510  38.452  -0.691 -0.06 +0.00    +0.000    16.181
ATOM     30  O   UNL d   1      29.015  38.418  -0.298 -0.14 +0.00    +0.000    16.181
ATOM     31  O   UNL d   1      28.551  37.787  -1.665 -0.15 +0.00    +0.000    16.181
ATOM     32  C   UNL d   1      29.273  43.715   0.338 -0.13 +0.02    +0.052    16.181
ATOM     33  C   UNL d   1      30.746  43.816  -0.049 -0.10 +0.08    +0.115    16.181
ATOM     34  C   UNL d   1      31.483  44.854   0.760 -0.03 +0.19    +0.139    16.181
ATOM     35  O   UNL d   1      31.973  44.545   1.835 -0.07 -1.12    -0.650    16.181
ATOM     36  O   UNL d   1      31.590  46.130   0.337 -0.58 -1.00    -0.776    16.181
ATOM     37  H   UNL d   1      32.028  46.809   0.864 -0.55 +0.21    +0.167    16.181
ATOM     38  C   UNL d   1      27.640  42.390  -4.702 -0.09 +0.01    +0.052    16.181
ATOM     39  C   UNL d   1      26.789  43.504  -4.096 -0.12 +0.02    +0.115    16.181
ATOM     40  C   UNL d   1      25.366  43.070  -3.845 -0.27 +0.03    +0.139    16.181
ATOM     41  O   UNL d   1      24.985  42.873  -2.702 -0.15 -0.19    -0.650    16.181
ATOM     42  O   UNL d   1      24.488  42.943  -4.858 +0.06 -0.17    -0.776    16.181
ATOM     43  H   UNL d   1      24.648  43.351  -5.718 +0.05 +0.03    +0.167    16.181
ATOM     44  C   UNL d   1      26.956  34.729   3.641 -0.37 +0.00    +0.004    16.181
ATOM     45  C   UNL d   1      27.052  33.444   3.304 -0.36 +0.01    +0.012    16.181
ATOM     46  C   UNL d   1      25.944  34.682  -4.483 -0.10 -0.00    +0.004    16.181
ATOM     47  C   UNL d   1      24.767  34.374  -5.043 -0.15 -0.00    +0.012    16.181
TER
ENDMDL
MODEL       73
USER    Run = 73
USER    Cluster Rank = 14
USER    Number of conformations in this cluster = 1
USER  
USER    RMSD from reference structure       = 39.439 A
USER  
USER    Estimated Free Energy of Binding    =   -6.88 kcal/mol  [=(1)+(2)+(3)-(4)]
USER    Estimated Inhibition Constant, Ki   =    9.04 uM (micromolar)  [Temperature = 298.15 K]
USER    
USER    (1) Final Intermolecular Energy     =   -9.86 kcal/mol
USER        vdW + Hbond + desolv Energy     =   -6.66 kcal/mol
USER        Electrostatic Energy            =   -3.20 kcal/mol
USER    (2) Final Total Internal Energy     =   -1.63 kcal/mol
USER    (3) Torsional Free Energy           =   +2.98 kcal/mol
USER    (4) Unbound System's Energy  [=(2)] =   -1.63 kcal/mol
USER    
USER    
USER  
USER    DPF = D:/Protein_go_brrr/autodock/final/2DN3/heme_O2/dock.dpf
USER    NEWDPF move	heme_O2_opt.pdbqt
USER    NEWDPF about	8.287000 34.468000 -0.670000
USER    NEWDPF tran0	43.341471 16.967994 17.115701
USER    NEWDPF axisangle0	-0.176020 0.603509 -0.777685 -124.708083
USER    NEWDPF quaternion0	-0.155924 0.534607 -0.688898 -0.464007
USER    NEWDPF dihe0	-113.96 95.01 -55.52 126.54 63.98 48.78 -129.95 87.52 163.51 -178.01 
USER  
USER                              x       y       z    vdW   Elec        q     RMS 
ATOM      1  C   UNL d   1      44.031  18.950  16.807 -0.25 +0.02    +0.064    39.439
ATOM      2  C   UNL d   1      44.766  15.803  20.288 -0.21 +0.01    +0.064    39.439
ATOM      3  C   UNL d   1      41.919  12.598  18.116 -0.09 +0.01    +0.064    39.439
ATOM      4  C   UNL d   1      41.537  15.649  14.294 -0.15 +0.01    +0.064    39.439
ATOM      5  C   UNL d   1      44.465  18.355  17.930 -0.24 +0.02    +0.066    39.439
ATOM      6  C   UNL d   1      45.305  18.966  18.866 -0.21 -0.01    -0.021    39.439
ATOM      7  C   UNL d   1      45.553  18.040  19.852 -0.17 -0.01    -0.025    39.439
ATOM      8  C   UNL d   1      44.819  16.906  19.517 -0.25 +0.02    +0.066    39.439
ATOM      9  C   UNL d   1      46.479  18.257  21.029 -0.16 +0.01    +0.051    39.439
ATOM     10  C   UNL d   1      43.996  14.592  20.000 -0.19 +0.01    +0.066    39.439
ATOM     11  C   UNL d   1      43.845  13.541  20.912 -0.14 -0.00    -0.021    39.439
ATOM     12  C   UNL d   1      43.013  12.615  20.311 -0.12 +0.00    +0.000    39.439
ATOM     13  C   UNL d   1      42.706  13.160  19.033 -0.09 +0.01    +0.070    39.439
ATOM     14  C   UNL d   1      44.448  13.437  22.308 -0.09 +0.01    +0.052    39.439
ATOM     15  C   UNL d   1      41.611  13.100  16.799 -0.08 +0.01    +0.066    39.439
ATOM     16  C   UNL d   1      40.914  12.387  15.824 -0.07 -0.00    -0.021    39.439
ATOM     17  C   UNL d   1      40.794  13.237  14.724 -0.08 +0.00    +0.000    39.439
ATOM     18  C   UNL d   1      41.433  14.421  15.117 -0.12 +0.01    +0.070    39.439
ATOM     19  C   UNL d   1      40.478  10.955  16.006 -0.03 +0.01    +0.052    39.439
ATOM     20  C   UNL d   1      42.180  16.786  14.622 -0.19 +0.01    +0.066    39.439
ATOM     21  C   UNL d   1      42.228  17.917  13.812 -0.23 -0.00    -0.025    39.439
ATOM     22  C   UNL d   1      42.911  18.877  14.524 -0.26 -0.01    -0.021    39.439
ATOM     23  C   UNL d   1      43.272  18.288  15.740 -0.22 +0.02    +0.066    39.439
ATOM     24  C   UNL d   1      41.654  18.073  12.428 -0.26 +0.01    +0.051    39.439
ATOM     25  N   UNL d   1      44.201  17.078  18.300 -0.17 -0.08    -0.248    39.439
ATOM     26  N   UNL d   1      43.312  14.361  18.851 +0.03 -0.05    -0.248    39.439
ATOM     27  N   UNL d   1      41.988  14.293  16.349 -0.02 -0.05    -0.248    39.439
ATOM     28  N   UNL d   1      42.865  17.003  15.777 -0.10 -0.06    -0.248    39.439
ATOM     29 FE   UNL d   1      43.085  15.689  17.301 -0.05 +0.00    +0.000    39.439
ATOM     30  O   UNL d   1      44.603  15.348  17.365 -0.13 +0.00    +0.000    39.439
ATOM     31  O   UNL d   1      43.795  15.073  16.040 -0.11 +0.00    +0.000    39.439
ATOM     32  C   UNL d   1      45.962  20.318  18.771 -0.21 +0.03    +0.052    39.439
ATOM     33  C   UNL d   1      47.480  20.231  18.641 -0.11 +0.09    +0.115    39.439
ATOM     34  C   UNL d   1      47.911  19.236  17.592 -0.06 +0.13    +0.139    39.439
ATOM     35  O   UNL d   1      48.049  18.062  17.895 +0.02 -0.34    -0.650    39.439
ATOM     36  O   UNL d   1      48.176  19.619  16.326 -0.25 -1.52    -0.776    39.439
ATOM     37  H   UNL d   1      47.631  19.338  15.582 +0.02 +0.28    +0.167    39.439
ATOM     38  C   UNL d   1      43.251  20.260  14.031 -0.38 +0.02    +0.052    39.439
ATOM     39  C   UNL d   1      44.412  20.255  13.039 -0.33 +0.05    +0.115    39.439
ATOM     40  C   UNL d   1      45.743  20.495  13.707 -0.14 +0.17    +0.139    39.439
ATOM     41  O   UNL d   1      46.722  20.761  13.029 -0.67 -0.98    -0.650    39.439
ATOM     42  O   UNL d   1      45.862  20.471  15.048 +0.11 -1.30    -0.776    39.439
ATOM     43  H   UNL d   1      46.173  19.685  15.513 +0.04 +0.22    +0.167    39.439
ATOM     44  C   UNL d   1      42.607  11.330  21.003 -0.06 +0.00    +0.004    39.439
ATOM     45  C   UNL d   1      41.378  10.919  21.311 -0.05 +0.00    +0.012    39.439
ATOM     46  C   UNL d   1      40.197  13.010  13.361 -0.05 +0.00    +0.004    39.439
ATOM     47  C   UNL d   1      39.179  13.661  12.784 -0.09 +0.00    +0.012    39.439
TER
ENDMDL
MODEL       86
USER    Run = 86
USER    Cluster Rank = 15
USER    Number of conformations in this cluster = 1
USER  
USER    RMSD from reference structure       = 17.397 A
USER  
USER    Estimated Free Energy of Binding    =   -6.74 kcal/mol  [=(1)+(2)+(3)-(4)]
USER    Estimated Inhibition Constant, Ki   =   11.56 uM (micromolar)  [Temperature = 298.15 K]
USER    
USER    (1) Final Intermolecular Energy     =   -9.72 kcal/mol
USER        vdW + Hbond + desolv Energy     =   -7.47 kcal/mol
USER        Electrostatic Energy            =   -2.24 kcal/mol
USER    (2) Final Total Internal Energy     =   -0.62 kcal/mol
USER    (3) Torsional Free Energy           =   +2.98 kcal/mol
USER    (4) Unbound System's Energy  [=(2)] =   -0.62 kcal/mol
USER    
USER    
USER  
USER    DPF = D:/Protein_go_brrr/autodock/final/2DN3/heme_O2/dock.dpf
USER    NEWDPF move	heme_O2_opt.pdbqt
USER    NEWDPF about	8.287000 34.468000 -0.670000
USER    NEWDPF tran0	27.244557 43.878975 -0.880602
USER    NEWDPF axisangle0	-0.142542 -0.957362 0.251275 130.112727
USER    NEWDPF quaternion0	-0.129246 -0.868063 0.227836 0.421726
USER    NEWDPF dihe0	173.54 176.70 -63.87 117.92 172.71 -131.40 62.30 -128.11 175.69 -45.20 
USER  
USER                              x       y       z    vdW   Elec        q     RMS 
ATOM      1  C   UNL d   1      28.099  44.742   0.859 -0.09 +0.04    +0.064    17.397
ATOM      2  C   UNL d   1      28.741  40.556  -1.293 -0.12 +0.01    +0.064    17.397
ATOM      3  C   UNL d   1      25.477  41.671  -4.639 -0.15 +0.01    +0.064    17.397
ATOM      4  C   UNL d   1      25.156  46.170  -2.710 -0.14 +0.01    +0.064    17.397
ATOM      5  C   UNL d   1      28.541  43.513   0.545 -0.15 +0.03    +0.066    17.397
ATOM      6  C   UNL d   1      29.491  42.809   1.292 -0.16 -0.01    -0.021    17.397
ATOM      7  C   UNL d   1      29.709  41.615   0.646 -0.10 -0.01    -0.025    17.397
ATOM      8  C   UNL d   1      28.852  41.602  -0.451 -0.11 +0.02    +0.066    17.397
ATOM      9  C   UNL d   1      30.721  40.573   1.071 -0.09 +0.01    +0.051    17.397
ATOM     10  C   UNL d   1      27.844  40.476  -2.446 -0.10 +0.01    +0.066    17.397
ATOM     11  C   UNL d   1      27.649  39.306  -3.190 -0.18 -0.00    -0.021    17.397
ATOM     12  C   UNL d   1      26.698  39.602  -4.148 -0.22 +0.00    +0.000    17.397
ATOM     13  C   UNL d   1      26.368  40.970  -3.938 -0.06 +0.01    +0.070    17.397
ATOM     14  C   UNL d   1      28.323  37.955  -2.977 -0.13 +0.01    +0.052    17.397
ATOM     15  C   UNL d   1      25.139  43.066  -4.481 -0.21 +0.01    +0.066    17.397
ATOM     16  C   UNL d   1      24.320  43.784  -5.351 -0.20 -0.00    -0.021    17.397
ATOM     17  C   UNL d   1      24.215  45.070  -4.822 -0.19 +0.00    +0.000    17.397
ATOM     18  C   UNL d   1      24.986  45.039  -3.652 -0.21 +0.01    +0.070    17.397
ATOM     19  C   UNL d   1      23.762  43.202  -6.625 -0.17 +0.01    +0.052    17.397
ATOM     20  C   UNL d   1      25.922  46.188  -1.602 -0.08 +0.02    +0.066    17.397
ATOM     21  C   UNL d   1      26.028  47.278  -0.744 -0.11 -0.01    -0.025    17.397
ATOM     22  C   UNL d   1      26.842  46.880   0.293 -0.14 -0.01    -0.021    17.397
ATOM     23  C   UNL d   1      27.218  45.562   0.019 -0.15 +0.03    +0.066    17.397
ATOM     24  C   UNL d   1      25.389  48.633  -0.906 -0.08 +0.01    +0.051    17.397
ATOM     25  N   UNL d   1      28.181  42.799  -0.549 -0.09 -0.08    -0.248    17.397
ATOM     26  N   UNL d   1      27.073  41.495  -2.904 -0.11 -0.05    -0.248    17.397
ATOM     27  N   UNL d   1      25.600  43.837  -3.501 -0.17 -0.05    -0.248    17.397
ATOM     28  N   UNL d   1      26.693  45.160  -1.157 -0.10 -0.08    -0.248    17.397
ATOM     29 FE   UNL d   1      26.880  43.342  -2.027 -0.04 +0.00    +0.000    17.397
ATOM     30  O   UNL d   1      28.359  43.236  -2.499 -0.09 +0.00    +0.000    17.397
ATOM     31  O   UNL d   1      27.451  44.407  -3.033 -0.10 +0.00    +0.000    17.397
ATOM     32  C   UNL d   1      30.266  43.292   2.490 -0.22 +0.03    +0.052    17.397
ATOM     33  C   UNL d   1      31.687  43.725   2.140 -0.24 +0.12    +0.115    17.397
ATOM     34  C   UNL d   1      32.730  42.921   2.876 -0.30 +0.13    +0.139    17.397
ATOM     35  O   UNL d   1      32.443  41.820   3.318 -0.04 -0.25    -0.650    17.397
ATOM     36  O   UNL d   1      33.973  43.404   3.083 -0.51 -1.24    -0.776    17.397
ATOM     37  H   UNL d   1      34.619  42.937   3.626 -0.31 +0.10    +0.167    17.397
ATOM     38  C   UNL d   1      27.281  47.744   1.447 -0.11 +0.03    +0.052    17.397
ATOM     39  C   UNL d   1      26.100  48.331   2.217 -0.14 +0.05    +0.115    17.397
ATOM     40  C   UNL d   1      25.089  47.282   2.610 -0.19 +0.11    +0.139    17.397
ATOM     41  O   UNL d   1      25.379  46.099   2.523 -0.22 -1.03    -0.650    17.397
ATOM     42  O   UNL d   1      23.885  47.627   3.105 +0.04 -0.27    -0.776    17.397
ATOM     43  H   UNL d   1      23.231  46.961   3.350 -0.44 -0.00    +0.167    17.397
ATOM     44  C   UNL d   1      26.215  38.572  -5.147 -0.21 +0.00    +0.004    17.397
ATOM     45  C   UNL d   1      25.009  38.011  -5.227 -0.25 +0.00    +0.012    17.397
ATOM     46  C   UNL d   1      23.518  46.299  -5.342 -0.12 +0.00    +0.004    17.397
ATOM     47  C   UNL d   1      22.433  46.909  -4.847 -0.17 +0.00    +0.012    17.397
TER
ENDMDL
MODEL       72
USER    Run = 72
USER    Cluster Rank = 16
USER    Number of conformations in this cluster = 1
USER  
USER    RMSD from reference structure       = 23.790 A
USER  
USER    Estimated Free Energy of Binding    =   -6.49 kcal/mol  [=(1)+(2)+(3)-(4)]
USER    Estimated Inhibition Constant, Ki   =   17.39 uM (micromolar)  [Temperature = 298.15 K]
USER    
USER    (1) Final Intermolecular Energy     =   -9.48 kcal/mol
USER        vdW + Hbond + desolv Energy     =   -6.39 kcal/mol
USER        Electrostatic Energy            =   -3.09 kcal/mol
USER    (2) Final Total Internal Energy     =   -0.35 kcal/mol
USER    (3) Torsional Free Energy           =   +2.98 kcal/mol
USER    (4) Unbound System's Energy  [=(2)] =   -0.35 kcal/mol
USER    
USER    
USER  
USER    DPF = D:/Protein_go_brrr/autodock/final/2DN3/heme_O2/dock.dpf
USER    NEWDPF move	heme_O2_opt.pdbqt
USER    NEWDPF about	8.287000 34.468000 -0.670000
USER    NEWDPF tran0	36.171847 38.303059 0.289267
USER    NEWDPF axisangle0	-0.661917 0.699256 -0.270015 -178.589046
USER    NEWDPF quaternion0	-0.661866 0.699203 -0.269995 -0.012313
USER    NEWDPF dihe0	-23.88 -75.99 20.51 70.25 165.77 -31.60 -57.35 -66.10 -151.22 -30.40 
USER  
USER                              x       y       z    vdW   Elec        q     RMS 
ATOM      1  C   UNL d   1      35.550  40.322   0.099 -0.09 +0.03    +0.064    23.790
ATOM      2  C   UNL d   1      39.299  37.947  -1.593 -0.05 +0.01    +0.064    23.790
ATOM      3  C   UNL d   1      37.849  33.919   0.590 -0.27 +0.01    +0.064    23.790
ATOM      4  C   UNL d   1      33.738  36.229   1.942 -0.15 +0.01    +0.064    23.790
ATOM      5  C   UNL d   1      36.687  40.004  -0.541 -0.07 +0.02    +0.066    23.790
ATOM      6  C   UNL d   1      37.447  40.912  -1.283 -0.04 -0.01    -0.021    23.790
ATOM      7  C   UNL d   1      38.510  40.216  -1.809 -0.03 -0.01    -0.025    23.790
ATOM      8  C   UNL d   1      38.396  38.912  -1.334 -0.05 +0.01    +0.066    23.790
ATOM      9  C   UNL d   1      39.549  40.797  -2.744 -0.01 +0.01    +0.051    23.790
ATOM     10  C   UNL d   1      39.246  36.569  -1.103 -0.02 +0.01    +0.066    23.790
ATOM     11  C   UNL d   1      40.291  35.654  -1.265 -0.10 -0.00    -0.021    23.790
ATOM     12  C   UNL d   1      39.900  34.491  -0.627 -0.19 +0.00    +0.000    23.790
ATOM     13  C   UNL d   1      38.603  34.766  -0.111 -0.17 +0.01    +0.070    23.790
ATOM     14  C   UNL d   1      41.620  35.887  -1.976 -0.07 +0.01    +0.052    23.790
ATOM     15  C   UNL d   1      36.519  34.146   1.100 -0.22 +0.00    +0.066    23.790
ATOM     16  C   UNL d   1      35.717  33.165   1.684 -0.22 -0.00    -0.021    23.790
ATOM     17  C   UNL d   1      34.539  33.800   2.076 -0.20 +0.00    +0.000    23.790
ATOM     18  C   UNL d   1      34.713  35.140   1.700 -0.15 +0.00    +0.070    23.790
ATOM     19  C   UNL d   1      36.120  31.714   1.764 -0.27 +0.01    +0.052    23.790
ATOM     20  C   UNL d   1      33.854  37.514   1.556 -0.06 +0.01    +0.066    23.790
ATOM     21  C   UNL d   1      32.909  38.499   1.829 -0.15 -0.00    -0.025    23.790
ATOM     22  C   UNL d   1      33.422  39.678   1.335 -0.13 -0.01    -0.021    23.790
ATOM     23  C   UNL d   1      34.657  39.363   0.761 -0.11 +0.02    +0.066    23.790
ATOM     24  C   UNL d   1      31.584  38.324   2.523 -0.05 +0.01    +0.051    23.790
ATOM     25  N   UNL d   1      37.238  38.767  -0.606 -0.02 -0.07    -0.248    23.790
ATOM     26  N   UNL d   1      38.211  36.031  -0.409 +0.04 -0.04    -0.248    23.790
ATOM     27  N   UNL d   1      35.888  35.316   1.042 -0.04 +0.00    -0.248    23.790
ATOM     28  N   UNL d   1      34.895  38.039   0.857 +0.04 -0.07    -0.248    23.790
ATOM     29 FE   UNL d   1      36.540  37.040   0.230 -0.05 +0.00    +0.000    23.790
ATOM     30  O   UNL d   1      36.488  37.051  -1.326 -0.08 +0.00    +0.000    23.790
ATOM     31  O   UNL d   1      35.299  36.417  -0.509 -0.11 +0.00    +0.000    23.790
ATOM     32  C   UNL d   1      37.118  42.348  -1.603 -0.05 +0.02    +0.052    23.790
ATOM     33  C   UNL d   1      35.917  42.487  -2.533 -0.04 +0.05    +0.115    23.790
ATOM     34  C   UNL d   1      34.798  43.286  -1.912 -0.08 +0.11    +0.139    23.790
ATOM     35  O   UNL d   1      35.017  43.957  -0.916 -0.31 -1.26    -0.650    23.790
ATOM     36  O   UNL d   1      33.548  43.256  -2.417 +0.01 -0.46    -0.776    23.790
ATOM     37  H   UNL d   1      33.373  43.022  -3.336 +0.01 +0.06    +0.167    23.790
ATOM     38  C   UNL d   1      32.729  41.016   1.360 -0.12 +0.02    +0.052    23.790
ATOM     39  C   UNL d   1      32.660  41.610   2.765 -0.28 +0.05    +0.115    23.790
ATOM     40  C   UNL d   1      33.503  42.853   2.906 -0.24 +0.15    +0.139    23.790
ATOM     41  O   UNL d   1      32.965  43.932   3.091 -0.51 -1.05    -0.650    23.790
ATOM     42  O   UNL d   1      34.849  42.787   2.884 -0.22 -0.81    -0.776    23.790
ATOM     43  H   UNL d   1      35.349  42.433   3.629 -0.47 +0.03    +0.167    23.790
ATOM     44  C   UNL d   1      40.784  33.263  -0.580 -0.28 +0.00    +0.004    23.790
ATOM     45  C   UNL d   1      40.435  32.014  -0.273 -0.27 +0.00    +0.012    23.790
ATOM     46  C   UNL d   1      33.284  33.255   2.703 -0.20 +0.00    +0.004    23.790
ATOM     47  C   UNL d   1      33.141  32.670   3.899 -0.24 +0.01    +0.012    23.790
TER
ENDMDL
MODEL       91
USER    Run = 91
USER    Cluster Rank = 17
USER    Number of conformations in this cluster = 1
USER  
USER    RMSD from reference structure       = 14.265 A
USER  
USER    Estimated Free Energy of Binding    =   -6.36 kcal/mol  [=(1)+(2)+(3)-(4)]
USER    Estimated Inhibition Constant, Ki   =   21.95 uM (micromolar)  [Temperature = 298.15 K]
USER    
USER    (1) Final Intermolecular Energy     =   -9.34 kcal/mol
USER        vdW + Hbond + desolv Energy     =   -7.84 kcal/mol
USER        Electrostatic Energy            =   -1.50 kcal/mol
USER    (2) Final Total Internal Energy     =   -2.09 kcal/mol
USER    (3) Torsional Free Energy           =   +2.98 kcal/mol
USER    (4) Unbound System's Energy  [=(2)] =   -2.09 kcal/mol
USER    
USER    
USER  
USER    DPF = D:/Protein_go_brrr/autodock/final/2DN3/heme_O2/dock.dpf
USER    NEWDPF move	heme_O2_opt.pdbqt
USER    NEWDPF about	8.287000 34.468000 -0.670000
USER    NEWDPF tran0	19.488068 45.511391 -8.308879
USER    NEWDPF axisangle0	0.271192 -0.204596 0.940529 -127.675887
USER    NEWDPF quaternion0	0.243408 -0.183636 0.844173 -0.440912
USER    NEWDPF dihe0	32.69 177.07 -10.74 -37.26 -109.82 -106.83 -6.16 68.27 -178.85 149.45 
USER  
USER                              x       y       z    vdW   Elec        q     RMS 
ATOM      1  C   UNL d   1      19.708  44.379 -10.089 -0.11 +0.01    +0.064    14.265
ATOM      2  C   UNL d   1      22.326  44.686  -6.138 -0.20 +0.01    +0.064    14.265
ATOM      3  C   UNL d   1      19.317  47.944  -4.287 -0.04 -0.02    +0.064    14.265
ATOM      4  C   UNL d   1      16.358  47.282  -8.143 -0.18 -0.01    +0.064    14.265
ATOM      5  C   UNL d   1      20.665  44.195  -9.165 -0.13 +0.01    +0.066    14.265
ATOM      6  C   UNL d   1      21.755  43.335  -9.326 -0.11 -0.00    -0.021    14.265
ATOM      7  C   UNL d   1      22.490  43.391  -8.165 -0.12 -0.00    -0.025    14.265
ATOM      8  C   UNL d   1      21.856  44.320  -7.345 -0.15 +0.01    +0.066    14.265
ATOM      9  C   UNL d   1      23.720  42.557  -7.879 -0.10 +0.01    +0.051    14.265
ATOM     10  C   UNL d   1      21.717  45.671  -5.243 -0.24 +0.00    +0.066    14.265
ATOM     11  C   UNL d   1      22.333  46.135  -4.075 -0.27 -0.00    -0.021    14.265
ATOM     12  C   UNL d   1      21.489  47.088  -3.536 -0.30 -0.00    +0.000    14.265
ATOM     13  C   UNL d   1      20.375  47.145  -4.420 -0.25 -0.01    +0.070    14.265
ATOM     14  C   UNL d   1      23.683  45.706  -3.511 -0.27 +0.01    +0.052    14.265
ATOM     15  C   UNL d   1      18.154  48.007  -5.139 -0.20 -0.01    +0.066    14.265
ATOM     16  C   UNL d   1      17.006  48.747  -4.856 -0.23 +0.00    -0.021    14.265
ATOM     17  C   UNL d   1      16.148  48.573  -5.942 -0.22 -0.00    +0.000    14.265
ATOM     18  C   UNL d   1      16.846  47.730  -6.818 -0.19 -0.01    +0.070    14.265
ATOM     19  C   UNL d   1      16.810  49.501  -3.565 -0.18 -0.02    +0.052    14.265
ATOM     20  C   UNL d   1      16.983  46.441  -8.989 -0.18 -0.01    +0.066    14.265
ATOM     21  C   UNL d   1      16.482  46.069 -10.233 -0.17 +0.01    -0.025    14.265
ATOM     22  C   UNL d   1      17.436  45.264 -10.814 -0.14 +0.00    -0.021    14.265
ATOM     23  C   UNL d   1      18.481  45.158  -9.890 -0.14 +0.00    +0.066    14.265
ATOM     24  C   UNL d   1      15.158  46.460 -10.837 -0.03 -0.02    +0.051    14.265
ATOM     25  N   UNL d   1      20.695  44.766  -7.935 -0.10 -0.03    -0.248    14.265
ATOM     26  N   UNL d   1      20.520  46.276  -5.452 -0.15 +0.01    -0.248    14.265
ATOM     27  N   UNL d   1      18.030  47.337  -6.281 -0.13 +0.02    -0.248    14.265
ATOM     28  N   UNL d   1      18.181  45.839  -8.765 -0.11 +0.00    -0.248    14.265
ATOM     29 FE   UNL d   1      19.340  46.057  -7.119 -0.04 +0.00    +0.000    14.265
ATOM     30  O   UNL d   1      19.377  44.665  -6.425 -0.46 +0.00    +0.000    14.265
ATOM     31  O   UNL d   1      17.995  45.382  -6.663 -0.24 -0.00    +0.000    14.265
ATOM     32  C   UNL d   1      22.025  42.392 -10.470 -0.10 +0.01    +0.052    14.265
ATOM     33  C   UNL d   1      21.531  40.975 -10.198 +0.04 +0.06    +0.115    14.265
ATOM     34  C   UNL d   1      21.621  40.090 -11.417 -0.11 +0.08    +0.139    14.265
ATOM     35  O   UNL d   1      22.562  39.322 -11.537 -0.01 -0.24    -0.650    14.265
ATOM     36  O   UNL d   1      20.696  40.148 -12.397 -0.03 -0.65    -0.776    14.265
ATOM     37  H   UNL d   1      20.250  40.970 -12.632 -0.00 +0.14    +0.167    14.265
ATOM     38  C   UNL d   1      17.315  44.584 -12.153 -0.10 -0.00    +0.052    14.265
ATOM     39  C   UNL d   1      17.130  43.074 -12.025 -0.15 +0.02    +0.115    14.265
ATOM     40  C   UNL d   1      18.315  42.302 -12.551 -0.05 +0.09    +0.139    14.265
ATOM     41  O   UNL d   1      19.444  42.727 -12.371 -0.18 -0.31    -0.650    14.265
ATOM     42  O   UNL d   1      18.152  41.119 -13.175 -0.48 -0.85    -0.776    14.265
ATOM     43  H   UNL d   1      18.905  40.621 -13.516 -0.00 +0.18    +0.167    14.265
ATOM     44  C   UNL d   1      21.824  47.829  -2.259 -0.28 -0.00    +0.004    14.265
ATOM     45  C   UNL d   1      21.260  48.939  -1.784 -0.25 -0.00    +0.012    14.265
ATOM     46  C   UNL d   1      14.748  49.071  -6.185 -0.30 -0.00    +0.004    14.265
ATOM     47  C   UNL d   1      13.714  49.086  -5.333 -0.46 -0.00    +0.012    14.265
TER
ENDMDL
MODEL       35
USER    Run = 35
USER    Cluster Rank = 18
USER    Number of conformations in this cluster = 2
USER  
USER    RMSD from reference structure       = 30.081 A
USER  
USER    Estimated Free Energy of Binding    =   -6.16 kcal/mol  [=(1)+(2)+(3)-(4)]
USER    Estimated Inhibition Constant, Ki   =   30.39 uM (micromolar)  [Temperature = 298.15 K]
USER    
USER    (1) Final Intermolecular Energy     =   -9.15 kcal/mol
USER        vdW + Hbond + desolv Energy     =   -7.12 kcal/mol
USER        Electrostatic Energy            =   -2.02 kcal/mol
USER    (2) Final Total Internal Energy     =   -1.75 kcal/mol
USER    (3) Torsional Free Energy           =   +2.98 kcal/mol
USER    (4) Unbound System's Energy  [=(2)] =   -1.75 kcal/mol
USER    
USER    
USER  
USER    DPF = D:/Protein_go_brrr/autodock/final/2DN3/heme_O2/dock.dpf
USER    NEWDPF move	heme_O2_opt.pdbqt
USER    NEWDPF about	8.287000 34.468000 -0.670000
USER    NEWDPF tran0	17.725388 36.684756 31.236772
USER    NEWDPF axisangle0	0.204471 -0.669613 -0.714010 115.749385
USER    NEWDPF quaternion0	0.173164 -0.567086 -0.604686 0.531773
USER    NEWDPF dihe0	-2.97 -25.01 88.04 117.01 179.44 167.58 -98.76 139.41 -37.69 29.27 
USER  
USER                              x       y       z    vdW   Elec        q     RMS 
ATOM      1  C   UNL d   1      17.605  35.279  32.821 -0.11 +0.01    +0.064    30.081
ATOM      2  C   UNL d   1      20.914  38.460  31.598 -0.11 +0.01    +0.064    30.081
ATOM      3  C   UNL d   1      18.317  39.838  27.797 -0.26 +0.00    +0.064    30.081
ATOM      4  C   UNL d   1      14.689  36.905  29.315 -0.24 -0.02    +0.064    30.081
ATOM      5  C   UNL d   1      18.716  36.033  32.799 -0.08 +0.02    +0.066    30.081
ATOM      6  C   UNL d   1      19.753  35.925  33.731 -0.08 -0.01    -0.021    30.081
ATOM      7  C   UNL d   1      20.692  36.875  33.403 -0.06 -0.01    -0.025    30.081
ATOM      8  C   UNL d   1      20.225  37.505  32.252 -0.04 +0.01    +0.066    30.081
ATOM      9  C   UNL d   1      21.950  37.159  34.195 -0.07 +0.01    +0.051    30.081
ATOM     10  C   UNL d   1      20.487  39.140  30.375 -0.14 +0.00    +0.066    30.081
ATOM     11  C   UNL d   1      21.311  40.005  29.647 -0.16 +0.00    -0.021    30.081
ATOM     12  C   UNL d   1      20.587  40.398  28.537 -0.25 -0.00    +0.000    30.081
ATOM     13  C   UNL d   1      19.328  39.747  28.660 -0.21 +0.00    +0.070    30.081
ATOM     14  C   UNL d   1      22.740  40.416  29.981 -0.17 -0.01    +0.052    30.081
ATOM     15  C   UNL d   1      17.016  39.223  27.903 -0.24 -0.00    +0.066    30.081
ATOM     16  C   UNL d   1      15.944  39.488  27.051 -0.26 +0.00    -0.021    30.081
ATOM     17  C   UNL d   1      14.898  38.664  27.466 -0.23 -0.00    +0.000    30.081
ATOM     18  C   UNL d   1      15.418  37.946  28.552 -0.27 -0.02    +0.070    30.081
ATOM     19  C   UNL d   1      15.996  40.533  25.965 -0.36 -0.01    +0.052    30.081
ATOM     20  C   UNL d   1      15.142  36.229  30.389 -0.20 -0.01    +0.066    30.081
ATOM     21  C   UNL d   1      14.416  35.246  31.055 -0.12 +0.00    -0.025    30.081
ATOM     22  C   UNL d   1      15.242  34.753  32.040 -0.10 -0.00    -0.021    30.081
ATOM     23  C   UNL d   1      16.440  35.468  31.949 -0.13 +0.01    +0.066    30.081
ATOM     24  C   UNL d   1      13.005  34.803  30.770 -0.06 -0.01    +0.051    30.081
ATOM     25  N   UNL d   1      18.978  37.030  31.919 -0.07 -0.06    -0.248    30.081
ATOM     26  N   UNL d   1      19.274  38.987  29.784 -0.13 -0.02    -0.248    30.081
ATOM     27  N   UNL d   1      16.678  38.352  28.850 -0.20 +0.00    -0.248    30.081
ATOM     28  N   UNL d   1      16.358  36.396  30.973 -0.13 -0.01    -0.248    30.081
ATOM     29 FE   UNL d   1      17.804  37.683  30.381 -0.04 +0.00    +0.000    30.081
ATOM     30  O   UNL d   1      17.963  38.718  31.532 -0.10 +0.00    +0.000    30.081
ATOM     31  O   UNL d   1      16.564  38.540  30.830 -0.10 +0.00    +0.000    30.081
ATOM     32  C   UNL d   1      19.801  35.059  34.963 -0.07 +0.02    +0.052    30.081
ATOM     33  C   UNL d   1      19.346  33.627  34.698 -0.08 +0.05    +0.115    30.081
ATOM     34  C   UNL d   1      20.419  32.794  34.044 -0.03 +0.15    +0.139    30.081
ATOM     35  O   UNL d   1      21.594  33.056  34.246 -0.52 -0.86    -0.650    30.081
ATOM     36  O   UNL d   1      20.112  31.776  33.213 -0.11 -1.19    -0.776    30.081
ATOM     37  H   UNL d   1      19.199  31.519  33.036 +0.02 +0.14    +0.167    30.081
ATOM     38  C   UNL d   1      14.871  33.698  33.051 -0.05 +0.00    +0.052    30.081
ATOM     39  C   UNL d   1      15.921  32.594  33.151 -0.04 +0.01    +0.115    30.081
ATOM     40  C   UNL d   1      16.449  32.176  31.802 -0.13 +0.02    +0.139    30.081
ATOM     41  O   UNL d   1      15.669  31.940  30.893 -0.01 -0.05    -0.650    30.081
ATOM     42  O   UNL d   1      17.773  32.106  31.564 +0.00 -0.32    -0.776    30.081
ATOM     43  H   UNL d   1      18.408  32.600  32.096 +0.03 +0.11    +0.167    30.081
ATOM     44  C   UNL d   1      21.157  41.340  27.497 -0.38 -0.00    +0.004    30.081
ATOM     45  C   UNL d   1      20.992  42.659  27.409 -0.27 -0.00    +0.012    30.081
ATOM     46  C   UNL d   1      13.480  38.544  26.974 -0.35 -0.00    +0.004    30.081
ATOM     47  C   UNL d   1      12.918  37.531  26.302 -0.38 -0.01    +0.012    30.081
TER
ENDMDL
MODEL       48
USER    Run = 48
USER    Cluster Rank = 19
USER    Number of conformations in this cluster = 1
USER  
USER    RMSD from reference structure       = 31.258 A
USER  
USER    Estimated Free Energy of Binding    =   -6.15 kcal/mol  [=(1)+(2)+(3)-(4)]
USER    Estimated Inhibition Constant, Ki   =   31.29 uM (micromolar)  [Temperature = 298.15 K]
USER    
USER    (1) Final Intermolecular Energy     =   -9.13 kcal/mol
USER        vdW + Hbond + desolv Energy     =   -9.05 kcal/mol
USER        Electrostatic Energy            =   -0.07 kcal/mol
USER    (2) Final Total Internal Energy     =   -2.19 kcal/mol
USER    (3) Torsional Free Energy           =   +2.98 kcal/mol
USER    (4) Unbound System's Energy  [=(2)] =   -2.19 kcal/mol
USER    
USER    
USER  
USER    DPF = D:/Protein_go_brrr/autodock/final/2DN3/heme_O2/dock.dpf
USER    NEWDPF move	heme_O2_opt.pdbqt
USER    NEWDPF about	8.287000 34.468000 -0.670000
USER    NEWDPF tran0	43.457051 31.383317 -1.864914
USER    NEWDPF axisangle0	0.099603 -0.244965 -0.964402 -119.225994
USER    NEWDPF quaternion0	0.085921 -0.211314 -0.831921 -0.505838
USER    NEWDPF dihe0	106.90 -26.41 133.99 -108.45 -169.25 -63.50 -93.19 -141.10 -179.52 139.06 
USER  
USER                              x       y       z    vdW   Elec        q     RMS 
ATOM      1  C   UNL d   1      45.113  32.573  -2.450 -0.12 -0.00    +0.064    31.258
ATOM      2  C   UNL d   1      41.038  33.611  -0.242 -0.25 +0.01    +0.064    31.258
ATOM      3  C   UNL d   1      39.615  29.029  -0.517 -0.25 +0.01    +0.064    31.258
ATOM      4  C   UNL d   1      44.008  27.860  -2.362 -0.23 +0.01    +0.064    31.258
ATOM      5  C   UNL d   1      44.121  33.229  -1.825 -0.10 -0.00    +0.066    31.258
ATOM      6  C   UNL d   1      44.132  34.603  -1.567 -0.13 -0.00    -0.021    31.258
ATOM      7  C   UNL d   1      42.972  34.897  -0.889 -0.16 -0.00    -0.025    31.258
ATOM      8  C   UNL d   1      42.263  33.703  -0.795 -0.19 +0.01    +0.066    31.258
ATOM      9  C   UNL d   1      42.609  36.262  -0.346 -0.17 +0.01    +0.051    31.258
ATOM     10  C   UNL d   1      40.235  32.392  -0.134 -0.20 +0.00    +0.066    31.258
ATOM     11  C   UNL d   1      38.905  32.382   0.300 -0.26 -0.00    -0.021    31.258
ATOM     12  C   UNL d   1      38.471  31.072   0.211 -0.27 +0.00    +0.000    31.258
ATOM     13  C   UNL d   1      39.590  30.339  -0.272 -0.24 +0.00    +0.070    31.258
ATOM     14  C   UNL d   1      38.074  33.576   0.755 -0.29 +0.01    +0.052    31.258
ATOM     15  C   UNL d   1      40.736  28.243  -0.973 -0.15 +0.01    +0.066    31.258
ATOM     16  C   UNL d   1      40.746  26.851  -1.053 -0.20 -0.00    -0.021    31.258
ATOM     17  C   UNL d   1      41.989  26.495  -1.576 -0.20 +0.00    +0.000    31.258
ATOM     18  C   UNL d   1      42.653  27.713  -1.780 -0.16 +0.01    +0.070    31.258
ATOM     19  C   UNL d   1      39.602  25.992  -0.577 -0.23 +0.00    +0.052    31.258
ATOM     20  C   UNL d   1      44.690  29.010  -2.531 -0.17 -0.00    +0.066    31.258
ATOM     21  C   UNL d   1      45.957  29.088  -3.102 -0.13 +0.00    -0.025    31.258
ATOM     22  C   UNL d   1      46.277  30.425  -3.160 -0.15 +0.00    -0.021    31.258
ATOM     23  C   UNL d   1      45.196  31.116  -2.604 -0.17 -0.00    +0.066    31.258
ATOM     24  C   UNL d   1      46.821  27.943  -3.565 -0.24 +0.00    +0.051    31.258
ATOM     25  N   UNL d   1      43.000  32.664  -1.313 -0.15 -0.01    -0.248    31.258
ATOM     26  N   UNL d   1      40.660  31.148  -0.475 -0.15 +0.00    -0.248    31.258
ATOM     27  N   UNL d   1      41.907  28.758  -1.338 -0.17 -0.03    -0.248    31.258
ATOM     28  N   UNL d   1      44.253  30.248  -2.182 -0.16 +0.00    -0.248    31.258
ATOM     29 FE   UNL d   1      42.469  30.692  -1.334 -0.05 +0.00    +0.000    31.258
ATOM     30  O   UNL d   1      42.788  31.242   0.087 -0.36 -0.00    +0.000    31.258
ATOM     31  O   UNL d   1      43.265  29.796  -0.316 -0.67 +0.00    +0.000    31.258
ATOM     32  C   UNL d   1      45.249  35.581  -1.823 -0.10 +0.00    +0.052    31.258
ATOM     33  C   UNL d   1      46.121  35.820  -0.594 -0.14 +0.01    +0.115    31.258
ATOM     34  C   UNL d   1      47.204  34.780  -0.446 -0.10 +0.01    +0.139    31.258
ATOM     35  O   UNL d   1      47.794  34.377  -1.437 +0.01 -0.04    -0.650    31.258
ATOM     36  O   UNL d   1      47.519  34.259   0.758 +0.00 -0.07    -0.776    31.258
ATOM     37  H   UNL d   1      47.279  33.358   1.004 -0.35 -0.02    +0.167    31.258
ATOM     38  C   UNL d   1      47.577  30.997  -3.664 -0.09 +0.00    +0.052    31.258
ATOM     39  C   UNL d   1      48.322  31.784  -2.589 -0.10 +0.01    +0.115    31.258
ATOM     40  C   UNL d   1      48.203  31.152  -1.224 -0.26 +0.00    +0.139    31.258
ATOM     41  O   UNL d   1      48.925  30.214  -0.926 -0.09 -0.05    -0.650    31.258
ATOM     42  O   UNL d   1      47.345  31.636  -0.306 -0.02 +0.07    -0.776    31.258
ATOM     43  H   UNL d   1      47.040  32.551  -0.333 -0.43 -0.03    +0.167    31.258
ATOM     44  C   UNL d   1      37.063  30.664   0.591 -0.26 +0.00    +0.004    31.258
ATOM     45  C   UNL d   1      36.404  30.946   1.714 -0.27 +0.00    +0.012    31.258
ATOM     46  C   UNL d   1      42.602  25.145  -1.834 -0.21 +0.00    +0.004    31.258
ATOM     47  C   UNL d   1      43.678  24.598  -1.253 -0.29 +0.00    +0.012    31.258
TER
ENDMDL
MODEL       50
USER    Run = 50
USER    Cluster Rank = 20
USER    Number of conformations in this cluster = 1
USER  
USER    RMSD from reference structure       = 31.578 A
USER  
USER    Estimated Free Energy of Binding    =   -5.40 kcal/mol  [=(1)+(2)+(3)-(4)]
USER    Estimated Inhibition Constant, Ki   =  109.68 uM (micromolar)  [Temperature = 298.15 K]
USER    
USER    (1) Final Intermolecular Energy     =   -8.39 kcal/mol
USER        vdW + Hbond + desolv Energy     =   -7.17 kcal/mol
USER        Electrostatic Energy            =   -1.21 kcal/mol
USER    (2) Final Total Internal Energy     =   -2.06 kcal/mol
USER    (3) Torsional Free Energy           =   +2.98 kcal/mol
USER    (4) Unbound System's Energy  [=(2)] =   -2.06 kcal/mol
USER    
USER    
USER  
USER    DPF = D:/Protein_go_brrr/autodock/final/2DN3/heme_O2/dock.dpf
USER    NEWDPF move	heme_O2_opt.pdbqt
USER    NEWDPF about	8.287000 34.468000 -0.670000
USER    NEWDPF tran0	42.069726 46.682793 3.101710
USER    NEWDPF axisangle0	0.700496 0.321955 -0.636907 -68.416954
USER    NEWDPF quaternion0	0.393823 0.181005 -0.358073 -0.826997
USER    NEWDPF dihe0	37.22 102.23 112.51 -104.20 -131.18 -166.68 141.42 -73.37 17.66 11.70 
USER  
USER                              x       y       z    vdW   Elec        q     RMS 
ATOM      1  C   UNL d   1      41.230  48.409   4.004 -0.22 -0.00    +0.064    31.578
ATOM      2  C   UNL d   1      40.087  43.804   4.212 -0.24 +0.02    +0.064    31.578
ATOM      3  C   UNL d   1      43.654  42.687   1.191 -0.08 +0.01    +0.064    31.578
ATOM      4  C   UNL d   1      45.137  47.361   1.344 -0.03 -0.00    +0.064    31.578
ATOM      5  C   UNL d   1      40.630  47.248   4.308 -0.24 +0.01    +0.066    31.578
ATOM      6  C   UNL d   1      39.518  47.138   5.148 -0.37 -0.00    -0.021    31.578
ATOM      7  C   UNL d   1      39.213  45.800   5.244 -0.35 -0.01    -0.025    31.578
ATOM      8  C   UNL d   1      40.117  45.134   4.421 -0.23 +0.01    +0.066    31.578
ATOM      9  C   UNL d   1      38.120  45.222   6.116 -0.25 +0.02    +0.051    31.578
ATOM     10  C   UNL d   1      40.994  43.053   3.343 -0.19 +0.02    +0.066    31.578
ATOM     11  C   UNL d   1      40.818  41.699   3.034 -0.26 -0.00    -0.021    31.578
ATOM     12  C   UNL d   1      41.827  41.363   2.149 -0.19 +0.00    +0.000    31.578
ATOM     13  C   UNL d   1      42.585  42.554   1.975 -0.03 +0.01    +0.070    31.578
ATOM     14  C   UNL d   1      39.718  40.773   3.539 -0.42 +0.01    +0.052    31.578
ATOM     15  C   UNL d   1      44.469  43.865   1.014 -0.08 +0.01    +0.066    31.578
ATOM     16  C   UNL d   1      45.672  43.896   0.308 -0.05 -0.00    -0.021    31.578
ATOM     17  C   UNL d   1      46.113  45.218   0.339 -0.03 +0.00    +0.000    31.578
ATOM     18  C   UNL d   1      45.134  45.905   1.069 -0.04 +0.00    +0.070    31.578
ATOM     19  C   UNL d   1      46.312  42.663  -0.280 -0.04 +0.00    +0.052    31.578
ATOM     20  C   UNL d   1      44.237  48.044   2.077 -0.06 -0.00    +0.066    31.578
ATOM     21  C   UNL d   1      44.283  49.420   2.286 -0.06 +0.00    -0.025    31.578
ATOM     22  C   UNL d   1      43.163  49.740   3.020 -0.10 +0.00    -0.021    31.578
ATOM     23  C   UNL d   1      42.481  48.540   3.247 -0.12 -0.01    +0.066    31.578
ATOM     24  C   UNL d   1      45.344  50.379   1.814 -0.03 -0.00    +0.051    31.578
ATOM     25  N   UNL d   1      41.030  46.020   3.896 -0.10 -0.03    -0.248    31.578
ATOM     26  N   UNL d   1      42.074  43.576   2.708 -0.07 -0.05    -0.248    31.578
ATOM     27  N   UNL d   1      44.183  45.055   1.535 -0.05 -0.02    -0.248    31.578
ATOM     28  N   UNL d   1      43.161  47.506   2.711 -0.06 +0.01    -0.248    31.578
ATOM     29 FE   UNL d   1      42.624  45.555   2.708 -0.03 +0.00    +0.000    31.578
ATOM     30  O   UNL d   1      42.770  45.061   4.177 -0.34 +0.00    +0.000    31.578
ATOM     31  O   UNL d   1      44.019  45.659   3.426 -0.29 -0.00    +0.000    31.578
ATOM     32  C   UNL d   1      38.850  48.230   5.943 -0.48 +0.01    +0.052    31.578
ATOM     33  C   UNL d   1      37.567  48.737   5.291 -0.04 +0.07    +0.115    31.578
ATOM     34  C   UNL d   1      37.696  48.870   3.794 -0.12 +0.08    +0.139    31.578
ATOM     35  O   UNL d   1      37.631  47.874   3.091 -0.48 -0.56    -0.650    31.578
ATOM     36  O   UNL d   1      37.911  50.068   3.211 -0.03 -0.37    -0.776    31.578
ATOM     37  H   UNL d   1      38.481  50.735   3.609 +0.04 +0.12    +0.167    31.578
ATOM     38  C   UNL d   1      42.807  51.114   3.525 -0.14 -0.01    +0.052    31.578
ATOM     39  C   UNL d   1      41.547  51.670   2.864 -0.07 +0.01    +0.115    31.578
ATOM     40  C   UNL d   1      40.352  51.640   3.784 -0.11 +0.06    +0.139    31.578
ATOM     41  O   UNL d   1      40.335  50.869   4.730 -0.28 -0.15    -0.650    31.578
ATOM     42  O   UNL d   1      39.320  52.488   3.611 -0.21 -0.60    -0.776    31.578
ATOM     43  H   UNL d   1      38.481  52.193   3.238 +0.05 +0.12    +0.167    31.578
ATOM     44  C   UNL d   1      41.962  39.968   1.577 -0.25 +0.00    +0.004    31.578
ATOM     45  C   UNL d   1      42.358  38.860   2.204 -0.41 +0.00    +0.012    31.578
ATOM     46  C   UNL d   1      47.369  45.853  -0.196 -0.01 +0.00    +0.004    31.578
ATOM     47  C   UNL d   1      48.397  46.365   0.493 -0.01 -0.00    +0.012    31.578
TER
ENDMDL


AVSFLD: # AVS field file
AVSFLD: #
AVSFLD: # Created by AutoDock
AVSFLD: #
AVSFLD: ndim=2           # number of dimensions in the field
AVSFLD: nspace=1         # number of physical coordinates
AVSFLD: veclen=7         # vector size
AVSFLD: dim1=47          # atoms
AVSFLD: dim2=20          # conformations
AVSFLD: data=Real       # data type (byte,integer,Real,double)
AVSFLD: field=uniform    # field coordinate layout
AVSFLD: label= x y z vdW Elec q RMS
AVSFLD: variable 1 file = D:/Protein_go_brrr/autodock/final/2DN3/heme_O2/dock.dlg.pdb filetype = ascii offset = 5 stride = 12
AVSFLD: variable 2 file = D:/Protein_go_brrr/autodock/final/2DN3/heme_O2/dock.dlg.pdb filetype = ascii offset = 6 stride = 12
AVSFLD: variable 3 file = D:/Protein_go_brrr/autodock/final/2DN3/heme_O2/dock.dlg.pdb filetype = ascii offset = 7 stride = 12
AVSFLD: variable 4 file = D:/Protein_go_brrr/autodock/final/2DN3/heme_O2/dock.dlg.pdb filetype = ascii offset = 8 stride = 12
AVSFLD: variable 5 file = D:/Protein_go_brrr/autodock/final/2DN3/heme_O2/dock.dlg.pdb filetype = ascii offset = 9 stride = 12
AVSFLD: variable 6 file = D:/Protein_go_brrr/autodock/final/2DN3/heme_O2/dock.dlg.pdb filetype = ascii offset = 10 stride = 12
AVSFLD: variable 7 file = D:/Protein_go_brrr/autodock/final/2DN3/heme_O2/dock.dlg.pdb filetype = ascii offset = 11 stride = 12
AVSFLD: # end of file

>>> Closing the docking parameter file (DPF)...
This docking finished at:			8:36 52" p.m., 01/17/2026


________________________________________________________________________________

D:/autodockScripts/autodock4.exe: Successful Completion on "ACER"

Real= 8h 24m 29.00s,  CPU= 4m 39.98s,  System= 30.19s
________________________________________________________________________________

