          AutoDock 4.2 Release 4.2.6   
         (C) 1989-2012 The Scripps Research Institute
        AutoDock comes with ABSOLUTELY NO WARRANTY.
        AutoDock is free software, and you are welcome
        to redistribute it under certain conditions;
        for details type 'autodock4 -C'

                     main.cc  $Revision: 1.213 $

                   Compiled on Jul 18 2014 at 15:34:58


This file was created at:			11:33 51" a.m., 01/15/2026
                   on host:		"ACER"
Current Working Directory = "D:\Protein_go_brrr\autodock\final\AncMH_nat\heme_Co"

      ________________________________________________________________

                   SETTING UP DEFAULT PARAMETER LIBRARY
      ________________________________________________________________


Random number generator was seeded with values 12572, 1768473231.
Docking parameter file (DPF) used for this docking:		D:/Protein_go_brrr/autodock/final/AncMH_nat/heme_Co/dock.dpf
DPF> autodock_parameter_version 4.2       # used by autodock to validate parameter set

	Autodock parameter version 4.2.
DPF> outlev 1                             # diagnostic output level

Output Level = 1  ADT-COMPATIBLE OUTPUT DURING DOCKING.
DPF> intelec                              # calculate internal electrostatics

Electrostatic energies will be calculated for all non-bonds between moving atoms.
DPF> seed pid time                        # seeds for random generator

Random number generator was seeded with values 12572, 1768473231.
DPF> ligand_types A C OA N Fe HD          # atoms types in ligand

DPF> fld opt_AncMH_nat.maps.fld           # grid_data_file

Opening Grid Map Dimensions file:		opt_AncMH_nat.maps.fld
Grid Point Spacing =				0.631 Angstroms

Even Number of User-specified Grid Points =	126 x-points
						126 y-points
						126 z-points

Coordinates of Central Grid Point of Maps =	(-1.644, 0.366, 1.789)
Macromolecule file used to create Grid Maps =	opt_AncMH_nat.pdbqt
Grid Parameter file used to create Grid Maps =	D:/Protein_go_brrr/autodock/final/AncMH_nat/heme_Co/grid.gpf
Minimum coordinates in grid = (-41.397, -39.387, -37.964)
Maximum coordinates in grid = (38.109, 40.119, 41.542)

DPF> map opt_AncMH_nat.A.map              # atom-specific affinity map

DPF> map opt_AncMH_nat.C.map              # atom-specific affinity map

DPF> map opt_AncMH_nat.OA.map             # atom-specific affinity map

DPF> map opt_AncMH_nat.N.map              # atom-specific affinity map

DPF> map opt_AncMH_nat.Fe.map             # atom-specific affinity map

DPF> map opt_AncMH_nat.HD.map             # atom-specific affinity map

DPF> elecmap opt_AncMH_nat.e.map          # electrostatics map

DPF> desolvmap opt_AncMH_nat.d.map        # desolvation map

DPF> move heme_Co_opt.pdbqt               # small molecule

1,4-interactions will be _ignored_ in the non-bonded internal energy calculation.

Ligand PDBQT file = "heme_Co_opt.pdbqt"

INPUT LIGAND PDBQT FILE:
________________________

INPUT-LIGAND-PDBQT: REMARK  12 active torsions:
INPUT-LIGAND-PDBQT: REMARK  status: ('A' for Active; 'I' for Inactive)
INPUT-LIGAND-PDBQT: REMARK    1  A    between atoms: C_6  and  C_10 
INPUT-LIGAND-PDBQT: REMARK    2  A    between atoms: C_10  and  C_11 
INPUT-LIGAND-PDBQT: REMARK    3  A    between atoms: C_11  and  C_12 
INPUT-LIGAND-PDBQT: REMARK    4  A    between atoms: C_12  and  O_14 
INPUT-LIGAND-PDBQT: REMARK    5  A    between atoms: C_17  and  C_20 
INPUT-LIGAND-PDBQT: REMARK    6  A    between atoms: C_24  and  C_27 
INPUT-LIGAND-PDBQT: REMARK    7  A    between atoms: C_31  and  C_34 
INPUT-LIGAND-PDBQT: REMARK    8  A    between atoms: C_34  and  C_35 
INPUT-LIGAND-PDBQT: REMARK    9  A    between atoms: C_35  and  C_36 
INPUT-LIGAND-PDBQT: REMARK   10  A    between atoms: C_36  and  O_38 
INPUT-LIGAND-PDBQT: REMARK   11  A    between atoms: FE_43  and  C_44 
INPUT-LIGAND-PDBQT: REMARK   12  A    between atoms: C_44  and  O_45 
INPUT-LIGAND-PDBQT: ROOT
INPUT-LIGAND-PDBQT: ATOM      1  C   UNL d   1       6.846  35.483  -1.586  0.00  0.00     0.064 A 
INPUT-LIGAND-PDBQT: ATOM      2  C   UNL d   1       8.105  32.823   2.149  0.00  0.00     0.064 C 
INPUT-LIGAND-PDBQT: ATOM      3  C   UNL d   1      12.720  33.414   1.062  0.00  0.00     0.064 A 
INPUT-LIGAND-PDBQT: ATOM      4  C   UNL d   1      11.472  36.449  -2.529  0.00  0.00     0.064 A 
INPUT-LIGAND-PDBQT: ATOM      5  C   UNL d   1       6.850  34.683  -0.507  0.00  0.00     0.066 A 
INPUT-LIGAND-PDBQT: ATOM      6  C   UNL d   1       5.664  34.330   0.166  0.00  0.00    -0.021 A 
INPUT-LIGAND-PDBQT: ATOM      7  C   UNL d   1       6.037  33.577   1.262  0.00  0.00    -0.025 A 
INPUT-LIGAND-PDBQT: ATOM      8  C   UNL d   1       7.432  33.489   1.202  0.00  0.00     0.066 A 
INPUT-LIGAND-PDBQT: ATOM      9  C   UNL d   1       5.127  32.958   2.334  0.00  0.00     0.051 C 
INPUT-LIGAND-PDBQT: ATOM     10  C   UNL d   1       9.537  32.657   2.156  0.00  0.00     0.066 A 
INPUT-LIGAND-PDBQT: ATOM     11  C   UNL d   1      10.289  31.854   3.041  0.00  0.00    -0.021 A 
INPUT-LIGAND-PDBQT: ATOM     12  C   UNL d   1      11.631  32.042   2.699  0.00  0.00     0.000 A 
INPUT-LIGAND-PDBQT: ATOM     13  C   UNL d   1      11.598  32.933   1.626  0.00  0.00     0.070 A 
INPUT-LIGAND-PDBQT: ATOM     14  C   UNL d   1       9.736  30.905   4.073  0.00  0.00     0.052 C 
INPUT-LIGAND-PDBQT: ATOM     15  C   UNL d   1      12.870  34.375  -0.013  0.00  0.00     0.066 A 
INPUT-LIGAND-PDBQT: ATOM     16  C   UNL d   1      14.059  34.940  -0.452  0.00  0.00    -0.021 A 
INPUT-LIGAND-PDBQT: ATOM     17  C   UNL d   1      13.704  35.818  -1.486  0.00  0.00     0.000 A 
INPUT-LIGAND-PDBQT: ATOM     18  C   UNL d   1      12.323  35.706  -1.608  0.00  0.00     0.070 A 
INPUT-LIGAND-PDBQT: ATOM     19  C   UNL d   1      15.432  34.638   0.106  0.00  0.00     0.052 C 
INPUT-LIGAND-PDBQT: ATOM     20  C   UNL d   1      10.120  36.421  -2.607  0.00  0.00     0.066 A 
INPUT-LIGAND-PDBQT: ATOM     21  C   UNL d   1       9.411  37.209  -3.511  0.00  0.00    -0.025 A 
INPUT-LIGAND-PDBQT: ATOM     22  C   UNL d   1       8.076  36.930  -3.282  0.00  0.00    -0.021 A 
INPUT-LIGAND-PDBQT: ATOM     23  C   UNL d   1       8.036  35.987  -2.233  0.00  0.00     0.066 A 
INPUT-LIGAND-PDBQT: ATOM     24  C   UNL d   1       9.976  38.195  -4.530  0.00  0.00     0.051 C 
INPUT-LIGAND-PDBQT: ATOM     25  N   UNL d   1       7.962  34.160   0.113  0.00  0.00    -0.248 N 
INPUT-LIGAND-PDBQT: ATOM     26  N   UNL d   1      10.329  33.260   1.263  0.00  0.00    -0.248 N 
INPUT-LIGAND-PDBQT: ATOM     27  N   UNL d   1      11.857  34.861  -0.695  0.00  0.00    -0.248 N 
INPUT-LIGAND-PDBQT: ATOM     28  N   UNL d   1       9.271  35.678  -1.820  0.00  0.00    -0.248 N 
INPUT-LIGAND-PDBQT: ATOM     29 FE   UNL d   1      10.024  34.533  -0.318  0.00  0.00     0.000 Fe
INPUT-LIGAND-PDBQT: ENDROOT
INPUT-LIGAND-PDBQT: BRANCH   6  30
INPUT-LIGAND-PDBQT: ATOM     30  C   UNL d   1       4.249  34.772  -0.192  0.00  0.00     0.052 C 
INPUT-LIGAND-PDBQT: BRANCH  30  31
INPUT-LIGAND-PDBQT: ATOM     31  C   UNL d   1       3.660  33.865  -1.272  0.00  0.00     0.115 C 
INPUT-LIGAND-PDBQT: BRANCH  31  32
INPUT-LIGAND-PDBQT: ATOM     32  C   UNL d   1       2.237  34.239  -1.627  0.00  0.00     0.139 C 
INPUT-LIGAND-PDBQT: ATOM     33  O   UNL d   1       1.374  33.374  -1.641  0.00  0.00    -0.650 OA
INPUT-LIGAND-PDBQT: BRANCH  32  34
INPUT-LIGAND-PDBQT: ATOM     34  O   UNL d   1       1.874  35.517  -1.885  0.00  0.00    -0.776 OA
INPUT-LIGAND-PDBQT: ATOM     35  H   UNL d   1       2.467  36.277  -1.807  0.00  0.00     0.167 HD
INPUT-LIGAND-PDBQT: ENDBRANCH  32  34
INPUT-LIGAND-PDBQT: ENDBRANCH  31  32
INPUT-LIGAND-PDBQT: ENDBRANCH  30  31
INPUT-LIGAND-PDBQT: ENDBRANCH   6  30
INPUT-LIGAND-PDBQT: BRANCH  29  36
INPUT-LIGAND-PDBQT: ATOM     36  C   UNL d   1       9.893  36.149   1.011  0.00  0.00     0.190 C 
INPUT-LIGAND-PDBQT: BRANCH  36  37
INPUT-LIGAND-PDBQT: ATOM     37  O   UNL d   1      10.463  37.389   1.317  0.00  0.00    -0.399 OA
INPUT-LIGAND-PDBQT: ATOM     38  H   UNL d   1      10.901  37.258   2.204  0.00  0.00     0.209 HD
INPUT-LIGAND-PDBQT: ENDBRANCH  36  37
INPUT-LIGAND-PDBQT: ENDBRANCH  29  36
INPUT-LIGAND-PDBQT: BRANCH  22  39
INPUT-LIGAND-PDBQT: ATOM     39  C   UNL d   1       6.906  37.586  -3.991  0.00  0.00     0.052 C 
INPUT-LIGAND-PDBQT: BRANCH  39  40
INPUT-LIGAND-PDBQT: ATOM     40  C   UNL d   1       6.343  36.659  -5.081  0.00  0.00     0.115 C 
INPUT-LIGAND-PDBQT: BRANCH  40  41
INPUT-LIGAND-PDBQT: ATOM     41  C   UNL d   1       5.088  37.175  -5.753  0.00  0.00     0.139 C 
INPUT-LIGAND-PDBQT: ATOM     42  O   UNL d   1       4.969  37.063  -6.965  0.00  0.00    -0.650 OA
INPUT-LIGAND-PDBQT: BRANCH  41  43
INPUT-LIGAND-PDBQT: ATOM     43  O   UNL d   1       4.056  37.678  -5.040  0.00  0.00    -0.776 OA
INPUT-LIGAND-PDBQT: ATOM     44  H   UNL d   1       4.103  37.816  -4.085  0.00  0.00     0.167 HD
INPUT-LIGAND-PDBQT: ENDBRANCH  41  43
INPUT-LIGAND-PDBQT: ENDBRANCH  40  41
INPUT-LIGAND-PDBQT: ENDBRANCH  39  40
INPUT-LIGAND-PDBQT: ENDBRANCH  22  39
INPUT-LIGAND-PDBQT: BRANCH  12  45
INPUT-LIGAND-PDBQT: ATOM     45  C   UNL d   1      12.932  31.471   3.247  0.00  0.00     0.004 C 
INPUT-LIGAND-PDBQT: ATOM     46  C   UNL d   1      13.165  30.727   4.325  0.00  0.00     0.012 C 
INPUT-LIGAND-PDBQT: ENDBRANCH  12  45
INPUT-LIGAND-PDBQT: BRANCH  17  47
INPUT-LIGAND-PDBQT: ATOM     47  C   UNL d   1      14.559  36.745  -2.286  0.00  0.00     0.004 C 
INPUT-LIGAND-PDBQT: ATOM     48  C   UNL d   1      15.750  37.188  -1.876  0.00  0.00     0.012 C 
INPUT-LIGAND-PDBQT: ENDBRANCH  17  47
INPUT-LIGAND-PDBQT: TORSDOF 12
________________________________________________________________________________

Total charge on ligand                               =	-2.002 e
REMARK  12 active torsions:
REMARK  status: ('A' for Active; 'I' for Inactive)
REMARK    1  A    between atoms: C_6  and  C_10 
REMARK    2  A    between atoms: C_10  and  C_11 
REMARK    3  A    between atoms: C_11  and  C_12 
REMARK    4  A    between atoms: C_12  and  O_14 
REMARK    5  A    between atoms: C_17  and  C_20 
REMARK    6  A    between atoms: C_24  and  C_27 
REMARK    7  A    between atoms: C_31  and  C_34 
REMARK    8  A    between atoms: C_34  and  C_35 
REMARK    9  A    between atoms: C_35  and  C_36 
REMARK   10  A    between atoms: C_36  and  O_38 
REMARK   11  A    between atoms: FE_43  and  C_44 
REMARK   12  A    between atoms: C_44  and  O_45 


Number of Rotatable Bonds in Small Molecule =	12 torsions
Number of atoms in ligand:  48

Number of non-hydrogen atoms in ligand:  45

Number of vibrational degrees of freedom of ligand:  138


Number of torsional degrees of freedom = 12
Estimated loss of torsional free energy upon binding = +3.5796 kcal/mol


DPF> about 8.781 34.984 -0.736            # small molecule center

Small molecule center of rotation =	(+8.781, +34.984, -0.736)

DPF> tran0 random                         # initial coordinates/A or random

Initial translation =			(36.593, -35.484, 0.864) Angstroms
DPF> quaternion0 random                   # initial orientation

Each run will begin with a new, random initial orientation.
Initial quaternion,  (x,y,z,w) =	( 0.194, 0.149, -0.486, 0.839 ),
DPF> dihe0 random                         # initial dihedrals (relative) or random

DPF> torsdof 12                            # torsional degrees of freedom

Number of torsional degrees of freedom = 12
Free energy coefficient for torsional degrees of freedom = 0.2983, the factory default value.

Estimated loss of torsional free energy upon binding = +3.5796 kcal/mol

DPF> rmstol 2.0                           # cluster_tolerance/A

Maximum RMS tolerance for conformational cluster analysis = 2.00 Angstroms
DPF> extnrg 1000.0                        # external grid energy

External grid energy (beyond grid map walls) = 1000.00

DPF> e0max 0.0 10000                      # max initial energy; max number of retries

Using user-specified maximum number of retries for simanneal initialization, 10000 retries.
If the simanneal initial energy is greater than e0max, 0.000,
then a new, random initial state will be created.

DPF> ga_pop_size 150                      # number of individuals in population

A population of 150 individuals will be used
DPF> ga_num_evals 25000000                # maximum number of energy evaluations

There will be at most 25000000 function evaluations used.
DPF> ga_num_generations 27000             # maximum number of generations

The GA will run for at most 27000 generations.
DPF> ga_elitism 1                         # number of top individuals to survive to next generation

The 1 best will be preserved each GA generation.
DPF> ga_mutation_rate 0.02                # rate of gene mutation

The mutation rate is 0.020000.
DPF> ga_crossover_rate 0.8                # rate of crossover

The crossover rate is 0.800000.
DPF> ga_window_size 10                    # 

The GA's selection window is 10 generations.
DPF> ga_cauchy_alpha 0.0                  # Alpha parameter of Cauchy distribution

The alpha parameter (for the Cauchy distribution) is being set to 0.000000.
DPF> ga_cauchy_beta 1.0                   # Beta parameter Cauchy distribution

The beta parameter (for the Cauchy distribution) is being set to 1.000000.
DPF> set_ga                               # set the above parameters for GA or LGA

DPF> sw_max_its 300                       # iterations of Solis & Wets local search

Solis & Wets algorithms will perform at most 300 iterations.
DPF> sw_max_succ 4                        # consecutive successes before changing rho

Solis & Wets algorithms expand rho every 4 in a row successes.
DPF> sw_max_fail 4                        # consecutive failures before changing rho

Solis & Wets algorithms contract rho every 4 in a row failures.
DPF> sw_rho 1.0                           # size of local search space to sample

rho is set to 1.000000.
DPF> sw_lb_rho 0.01                       # lower bound on rho

rho will never get smaller than 0.010000.
DPF> ls_search_freq 0.06                  # probability of performing local search on individual

Local search will be performed with frequency 0.060000.
DPF> set_psw1                             # set the above pseudo-Solis & Wets parameters

Creating a new Local Search object using the pseudo-Solis-Wets algorithm (pSW1) with the current settings.

DPF> unbound_model bound                  # state of unbound ligand

DPF> ga_run 100                           # do this many hybrid GA-LS runs

centering ligand on specified point: 8.781 34.984 -0.736
Furthest true ligand atom from "about" center is 7.934 Angstroms (maxrad).
Number of requested GA dockings = 100 runs
Unbound model to be used is 'same as bound' [AutoDock 4.2 default].

	BEGINNING GENETIC ALGORITHM DOCKING 1 of 100
Run: 1 Seed: 542332048 2077063165 [ Run 1 of 100 GA/GALS ]
Beginning LAMARCKIAN GENETIC ALGORITHM (LGA), with a maximum of 25000000 energy evaluations.

Final-Value: -9.699


	FINAL GENETIC ALGORITHM DOCKED STATE
	_______________________________________________


Detailed state:  trans -3.627 14.188 15.043 quatxyzw 0.059516 0.401586 0.873932 0.267263 center 8.781 34.984 -0.736 ntor 12 41.3750 102.2768 150.2968 145.7428 81.7774 154.7567 -7.7009 121.8806 -110.5179 -79.1989 -14.0564 -179.7541
State:	 -3.627  14.188  15.043   0.062  0.417  0.907 148.997     41.37  102.28  150.30  145.74   81.78  154.76   -7.70  121.88 -110.52  -79.20  -14.06 -179.75

DOCKED: MODEL        1
DOCKED: USER    Run = 1
DOCKED: USER    DPF = D:/Protein_go_brrr/autodock/final/AncMH_nat/heme_Co/dock.dpf
DOCKED: USER  
DOCKED: USER    Estimated Free Energy of Binding    =   -5.22 kcal/mol  [=(1)+(2)+(3)-(4)]
DOCKED: USER    Estimated Inhibition Constant, Ki   =  148.91 uM (micromolar)  [Temperature = 298.15 K]
DOCKED: USER    
DOCKED: USER    (1) Final Intermolecular Energy     =   -8.80 kcal/mol
DOCKED: USER        vdW + Hbond + desolv Energy     =   -6.65 kcal/mol
DOCKED: USER        Electrostatic Energy            =   -2.15 kcal/mol
DOCKED: USER    (2) Final Total Internal Energy     =   -0.90 kcal/mol
DOCKED: USER    (3) Torsional Free Energy           =   +3.58 kcal/mol
DOCKED: USER    (4) Unbound System's Energy  [=(2)] =   -0.90 kcal/mol
DOCKED: USER    
DOCKED: USER    
DOCKED: USER    NEWDPF move heme_Co_opt.pdbqt
DOCKED: USER    NEWDPF about 8.781000 34.984000 -0.736000
DOCKED: USER    NEWDPF tran0 -3.627045 14.187908 15.043486
DOCKED: USER    NEWDPF quaternion0 0.059516 0.401586 0.873932 0.267263
DOCKED: USER    NEWDPF axisangle0 0.061762 0.416745 0.906923 148.997105
DOCKED: USER    NEWDPF quat0 0.061762 0.416745 0.906923 148.997105
DOCKED: USER    NEWDPF dihe0 41.37 102.28 150.30 145.74 81.78 154.76 -7.70 121.88 -110.52 -79.20 -14.06 -179.75 
DOCKED: USER  keepresnum = 1 
DOCKED: USER  
DOCKED: REMARK  12 active torsions:
DOCKED: REMARK  status: ('A' for Active; 'I' for Inactive)
DOCKED: REMARK    1  A    between atoms: C_6  and  C_10 
DOCKED: REMARK    2  A    between atoms: C_10  and  C_11 
DOCKED: REMARK    3  A    between atoms: C_11  and  C_12 
DOCKED: REMARK    4  A    between atoms: C_12  and  O_14 
DOCKED: REMARK    5  A    between atoms: C_17  and  C_20 
DOCKED: REMARK    6  A    between atoms: C_24  and  C_27 
DOCKED: REMARK    7  A    between atoms: C_31  and  C_34 
DOCKED: REMARK    8  A    between atoms: C_34  and  C_35 
DOCKED: REMARK    9  A    between atoms: C_35  and  C_36 
DOCKED: REMARK   10  A    between atoms: C_36  and  O_38 
DOCKED: REMARK   11  A    between atoms: FE_43  and  C_44 
DOCKED: REMARK   12  A    between atoms: C_44  and  O_45 
DOCKED: USER                              x       y       z     vdW  Elec       q    Type
DOCKED: USER                           _______ _______ _______ _____ _____    ______ ____
DOCKED: ROOT
DOCKED: ATOM      1  C   UNL d   1      -1.631  14.109  14.191 -0.10 -0.01    +0.064 A 
DOCKED: ATOM      2  C   UNL d   1      -4.484  17.743  15.314 -0.13 +0.01    +0.064 C 
DOCKED: ATOM      3  C   UNL d   1      -7.983  14.695  16.452 -0.08 -0.03    +0.064 A 
DOCKED: ATOM      4  C   UNL d   1      -4.962  10.961  15.681 -0.15 -0.02    +0.064 A 
DOCKED: ATOM      5  C   UNL d   1      -2.166  15.327  14.380 -0.08 +0.01    +0.066 A 
DOCKED: ATOM      6  C   UNL d   1      -1.414  16.506  14.217 -0.07 -0.01    -0.021 A 
DOCKED: ATOM      7  C   UNL d   1      -2.240  17.557  14.566 -0.09 -0.01    -0.025 A 
DOCKED: ATOM      8  C   UNL d   1      -3.465  16.975  14.911 -0.08 +0.02    +0.066 A 
DOCKED: ATOM      9  C   UNL d   1      -1.904  19.056  14.579 -0.08 +0.03    +0.051 C 
DOCKED: ATOM     10  C   UNL d   1      -5.788  17.237  15.664 -0.16 -0.00    +0.066 A 
DOCKED: ATOM     11  C   UNL d   1      -6.939  18.000  15.959 -0.18 +0.00    -0.021 A 
DOCKED: ATOM     12  C   UNL d   1      -7.945  17.086  16.283 -0.21 -0.00    +0.000 A 
DOCKED: ATOM     13  C   UNL d   1      -7.339  15.836  16.150 -0.17 -0.02    +0.070 A 
DOCKED: ATOM     14  C   UNL d   1      -7.071  19.497  15.838 -0.16 -0.01    +0.052 C 
DOCKED: ATOM     15  C   UNL d   1      -7.497  13.329  16.423 -0.16 -0.02    +0.066 A 
DOCKED: ATOM     16  C   UNL d   1      -8.168  12.207  16.886 -0.15 +0.00    -0.021 A 
DOCKED: ATOM     17  C   UNL d   1      -7.299  11.127  16.668 -0.19 -0.00    +0.000 A 
DOCKED: ATOM     18  C   UNL d   1      -6.170  11.677  16.072 -0.19 -0.01    +0.070 A 
DOCKED: ATOM     19  C   UNL d   1      -9.552  12.202  17.496 -0.09 -0.01    +0.052 C 
DOCKED: ATOM     20  C   UNL d   1      -3.818  11.485  15.179 -0.18 -0.01    +0.066 A 
DOCKED: ATOM     21  C   UNL d   1      -2.710  10.698  14.875 -0.25 +0.01    -0.025 A 
DOCKED: ATOM     22  C   UNL d   1      -1.744  11.575  14.416 -0.22 +0.01    -0.021 A 
DOCKED: ATOM     23  C   UNL d   1      -2.312  12.866  14.475 -0.14 -0.02    +0.066 A 
DOCKED: ATOM     24  C   UNL d   1      -2.570   9.186  15.033 -0.34 -0.02    +0.051 C 
DOCKED: ATOM     25  N   UNL d   1      -3.449  15.595  14.799 -0.07 -0.03    -0.248 N 
DOCKED: ATOM     26  N   UNL d   1      -6.052  15.927  15.722 -0.13 +0.03    -0.248 N 
DOCKED: ATOM     27  N   UNL d   1      -6.310  12.994  15.969 -0.11 +0.05    -0.248 N 
DOCKED: ATOM     28  N   UNL d   1      -3.566  12.816  14.938 -0.07 +0.04    -0.248 N 
DOCKED: ATOM     29 FE   UNL d   1      -4.962  14.214  15.418 -0.04 -0.00    +0.000 Fe
DOCKED: ENDROOT
DOCKED: BRANCH   6  30
DOCKED: ATOM     30  C   UNL d   1       0.056  16.601  13.822 -0.04 +0.01    +0.052 C 
DOCKED: BRANCH  30  31
DOCKED: ATOM     31  C   UNL d   1       0.247  16.197  12.360 -0.08 +0.02    +0.115 C 
DOCKED: BRANCH  31  32
DOCKED: ATOM     32  C   UNL d   1      -0.382  17.185  11.401 +0.01 +0.13    +0.139 C 
DOCKED: ATOM     33  O   UNL d   1      -1.010  16.772  10.439 -0.44 -0.71    -0.650 OA
DOCKED: BRANCH  32  34
DOCKED: ATOM     34  O   UNL d   1      -0.312  18.522  11.601 -0.28 -0.94    -0.776 OA
DOCKED: ATOM     35  H   UNL d   1       0.460  18.978  11.963 +0.01 +0.11    +0.167 HD
DOCKED: ENDBRANCH  32  34
DOCKED: ENDBRANCH  31  32
DOCKED: ENDBRANCH  30  31
DOCKED: ENDBRANCH   6  30
DOCKED: BRANCH  29  36
DOCKED: ATOM     36  C   UNL d   1      -4.166  14.381  17.350 -0.02 -0.02    +0.190 C 
DOCKED: BRANCH  36  37
DOCKED: ATOM     37  O   UNL d   1      -3.161  15.011  18.090 +0.00 +0.02    -0.399 OA
DOCKED: ATOM     38  H   UNL d   1      -2.562  15.426  17.408 +0.01 -0.00    +0.209 HD
DOCKED: ENDBRANCH  36  37
DOCKED: ENDBRANCH  29  36
DOCKED: BRANCH  22  39
DOCKED: ATOM     39  C   UNL d   1      -0.333  11.195  14.008 -0.17 -0.00    +0.052 C 
DOCKED: BRANCH  39  40
DOCKED: ATOM     40  C   UNL d   1       0.553  10.985  15.247 -0.09 +0.05    +0.115 C 
DOCKED: BRANCH  40  41
DOCKED: ATOM     41  C   UNL d   1       0.660   9.545  15.702 -0.14 +0.07    +0.139 C 
DOCKED: ATOM     42  O   UNL d   1      -0.024   9.162  16.641 +0.03 -0.03    -0.650 OA
DOCKED: BRANCH  41  43
DOCKED: ATOM     43  O   UNL d   1       1.425   8.647  15.043 -0.48 -0.93    -0.776 OA
DOCKED: ATOM     44  H   UNL d   1       1.771   7.850  15.466 +0.04 +0.10    +0.167 HD
DOCKED: ENDBRANCH  41  43
DOCKED: ENDBRANCH  40  41
DOCKED: ENDBRANCH  39  40
DOCKED: ENDBRANCH  22  39
DOCKED: BRANCH  12  45
DOCKED: ATOM     45  C   UNL d   1      -9.405  17.248  16.682 -0.19 -0.00    +0.004 C 
DOCKED: ATOM     46  C   UNL d   1     -10.487  16.572  16.303 -0.19 -0.01    +0.012 C 
DOCKED: ENDBRANCH  12  45
DOCKED: BRANCH  17  47
DOCKED: ATOM     47  C   UNL d   1      -7.460   9.686  17.026 -0.25 -0.00    +0.004 C 
DOCKED: ATOM     48  C   UNL d   1      -8.452   8.919  16.567 -0.30 -0.00    +0.012 C 
DOCKED: ENDBRANCH  17  47
DOCKED: TORSDOF 12
DOCKED: TER
DOCKED: ENDMDL
________________________________________________________________________________


	BEGINNING GENETIC ALGORITHM DOCKING 2 of 100
Run: 2 Seed: 2106524208 105434501 [ Run 2 of 100 GA/GALS ]
Beginning LAMARCKIAN GENETIC ALGORITHM (LGA), with a maximum of 25000000 energy evaluations.

Final-Value: -8.940


	FINAL GENETIC ALGORITHM DOCKED STATE
	_______________________________________________


Detailed state:  trans -1.406 12.110 15.594 quatxyzw -0.249111 0.741719 -0.621737 -0.035203 center 8.781 34.984 -0.736 ntor 12 148.8022 -35.0955 173.3764 -55.6232 137.7923 -151.4129 75.9694 -37.9779 77.6828 35.2035 177.7842 158.7175
State:	 -1.406  12.110  15.594  -0.249  0.742 -0.622 -175.965    148.80  -35.10  173.38  -55.62  137.79 -151.41   75.97  -37.98   77.68   35.20  177.78  158.72

DOCKED: MODEL        2
DOCKED: USER    Run = 2
DOCKED: USER    DPF = D:/Protein_go_brrr/autodock/final/AncMH_nat/heme_Co/dock.dpf
DOCKED: USER  
DOCKED: USER    Estimated Free Energy of Binding    =   -4.57 kcal/mol  [=(1)+(2)+(3)-(4)]
DOCKED: USER    Estimated Inhibition Constant, Ki   =  445.22 uM (micromolar)  [Temperature = 298.15 K]
DOCKED: USER    
DOCKED: USER    (1) Final Intermolecular Energy     =   -8.15 kcal/mol
DOCKED: USER        vdW + Hbond + desolv Energy     =   -6.29 kcal/mol
DOCKED: USER        Electrostatic Energy            =   -1.86 kcal/mol
DOCKED: USER    (2) Final Total Internal Energy     =   -0.79 kcal/mol
DOCKED: USER    (3) Torsional Free Energy           =   +3.58 kcal/mol
DOCKED: USER    (4) Unbound System's Energy  [=(2)] =   -0.79 kcal/mol
DOCKED: USER    
DOCKED: USER    
DOCKED: USER    NEWDPF move heme_Co_opt.pdbqt
DOCKED: USER    NEWDPF about 8.781000 34.984000 -0.736000
DOCKED: USER    NEWDPF tran0 -1.405945 12.110258 15.593987
DOCKED: USER    NEWDPF quaternion0 -0.249111 0.741719 -0.621737 -0.035203
DOCKED: USER    NEWDPF axisangle0 -0.249266 0.742179 -0.622123 -175.965182
DOCKED: USER    NEWDPF quat0 -0.249266 0.742179 -0.622123 -175.965182
DOCKED: USER    NEWDPF dihe0 148.80 -35.10 173.38 -55.62 137.79 -151.41 75.97 -37.98 77.68 35.20 177.78 158.72 
DOCKED: USER  keepresnum = 1 
DOCKED: USER  
DOCKED: REMARK  12 active torsions:
DOCKED: REMARK  status: ('A' for Active; 'I' for Inactive)
DOCKED: REMARK    1  A    between atoms: C_6  and  C_10 
DOCKED: REMARK    2  A    between atoms: C_10  and  C_11 
DOCKED: REMARK    3  A    between atoms: C_11  and  C_12 
DOCKED: REMARK    4  A    between atoms: C_12  and  O_14 
DOCKED: REMARK    5  A    between atoms: C_17  and  C_20 
DOCKED: REMARK    6  A    between atoms: C_24  and  C_27 
DOCKED: REMARK    7  A    between atoms: C_31  and  C_34 
DOCKED: REMARK    8  A    between atoms: C_34  and  C_35 
DOCKED: REMARK    9  A    between atoms: C_35  and  C_36 
DOCKED: REMARK   10  A    between atoms: C_36  and  O_38 
DOCKED: REMARK   11  A    between atoms: FE_43  and  C_44 
DOCKED: REMARK   12  A    between atoms: C_44  and  O_45 
DOCKED: USER                              x       y       z     vdW  Elec       q    Type
DOCKED: USER                           _______ _______ _______ _____ _____    ______ ____
DOCKED: ROOT
DOCKED: ATOM      1  C   UNL d   1      -0.186  13.730  14.817 -0.05 -0.00    +0.064 A 
DOCKED: ATOM      2  C   UNL d   1       0.933   9.557  16.803 -0.10 +0.01    +0.064 C 
DOCKED: ATOM      3  C   UNL d   1      -3.684   8.694  17.681 -0.20 -0.05    +0.064 A 
DOCKED: ATOM      4  C   UNL d   1      -4.883  12.771  15.313 -0.17 -0.01    +0.064 A 
DOCKED: ATOM      5  C   UNL d   1       0.462  12.670  15.328 -0.06 +0.01    +0.066 A 
DOCKED: ATOM      6  C   UNL d   1       1.856  12.515  15.203 -0.06 -0.01    -0.021 A 
DOCKED: ATOM      7  C   UNL d   1       2.172  11.292  15.761 -0.06 -0.01    -0.025 A 
DOCKED: ATOM      8  C   UNL d   1       0.961  10.761  16.217 -0.06 +0.02    +0.066 A 
DOCKED: ATOM      9  C   UNL d   1       3.557  10.635  15.868 -0.06 +0.03    +0.051 C 
DOCKED: ATOM     10  C   UNL d   1      -0.261   8.942  17.327 -0.10 -0.01    +0.066 A 
DOCKED: ATOM     11  C   UNL d   1      -0.336   7.748  18.076 -0.14 +0.00    -0.021 A 
DOCKED: ATOM     12  C   UNL d   1      -1.693   7.522  18.322 -0.18 -0.00    +0.000 A 
DOCKED: ATOM     13  C   UNL d   1      -2.343   8.598  17.717 -0.16 -0.03    +0.070 A 
DOCKED: ATOM     14  C   UNL d   1       0.830   6.945  18.594 -0.14 -0.01    +0.052 C 
DOCKED: ATOM     15  C   UNL d   1      -4.517   9.703  17.057 -0.20 -0.04    +0.066 A 
DOCKED: ATOM     16  C   UNL d   1      -5.899   9.667  16.931 -0.22 +0.01    -0.021 A 
DOCKED: ATOM     17  C   UNL d   1      -6.249  10.840  16.246 -0.20 -0.00    +0.000 A 
DOCKED: ATOM     18  C   UNL d   1      -5.050  11.509  16.023 -0.16 -0.02    +0.070 A 
DOCKED: ATOM     19  C   UNL d   1      -6.797   8.564  17.443 -0.21 -0.04    +0.052 C 
DOCKED: ATOM     20  C   UNL d   1      -3.721  13.397  15.008 -0.12 -0.01    +0.066 A 
DOCKED: ATOM     21  C   UNL d   1      -3.686  14.589  14.288 -0.18 +0.00    -0.025 A 
DOCKED: ATOM     22  C   UNL d   1      -2.346  14.905  14.155 -0.12 -0.00    -0.021 A 
DOCKED: ATOM     23  C   UNL d   1      -1.624  13.876  14.795 -0.07 -0.01    +0.066 A 
DOCKED: ATOM     24  C   UNL d   1      -4.869  15.379  13.735 -0.20 +0.01    +0.051 C 
DOCKED: ATOM     25  N   UNL d   1      -0.115  11.596  15.967 -0.03 -0.02    -0.248 N 
DOCKED: ATOM     26  N   UNL d   1      -1.473   9.485  17.164 -0.05 +0.05    -0.248 N 
DOCKED: ATOM     27  N   UNL d   1      -4.038  10.789  16.493 -0.09 +0.07    -0.248 N 
DOCKED: ATOM     28  N   UNL d   1      -2.452  12.960  15.311 -0.03 +0.04    -0.248 N 
DOCKED: ATOM     29 FE   UNL d   1      -2.193  11.172  16.244 -0.03 -0.00    +0.000 Fe
DOCKED: ENDROOT
DOCKED: BRANCH   6  30
DOCKED: ATOM     30  C   UNL d   1       2.818  13.469  14.504 -0.04 +0.01    +0.052 C 
DOCKED: BRANCH  30  31
DOCKED: ATOM     31  C   UNL d   1       3.120  12.984  13.086 -0.07 +0.06    +0.115 C 
DOCKED: BRANCH  31  32
DOCKED: ATOM     32  C   UNL d   1       4.492  12.355  12.971 -0.04 +0.09    +0.139 C 
DOCKED: ATOM     33  O   UNL d   1       5.473  12.978  13.349 +0.01 -0.17    -0.650 OA
DOCKED: BRANCH  32  34
DOCKED: ATOM     34  O   UNL d   1       4.667  11.096  12.505 -0.28 -1.07    -0.776 OA
DOCKED: ATOM     35  H   UNL d   1       5.421  10.815  11.970 +0.01 +0.12    +0.167 HD
DOCKED: ENDBRANCH  32  34
DOCKED: ENDBRANCH  31  32
DOCKED: ENDBRANCH  30  31
DOCKED: ENDBRANCH   6  30
DOCKED: BRANCH  29  36
DOCKED: ATOM     36  C   UNL d   1      -2.124  10.190  14.393 -0.28 -0.06    +0.190 C 
DOCKED: BRANCH  36  37
DOCKED: ATOM     37  O   UNL d   1      -1.442   9.196  13.684 -0.30 +0.15    -0.399 OA
DOCKED: ATOM     38  H   UNL d   1      -1.473   9.493  12.732 -0.03 -0.23    +0.209 HD
DOCKED: ENDBRANCH  36  37
DOCKED: ENDBRANCH  29  36
DOCKED: BRANCH  22  39
DOCKED: ATOM     39  C   UNL d   1      -1.794  16.098  13.396 -0.11 +0.02    +0.052 C 
DOCKED: BRANCH  39  40
DOCKED: ATOM     40  C   UNL d   1      -1.304  15.674  12.001 -0.17 +0.03    +0.115 C 
DOCKED: BRANCH  40  41
DOCKED: ATOM     41  C   UNL d   1      -0.164  16.510  11.460 -0.11 +0.06    +0.139 C 
DOCKED: ATOM     42  O   UNL d   1       0.979  16.080  11.531 +0.04 -0.06    -0.650 OA
DOCKED: BRANCH  41  43
DOCKED: ATOM     43  O   UNL d   1      -0.382  17.680  10.820 -0.49 -0.92    -0.776 OA
DOCKED: ATOM     44  H   UNL d   1       0.337  18.224  10.472 +0.02 +0.13    +0.167 HD
DOCKED: ENDBRANCH  41  43
DOCKED: ENDBRANCH  40  41
DOCKED: ENDBRANCH  39  40
DOCKED: ENDBRANCH  22  39
DOCKED: BRANCH  12  45
DOCKED: ATOM     45  C   UNL d   1      -2.445   6.430  19.071 -0.21 -0.00    +0.004 C 
DOCKED: ATOM     46  C   UNL d   1      -2.549   5.126  18.826 -0.24 -0.01    +0.012 C 
DOCKED: ENDBRANCH  12  45
DOCKED: BRANCH  17  47
DOCKED: ATOM     47  C   UNL d   1      -7.587  11.305  15.775 -0.32 -0.00    +0.004 C 
DOCKED: ATOM     48  C   UNL d   1      -8.185  12.410  16.228 -0.24 -0.00    +0.012 C 
DOCKED: ENDBRANCH  17  47
DOCKED: TORSDOF 12
DOCKED: TER
DOCKED: ENDMDL
________________________________________________________________________________


	BEGINNING GENETIC ALGORITHM DOCKING 3 of 100
Run: 3 Seed: 1048761844 312285607 [ Run 3 of 100 GA/GALS ]
Beginning LAMARCKIAN GENETIC ALGORITHM (LGA), with a maximum of 25000000 energy evaluations.

Final-Value: -10.333


	FINAL GENETIC ALGORITHM DOCKED STATE
	_______________________________________________


Detailed state:  trans 10.332 -12.292 -4.443 quatxyzw 0.748658 0.420434 -0.496863 -0.125993 center 8.781 34.984 -0.736 ntor 12 49.3685 112.0484 -141.2933 52.5594 171.3446 111.2514 21.9111 124.4810 -177.8721 139.0517 180.0000 167.7025
State:	 10.332 -12.292  -4.443   0.755  0.424 -0.501 -165.524     49.37  112.05 -141.29   52.56  171.34  111.25   21.91  124.48 -177.87  139.05  180.00  167.70

DOCKED: MODEL        3
DOCKED: USER    Run = 3
DOCKED: USER    DPF = D:/Protein_go_brrr/autodock/final/AncMH_nat/heme_Co/dock.dpf
DOCKED: USER  
DOCKED: USER    Estimated Free Energy of Binding    =   -2.98 kcal/mol  [=(1)+(2)+(3)-(4)]
DOCKED: USER    Estimated Inhibition Constant, Ki   =    6.59 mM (millimolar)  [Temperature = 298.15 K]
DOCKED: USER    
DOCKED: USER    (1) Final Intermolecular Energy     =   -6.55 kcal/mol
DOCKED: USER        vdW + Hbond + desolv Energy     =   -6.88 kcal/mol
DOCKED: USER        Electrostatic Energy            =   +0.33 kcal/mol
DOCKED: USER    (2) Final Total Internal Energy     =   -3.78 kcal/mol
DOCKED: USER    (3) Torsional Free Energy           =   +3.58 kcal/mol
DOCKED: USER    (4) Unbound System's Energy  [=(2)] =   -3.78 kcal/mol
DOCKED: USER    
DOCKED: USER    
DOCKED: USER    NEWDPF move heme_Co_opt.pdbqt
DOCKED: USER    NEWDPF about 8.781000 34.984000 -0.736000
DOCKED: USER    NEWDPF tran0 10.332454 -12.291918 -4.443292
DOCKED: USER    NEWDPF quaternion0 0.748658 0.420434 -0.496863 -0.125993
DOCKED: USER    NEWDPF axisangle0 0.754672 0.423811 -0.500854 -165.523842
DOCKED: USER    NEWDPF quat0 0.754672 0.423811 -0.500854 -165.523842
DOCKED: USER    NEWDPF dihe0 49.37 112.05 -141.29 52.56 171.34 111.25 21.91 124.48 -177.87 139.05 180.00 167.70 
DOCKED: USER  keepresnum = 1 
DOCKED: USER  
DOCKED: REMARK  12 active torsions:
DOCKED: REMARK  status: ('A' for Active; 'I' for Inactive)
DOCKED: REMARK    1  A    between atoms: C_6  and  C_10 
DOCKED: REMARK    2  A    between atoms: C_10  and  C_11 
DOCKED: REMARK    3  A    between atoms: C_11  and  C_12 
DOCKED: REMARK    4  A    between atoms: C_12  and  O_14 
DOCKED: REMARK    5  A    between atoms: C_17  and  C_20 
DOCKED: REMARK    6  A    between atoms: C_24  and  C_27 
DOCKED: REMARK    7  A    between atoms: C_31  and  C_34 
DOCKED: REMARK    8  A    between atoms: C_34  and  C_35 
DOCKED: REMARK    9  A    between atoms: C_35  and  C_36 
DOCKED: REMARK   10  A    between atoms: C_36  and  O_38 
DOCKED: REMARK   11  A    between atoms: FE_43  and  C_44 
DOCKED: REMARK   12  A    between atoms: C_44  and  O_45 
DOCKED: USER                              x       y       z     vdW  Elec       q    Type
DOCKED: USER                           _______ _______ _______ _____ _____    ______ ____
DOCKED: ROOT
DOCKED: ATOM      1  C   UNL d   1      10.956 -13.059  -2.510 -0.09 -0.02    +0.064 A 
DOCKED: ATOM      2  C   UNL d   1       6.758 -13.054  -4.743 -0.11 +0.01    +0.064 C 
DOCKED: ATOM      3  C   UNL d   1       8.602 -10.431  -8.284 -0.22 -0.02    +0.064 A 
DOCKED: ATOM      4  C   UNL d   1      12.993 -10.748  -6.215 -0.24 -0.02    +0.064 A 
DOCKED: ATOM      5  C   UNL d   1       9.664 -13.220  -2.842 -0.21 -0.01    +0.066 A 
DOCKED: ATOM      6  C   UNL d   1       8.787 -14.009  -2.072 -0.17 +0.00    -0.021 A 
DOCKED: ATOM      7  C   UNL d   1       7.577 -14.023  -2.737 -0.17 -0.00    -0.025 A 
DOCKED: ATOM      8  C   UNL d   1       7.762 -13.229  -3.874 -0.21 +0.00    +0.066 A 
DOCKED: ATOM      9  C   UNL d   1       6.287 -14.751  -2.330 -0.14 +0.01    +0.051 C 
DOCKED: ATOM     10  C   UNL d   1       6.847 -12.234  -5.925 -0.22 +0.00    +0.066 A 
DOCKED: ATOM     11  C   UNL d   1       5.791 -11.898  -6.800 -0.26 -0.00    -0.021 A 
DOCKED: ATOM     12  C   UNL d   1       6.356 -11.129  -7.821 -0.25 -0.00    +0.000 A 
DOCKED: ATOM     13  C   UNL d   1       7.708 -11.043  -7.488 -0.22 -0.01    +0.070 A 
DOCKED: ATOM     14  C   UNL d   1       4.332 -12.219  -6.602 -0.36 -0.00    +0.052 C 
DOCKED: ATOM     15  C   UNL d   1      10.036 -10.294  -8.122 -0.25 -0.03    +0.066 A 
DOCKED: ATOM     16  C   UNL d   1      10.924  -9.775  -9.054 -0.24 +0.01    -0.021 A 
DOCKED: ATOM     17  C   UNL d   1      12.192  -9.867  -8.463 -0.25 -0.00    +0.000 A 
DOCKED: ATOM     18  C   UNL d   1      11.975 -10.421  -7.205 -0.26 -0.03    +0.070 A 
DOCKED: ATOM     19  C   UNL d   1      10.550  -9.236 -10.416 -0.11 -0.03    +0.052 C 
DOCKED: ATOM     20  C   UNL d   1      12.815 -11.365  -5.023 -0.25 -0.02    +0.066 A 
DOCKED: ATOM     21  C   UNL d   1      13.878 -11.659  -4.172 -0.19 +0.01    -0.025 A 
DOCKED: ATOM     22  C   UNL d   1      13.318 -12.300  -3.082 -0.17 +0.01    -0.021 A 
DOCKED: ATOM     23  C   UNL d   1      11.931 -12.376  -3.330 -0.19 -0.02    +0.066 A 
DOCKED: ATOM     24  C   UNL d   1      15.359 -11.362  -4.394 -0.15 -0.01    +0.051 C 
DOCKED: ATOM     25  N   UNL d   1       9.044 -12.713  -3.961 -0.08 +0.05    -0.248 N 
DOCKED: ATOM     26  N   UNL d   1       7.992 -11.664  -6.312 -0.10 +0.06    -0.248 N 
DOCKED: ATOM     27  N   UNL d   1      10.683 -10.690  -7.049 -0.13 +0.12    -0.248 N 
DOCKED: ATOM     28  N   UNL d   1      11.623 -11.814  -4.504 -0.14 +0.10    -0.248 N 
DOCKED: ATOM     29 FE   UNL d   1       9.915 -11.641  -5.595 -0.06 -0.00    +0.000 Fe
DOCKED: ENDROOT
DOCKED: BRANCH   6  30
DOCKED: ATOM     30  C   UNL d   1       9.133 -14.777  -0.801 -0.09 -0.01    +0.052 C 
DOCKED: BRANCH  30  31
DOCKED: ATOM     31  C   UNL d   1       9.462 -16.234  -1.126 -0.02 -0.01    +0.115 C 
DOCKED: BRANCH  31  32
DOCKED: ATOM     32  C   UNL d   1       9.366 -16.530  -2.608 -0.01 -0.01    +0.139 C 
DOCKED: ATOM     33  O   UNL d   1       8.435 -17.201  -3.027 +0.01 +0.05    -0.650 OA
DOCKED: BRANCH  32  34
DOCKED: ATOM     34  O   UNL d   1      10.257 -16.035  -3.498 +0.02 +0.09    -0.776 OA
DOCKED: ATOM     35  H   UNL d   1      11.215 -16.036  -3.366 +0.01 -0.02    +0.167 HD
DOCKED: ENDBRANCH  32  34
DOCKED: ENDBRANCH  31  32
DOCKED: ENDBRANCH  30  31
DOCKED: ENDBRANCH   6  30
DOCKED: BRANCH  29  36
DOCKED: ATOM     36  C   UNL d   1      10.267 -13.507  -6.484 -0.06 -0.04    +0.190 C 
DOCKED: BRANCH  36  37
DOCKED: ATOM     37  O   UNL d   1      10.718 -14.803  -6.214 -0.00 +0.06    -0.399 OA
DOCKED: ATOM     38  H   UNL d   1      10.962 -14.793  -5.246 +0.02 -0.03    +0.209 HD
DOCKED: ENDBRANCH  36  37
DOCKED: ENDBRANCH  29  36
DOCKED: BRANCH  22  39
DOCKED: ATOM     39  C   UNL d   1      14.087 -12.863  -1.901 -0.10 -0.01    +0.052 C 
DOCKED: BRANCH  39  40
DOCKED: ATOM     40  C   UNL d   1      14.466 -14.332  -2.152 -0.02 -0.02    +0.115 C 
DOCKED: BRANCH  40  41
DOCKED: ATOM     41  C   UNL d   1      13.335 -15.188  -2.681 -0.01 -0.02    +0.139 C 
DOCKED: ATOM     42  O   UNL d   1      12.690 -15.876  -1.902 +0.01 +0.08    -0.650 OA
DOCKED: BRANCH  41  43
DOCKED: ATOM     43  O   UNL d   1      12.959 -15.146  -3.979 +0.02 +0.11    -0.776 OA
DOCKED: ATOM     44  H   UNL d   1      12.033 -15.102  -4.251 +0.02 -0.02    +0.167 HD
DOCKED: ENDBRANCH  41  43
DOCKED: ENDBRANCH  40  41
DOCKED: ENDBRANCH  39  40
DOCKED: ENDBRANCH  22  39
DOCKED: BRANCH  12  45
DOCKED: ATOM     45  C   UNL d   1       5.774 -10.454  -9.056 -0.33 -0.00    +0.004 C 
DOCKED: ATOM     46  C   UNL d   1       4.666  -9.734  -9.208 -0.45 -0.00    +0.012 C 
DOCKED: ENDBRANCH  12  45
DOCKED: BRANCH  17  47
DOCKED: ATOM     47  C   UNL d   1      13.533  -9.520  -9.022 -0.15 -0.00    +0.004 C 
DOCKED: ATOM     48  C   UNL d   1      14.556  -9.097  -8.276 -0.34 -0.01    +0.012 C 
DOCKED: ENDBRANCH  17  47
DOCKED: TORSDOF 12
DOCKED: TER
DOCKED: ENDMDL
________________________________________________________________________________


	BEGINNING GENETIC ALGORITHM DOCKING 4 of 100
Run: 4 Seed: 2018995596 1967867077 [ Run 4 of 100 GA/GALS ]
Beginning LAMARCKIAN GENETIC ALGORITHM (LGA), with a maximum of 25000000 energy evaluations.

Final-Value: -8.551


	FINAL GENETIC ALGORITHM DOCKED STATE
	_______________________________________________


Detailed state:  trans 0.273 12.343 14.532 quatxyzw 0.128023 -0.240029 -0.271099 -0.923310 center 8.781 34.984 -0.736 ntor 12 -76.1280 118.1914 -83.4142 -7.0887 137.5595 119.1392 55.6674 -85.6175 -95.8817 49.9569 179.5460 135.0587
State:	  0.273  12.343  14.532   0.333 -0.625 -0.706 -45.170    -76.13  118.19  -83.41   -7.09  137.56  119.14   55.67  -85.62  -95.88   49.96  179.55  135.06

DOCKED: MODEL        4
DOCKED: USER    Run = 4
DOCKED: USER    DPF = D:/Protein_go_brrr/autodock/final/AncMH_nat/heme_Co/dock.dpf
DOCKED: USER  
DOCKED: USER    Estimated Free Energy of Binding    =   -2.73 kcal/mol  [=(1)+(2)+(3)-(4)]
DOCKED: USER    Estimated Inhibition Constant, Ki   =    9.97 mM (millimolar)  [Temperature = 298.15 K]
DOCKED: USER    
DOCKED: USER    (1) Final Intermolecular Energy     =   -6.31 kcal/mol
DOCKED: USER        vdW + Hbond + desolv Energy     =   -4.27 kcal/mol
DOCKED: USER        Electrostatic Energy            =   -2.04 kcal/mol
DOCKED: USER    (2) Final Total Internal Energy     =   -2.24 kcal/mol
DOCKED: USER    (3) Torsional Free Energy           =   +3.58 kcal/mol
DOCKED: USER    (4) Unbound System's Energy  [=(2)] =   -2.24 kcal/mol
DOCKED: USER    
DOCKED: USER    
DOCKED: USER    NEWDPF move heme_Co_opt.pdbqt
DOCKED: USER    NEWDPF about 8.781000 34.984000 -0.736000
DOCKED: USER    NEWDPF tran0 0.272661 12.343040 14.531750
DOCKED: USER    NEWDPF quaternion0 0.128023 -0.240029 -0.271099 -0.923310
DOCKED: USER    NEWDPF axisangle0 0.333345 -0.624985 -0.705885 -45.170233
DOCKED: USER    NEWDPF quat0 0.333345 -0.624985 -0.705885 -45.170233
DOCKED: USER    NEWDPF dihe0 -76.13 118.19 -83.41 -7.09 137.56 119.14 55.67 -85.62 -95.88 49.96 179.55 135.06 
DOCKED: USER  keepresnum = 1 
DOCKED: USER  
DOCKED: REMARK  12 active torsions:
DOCKED: REMARK  status: ('A' for Active; 'I' for Inactive)
DOCKED: REMARK    1  A    between atoms: C_6  and  C_10 
DOCKED: REMARK    2  A    between atoms: C_10  and  C_11 
DOCKED: REMARK    3  A    between atoms: C_11  and  C_12 
DOCKED: REMARK    4  A    between atoms: C_12  and  O_14 
DOCKED: REMARK    5  A    between atoms: C_17  and  C_20 
DOCKED: REMARK    6  A    between atoms: C_24  and  C_27 
DOCKED: REMARK    7  A    between atoms: C_31  and  C_34 
DOCKED: REMARK    8  A    between atoms: C_34  and  C_35 
DOCKED: REMARK    9  A    between atoms: C_35  and  C_36 
DOCKED: REMARK   10  A    between atoms: C_36  and  O_38 
DOCKED: REMARK   11  A    between atoms: FE_43  and  C_44 
DOCKED: REMARK   12  A    between atoms: C_44  and  O_45 
DOCKED: USER                              x       y       z     vdW  Elec       q    Type
DOCKED: USER                           _______ _______ _______ _____ _____    ______ ____
DOCKED: ROOT
DOCKED: ATOM      1  C   UNL d   1      -0.500  13.930  13.267 -0.00 -0.03    +0.064 A 
DOCKED: ATOM      2  C   UNL d   1      -2.654  10.644  15.945 -0.18 -0.02    +0.064 C 
DOCKED: ATOM      3  C   UNL d   1       1.568   8.650  16.961 -0.11 +0.01    +0.064 A 
DOCKED: ATOM      4  C   UNL d   1       3.821  12.223  14.547 -0.02 +0.04    +0.064 A 
DOCKED: ATOM      5  C   UNL d   1      -1.402  13.157  13.895 -0.13 -0.03    +0.066 A 
DOCKED: ATOM      6  C   UNL d   1      -2.777  13.463  13.895 -0.21 +0.00    -0.021 A 
DOCKED: ATOM      7  C   UNL d   1      -3.394  12.519  14.693 -0.19 +0.00    -0.025 A 
DOCKED: ATOM      8  C   UNL d   1      -2.373  11.669  15.131 -0.15 -0.01    +0.066 A 
DOCKED: ATOM      9  C   UNL d   1      -4.887  12.409  15.039 -0.25 -0.01    +0.051 C 
DOCKED: ATOM     10  C   UNL d   1      -1.674   9.702  16.425 -0.14 -0.01    +0.066 A 
DOCKED: ATOM     11  C   UNL d   1      -1.926   8.527  17.166 -0.21 +0.01    -0.021 A 
DOCKED: ATOM     12  C   UNL d   1      -0.678   7.963  17.445 -0.19 -0.00    +0.000 A 
DOCKED: ATOM     13  C   UNL d   1       0.239   8.826  16.845 -0.13 +0.00    +0.070 A 
DOCKED: ATOM     14  C   UNL d   1      -3.279   7.950  17.491 -0.19 -0.05    +0.052 C 
DOCKED: ATOM     15  C   UNL d   1       2.651   9.468  16.453 -0.08 +0.03    +0.066 A 
DOCKED: ATOM     16  C   UNL d   1       4.002   9.310  16.731 -0.05 -0.01    -0.021 A 
DOCKED: ATOM     17  C   UNL d   1       4.656  10.340  16.039 -0.04 +0.00    +0.000 A 
DOCKED: ATOM     18  C   UNL d   1       3.650  11.037  15.378 +0.02 +0.05    +0.070 A 
DOCKED: ATOM     19  C   UNL d   1       4.596   8.231  17.609 -0.03 +0.00    +0.052 C 
DOCKED: ATOM     20  C   UNL d   1       2.851  12.968  13.965 -0.06 +0.03    +0.066 A 
DOCKED: ATOM     21  C   UNL d   1       3.137  14.109  13.219 -0.04 -0.00    -0.025 A 
DOCKED: ATOM     22  C   UNL d   1       1.912  14.606  12.812 -0.06 +0.00    -0.021 A 
DOCKED: ATOM     23  C   UNL d   1       0.931  13.744  13.345 -0.09 -0.01    +0.066 A 
DOCKED: ATOM     24  C   UNL d   1       4.509  14.708  12.923 -0.00 +0.01    +0.051 C 
DOCKED: ATOM     25  N   UNL d   1      -1.129  12.037  14.647 -0.10 +0.05    -0.248 N 
DOCKED: ATOM     26  N   UNL d   1      -0.367   9.846  16.182 -0.06 -0.01    -0.248 N 
DOCKED: ATOM     27  N   UNL d   1       2.467  10.509  15.671 -0.05 -0.21    -0.248 N 
DOCKED: ATOM     28  N   UNL d   1       1.495  12.752  14.046 -0.07 -0.09    -0.248 N 
DOCKED: ATOM     29 FE   UNL d   1       0.777  11.230  15.187 -0.03 +0.00    +0.000 Fe
DOCKED: ENDROOT
DOCKED: BRANCH   6  30
DOCKED: ATOM     30  C   UNL d   1      -3.443  14.659  13.223 -0.31 +0.00    +0.052 C 
DOCKED: BRANCH  30  31
DOCKED: ATOM     31  C   UNL d   1      -3.643  15.795  14.226 -0.10 +0.03    +0.115 C 
DOCKED: BRANCH  31  32
DOCKED: ATOM     32  C   UNL d   1      -2.394  16.628  14.411 -0.09 +0.05    +0.139 C 
DOCKED: ATOM     33  O   UNL d   1      -1.456  16.173  15.049 +0.02 -0.09    -0.650 OA
DOCKED: BRANCH  32  34
DOCKED: ATOM     34  O   UNL d   1      -2.257  17.852  13.849 +0.05 -0.64    -0.776 OA
DOCKED: ATOM     35  H   UNL d   1      -2.010  18.003  12.927 +0.06 +0.28    +0.167 HD
DOCKED: ENDBRANCH  32  34
DOCKED: ENDBRANCH  31  32
DOCKED: ENDBRANCH  30  31
DOCKED: ENDBRANCH   6  30
DOCKED: BRANCH  29  36
DOCKED: ATOM     36  C   UNL d   1       0.709  12.488  16.863 +0.00 +0.01    +0.190 C 
DOCKED: BRANCH  36  37
DOCKED: ATOM     37  O   UNL d   1       0.284  13.749  17.293 +0.01 -0.00    -0.399 OA
DOCKED: ATOM     38  H   UNL d   1      -0.201  14.137  16.511 +0.01 -0.00    +0.209 HD
DOCKED: ENDBRANCH  36  37
DOCKED: ENDBRANCH  29  36
DOCKED: BRANCH  22  39
DOCKED: ATOM     39  C   UNL d   1       1.701  15.877  12.011 -0.04 +0.00    +0.052 C 
DOCKED: BRANCH  39  40
DOCKED: ATOM     40  C   UNL d   1       0.761  16.838  12.757 -0.03 +0.03    +0.115 C 
DOCKED: BRANCH  40  41
DOCKED: ATOM     41  C   UNL d   1      -0.300  17.477  11.885 -0.02 +0.12    +0.139 C 
DOCKED: ATOM     42  O   UNL d   1      -1.014  16.765  11.193 -0.49 -0.74    -0.650 OA
DOCKED: BRANCH  41  43
DOCKED: ATOM     43  O   UNL d   1      -0.539  18.807  11.916 -0.10 -1.05    -0.776 OA
DOCKED: ATOM     44  H   UNL d   1      -1.038  19.228  12.628 +0.00 +0.22    +0.167 HD
DOCKED: ENDBRANCH  41  43
DOCKED: ENDBRANCH  40  41
DOCKED: ENDBRANCH  39  40
DOCKED: ENDBRANCH  22  39
DOCKED: BRANCH  12  45
DOCKED: ATOM     45  C   UNL d   1      -0.249   6.705  18.189 -0.19 -0.00    +0.004 C 
DOCKED: ATOM     46  C   UNL d   1      -0.927   5.919  19.022 -0.18 -0.00    +0.012 C 
DOCKED: ENDBRANCH  12  45
DOCKED: BRANCH  17  47
DOCKED: ATOM     47  C   UNL d   1       6.104  10.705  16.017 -0.01 +0.00    +0.004 C 
DOCKED: ATOM     48  C   UNL d   1       6.863  10.641  14.920 -0.02 +0.00    +0.012 C 
DOCKED: ENDBRANCH  17  47
DOCKED: TORSDOF 12
DOCKED: TER
DOCKED: ENDMDL
________________________________________________________________________________


	BEGINNING GENETIC ALGORITHM DOCKING 5 of 100
Run: 5 Seed: 1217562268 1784267715 [ Run 5 of 100 GA/GALS ]
Beginning LAMARCKIAN GENETIC ALGORITHM (LGA), with a maximum of 25000000 energy evaluations.

Final-Value: -9.611


	FINAL GENETIC ALGORITHM DOCKED STATE
	_______________________________________________


Detailed state:  trans -11.895 -8.857 18.789 quatxyzw -0.604726 -0.041354 -0.150354 0.781018 center 8.781 34.984 -0.736 ntor 12 161.8525 112.7186 134.6206 74.8216 155.6751 146.5191 -128.0384 149.0569 -136.8897 173.8944 -176.5159 -6.0920
State:	-11.895  -8.857  18.789  -0.968 -0.066 -0.241 77.292    161.85  112.72  134.62   74.82  155.68  146.52 -128.04  149.06 -136.89  173.89 -176.52   -6.09

DOCKED: MODEL        5
DOCKED: USER    Run = 5
DOCKED: USER    DPF = D:/Protein_go_brrr/autodock/final/AncMH_nat/heme_Co/dock.dpf
DOCKED: USER  
DOCKED: USER    Estimated Free Energy of Binding    =   -3.82 kcal/mol  [=(1)+(2)+(3)-(4)]
DOCKED: USER    Estimated Inhibition Constant, Ki   =    1.59 mM (millimolar)  [Temperature = 298.15 K]
DOCKED: USER    
DOCKED: USER    (1) Final Intermolecular Energy     =   -7.40 kcal/mol
DOCKED: USER        vdW + Hbond + desolv Energy     =   -6.46 kcal/mol
DOCKED: USER        Electrostatic Energy            =   -0.94 kcal/mol
DOCKED: USER    (2) Final Total Internal Energy     =   -2.21 kcal/mol
DOCKED: USER    (3) Torsional Free Energy           =   +3.58 kcal/mol
DOCKED: USER    (4) Unbound System's Energy  [=(2)] =   -2.21 kcal/mol
DOCKED: USER    
DOCKED: USER    
DOCKED: USER    NEWDPF move heme_Co_opt.pdbqt
DOCKED: USER    NEWDPF about 8.781000 34.984000 -0.736000
DOCKED: USER    NEWDPF tran0 -11.895259 -8.857108 18.788825
DOCKED: USER    NEWDPF quaternion0 -0.604726 -0.041354 -0.150354 0.781018
DOCKED: USER    NEWDPF axisangle0 -0.968324 -0.066218 -0.240755 77.292172
DOCKED: USER    NEWDPF quat0 -0.968324 -0.066218 -0.240755 77.292172
DOCKED: USER    NEWDPF dihe0 161.85 112.72 134.62 74.82 155.68 146.52 -128.04 149.06 -136.89 173.89 -176.52 -6.09 
DOCKED: USER  keepresnum = 1 
DOCKED: USER  
DOCKED: REMARK  12 active torsions:
DOCKED: REMARK  status: ('A' for Active; 'I' for Inactive)
DOCKED: REMARK    1  A    between atoms: C_6  and  C_10 
DOCKED: REMARK    2  A    between atoms: C_10  and  C_11 
DOCKED: REMARK    3  A    between atoms: C_11  and  C_12 
DOCKED: REMARK    4  A    between atoms: C_12  and  O_14 
DOCKED: REMARK    5  A    between atoms: C_17  and  C_20 
DOCKED: REMARK    6  A    between atoms: C_24  and  C_27 
DOCKED: REMARK    7  A    between atoms: C_31  and  C_34 
DOCKED: REMARK    8  A    between atoms: C_34  and  C_35 
DOCKED: REMARK    9  A    between atoms: C_35  and  C_36 
DOCKED: REMARK   10  A    between atoms: C_36  and  O_38 
DOCKED: REMARK   11  A    between atoms: FE_43  and  C_44 
DOCKED: REMARK   12  A    between atoms: C_44  and  O_45 
DOCKED: USER                              x       y       z     vdW  Elec       q    Type
DOCKED: USER                           _______ _______ _______ _____ _____    ______ ____
DOCKED: ROOT
DOCKED: ATOM      1  C   UNL d   1     -14.038  -8.505  18.814 -0.13 +0.04    +0.064 A 
DOCKED: ATOM      2  C   UNL d   1     -11.428 -12.222  17.406 -0.15 +0.00    +0.064 C 
DOCKED: ATOM      3  C   UNL d   1      -7.415  -9.762  18.225 -0.21 +0.00    +0.064 A 
DOCKED: ATOM      4  C   UNL d   1     -10.048  -6.092  20.031 -0.13 +0.00    +0.064 A 
DOCKED: ATOM      5  C   UNL d   1     -13.620  -9.688  18.335 -0.15 +0.03    +0.066 A 
DOCKED: ATOM      6  C   UNL d   1     -14.517 -10.732  18.037 -0.09 -0.01    -0.021 A 
DOCKED: ATOM      7  C   UNL d   1     -13.753 -11.816  17.650 -0.18 -0.00    -0.025 A 
DOCKED: ATOM      8  C   UNL d   1     -12.425 -11.382  17.714 -0.17 +0.01    +0.066 A 
DOCKED: ATOM      9  C   UNL d   1     -14.240 -13.212  17.236 -0.23 -0.02    +0.051 C 
DOCKED: ATOM     10  C   UNL d   1     -10.033 -11.857  17.417 -0.16 +0.02    +0.066 A 
DOCKED: ATOM     11  C   UNL d   1      -8.951 -12.648  16.972 -0.20 -0.01    -0.021 A 
DOCKED: ATOM     12  C   UNL d   1      -7.794 -11.904  17.218 -0.20 +0.00    +0.000 A 
DOCKED: ATOM     13  C   UNL d   1      -8.254 -10.715  17.783 -0.16 +0.01    +0.070 A 
DOCKED: ATOM     14  C   UNL d   1      -9.048 -13.979  16.272 -0.33 +0.02    +0.052 C 
DOCKED: ATOM     15  C   UNL d   1      -7.714  -8.502  18.877 -0.21 -0.00    +0.066 A 
DOCKED: ATOM     16  C   UNL d   1      -6.796  -7.628  19.441 -0.25 +0.00    -0.021 A 
DOCKED: ATOM     17  C   UNL d   1      -7.551  -6.569  19.965 -0.22 -0.00    +0.000 A 
DOCKED: ATOM     18  C   UNL d   1      -8.874  -6.874  19.664 -0.17 -0.00    +0.070 A 
DOCKED: ATOM     19  C   UNL d   1      -5.296  -7.825  19.461 -0.24 -0.01    +0.052 C 
DOCKED: ATOM     20  C   UNL d   1     -11.348  -6.411  19.825 -0.10 +0.01    +0.066 A 
DOCKED: ATOM     21  C   UNL d   1     -12.391  -5.594  20.256 -0.09 -0.00    -0.025 A 
DOCKED: ATOM     22  C   UNL d   1     -13.553  -6.250  19.893 -0.08 -0.01    -0.021 A 
DOCKED: ATOM     23  C   UNL d   1     -13.158  -7.450  19.264 -0.11 +0.03    +0.066 A 
DOCKED: ATOM     24  C   UNL d   1     -12.287  -4.263  20.996 -0.09 +0.00    +0.051 C 
DOCKED: ATOM     25  N   UNL d   1     -12.313 -10.066  18.129 -0.09 -0.06    -0.248 N 
DOCKED: ATOM     26  N   UNL d   1      -9.611 -10.665  17.851 -0.06 -0.05    -0.248 N 
DOCKED: ATOM     27  N   UNL d   1      -8.936  -8.047  19.043 -0.09 -0.01    -0.248 N 
DOCKED: ATOM     28  N   UNL d   1     -11.825  -7.552  19.223 -0.05 -0.06    -0.248 N 
DOCKED: ATOM     29 FE   UNL d   1     -10.526  -8.993  18.614 -0.03 +0.00    +0.000 Fe
DOCKED: ENDROOT
DOCKED: BRANCH   6  30
DOCKED: ATOM     30  C   UNL d   1     -16.034 -10.703  18.199 -0.13 +0.02    +0.052 C 
DOCKED: BRANCH  30  31
DOCKED: ATOM     31  C   UNL d   1     -16.437 -11.239  19.572 -0.05 +0.02    +0.115 C 
DOCKED: BRANCH  31  32
DOCKED: ATOM     32  C   UNL d   1     -15.523 -10.750  20.674 -0.02 +0.02    +0.139 C 
DOCKED: ATOM     33  O   UNL d   1     -15.896  -9.846  21.408 +0.01 -0.12    -0.650 OA
DOCKED: BRANCH  32  34
DOCKED: ATOM     34  O   UNL d   1     -14.316 -11.315  20.909 +0.03 -0.06    -0.776 OA
DOCKED: ATOM     35  H   UNL d   1     -13.588 -10.872  21.366 +0.01 +0.01    +0.167 HD
DOCKED: ENDBRANCH  32  34
DOCKED: ENDBRANCH  31  32
DOCKED: ENDBRANCH  30  31
DOCKED: ENDBRANCH   6  30
DOCKED: BRANCH  29  36
DOCKED: ATOM     36  C   UNL d   1     -10.622  -9.909  20.497 -0.01 +0.01    +0.190 C 
DOCKED: BRANCH  36  37
DOCKED: ATOM     37  O   UNL d   1     -11.437 -10.703  21.310 +0.00 -0.01    -0.399 OA
DOCKED: ATOM     38  H   UNL d   1     -12.258 -10.867  20.767 +0.01 +0.01    +0.209 HD
DOCKED: ENDBRANCH  36  37
DOCKED: ENDBRANCH  29  36
DOCKED: BRANCH  22  39
DOCKED: ATOM     39  C   UNL d   1     -14.962  -5.776  20.196 -0.06 +0.02    +0.052 C 
DOCKED: BRANCH  39  40
DOCKED: ATOM     40  C   UNL d   1     -15.539  -4.994  19.004 -0.09 +0.09    +0.115 C 
DOCKED: BRANCH  40  41
DOCKED: ATOM     41  C   UNL d   1     -14.522  -4.631  17.943 -0.20 +0.10    +0.139 C 
DOCKED: ATOM     42  O   UNL d   1     -13.703  -3.752  18.175 -0.06 -0.19    -0.650 OA
DOCKED: BRANCH  41  43
DOCKED: ATOM     43  O   UNL d   1     -14.437  -5.311  16.779 +0.02 -0.90    -0.776 OA
DOCKED: ATOM     44  H   UNL d   1     -14.265  -4.875  15.934 -0.48 +0.09    +0.167 HD
DOCKED: ENDBRANCH  41  43
DOCKED: ENDBRANCH  40  41
DOCKED: ENDBRANCH  39  40
DOCKED: ENDBRANCH  22  39
DOCKED: BRANCH  12  45
DOCKED: ATOM     45  C   UNL d   1      -6.315 -12.172  16.970 -0.25 +0.00    +0.004 C 
DOCKED: ATOM     46  C   UNL d   1      -5.637 -12.299  15.832 -0.37 +0.00    +0.012 C 
DOCKED: ENDBRANCH  12  45
DOCKED: BRANCH  17  47
DOCKED: ATOM     47  C   UNL d   1      -7.106  -5.373  20.741 -0.20 -0.00    +0.004 C 
DOCKED: ATOM     48  C   UNL d   1      -7.526  -4.131  20.486 -0.23 -0.00    +0.012 C 
DOCKED: ENDBRANCH  17  47
DOCKED: TORSDOF 12
DOCKED: TER
DOCKED: ENDMDL
________________________________________________________________________________


	BEGINNING GENETIC ALGORITHM DOCKING 6 of 100
Run: 6 Seed: 570709756 565660552 [ Run 6 of 100 GA/GALS ]
Beginning LAMARCKIAN GENETIC ALGORITHM (LGA), with a maximum of 25000000 energy evaluations.

Final-Value: -11.792


	FINAL GENETIC ALGORITHM DOCKED STATE
	_______________________________________________


Detailed state:  trans -15.131 -1.132 -1.660 quatxyzw 0.411809 -0.217698 -0.284198 0.838005 center 8.781 34.984 -0.736 ntor 12 -146.0147 113.2664 -133.8620 73.2647 114.9664 119.5378 24.8149 127.5447 176.8317 124.3222 180.0000 11.8252
State:	-15.131  -1.132  -1.660   0.755 -0.399 -0.521 66.140   -146.01  113.27 -133.86   73.26  114.97  119.54   24.81  127.54  176.83  124.32  180.00   11.83

DOCKED: MODEL        6
DOCKED: USER    Run = 6
DOCKED: USER    DPF = D:/Protein_go_brrr/autodock/final/AncMH_nat/heme_Co/dock.dpf
DOCKED: USER  
DOCKED: USER    Estimated Free Energy of Binding    =   -6.05 kcal/mol  [=(1)+(2)+(3)-(4)]
DOCKED: USER    Estimated Inhibition Constant, Ki   =   36.85 uM (micromolar)  [Temperature = 298.15 K]
DOCKED: USER    
DOCKED: USER    (1) Final Intermolecular Energy     =   -9.63 kcal/mol
DOCKED: USER        vdW + Hbond + desolv Energy     =   -6.66 kcal/mol
DOCKED: USER        Electrostatic Energy            =   -2.97 kcal/mol
DOCKED: USER    (2) Final Total Internal Energy     =   -2.16 kcal/mol
DOCKED: USER    (3) Torsional Free Energy           =   +3.58 kcal/mol
DOCKED: USER    (4) Unbound System's Energy  [=(2)] =   -2.16 kcal/mol
DOCKED: USER    
DOCKED: USER    
DOCKED: USER    NEWDPF move heme_Co_opt.pdbqt
DOCKED: USER    NEWDPF about 8.781000 34.984000 -0.736000
DOCKED: USER    NEWDPF tran0 -15.130750 -1.131918 -1.660150
DOCKED: USER    NEWDPF quaternion0 0.411809 -0.217698 -0.284198 0.838005
DOCKED: USER    NEWDPF axisangle0 0.754695 -0.398961 -0.520831 66.139961
DOCKED: USER    NEWDPF quat0 0.754695 -0.398961 -0.520831 66.139961
DOCKED: USER    NEWDPF dihe0 -146.01 113.27 -133.86 73.26 114.97 119.54 24.81 127.54 176.83 124.32 180.00 11.83 
DOCKED: USER  keepresnum = 1 
DOCKED: USER  
DOCKED: REMARK  12 active torsions:
DOCKED: REMARK  status: ('A' for Active; 'I' for Inactive)
DOCKED: REMARK    1  A    between atoms: C_6  and  C_10 
DOCKED: REMARK    2  A    between atoms: C_10  and  C_11 
DOCKED: REMARK    3  A    between atoms: C_11  and  C_12 
DOCKED: REMARK    4  A    between atoms: C_12  and  O_14 
DOCKED: REMARK    5  A    between atoms: C_17  and  C_20 
DOCKED: REMARK    6  A    between atoms: C_24  and  C_27 
DOCKED: REMARK    7  A    between atoms: C_31  and  C_34 
DOCKED: REMARK    8  A    between atoms: C_34  and  C_35 
DOCKED: REMARK    9  A    between atoms: C_35  and  C_36 
DOCKED: REMARK   10  A    between atoms: C_36  and  O_38 
DOCKED: REMARK   11  A    between atoms: FE_43  and  C_44 
DOCKED: REMARK   12  A    between atoms: C_44  and  O_45 
DOCKED: USER                              x       y       z     vdW  Elec       q    Type
DOCKED: USER                           _______ _______ _______ _____ _____    ______ ____
DOCKED: ROOT
DOCKED: ATOM      1  C   UNL d   1     -17.008  -2.149  -1.265 -0.08 +0.07    +0.064 A 
DOCKED: ATOM      2  C   UNL d   1     -13.839  -0.063   1.602 -0.18 +0.09    +0.064 C 
DOCKED: ATOM      3  C   UNL d   1     -10.937   0.718  -2.112 -0.23 +0.02    +0.064 A 
DOCKED: ATOM      4  C   UNL d   1     -14.325  -1.061  -5.117 -0.07 +0.02    +0.064 A 
DOCKED: ATOM      5  C   UNL d   1     -16.339  -1.669  -0.203 -0.09 +0.08    +0.066 A 
DOCKED: ATOM      6  C   UNL d   1     -16.902  -1.650   1.088 -0.11 -0.02    -0.021 A 
DOCKED: ATOM      7  C   UNL d   1     -15.988  -1.023   1.911 -0.15 -0.03    -0.025 A 
DOCKED: ATOM      8  C   UNL d   1     -14.900  -0.702   1.092 -0.15 +0.10    +0.066 A 
DOCKED: ATOM      9  C   UNL d   1     -16.118  -0.730   3.414 -0.11 +0.05    +0.051 C 
DOCKED: ATOM     10  C   UNL d   1     -12.665   0.285   0.842 -0.22 +0.08    +0.066 A 
DOCKED: ATOM     11  C   UNL d   1     -11.463   0.827   1.348 -0.29 -0.01    -0.021 A 
DOCKED: ATOM     12  C   UNL d   1     -10.633   1.042   0.244 -0.32 +0.00    +0.000 A 
DOCKED: ATOM     13  C   UNL d   1     -11.382   0.603  -0.849 -0.24 +0.04    +0.070 A 
DOCKED: ATOM     14  C   UNL d   1     -11.117   1.029   2.801 -0.36 +0.03    +0.052 C 
DOCKED: ATOM     15  C   UNL d   1     -11.596   0.367  -3.355 -0.23 +0.02    +0.066 A 
DOCKED: ATOM     16  C   UNL d   1     -11.140   0.645  -4.636 -0.27 -0.00    -0.021 A 
DOCKED: ATOM     17  C   UNL d   1     -12.115   0.136  -5.506 -0.15 +0.00    +0.000 A 
DOCKED: ATOM     18  C   UNL d   1     -13.084  -0.429  -4.684 -0.11 +0.02    +0.070 A 
DOCKED: ATOM     19  C   UNL d   1      -9.848   1.356  -4.971 -0.27 -0.02    +0.052 C 
DOCKED: ATOM     20  C   UNL d   1     -15.322  -1.540  -4.335 -0.09 +0.04    +0.066 A 
DOCKED: ATOM     21  C   UNL d   1     -16.484  -2.093  -4.869 -0.05 -0.01    -0.025 A 
DOCKED: ATOM     22  C   UNL d   1     -17.264  -2.442  -3.781 -0.07 -0.01    -0.021 A 
DOCKED: ATOM     23  C   UNL d   1     -16.538  -2.071  -2.629 -0.09 +0.06    +0.066 A 
DOCKED: ATOM     24  C   UNL d   1     -16.843  -2.262  -6.342 -0.01 +0.01    +0.051 C 
DOCKED: ATOM     25  N   UNL d   1     -15.089  -1.096  -0.222 -0.12 -0.34    -0.248 N 
DOCKED: ATOM     26  N   UNL d   1     -12.588   0.094  -0.479 -0.14 -0.25    -0.248 N 
DOCKED: ATOM     27  N   UNL d   1     -12.757  -0.246  -3.410 -0.11 -0.12    -0.248 N 
DOCKED: ATOM     28  N   UNL d   1     -15.363  -1.522  -2.960 -0.10 -0.22    -0.248 N 
DOCKED: ATOM     29 FE   UNL d   1     -13.856  -0.648  -1.913 -0.05 +0.00    +0.000 Fe
DOCKED: ENDROOT
DOCKED: BRANCH   6  30
DOCKED: ATOM     30  C   UNL d   1     -18.291  -2.141   1.482 -0.04 +0.04    +0.052 C 
DOCKED: BRANCH  30  31
DOCKED: ATOM     31  C   UNL d   1     -19.285  -0.980   1.505 -0.03 +0.10    +0.115 C 
DOCKED: BRANCH  31  32
DOCKED: ATOM     32  C   UNL d   1     -18.618   0.355   1.255 -0.10 +0.18    +0.139 C 
DOCKED: ATOM     33  O   UNL d   1     -18.439   1.122   2.189 -0.32 -1.30    -0.650 OA
DOCKED: BRANCH  32  34
DOCKED: ATOM     34  O   UNL d   1     -18.166   0.714   0.031 -0.04 -1.01    -0.776 OA
DOCKED: ATOM     35  H   UNL d   1     -17.415   1.304  -0.120 +0.02 +0.33    +0.167 HD
DOCKED: ENDBRANCH  32  34
DOCKED: ENDBRANCH  31  32
DOCKED: ENDBRANCH  30  31
DOCKED: ENDBRANCH   6  30
DOCKED: BRANCH  29  36
DOCKED: ATOM     36  C   UNL d   1     -14.839   1.202  -1.997 -0.04 +0.25    +0.190 C 
DOCKED: BRANCH  36  37
DOCKED: ATOM     37  O   UNL d   1     -16.079   1.815  -1.791 +0.03 -0.66    -0.399 OA
DOCKED: ATOM     38  H   UNL d   1     -16.685   1.078  -1.499 +0.02 +0.30    +0.209 HD
DOCKED: ENDBRANCH  36  37
DOCKED: ENDBRANCH  29  36
DOCKED: BRANCH  22  39
DOCKED: ATOM     39  C   UNL d   1     -18.657  -3.039  -3.854 -0.03 +0.02    +0.052 C 
DOCKED: BRANCH  39  40
DOCKED: ATOM     40  C   UNL d   1     -18.656  -4.483  -3.325 -0.05 +0.07    +0.115 C 
DOCKED: BRANCH  40  41
DOCKED: ATOM     41  C   UNL d   1     -17.773  -5.434  -4.105 -0.03 +0.10    +0.139 C 
DOCKED: ATOM     42  O   UNL d   1     -18.262  -6.104  -5.003 +0.01 -0.26    -0.650 OA
DOCKED: BRANCH  41  43
DOCKED: ATOM     43  O   UNL d   1     -16.440  -5.499  -3.894 -0.51 -0.96    -0.776 OA
DOCKED: ATOM     44  H   UNL d   1     -15.796  -5.420  -4.610 +0.02 +0.15    +0.167 HD
DOCKED: ENDBRANCH  41  43
DOCKED: ENDBRANCH  40  41
DOCKED: ENDBRANCH  39  40
DOCKED: ENDBRANCH  22  39
DOCKED: BRANCH  12  45
DOCKED: ATOM     45  C   UNL d   1      -9.220   1.589   0.098 -0.41 +0.00    +0.004 C 
DOCKED: ATOM     46  C   UNL d   1      -8.057   1.110   0.531 -0.49 +0.00    +0.012 C 
DOCKED: ENDBRANCH  12  45
DOCKED: BRANCH  17  47
DOCKED: ATOM     47  C   UNL d   1     -12.191   0.202  -6.996 -0.11 -0.00    +0.004 C 
DOCKED: ATOM     48  C   UNL d   1     -11.726  -0.756  -7.801 -0.12 -0.00    +0.012 C 
DOCKED: ENDBRANCH  17  47
DOCKED: TORSDOF 12
DOCKED: TER
DOCKED: ENDMDL
________________________________________________________________________________


	BEGINNING GENETIC ALGORITHM DOCKING 7 of 100
Run: 7 Seed: 11182842 1775600841 [ Run 7 of 100 GA/GALS ]
Beginning LAMARCKIAN GENETIC ALGORITHM (LGA), with a maximum of 25000000 energy evaluations.

Final-Value: -9.838


	FINAL GENETIC ALGORITHM DOCKED STATE
	_______________________________________________


Detailed state:  trans -19.329 10.277 6.764 quatxyzw 0.442542 0.201942 -0.556701 0.673395 center 8.781 34.984 -0.736 ntor 12 -170.2541 123.6140 27.1844 116.2419 -95.1239 131.7448 40.5566 -120.0385 175.4957 -4.3895 -164.5434 123.9483
State:	-19.329  10.277   6.764   0.599  0.273 -0.753 95.341   -170.25  123.61   27.18  116.24  -95.12  131.74   40.56 -120.04  175.50   -4.39 -164.54  123.95

DOCKED: MODEL        7
DOCKED: USER    Run = 7
DOCKED: USER    DPF = D:/Protein_go_brrr/autodock/final/AncMH_nat/heme_Co/dock.dpf
DOCKED: USER  
DOCKED: USER    Estimated Free Energy of Binding    =   -4.11 kcal/mol  [=(1)+(2)+(3)-(4)]
DOCKED: USER    Estimated Inhibition Constant, Ki   =  975.45 uM (micromolar)  [Temperature = 298.15 K]
DOCKED: USER    
DOCKED: USER    (1) Final Intermolecular Energy     =   -7.69 kcal/mol
DOCKED: USER        vdW + Hbond + desolv Energy     =   -5.45 kcal/mol
DOCKED: USER        Electrostatic Energy            =   -2.24 kcal/mol
DOCKED: USER    (2) Final Total Internal Energy     =   -2.15 kcal/mol
DOCKED: USER    (3) Torsional Free Energy           =   +3.58 kcal/mol
DOCKED: USER    (4) Unbound System's Energy  [=(2)] =   -2.15 kcal/mol
DOCKED: USER    
DOCKED: USER    
DOCKED: USER    NEWDPF move heme_Co_opt.pdbqt
DOCKED: USER    NEWDPF about 8.781000 34.984000 -0.736000
DOCKED: USER    NEWDPF tran0 -19.329344 10.276823 6.763859
DOCKED: USER    NEWDPF quaternion0 0.442542 0.201942 -0.556701 0.673395
DOCKED: USER    NEWDPF axisangle0 0.598609 0.273159 -0.753028 95.340734
DOCKED: USER    NEWDPF quat0 0.598609 0.273159 -0.753028 95.340734
DOCKED: USER    NEWDPF dihe0 -170.25 123.61 27.18 116.24 -95.12 131.74 40.56 -120.04 175.50 -4.39 -164.54 123.95 
DOCKED: USER  keepresnum = 1 
DOCKED: USER  
DOCKED: REMARK  12 active torsions:
DOCKED: REMARK  status: ('A' for Active; 'I' for Inactive)
DOCKED: REMARK    1  A    between atoms: C_6  and  C_10 
DOCKED: REMARK    2  A    between atoms: C_10  and  C_11 
DOCKED: REMARK    3  A    between atoms: C_11  and  C_12 
DOCKED: REMARK    4  A    between atoms: C_12  and  O_14 
DOCKED: REMARK    5  A    between atoms: C_17  and  C_20 
DOCKED: REMARK    6  A    between atoms: C_24  and  C_27 
DOCKED: REMARK    7  A    between atoms: C_31  and  C_34 
DOCKED: REMARK    8  A    between atoms: C_34  and  C_35 
DOCKED: REMARK    9  A    between atoms: C_35  and  C_36 
DOCKED: REMARK   10  A    between atoms: C_36  and  O_38 
DOCKED: REMARK   11  A    between atoms: FE_43  and  C_44 
DOCKED: REMARK   12  A    between atoms: C_44  and  O_45 
DOCKED: USER                              x       y       z     vdW  Elec       q    Type
DOCKED: USER                           _______ _______ _______ _____ _____    ______ ____
DOCKED: ROOT
DOCKED: ATOM      1  C   UNL d   1     -19.542   8.159   6.334 -0.18 +0.02    +0.064 A 
DOCKED: ATOM      2  C   UNL d   1     -20.503  10.745  10.207 -0.14 +0.01    +0.064 C 
DOCKED: ATOM      3  C   UNL d   1     -18.632  14.620   8.130 -0.10 -0.01    +0.064 A 
DOCKED: ATOM      4  C   UNL d   1     -17.991  12.093   4.023 -0.21 -0.01    +0.064 A 
DOCKED: ATOM      5  C   UNL d   1     -19.909   8.572   7.558 -0.24 +0.02    +0.066 A 
DOCKED: ATOM      6  C   UNL d   1     -20.576   7.725   8.464 -0.24 -0.01    -0.021 A 
DOCKED: ATOM      7  C   UNL d   1     -20.873   8.487   9.577 -0.17 -0.00    -0.025 A 
DOCKED: ATOM      8  C   UNL d   1     -20.360   9.761   9.310 -0.16 +0.01    +0.066 A 
DOCKED: ATOM      9  C   UNL d   1     -21.611   8.047  10.851 -0.12 +0.01    +0.051 C 
DOCKED: ATOM     10  C   UNL d   1     -19.986  12.079  10.030 -0.12 +0.01    +0.066 A 
DOCKED: ATOM     11  C   UNL d   1     -19.980  13.115  10.990 -0.06 -0.00    -0.021 A 
DOCKED: ATOM     12  C   UNL d   1     -19.425  14.232  10.359 -0.07 -0.00    +0.000 A 
DOCKED: ATOM     13  C   UNL d   1     -19.123  13.793   9.070 -0.10 -0.00    +0.070 A 
DOCKED: ATOM     14  C   UNL d   1     -20.392  12.995  12.434 -0.03 +0.01    +0.052 C 
DOCKED: ATOM     15  C   UNL d   1     -18.313  14.349   6.742 -0.08 -0.01    +0.066 A 
DOCKED: ATOM     16  C   UNL d   1     -17.945  15.283   5.784 -0.10 +0.00    -0.021 A 
DOCKED: ATOM     17  C   UNL d   1     -17.762  14.560   4.597 -0.16 -0.00    +0.000 A 
DOCKED: ATOM     18  C   UNL d   1     -18.017  13.234   4.930 -0.18 -0.01    +0.070 A 
DOCKED: ATOM     19  C   UNL d   1     -17.790  16.769   6.023 -0.04 -0.01    +0.052 C 
DOCKED: ATOM     20  C   UNL d   1     -18.319  10.809   4.303 -0.21 +0.00    +0.066 A 
DOCKED: ATOM     21  C   UNL d   1     -18.290   9.806   3.337 -0.20 -0.00    -0.025 A 
DOCKED: ATOM     22  C   UNL d   1     -18.704   8.655   3.981 -0.23 -0.01    -0.021 A 
DOCKED: ATOM     23  C   UNL d   1     -18.980   9.018   5.316 -0.26 +0.02    +0.066 A 
DOCKED: ATOM     24  C   UNL d   1     -17.905   9.941   1.866 -0.19 -0.00    +0.051 C 
DOCKED: ATOM     25  N   UNL d   1     -19.753   9.841   8.068 -0.09 -0.06    -0.248 N 
DOCKED: ATOM     26  N   UNL d   1     -19.411  12.476   8.890 -0.11 -0.02    -0.248 N 
DOCKED: ATOM     27  N   UNL d   1     -18.372  13.150   6.207 -0.04 +0.01    -0.248 N 
DOCKED: ATOM     28  N   UNL d   1     -18.750  10.321   5.515 -0.16 -0.04    -0.248 N 
DOCKED: ATOM     29 FE   UNL d   1     -19.020  11.591   7.080 -0.05 +0.00    +0.000 Fe
DOCKED: ENDROOT
DOCKED: BRANCH   6  30
DOCKED: ATOM     30  C   UNL d   1     -20.978   6.273   8.225 -0.20 +0.02    +0.052 C 
DOCKED: BRANCH  30  31
DOCKED: ATOM     31  C   UNL d   1     -22.264   6.200   7.403 -0.12 +0.05    +0.115 C 
DOCKED: BRANCH  31  32
DOCKED: ATOM     32  C   UNL d   1     -22.883   7.562   7.176 -0.04 +0.04    +0.139 C 
DOCKED: ATOM     33  O   UNL d   1     -23.680   8.004   7.990 +0.02 -0.13    -0.650 OA
DOCKED: BRANCH  32  34
DOCKED: ATOM     34  O   UNL d   1     -22.544   8.337   6.119 +0.04 -0.20    -0.776 OA
DOCKED: ATOM     35  H   UNL d   1     -22.860   9.241   5.984 +0.02 +0.03    +0.167 HD
DOCKED: ENDBRANCH  32  34
DOCKED: ENDBRANCH  31  32
DOCKED: ENDBRANCH  30  31
DOCKED: ENDBRANCH   6  30
DOCKED: BRANCH  29  36
DOCKED: ATOM     36  C   UNL d   1     -20.998  11.944   6.482 -0.04 +0.01    +0.190 C 
DOCKED: BRANCH  36  37
DOCKED: ATOM     37  O   UNL d   1     -22.226  11.311   6.262 +0.00 -0.04    -0.399 OA
DOCKED: ATOM     38  H   UNL d   1     -22.112  10.393   6.638 +0.02 +0.03    +0.209 HD
DOCKED: ENDBRANCH  36  37
DOCKED: ENDBRANCH  29  36
DOCKED: BRANCH  22  39
DOCKED: ATOM     39  C   UNL d   1     -18.886   7.298   3.327 -0.25 +0.03    +0.052 C 
DOCKED: BRANCH  39  40
DOCKED: ATOM     40  C   UNL d   1     -20.213   6.657   3.767 -0.14 +0.09    +0.115 C 
DOCKED: BRANCH  40  41
DOCKED: ATOM     41  C   UNL d   1     -20.595   5.415   2.989 +0.12 +0.21    +0.139 C 
DOCKED: ATOM     42  O   UNL d   1     -19.738   4.825   2.347 -0.05 -1.15    -0.650 OA
DOCKED: BRANCH  41  43
DOCKED: ATOM     43  O   UNL d   1     -21.839   4.891   3.055 -0.55 -1.32    -0.776 OA
DOCKED: ATOM     44  H   UNL d   1     -22.628   5.437   3.162 +0.01 +0.15    +0.167 HD
DOCKED: ENDBRANCH  41  43
DOCKED: ENDBRANCH  40  41
DOCKED: ENDBRANCH  39  40
DOCKED: ENDBRANCH  22  39
DOCKED: BRANCH  12  45
DOCKED: ATOM     45  C   UNL d   1     -19.130  15.650  10.829 -0.03 -0.00    +0.004 C 
DOCKED: ATOM     46  C   UNL d   1     -17.973  16.249  11.101 -0.03 -0.00    +0.012 C 
DOCKED: ENDBRANCH  12  45
DOCKED: BRANCH  17  47
DOCKED: ATOM     47  C   UNL d   1     -17.424  15.046   3.226 -0.10 -0.00    +0.004 C 
DOCKED: ATOM     48  C   UNL d   1     -18.236  14.910   2.175 -0.11 -0.01    +0.012 C 
DOCKED: ENDBRANCH  17  47
DOCKED: TORSDOF 12
DOCKED: TER
DOCKED: ENDMDL
________________________________________________________________________________


	BEGINNING GENETIC ALGORITHM DOCKING 8 of 100
Run: 8 Seed: 1206557965 1579008236 [ Run 8 of 100 GA/GALS ]
Beginning LAMARCKIAN GENETIC ALGORITHM (LGA), with a maximum of 25000000 energy evaluations.

Final-Value: -9.986


	FINAL GENETIC ALGORITHM DOCKED STATE
	_______________________________________________


Detailed state:  trans -19.423 3.435 14.579 quatxyzw -0.851444 0.165060 0.230004 0.441471 center 8.781 34.984 -0.736 ntor 12 8.0716 105.5082 -125.9068 -99.5167 -35.3013 158.7947 -152.5285 70.2036 164.8945 -87.2795 7.4605 -6.9702
State:	-19.423   3.435  14.579  -0.949  0.184  0.256 127.604      8.07  105.51 -125.91  -99.52  -35.30  158.79 -152.53   70.20  164.89  -87.28    7.46   -6.97

DOCKED: MODEL        8
DOCKED: USER    Run = 8
DOCKED: USER    DPF = D:/Protein_go_brrr/autodock/final/AncMH_nat/heme_Co/dock.dpf
DOCKED: USER  
DOCKED: USER    Estimated Free Energy of Binding    =   -4.08 kcal/mol  [=(1)+(2)+(3)-(4)]
DOCKED: USER    Estimated Inhibition Constant, Ki   =    1.02 mM (millimolar)  [Temperature = 298.15 K]
DOCKED: USER    
DOCKED: USER    (1) Final Intermolecular Energy     =   -7.66 kcal/mol
DOCKED: USER        vdW + Hbond + desolv Energy     =   -5.35 kcal/mol
DOCKED: USER        Electrostatic Energy            =   -2.31 kcal/mol
DOCKED: USER    (2) Final Total Internal Energy     =   -2.32 kcal/mol
DOCKED: USER    (3) Torsional Free Energy           =   +3.58 kcal/mol
DOCKED: USER    (4) Unbound System's Energy  [=(2)] =   -2.32 kcal/mol
DOCKED: USER    
DOCKED: USER    
DOCKED: USER    NEWDPF move heme_Co_opt.pdbqt
DOCKED: USER    NEWDPF about 8.781000 34.984000 -0.736000
DOCKED: USER    NEWDPF tran0 -19.422911 3.434737 14.578602
DOCKED: USER    NEWDPF quaternion0 -0.851444 0.165060 0.230004 0.441471
DOCKED: USER    NEWDPF axisangle0 -0.948921 0.183957 0.256336 127.604440
DOCKED: USER    NEWDPF quat0 -0.948921 0.183957 0.256336 127.604440
DOCKED: USER    NEWDPF dihe0 8.07 105.51 -125.91 -99.52 -35.30 158.79 -152.53 70.20 164.89 -87.28 7.46 -6.97 
DOCKED: USER  keepresnum = 1 
DOCKED: USER  
DOCKED: REMARK  12 active torsions:
DOCKED: REMARK  status: ('A' for Active; 'I' for Inactive)
DOCKED: REMARK    1  A    between atoms: C_6  and  C_10 
DOCKED: REMARK    2  A    between atoms: C_10  and  C_11 
DOCKED: REMARK    3  A    between atoms: C_11  and  C_12 
DOCKED: REMARK    4  A    between atoms: C_12  and  O_14 
DOCKED: REMARK    5  A    between atoms: C_17  and  C_20 
DOCKED: REMARK    6  A    between atoms: C_24  and  C_27 
DOCKED: REMARK    7  A    between atoms: C_31  and  C_34 
DOCKED: REMARK    8  A    between atoms: C_34  and  C_35 
DOCKED: REMARK    9  A    between atoms: C_35  and  C_36 
DOCKED: REMARK   10  A    between atoms: C_36  and  O_38 
DOCKED: REMARK   11  A    between atoms: FE_43  and  C_44 
DOCKED: REMARK   12  A    between atoms: C_44  and  O_45 
DOCKED: USER                              x       y       z     vdW  Elec       q    Type
DOCKED: USER                           _______ _______ _______ _____ _____    ______ ____
DOCKED: ROOT
DOCKED: ATOM      1  C   UNL d   1     -20.630   4.669  15.896 -0.06 +0.06    +0.064 A 
DOCKED: ATOM      2  C   UNL d   1     -21.372   3.013  11.501 -0.07 +0.02    +0.064 C 
DOCKED: ATOM      3  C   UNL d   1     -16.959   1.185  11.403 -0.25 +0.00    +0.064 A 
DOCKED: ATOM      4  C   UNL d   1     -16.314   2.530  16.034 -0.12 +0.01    +0.064 A 
DOCKED: ATOM      5  C   UNL d   1     -21.144   4.382  14.689 -0.07 +0.04    +0.066 A 
DOCKED: ATOM      6  C   UNL d   1     -22.474   4.698  14.349 -0.02 -0.01    -0.021 A 
DOCKED: ATOM      7  C   UNL d   1     -22.691   4.195  13.081 -0.02 -0.01    -0.025 A 
DOCKED: ATOM      8  C   UNL d   1     -21.481   3.609  12.695 -0.04 +0.02    +0.066 A 
DOCKED: ATOM      9  C   UNL d   1     -23.983   4.255  12.252 -0.00 +0.01    +0.051 C 
DOCKED: ATOM     10  C   UNL d   1     -20.161   2.407  11.008 -0.11 +0.01    +0.066 A 
DOCKED: ATOM     11  C   UNL d   1     -19.942   1.891   9.712 -0.17 -0.01    -0.021 A 
DOCKED: ATOM     12  C   UNL d   1     -18.646   1.368   9.710 -0.22 +0.00    +0.000 A 
DOCKED: ATOM     13  C   UNL d   1     -18.167   1.614  10.997 -0.16 +0.01    +0.070 A 
DOCKED: ATOM     14  C   UNL d   1     -20.887   1.989   8.542 -0.14 +0.03    +0.052 C 
DOCKED: ATOM     15  C   UNL d   1     -16.330   1.305  12.704 -0.24 +0.00    +0.066 A 
DOCKED: ATOM     16  C   UNL d   1     -15.140   0.712  13.101 -0.27 +0.00    -0.021 A 
DOCKED: ATOM     17  C   UNL d   1     -14.951   1.095  14.436 -0.30 +0.00    +0.000 A 
DOCKED: ATOM     18  C   UNL d   1     -16.036   1.908  14.745 -0.19 +0.01    +0.070 A 
DOCKED: ATOM     19  C   UNL d   1     -14.264  -0.162  12.232 -0.38 -0.00    +0.052 C 
DOCKED: ATOM     20  C   UNL d   1     -17.405   3.252  16.382 -0.11 +0.03    +0.066 A 
DOCKED: ATOM     21  C   UNL d   1     -17.576   3.769  17.665 -0.07 -0.01    -0.025 A 
DOCKED: ATOM     22  C   UNL d   1     -18.798   4.415  17.647 -0.07 -0.01    -0.021 A 
DOCKED: ATOM     23  C   UNL d   1     -19.322   4.250  16.347 -0.05 +0.06    +0.066 A 
DOCKED: ATOM     24  C   UNL d   1     -16.631   3.636  18.856 -0.03 +0.01    +0.051 C 
DOCKED: ATOM     25  N   UNL d   1     -20.503   3.715  13.670 -0.05 -0.12    -0.248 N 
DOCKED: ATOM     26  N   UNL d   1     -19.063   2.292  11.763 -0.09 -0.04    -0.248 N 
DOCKED: ATOM     27  N   UNL d   1     -16.852   1.986  13.700 -0.14 -0.03    -0.248 N 
DOCKED: ATOM     28  N   UNL d   1     -18.483   3.544  15.579 -0.09 -0.15    -0.248 N 
DOCKED: ATOM     29 FE   UNL d   1     -18.569   2.801  13.689 -0.03 +0.00    +0.000 Fe
DOCKED: ENDROOT
DOCKED: BRANCH   6  30
DOCKED: ATOM     30  C   UNL d   1     -23.504   5.379  15.243 -0.01 +0.02    +0.052 C 
DOCKED: BRANCH  30  31
DOCKED: ATOM     31  C   UNL d   1     -23.471   6.894  15.043 -0.01 +0.04    +0.115 C 
DOCKED: BRANCH  31  32
DOCKED: ATOM     32  C   UNL d   1     -22.203   7.359  14.360 -0.05 +0.11    +0.139 C 
DOCKED: ATOM     33  O   UNL d   1     -22.086   7.219  13.152 -0.01 -0.39    -0.650 OA
DOCKED: BRANCH  32  34
DOCKED: ATOM     34  O   UNL d   1     -21.206   7.971  15.039 -0.25 -1.29    -0.776 OA
DOCKED: ATOM     35  H   UNL d   1     -21.202   8.106  15.997 -0.00 +0.23    +0.167 HD
DOCKED: ENDBRANCH  32  34
DOCKED: ENDBRANCH  31  32
DOCKED: ENDBRANCH  30  31
DOCKED: ENDBRANCH   6  30
DOCKED: BRANCH  29  36
DOCKED: ATOM     36  C   UNL d   1     -19.519   1.068  14.388 -0.01 +0.04    +0.190 C 
DOCKED: BRANCH  36  37
DOCKED: ATOM     37  O   UNL d   1     -20.775   0.527  14.681 +0.00 -0.08    -0.399 OA
DOCKED: ATOM     38  H   UNL d   1     -21.410   1.292  14.593 +0.01 +0.04    +0.209 HD
DOCKED: ENDBRANCH  36  37
DOCKED: ENDBRANCH  29  36
DOCKED: BRANCH  22  39
DOCKED: ATOM     39  C   UNL d   1     -19.451   5.096  18.835 -0.03 +0.02    +0.052 C 
DOCKED: BRANCH  39  40
DOCKED: ATOM     40  C   UNL d   1     -19.120   6.598  18.850 -0.05 +0.07    +0.115 C 
DOCKED: BRANCH  40  41
DOCKED: ATOM     41  C   UNL d   1     -20.067   7.455  18.037 -0.02 +0.13    +0.139 C 
DOCKED: ATOM     42  O   UNL d   1     -19.660   8.498  17.547 -0.05 -0.81    -0.650 OA
DOCKED: BRANCH  41  43
DOCKED: ATOM     43  O   UNL d   1     -21.330   7.056  17.765 +0.00 -0.51    -0.776 OA
DOCKED: ATOM     44  H   UNL d   1     -21.652   6.930  16.863 +0.00 +0.13    +0.167 HD
DOCKED: ENDBRANCH  41  43
DOCKED: ENDBRANCH  40  41
DOCKED: ENDBRANCH  39  40
DOCKED: ENDBRANCH  22  39
DOCKED: BRANCH  12  45
DOCKED: ATOM     45  C   UNL d   1     -17.804   0.685   8.641 -0.31 +0.00    +0.004 C 
DOCKED: ATOM     46  C   UNL d   1     -17.434  -0.586   8.511 -0.22 +0.00    +0.012 C 
DOCKED: ENDBRANCH  12  45
DOCKED: BRANCH  17  47
DOCKED: ATOM     47  C   UNL d   1     -13.875   0.706  15.397 -0.34 +0.00    +0.004 C 
DOCKED: ATOM     48  C   UNL d   1     -13.598  -0.559  15.721 -0.42 +0.00    +0.012 C 
DOCKED: ENDBRANCH  17  47
DOCKED: TORSDOF 12
DOCKED: TER
DOCKED: ENDMDL
________________________________________________________________________________


	BEGINNING GENETIC ALGORITHM DOCKING 9 of 100
Run: 9 Seed: 1045644550 1725739204 [ Run 9 of 100 GA/GALS ]
Beginning LAMARCKIAN GENETIC ALGORITHM (LGA), with a maximum of 25000000 energy evaluations.

Final-Value: -11.698


	FINAL GENETIC ALGORITHM DOCKED STATE
	_______________________________________________


Detailed state:  trans -13.783 7.903 -2.965 quatxyzw -0.866078 -0.087160 0.460073 -0.175058 center 8.781 34.984 -0.736 ntor 12 -173.6817 119.7182 1.3390 118.6349 -24.2710 134.3328 -128.4634 -178.6610 -142.4482 25.6277 -169.2264 -149.4626
State:	-13.783   7.903  -2.965  -0.880 -0.089  0.467 -159.836   -173.68  119.72    1.34  118.63  -24.27  134.33 -128.46 -178.66 -142.45   25.63 -169.23 -149.46

DOCKED: MODEL        9
DOCKED: USER    Run = 9
DOCKED: USER    DPF = D:/Protein_go_brrr/autodock/final/AncMH_nat/heme_Co/dock.dpf
DOCKED: USER  
DOCKED: USER    Estimated Free Energy of Binding    =   -6.31 kcal/mol  [=(1)+(2)+(3)-(4)]
DOCKED: USER    Estimated Inhibition Constant, Ki   =   23.53 uM (micromolar)  [Temperature = 298.15 K]
DOCKED: USER    
DOCKED: USER    (1) Final Intermolecular Energy     =   -9.89 kcal/mol
DOCKED: USER        vdW + Hbond + desolv Energy     =   -7.31 kcal/mol
DOCKED: USER        Electrostatic Energy            =   -2.58 kcal/mol
DOCKED: USER    (2) Final Total Internal Energy     =   -1.80 kcal/mol
DOCKED: USER    (3) Torsional Free Energy           =   +3.58 kcal/mol
DOCKED: USER    (4) Unbound System's Energy  [=(2)] =   -1.80 kcal/mol
DOCKED: USER    
DOCKED: USER    
DOCKED: USER    NEWDPF move heme_Co_opt.pdbqt
DOCKED: USER    NEWDPF about 8.781000 34.984000 -0.736000
DOCKED: USER    NEWDPF tran0 -13.782929 7.903434 -2.965016
DOCKED: USER    NEWDPF quaternion0 -0.866078 -0.087160 0.460073 -0.175058
DOCKED: USER    NEWDPF axisangle0 -0.879661 -0.088527 0.467289 -159.835970
DOCKED: USER    NEWDPF quat0 -0.879661 -0.088527 0.467289 -159.835970
DOCKED: USER    NEWDPF dihe0 -173.68 119.72 1.34 118.63 -24.27 134.33 -128.46 -178.66 -142.45 25.63 -169.23 -149.46 
DOCKED: USER  keepresnum = 1 
DOCKED: USER  
DOCKED: REMARK  12 active torsions:
DOCKED: REMARK  status: ('A' for Active; 'I' for Inactive)
DOCKED: REMARK    1  A    between atoms: C_6  and  C_10 
DOCKED: REMARK    2  A    between atoms: C_10  and  C_11 
DOCKED: REMARK    3  A    between atoms: C_11  and  C_12 
DOCKED: REMARK    4  A    between atoms: C_12  and  O_14 
DOCKED: REMARK    5  A    between atoms: C_17  and  C_20 
DOCKED: REMARK    6  A    between atoms: C_24  and  C_27 
DOCKED: REMARK    7  A    between atoms: C_31  and  C_34 
DOCKED: REMARK    8  A    between atoms: C_34  and  C_35 
DOCKED: REMARK    9  A    between atoms: C_35  and  C_36 
DOCKED: REMARK   10  A    between atoms: C_36  and  O_38 
DOCKED: REMARK   11  A    between atoms: FE_43  and  C_44 
DOCKED: REMARK   12  A    between atoms: C_44  and  O_45 
DOCKED: USER                              x       y       z     vdW  Elec       q    Type
DOCKED: USER                           _______ _______ _______ _____ _____    ______ ____
DOCKED: ROOT
DOCKED: ATOM      1  C   UNL d   1     -14.171   6.649  -1.235 -0.29 +0.03    +0.064 A 
DOCKED: ATOM      2  C   UNL d   1     -16.528  10.332  -3.105 -0.09 +0.00    +0.064 C 
DOCKED: ATOM      3  C   UNL d   1     -13.043  10.984  -6.309 -0.15 -0.01    +0.064 A 
DOCKED: ATOM      4  C   UNL d   1     -10.803   6.990  -4.665 -0.26 -0.02    +0.064 A 
DOCKED: ATOM      5  C   UNL d   1     -15.054   7.630  -1.488 -0.22 +0.02    +0.066 A 
DOCKED: ATOM      6  C   UNL d   1     -16.273   7.736  -0.790 -0.20 -0.01    -0.021 A 
DOCKED: ATOM      7  C   UNL d   1     -16.963   8.792  -1.352 -0.12 -0.00    -0.025 A 
DOCKED: ATOM      8  C   UNL d   1     -16.129   9.295  -2.357 -0.10 +0.01    +0.066 A 
DOCKED: ATOM      9  C   UNL d   1     -18.354   9.319  -0.970 -0.06 +0.00    +0.051 C 
DOCKED: ATOM     10  C   UNL d   1     -15.728  10.933  -4.143 -0.08 +0.00    +0.066 A 
DOCKED: ATOM     11  C   UNL d   1     -16.030  12.107  -4.867 -0.07 +0.00    -0.021 A 
DOCKED: ATOM     12  C   UNL d   1     -14.995  12.276  -5.792 -0.09 -0.00    +0.000 A 
DOCKED: ATOM     13  C   UNL d   1     -14.135  11.203  -5.555 -0.11 -0.00    +0.070 A 
DOCKED: ATOM     14  C   UNL d   1     -17.185  13.041  -4.611 -0.03 -0.00    +0.052 C 
DOCKED: ATOM     15  C   UNL d   1     -12.079   9.903  -6.238 -0.20 -0.01    +0.066 A 
DOCKED: ATOM     16  C   UNL d   1     -11.054   9.654  -7.140 -0.25 +0.00    -0.021 A 
DOCKED: ATOM     17  C   UNL d   1     -10.407   8.502  -6.671 -0.30 -0.00    +0.000 A 
DOCKED: ATOM     18  C   UNL d   1     -11.080   8.147  -5.507 -0.26 -0.02    +0.070 A 
DOCKED: ATOM     19  C   UNL d   1     -10.742  10.486  -8.364 -0.24 -0.01    +0.052 C 
DOCKED: ATOM     20  C   UNL d   1     -11.498   6.577  -3.578 -0.24 -0.00    +0.066 A 
DOCKED: ATOM     21  C   UNL d   1     -11.156   5.426  -2.871 -0.24 -0.00    -0.025 A 
DOCKED: ATOM     22  C   UNL d   1     -12.092   5.318  -1.859 -0.24 -0.01    -0.021 A 
DOCKED: ATOM     23  C   UNL d   1     -12.973   6.411  -2.007 -0.28 +0.02    +0.066 A 
DOCKED: ATOM     24  C   UNL d   1     -10.005   4.465  -3.157 -0.29 -0.01    +0.051 C 
DOCKED: ATOM     25  N   UNL d   1     -14.937   8.598  -2.459 +0.00 -0.03    -0.248 N 
DOCKED: ATOM     26  N   UNL d   1     -14.550  10.424  -4.521 -0.04 -0.00    -0.248 N 
DOCKED: ATOM     27  N   UNL d   1     -12.089   8.986  -5.296 -0.14 +0.03    -0.248 N 
DOCKED: ATOM     28  N   UNL d   1     -12.618   7.174  -3.048 -0.16 -0.02    -0.248 N 
DOCKED: ATOM     29 FE   UNL d   1     -13.426   8.801  -3.960 -0.05 +0.00    +0.000 Fe
DOCKED: ENDROOT
DOCKED: BRANCH   6  30
DOCKED: ATOM     30  C   UNL d   1     -16.776   6.806   0.309 -0.19 +0.03    +0.052 C 
DOCKED: BRANCH  30  31
DOCKED: ATOM     31  C   UNL d   1     -17.478   5.591  -0.295 -0.13 +0.10    +0.115 C 
DOCKED: BRANCH  31  32
DOCKED: ATOM     32  C   UNL d   1     -16.830   5.130  -1.583 -0.09 +0.12    +0.139 C 
DOCKED: ATOM     33  O   UNL d   1     -16.095   4.154  -1.570 -0.54 -1.08    -0.650 OA
DOCKED: BRANCH  32  34
DOCKED: ATOM     34  O   UNL d   1     -17.076   5.737  -2.767 +0.03 -0.33    -0.776 OA
DOCKED: ATOM     35  H   UNL d   1     -16.704   5.451  -3.612 +0.02 +0.06    +0.167 HD
DOCKED: ENDBRANCH  32  34
DOCKED: ENDBRANCH  31  32
DOCKED: ENDBRANCH  30  31
DOCKED: ENDBRANCH   6  30
DOCKED: BRANCH  29  36
DOCKED: ATOM     36  C   UNL d   1     -14.616   7.564  -5.164 -0.05 +0.01    +0.190 C 
DOCKED: BRANCH  36  37
DOCKED: ATOM     37  O   UNL d   1     -15.646   6.619  -5.116 +0.00 -0.04    -0.399 OA
DOCKED: ATOM     38  H   UNL d   1     -15.939   6.608  -4.162 +0.02 +0.04    +0.209 HD
DOCKED: ENDBRANCH  36  37
DOCKED: ENDBRANCH  29  36
DOCKED: BRANCH  22  39
DOCKED: ATOM     39  C   UNL d   1     -12.169   4.189  -0.848 -0.19 +0.04    +0.052 C 
DOCKED: BRANCH  39  40
DOCKED: ATOM     40  C   UNL d   1     -12.075   2.825  -1.551 -0.18 +0.08    +0.115 C 
DOCKED: BRANCH  40  41
DOCKED: ATOM     41  C   UNL d   1     -12.607   1.665  -0.736 -0.03 +0.18    +0.139 C 
DOCKED: ATOM     42  O   UNL d   1     -12.371   1.617   0.463 -0.52 -0.94    -0.650 OA
DOCKED: BRANCH  41  43
DOCKED: ATOM     43  O   UNL d   1     -13.410   0.724  -1.280 +0.03 -0.95    -0.776 OA
DOCKED: ATOM     44  H   UNL d   1     -13.593   0.683  -2.228 +0.04 +0.15    +0.167 HD
DOCKED: ENDBRANCH  41  43
DOCKED: ENDBRANCH  40  41
DOCKED: ENDBRANCH  39  40
DOCKED: ENDBRANCH  22  39
DOCKED: BRANCH  12  45
DOCKED: ATOM     45  C   UNL d   1     -14.712  13.331  -6.852 -0.06 -0.00    +0.004 C 
DOCKED: ATOM     46  C   UNL d   1     -13.775  14.274  -6.908 -0.08 -0.00    +0.012 C 
DOCKED: ENDBRANCH  12  45
DOCKED: BRANCH  17  47
DOCKED: ATOM     47  C   UNL d   1      -9.274   7.734  -7.270 -0.26 -0.00    +0.004 C 
DOCKED: ATOM     48  C   UNL d   1      -9.211   7.400  -8.561 -0.33 -0.01    +0.012 C 
DOCKED: ENDBRANCH  17  47
DOCKED: TORSDOF 12
DOCKED: TER
DOCKED: ENDMDL
________________________________________________________________________________


	BEGINNING GENETIC ALGORITHM DOCKING 10 of 100
Run: 10 Seed: 1533291172 612752445 [ Run 10 of 100 GA/GALS ]
Beginning LAMARCKIAN GENETIC ALGORITHM (LGA), with a maximum of 25000000 energy evaluations.

Final-Value: -11.855


	FINAL GENETIC ALGORITHM DOCKED STATE
	_______________________________________________


Detailed state:  trans -13.808 7.993 -2.985 quatxyzw 0.869301 0.087103 -0.451118 0.182269 center 8.781 34.984 -0.736 ntor 12 153.0168 136.3137 7.4519 121.9722 -33.4446 126.2219 -138.0578 -171.5806 -131.5246 17.5304 -172.2126 -155.2818
State:	-13.808   7.993  -2.985   0.884  0.089 -0.459 158.996    153.02  136.31    7.45  121.97  -33.44  126.22 -138.06 -171.58 -131.52   17.53 -172.21 -155.28

DOCKED: MODEL       10
DOCKED: USER    Run = 10
DOCKED: USER    DPF = D:/Protein_go_brrr/autodock/final/AncMH_nat/heme_Co/dock.dpf
DOCKED: USER  
DOCKED: USER    Estimated Free Energy of Binding    =   -6.38 kcal/mol  [=(1)+(2)+(3)-(4)]
DOCKED: USER    Estimated Inhibition Constant, Ki   =   20.88 uM (micromolar)  [Temperature = 298.15 K]
DOCKED: USER    
DOCKED: USER    (1) Final Intermolecular Energy     =   -9.96 kcal/mol
DOCKED: USER        vdW + Hbond + desolv Energy     =   -7.19 kcal/mol
DOCKED: USER        Electrostatic Energy            =   -2.77 kcal/mol
DOCKED: USER    (2) Final Total Internal Energy     =   -1.89 kcal/mol
DOCKED: USER    (3) Torsional Free Energy           =   +3.58 kcal/mol
DOCKED: USER    (4) Unbound System's Energy  [=(2)] =   -1.89 kcal/mol
DOCKED: USER    
DOCKED: USER    
DOCKED: USER    NEWDPF move heme_Co_opt.pdbqt
DOCKED: USER    NEWDPF about 8.781000 34.984000 -0.736000
DOCKED: USER    NEWDPF tran0 -13.808330 7.992793 -2.984667
DOCKED: USER    NEWDPF quaternion0 0.869301 0.087103 -0.451118 0.182269
DOCKED: USER    NEWDPF axisangle0 0.884111 0.088587 -0.458804 158.996140
DOCKED: USER    NEWDPF quat0 0.884111 0.088587 -0.458804 158.996140
DOCKED: USER    NEWDPF dihe0 153.02 136.31 7.45 121.97 -33.44 126.22 -138.06 -171.58 -131.52 17.53 -172.21 -155.28 
DOCKED: USER  keepresnum = 1 
DOCKED: USER  
DOCKED: REMARK  12 active torsions:
DOCKED: REMARK  status: ('A' for Active; 'I' for Inactive)
DOCKED: REMARK    1  A    between atoms: C_6  and  C_10 
DOCKED: REMARK    2  A    between atoms: C_10  and  C_11 
DOCKED: REMARK    3  A    between atoms: C_11  and  C_12 
DOCKED: REMARK    4  A    between atoms: C_12  and  O_14 
DOCKED: REMARK    5  A    between atoms: C_17  and  C_20 
DOCKED: REMARK    6  A    between atoms: C_24  and  C_27 
DOCKED: REMARK    7  A    between atoms: C_31  and  C_34 
DOCKED: REMARK    8  A    between atoms: C_34  and  C_35 
DOCKED: REMARK    9  A    between atoms: C_35  and  C_36 
DOCKED: REMARK   10  A    between atoms: C_36  and  O_38 
DOCKED: REMARK   11  A    between atoms: FE_43  and  C_44 
DOCKED: REMARK   12  A    between atoms: C_44  and  O_45 
DOCKED: USER                              x       y       z     vdW  Elec       q    Type
DOCKED: USER                           _______ _______ _______ _____ _____    ______ ____
DOCKED: ROOT
DOCKED: ATOM      1  C   UNL d   1     -14.239   6.721  -1.278 -0.28 +0.03    +0.064 A 
DOCKED: ATOM      2  C   UNL d   1     -16.525  10.451  -3.140 -0.09 +0.00    +0.064 C 
DOCKED: ATOM      3  C   UNL d   1     -12.979  11.107  -6.275 -0.16 -0.01    +0.064 A 
DOCKED: ATOM      4  C   UNL d   1     -10.809   7.070  -4.645 -0.27 -0.02    +0.064 A 
DOCKED: ATOM      5  C   UNL d   1     -15.107   7.714  -1.533 -0.21 +0.02    +0.066 A 
DOCKED: ATOM      6  C   UNL d   1     -16.337   7.824  -0.855 -0.19 -0.01    -0.021 A 
DOCKED: ATOM      7  C   UNL d   1     -17.006   8.894  -1.415 -0.11 -0.00    -0.025 A 
DOCKED: ATOM      8  C   UNL d   1     -16.150   9.401  -2.399 -0.10 +0.00    +0.066 A 
DOCKED: ATOM      9  C   UNL d   1     -18.399   9.431  -1.050 -0.05 +0.00    +0.051 C 
DOCKED: ATOM     10  C   UNL d   1     -15.701  11.058  -4.156 -0.08 +0.00    +0.066 A 
DOCKED: ATOM     11  C   UNL d   1     -15.979  12.244  -4.870 -0.07 +0.00    -0.021 A 
DOCKED: ATOM     12  C   UNL d   1     -14.926  12.414  -5.775 -0.09 -0.00    +0.000 A 
DOCKED: ATOM     13  C   UNL d   1     -14.081  11.329  -5.537 -0.11 -0.00    +0.070 A 
DOCKED: ATOM     14  C   UNL d   1     -17.128  13.187  -4.622 -0.03 -0.00    +0.052 C 
DOCKED: ATOM     15  C   UNL d   1     -12.028  10.016  -6.202 -0.21 -0.01    +0.066 A 
DOCKED: ATOM     16  C   UNL d   1     -10.990   9.768  -7.089 -0.27 +0.00    -0.021 A 
DOCKED: ATOM     17  C   UNL d   1     -10.363   8.603  -6.624 -0.30 -0.00    +0.000 A 
DOCKED: ATOM     18  C   UNL d   1     -11.060   8.241  -5.477 -0.27 -0.02    +0.070 A 
DOCKED: ATOM     19  C   UNL d   1     -10.648  10.612  -8.296 -0.26 -0.01    +0.052 C 
DOCKED: ATOM     20  C   UNL d   1     -11.526   6.650  -3.575 -0.25 -0.00    +0.066 A 
DOCKED: ATOM     21  C   UNL d   1     -11.209   5.487  -2.878 -0.24 -0.00    -0.025 A 
DOCKED: ATOM     22  C   UNL d   1     -12.163   5.376  -1.883 -0.25 -0.01    -0.021 A 
DOCKED: ATOM     23  C   UNL d   1     -13.030   6.480  -2.032 -0.28 +0.02    +0.066 A 
DOCKED: ATOM     24  C   UNL d   1     -10.063   4.517  -3.156 -0.29 -0.01    +0.051 C 
DOCKED: ATOM     25  N   UNL d   1     -14.964   8.693  -2.489 +0.12 -0.03    -0.248 N 
DOCKED: ATOM     26  N   UNL d   1     -14.523  10.541  -4.520 -0.04 -0.00    -0.248 N 
DOCKED: ATOM     27  N   UNL d   1     -12.063   9.087  -5.272 -0.14 +0.03    -0.248 N 
DOCKED: ATOM     28  N   UNL d   1     -12.650   7.252  -3.057 -0.17 -0.02    -0.248 N 
DOCKED: ATOM     29 FE   UNL d   1     -13.425   8.899  -3.962 -0.05 +0.00    +0.000 Fe
DOCKED: ENDROOT
DOCKED: BRANCH   6  30
DOCKED: ATOM     30  C   UNL d   1     -16.868   6.886   0.223 -0.20 +0.03    +0.052 C 
DOCKED: BRANCH  30  31
DOCKED: ATOM     31  C   UNL d   1     -17.637   5.724  -0.406 -0.13 +0.09    +0.115 C 
DOCKED: BRANCH  31  32
DOCKED: ATOM     32  C   UNL d   1     -16.892   5.101  -1.567 -0.09 +0.12    +0.139 C 
DOCKED: ATOM     33  O   UNL d   1     -16.154   4.148  -1.366 -0.54 -1.20    -0.650 OA
DOCKED: BRANCH  32  34
DOCKED: ATOM     34  O   UNL d   1     -17.054   5.535  -2.839 +0.03 -0.34    -0.776 OA
DOCKED: ATOM     35  H   UNL d   1     -16.362   5.510  -3.514 +0.02 +0.06    +0.167 HD
DOCKED: ENDBRANCH  32  34
DOCKED: ENDBRANCH  31  32
DOCKED: ENDBRANCH  30  31
DOCKED: ENDBRANCH   6  30
DOCKED: BRANCH  29  36
DOCKED: ATOM     36  C   UNL d   1     -14.607   7.690  -5.202 -0.05 +0.00    +0.190 C 
DOCKED: BRANCH  36  37
DOCKED: ATOM     37  O   UNL d   1     -15.563   6.670  -5.180 +0.00 -0.03    -0.399 OA
DOCKED: ATOM     38  H   UNL d   1     -15.987   6.736  -4.279 +0.02 +0.03    +0.209 HD
DOCKED: ENDBRANCH  36  37
DOCKED: ENDBRANCH  29  36
DOCKED: BRANCH  22  39
DOCKED: ATOM     39  C   UNL d   1     -12.269   4.235  -0.889 -0.23 +0.04    +0.052 C 
DOCKED: BRANCH  39  40
DOCKED: ATOM     40  C   UNL d   1     -12.323   2.883  -1.618 -0.17 +0.09    +0.115 C 
DOCKED: BRANCH  40  41
DOCKED: ATOM     41  C   UNL d   1     -12.712   1.713  -0.739 +0.06 +0.19    +0.139 C 
DOCKED: ATOM     42  O   UNL d   1     -12.369   1.707   0.435 -0.53 -0.95    -0.650 OA
DOCKED: BRANCH  41  43
DOCKED: ATOM     43  O   UNL d   1     -13.503   0.716  -1.192 +0.02 -1.01    -0.776 OA
DOCKED: ATOM     44  H   UNL d   1     -13.697   0.592  -2.131 +0.04 +0.15    +0.167 HD
DOCKED: ENDBRANCH  41  43
DOCKED: ENDBRANCH  40  41
DOCKED: ENDBRANCH  39  40
DOCKED: ENDBRANCH  22  39
DOCKED: BRANCH  12  45
DOCKED: ATOM     45  C   UNL d   1     -14.615  13.479  -6.816 -0.06 -0.00    +0.004 C 
DOCKED: ATOM     46  C   UNL d   1     -13.632  14.375  -6.872 -0.09 -0.00    +0.012 C 
DOCKED: ENDBRANCH  12  45
DOCKED: BRANCH  17  47
DOCKED: ATOM     47  C   UNL d   1      -9.228   7.831  -7.213 -0.24 -0.00    +0.004 C 
DOCKED: ATOM     48  C   UNL d   1      -9.226   7.361  -8.463 -0.33 -0.01    +0.012 C 
DOCKED: ENDBRANCH  17  47
DOCKED: TORSDOF 12
DOCKED: TER
DOCKED: ENDMDL
________________________________________________________________________________


	BEGINNING GENETIC ALGORITHM DOCKING 11 of 100
Run: 11 Seed: 1350472382 77689969 [ Run 11 of 100 GA/GALS ]
Beginning LAMARCKIAN GENETIC ALGORITHM (LGA), with a maximum of 25000000 energy evaluations.

Final-Value: -10.493


	FINAL GENETIC ALGORITHM DOCKED STATE
	_______________________________________________


Detailed state:  trans -14.380 8.014 -2.449 quatxyzw 0.858978 0.123060 -0.476349 0.141792 center 8.781 34.984 -0.736 ntor 12 -48.6628 121.2801 -35.3620 119.1819 -20.1175 -137.3114 179.0272 -65.0984 19.6756 -18.8564 -176.8262 -158.3454
State:	-14.380   8.014  -2.449   0.868  0.124 -0.481 163.697    -48.66  121.28  -35.36  119.18  -20.12 -137.31  179.03  -65.10   19.68  -18.86 -176.83 -158.35

DOCKED: MODEL       11
DOCKED: USER    Run = 11
DOCKED: USER    DPF = D:/Protein_go_brrr/autodock/final/AncMH_nat/heme_Co/dock.dpf
DOCKED: USER  
DOCKED: USER    Estimated Free Energy of Binding    =   -6.27 kcal/mol  [=(1)+(2)+(3)-(4)]
DOCKED: USER    Estimated Inhibition Constant, Ki   =   25.44 uM (micromolar)  [Temperature = 298.15 K]
DOCKED: USER    
DOCKED: USER    (1) Final Intermolecular Energy     =   -9.85 kcal/mol
DOCKED: USER        vdW + Hbond + desolv Energy     =   -7.09 kcal/mol
DOCKED: USER        Electrostatic Energy            =   -2.75 kcal/mol
DOCKED: USER    (2) Final Total Internal Energy     =   -0.65 kcal/mol
DOCKED: USER    (3) Torsional Free Energy           =   +3.58 kcal/mol
DOCKED: USER    (4) Unbound System's Energy  [=(2)] =   -0.65 kcal/mol
DOCKED: USER    
DOCKED: USER    
DOCKED: USER    NEWDPF move heme_Co_opt.pdbqt
DOCKED: USER    NEWDPF about 8.781000 34.984000 -0.736000
DOCKED: USER    NEWDPF tran0 -14.379664 8.014220 -2.448509
DOCKED: USER    NEWDPF quaternion0 0.858978 0.123060 -0.476349 0.141792
DOCKED: USER    NEWDPF axisangle0 0.867745 0.124316 -0.481211 163.696836
DOCKED: USER    NEWDPF quat0 0.867745 0.124316 -0.481211 163.696836
DOCKED: USER    NEWDPF dihe0 -48.66 121.28 -35.36 119.18 -20.12 -137.31 179.03 -65.10 19.68 -18.86 -176.83 -158.35 
DOCKED: USER  keepresnum = 1 
DOCKED: USER  
DOCKED: REMARK  12 active torsions:
DOCKED: REMARK  status: ('A' for Active; 'I' for Inactive)
DOCKED: REMARK    1  A    between atoms: C_6  and  C_10 
DOCKED: REMARK    2  A    between atoms: C_10  and  C_11 
DOCKED: REMARK    3  A    between atoms: C_11  and  C_12 
DOCKED: REMARK    4  A    between atoms: C_12  and  O_14 
DOCKED: REMARK    5  A    between atoms: C_17  and  C_20 
DOCKED: REMARK    6  A    between atoms: C_24  and  C_27 
DOCKED: REMARK    7  A    between atoms: C_31  and  C_34 
DOCKED: REMARK    8  A    between atoms: C_34  and  C_35 
DOCKED: REMARK    9  A    between atoms: C_35  and  C_36 
DOCKED: REMARK   10  A    between atoms: C_36  and  O_38 
DOCKED: REMARK   11  A    between atoms: FE_43  and  C_44 
DOCKED: REMARK   12  A    between atoms: C_44  and  O_45 
DOCKED: USER                              x       y       z     vdW  Elec       q    Type
DOCKED: USER                           _______ _______ _______ _____ _____    ______ ____
DOCKED: ROOT
DOCKED: ATOM      1  C   UNL d   1     -14.615   6.773  -0.683 -0.26 +0.03    +0.064 A 
DOCKED: ATOM      2  C   UNL d   1     -17.355  10.153  -2.599 -0.07 +0.00    +0.064 C 
DOCKED: ATOM      3  C   UNL d   1     -14.002  11.066  -5.878 -0.12 -0.00    +0.064 A 
DOCKED: ATOM      4  C   UNL d   1     -11.350   7.358  -4.178 -0.27 -0.01    +0.064 A 
DOCKED: ATOM      5  C   UNL d   1     -15.594   7.654  -0.943 -0.23 +0.02    +0.066 A 
DOCKED: ATOM      6  C   UNL d   1     -16.807   7.656  -0.227 -0.19 -0.01    -0.021 A 
DOCKED: ATOM      7  C   UNL d   1     -17.607   8.624  -0.802 -0.09 -0.00    -0.025 A 
DOCKED: ATOM      8  C   UNL d   1     -16.843   9.181  -1.833 -0.10 +0.01    +0.066 A 
DOCKED: ATOM      9  C   UNL d   1     -19.039   9.019  -0.408 -0.04 +0.01    +0.051 C 
DOCKED: ATOM     10  C   UNL d   1     -16.635  10.805  -3.664 -0.07 +0.00    +0.066 A 
DOCKED: ATOM     11  C   UNL d   1     -17.063  11.923  -4.412 -0.04 +0.00    -0.021 A 
DOCKED: ATOM     12  C   UNL d   1     -16.065  12.170  -5.358 -0.05 -0.00    +0.000 A 
DOCKED: ATOM     13  C   UNL d   1     -15.098  11.195  -5.111 -0.09 -0.00    +0.070 A 
DOCKED: ATOM     14  C   UNL d   1     -18.302  12.744  -4.158 -0.02 -0.00    +0.052 C 
DOCKED: ATOM     15  C   UNL d   1     -12.934  10.088  -5.798 -0.15 -0.01    +0.066 A 
DOCKED: ATOM     16  C   UNL d   1     -11.902   9.920  -6.711 -0.21 +0.00    -0.021 A 
DOCKED: ATOM     17  C   UNL d   1     -11.136   8.850  -6.227 -0.29 -0.00    +0.000 A 
DOCKED: ATOM     18  C   UNL d   1     -11.753   8.460  -5.043 -0.22 -0.01    +0.070 A 
DOCKED: ATOM     19  C   UNL d   1     -11.693  10.747  -7.960 -0.17 -0.01    +0.052 C 
DOCKED: ATOM     20  C   UNL d   1     -11.983   6.906  -3.069 -0.28 +0.00    +0.066 A 
DOCKED: ATOM     21  C   UNL d   1     -11.517   5.814  -2.341 -0.27 -0.00    -0.025 A 
DOCKED: ATOM     22  C   UNL d   1     -12.422   5.639  -1.310 -0.32 -0.01    -0.021 A 
DOCKED: ATOM     23  C   UNL d   1     -13.410   6.635  -1.469 -0.32 +0.02    +0.066 A 
DOCKED: ATOM     24  C   UNL d   1     -10.281   4.964  -2.624 -0.30 -0.00    +0.051 C 
DOCKED: ATOM     25  N   UNL d   1     -15.589   8.604  -1.939 -0.11 -0.03    -0.248 N 
DOCKED: ATOM     26  N   UNL d   1     -15.418  10.406  -4.051 -0.05 -0.01    -0.248 N 
DOCKED: ATOM     27  N   UNL d   1     -12.837   9.200  -4.835 +0.04 +0.01    -0.248 N 
DOCKED: ATOM     28  N   UNL d   1     -13.149   7.402  -2.534 -0.17 -0.04    -0.248 N 
DOCKED: ATOM     29 FE   UNL d   1     -14.129   8.917  -3.471 -0.05 +0.00    +0.000 Fe
DOCKED: ENDROOT
DOCKED: BRANCH   6  30
DOCKED: ATOM     30  C   UNL d   1     -17.198   6.710   0.903 -0.14 +0.03    +0.052 C 
DOCKED: BRANCH  30  31
DOCKED: ATOM     31  C   UNL d   1     -17.954   5.500   0.354 -0.14 +0.11    +0.115 C 
DOCKED: BRANCH  31  32
DOCKED: ATOM     32  C   UNL d   1     -18.727   4.766   1.429 -0.19 +0.18    +0.139 C 
DOCKED: ATOM     33  O   UNL d   1     -19.453   5.395   2.184 -0.05 -0.80    -0.650 OA
DOCKED: BRANCH  32  34
DOCKED: ATOM     34  O   UNL d   1     -18.678   3.419   1.553 -0.34 -1.59    -0.776 OA
DOCKED: ATOM     35  H   UNL d   1     -18.854   2.799   0.832 +0.02 +0.28    +0.167 HD
DOCKED: ENDBRANCH  32  34
DOCKED: ENDBRANCH  31  32
DOCKED: ENDBRANCH  30  31
DOCKED: ENDBRANCH   6  30
DOCKED: BRANCH  29  36
DOCKED: ATOM     36  C   UNL d   1     -15.208   7.537  -4.624 -0.05 +0.02    +0.190 C 
DOCKED: BRANCH  36  37
DOCKED: ATOM     37  O   UNL d   1     -16.422   7.352  -5.293 -0.00 -0.03    -0.399 OA
DOCKED: ATOM     38  H   UNL d   1     -16.871   8.243  -5.261 +0.01 +0.01    +0.209 HD
DOCKED: ENDBRANCH  36  37
DOCKED: ENDBRANCH  29  36
DOCKED: BRANCH  22  39
DOCKED: ATOM     39  C   UNL d   1     -12.371   4.535  -0.271 -0.22 +0.04    +0.052 C 
DOCKED: BRANCH  39  40
DOCKED: ATOM     40  C   UNL d   1     -12.374   3.154  -0.948 -0.18 +0.12    +0.115 C 
DOCKED: BRANCH  40  41
DOCKED: ATOM     41  C   UNL d   1     -11.759   2.049  -0.115 -0.21 +0.13    +0.139 C 
DOCKED: ATOM     42  O   UNL d   1     -12.370   1.618   0.853 -0.51 -0.93    -0.650 OA
DOCKED: BRANCH  41  43
DOCKED: ATOM     43  O   UNL d   1     -10.590   1.465  -0.461 +0.10 -0.33    -0.776 OA
DOCKED: ATOM     44  H   UNL d   1     -10.298   1.392  -1.379 +0.08 +0.04    +0.167 HD
DOCKED: ENDBRANCH  41  43
DOCKED: ENDBRANCH  40  41
DOCKED: ENDBRANCH  39  40
DOCKED: ENDBRANCH  22  39
DOCKED: BRANCH  12  45
DOCKED: ATOM     45  C   UNL d   1     -15.905  13.221  -6.448 -0.03 -0.00    +0.004 C 
DOCKED: ATOM     46  C   UNL d   1     -15.061  14.245  -6.547 -0.04 -0.00    +0.012 C 
DOCKED: ENDBRANCH  12  45
DOCKED: BRANCH  17  47
DOCKED: ATOM     47  C   UNL d   1      -9.942   8.184  -6.826 -0.33 -0.00    +0.004 C 
DOCKED: ATOM     48  C   UNL d   1      -9.833   7.896  -8.126 -0.32 -0.01    +0.012 C 
DOCKED: ENDBRANCH  17  47
DOCKED: TORSDOF 12
DOCKED: TER
DOCKED: ENDMDL
________________________________________________________________________________


	BEGINNING GENETIC ALGORITHM DOCKING 12 of 100
Run: 12 Seed: 1539903277 364543877 [ Run 12 of 100 GA/GALS ]
Beginning LAMARCKIAN GENETIC ALGORITHM (LGA), with a maximum of 25000000 energy evaluations.

Final-Value: -13.115


	FINAL GENETIC ALGORITHM DOCKED STATE
	_______________________________________________


Detailed state:  trans -10.900 -0.055 2.226 quatxyzw -0.115624 -0.690123 -0.182140 -0.690787 center 8.781 34.984 -0.736 ntor 12 179.0125 99.5771 -61.8690 136.7707 141.4208 140.4096 -113.7902 107.7967 -138.3510 -37.7823 175.9139 -152.1536
State:	-10.900  -0.055   2.226  -0.160 -0.954 -0.252 -92.615    179.01   99.58  -61.87  136.77  141.42  140.41 -113.79  107.80 -138.35  -37.78  175.91 -152.15

DOCKED: MODEL       12
DOCKED: USER    Run = 12
DOCKED: USER    DPF = D:/Protein_go_brrr/autodock/final/AncMH_nat/heme_Co/dock.dpf
DOCKED: USER  
DOCKED: USER    Estimated Free Energy of Binding    =   -7.57 kcal/mol  [=(1)+(2)+(3)-(4)]
DOCKED: USER    Estimated Inhibition Constant, Ki   =    2.82 uM (micromolar)  [Temperature = 298.15 K]
DOCKED: USER    
DOCKED: USER    (1) Final Intermolecular Energy     =  -11.15 kcal/mol
DOCKED: USER        vdW + Hbond + desolv Energy     =  -10.26 kcal/mol
DOCKED: USER        Electrostatic Energy            =   -0.89 kcal/mol
DOCKED: USER    (2) Final Total Internal Energy     =   -1.96 kcal/mol
DOCKED: USER    (3) Torsional Free Energy           =   +3.58 kcal/mol
DOCKED: USER    (4) Unbound System's Energy  [=(2)] =   -1.96 kcal/mol
DOCKED: USER    
DOCKED: USER    
DOCKED: USER    NEWDPF move heme_Co_opt.pdbqt
DOCKED: USER    NEWDPF about 8.781000 34.984000 -0.736000
DOCKED: USER    NEWDPF tran0 -10.899650 -0.055040 2.226383
DOCKED: USER    NEWDPF quaternion0 -0.115624 -0.690123 -0.182140 -0.690787
DOCKED: USER    NEWDPF axisangle0 -0.159910 -0.954450 -0.251903 -92.615150
DOCKED: USER    NEWDPF quat0 -0.159910 -0.954450 -0.251903 -92.615150
DOCKED: USER    NEWDPF dihe0 179.01 99.58 -61.87 136.77 141.42 140.41 -113.79 107.80 -138.35 -37.78 175.91 -152.15 
DOCKED: USER  keepresnum = 1 
DOCKED: USER  
DOCKED: REMARK  12 active torsions:
DOCKED: REMARK  status: ('A' for Active; 'I' for Inactive)
DOCKED: REMARK    1  A    between atoms: C_6  and  C_10 
DOCKED: REMARK    2  A    between atoms: C_10  and  C_11 
DOCKED: REMARK    3  A    between atoms: C_11  and  C_12 
DOCKED: REMARK    4  A    between atoms: C_12  and  O_14 
DOCKED: REMARK    5  A    between atoms: C_17  and  C_20 
DOCKED: REMARK    6  A    between atoms: C_24  and  C_27 
DOCKED: REMARK    7  A    between atoms: C_31  and  C_34 
DOCKED: REMARK    8  A    between atoms: C_34  and  C_35 
DOCKED: REMARK    9  A    between atoms: C_35  and  C_36 
DOCKED: REMARK   10  A    between atoms: C_36  and  O_38 
DOCKED: REMARK   11  A    between atoms: FE_43  and  C_44 
DOCKED: REMARK   12  A    between atoms: C_44  and  O_45 
DOCKED: USER                              x       y       z     vdW  Elec       q    Type
DOCKED: USER                           _______ _______ _______ _____ _____    ______ ____
DOCKED: ROOT
DOCKED: ATOM      1  C   UNL d   1      -9.883   0.226   0.328 -0.35 +0.02    +0.064 A 
DOCKED: ATOM      2  C   UNL d   1     -14.405  -0.767   1.415 -0.24 +0.08    +0.064 C 
DOCKED: ATOM      3  C   UNL d   1     -13.258  -1.102   6.041 -0.24 +0.02    +0.064 A 
DOCKED: ATOM      4  C   UNL d   1      -8.714   0.289   5.003 +0.17 +0.02    +0.064 A 
DOCKED: ATOM      5  C   UNL d   1     -11.196  -0.056   0.281 -0.26 +0.04    +0.066 A 
DOCKED: ATOM      6  C   UNL d   1     -11.932   0.010  -0.918 -0.14 -0.02    -0.021 A 
DOCKED: ATOM      7  C   UNL d   1     -13.247  -0.257  -0.593 -0.17 -0.03    -0.025 A 
DOCKED: ATOM      8  C   UNL d   1     -13.255  -0.490   0.786 -0.21 +0.08    +0.066 A 
DOCKED: ATOM      9  C   UNL d   1     -14.462  -0.294  -1.534 -0.17 +0.06    +0.051 C 
DOCKED: ATOM     10  C   UNL d   1     -14.506  -1.046   2.826 -0.21 +0.06    +0.066 A 
DOCKED: ATOM     11  C   UNL d   1     -15.657  -1.480   3.519 -0.14 -0.02    -0.021 A 
DOCKED: ATOM     12  C   UNL d   1     -15.294  -1.573   4.865 -0.12 +0.00    +0.000 A 
DOCKED: ATOM     13  C   UNL d   1     -13.949  -1.203   4.892 -0.03 +0.03    +0.070 A 
DOCKED: ATOM     14  C   UNL d   1     -16.978  -1.865   2.903 -0.09 +0.04    +0.052 C 
DOCKED: ATOM     15  C   UNL d   1     -11.886  -0.686   6.256 -0.32 +0.01    +0.066 A 
DOCKED: ATOM     16  C   UNL d   1     -11.276  -0.464   7.483 -0.23 -0.00    -0.021 A 
DOCKED: ATOM     17  C   UNL d   1      -9.966  -0.060   7.188 -0.31 +0.00    +0.000 A 
DOCKED: ATOM     18  C   UNL d   1      -9.875  -0.085   5.801 -0.33 +0.02    +0.070 A 
DOCKED: ATOM     19  C   UNL d   1     -11.935  -0.635   8.834 -0.44 +0.00    +0.052 C 
DOCKED: ATOM     20  C   UNL d   1      -8.629   0.356   3.652 -0.25 +0.02    +0.066 A 
DOCKED: ATOM     21  C   UNL d   1      -7.468   0.764   3.000 -0.32 -0.00    -0.025 A 
DOCKED: ATOM     22  C   UNL d   1      -7.766   0.728   1.650 -0.30 -0.00    -0.021 A 
DOCKED: ATOM     23  C   UNL d   1      -9.109   0.308   1.546 -0.37 +0.02    +0.066 A 
DOCKED: ATOM     24  C   UNL d   1      -6.144   1.187   3.632 -0.38 +0.00    +0.051 C 
DOCKED: ATOM     25  N   UNL d   1     -11.997  -0.378   1.353 -0.17 -0.19    -0.248 N 
DOCKED: ATOM     26  N   UNL d   1     -13.460  -0.939   3.651 -0.16 -0.16    -0.248 N 
DOCKED: ATOM     27  N   UNL d   1     -11.046  -0.433   5.278 -0.19 -0.06    -0.248 N 
DOCKED: ATOM     28  N   UNL d   1      -9.636   0.084   2.755 -0.17 -0.07    -0.248 N 
DOCKED: ATOM     29 FE   UNL d   1     -11.490  -0.407   3.431 -0.07 +0.00    +0.000 Fe
DOCKED: ENDROOT
DOCKED: BRANCH   6  30
DOCKED: ATOM     30  C   UNL d   1     -11.397   0.394  -2.294 -0.28 +0.02    +0.052 C 
DOCKED: BRANCH  30  31
DOCKED: ATOM     31  C   UNL d   1     -11.732   1.850  -2.613 -0.17 +0.04    +0.115 C 
DOCKED: BRANCH  31  32
DOCKED: ATOM     32  C   UNL d   1     -11.578   2.755  -1.409 -0.19 +0.08    +0.139 C 
DOCKED: ATOM     33  O   UNL d   1     -10.742   3.646  -1.430 +0.13 -0.20    -0.650 OA
DOCKED: BRANCH  32  34
DOCKED: ATOM     34  O   UNL d   1     -12.374   2.642  -0.320 -0.34 -1.05    -0.776 OA
DOCKED: ATOM     35  H   UNL d   1     -12.259   3.153   0.493 +0.06 +0.23    +0.167 HD
DOCKED: ENDBRANCH  32  34
DOCKED: ENDBRANCH  31  32
DOCKED: ENDBRANCH  30  31
DOCKED: ENDBRANCH   6  30
DOCKED: BRANCH  29  36
DOCKED: ATOM     36  C   UNL d   1     -12.034   1.617   3.476 -0.12 +0.11    +0.190 C 
DOCKED: BRANCH  36  37
DOCKED: ATOM     37  O   UNL d   1     -12.309   2.716   2.656 -0.34 -0.38    -0.399 OA
DOCKED: ATOM     38  H   UNL d   1     -11.981   2.449   1.752 +0.10 +0.22    +0.209 HD
DOCKED: ENDBRANCH  36  37
DOCKED: ENDBRANCH  29  36
DOCKED: BRANCH  22  39
DOCKED: ATOM     39  C   UNL d   1      -6.828   1.139   0.531 -0.26 +0.01    +0.052 C 
DOCKED: BRANCH  39  40
DOCKED: ATOM     40  C   UNL d   1      -6.235   2.532   0.803 -0.40 +0.00    +0.115 C 
DOCKED: BRANCH  40  41
DOCKED: ATOM     41  C   UNL d   1      -4.753   2.647   0.517 -0.47 -0.00    +0.139 C 
DOCKED: ATOM     42  O   UNL d   1      -3.979   2.847   1.443 +0.01 +0.01    -0.650 OA
DOCKED: BRANCH  41  43
DOCKED: ATOM     43  O   UNL d   1      -4.251   2.448  -0.722 +0.04 +0.08    -0.776 OA
DOCKED: ATOM     44  H   UNL d   1      -4.406   1.635  -1.221 -0.44 -0.05    +0.167 HD
DOCKED: ENDBRANCH  41  43
DOCKED: ENDBRANCH  40  41
DOCKED: ENDBRANCH  39  40
DOCKED: ENDBRANCH  22  39
DOCKED: BRANCH  12  45
DOCKED: ATOM     45  C   UNL d   1     -16.053  -1.986   6.120 -0.18 +0.00    +0.004 C 
DOCKED: ATOM     46  C   UNL d   1     -15.748  -2.872   7.064 -0.28 +0.00    +0.012 C 
DOCKED: ENDBRANCH  12  45
DOCKED: BRANCH  17  47
DOCKED: ATOM     47  C   UNL d   1      -8.872   0.373   8.108 -0.45 +0.00    +0.004 C 
DOCKED: ATOM     48  C   UNL d   1      -7.696  -0.253   8.201 -0.46 +0.00    +0.012 C 
DOCKED: ENDBRANCH  17  47
DOCKED: TORSDOF 12
DOCKED: TER
DOCKED: ENDMDL
________________________________________________________________________________


	BEGINNING GENETIC ALGORITHM DOCKING 13 of 100
Run: 13 Seed: 1587599808 1494413941 [ Run 13 of 100 GA/GALS ]
Beginning LAMARCKIAN GENETIC ALGORITHM (LGA), with a maximum of 25000000 energy evaluations.

Final-Value: -11.924


	FINAL GENETIC ALGORITHM DOCKED STATE
	_______________________________________________


Detailed state:  trans -13.786 7.884 -2.977 quatxyzw 0.866631 0.091594 -0.457260 0.177412 center 8.781 34.984 -0.736 ntor 12 140.7543 90.6525 -73.0534 121.8009 -29.3009 121.3840 -120.5217 -14.0711 -126.9531 -178.5094 -177.9859 176.2588
State:	-13.786   7.884  -2.977   0.881  0.093 -0.465 159.562    140.75   90.65  -73.05  121.80  -29.30  121.38 -120.52  -14.07 -126.95 -178.51 -177.99  176.26

DOCKED: MODEL       13
DOCKED: USER    Run = 13
DOCKED: USER    DPF = D:/Protein_go_brrr/autodock/final/AncMH_nat/heme_Co/dock.dpf
DOCKED: USER  
DOCKED: USER    Estimated Free Energy of Binding    =   -4.46 kcal/mol  [=(1)+(2)+(3)-(4)]
DOCKED: USER    Estimated Inhibition Constant, Ki   =  535.09 uM (micromolar)  [Temperature = 298.15 K]
DOCKED: USER    
DOCKED: USER    (1) Final Intermolecular Energy     =   -8.04 kcal/mol
DOCKED: USER        vdW + Hbond + desolv Energy     =   -6.55 kcal/mol
DOCKED: USER        Electrostatic Energy            =   -1.49 kcal/mol
DOCKED: USER    (2) Final Total Internal Energy     =   -3.88 kcal/mol
DOCKED: USER    (3) Torsional Free Energy           =   +3.58 kcal/mol
DOCKED: USER    (4) Unbound System's Energy  [=(2)] =   -3.88 kcal/mol
DOCKED: USER    
DOCKED: USER    
DOCKED: USER    NEWDPF move heme_Co_opt.pdbqt
DOCKED: USER    NEWDPF about 8.781000 34.984000 -0.736000
DOCKED: USER    NEWDPF tran0 -13.786111 7.883848 -2.976607
DOCKED: USER    NEWDPF quaternion0 0.866631 0.091594 -0.457260 0.177412
DOCKED: USER    NEWDPF axisangle0 0.880600 0.093071 -0.464631 159.561905
DOCKED: USER    NEWDPF quat0 0.880600 0.093071 -0.464631 159.561905
DOCKED: USER    NEWDPF dihe0 140.75 90.65 -73.05 121.80 -29.30 121.38 -120.52 -14.07 -126.95 -178.51 -177.99 176.26 
DOCKED: USER  keepresnum = 1 
DOCKED: USER  
DOCKED: REMARK  12 active torsions:
DOCKED: REMARK  status: ('A' for Active; 'I' for Inactive)
DOCKED: REMARK    1  A    between atoms: C_6  and  C_10 
DOCKED: REMARK    2  A    between atoms: C_10  and  C_11 
DOCKED: REMARK    3  A    between atoms: C_11  and  C_12 
DOCKED: REMARK    4  A    between atoms: C_12  and  O_14 
DOCKED: REMARK    5  A    between atoms: C_17  and  C_20 
DOCKED: REMARK    6  A    between atoms: C_24  and  C_27 
DOCKED: REMARK    7  A    between atoms: C_31  and  C_34 
DOCKED: REMARK    8  A    between atoms: C_34  and  C_35 
DOCKED: REMARK    9  A    between atoms: C_35  and  C_36 
DOCKED: REMARK   10  A    between atoms: C_36  and  O_38 
DOCKED: REMARK   11  A    between atoms: FE_43  and  C_44 
DOCKED: REMARK   12  A    between atoms: C_44  and  O_45 
DOCKED: USER                              x       y       z     vdW  Elec       q    Type
DOCKED: USER                           _______ _______ _______ _____ _____    ______ ____
DOCKED: ROOT
DOCKED: ATOM      1  C   UNL d   1     -14.180   6.613  -1.260 -0.28 +0.03    +0.064 A 
DOCKED: ATOM      2  C   UNL d   1     -16.541  10.301  -3.114 -0.09 +0.00    +0.064 C 
DOCKED: ATOM      3  C   UNL d   1     -13.038  10.995  -6.289 -0.15 -0.01    +0.064 A 
DOCKED: ATOM      4  C   UNL d   1     -10.791   6.998  -4.665 -0.26 -0.02    +0.064 A 
DOCKED: ATOM      5  C   UNL d   1     -15.065   7.592  -1.510 -0.22 +0.02    +0.066 A 
DOCKED: ATOM      6  C   UNL d   1     -16.289   7.687  -0.820 -0.20 -0.01    -0.021 A 
DOCKED: ATOM      7  C   UNL d   1     -16.980   8.745  -1.377 -0.11 -0.00    -0.025 A 
DOCKED: ATOM      8  C   UNL d   1     -16.142   9.260  -2.372 -0.11 +0.01    +0.066 A 
DOCKED: ATOM      9  C   UNL d   1     -18.377   9.262  -1.000 -0.05 +0.00    +0.051 C 
DOCKED: ATOM     10  C   UNL d   1     -15.737  10.915  -4.141 -0.08 +0.00    +0.066 A 
DOCKED: ATOM     11  C   UNL d   1     -16.039  12.093  -4.858 -0.07 +0.00    -0.021 A 
DOCKED: ATOM     12  C   UNL d   1     -15.000  12.275  -5.774 -0.09 -0.00    +0.000 A 
DOCKED: ATOM     13  C   UNL d   1     -14.136  11.204  -5.541 -0.11 -0.00    +0.070 A 
DOCKED: ATOM     14  C   UNL d   1     -17.200  13.020  -4.602 -0.03 -0.00    +0.052 C 
DOCKED: ATOM     15  C   UNL d   1     -12.070   9.919  -6.221 -0.20 -0.01    +0.066 A 
DOCKED: ATOM     16  C   UNL d   1     -11.038   9.682  -7.118 -0.26 +0.00    -0.021 A 
DOCKED: ATOM     17  C   UNL d   1     -10.389   8.529  -6.656 -0.30 -0.00    +0.000 A 
DOCKED: ATOM     18  C   UNL d   1     -11.068   8.161  -5.499 -0.27 -0.02    +0.070 A 
DOCKED: ATOM     19  C   UNL d   1     -10.721  10.526  -8.333 -0.25 -0.01    +0.052 C 
DOCKED: ATOM     20  C   UNL d   1     -11.491   6.573  -3.586 -0.24 -0.00    +0.066 A 
DOCKED: ATOM     21  C   UNL d   1     -11.148   5.418  -2.886 -0.24 -0.00    -0.025 A 
DOCKED: ATOM     22  C   UNL d   1     -12.091   5.297  -1.881 -0.24 -0.01    -0.021 A 
DOCKED: ATOM     23  C   UNL d   1     -12.975   6.387  -2.026 -0.27 +0.02    +0.066 A 
DOCKED: ATOM     24  C   UNL d   1      -9.992   4.464  -3.173 -0.29 -0.01    +0.051 C 
DOCKED: ATOM     25  N   UNL d   1     -14.946   8.569  -2.472 -0.04 -0.03    -0.248 N 
DOCKED: ATOM     26  N   UNL d   1     -14.555  10.415  -4.516 -0.04 -0.00    -0.248 N 
DOCKED: ATOM     27  N   UNL d   1     -12.081   8.994  -5.288 -0.14 +0.03    -0.248 N 
DOCKED: ATOM     28  N   UNL d   1     -12.617   7.160  -3.058 -0.16 -0.02    -0.248 N 
DOCKED: ATOM     29 FE   UNL d   1     -13.427   8.791  -3.962 -0.05 +0.00    +0.000 Fe
DOCKED: ENDROOT
DOCKED: BRANCH   6  30
DOCKED: ATOM     30  C   UNL d   1     -16.795   6.746   0.269 -0.19 +0.03    +0.052 C 
DOCKED: BRANCH  30  31
DOCKED: ATOM     31  C   UNL d   1     -17.672   5.649  -0.335 -0.13 +0.10    +0.115 C 
DOCKED: BRANCH  31  32
DOCKED: ATOM     32  C   UNL d   1     -17.003   4.948  -1.497 -0.09 +0.13    +0.139 C 
DOCKED: ATOM     33  O   UNL d   1     -16.630   3.792  -1.367 -0.31 -1.15    -0.650 OA
DOCKED: BRANCH  32  34
DOCKED: ATOM     34  O   UNL d   1     -16.844   5.546  -2.701 +0.03 -0.37    -0.776 OA
DOCKED: ATOM     35  H   UNL d   1     -16.033   5.505  -3.225 +0.02 +0.07    +0.167 HD
DOCKED: ENDBRANCH  32  34
DOCKED: ENDBRANCH  31  32
DOCKED: ENDBRANCH  30  31
DOCKED: ENDBRANCH   6  30
DOCKED: BRANCH  29  36
DOCKED: ATOM     36  C   UNL d   1     -14.603   7.560  -5.184 -0.04 +0.01    +0.190 C 
DOCKED: BRANCH  36  37
DOCKED: ATOM     37  O   UNL d   1     -15.490   6.479  -5.152 +0.00 -0.04    -0.399 OA
DOCKED: ATOM     38  H   UNL d   1     -15.287   6.005  -4.298 +0.03 +0.04    +0.209 HD
DOCKED: ENDBRANCH  36  37
DOCKED: ENDBRANCH  29  36
DOCKED: BRANCH  22  39
DOCKED: ATOM     39  C   UNL d   1     -12.169   4.159  -0.881 -0.20 +0.04    +0.052 C 
DOCKED: BRANCH  39  40
DOCKED: ATOM     40  C   UNL d   1     -12.893   2.948  -1.492 -0.12 +0.13    +0.115 C 
DOCKED: BRANCH  40  41
DOCKED: ATOM     41  C   UNL d   1     -13.442   3.185  -2.883 -0.09 +0.08    +0.139 C 
DOCKED: ATOM     42  O   UNL d   1     -13.107   2.440  -3.793 +0.05 -0.20    -0.650 OA
DOCKED: BRANCH  41  43
DOCKED: ATOM     43  O   UNL d   1     -14.360   4.145  -3.131 +0.03 -0.44    -0.776 OA
DOCKED: ATOM     44  H   UNL d   1     -15.260   4.105  -2.781 +0.02 +0.13    +0.167 HD
DOCKED: ENDBRANCH  41  43
DOCKED: ENDBRANCH  40  41
DOCKED: ENDBRANCH  39  40
DOCKED: ENDBRANCH  22  39
DOCKED: BRANCH  12  45
DOCKED: ATOM     45  C   UNL d   1     -14.715  13.340  -6.824 -0.06 -0.00    +0.004 C 
DOCKED: ATOM     46  C   UNL d   1     -13.748  14.252  -6.892 -0.09 -0.00    +0.012 C 
DOCKED: ENDBRANCH  12  45
DOCKED: BRANCH  17  47
DOCKED: ATOM     47  C   UNL d   1      -9.249   7.771  -7.253 -0.25 -0.00    +0.004 C 
DOCKED: ATOM     48  C   UNL d   1      -9.220   7.364  -8.524 -0.33 -0.01    +0.012 C 
DOCKED: ENDBRANCH  17  47
DOCKED: TORSDOF 12
DOCKED: TER
DOCKED: ENDMDL
________________________________________________________________________________


	BEGINNING GENETIC ALGORITHM DOCKING 14 of 100
Run: 14 Seed: 1230956762 885976817 [ Run 14 of 100 GA/GALS ]
Beginning LAMARCKIAN GENETIC ALGORITHM (LGA), with a maximum of 25000000 energy evaluations.

Final-Value: -10.689


	FINAL GENETIC ALGORITHM DOCKED STATE
	_______________________________________________


Detailed state:  trans -15.468 -2.123 2.175 quatxyzw -0.319499 0.495294 0.528958 -0.610580 center 8.781 34.984 -0.736 ntor 12 100.1875 149.2394 -26.0859 113.3456 137.1230 6.9518 -4.6214 -54.0432 -13.3795 -166.7321 -35.0103 -18.3382
State:	-15.468  -2.123   2.175  -0.403  0.625  0.668 -104.737    100.19  149.24  -26.09  113.35  137.12    6.95   -4.62  -54.04  -13.38 -166.73  -35.01  -18.34

DOCKED: MODEL       14
DOCKED: USER    Run = 14
DOCKED: USER    DPF = D:/Protein_go_brrr/autodock/final/AncMH_nat/heme_Co/dock.dpf
DOCKED: USER  
DOCKED: USER    Estimated Free Energy of Binding    =   -6.42 kcal/mol  [=(1)+(2)+(3)-(4)]
DOCKED: USER    Estimated Inhibition Constant, Ki   =   19.78 uM (micromolar)  [Temperature = 298.15 K]
DOCKED: USER    
DOCKED: USER    (1) Final Intermolecular Energy     =  -10.00 kcal/mol
DOCKED: USER        vdW + Hbond + desolv Energy     =   -8.00 kcal/mol
DOCKED: USER        Electrostatic Energy            =   -2.00 kcal/mol
DOCKED: USER    (2) Final Total Internal Energy     =   -0.69 kcal/mol
DOCKED: USER    (3) Torsional Free Energy           =   +3.58 kcal/mol
DOCKED: USER    (4) Unbound System's Energy  [=(2)] =   -0.69 kcal/mol
DOCKED: USER    
DOCKED: USER    
DOCKED: USER    NEWDPF move heme_Co_opt.pdbqt
DOCKED: USER    NEWDPF about 8.781000 34.984000 -0.736000
DOCKED: USER    NEWDPF tran0 -15.467750 -2.122913 2.175114
DOCKED: USER    NEWDPF quaternion0 -0.319499 0.495294 0.528958 -0.610580
DOCKED: USER    NEWDPF axisangle0 -0.403430 0.625407 0.667914 -104.737154
DOCKED: USER    NEWDPF quat0 -0.403430 0.625407 0.667914 -104.737154
DOCKED: USER    NEWDPF dihe0 100.19 149.24 -26.09 113.35 137.12 6.95 -4.62 -54.04 -13.38 -166.73 -35.01 -18.34 
DOCKED: USER  keepresnum = 1 
DOCKED: USER  
DOCKED: REMARK  12 active torsions:
DOCKED: REMARK  status: ('A' for Active; 'I' for Inactive)
DOCKED: REMARK    1  A    between atoms: C_6  and  C_10 
DOCKED: REMARK    2  A    between atoms: C_10  and  C_11 
DOCKED: REMARK    3  A    between atoms: C_11  and  C_12 
DOCKED: REMARK    4  A    between atoms: C_12  and  O_14 
DOCKED: REMARK    5  A    between atoms: C_17  and  C_20 
DOCKED: REMARK    6  A    between atoms: C_24  and  C_27 
DOCKED: REMARK    7  A    between atoms: C_31  and  C_34 
DOCKED: REMARK    8  A    between atoms: C_34  and  C_35 
DOCKED: REMARK    9  A    between atoms: C_35  and  C_36 
DOCKED: REMARK   10  A    between atoms: C_36  and  O_38 
DOCKED: REMARK   11  A    between atoms: FE_43  and  C_44 
DOCKED: REMARK   12  A    between atoms: C_44  and  O_45 
DOCKED: USER                              x       y       z     vdW  Elec       q    Type
DOCKED: USER                           _______ _______ _______ _____ _____    ______ ____
DOCKED: ROOT
DOCKED: ATOM      1  C   UNL d   1     -16.078  -3.420   3.807 -0.10 +0.04    +0.064 A 
DOCKED: ATOM      2  C   UNL d   1     -12.584  -0.219   3.404 -0.30 +0.04    +0.064 C 
DOCKED: ATOM      3  C   UNL d   1     -13.675   0.448  -1.200 -0.13 +0.08    +0.064 A 
DOCKED: ATOM      4  C   UNL d   1     -17.491  -2.529  -0.713 -0.06 +0.06    +0.064 A 
DOCKED: ATOM      5  C   UNL d   1     -15.020  -2.621   4.025 -0.16 +0.04    +0.066 A 
DOCKED: ATOM      6  C   UNL d   1     -14.441  -2.480   5.302 -0.24 -0.01    -0.021 A 
DOCKED: ATOM      7  C   UNL d   1     -13.443  -1.533   5.184 -0.30 -0.01    -0.025 A 
DOCKED: ATOM      8  C   UNL d   1     -13.444  -1.149   3.838 -0.20 +0.04    +0.066 A 
DOCKED: ATOM      9  C   UNL d   1     -12.515  -0.999   6.286 -0.38 +0.01    +0.051 C 
DOCKED: ATOM     10  C   UNL d   1     -12.494   0.220   2.034 -0.26 +0.06    +0.066 A 
DOCKED: ATOM     11  C   UNL d   1     -11.523   1.087   1.487 -0.29 -0.02    -0.021 A 
DOCKED: ATOM     12  C   UNL d   1     -11.863   1.261   0.143 -0.24 +0.00    +0.000 A 
DOCKED: ATOM     13  C   UNL d   1     -13.005   0.480  -0.034 -0.13 +0.10    +0.070 A 
DOCKED: ATOM     14  C   UNL d   1     -10.307   1.624   2.197 -0.21 +0.02    +0.052 C 
DOCKED: ATOM     15  C   UNL d   1     -14.894  -0.259  -1.541 -0.14 +0.08    +0.066 A 
DOCKED: ATOM     16  C   UNL d   1     -15.615  -0.135  -2.720 -0.09 -0.02    -0.021 A 
DOCKED: ATOM     17  C   UNL d   1     -16.718  -0.990  -2.584 -0.08 +0.00    +0.000 A 
DOCKED: ATOM     18  C   UNL d   1     -16.573  -1.583  -1.334 -0.10 +0.07    +0.070 A 
DOCKED: ATOM     19  C   UNL d   1     -15.244   0.756  -3.885 -0.04 +0.03    +0.052 C 
DOCKED: ATOM     20  C   UNL d   1     -17.417  -3.053   0.534 -0.03 +0.07    +0.066 A 
DOCKED: ATOM     21  C   UNL d   1     -18.381  -3.926   1.032 -0.07 -0.02    -0.025 A 
DOCKED: ATOM     22  C   UNL d   1     -17.985  -4.223   2.323 -0.08 -0.02    -0.021 A 
DOCKED: ATOM     23  C   UNL d   1     -16.795  -3.500   2.555 -0.07 +0.06    +0.066 A 
DOCKED: ATOM     24  C   UNL d   1     -19.631  -4.439   0.320 -0.04 +0.03    +0.051 C 
DOCKED: ATOM     25  N   UNL d   1     -14.407  -1.811   3.096 -0.14 -0.20    -0.248 N 
DOCKED: ATOM     26  N   UNL d   1     -13.353  -0.193   1.095 -0.15 -0.31    -0.248 N 
DOCKED: ATOM     27  N   UNL d   1     -15.493  -1.101  -0.729 -0.12 -0.32    -0.248 N 
DOCKED: ATOM     28  N   UNL d   1     -16.450  -2.788   1.475 -0.02 -0.28    -0.248 N 
DOCKED: ATOM     29 FE   UNL d   1     -14.985  -1.438   1.070 -0.04 +0.00    +0.000 Fe
DOCKED: ENDROOT
DOCKED: BRANCH   6  30
DOCKED: ATOM     30  C   UNL d   1     -14.891  -3.169   6.586 -0.31 +0.01    +0.052 C 
DOCKED: BRANCH  30  31
DOCKED: ATOM     31  C   UNL d   1     -15.064  -4.670   6.358 -0.33 +0.04    +0.115 C 
DOCKED: BRANCH  31  32
DOCKED: ATOM     32  C   UNL d   1     -15.145  -5.446   7.655 -0.30 +0.05    +0.139 C 
DOCKED: ATOM     33  O   UNL d   1     -14.493  -6.471   7.784 -0.37 -0.32    -0.650 OA
DOCKED: BRANCH  32  34
DOCKED: ATOM     34  O   UNL d   1     -15.883  -5.014   8.704 -0.13 -0.21    -0.776 OA
DOCKED: ATOM     35  H   UNL d   1     -16.785  -5.307   8.892 -0.51 -0.01    +0.167 HD
DOCKED: ENDBRANCH  32  34
DOCKED: ENDBRANCH  31  32
DOCKED: ENDBRANCH  30  31
DOCKED: ENDBRANCH   6  30
DOCKED: BRANCH  29  36
DOCKED: ATOM     36  C   UNL d   1     -16.179   0.116   1.816 +0.31 +0.35    +0.190 C 
DOCKED: BRANCH  36  37
DOCKED: ATOM     37  O   UNL d   1     -17.373   0.808   1.593 -0.34 -0.76    -0.399 OA
DOCKED: ATOM     38  H   UNL d   1     -18.011   0.118   1.258 +0.04 +0.28    +0.209 HD
DOCKED: ENDBRANCH  36  37
DOCKED: ENDBRANCH  29  36
DOCKED: BRANCH  22  39
DOCKED: ATOM     39  C   UNL d   1     -18.746  -5.101   3.298 -0.09 +0.03    +0.052 C 
DOCKED: BRANCH  39  40
DOCKED: ATOM     40  C   UNL d   1     -18.432  -6.586   3.050 -0.13 +0.05    +0.115 C 
DOCKED: BRANCH  40  41
DOCKED: ATOM     41  C   UNL d   1     -17.325  -6.831   2.046 -0.13 +0.11    +0.139 C 
DOCKED: ATOM     42  O   UNL d   1     -16.161  -6.799   2.420 -0.47 -0.62    -0.650 OA
DOCKED: BRANCH  41  43
DOCKED: ATOM     43  O   UNL d   1     -17.590  -7.171   0.765 -0.42 -0.75    -0.776 OA
DOCKED: ATOM     44  H   UNL d   1     -18.439  -7.540   0.491 +0.02 +0.10    +0.167 HD
DOCKED: ENDBRANCH  41  43
DOCKED: ENDBRANCH  40  41
DOCKED: ENDBRANCH  39  40
DOCKED: ENDBRANCH  22  39
DOCKED: BRANCH  12  45
DOCKED: ATOM     45  C   UNL d   1     -11.232   2.056  -0.993 -0.29 +0.00    +0.004 C 
DOCKED: ATOM     46  C   UNL d   1     -10.513   1.652  -2.037 -0.33 +0.00    +0.012 C 
DOCKED: ENDBRANCH  12  45
DOCKED: BRANCH  17  47
DOCKED: ATOM     47  C   UNL d   1     -17.866  -1.220  -3.510 -0.02 +0.00    +0.004 C 
DOCKED: ATOM     48  C   UNL d   1     -18.106  -2.389  -4.110 -0.03 +0.01    +0.012 C 
DOCKED: ENDBRANCH  17  47
DOCKED: TORSDOF 12
DOCKED: TER
DOCKED: ENDMDL
________________________________________________________________________________


	BEGINNING GENETIC ALGORITHM DOCKING 15 of 100
Run: 15 Seed: 1664263340 2143130891 [ Run 15 of 100 GA/GALS ]
Beginning LAMARCKIAN GENETIC ALGORITHM (LGA), with a maximum of 25000000 energy evaluations.

Final-Value: -11.230


	FINAL GENETIC ALGORITHM DOCKED STATE
	_______________________________________________


Detailed state:  trans -13.848 7.843 -3.391 quatxyzw -0.859007 -0.086930 0.430491 -0.263111 center 8.781 34.984 -0.736 ntor 12 -151.0915 94.3074 38.3835 120.9530 -16.3725 128.4285 -112.7352 100.0209 -77.0348 26.8636 -167.2321 -163.3575
State:	-13.848   7.843  -3.391  -0.890 -0.090  0.446 -149.490   -151.09   94.31   38.38  120.95  -16.37  128.43 -112.74  100.02  -77.03   26.86 -167.23 -163.36

DOCKED: MODEL       15
DOCKED: USER    Run = 15
DOCKED: USER    DPF = D:/Protein_go_brrr/autodock/final/AncMH_nat/heme_Co/dock.dpf
DOCKED: USER  
DOCKED: USER    Estimated Free Energy of Binding    =   -5.67 kcal/mol  [=(1)+(2)+(3)-(4)]
DOCKED: USER    Estimated Inhibition Constant, Ki   =   69.67 uM (micromolar)  [Temperature = 298.15 K]
DOCKED: USER    
DOCKED: USER    (1) Final Intermolecular Energy     =   -9.25 kcal/mol
DOCKED: USER        vdW + Hbond + desolv Energy     =   -6.07 kcal/mol
DOCKED: USER        Electrostatic Energy            =   -3.18 kcal/mol
DOCKED: USER    (2) Final Total Internal Energy     =   -1.98 kcal/mol
DOCKED: USER    (3) Torsional Free Energy           =   +3.58 kcal/mol
DOCKED: USER    (4) Unbound System's Energy  [=(2)] =   -1.98 kcal/mol
DOCKED: USER    
DOCKED: USER    
DOCKED: USER    NEWDPF move heme_Co_opt.pdbqt
DOCKED: USER    NEWDPF about 8.781000 34.984000 -0.736000
DOCKED: USER    NEWDPF tran0 -13.847841 7.843350 -3.391485
DOCKED: USER    NEWDPF quaternion0 -0.859007 -0.086930 0.430491 -0.263111
DOCKED: USER    NEWDPF axisangle0 -0.890379 -0.090104 0.446213 -149.490492
DOCKED: USER    NEWDPF quat0 -0.890379 -0.090104 0.446213 -149.490492
DOCKED: USER    NEWDPF dihe0 -151.09 94.31 38.38 120.95 -16.37 128.43 -112.74 100.02 -77.03 26.86 -167.23 -163.36 
DOCKED: USER  keepresnum = 1 
DOCKED: USER  
DOCKED: REMARK  12 active torsions:
DOCKED: REMARK  status: ('A' for Active; 'I' for Inactive)
DOCKED: REMARK    1  A    between atoms: C_6  and  C_10 
DOCKED: REMARK    2  A    between atoms: C_10  and  C_11 
DOCKED: REMARK    3  A    between atoms: C_11  and  C_12 
DOCKED: REMARK    4  A    between atoms: C_12  and  O_14 
DOCKED: REMARK    5  A    between atoms: C_17  and  C_20 
DOCKED: REMARK    6  A    between atoms: C_24  and  C_27 
DOCKED: REMARK    7  A    between atoms: C_31  and  C_34 
DOCKED: REMARK    8  A    between atoms: C_34  and  C_35 
DOCKED: REMARK    9  A    between atoms: C_35  and  C_36 
DOCKED: REMARK   10  A    between atoms: C_36  and  O_38 
DOCKED: REMARK   11  A    between atoms: FE_43  and  C_44 
DOCKED: REMARK   12  A    between atoms: C_44  and  O_45 
DOCKED: USER                              x       y       z     vdW  Elec       q    Type
DOCKED: USER                           _______ _______ _______ _____ _____    ______ ____
DOCKED: ROOT
DOCKED: ATOM      1  C   UNL d   1     -14.407   6.373  -1.895 -0.20 +0.03    +0.064 A 
DOCKED: ATOM      2  C   UNL d   1     -16.362  10.507  -3.200 -0.10 +0.00    +0.064 C 
DOCKED: ATOM      3  C   UNL d   1     -12.719  11.331  -6.180 -0.16 -0.01    +0.064 A 
DOCKED: ATOM      4  C   UNL d   1     -10.900   6.939  -5.150 -0.23 -0.02    +0.064 A 
DOCKED: ATOM      5  C   UNL d   1     -15.191   7.459  -2.005 -0.17 +0.02    +0.066 A 
DOCKED: ATOM      6  C   UNL d   1     -16.420   7.566  -1.327 -0.15 -0.01    -0.021 A 
DOCKED: ATOM      7  C   UNL d   1     -16.994   8.756  -1.727 -0.10 -0.00    -0.025 A 
DOCKED: ATOM      8  C   UNL d   1     -16.083   9.333  -2.619 -0.08 +0.01    +0.066 A 
DOCKED: ATOM      9  C   UNL d   1     -18.347   9.343  -1.296 -0.05 +0.00    +0.051 C 
DOCKED: ATOM     10  C   UNL d   1     -15.475  11.188  -4.110 -0.06 -0.00    +0.066 A 
DOCKED: ATOM     11  C   UNL d   1     -15.646  12.484  -4.643 -0.09 +0.00    -0.021 A 
DOCKED: ATOM     12  C   UNL d   1     -14.568  12.700  -5.505 -0.12 -0.00    +0.000 A 
DOCKED: ATOM     13  C   UNL d   1     -13.814  11.529  -5.425 -0.10 -0.00    +0.070 A 
DOCKED: ATOM     14  C   UNL d   1     -16.723  13.469  -4.266 -0.05 -0.00    +0.052 C 
DOCKED: ATOM     15  C   UNL d   1     -11.857  10.169  -6.263 -0.22 -0.01    +0.066 A 
DOCKED: ATOM     16  C   UNL d   1     -10.826   9.972  -7.170 -0.28 +0.00    -0.021 A 
DOCKED: ATOM     17  C   UNL d   1     -10.299   8.705  -6.879 -0.29 -0.00    +0.000 A 
DOCKED: ATOM     18  C   UNL d   1     -11.043   8.235  -5.801 -0.26 -0.02    +0.070 A 
DOCKED: ATOM     19  C   UNL d   1     -10.397  10.954  -8.237 -0.30 -0.01    +0.052 C 
DOCKED: ATOM     20  C   UNL d   1     -11.667   6.425  -4.159 -0.18 -0.01    +0.066 A 
DOCKED: ATOM     21  C   UNL d   1     -11.453   5.150  -3.639 -0.17 +0.00    -0.025 A 
DOCKED: ATOM     22  C   UNL d   1     -12.432   4.971  -2.678 -0.16 -0.01    -0.021 A 
DOCKED: ATOM     23  C   UNL d   1     -13.207   6.150  -2.668 -0.17 +0.02    +0.066 A 
DOCKED: ATOM     24  C   UNL d   1     -10.382   4.144  -4.050 -0.26 -0.02    +0.051 C 
DOCKED: ATOM     25  N   UNL d   1     -14.954   8.553  -2.806 -0.06 -0.03    -0.248 N 
DOCKED: ATOM     26  N   UNL d   1     -14.334  10.638  -4.539 -0.02 -0.00    -0.248 N 
DOCKED: ATOM     27  N   UNL d   1     -11.981   9.119  -5.481 -0.14 +0.03    -0.248 N 
DOCKED: ATOM     28  N   UNL d   1     -12.749   7.031  -3.565 -0.11 -0.01    -0.248 N 
DOCKED: ATOM     29 FE   UNL d   1     -13.378   8.850  -4.222 -0.05 +0.00    +0.000 Fe
DOCKED: ENDROOT
DOCKED: BRANCH   6  30
DOCKED: ATOM     30  C   UNL d   1     -17.042   6.524  -0.402 -0.17 +0.03    +0.052 C 
DOCKED: BRANCH  30  31
DOCKED: ATOM     31  C   UNL d   1     -17.786   5.462  -1.212 -0.09 +0.08    +0.115 C 
DOCKED: BRANCH  31  32
DOCKED: ATOM     32  C   UNL d   1     -16.986   4.186  -1.361 +0.03 +0.19    +0.139 C 
DOCKED: ATOM     33  O   UNL d   1     -17.422   3.145  -0.892 -0.10 -1.09    -0.650 OA
DOCKED: BRANCH  32  34
DOCKED: ATOM     34  O   UNL d   1     -15.818   4.147  -2.044 -0.52 -0.96    -0.776 OA
DOCKED: ATOM     35  H   UNL d   1     -15.455   3.350  -2.455 +0.01 +0.20    +0.167 HD
DOCKED: ENDBRANCH  32  34
DOCKED: ENDBRANCH  31  32
DOCKED: ENDBRANCH  30  31
DOCKED: ENDBRANCH   6  30
DOCKED: BRANCH  29  36
DOCKED: ATOM     36  C   UNL d   1     -14.627   7.934  -5.634 -0.04 +0.00    +0.190 C 
DOCKED: BRANCH  36  37
DOCKED: ATOM     37  O   UNL d   1     -15.682   7.025  -5.766 +0.00 -0.02    -0.399 OA
DOCKED: ATOM     38  H   UNL d   1     -15.678   6.503  -4.916 +0.02 +0.02    +0.209 HD
DOCKED: ENDBRANCH  36  37
DOCKED: ENDBRANCH  29  36
DOCKED: BRANCH  22  39
DOCKED: ATOM     39  C   UNL d   1     -12.644   3.708  -1.864 -0.19 +0.04    +0.052 C 
DOCKED: BRANCH  39  40
DOCKED: ATOM     40  C   UNL d   1     -12.988   2.523  -2.780 -0.10 +0.07    +0.115 C 
DOCKED: BRANCH  40  41
DOCKED: ATOM     41  C   UNL d   1     -13.699   1.381  -2.085 -0.11 +0.14    +0.139 C 
DOCKED: ATOM     42  O   UNL d   1     -13.199   0.265  -2.104 +0.00 -0.53    -0.650 OA
DOCKED: BRANCH  41  43
DOCKED: ATOM     43  O   UNL d   1     -14.828   1.578  -1.368 +0.46 -1.64    -0.776 OA
DOCKED: ATOM     44  H   UNL d   1     -15.556   2.127  -1.687 +0.02 +0.35    +0.167 HD
DOCKED: ENDBRANCH  41  43
DOCKED: ENDBRANCH  40  41
DOCKED: ENDBRANCH  39  40
DOCKED: ENDBRANCH  22  39
DOCKED: BRANCH  12  45
DOCKED: ATOM     45  C   UNL d   1     -14.155  13.879  -6.376 -0.09 -0.00    +0.004 C 
DOCKED: ATOM     46  C   UNL d   1     -13.114  14.703  -6.282 -0.15 -0.00    +0.012 C 
DOCKED: ENDBRANCH  12  45
DOCKED: BRANCH  17  47
DOCKED: ATOM     47  C   UNL d   1      -9.217   7.940  -7.567 -0.34 -0.00    +0.004 C 
DOCKED: ATOM     48  C   UNL d   1      -9.047   7.934  -8.892 -0.38 -0.01    +0.012 C 
DOCKED: ENDBRANCH  17  47
DOCKED: TORSDOF 12
DOCKED: TER
DOCKED: ENDMDL
________________________________________________________________________________


	BEGINNING GENETIC ALGORITHM DOCKING 16 of 100
Run: 16 Seed: 1641937137 535748112 [ Run 16 of 100 GA/GALS ]
Beginning LAMARCKIAN GENETIC ALGORITHM (LGA), with a maximum of 25000000 energy evaluations.

Final-Value: -9.488


	FINAL GENETIC ALGORITHM DOCKED STATE
	_______________________________________________


Detailed state:  trans -16.889 -1.856 7.702 quatxyzw 0.078374 -0.026530 0.995333 0.049665 center 8.781 34.984 -0.736 ntor 12 -95.2504 -50.9211 119.2730 105.9390 -89.0353 171.8297 101.1632 160.6356 -32.4001 -43.1615 -5.8658 -170.1258
State:	-16.889  -1.856   7.702   0.078 -0.027  0.997 174.306    -95.25  -50.92  119.27  105.94  -89.04  171.83  101.16  160.64  -32.40  -43.16   -5.87 -170.13

DOCKED: MODEL       16
DOCKED: USER    Run = 16
DOCKED: USER    DPF = D:/Protein_go_brrr/autodock/final/AncMH_nat/heme_Co/dock.dpf
DOCKED: USER  
DOCKED: USER    Estimated Free Energy of Binding    =   -5.13 kcal/mol  [=(1)+(2)+(3)-(4)]
DOCKED: USER    Estimated Inhibition Constant, Ki   =  173.17 uM (micromolar)  [Temperature = 298.15 K]
DOCKED: USER    
DOCKED: USER    (1) Final Intermolecular Energy     =   -8.71 kcal/mol
DOCKED: USER        vdW + Hbond + desolv Energy     =   -7.46 kcal/mol
DOCKED: USER        Electrostatic Energy            =   -1.25 kcal/mol
DOCKED: USER    (2) Final Total Internal Energy     =   -0.78 kcal/mol
DOCKED: USER    (3) Torsional Free Energy           =   +3.58 kcal/mol
DOCKED: USER    (4) Unbound System's Energy  [=(2)] =   -0.78 kcal/mol
DOCKED: USER    
DOCKED: USER    
DOCKED: USER    NEWDPF move heme_Co_opt.pdbqt
DOCKED: USER    NEWDPF about 8.781000 34.984000 -0.736000
DOCKED: USER    NEWDPF tran0 -16.888568 -1.855660 7.702400
DOCKED: USER    NEWDPF quaternion0 0.078374 -0.026530 0.995333 0.049665
DOCKED: USER    NEWDPF axisangle0 0.078471 -0.026562 0.996562 174.306472
DOCKED: USER    NEWDPF quat0 0.078471 -0.026562 0.996562 174.306472
DOCKED: USER    NEWDPF dihe0 -95.25 -50.92 119.27 105.94 -89.04 171.83 101.16 160.64 -32.40 -43.16 -5.87 -170.13 
DOCKED: USER  keepresnum = 1 
DOCKED: USER  
DOCKED: REMARK  12 active torsions:
DOCKED: REMARK  status: ('A' for Active; 'I' for Inactive)
DOCKED: REMARK    1  A    between atoms: C_6  and  C_10 
DOCKED: REMARK    2  A    between atoms: C_10  and  C_11 
DOCKED: REMARK    3  A    between atoms: C_11  and  C_12 
DOCKED: REMARK    4  A    between atoms: C_12  and  O_14 
DOCKED: REMARK    5  A    between atoms: C_17  and  C_20 
DOCKED: REMARK    6  A    between atoms: C_24  and  C_27 
DOCKED: REMARK    7  A    between atoms: C_31  and  C_34 
DOCKED: REMARK    8  A    between atoms: C_34  and  C_35 
DOCKED: REMARK    9  A    between atoms: C_35  and  C_36 
DOCKED: REMARK   10  A    between atoms: C_36  and  O_38 
DOCKED: REMARK   11  A    between atoms: FE_43  and  C_44 
DOCKED: REMARK   12  A    between atoms: C_44  and  O_45 
DOCKED: USER                              x       y       z     vdW  Elec       q    Type
DOCKED: USER                           _______ _______ _______ _____ _____    ______ ____
DOCKED: ROOT
DOCKED: ATOM      1  C   UNL d   1     -15.074  -2.114   6.537 -0.21 +0.02    +0.064 A 
DOCKED: ATOM      2  C   UNL d   1     -15.971   0.231  10.575 -0.38 +0.01    +0.064 C 
DOCKED: ATOM      3  C   UNL d   1     -20.623  -0.782  10.175 -0.01 +0.02    +0.064 A 
DOCKED: ATOM      4  C   UNL d   1     -19.679  -3.508   6.258 -0.05 +0.03    +0.064 A 
DOCKED: ATOM      5  C   UNL d   1     -14.983  -1.368   7.650 -0.10 +0.02    +0.066 A 
DOCKED: ATOM      6  C   UNL d   1     -13.744  -0.925   8.154 -0.36 -0.00    -0.021 A 
DOCKED: ATOM      7  C   UNL d   1     -14.008  -0.265   9.337 -0.38 -0.00    -0.025 A 
DOCKED: ATOM      8  C   UNL d   1     -15.397  -0.318   9.498 -0.24 +0.01    +0.066 A 
DOCKED: ATOM      9  C   UNL d   1     -13.002   0.396  10.293 -0.38 +0.00    +0.051 C 
DOCKED: ATOM     10  C   UNL d   1     -17.393   0.248  10.812 -0.19 +0.01    +0.066 A 
DOCKED: ATOM     11  C   UNL d   1     -18.068   0.929  11.849 -0.14 -0.00    -0.021 A 
DOCKED: ATOM     12  C   UNL d   1     -19.423   0.619  11.706 -0.07 +0.00    +0.000 A 
DOCKED: ATOM     13  C   UNL d   1     -19.477  -0.214  10.588 -0.04 +0.02    +0.070 A 
DOCKED: ATOM     14  C   UNL d   1     -17.450   1.883  12.839 -0.25 +0.01    +0.052 C 
DOCKED: ATOM     15  C   UNL d   1     -20.850  -1.704   9.080 -0.01 +0.02    +0.066 A 
DOCKED: ATOM     16  C   UNL d   1     -22.035  -2.368   8.795 -0.01 -0.01    -0.021 A 
DOCKED: ATOM     17  C   UNL d   1     -21.767  -3.158   7.667 -0.02 +0.00    +0.000 A 
DOCKED: ATOM     18  C   UNL d   1     -20.440  -2.899   7.342 -0.04 +0.02    +0.070 A 
DOCKED: ATOM     19  C   UNL d   1     -23.324  -2.235   9.574 +0.00 +0.01    +0.052 C 
DOCKED: ATOM     20  C   UNL d   1     -18.365  -3.337   5.975 -0.08 +0.03    +0.066 A 
DOCKED: ATOM     21  C   UNL d   1     -17.737  -4.007   4.927 -0.09 -0.01    -0.025 A 
DOCKED: ATOM     22  C   UNL d   1     -16.415  -3.602   4.965 -0.12 -0.01    -0.021 A 
DOCKED: ATOM     23  C   UNL d   1     -16.299  -2.708   6.051 -0.12 +0.03    +0.066 A 
DOCKED: ATOM     24  C   UNL d   1     -18.361  -4.999   3.949 -0.07 +0.02    +0.051 C 
DOCKED: ATOM     25  N   UNL d   1     -16.027  -0.991   8.464 -0.15 -0.07    -0.248 N 
DOCKED: ATOM     26  N   UNL d   1     -18.256  -0.392  10.016 -0.04 -0.06    -0.248 N 
DOCKED: ATOM     27  N   UNL d   1     -19.917  -2.052   8.222 -0.01 -0.08    -0.248 N 
DOCKED: ATOM     28  N   UNL d   1     -17.476  -2.547   6.666 -0.05 -0.09    -0.248 N 
DOCKED: ATOM     29 FE   UNL d   1     -18.087  -1.554   8.333 -0.03 +0.00    +0.000 Fe
DOCKED: ENDROOT
DOCKED: BRANCH   6  30
DOCKED: ATOM     30  C   UNL d   1     -12.368  -1.203   7.557 -0.25 +0.01    +0.052 C 
DOCKED: BRANCH  30  31
DOCKED: ATOM     31  C   UNL d   1     -12.107  -0.286   6.362 -0.40 +0.02    +0.115 C 
DOCKED: BRANCH  31  32
DOCKED: ATOM     32  C   UNL d   1     -10.651   0.112   6.248 -0.42 +0.03    +0.139 C 
DOCKED: ATOM     33  O   UNL d   1      -9.963   0.170   7.256 -0.03 -0.10    -0.650 OA
DOCKED: BRANCH  32  34
DOCKED: ATOM     34  O   UNL d   1     -10.067   0.363   5.053 -0.22 -0.25    -0.776 OA
DOCKED: ATOM     35  H   UNL d   1      -9.516  -0.271   4.573 +0.08 +0.05    +0.167 HD
DOCKED: ENDBRANCH  32  34
DOCKED: ENDBRANCH  31  32
DOCKED: ENDBRANCH  30  31
DOCKED: ENDBRANCH   6  30
DOCKED: BRANCH  29  36
DOCKED: ATOM     36  C   UNL d   1     -17.594  -3.206   9.525 -0.16 +0.04    +0.190 C 
DOCKED: BRANCH  36  37
DOCKED: ATOM     37  O   UNL d   1     -16.612  -3.705  10.388 -0.55 -0.09    -0.399 OA
DOCKED: ATOM     38  H   UNL d   1     -16.806  -4.681  10.461 -0.47 +0.04    +0.209 HD
DOCKED: ENDBRANCH  36  37
DOCKED: ENDBRANCH  29  36
DOCKED: BRANCH  22  39
DOCKED: ATOM     39  C   UNL d   1     -15.316  -4.101   4.047 -0.22 +0.03    +0.052 C 
DOCKED: BRANCH  39  40
DOCKED: ATOM     40  C   UNL d   1     -14.992  -5.576   4.339 -0.30 +0.06    +0.115 C 
DOCKED: BRANCH  40  41
DOCKED: ATOM     41  C   UNL d   1     -14.942  -6.460   3.111 -0.22 +0.11    +0.139 C 
DOCKED: ATOM     42  O   UNL d   1     -15.945  -6.586   2.423 -0.49 -0.69    -0.650 OA
DOCKED: BRANCH  41  43
DOCKED: ATOM     43  O   UNL d   1     -13.793  -7.045   2.704 +0.02 -0.51    -0.776 OA
DOCKED: ATOM     44  H   UNL d   1     -13.719  -7.997   2.557 -0.03 +0.07    +0.167 HD
DOCKED: ENDBRANCH  41  43
DOCKED: ENDBRANCH  40  41
DOCKED: ENDBRANCH  39  40
DOCKED: ENDBRANCH  22  39
DOCKED: BRANCH  12  45
DOCKED: ATOM     45  C   UNL d   1     -20.669   1.028  12.480 -0.03 +0.00    +0.004 C 
DOCKED: ATOM     46  C   UNL d   1     -21.567   1.978  12.236 -0.03 +0.00    +0.012 C 
DOCKED: ENDBRANCH  12  45
DOCKED: BRANCH  17  47
DOCKED: ATOM     47  C   UNL d   1     -22.646  -4.131   6.953 -0.04 +0.00    +0.004 C 
DOCKED: ATOM     48  C   UNL d   1     -22.448  -5.451   6.967 -0.08 +0.00    +0.012 C 
DOCKED: ENDBRANCH  17  47
DOCKED: TORSDOF 12
DOCKED: TER
DOCKED: ENDMDL
________________________________________________________________________________


	BEGINNING GENETIC ALGORITHM DOCKING 17 of 100
Run: 17 Seed: 1518632707 423280186 [ Run 17 of 100 GA/GALS ]
Beginning LAMARCKIAN GENETIC ALGORITHM (LGA), with a maximum of 25000000 energy evaluations.

Final-Value: -12.060


	FINAL GENETIC ALGORITHM DOCKED STATE
	_______________________________________________


Detailed state:  trans -15.051 -1.244 0.356 quatxyzw 0.093997 -0.670959 -0.134783 -0.723057 center 8.781 34.984 -0.736 ntor 12 -13.3198 115.8430 -150.0179 51.8186 -13.9220 146.3092 61.5265 -158.9664 -145.0352 82.9543 -179.8437 179.9883
State:	-15.051  -1.244   0.356   0.136 -0.971 -0.195 -87.385    -13.32  115.84 -150.02   51.82  -13.92  146.31   61.53 -158.97 -145.04   82.95 -179.84  179.99

DOCKED: MODEL       17
DOCKED: USER    Run = 17
DOCKED: USER    DPF = D:/Protein_go_brrr/autodock/final/AncMH_nat/heme_Co/dock.dpf
DOCKED: USER  
DOCKED: USER    Estimated Free Energy of Binding    =   -5.71 kcal/mol  [=(1)+(2)+(3)-(4)]
DOCKED: USER    Estimated Inhibition Constant, Ki   =   64.72 uM (micromolar)  [Temperature = 298.15 K]
DOCKED: USER    
DOCKED: USER    (1) Final Intermolecular Energy     =   -9.29 kcal/mol
DOCKED: USER        vdW + Hbond + desolv Energy     =   -6.45 kcal/mol
DOCKED: USER        Electrostatic Energy            =   -2.85 kcal/mol
DOCKED: USER    (2) Final Total Internal Energy     =   -2.77 kcal/mol
DOCKED: USER    (3) Torsional Free Energy           =   +3.58 kcal/mol
DOCKED: USER    (4) Unbound System's Energy  [=(2)] =   -2.77 kcal/mol
DOCKED: USER    
DOCKED: USER    
DOCKED: USER    NEWDPF move heme_Co_opt.pdbqt
DOCKED: USER    NEWDPF about 8.781000 34.984000 -0.736000
DOCKED: USER    NEWDPF tran0 -15.051249 -1.244057 0.355802
DOCKED: USER    NEWDPF quaternion0 0.093997 -0.670959 -0.134783 -0.723057
DOCKED: USER    NEWDPF axisangle0 0.136072 -0.971295 -0.195114 -87.385074
DOCKED: USER    NEWDPF quat0 0.136072 -0.971295 -0.195114 -87.385074
DOCKED: USER    NEWDPF dihe0 -13.32 115.84 -150.02 51.82 -13.92 146.31 61.53 -158.97 -145.04 82.95 -179.84 179.99 
DOCKED: USER  keepresnum = 1 
DOCKED: USER  
DOCKED: REMARK  12 active torsions:
DOCKED: REMARK  status: ('A' for Active; 'I' for Inactive)
DOCKED: REMARK    1  A    between atoms: C_6  and  C_10 
DOCKED: REMARK    2  A    between atoms: C_10  and  C_11 
DOCKED: REMARK    3  A    between atoms: C_11  and  C_12 
DOCKED: REMARK    4  A    between atoms: C_12  and  O_14 
DOCKED: REMARK    5  A    between atoms: C_17  and  C_20 
DOCKED: REMARK    6  A    between atoms: C_24  and  C_27 
DOCKED: REMARK    7  A    between atoms: C_31  and  C_34 
DOCKED: REMARK    8  A    between atoms: C_34  and  C_35 
DOCKED: REMARK    9  A    between atoms: C_35  and  C_36 
DOCKED: REMARK   10  A    between atoms: C_36  and  O_38 
DOCKED: REMARK   11  A    between atoms: FE_43  and  C_44 
DOCKED: REMARK   12  A    between atoms: C_44  and  O_45 
DOCKED: USER                              x       y       z     vdW  Elec       q    Type
DOCKED: USER                           _______ _______ _______ _____ _____    ______ ____
DOCKED: ROOT
DOCKED: ATOM      1  C   UNL d   1     -14.293  -0.189  -1.384 -0.15 +0.08    +0.064 A 
DOCKED: ATOM      2  C   UNL d   1     -18.115  -2.942  -0.731 -0.07 +0.06    +0.064 C 
DOCKED: ATOM      3  C   UNL d   1     -16.700  -3.913   3.728 -0.09 +0.04    +0.064 A 
DOCKED: ATOM      4  C   UNL d   1     -12.995  -0.803   3.216 -0.22 +0.04    +0.064 A 
DOCKED: ATOM      5  C   UNL d   1     -15.422  -0.899  -1.545 -0.13 +0.07    +0.066 A 
DOCKED: ATOM      6  C   UNL d   1     -16.192  -0.822  -2.723 -0.09 -0.02    -0.021 A 
DOCKED: ATOM      7  C   UNL d   1     -17.311  -1.604  -2.519 -0.07 -0.02    -0.025 A 
DOCKED: ATOM      8  C   UNL d   1     -17.169  -2.138  -1.234 -0.08 +0.07    +0.066 A 
DOCKED: ATOM      9  C   UNL d   1     -18.478  -1.850  -3.487 -0.02 +0.02    +0.051 C 
DOCKED: ATOM     10  C   UNL d   1     -18.043  -3.558   0.570 -0.06 +0.06    +0.066 A 
DOCKED: ATOM     11  C   UNL d   1     -18.932  -4.519   1.099 -0.06 -0.01    -0.021 A 
DOCKED: ATOM     12  C   UNL d   1     -18.493  -4.788   2.398 -0.08 +0.00    +0.000 A 
DOCKED: ATOM     13  C   UNL d   1     -17.366  -3.983   2.562 -0.07 +0.06    +0.070 A 
DOCKED: ATOM     14  C   UNL d   1     -20.059  -5.193   0.360 -0.02 +0.02    +0.052 C 
DOCKED: ATOM     15  C   UNL d   1     -15.554  -3.100   4.086 -0.12 +0.04    +0.066 A 
DOCKED: ATOM     16  C   UNL d   1     -15.003  -2.967   5.353 -0.20 -0.01    -0.021 A 
DOCKED: ATOM     17  C   UNL d   1     -13.936  -2.069   5.211 -0.28 +0.00    +0.000 A 
DOCKED: ATOM     18  C   UNL d   1     -13.909  -1.737   3.860 -0.21 +0.04    +0.070 A 
DOCKED: ATOM     19  C   UNL d   1     -15.492  -3.669   6.600 -0.28 +0.02    +0.052 C 
DOCKED: ATOM     20  C   UNL d   1     -13.005  -0.399   1.923 -0.25 +0.06    +0.066 A 
DOCKED: ATOM     21  C   UNL d   1     -12.095   0.534   1.429 -0.27 -0.02    -0.025 A 
DOCKED: ATOM     22  C   UNL d   1     -12.427   0.709   0.097 -0.21 -0.02    -0.021 A 
DOCKED: ATOM     23  C   UNL d   1     -13.539  -0.123  -0.153 -0.16 +0.09    +0.066 A 
DOCKED: ATOM     24  C   UNL d   1     -10.977   1.239   2.191 -0.34 +0.03    +0.051 C 
DOCKED: ATOM     25  N   UNL d   1     -16.005  -1.722  -0.610 -0.07 -0.31    -0.248 N 
DOCKED: ATOM     26  N   UNL d   1     -17.062  -3.282   1.436 -0.02 -0.26    -0.248 N 
DOCKED: ATOM     27  N   UNL d   1     -14.906  -2.346   3.227 -0.11 -0.20    -0.248 N 
DOCKED: ATOM     28  N   UNL d   1     -13.893  -0.794   0.950 -0.16 -0.31    -0.248 N 
DOCKED: ATOM     29 FE   UNL d   1     -15.420  -2.051   1.422 -0.04 +0.00    +0.000 Fe
DOCKED: ENDROOT
DOCKED: BRANCH   6  30
DOCKED: ATOM     30  C   UNL d   1     -15.894   0.035  -3.949 -0.04 +0.03    +0.052 C 
DOCKED: BRANCH  30  31
DOCKED: ATOM     31  C   UNL d   1     -16.657   1.357  -3.879 -0.01 +0.06    +0.115 C 
DOCKED: BRANCH  31  32
DOCKED: ATOM     32  C   UNL d   1     -16.821   1.854  -2.459 -0.04 +0.14    +0.139 C 
DOCKED: ATOM     33  O   UNL d   1     -17.539   1.239  -1.685 +0.00 -0.70    -0.650 OA
DOCKED: BRANCH  32  34
DOCKED: ATOM     34  O   UNL d   1     -16.157   2.939  -1.997 -0.31 -1.20    -0.776 OA
DOCKED: ATOM     35  H   UNL d   1     -15.377   3.321  -2.423 +0.01 +0.20    +0.167 HD
DOCKED: ENDBRANCH  32  34
DOCKED: ENDBRANCH  31  32
DOCKED: ENDBRANCH  30  31
DOCKED: ENDBRANCH   6  30
DOCKED: BRANCH  29  36
DOCKED: ATOM     36  C   UNL d   1     -16.640  -0.420   1.919 -0.11 +0.26    +0.190 C 
DOCKED: BRANCH  36  37
DOCKED: ATOM     37  O   UNL d   1     -17.395   0.617   1.362 -0.38 -0.72    -0.399 OA
DOCKED: ATOM     38  H   UNL d   1     -17.327   0.483   0.375 +0.03 +0.36    +0.209 HD
DOCKED: ENDBRANCH  36  37
DOCKED: ENDBRANCH  29  36
DOCKED: BRANCH  22  39
DOCKED: ATOM     39  C   UNL d   1     -11.750   1.673  -0.858 -0.25 +0.04    +0.052 C 
DOCKED: BRANCH  39  40
DOCKED: ATOM     40  C   UNL d   1     -12.252   3.108  -0.627 -0.17 +0.13    +0.115 C 
DOCKED: BRANCH  40  41
DOCKED: ATOM     41  C   UNL d   1     -13.258   3.591  -1.651 -0.08 +0.15    +0.139 C 
DOCKED: ATOM     42  O   UNL d   1     -13.316   3.037  -2.740 +0.03 -0.42    -0.650 OA
DOCKED: BRANCH  41  43
DOCKED: ATOM     43  O   UNL d   1     -14.155   4.560  -1.364 -0.15 -1.01    -0.776 OA
DOCKED: ATOM     44  H   UNL d   1     -15.057   4.552  -1.710 +0.02 +0.22    +0.167 HD
DOCKED: ENDBRANCH  41  43
DOCKED: ENDBRANCH  40  41
DOCKED: ENDBRANCH  39  40
DOCKED: ENDBRANCH  22  39
DOCKED: BRANCH  12  45
DOCKED: ATOM     45  C   UNL d   1     -18.996  -5.721   3.492 -0.10 +0.00    +0.004 C 
DOCKED: ATOM     46  C   UNL d   1     -19.414  -6.982   3.429 -0.09 +0.00    +0.012 C 
DOCKED: ENDBRANCH  12  45
DOCKED: BRANCH  17  47
DOCKED: ATOM     47  C   UNL d   1     -13.021  -1.503   6.247 -0.42 +0.00    +0.004 C 
DOCKED: ATOM     48  C   UNL d   1     -13.411  -1.199   7.487 -0.45 +0.00    +0.012 C 
DOCKED: ENDBRANCH  17  47
DOCKED: TORSDOF 12
DOCKED: TER
DOCKED: ENDMDL
________________________________________________________________________________


	BEGINNING GENETIC ALGORITHM DOCKING 18 of 100
Run: 18 Seed: 597159456 1559811049 [ Run 18 of 100 GA/GALS ]
Beginning LAMARCKIAN GENETIC ALGORITHM (LGA), with a maximum of 25000000 energy evaluations.

Final-Value: -11.198


	FINAL GENETIC ALGORITHM DOCKED STATE
	_______________________________________________


Detailed state:  trans -19.901 4.363 -0.001 quatxyzw -0.517048 -0.297135 -0.720960 0.352971 center 8.781 34.984 -0.736 ntor 12 58.6103 103.6384 63.4980 -112.1198 -85.0839 137.5263 50.0522 -19.9419 154.5000 155.2198 -154.7012 -162.1827
State:	-19.901   4.363  -0.001  -0.553 -0.318 -0.771 138.662     58.61  103.64   63.50 -112.12  -85.08  137.53   50.05  -19.94  154.50  155.22 -154.70 -162.18

DOCKED: MODEL       18
DOCKED: USER    Run = 18
DOCKED: USER    DPF = D:/Protein_go_brrr/autodock/final/AncMH_nat/heme_Co/dock.dpf
DOCKED: USER  
DOCKED: USER    Estimated Free Energy of Binding    =   -4.79 kcal/mol  [=(1)+(2)+(3)-(4)]
DOCKED: USER    Estimated Inhibition Constant, Ki   =  307.39 uM (micromolar)  [Temperature = 298.15 K]
DOCKED: USER    
DOCKED: USER    (1) Final Intermolecular Energy     =   -8.37 kcal/mol
DOCKED: USER        vdW + Hbond + desolv Energy     =   -4.28 kcal/mol
DOCKED: USER        Electrostatic Energy            =   -4.09 kcal/mol
DOCKED: USER    (2) Final Total Internal Energy     =   -2.83 kcal/mol
DOCKED: USER    (3) Torsional Free Energy           =   +3.58 kcal/mol
DOCKED: USER    (4) Unbound System's Energy  [=(2)] =   -2.83 kcal/mol
DOCKED: USER    
DOCKED: USER    
DOCKED: USER    NEWDPF move heme_Co_opt.pdbqt
DOCKED: USER    NEWDPF about 8.781000 34.984000 -0.736000
DOCKED: USER    NEWDPF tran0 -19.900940 4.363221 -0.001354
DOCKED: USER    NEWDPF quaternion0 -0.517048 -0.297135 -0.720960 0.352971
DOCKED: USER    NEWDPF axisangle0 -0.552618 -0.317576 -0.770558 138.661686
DOCKED: USER    NEWDPF quat0 -0.552618 -0.317576 -0.770558 138.661686
DOCKED: USER    NEWDPF dihe0 58.61 103.64 63.50 -112.12 -85.08 137.53 50.05 -19.94 154.50 155.22 -154.70 -162.18 
DOCKED: USER  keepresnum = 1 
DOCKED: USER  
DOCKED: REMARK  12 active torsions:
DOCKED: REMARK  status: ('A' for Active; 'I' for Inactive)
DOCKED: REMARK    1  A    between atoms: C_6  and  C_10 
DOCKED: REMARK    2  A    between atoms: C_10  and  C_11 
DOCKED: REMARK    3  A    between atoms: C_11  and  C_12 
DOCKED: REMARK    4  A    between atoms: C_12  and  O_14 
DOCKED: REMARK    5  A    between atoms: C_17  and  C_20 
DOCKED: REMARK    6  A    between atoms: C_24  and  C_27 
DOCKED: REMARK    7  A    between atoms: C_31  and  C_34 
DOCKED: REMARK    8  A    between atoms: C_34  and  C_35 
DOCKED: REMARK    9  A    between atoms: C_35  and  C_36 
DOCKED: REMARK   10  A    between atoms: C_36  and  O_38 
DOCKED: REMARK   11  A    between atoms: FE_43  and  C_44 
DOCKED: REMARK   12  A    between atoms: C_44  and  O_45 
DOCKED: USER                              x       y       z     vdW  Elec       q    Type
DOCKED: USER                           _______ _______ _______ _____ _____    ______ ____
DOCKED: ROOT
DOCKED: ATOM      1  C   UNL d   1     -20.395   2.443  -0.888 -0.01 +0.05    +0.064 A 
DOCKED: ATOM      2  C   UNL d   1     -16.563   5.235  -1.245 -0.09 +0.06    +0.064 C 
DOCKED: ATOM      3  C   UNL d   1     -18.718   8.594   1.383 -0.08 +0.01    +0.064 A 
DOCKED: ATOM      4  C   UNL d   1     -22.491   5.605   2.085 -0.05 +0.05    +0.064 A 
DOCKED: ATOM      5  C   UNL d   1     -19.204   2.974  -1.209 -0.04 +0.05    +0.066 A 
DOCKED: ATOM      6  C   UNL d   1     -18.234   2.252  -1.930 -0.04 -0.02    -0.021 A 
DOCKED: ATOM      7  C   UNL d   1     -17.115   3.058  -2.011 -0.05 -0.03    -0.025 A 
DOCKED: ATOM      8  C   UNL d   1     -17.456   4.244  -1.351 -0.08 +0.07    +0.066 A 
DOCKED: ATOM      9  C   UNL d   1     -15.770   2.739  -2.680 -0.07 +0.05    +0.051 C 
DOCKED: ATOM     10  C   UNL d   1     -16.832   6.500  -0.608 -0.14 +0.04    +0.066 A 
DOCKED: ATOM     11  C   UNL d   1     -15.987   7.631  -0.586 -0.24 -0.01    -0.021 A 
DOCKED: ATOM     12  C   UNL d   1     -16.642   8.597   0.183 -0.24 +0.00    +0.000 A 
DOCKED: ATOM     13  C   UNL d   1     -17.840   7.990   0.563 -0.12 +0.02    +0.070 A 
DOCKED: ATOM     14  C   UNL d   1     -14.691   7.790  -1.338 -0.26 +0.01    +0.052 C 
DOCKED: ATOM     15  C   UNL d   1     -19.971   8.096   1.915 -0.05 +0.02    +0.066 A 
DOCKED: ATOM     16  C   UNL d   1     -20.762   8.715   2.874 -0.04 -0.01    -0.021 A 
DOCKED: ATOM     17  C   UNL d   1     -21.850   7.855   3.081 -0.04 +0.00    +0.000 A 
DOCKED: ATOM     18  C   UNL d   1     -21.645   6.784   2.217 -0.05 +0.04    +0.070 A 
DOCKED: ATOM     19  C   UNL d   1     -20.464  10.044   3.531 -0.05 +0.01    +0.052 C 
DOCKED: ATOM     20  C   UNL d   1     -22.268   4.512   1.316 -0.05 +0.06    +0.066 A 
DOCKED: ATOM     21  C   UNL d   1     -23.137   3.424   1.300 -0.04 -0.02    -0.025 A 
DOCKED: ATOM     22  C   UNL d   1     -22.573   2.509   0.430 -0.03 -0.01    -0.021 A 
DOCKED: ATOM     23  C   UNL d   1     -21.372   3.084  -0.037 -0.03 +0.05    +0.066 A 
DOCKED: ATOM     24  C   UNL d   1     -24.431   3.254   2.091 -0.02 +0.03    +0.051 C 
DOCKED: ATOM     25  N   UNL d   1     -18.747   4.222  -0.849 -0.05 -0.21    -0.248 N 
DOCKED: ATOM     26  N   UNL d   1     -17.978   6.744   0.037 -0.07 -0.13    -0.248 N 
DOCKED: ATOM     27  N   UNL d   1     -20.502   6.947   1.561 -0.03 -0.13    -0.248 N 
DOCKED: ATOM     28  N   UNL d   1     -21.182   4.296   0.499 -0.04 -0.21    -0.248 N 
DOCKED: ATOM     29 FE   UNL d   1     -19.679   5.663   0.427 -0.02 +0.00    +0.000 Fe
DOCKED: ENDROOT
DOCKED: BRANCH   6  30
DOCKED: ATOM     30  C   UNL d   1     -18.359   0.820  -2.441 -0.01 +0.03    +0.052 C 
DOCKED: BRANCH  30  31
DOCKED: ATOM     31  C   UNL d   1     -18.327  -0.170  -1.277 -0.02 +0.09    +0.115 C 
DOCKED: BRANCH  31  32
DOCKED: ATOM     32  C   UNL d   1     -17.556   0.361  -0.088 -0.05 +0.20    +0.139 C 
DOCKED: ATOM     33  O   UNL d   1     -16.334   0.315  -0.095 -0.40 -1.36    -0.650 OA
DOCKED: BRANCH  32  34
DOCKED: ATOM     34  O   UNL d   1     -18.174   0.934   0.971 -0.12 -1.24    -0.776 OA
DOCKED: ATOM     35  H   UNL d   1     -18.879   0.513   1.482 +0.03 +0.24    +0.167 HD
DOCKED: ENDBRANCH  32  34
DOCKED: ENDBRANCH  31  32
DOCKED: ENDBRANCH  30  31
DOCKED: ENDBRANCH   6  30
DOCKED: BRANCH  29  36
DOCKED: ATOM     36  C   UNL d   1     -18.707   4.713   2.023 -0.09 +0.29    +0.190 C 
DOCKED: BRANCH  36  37
DOCKED: ATOM     37  O   UNL d   1     -18.055   3.530   2.385 -0.23 -0.92    -0.399 OA
DOCKED: ATOM     38  H   UNL d   1     -18.220   2.903   1.626 +0.03 +0.47    +0.209 HD
DOCKED: ENDBRANCH  36  37
DOCKED: ENDBRANCH  29  36
DOCKED: BRANCH  22  39
DOCKED: ATOM     39  C   UNL d   1     -23.130   1.132   0.119 -0.00 +0.03    +0.052 C 
DOCKED: BRANCH  39  40
DOCKED: ATOM     40  C   UNL d   1     -23.197   0.273   1.392 -0.01 +0.07    +0.115 C 
DOCKED: BRANCH  40  41
DOCKED: ATOM     41  C   UNL d   1     -22.131   0.594   2.419 +0.05 +0.18    +0.139 C 
DOCKED: ATOM     42  O   UNL d   1     -22.467   0.996   3.524 -0.47 -1.11    -0.650 OA
DOCKED: BRANCH  41  43
DOCKED: ATOM     43  O   UNL d   1     -20.821   0.367   2.178 -0.08 -1.17    -0.776 OA
DOCKED: ATOM     44  H   UNL d   1     -20.313   0.884   1.540 +0.01 +0.26    +0.167 HD
DOCKED: ENDBRANCH  41  43
DOCKED: ENDBRANCH  40  41
DOCKED: ENDBRANCH  39  40
DOCKED: ENDBRANCH  22  39
DOCKED: BRANCH  12  45
DOCKED: ATOM     45  C   UNL d   1     -16.285  10.021   0.585 -0.36 -0.00    +0.004 C 
DOCKED: ATOM     46  C   UNL d   1     -16.129  10.568   1.788 -0.37 -0.01    +0.012 C 
DOCKED: ENDBRANCH  12  45
DOCKED: BRANCH  17  47
DOCKED: ATOM     47  C   UNL d   1     -22.986   7.970   4.044 -0.02 +0.00    +0.004 C 
DOCKED: ATOM     48  C   UNL d   1     -23.102   7.217   5.141 -0.05 +0.00    +0.012 C 
DOCKED: ENDBRANCH  17  47
DOCKED: TORSDOF 12
DOCKED: TER
DOCKED: ENDMDL
________________________________________________________________________________


	BEGINNING GENETIC ALGORITHM DOCKING 19 of 100
Run: 19 Seed: 299810091 429285215 [ Run 19 of 100 GA/GALS ]
Beginning LAMARCKIAN GENETIC ALGORITHM (LGA), with a maximum of 25000000 energy evaluations.

Final-Value: -11.048


	FINAL GENETIC ALGORITHM DOCKED STATE
	_______________________________________________


Detailed state:  trans -18.478 -0.842 6.233 quatxyzw -0.273932 0.227922 -0.884833 0.300139 center 8.781 34.984 -0.736 ntor 12 -110.9586 108.7001 -4.3142 90.1869 137.4616 119.4548 53.1660 137.7179 77.7122 170.0197 11.0801 4.5244
State:	-18.478  -0.842   6.233  -0.287  0.239 -0.928 145.068   -110.96  108.70   -4.31   90.19  137.46  119.45   53.17  137.72   77.71  170.02   11.08    4.52

DOCKED: MODEL       19
DOCKED: USER    Run = 19
DOCKED: USER    DPF = D:/Protein_go_brrr/autodock/final/AncMH_nat/heme_Co/dock.dpf
DOCKED: USER  
DOCKED: USER    Estimated Free Energy of Binding    =   -5.49 kcal/mol  [=(1)+(2)+(3)-(4)]
DOCKED: USER    Estimated Inhibition Constant, Ki   =   95.12 uM (micromolar)  [Temperature = 298.15 K]
DOCKED: USER    
DOCKED: USER    (1) Final Intermolecular Energy     =   -9.07 kcal/mol
DOCKED: USER        vdW + Hbond + desolv Energy     =   -5.10 kcal/mol
DOCKED: USER        Electrostatic Energy            =   -3.96 kcal/mol
DOCKED: USER    (2) Final Total Internal Energy     =   -1.98 kcal/mol
DOCKED: USER    (3) Torsional Free Energy           =   +3.58 kcal/mol
DOCKED: USER    (4) Unbound System's Energy  [=(2)] =   -1.98 kcal/mol
DOCKED: USER    
DOCKED: USER    
DOCKED: USER    NEWDPF move heme_Co_opt.pdbqt
DOCKED: USER    NEWDPF about 8.781000 34.984000 -0.736000
DOCKED: USER    NEWDPF tran0 -18.477854 -0.842317 6.233397
DOCKED: USER    NEWDPF quaternion0 -0.273932 0.227922 -0.884833 0.300139
DOCKED: USER    NEWDPF axisangle0 -0.287172 0.238938 -0.927599 145.068044
DOCKED: USER    NEWDPF quat0 -0.287172 0.238938 -0.927599 145.068044
DOCKED: USER    NEWDPF dihe0 -110.96 108.70 -4.31 90.19 137.46 119.45 53.17 137.72 77.71 170.02 11.08 4.52 
DOCKED: USER  keepresnum = 1 
DOCKED: USER  
DOCKED: REMARK  12 active torsions:
DOCKED: REMARK  status: ('A' for Active; 'I' for Inactive)
DOCKED: REMARK    1  A    between atoms: C_6  and  C_10 
DOCKED: REMARK    2  A    between atoms: C_10  and  C_11 
DOCKED: REMARK    3  A    between atoms: C_11  and  C_12 
DOCKED: REMARK    4  A    between atoms: C_12  and  O_14 
DOCKED: REMARK    5  A    between atoms: C_17  and  C_20 
DOCKED: REMARK    6  A    between atoms: C_24  and  C_27 
DOCKED: REMARK    7  A    between atoms: C_31  and  C_34 
DOCKED: REMARK    8  A    between atoms: C_34  and  C_35 
DOCKED: REMARK    9  A    between atoms: C_35  and  C_36 
DOCKED: REMARK   10  A    between atoms: C_36  and  O_38 
DOCKED: REMARK   11  A    between atoms: FE_43  and  C_44 
DOCKED: REMARK   12  A    between atoms: C_44  and  O_45 
DOCKED: USER                              x       y       z     vdW  Elec       q    Type
DOCKED: USER                           _______ _______ _______ _____ _____    ______ ____
DOCKED: ROOT
DOCKED: ATOM      1  C   UNL d   1     -17.805  -1.503   4.277 -0.07 +0.05    +0.064 A 
DOCKED: ATOM      2  C   UNL d   1     -15.604  -1.208   8.482 -0.22 +0.01    +0.064 C 
DOCKED: ATOM      3  C   UNL d   1     -19.460   0.861  10.398 -0.10 +0.01    +0.064 A 
DOCKED: ATOM      4  C   UNL d   1     -21.865   0.220   6.218 -0.06 +0.06    +0.064 A 
DOCKED: ATOM      5  C   UNL d   1     -16.907  -1.541   5.276 -0.09 +0.04    +0.066 A 
DOCKED: ATOM      6  C   UNL d   1     -15.647  -2.153   5.125 -0.14 -0.01    -0.021 A 
DOCKED: ATOM      7  C   UNL d   1     -15.022  -2.084   6.354 -0.22 -0.01    -0.025 A 
DOCKED: ATOM      8  C   UNL d   1     -15.919  -1.420   7.198 -0.07 +0.02    +0.066 A 
DOCKED: ATOM      9  C   UNL d   1     -13.633  -2.619   6.736 -0.31 +0.01    +0.051 C 
DOCKED: ATOM     10  C   UNL d   1     -16.451  -0.511   9.417 -0.23 +0.02    +0.066 A 
DOCKED: ATOM     11  C   UNL d   1     -16.120  -0.133  10.736 -0.31 -0.00    -0.021 A 
DOCKED: ATOM     12  C   UNL d   1     -17.261   0.472  11.270 -0.22 +0.00    +0.000 A 
DOCKED: ATOM     13  C   UNL d   1     -18.197   0.429  10.237 -0.15 +0.01    +0.070 A 
DOCKED: ATOM     14  C   UNL d   1     -14.768  -0.264  11.389 -0.41 -0.00    +0.052 C 
DOCKED: ATOM     15  C   UNL d   1     -20.565   0.844   9.460 -0.07 +0.02    +0.066 A 
DOCKED: ATOM     16  C   UNL d   1     -21.885   1.172   9.737 -0.04 -0.01    -0.021 A 
DOCKED: ATOM     17  C   UNL d   1     -22.583   0.987   8.535 -0.04 +0.00    +0.000 A 
DOCKED: ATOM     18  C   UNL d   1     -21.627   0.575   7.612 -0.07 +0.04    +0.070 A 
DOCKED: ATOM     19  C   UNL d   1     -22.412   1.629  11.078 -0.02 +0.01    +0.052 C 
DOCKED: ATOM     20  C   UNL d   1     -20.968  -0.265   5.327 -0.04 +0.07    +0.066 A 
DOCKED: ATOM     21  C   UNL d   1     -21.325  -0.604   4.023 -0.02 -0.03    -0.025 A 
DOCKED: ATOM     22  C   UNL d   1     -20.168  -1.076   3.431 -0.05 -0.02    -0.021 A 
DOCKED: ATOM     23  C   UNL d   1     -19.158  -1.013   4.414 -0.08 +0.06    +0.066 A 
DOCKED: ATOM     24  C   UNL d   1     -22.705  -0.502   3.379 -0.04 +0.04    +0.051 C 
DOCKED: ATOM     25  N   UNL d   1     -17.093  -1.067   6.555 -0.07 -0.12    -0.248 N 
DOCKED: ATOM     26  N   UNL d   1     -17.688  -0.114   9.099 -0.12 -0.08    -0.248 N 
DOCKED: ATOM     27  N   UNL d   1     -20.443   0.472   8.205 -0.06 -0.13    -0.248 N 
DOCKED: ATOM     28  N   UNL d   1     -19.638  -0.525   5.563 -0.07 -0.23    -0.248 N 
DOCKED: ATOM     29 FE   UNL d   1     -18.869  -0.252   7.426 -0.03 +0.00    +0.000 Fe
DOCKED: ENDROOT
DOCKED: BRANCH   6  30
DOCKED: ATOM     30  C   UNL d   1     -15.114  -2.841   3.873 -0.20 +0.03    +0.052 C 
DOCKED: BRANCH  30  31
DOCKED: ATOM     31  C   UNL d   1     -14.264  -1.874   3.049 -0.23 +0.09    +0.115 C 
DOCKED: BRANCH  31  32
DOCKED: ATOM     32  C   UNL d   1     -14.992  -1.366   1.823 -0.19 +0.16    +0.139 C 
DOCKED: ATOM     33  O   UNL d   1     -15.109  -2.095   0.849 +0.03 -0.88    -0.650 OA
DOCKED: BRANCH  32  34
DOCKED: ATOM     34  O   UNL d   1     -15.563  -0.140   1.784 -0.15 -1.30    -0.776 OA
DOCKED: ATOM     35  H   UNL d   1     -16.514   0.014   1.701 +0.03 +0.28    +0.167 HD
DOCKED: ENDBRANCH  32  34
DOCKED: ENDBRANCH  31  32
DOCKED: ENDBRANCH  30  31
DOCKED: ENDBRANCH   6  30
DOCKED: BRANCH  29  36
DOCKED: ATOM     36  C   UNL d   1     -19.379  -2.217   7.950 -0.04 +0.06    +0.190 C 
DOCKED: BRANCH  36  37
DOCKED: ATOM     37  O   UNL d   1     -19.301  -3.542   7.511 -0.12 -0.13    -0.399 OA
DOCKED: ATOM     38  H   UNL d   1     -18.896  -3.488   6.601 +0.04 +0.08    +0.209 HD
DOCKED: ENDBRANCH  36  37
DOCKED: ENDBRANCH  29  36
DOCKED: BRANCH  22  39
DOCKED: ATOM     39  C   UNL d   1     -20.062  -1.619   2.018 -0.01 +0.04    +0.052 C 
DOCKED: BRANCH  39  40
DOCKED: ATOM     40  C   UNL d   1     -19.353  -0.608   1.101 -0.03 +0.11    +0.115 C 
DOCKED: BRANCH  40  41
DOCKED: ATOM     41  C   UNL d   1     -19.261   0.793   1.668 -0.02 +0.23    +0.139 C 
DOCKED: ATOM     42  O   UNL d   1     -20.206   1.557   1.532 +0.02 -1.27    -0.650 OA
DOCKED: BRANCH  41  43
DOCKED: ATOM     43  O   UNL d   1     -18.197   1.195   2.397 -0.32 -1.59    -0.776 OA
DOCKED: ATOM     44  H   UNL d   1     -17.437   0.623   2.566 +0.03 +0.27    +0.167 HD
DOCKED: ENDBRANCH  41  43
DOCKED: ENDBRANCH  40  41
DOCKED: ENDBRANCH  39  40
DOCKED: ENDBRANCH  22  39
DOCKED: BRANCH  12  45
DOCKED: ATOM     45  C   UNL d   1     -17.568   1.098  12.624 -0.20 +0.00    +0.004 C 
DOCKED: ATOM     46  C   UNL d   1     -17.295   2.310  13.099 -0.31 +0.00    +0.012 C 
DOCKED: ENDBRANCH  12  45
DOCKED: BRANCH  17  47
DOCKED: ATOM     47  C   UNL d   1     -24.042   1.124   8.248 -0.02 +0.00    +0.004 C 
DOCKED: ATOM     48  C   UNL d   1     -24.546   2.035   7.412 -0.02 +0.00    +0.012 C 
DOCKED: ENDBRANCH  17  47
DOCKED: TORSDOF 12
DOCKED: TER
DOCKED: ENDMDL
________________________________________________________________________________


	BEGINNING GENETIC ALGORITHM DOCKING 20 of 100
Run: 20 Seed: 385695151 107157718 [ Run 20 of 100 GA/GALS ]
Beginning LAMARCKIAN GENETIC ALGORITHM (LGA), with a maximum of 25000000 energy evaluations.

Final-Value: -10.434


	FINAL GENETIC ALGORITHM DOCKED STATE
	_______________________________________________


Detailed state:  trans -13.784 8.674 -4.332 quatxyzw 0.888719 0.031769 -0.373705 0.263652 center 8.781 34.984 -0.736 ntor 12 -88.7225 95.4968 -16.5969 124.0110 -51.1077 166.1899 39.3696 125.1632 55.0384 20.0940 -27.7968 -178.7344
State:	-13.784   8.674  -4.332   0.921  0.033 -0.387 149.426    -88.72   95.50  -16.60  124.01  -51.11  166.19   39.37  125.16   55.04   20.09  -27.80 -178.73

DOCKED: MODEL       20
DOCKED: USER    Run = 20
DOCKED: USER    DPF = D:/Protein_go_brrr/autodock/final/AncMH_nat/heme_Co/dock.dpf
DOCKED: USER  
DOCKED: USER    Estimated Free Energy of Binding    =   -5.22 kcal/mol  [=(1)+(2)+(3)-(4)]
DOCKED: USER    Estimated Inhibition Constant, Ki   =  150.07 uM (micromolar)  [Temperature = 298.15 K]
DOCKED: USER    
DOCKED: USER    (1) Final Intermolecular Energy     =   -8.80 kcal/mol
DOCKED: USER        vdW + Hbond + desolv Energy     =   -5.91 kcal/mol
DOCKED: USER        Electrostatic Energy            =   -2.88 kcal/mol
DOCKED: USER    (2) Final Total Internal Energy     =   -1.64 kcal/mol
DOCKED: USER    (3) Torsional Free Energy           =   +3.58 kcal/mol
DOCKED: USER    (4) Unbound System's Energy  [=(2)] =   -1.64 kcal/mol
DOCKED: USER    
DOCKED: USER    
DOCKED: USER    NEWDPF move heme_Co_opt.pdbqt
DOCKED: USER    NEWDPF about 8.781000 34.984000 -0.736000
DOCKED: USER    NEWDPF tran0 -13.784004 8.674186 -4.331878
DOCKED: USER    NEWDPF quaternion0 0.888719 0.031769 -0.373705 0.263652
DOCKED: USER    NEWDPF axisangle0 0.921318 0.032935 -0.387413 149.426203
DOCKED: USER    NEWDPF quat0 0.921318 0.032935 -0.387413 149.426203
DOCKED: USER    NEWDPF dihe0 -88.72 95.50 -16.60 124.01 -51.11 166.19 39.37 125.16 55.04 20.09 -27.80 -178.73 
DOCKED: USER  keepresnum = 1 
DOCKED: USER  
DOCKED: REMARK  12 active torsions:
DOCKED: REMARK  status: ('A' for Active; 'I' for Inactive)
DOCKED: REMARK    1  A    between atoms: C_6  and  C_10 
DOCKED: REMARK    2  A    between atoms: C_10  and  C_11 
DOCKED: REMARK    3  A    between atoms: C_11  and  C_12 
DOCKED: REMARK    4  A    between atoms: C_12  and  O_14 
DOCKED: REMARK    5  A    between atoms: C_17  and  C_20 
DOCKED: REMARK    6  A    between atoms: C_24  and  C_27 
DOCKED: REMARK    7  A    between atoms: C_31  and  C_34 
DOCKED: REMARK    8  A    between atoms: C_34  and  C_35 
DOCKED: REMARK    9  A    between atoms: C_35  and  C_36 
DOCKED: REMARK   10  A    between atoms: C_36  and  O_38 
DOCKED: REMARK   11  A    between atoms: FE_43  and  C_44 
DOCKED: REMARK   12  A    between atoms: C_44  and  O_45 
DOCKED: USER                              x       y       z     vdW  Elec       q    Type
DOCKED: USER                           _______ _______ _______ _____ _____    ______ ____
DOCKED: ROOT
DOCKED: ATOM      1  C   UNL d   1     -14.666   7.377  -2.830 -0.14 +0.01    +0.064 A 
DOCKED: ATOM      2  C   UNL d   1     -15.931  11.642  -4.508 -0.09 -0.00    +0.064 C 
DOCKED: ATOM      3  C   UNL d   1     -11.957  11.821  -7.155 -0.14 -0.01    +0.064 A 
DOCKED: ATOM      4  C   UNL d   1     -10.835   7.300  -5.753 -0.23 -0.02    +0.064 A 
DOCKED: ATOM      5  C   UNL d   1     -15.285   8.545  -3.067 -0.09 +0.01    +0.066 A 
DOCKED: ATOM      6  C   UNL d   1     -16.546   8.847  -2.516 -0.10 -0.00    -0.021 A 
DOCKED: ATOM      7  C   UNL d   1     -16.919  10.076  -3.025 -0.08 -0.00    -0.025 A 
DOCKED: ATOM      8  C   UNL d   1     -15.863  10.479  -3.850 -0.07 +0.00    +0.066 A 
DOCKED: ATOM      9  C   UNL d   1     -18.216  10.854  -2.754 -0.04 -0.00    +0.051 C 
DOCKED: ATOM     10  C   UNL d   1     -14.883  12.151  -5.358 -0.10 -0.00    +0.066 A 
DOCKED: ATOM     11  C   UNL d   1     -14.832  13.425  -5.964 -0.07 +0.00    -0.021 A 
DOCKED: ATOM     12  C   UNL d   1     -13.661  13.452  -6.727 -0.10 -0.00    +0.000 A 
DOCKED: ATOM     13  C   UNL d   1     -13.080  12.201  -6.520 -0.15 -0.01    +0.070 A 
DOCKED: ATOM     14  C   UNL d   1     -15.799  14.559  -5.739 -0.03 +0.00    +0.052 C 
DOCKED: ATOM     15  C   UNL d   1     -11.252  10.556  -7.100 -0.23 -0.01    +0.066 A 
DOCKED: ATOM     16  C   UNL d   1     -10.178  10.176  -7.893 -0.28 +0.00    -0.021 A 
DOCKED: ATOM     17  C   UNL d   1      -9.852   8.872  -7.494 -0.29 -0.00    +0.000 A 
DOCKED: ATOM     18  C   UNL d   1     -10.746   8.564  -6.474 -0.25 -0.02    +0.070 A 
DOCKED: ATOM     19  C   UNL d   1      -9.529  11.032  -8.958 -0.35 -0.01    +0.052 C 
DOCKED: ATOM     20  C   UNL d   1     -11.750   6.947  -4.818 -0.17 -0.01    +0.066 A 
DOCKED: ATOM     21  C   UNL d   1     -11.754   5.688  -4.221 -0.14 +0.00    -0.025 A 
DOCKED: ATOM     22  C   UNL d   1     -12.830   5.691  -3.353 -0.13 -0.00    -0.021 A 
DOCKED: ATOM     23  C   UNL d   1     -13.441   6.958  -3.473 -0.15 +0.01    +0.066 A 
DOCKED: ATOM     24  C   UNL d   1     -10.793   4.531  -4.480 -0.22 -0.02    +0.051 C 
DOCKED: ATOM     25  N   UNL d   1     -14.835   9.552  -3.890 -0.01 -0.01    -0.248 N 
DOCKED: ATOM     26  N   UNL d   1     -13.790  11.437  -5.648 -0.10 +0.01    -0.248 N 
DOCKED: ATOM     27  N   UNL d   1     -11.584   9.578  -6.287 -0.17 +0.04    -0.248 N 
DOCKED: ATOM     28  N   UNL d   1     -12.791   7.720  -4.360 -0.10 +0.01    -0.248 N 
DOCKED: ATOM     29 FE   UNL d   1     -13.112   9.563  -5.158 -0.04 -0.00    +0.000 Fe
DOCKED: ENDROOT
DOCKED: BRANCH   6  30
DOCKED: ATOM     30  C   UNL d   1     -17.382   7.949  -1.610 -0.08 +0.01    +0.052 C 
DOCKED: BRANCH  30  31
DOCKED: ATOM     31  C   UNL d   1     -16.586   7.551  -0.367 -0.19 +0.04    +0.115 C 
DOCKED: BRANCH  31  32
DOCKED: ATOM     32  C   UNL d   1     -16.553   6.052  -0.158 -0.02 +0.12    +0.139 C 
DOCKED: ATOM     33  O   UNL d   1     -17.423   5.520   0.515 -0.02 -0.69    -0.650 OA
DOCKED: BRANCH  32  34
DOCKED: ATOM     34  O   UNL d   1     -15.613   5.268  -0.735 -0.21 -1.08    -0.776 OA
DOCKED: ATOM     35  H   UNL d   1     -15.725   4.821  -1.586 +0.02 +0.21    +0.167 HD
DOCKED: ENDBRANCH  32  34
DOCKED: ENDBRANCH  31  32
DOCKED: ENDBRANCH  30  31
DOCKED: ENDBRANCH   6  30
DOCKED: BRANCH  29  36
DOCKED: ATOM     36  C   UNL d   1     -14.338   8.733  -6.642 -0.04 -0.01    +0.190 C 
DOCKED: BRANCH  36  37
DOCKED: ATOM     37  O   UNL d   1     -15.672   8.459  -6.960 -0.00 +0.00    -0.399 OA
DOCKED: ATOM     38  H   UNL d   1     -16.159   8.510  -6.090 +0.01 +0.01    +0.209 HD
DOCKED: ENDBRANCH  36  37
DOCKED: ENDBRANCH  29  36
DOCKED: BRANCH  22  39
DOCKED: ATOM     39  C   UNL d   1     -13.281   4.516  -2.506 -0.15 +0.03    +0.052 C 
DOCKED: BRANCH  39  40
DOCKED: ATOM     40  C   UNL d   1     -14.044   3.491  -3.361 -0.06 +0.06    +0.115 C 
DOCKED: BRANCH  40  41
DOCKED: ATOM     41  C   UNL d   1     -14.824   2.468  -2.563 -0.04 +0.15    +0.139 C 
DOCKED: ATOM     42  O   UNL d   1     -14.325   1.373  -2.344 +0.02 -0.69    -0.650 OA
DOCKED: BRANCH  41  43
DOCKED: ATOM     43  O   UNL d   1     -16.022   2.761  -2.010 -0.25 -1.22    -0.776 OA
DOCKED: ATOM     44  H   UNL d   1     -16.369   3.662  -1.972 +0.01 +0.23    +0.167 HD
DOCKED: ENDBRANCH  41  43
DOCKED: ENDBRANCH  40  41
DOCKED: ENDBRANCH  39  40
DOCKED: ENDBRANCH  22  39
DOCKED: BRANCH  12  45
DOCKED: ATOM     45  C   UNL d   1     -13.019  14.516  -7.607 -0.10 -0.00    +0.004 C 
DOCKED: ATOM     46  C   UNL d   1     -11.866  15.166  -7.478 -0.16 +0.00    +0.012 C 
DOCKED: ENDBRANCH  12  45
DOCKED: BRANCH  17  47
DOCKED: ATOM     47  C   UNL d   1      -8.824   7.937  -8.039 -0.28 -0.00    +0.004 C 
DOCKED: ATOM     48  C   UNL d   1      -8.940   7.318  -9.216 -0.32 -0.01    +0.012 C 
DOCKED: ENDBRANCH  17  47
DOCKED: TORSDOF 12
DOCKED: TER
DOCKED: ENDMDL
________________________________________________________________________________


	BEGINNING GENETIC ALGORITHM DOCKING 21 of 100
Run: 21 Seed: 1759123398 1149818585 [ Run 21 of 100 GA/GALS ]
Beginning LAMARCKIAN GENETIC ALGORITHM (LGA), with a maximum of 25000000 energy evaluations.

Final-Value: -10.788


	FINAL GENETIC ALGORITHM DOCKED STATE
	_______________________________________________


Detailed state:  trans -16.016 -1.895 1.581 quatxyzw -0.245180 0.004583 0.300687 -0.921658 center 8.781 34.984 -0.736 ntor 12 -52.1377 145.9885 83.8310 -31.4929 104.7204 82.4415 -140.6438 -60.4900 179.9644 -61.9993 3.4213 -1.6309
State:	-16.016  -1.895   1.581  -0.632  0.012  0.775 -45.661    -52.14  145.99   83.83  -31.49  104.72   82.44 -140.64  -60.49  179.96  -62.00    3.42   -1.63

DOCKED: MODEL       21
DOCKED: USER    Run = 21
DOCKED: USER    DPF = D:/Protein_go_brrr/autodock/final/AncMH_nat/heme_Co/dock.dpf
DOCKED: USER  
DOCKED: USER    Estimated Free Energy of Binding    =   -5.30 kcal/mol  [=(1)+(2)+(3)-(4)]
DOCKED: USER    Estimated Inhibition Constant, Ki   =  129.37 uM (micromolar)  [Temperature = 298.15 K]
DOCKED: USER    
DOCKED: USER    (1) Final Intermolecular Energy     =   -8.88 kcal/mol
DOCKED: USER        vdW + Hbond + desolv Energy     =   -6.98 kcal/mol
DOCKED: USER        Electrostatic Energy            =   -1.90 kcal/mol
DOCKED: USER    (2) Final Total Internal Energy     =   -1.90 kcal/mol
DOCKED: USER    (3) Torsional Free Energy           =   +3.58 kcal/mol
DOCKED: USER    (4) Unbound System's Energy  [=(2)] =   -1.90 kcal/mol
DOCKED: USER    
DOCKED: USER    
DOCKED: USER    NEWDPF move heme_Co_opt.pdbqt
DOCKED: USER    NEWDPF about 8.781000 34.984000 -0.736000
DOCKED: USER    NEWDPF tran0 -16.016255 -1.895465 1.580707
DOCKED: USER    NEWDPF quaternion0 -0.245180 0.004583 0.300687 -0.921658
DOCKED: USER    NEWDPF axisangle0 -0.631900 0.011812 0.774960 -45.660679
DOCKED: USER    NEWDPF quat0 -0.631900 0.011812 0.774960 -45.660679
DOCKED: USER    NEWDPF dihe0 -52.14 145.99 83.83 -31.49 104.72 82.44 -140.64 -60.49 179.96 -62.00 3.42 -1.63 
DOCKED: USER  keepresnum = 1 
DOCKED: USER  
DOCKED: REMARK  12 active torsions:
DOCKED: REMARK  status: ('A' for Active; 'I' for Inactive)
DOCKED: REMARK    1  A    between atoms: C_6  and  C_10 
DOCKED: REMARK    2  A    between atoms: C_10  and  C_11 
DOCKED: REMARK    3  A    between atoms: C_11  and  C_12 
DOCKED: REMARK    4  A    between atoms: C_12  and  O_14 
DOCKED: REMARK    5  A    between atoms: C_17  and  C_20 
DOCKED: REMARK    6  A    between atoms: C_24  and  C_27 
DOCKED: REMARK    7  A    between atoms: C_31  and  C_34 
DOCKED: REMARK    8  A    between atoms: C_34  and  C_35 
DOCKED: REMARK    9  A    between atoms: C_35  and  C_36 
DOCKED: REMARK   10  A    between atoms: C_36  and  O_38 
DOCKED: REMARK   11  A    between atoms: FE_43  and  C_44 
DOCKED: REMARK   12  A    between atoms: C_44  and  O_45 
DOCKED: USER                              x       y       z     vdW  Elec       q    Type
DOCKED: USER                           _______ _______ _______ _____ _____    ______ ____
DOCKED: ROOT
DOCKED: ATOM      1  C   UNL d   1     -17.761  -3.001   0.910 -0.06 +0.06    +0.064 A 
DOCKED: ATOM      2  C   UNL d   1     -15.768  -2.467   5.195 -0.15 +0.03    +0.064 C 
DOCKED: ATOM      3  C   UNL d   1     -12.166  -0.001   3.254 -0.24 +0.04    +0.064 A 
DOCKED: ATOM      4  C   UNL d   1     -14.378  -0.201  -1.074 -0.15 +0.08    +0.064 A 
DOCKED: ATOM      5  C   UNL d   1     -17.462  -3.068   2.218 -0.06 +0.05    +0.066 A 
DOCKED: ATOM      6  C   UNL d   1     -18.331  -3.663   3.154 -0.04 -0.01    -0.021 A 
DOCKED: ATOM      7  C   UNL d   1     -17.759  -3.485   4.398 -0.07 -0.01    -0.025 A 
DOCKED: ATOM      8  C   UNL d   1     -16.559  -2.804   4.167 -0.07 +0.04    +0.066 A 
DOCKED: ATOM      9  C   UNL d   1     -18.309  -3.933   5.761 -0.06 +0.02    +0.051 C 
DOCKED: ATOM     10  C   UNL d   1     -14.504  -1.790   5.052 -0.18 +0.03    +0.066 A 
DOCKED: ATOM     11  C   UNL d   1     -13.564  -1.533   6.074 -0.33 -0.01    -0.021 A 
DOCKED: ATOM     12  C   UNL d   1     -12.522  -0.817   5.480 -0.35 +0.00    +0.000 A 
DOCKED: ATOM     13  C   UNL d   1     -12.896  -0.700   4.141 -0.20 +0.03    +0.070 A 
DOCKED: ATOM     14  C   UNL d   1     -13.632  -2.033   7.495 -0.41 +0.01    +0.052 C 
DOCKED: ATOM     15  C   UNL d   1     -12.428   0.265   1.853 -0.26 +0.06    +0.066 A 
DOCKED: ATOM     16  C   UNL d   1     -11.708   1.116   1.028 -0.27 -0.02    -0.021 A 
DOCKED: ATOM     17  C   UNL d   1     -12.344   1.064  -0.221 -0.22 +0.00    +0.000 A 
DOCKED: ATOM     18  C   UNL d   1     -13.395   0.168  -0.063 -0.12 +0.10    +0.070 A 
DOCKED: ATOM     19  C   UNL d   1     -10.493   1.917   1.440 -0.28 +0.02    +0.052 C 
DOCKED: ATOM     20  C   UNL d   1     -15.459  -1.003  -0.919 -0.12 +0.08    +0.066 A 
DOCKED: ATOM     21  C   UNL d   1     -16.353  -1.254  -1.958 -0.11 -0.02    -0.025 A 
DOCKED: ATOM     22  C   UNL d   1     -17.323  -2.082  -1.423 -0.09 -0.02    -0.021 A 
DOCKED: ATOM     23  C   UNL d   1     -16.977  -2.286  -0.071 -0.03 +0.07    +0.066 A 
DOCKED: ATOM     24  C   UNL d   1     -16.297  -0.717  -3.386 -0.07 +0.03    +0.051 C 
DOCKED: ATOM     25  N   UNL d   1     -16.347  -2.537   2.825 -0.05 -0.21    -0.248 N 
DOCKED: ATOM     26  N   UNL d   1     -14.067  -1.337   3.872 -0.14 -0.16    -0.248 N 
DOCKED: ATOM     27  N   UNL d   1     -13.434  -0.265   1.192 -0.16 -0.31    -0.248 N 
DOCKED: ATOM     28  N   UNL d   1     -15.850  -1.633   0.239 -0.11 -0.32    -0.248 N 
DOCKED: ATOM     29 FE   UNL d   1     -14.805  -1.334   1.957 -0.04 +0.00    +0.000 Fe
DOCKED: ENDROOT
DOCKED: BRANCH   6  30
DOCKED: ATOM     30  C   UNL d   1     -19.686  -4.298   2.861 -0.03 +0.02    +0.052 C 
DOCKED: BRANCH  30  31
DOCKED: ATOM     31  C   UNL d   1     -19.520  -5.772   2.492 -0.06 +0.05    +0.115 C 
DOCKED: BRANCH  31  32
DOCKED: ATOM     32  C   UNL d   1     -18.069  -6.201   2.467 -0.12 +0.08    +0.139 C 
DOCKED: ATOM     33  O   UNL d   1     -17.553  -6.632   3.487 -0.01 -0.30    -0.650 OA
DOCKED: BRANCH  32  34
DOCKED: ATOM     34  O   UNL d   1     -17.330  -6.169   1.334 -0.31 -0.93    -0.776 OA
DOCKED: ATOM     35  H   UNL d   1     -17.571  -6.624   0.515 +0.02 +0.22    +0.167 HD
DOCKED: ENDBRANCH  32  34
DOCKED: ENDBRANCH  31  32
DOCKED: ENDBRANCH  30  31
DOCKED: ENDBRANCH   6  30
DOCKED: BRANCH  29  36
DOCKED: ATOM     36  C   UNL d   1     -15.997   0.327   2.421 -0.01 +0.32    +0.190 C 
DOCKED: BRANCH  36  37
DOCKED: ATOM     37  O   UNL d   1     -17.167   0.997   2.050 -0.25 -0.81    -0.399 OA
DOCKED: ATOM     38  H   UNL d   1     -17.786   0.279   1.740 +0.04 +0.31    +0.209 HD
DOCKED: ENDBRANCH  36  37
DOCKED: ENDBRANCH  29  36
DOCKED: BRANCH  22  39
DOCKED: ATOM     39  C   UNL d   1     -18.548  -2.592  -2.159 -0.05 +0.03    +0.052 C 
DOCKED: BRANCH  39  40
DOCKED: ATOM     40  C   UNL d   1     -18.326  -4.032  -2.649 -0.03 +0.09    +0.115 C 
DOCKED: BRANCH  40  41
DOCKED: ATOM     41  C   UNL d   1     -19.192  -5.067  -1.961 -0.03 +0.09    +0.139 C 
DOCKED: ATOM     42  O   UNL d   1     -20.365  -5.178  -2.287 +0.01 -0.25    -0.650 OA
DOCKED: BRANCH  41  43
DOCKED: ATOM     43  O   UNL d   1     -18.682  -5.931  -1.056 -0.10 -0.66    -0.776 OA
DOCKED: ATOM     44  H   UNL d   1     -18.648  -5.734  -0.111 +0.00 +0.15    +0.167 HD
DOCKED: ENDBRANCH  41  43
DOCKED: ENDBRANCH  40  41
DOCKED: ENDBRANCH  39  40
DOCKED: ENDBRANCH  22  39
DOCKED: BRANCH  12  45
DOCKED: ATOM     45  C   UNL d   1     -11.215  -0.248   6.016 -0.50 +0.00    +0.004 C 
DOCKED: ATOM     46  C   UNL d   1     -10.942   0.359   7.168 -0.56 +0.00    +0.012 C 
DOCKED: ENDBRANCH  12  45
DOCKED: BRANCH  17  47
DOCKED: ATOM     47  C   UNL d   1     -12.048   1.820  -1.475 -0.23 +0.00    +0.004 C 
DOCKED: ATOM     48  C   UNL d   1     -11.111   1.454  -2.353 -0.30 +0.00    +0.012 C 
DOCKED: ENDBRANCH  17  47
DOCKED: TORSDOF 12
DOCKED: TER
DOCKED: ENDMDL
________________________________________________________________________________


	BEGINNING GENETIC ALGORITHM DOCKING 22 of 100
Run: 22 Seed: 475171515 1613471482 [ Run 22 of 100 GA/GALS ]
Beginning LAMARCKIAN GENETIC ALGORITHM (LGA), with a maximum of 25000000 energy evaluations.

Final-Value: -10.747


	FINAL GENETIC ALGORITHM DOCKED STATE
	_______________________________________________


Detailed state:  trans -13.711 8.026 -3.212 quatxyzw 0.859439 0.114256 -0.463922 0.181896 center 8.781 34.984 -0.736 ntor 12 90.3584 86.9738 164.2989 122.2308 -25.0360 152.5604 81.6013 129.1647 -68.4218 -13.3377 164.2752 174.0427
State:	-13.711   8.026  -3.212   0.874  0.116 -0.472 159.040     90.36   86.97  164.30  122.23  -25.04  152.56   81.60  129.16  -68.42  -13.34  164.28  174.04

DOCKED: MODEL       22
DOCKED: USER    Run = 22
DOCKED: USER    DPF = D:/Protein_go_brrr/autodock/final/AncMH_nat/heme_Co/dock.dpf
DOCKED: USER  
DOCKED: USER    Estimated Free Energy of Binding    =   -6.52 kcal/mol  [=(1)+(2)+(3)-(4)]
DOCKED: USER    Estimated Inhibition Constant, Ki   =   16.58 uM (micromolar)  [Temperature = 298.15 K]
DOCKED: USER    
DOCKED: USER    (1) Final Intermolecular Energy     =  -10.10 kcal/mol
DOCKED: USER        vdW + Hbond + desolv Energy     =   -6.98 kcal/mol
DOCKED: USER        Electrostatic Energy            =   -3.12 kcal/mol
DOCKED: USER    (2) Final Total Internal Energy     =   -0.65 kcal/mol
DOCKED: USER    (3) Torsional Free Energy           =   +3.58 kcal/mol
DOCKED: USER    (4) Unbound System's Energy  [=(2)] =   -0.65 kcal/mol
DOCKED: USER    
DOCKED: USER    
DOCKED: USER    NEWDPF move heme_Co_opt.pdbqt
DOCKED: USER    NEWDPF about 8.781000 34.984000 -0.736000
DOCKED: USER    NEWDPF tran0 -13.710581 8.026142 -3.212102
DOCKED: USER    NEWDPF quaternion0 0.859439 0.114256 -0.463922 0.181896
DOCKED: USER    NEWDPF axisangle0 0.874020 0.116194 -0.471792 159.039563
DOCKED: USER    NEWDPF quat0 0.874020 0.116194 -0.471792 159.039563
DOCKED: USER    NEWDPF dihe0 90.36 86.97 164.30 122.23 -25.04 152.56 81.60 129.16 -68.42 -13.34 164.28 174.04 
DOCKED: USER  keepresnum = 1 
DOCKED: USER  
DOCKED: REMARK  12 active torsions:
DOCKED: REMARK  status: ('A' for Active; 'I' for Inactive)
DOCKED: REMARK    1  A    between atoms: C_6  and  C_10 
DOCKED: REMARK    2  A    between atoms: C_10  and  C_11 
DOCKED: REMARK    3  A    between atoms: C_11  and  C_12 
DOCKED: REMARK    4  A    between atoms: C_12  and  O_14 
DOCKED: REMARK    5  A    between atoms: C_17  and  C_20 
DOCKED: REMARK    6  A    between atoms: C_24  and  C_27 
DOCKED: REMARK    7  A    between atoms: C_31  and  C_34 
DOCKED: REMARK    8  A    between atoms: C_34  and  C_35 
DOCKED: REMARK    9  A    between atoms: C_35  and  C_36 
DOCKED: REMARK   10  A    between atoms: C_36  and  O_38 
DOCKED: REMARK   11  A    between atoms: FE_43  and  C_44 
DOCKED: REMARK   12  A    between atoms: C_44  and  O_45 
DOCKED: USER                              x       y       z     vdW  Elec       q    Type
DOCKED: USER                           _______ _______ _______ _____ _____    ______ ____
DOCKED: ROOT
DOCKED: ATOM      1  C   UNL d   1     -14.035   6.691  -1.531 -0.27 +0.02    +0.064 A 
DOCKED: ATOM      2  C   UNL d   1     -16.558  10.337  -3.249 -0.09 +0.00    +0.064 C 
DOCKED: ATOM      3  C   UNL d   1     -13.122  11.261  -6.437 -0.15 -0.01    +0.064 A 
DOCKED: ATOM      4  C   UNL d   1     -10.703   7.308  -4.957 -0.28 -0.02    +0.064 A 
DOCKED: ATOM      5  C   UNL d   1     -14.960   7.642  -1.742 -0.20 +0.02    +0.066 A 
DOCKED: ATOM      6  C   UNL d   1     -16.179   7.668  -1.036 -0.19 -0.01    -0.021 A 
DOCKED: ATOM      7  C   UNL d   1     -16.917   8.714  -1.555 -0.11 -0.00    -0.025 A 
DOCKED: ATOM      8  C   UNL d   1     -16.111   9.291  -2.542 -0.09 +0.01    +0.066 A 
DOCKED: ATOM      9  C   UNL d   1     -18.328   9.165  -1.147 -0.05 +0.01    +0.051 C 
DOCKED: ATOM     10  C   UNL d   1     -15.790  11.012  -4.265 -0.08 +0.00    +0.066 A 
DOCKED: ATOM     11  C   UNL d   1     -16.146  12.198  -4.943 -0.06 +0.00    -0.021 A 
DOCKED: ATOM     12  C   UNL d   1     -15.125  12.447  -5.864 -0.08 -0.00    +0.000 A 
DOCKED: ATOM     13  C   UNL d   1     -14.218  11.405  -5.672 -0.11 -0.00    +0.070 A 
DOCKED: ATOM     14  C   UNL d   1     -17.339  13.071  -4.647 -0.03 -0.00    +0.052 C 
DOCKED: ATOM     15  C   UNL d   1     -12.112  10.221  -6.412 -0.20 -0.01    +0.066 A 
DOCKED: ATOM     16  C   UNL d   1     -11.082  10.052  -7.326 -0.25 +0.00    -0.021 A 
DOCKED: ATOM     17  C   UNL d   1     -10.383   8.912  -6.905 -0.29 -0.00    +0.000 A 
DOCKED: ATOM     18  C   UNL d   1     -11.034   8.484  -5.753 -0.27 -0.02    +0.070 A 
DOCKED: ATOM     19  C   UNL d   1     -10.812  10.943  -8.518 -0.23 -0.01    +0.052 C 
DOCKED: ATOM     20  C   UNL d   1     -11.373   6.824  -3.884 -0.25 -0.01    +0.066 A 
DOCKED: ATOM     21  C   UNL d   1     -10.979   5.663  -3.223 -0.26 +0.00    -0.025 A 
DOCKED: ATOM     22  C   UNL d   1     -11.904   5.476  -2.212 -0.25 -0.00    -0.021 A 
DOCKED: ATOM     23  C   UNL d   1     -12.832   6.534  -2.315 -0.26 +0.01    +0.066 A 
DOCKED: ATOM     24  C   UNL d   1      -9.789   4.764  -3.550 -0.34 -0.01    +0.051 C 
DOCKED: ATOM     25  N   UNL d   1     -14.891   8.650  -2.675 +0.04 -0.03    -0.248 N 
DOCKED: ATOM     26  N   UNL d   1     -14.594  10.569  -4.667 -0.05 -0.00    -0.248 N 
DOCKED: ATOM     27  N   UNL d   1     -12.077   9.270  -5.506 -0.13 +0.03    -0.248 N 
DOCKED: ATOM     28  N   UNL d   1     -12.516   7.351  -3.327 -0.16 -0.01    -0.248 N 
DOCKED: ATOM     29 FE   UNL d   1     -13.398   8.976  -4.173 -0.05 +0.00    +0.000 Fe
DOCKED: ENDROOT
DOCKED: BRANCH   6  30
DOCKED: ATOM     30  C   UNL d   1     -16.636   6.676   0.028 -0.17 +0.03    +0.052 C 
DOCKED: BRANCH  30  31
DOCKED: ATOM     31  C   UNL d   1     -17.805   5.837  -0.485 -0.12 +0.08    +0.115 C 
DOCKED: BRANCH  31  32
DOCKED: ATOM     32  C   UNL d   1     -17.415   4.396  -0.738 -0.05 +0.18    +0.139 C 
DOCKED: ATOM     33  O   UNL d   1     -16.400   4.151  -1.371 -0.52 -1.10    -0.650 OA
DOCKED: BRANCH  32  34
DOCKED: ATOM     34  O   UNL d   1     -18.132   3.361  -0.241 -0.00 -1.12    -0.776 OA
DOCKED: ATOM     35  H   UNL d   1     -18.902   2.974  -0.678 +0.02 +0.17    +0.167 HD
DOCKED: ENDBRANCH  32  34
DOCKED: ENDBRANCH  31  32
DOCKED: ENDBRANCH  30  31
DOCKED: ENDBRANCH   6  30
DOCKED: BRANCH  29  36
DOCKED: ATOM     36  C   UNL d   1     -14.540   7.736  -5.420 -0.04 +0.00    +0.190 C 
DOCKED: BRANCH  36  37
DOCKED: ATOM     37  O   UNL d   1     -15.696   6.949  -5.452 +0.00 -0.03    -0.399 OA
DOCKED: ATOM     38  H   UNL d   1     -15.844   6.672  -4.505 +0.02 +0.03    +0.209 HD
DOCKED: ENDBRANCH  36  37
DOCKED: ENDBRANCH  29  36
DOCKED: BRANCH  22  39
DOCKED: ATOM     39  C   UNL d   1     -11.927   4.307  -1.246 -0.19 +0.03    +0.052 C 
DOCKED: BRANCH  39  40
DOCKED: ATOM     40  C   UNL d   1     -12.659   3.105  -1.865 -0.15 +0.09    +0.115 C 
DOCKED: BRANCH  40  41
DOCKED: ATOM     41  C   UNL d   1     -12.357   1.779  -1.200 -0.17 +0.13    +0.139 C 
DOCKED: ATOM     42  O   UNL d   1     -11.454   1.081  -1.640 +0.02 -0.32    -0.650 OA
DOCKED: BRANCH  41  43
DOCKED: ATOM     43  O   UNL d   1     -12.999   1.384  -0.079 -0.20 -1.49    -0.776 OA
DOCKED: ATOM     44  H   UNL d   1     -12.914   0.491   0.282 +0.06 +0.23    +0.167 HD
DOCKED: ENDBRANCH  41  43
DOCKED: ENDBRANCH  40  41
DOCKED: ENDBRANCH  39  40
DOCKED: ENDBRANCH  22  39
DOCKED: BRANCH  12  45
DOCKED: ATOM     45  C   UNL d   1     -14.893  13.554  -6.884 -0.05 -0.00    +0.004 C 
DOCKED: ATOM     46  C   UNL d   1     -13.959  14.499  -6.939 -0.07 -0.00    +0.012 C 
DOCKED: ENDBRANCH  12  45
DOCKED: BRANCH  17  47
DOCKED: ATOM     47  C   UNL d   1      -9.221   8.217  -7.536 -0.24 -0.00    +0.004 C 
DOCKED: ATOM     48  C   UNL d   1      -9.157   7.923  -8.837 -0.38 -0.01    +0.012 C 
DOCKED: ENDBRANCH  17  47
DOCKED: TORSDOF 12
DOCKED: TER
DOCKED: ENDMDL
________________________________________________________________________________


	BEGINNING GENETIC ALGORITHM DOCKING 23 of 100
Run: 23 Seed: 1320691047 1464485486 [ Run 23 of 100 GA/GALS ]
Beginning LAMARCKIAN GENETIC ALGORITHM (LGA), with a maximum of 25000000 energy evaluations.

Final-Value: -11.326


	FINAL GENETIC ALGORITHM DOCKED STATE
	_______________________________________________


Detailed state:  trans -20.008 5.541 1.547 quatxyzw 0.468372 0.416930 -0.255577 0.735852 center 8.781 34.984 -0.736 ntor 12 -10.1253 101.4250 147.0610 122.1956 -94.0702 160.3421 -138.1860 -61.7878 -178.3892 -113.4129 0.7618 -5.2753
State:	-20.008   5.541   1.547   0.692  0.616 -0.377 85.242    -10.13  101.42  147.06  122.20  -94.07  160.34 -138.19  -61.79 -178.39 -113.41    0.76   -5.28

DOCKED: MODEL       23
DOCKED: USER    Run = 23
DOCKED: USER    DPF = D:/Protein_go_brrr/autodock/final/AncMH_nat/heme_Co/dock.dpf
DOCKED: USER  
DOCKED: USER    Estimated Free Energy of Binding    =   -5.31 kcal/mol  [=(1)+(2)+(3)-(4)]
DOCKED: USER    Estimated Inhibition Constant, Ki   =  127.98 uM (micromolar)  [Temperature = 298.15 K]
DOCKED: USER    
DOCKED: USER    (1) Final Intermolecular Energy     =   -8.89 kcal/mol
DOCKED: USER        vdW + Hbond + desolv Energy     =   -4.83 kcal/mol
DOCKED: USER        Electrostatic Energy            =   -4.06 kcal/mol
DOCKED: USER    (2) Final Total Internal Energy     =   -2.44 kcal/mol
DOCKED: USER    (3) Torsional Free Energy           =   +3.58 kcal/mol
DOCKED: USER    (4) Unbound System's Energy  [=(2)] =   -2.44 kcal/mol
DOCKED: USER    
DOCKED: USER    
DOCKED: USER    NEWDPF move heme_Co_opt.pdbqt
DOCKED: USER    NEWDPF about 8.781000 34.984000 -0.736000
DOCKED: USER    NEWDPF tran0 -20.008273 5.540993 1.546536
DOCKED: USER    NEWDPF quaternion0 0.468372 0.416930 -0.255577 0.735852
DOCKED: USER    NEWDPF axisangle0 0.691689 0.615719 -0.377434 85.241537
DOCKED: USER    NEWDPF quat0 0.691689 0.615719 -0.377434 85.241537
DOCKED: USER    NEWDPF dihe0 -10.13 101.42 147.06 122.20 -94.07 160.34 -138.19 -61.79 -178.39 -113.41 0.76 -5.28 
DOCKED: USER  keepresnum = 1 
DOCKED: USER  
DOCKED: REMARK  12 active torsions:
DOCKED: REMARK  status: ('A' for Active; 'I' for Inactive)
DOCKED: REMARK    1  A    between atoms: C_6  and  C_10 
DOCKED: REMARK    2  A    between atoms: C_10  and  C_11 
DOCKED: REMARK    3  A    between atoms: C_11  and  C_12 
DOCKED: REMARK    4  A    between atoms: C_12  and  O_14 
DOCKED: REMARK    5  A    between atoms: C_17  and  C_20 
DOCKED: REMARK    6  A    between atoms: C_24  and  C_27 
DOCKED: REMARK    7  A    between atoms: C_31  and  C_34 
DOCKED: REMARK    8  A    between atoms: C_34  and  C_35 
DOCKED: REMARK    9  A    between atoms: C_35  and  C_36 
DOCKED: REMARK   10  A    between atoms: C_36  and  O_38 
DOCKED: REMARK   11  A    between atoms: FE_43  and  C_44 
DOCKED: REMARK   12  A    between atoms: C_44  and  O_45 
DOCKED: USER                              x       y       z     vdW  Elec       q    Type
DOCKED: USER                           _______ _______ _______ _____ _____    ______ ____
DOCKED: ROOT
DOCKED: ATOM      1  C   UNL d   1     -20.286   3.868   0.191 -0.07 +0.06    +0.064 A 
DOCKED: ATOM      2  C   UNL d   1     -22.853   5.466   3.860 -0.09 +0.05    +0.064 C 
DOCKED: ATOM      3  C   UNL d   1     -19.510   8.741   4.821 -0.17 +0.02    +0.064 A 
DOCKED: ATOM      4  C   UNL d   1     -17.054   7.381   0.848 -0.18 +0.03    +0.064 A 
DOCKED: ATOM      5  C   UNL d   1     -21.215   4.040   1.145 -0.06 +0.08    +0.066 A 
DOCKED: ATOM      6  C   UNL d   1     -22.413   3.299   1.163 -0.05 -0.02    -0.021 A 
DOCKED: ATOM      7  C   UNL d   1     -23.164   3.783   2.216 -0.05 -0.02    -0.025 A 
DOCKED: ATOM      8  C   UNL d   1     -22.387   4.786   2.805 +0.07 +0.08    +0.066 A 
DOCKED: ATOM      9  C   UNL d   1     -24.563   3.329   2.663 -0.03 +0.03    +0.051 C 
DOCKED: ATOM     10  C   UNL d   1     -22.114   6.496   4.547 -0.10 +0.04    +0.066 A 
DOCKED: ATOM     11  C   UNL d   1     -22.488   7.148   5.742 -0.07 -0.01    -0.021 A 
DOCKED: ATOM     12  C   UNL d   1     -21.494   8.095   6.002 -0.11 +0.00    +0.000 A 
DOCKED: ATOM     13  C   UNL d   1     -20.583   7.942   4.956 -0.13 +0.03    +0.070 A 
DOCKED: ATOM     14  C   UNL d   1     -23.671   6.807   6.612 -0.03 +0.02    +0.052 C 
DOCKED: ATOM     15  C   UNL d   1     -18.501   8.758   3.781 -0.22 +0.02    +0.066 A 
DOCKED: ATOM     16  C   UNL d   1     -17.498   9.704   3.622 -0.33 -0.00    -0.021 A 
DOCKED: ATOM     17  C   UNL d   1     -16.788   9.317   2.476 -0.36 +0.00    +0.000 A 
DOCKED: ATOM     18  C   UNL d   1     -17.406   8.152   2.034 -0.22 +0.02    +0.070 A 
DOCKED: ATOM     19  C   UNL d   1     -17.262  10.892   4.527 -0.31 +0.00    +0.052 C 
DOCKED: ATOM     20  C   UNL d   1     -17.693   6.295   0.351 -0.14 +0.05    +0.066 A 
DOCKED: ATOM     21  C   UNL d   1     -17.280   5.661  -0.818 -0.12 -0.02    -0.025 A 
DOCKED: ATOM     22  C   UNL d   1     -18.176   4.626  -1.017 -0.09 -0.02    -0.021 A 
DOCKED: ATOM     23  C   UNL d   1     -19.106   4.689   0.043 -0.10 +0.06    +0.066 A 
DOCKED: ATOM     24  C   UNL d   1     -16.102   6.033  -1.714 -0.14 +0.03    +0.051 C 
DOCKED: ATOM     25  N   UNL d   1     -21.172   4.963   2.165 +0.01 -0.36    -0.248 N 
DOCKED: ATOM     26  N   UNL d   1     -20.931   6.937   4.109 -0.09 -0.16    -0.248 N 
DOCKED: ATOM     27  N   UNL d   1     -18.440   7.866   2.817 -0.12 -0.10    -0.248 N 
DOCKED: ATOM     28  N   UNL d   1     -18.818   5.699   0.872 -0.10 -0.21    -0.248 N 
DOCKED: ATOM     29 FE   UNL d   1     -19.723   6.499   2.508 -0.03 +0.00    +0.000 Fe
DOCKED: ENDROOT
DOCKED: BRANCH   6  30
DOCKED: ATOM     30  C   UNL d   1     -22.840   2.234   0.158 -0.02 +0.03    +0.052 C 
DOCKED: BRANCH  30  31
DOCKED: ATOM     31  C   UNL d   1     -22.254   0.874   0.536 -0.02 +0.08    +0.115 C 
DOCKED: BRANCH  31  32
DOCKED: ATOM     32  C   UNL d   1     -21.408   0.938   1.790 +0.03 +0.20    +0.139 C 
DOCKED: ATOM     33  O   UNL d   1     -21.925   0.716   2.875 -0.25 -1.15    -0.650 OA
DOCKED: BRANCH  32  34
DOCKED: ATOM     34  O   UNL d   1     -20.079   1.186   1.746 -0.01 -1.50    -0.776 OA
DOCKED: ATOM     35  H   UNL d   1     -19.543   1.143   0.942 +0.02 +0.23    +0.167 HD
DOCKED: ENDBRANCH  32  34
DOCKED: ENDBRANCH  31  32
DOCKED: ENDBRANCH  30  31
DOCKED: ENDBRANCH   6  30
DOCKED: BRANCH  29  36
DOCKED: ATOM     36  C   UNL d   1     -20.902   7.727   1.284 -0.02 +0.06    +0.190 C 
DOCKED: BRANCH  36  37
DOCKED: ATOM     37  O   UNL d   1     -22.115   7.774   0.591 +0.00 -0.10    -0.399 OA
DOCKED: ATOM     38  H   UNL d   1     -22.451   6.834   0.600 +0.01 +0.07    +0.209 HD
DOCKED: ENDBRANCH  36  37
DOCKED: ENDBRANCH  29  36
DOCKED: BRANCH  22  39
DOCKED: ATOM     39  C   UNL d   1     -18.172   3.674  -2.198 -0.05 +0.04    +0.052 C 
DOCKED: BRANCH  39  40
DOCKED: ATOM     40  C   UNL d   1     -17.433   2.373  -1.844 -0.05 +0.13    +0.115 C 
DOCKED: BRANCH  40  41
DOCKED: ATOM     41  C   UNL d   1     -18.049   1.596  -0.700 -0.06 +0.18    +0.139 C 
DOCKED: ATOM     42  O   UNL d   1     -19.065   0.945  -0.897 +0.03 -0.56    -0.650 OA
DOCKED: BRANCH  41  43
DOCKED: ATOM     43  O   UNL d   1     -17.458   1.532   0.514 +0.01 -1.79    -0.776 OA
DOCKED: ATOM     44  H   UNL d   1     -17.958   1.387   1.328 +0.02 +0.32    +0.167 HD
DOCKED: ENDBRANCH  41  43
DOCKED: ENDBRANCH  40  41
DOCKED: ENDBRANCH  39  40
DOCKED: ENDBRANCH  22  39
DOCKED: BRANCH  12  45
DOCKED: ATOM     45  C   UNL d   1     -21.291   9.107   7.121 -0.12 +0.00    +0.004 C 
DOCKED: ATOM     46  C   UNL d   1     -20.358   9.177   8.066 -0.24 +0.00    +0.012 C 
DOCKED: ENDBRANCH  12  45
DOCKED: BRANCH  17  47
DOCKED: ATOM     47  C   UNL d   1     -15.646   9.991   1.788 -0.34 -0.00    +0.004 C 
DOCKED: ATOM     48  C   UNL d   1     -15.719  10.485   0.550 -0.32 -0.00    +0.012 C 
DOCKED: ENDBRANCH  17  47
DOCKED: TORSDOF 12
DOCKED: TER
DOCKED: ENDMDL
________________________________________________________________________________


	BEGINNING GENETIC ALGORITHM DOCKING 24 of 100
Run: 24 Seed: 1871353215 1216319058 [ Run 24 of 100 GA/GALS ]
Beginning LAMARCKIAN GENETIC ALGORITHM (LGA), with a maximum of 25000000 energy evaluations.

Final-Value: -10.991


	FINAL GENETIC ALGORITHM DOCKED STATE
	_______________________________________________


Detailed state:  trans -15.641 -1.581 0.158 quatxyzw 0.068179 0.470228 -0.053939 0.878252 center 8.781 34.984 -0.736 ntor 12 -25.2360 96.6073 45.9911 131.8362 147.4571 120.8162 -99.6901 179.7624 120.5433 156.5530 17.3745 -172.8487
State:	-15.641  -1.581   0.158   0.143  0.983 -0.113 57.135    -25.24   96.61   45.99  131.84  147.46  120.82  -99.69  179.76  120.54  156.55   17.37 -172.85

DOCKED: MODEL       24
DOCKED: USER    Run = 24
DOCKED: USER    DPF = D:/Protein_go_brrr/autodock/final/AncMH_nat/heme_Co/dock.dpf
DOCKED: USER  
DOCKED: USER    Estimated Free Energy of Binding    =   -6.36 kcal/mol  [=(1)+(2)+(3)-(4)]
DOCKED: USER    Estimated Inhibition Constant, Ki   =   21.63 uM (micromolar)  [Temperature = 298.15 K]
DOCKED: USER    
DOCKED: USER    (1) Final Intermolecular Energy     =   -9.94 kcal/mol
DOCKED: USER        vdW + Hbond + desolv Energy     =   -6.83 kcal/mol
DOCKED: USER        Electrostatic Energy            =   -3.11 kcal/mol
DOCKED: USER    (2) Final Total Internal Energy     =   -1.05 kcal/mol
DOCKED: USER    (3) Torsional Free Energy           =   +3.58 kcal/mol
DOCKED: USER    (4) Unbound System's Energy  [=(2)] =   -1.05 kcal/mol
DOCKED: USER    
DOCKED: USER    
DOCKED: USER    NEWDPF move heme_Co_opt.pdbqt
DOCKED: USER    NEWDPF about 8.781000 34.984000 -0.736000
DOCKED: USER    NEWDPF tran0 -15.641320 -1.581464 0.158378
DOCKED: USER    NEWDPF quaternion0 0.068179 0.470228 -0.053939 0.878252
DOCKED: USER    NEWDPF axisangle0 0.142575 0.983336 -0.112797 57.135451
DOCKED: USER    NEWDPF quat0 0.142575 0.983336 -0.112797 57.135451
DOCKED: USER    NEWDPF dihe0 -25.24 96.61 45.99 131.84 147.46 120.82 -99.69 179.76 120.54 156.55 17.37 -172.85 
DOCKED: USER  keepresnum = 1 
DOCKED: USER  
DOCKED: REMARK  12 active torsions:
DOCKED: REMARK  status: ('A' for Active; 'I' for Inactive)
DOCKED: REMARK    1  A    between atoms: C_6  and  C_10 
DOCKED: REMARK    2  A    between atoms: C_10  and  C_11 
DOCKED: REMARK    3  A    between atoms: C_11  and  C_12 
DOCKED: REMARK    4  A    between atoms: C_12  and  O_14 
DOCKED: REMARK    5  A    between atoms: C_17  and  C_20 
DOCKED: REMARK    6  A    between atoms: C_24  and  C_27 
DOCKED: REMARK    7  A    between atoms: C_31  and  C_34 
DOCKED: REMARK    8  A    between atoms: C_34  and  C_35 
DOCKED: REMARK    9  A    between atoms: C_35  and  C_36 
DOCKED: REMARK   10  A    between atoms: C_36  and  O_38 
DOCKED: REMARK   11  A    between atoms: FE_43  and  C_44 
DOCKED: REMARK   12  A    between atoms: C_44  and  O_45 
DOCKED: USER                              x       y       z     vdW  Elec       q    Type
DOCKED: USER                           _______ _______ _______ _____ _____    ______ ____
DOCKED: ROOT
DOCKED: ATOM      1  C   UNL d   1     -16.016  -1.456  -1.977 -0.10 +0.06    +0.064 A 
DOCKED: ATOM      2  C   UNL d   1     -18.352  -3.618   1.556 -0.06 +0.05    +0.064 C 
DOCKED: ATOM      3  C   UNL d   1     -14.917  -2.378   4.637 -0.17 +0.03    +0.064 A 
DOCKED: ATOM      4  C   UNL d   1     -12.707   0.165   1.128 -0.23 +0.07    +0.064 A 
DOCKED: ATOM      5  C   UNL d   1     -16.889  -2.169  -1.245 -0.07 +0.07    +0.066 A 
DOCKED: ATOM      6  C   UNL d   1     -18.093  -2.658  -1.787 -0.07 -0.02    -0.021 A 
DOCKED: ATOM      7  C   UNL d   1     -18.778  -3.265  -0.752 -0.05 -0.02    -0.025 A 
DOCKED: ATOM      8  C   UNL d   1     -17.955  -3.134   0.372 -0.05 +0.06    +0.066 A 
DOCKED: ATOM      9  C   UNL d   1     -20.154  -3.945  -0.804 -0.01 +0.02    +0.051 C 
DOCKED: ATOM     10  C   UNL d   1     -17.563  -3.554   2.760 -0.06 +0.05    +0.066 A 
DOCKED: ATOM     11  C   UNL d   1     -17.861  -4.164   3.998 -0.08 -0.01    -0.021 A 
DOCKED: ATOM     12  C   UNL d   1     -16.841  -3.789   4.877 -0.12 +0.00    +0.000 A 
DOCKED: ATOM     13  C   UNL d   1     -15.992  -2.991   4.110 -0.10 +0.04    +0.070 A 
DOCKED: ATOM     14  C   UNL d   1     -18.997  -5.115   4.273 +0.04 +0.02    +0.052 C 
DOCKED: ATOM     15  C   UNL d   1     -13.968  -1.482   4.006 -0.22 +0.04    +0.066 A 
DOCKED: ATOM     16  C   UNL d   1     -12.963  -0.767   4.642 -0.27 -0.01    -0.021 A 
DOCKED: ATOM     17  C   UNL d   1     -12.325  -0.030   3.635 -0.30 +0.00    +0.000 A 
DOCKED: ATOM     18  C   UNL d   1     -12.982  -0.368   2.457 -0.25 +0.06    +0.070 A 
DOCKED: ATOM     19  C   UNL d   1     -12.661  -0.808   6.124 -0.38 +0.01    +0.052 C 
DOCKED: ATOM     20  C   UNL d   1     -13.387  -0.083  -0.017 -0.16 +0.09    +0.066 A 
DOCKED: ATOM     21  C   UNL d   1     -13.049   0.518  -1.227 -0.19 -0.03    -0.025 A 
DOCKED: ATOM     22  C   UNL d   1     -13.968   0.047  -2.147 -0.15 -0.02    -0.021 A 
DOCKED: ATOM     23  C   UNL d   1     -14.836  -0.815  -1.444 -0.09 +0.08    +0.066 A 
DOCKED: ATOM     24  C   UNL d   1     -11.918   1.509  -1.492 -0.23 +0.03    +0.051 C 
DOCKED: ATOM     25  N   UNL d   1     -16.776  -2.465   0.094 -0.04 -0.30    -0.248 N 
DOCKED: ATOM     26  N   UNL d   1     -16.400  -2.895   2.816 -0.05 -0.21    -0.248 N 
DOCKED: ATOM     27  N   UNL d   1     -13.974  -1.211   2.720 -0.16 -0.22    -0.248 N 
DOCKED: ATOM     28  N   UNL d   1     -14.489  -0.895  -0.153 -0.13 -0.33    -0.248 N 
DOCKED: ATOM     29 FE   UNL d   1     -15.290  -1.799   1.482 -0.04 +0.00    +0.000 Fe
DOCKED: ENDROOT
DOCKED: BRANCH   6  30
DOCKED: ATOM     30  C   UNL d   1     -18.590  -2.473  -3.217 -0.03 +0.03    +0.052 C 
DOCKED: BRANCH  30  31
DOCKED: ATOM     31  C   UNL d   1     -18.353  -3.741  -4.037 -0.04 +0.06    +0.115 C 
DOCKED: BRANCH  31  32
DOCKED: ATOM     32  C   UNL d   1     -16.886  -4.097  -4.139 -0.06 +0.12    +0.139 C 
DOCKED: ATOM     33  O   UNL d   1     -16.526  -5.239  -3.893 -0.52 -0.80    -0.650 OA
DOCKED: BRANCH  32  34
DOCKED: ATOM     34  O   UNL d   1     -15.956  -3.200  -4.543 -0.09 -0.57    -0.776 OA
DOCKED: ATOM     35  H   UNL d   1     -16.133  -2.470  -5.152 +0.02 +0.08    +0.167 HD
DOCKED: ENDBRANCH  32  34
DOCKED: ENDBRANCH  31  32
DOCKED: ENDBRANCH  30  31
DOCKED: ENDBRANCH   6  30
DOCKED: BRANCH  29  36
DOCKED: ATOM     36  C   UNL d   1     -16.519  -0.137   1.828 -0.03 +0.29    +0.190 C 
DOCKED: BRANCH  36  37
DOCKED: ATOM     37  O   UNL d   1     -17.419   0.733   1.204 -0.42 -0.75    -0.399 OA
DOCKED: ATOM     38  H   UNL d   1     -17.263   0.605   0.226 +0.03 +0.38    +0.209 HD
DOCKED: ENDBRANCH  36  37
DOCKED: ENDBRANCH  29  36
DOCKED: BRANCH  22  39
DOCKED: ATOM     39  C   UNL d   1     -14.043   0.459  -3.605 -0.09 +0.03    +0.052 C 
DOCKED: BRANCH  39  40
DOCKED: ATOM     40  C   UNL d   1     -14.559   1.901  -3.737 -0.04 +0.06    +0.115 C 
DOCKED: BRANCH  40  41
DOCKED: ATOM     41  C   UNL d   1     -15.485   2.338  -2.621 -0.06 +0.15    +0.139 C 
DOCKED: ATOM     42  O   UNL d   1     -16.342   1.564  -2.218 -0.00 -0.76    -0.650 OA
DOCKED: BRANCH  41  43
DOCKED: ATOM     43  O   UNL d   1     -15.337   3.528  -1.999 -0.42 -1.22    -0.776 OA
DOCKED: ATOM     44  H   UNL d   1     -15.279   4.363  -2.482 +0.02 +0.15    +0.167 HD
DOCKED: ENDBRANCH  41  43
DOCKED: ENDBRANCH  40  41
DOCKED: ENDBRANCH  39  40
DOCKED: ENDBRANCH  22  39
DOCKED: BRANCH  12  45
DOCKED: ATOM     45  C   UNL d   1     -16.562  -4.107   6.340 -0.19 +0.00    +0.004 C 
DOCKED: ATOM     46  C   UNL d   1     -15.496  -4.653   6.920 -0.41 +0.00    +0.012 C 
DOCKED: ENDBRANCH  12  45
DOCKED: BRANCH  17  47
DOCKED: ATOM     47  C   UNL d   1     -11.214   0.964   3.738 -0.41 +0.00    +0.004 C 
DOCKED: ATOM     48  C   UNL d   1     -10.081   0.878   3.037 -0.29 +0.00    +0.012 C 
DOCKED: ENDBRANCH  17  47
DOCKED: TORSDOF 12
DOCKED: TER
DOCKED: ENDMDL
________________________________________________________________________________


	BEGINNING GENETIC ALGORITHM DOCKING 25 of 100
Run: 25 Seed: 1531298683 959535127 [ Run 25 of 100 GA/GALS ]
Beginning LAMARCKIAN GENETIC ALGORITHM (LGA), with a maximum of 25000000 energy evaluations.

Final-Value: -9.279


	FINAL GENETIC ALGORITHM DOCKED STATE
	_______________________________________________


Detailed state:  trans -11.210 12.519 15.911 quatxyzw -0.383077 -0.195879 -0.561417 0.706891 center 8.781 34.984 -0.736 ntor 12 -149.3919 111.4921 1.8337 118.4551 142.9717 123.6863 55.7347 -151.6363 152.9989 15.5840 -151.1585 137.0527
State:	-11.210  12.519  15.911  -0.542 -0.277 -0.794 90.035   -149.39  111.49    1.83  118.46  142.97  123.69   55.73 -151.64  153.00   15.58 -151.16  137.05

DOCKED: MODEL       25
DOCKED: USER    Run = 25
DOCKED: USER    DPF = D:/Protein_go_brrr/autodock/final/AncMH_nat/heme_Co/dock.dpf
DOCKED: USER  
DOCKED: USER    Estimated Free Energy of Binding    =   -3.44 kcal/mol  [=(1)+(2)+(3)-(4)]
DOCKED: USER    Estimated Inhibition Constant, Ki   =    3.02 mM (millimolar)  [Temperature = 298.15 K]
DOCKED: USER    
DOCKED: USER    (1) Final Intermolecular Energy     =   -7.02 kcal/mol
DOCKED: USER        vdW + Hbond + desolv Energy     =   -5.59 kcal/mol
DOCKED: USER        Electrostatic Energy            =   -1.43 kcal/mol
DOCKED: USER    (2) Final Total Internal Energy     =   -2.26 kcal/mol
DOCKED: USER    (3) Torsional Free Energy           =   +3.58 kcal/mol
DOCKED: USER    (4) Unbound System's Energy  [=(2)] =   -2.26 kcal/mol
DOCKED: USER    
DOCKED: USER    
DOCKED: USER    NEWDPF move heme_Co_opt.pdbqt
DOCKED: USER    NEWDPF about 8.781000 34.984000 -0.736000
DOCKED: USER    NEWDPF tran0 -11.210224 12.518656 15.911452
DOCKED: USER    NEWDPF quaternion0 -0.383077 -0.195879 -0.561417 0.706891
DOCKED: USER    NEWDPF axisangle0 -0.541587 -0.276931 -0.793721 90.035003
DOCKED: USER    NEWDPF quat0 -0.541587 -0.276931 -0.793721 90.035003
DOCKED: USER    NEWDPF dihe0 -149.39 111.49 1.83 118.46 142.97 123.69 55.73 -151.64 153.00 15.58 -151.16 137.05 
DOCKED: USER  keepresnum = 1 
DOCKED: USER  
DOCKED: REMARK  12 active torsions:
DOCKED: REMARK  status: ('A' for Active; 'I' for Inactive)
DOCKED: REMARK    1  A    between atoms: C_6  and  C_10 
DOCKED: REMARK    2  A    between atoms: C_10  and  C_11 
DOCKED: REMARK    3  A    between atoms: C_11  and  C_12 
DOCKED: REMARK    4  A    between atoms: C_12  and  O_14 
DOCKED: REMARK    5  A    between atoms: C_17  and  C_20 
DOCKED: REMARK    6  A    between atoms: C_24  and  C_27 
DOCKED: REMARK    7  A    between atoms: C_31  and  C_34 
DOCKED: REMARK    8  A    between atoms: C_34  and  C_35 
DOCKED: REMARK    9  A    between atoms: C_35  and  C_36 
DOCKED: REMARK   10  A    between atoms: C_36  and  O_38 
DOCKED: REMARK   11  A    between atoms: FE_43  and  C_44 
DOCKED: REMARK   12  A    between atoms: C_44  and  O_45 
DOCKED: USER                              x       y       z     vdW  Elec       q    Type
DOCKED: USER                           _______ _______ _______ _____ _____    ______ ____
DOCKED: ROOT
DOCKED: ATOM      1  C   UNL d   1     -12.699  11.004  15.460 -0.14 -0.00    +0.064 A 
DOCKED: ATOM      2  C   UNL d   1      -7.977  10.788  15.979 -0.28 -0.01    +0.064 C 
DOCKED: ATOM      3  C   UNL d   1      -7.775  15.538  16.452 -0.14 -0.02    +0.064 A 
DOCKED: ATOM      4  C   UNL d   1     -12.633  15.747  16.310 -0.09 -0.03    +0.064 A 
DOCKED: ATOM      5  C   UNL d   1     -11.420  10.600  15.531 -0.18 -0.01    +0.066 A 
DOCKED: ATOM      6  C   UNL d   1     -11.064   9.237  15.504 -0.24 +0.00    -0.021 A 
DOCKED: ATOM      7  C   UNL d   1      -9.696   9.179  15.678 -0.29 +0.01    -0.025 A 
DOCKED: ATOM      8  C   UNL d   1      -9.273  10.508  15.787 -0.20 -0.01    +0.066 A 
DOCKED: ATOM      9  C   UNL d   1      -8.806   7.928  15.742 -0.24 -0.02    +0.051 C 
DOCKED: ATOM     10  C   UNL d   1      -7.446  12.125  16.076 -0.22 -0.01    +0.066 A 
DOCKED: ATOM     11  C   UNL d   1      -6.083  12.489  16.138 -0.18 +0.00    -0.021 A 
DOCKED: ATOM     12  C   UNL d   1      -6.053  13.880  16.271 -0.15 -0.00    +0.000 A 
DOCKED: ATOM     13  C   UNL d   1      -7.395  14.261  16.269 -0.15 -0.02    +0.070 A 
DOCKED: ATOM     14  C   UNL d   1      -4.905  11.563  15.980 -0.19 -0.01    +0.052 C 
DOCKED: ATOM     15  C   UNL d   1      -9.109  16.099  16.529 -0.09 -0.04    +0.066 A 
DOCKED: ATOM     16  C   UNL d   1      -9.435  17.405  16.865 -0.15 +0.01    -0.021 A 
DOCKED: ATOM     17  C   UNL d   1     -10.835  17.470  16.828 -0.12 -0.00    +0.000 A 
DOCKED: ATOM     18  C   UNL d   1     -11.254  16.197  16.455 -0.14 -0.04    +0.070 A 
DOCKED: ATOM     19  C   UNL d   1      -8.444  18.499  17.197 -0.11 -0.02    +0.052 C 
DOCKED: ATOM     20  C   UNL d   1     -13.066  14.494  16.033 -0.07 -0.02    +0.066 A 
DOCKED: ATOM     21  C   UNL d   1     -14.420  14.175  15.955 -0.03 +0.00    -0.025 A 
DOCKED: ATOM     22  C   UNL d   1     -14.469  12.820  15.682 -0.04 +0.00    -0.021 A 
DOCKED: ATOM     23  C   UNL d   1     -13.132  12.373  15.618 -0.08 -0.01    +0.066 A 
DOCKED: ATOM     24  C   UNL d   1     -15.610  15.111  16.150 -0.01 -0.01    +0.051 C 
DOCKED: ATOM     25  N   UNL d   1     -10.319  11.410  15.693 -0.16 +0.05    -0.248 N 
DOCKED: ATOM     26  N   UNL d   1      -8.234  13.205  16.095 -0.09 +0.09    -0.248 N 
DOCKED: ATOM     27  N   UNL d   1     -10.201  15.399  16.315 -0.04 +0.16    -0.248 N 
DOCKED: ATOM     28  N   UNL d   1     -12.280  13.383  15.832 -0.07 +0.07    -0.248 N 
DOCKED: ATOM     29 FE   UNL d   1     -10.260  13.523  16.022 -0.04 -0.00    +0.000 Fe
DOCKED: ENDROOT
DOCKED: BRANCH   6  30
DOCKED: ATOM     30  C   UNL d   1     -12.016   8.050  15.398 -0.36 -0.00    +0.052 C 
DOCKED: BRANCH  30  31
DOCKED: ATOM     31  C   UNL d   1     -12.876   7.938  16.657 -0.17 +0.01    +0.115 C 
DOCKED: BRANCH  31  32
DOCKED: ATOM     32  C   UNL d   1     -12.176   8.480  17.885 -0.05 -0.01    +0.139 C 
DOCKED: ATOM     33  O   UNL d   1     -11.269   7.837  18.392 +0.05 +0.09    -0.650 OA
DOCKED: BRANCH  32  34
DOCKED: ATOM     34  O   UNL d   1     -12.490   9.684  18.416 +0.04 +0.02    -0.776 OA
DOCKED: ATOM     35  H   UNL d   1     -11.877  10.228  18.931 +0.01 -0.01    +0.167 HD
DOCKED: ENDBRANCH  32  34
DOCKED: ENDBRANCH  31  32
DOCKED: ENDBRANCH  30  31
DOCKED: ENDBRANCH   6  30
DOCKED: BRANCH  29  36
DOCKED: ATOM     36  C   UNL d   1     -10.399  13.095  18.069 -0.04 -0.04    +0.190 C 
DOCKED: BRANCH  36  37
DOCKED: ATOM     37  O   UNL d   1     -10.926  12.175  18.982 -0.00 +0.05    -0.399 OA
DOCKED: ATOM     38  H   UNL d   1     -11.419  11.513  18.423 +0.02 -0.02    +0.209 HD
DOCKED: ENDBRANCH  36  37
DOCKED: ENDBRANCH  29  36
DOCKED: BRANCH  22  39
DOCKED: ATOM     39  C   UNL d   1     -15.736  11.994  15.556 -0.06 +0.01    +0.052 C 
DOCKED: BRANCH  39  40
DOCKED: ATOM     40  C   UNL d   1     -15.738  10.845  16.577 -0.07 +0.03    +0.115 C 
DOCKED: BRANCH  40  41
DOCKED: ATOM     41  C   UNL d   1     -16.841   9.828  16.372 -0.07 +0.13    +0.139 C 
DOCKED: ATOM     42  O   UNL d   1     -17.768  10.095  15.619 -0.05 -0.80    -0.650 OA
DOCKED: BRANCH  41  43
DOCKED: ATOM     43  O   UNL d   1     -16.786   8.598  16.929 -0.55 -1.08    -0.776 OA
DOCKED: ATOM     44  H   UNL d   1     -16.110   8.349  17.572 +0.01 +0.12    +0.167 HD
DOCKED: ENDBRANCH  41  43
DOCKED: ENDBRANCH  40  41
DOCKED: ENDBRANCH  39  40
DOCKED: ENDBRANCH  22  39
DOCKED: BRANCH  12  45
DOCKED: ATOM     45  C   UNL d   1      -4.917  14.888  16.381 -0.10 -0.00    +0.004 C 
DOCKED: ATOM     46  C   UNL d   1      -4.489  15.807  15.520 -0.15 +0.00    +0.012 C 
DOCKED: ENDBRANCH  12  45
DOCKED: BRANCH  17  47
DOCKED: ATOM     47  C   UNL d   1     -11.747  18.605  17.162 -0.07 -0.00    +0.004 C 
DOCKED: ATOM     48  C   UNL d   1     -12.621  19.126  16.297 -0.07 -0.01    +0.012 C 
DOCKED: ENDBRANCH  17  47
DOCKED: TORSDOF 12
DOCKED: TER
DOCKED: ENDMDL
________________________________________________________________________________


	BEGINNING GENETIC ALGORITHM DOCKING 26 of 100
Run: 26 Seed: 231740455 1258584013 [ Run 26 of 100 GA/GALS ]
Beginning LAMARCKIAN GENETIC ALGORITHM (LGA), with a maximum of 25000000 energy evaluations.

Final-Value: -14.351


	FINAL GENETIC ALGORITHM DOCKED STATE
	_______________________________________________


Detailed state:  trans -12.474 -0.010 0.892 quatxyzw -0.254200 -0.181846 0.072808 -0.947108 center 8.781 34.984 -0.736 ntor 12 -8.1107 132.5267 -139.0460 -125.3348 74.4866 53.2856 -114.9887 115.2805 104.6945 159.0258 -175.5154 165.3288
State:	-12.474  -0.010   0.892  -0.792 -0.567  0.227 -37.437     -8.11  132.53 -139.05 -125.33   74.49   53.29 -114.99  115.28  104.69  159.03 -175.52  165.33

DOCKED: MODEL       26
DOCKED: USER    Run = 26
DOCKED: USER    DPF = D:/Protein_go_brrr/autodock/final/AncMH_nat/heme_Co/dock.dpf
DOCKED: USER  
DOCKED: USER    Estimated Free Energy of Binding    =   -8.93 kcal/mol  [=(1)+(2)+(3)-(4)]
DOCKED: USER    Estimated Inhibition Constant, Ki   =  282.33 nM (nanomolar)  [Temperature = 298.15 K]
DOCKED: USER    
DOCKED: USER    (1) Final Intermolecular Energy     =  -12.51 kcal/mol
DOCKED: USER        vdW + Hbond + desolv Energy     =   -9.17 kcal/mol
DOCKED: USER        Electrostatic Energy            =   -3.34 kcal/mol
DOCKED: USER    (2) Final Total Internal Energy     =   -1.84 kcal/mol
DOCKED: USER    (3) Torsional Free Energy           =   +3.58 kcal/mol
DOCKED: USER    (4) Unbound System's Energy  [=(2)] =   -1.84 kcal/mol
DOCKED: USER    
DOCKED: USER    
DOCKED: USER    NEWDPF move heme_Co_opt.pdbqt
DOCKED: USER    NEWDPF about 8.781000 34.984000 -0.736000
DOCKED: USER    NEWDPF tran0 -12.474018 -0.010017 0.891895
DOCKED: USER    NEWDPF quaternion0 -0.254200 -0.181846 0.072808 -0.947108
DOCKED: USER    NEWDPF axisangle0 -0.792109 -0.566649 0.226875 -37.436607
DOCKED: USER    NEWDPF quat0 -0.792109 -0.566649 0.226875 -37.436607
DOCKED: USER    NEWDPF dihe0 -8.11 132.53 -139.05 -125.33 74.49 53.29 -114.99 115.28 104.69 159.03 -175.52 165.33 
DOCKED: USER  keepresnum = 1 
DOCKED: USER  
DOCKED: REMARK  12 active torsions:
DOCKED: REMARK  status: ('A' for Active; 'I' for Inactive)
DOCKED: REMARK    1  A    between atoms: C_6  and  C_10 
DOCKED: REMARK    2  A    between atoms: C_10  and  C_11 
DOCKED: REMARK    3  A    between atoms: C_11  and  C_12 
DOCKED: REMARK    4  A    between atoms: C_12  and  O_14 
DOCKED: REMARK    5  A    between atoms: C_17  and  C_20 
DOCKED: REMARK    6  A    between atoms: C_24  and  C_27 
DOCKED: REMARK    7  A    between atoms: C_31  and  C_34 
DOCKED: REMARK    8  A    between atoms: C_34  and  C_35 
DOCKED: REMARK    9  A    between atoms: C_35  and  C_36 
DOCKED: REMARK   10  A    between atoms: C_36  and  O_38 
DOCKED: REMARK   11  A    between atoms: FE_43  and  C_44 
DOCKED: REMARK   12  A    between atoms: C_44  and  O_45 
DOCKED: USER                              x       y       z     vdW  Elec       q    Type
DOCKED: USER                           _______ _______ _______ _____ _____    ______ ____
DOCKED: ROOT
DOCKED: ATOM      1  C   UNL d   1     -13.959  -0.413  -0.640 -0.04 +0.08    +0.064 A 
DOCKED: ATOM      2  C   UNL d   1     -14.100  -0.712   4.103 +0.24 +0.04    +0.064 C 
DOCKED: ATOM      3  C   UNL d   1      -9.452   0.365   4.347 +0.05 +0.02    +0.064 A 
DOCKED: ATOM      4  C   UNL d   1      -9.372   1.054  -0.468 -0.29 +0.01    +0.064 A 
DOCKED: ATOM      5  C   UNL d   1     -14.331  -0.610   0.635 -0.17 +0.10    +0.066 A 
DOCKED: ATOM      6  C   UNL d   1     -15.666  -0.880   0.992 -0.17 -0.03    -0.021 A 
DOCKED: ATOM      7  C   UNL d   1     -15.706  -0.943   2.371 -0.17 -0.03    -0.025 A 
DOCKED: ATOM      8  C   UNL d   1     -14.391  -0.725   2.796 -0.21 +0.06    +0.066 A 
DOCKED: ATOM      9  C   UNL d   1     -16.927  -1.198   3.268 -0.12 +0.05    +0.051 C 
DOCKED: ATOM     10  C   UNL d   1     -12.773  -0.522   4.633 -0.21 +0.03    +0.066 A 
DOCKED: ATOM     11  C   UNL d   1     -12.380  -0.636   5.985 -0.38 -0.00    -0.021 A 
DOCKED: ATOM     12  C   UNL d   1     -11.019  -0.321   6.027 -0.41 +0.00    +0.000 A 
DOCKED: ATOM     13  C   UNL d   1     -10.681  -0.050   4.700 -0.20 +0.02    +0.070 A 
DOCKED: ATOM     14  C   UNL d   1     -13.241  -1.110   7.127 -0.40 +0.01    +0.052 C 
DOCKED: ATOM     15  C   UNL d   1      -8.947   0.737   3.040 -0.18 +0.02    +0.066 A 
DOCKED: ATOM     16  C   UNL d   1      -7.707   1.297   2.765 -0.24 -0.00    -0.021 A 
DOCKED: ATOM     17  C   UNL d   1      -7.681   1.500   1.378 -0.42 +0.00    +0.000 A 
DOCKED: ATOM     18  C   UNL d   1      -8.904   1.030   0.912 -0.37 +0.02    +0.070 A 
DOCKED: ATOM     19  C   UNL d   1      -6.639   1.608   3.790 -0.37 +0.01    +0.052 C 
DOCKED: ATOM     20  C   UNL d   1     -10.589   0.683  -0.932 -0.27 +0.03    +0.066 A 
DOCKED: ATOM     21  C   UNL d   1     -10.935   0.786  -2.278 -0.26 -0.01    -0.025 A 
DOCKED: ATOM     22  C   UNL d   1     -12.242   0.343  -2.362 -0.20 -0.01    -0.021 A 
DOCKED: ATOM     23  C   UNL d   1     -12.636  -0.000  -1.051 -0.15 +0.06    +0.066 A 
DOCKED: ATOM     24  C   UNL d   1     -10.069   1.301  -3.425 -0.19 -0.00    +0.051 C 
DOCKED: ATOM     25  N   UNL d   1     -13.517  -0.521   1.742 -0.17 -0.28    -0.248 N 
DOCKED: ATOM     26  N   UNL d   1     -11.729  -0.227   3.852 -0.16 -0.11    -0.248 N 
DOCKED: ATOM     27  N   UNL d   1      -9.644   0.611   1.933 -0.21 -0.08    -0.248 N 
DOCKED: ATOM     28  N   UNL d   1     -11.640   0.207  -0.182 -0.16 -0.18    -0.248 N 
DOCKED: ATOM     29 FE   UNL d   1     -11.465   0.079   1.839 -0.06 +0.00    +0.000 Fe
DOCKED: ENDROOT
DOCKED: BRANCH   6  30
DOCKED: ATOM     30  C   UNL d   1     -16.856  -0.989   0.044 -0.12 +0.06    +0.052 C 
DOCKED: BRANCH  30  31
DOCKED: ATOM     31  C   UNL d   1     -17.538   0.369  -0.120 -0.05 +0.16    +0.115 C 
DOCKED: BRANCH  31  32
DOCKED: ATOM     32  C   UNL d   1     -18.404   0.728   1.068 -0.10 +0.21    +0.139 C 
DOCKED: ATOM     33  O   UNL d   1     -18.110   1.692   1.757 -0.50 -1.37    -0.650 OA
DOCKED: BRANCH  32  34
DOCKED: ATOM     34  O   UNL d   1     -19.531   0.040   1.367 +0.03 -0.90    -0.776 OA
DOCKED: ATOM     35  H   UNL d   1     -19.953  -0.597   0.775 +0.02 +0.14    +0.167 HD
DOCKED: ENDBRANCH  32  34
DOCKED: ENDBRANCH  31  32
DOCKED: ENDBRANCH  30  31
DOCKED: ENDBRANCH   6  30
DOCKED: BRANCH  29  36
DOCKED: ATOM     36  C   UNL d   1     -12.167   2.043   2.048 -0.25 +0.21    +0.190 C 
DOCKED: BRANCH  36  37
DOCKED: ATOM     37  O   UNL d   1     -12.369   3.235   1.344 -0.44 -0.55    -0.399 OA
DOCKED: ATOM     38  H   UNL d   1     -12.369   2.968   0.382 +0.08 +0.32    +0.209 HD
DOCKED: ENDBRANCH  36  37
DOCKED: ENDBRANCH  29  36
DOCKED: BRANCH  22  39
DOCKED: ATOM     39  C   UNL d   1     -13.082   0.315  -3.625 -0.14 +0.02    +0.052 C 
DOCKED: BRANCH  39  40
DOCKED: ATOM     40  C   UNL d   1     -13.910   1.604  -3.755 -0.05 +0.05    +0.115 C 
DOCKED: BRANCH  40  41
DOCKED: ATOM     41  C   UNL d   1     -14.229   2.277  -2.437 -0.05 +0.15    +0.139 C 
DOCKED: ATOM     42  O   UNL d   1     -15.367   2.216  -1.993 -0.07 -1.05    -0.650 OA
DOCKED: BRANCH  41  43
DOCKED: ATOM     43  O   UNL d   1     -13.270   2.870  -1.692 +0.03 -0.95    -0.776 OA
DOCKED: ATOM     44  H   UNL d   1     -13.183   2.720  -0.741 +0.05 +0.34    +0.167 HD
DOCKED: ENDBRANCH  41  43
DOCKED: ENDBRANCH  40  41
DOCKED: ENDBRANCH  39  40
DOCKED: ENDBRANCH  22  39
DOCKED: BRANCH  12  45
DOCKED: ATOM     45  C   UNL d   1     -10.001  -0.263   7.157 -0.30 +0.00    +0.004 C 
DOCKED: ATOM     46  C   UNL d   1      -9.092   0.661   7.458 -0.45 +0.00    +0.012 C 
DOCKED: ENDBRANCH  12  45
DOCKED: BRANCH  17  47
DOCKED: ATOM     47  C   UNL d   1      -6.628   2.130   0.527 -0.46 +0.00    +0.004 C 
DOCKED: ATOM     48  C   UNL d   1      -5.346   1.756   0.541 -0.51 +0.00    +0.012 C 
DOCKED: ENDBRANCH  17  47
DOCKED: TORSDOF 12
DOCKED: TER
DOCKED: ENDMDL
________________________________________________________________________________


	BEGINNING GENETIC ALGORITHM DOCKING 27 of 100
Run: 27 Seed: 2052010045 262822340 [ Run 27 of 100 GA/GALS ]
Beginning LAMARCKIAN GENETIC ALGORITHM (LGA), with a maximum of 25000000 energy evaluations.

Final-Value: -14.336


	FINAL GENETIC ALGORITHM DOCKED STATE
	_______________________________________________


Detailed state:  trans -12.166 -0.316 2.271 quatxyzw 0.270151 0.094647 -0.119317 0.950697 center 8.781 34.984 -0.736 ntor 12 141.8269 -9.7563 -134.3770 -120.1779 70.9264 71.4623 -47.0041 179.9645 -74.0144 62.4672 167.6445 -178.3847
State:	-12.166  -0.316   2.271   0.871  0.305 -0.385 36.133    141.83   -9.76 -134.38 -120.18   70.93   71.46  -47.00  179.96  -74.01   62.47  167.64 -178.38

DOCKED: MODEL       27
DOCKED: USER    Run = 27
DOCKED: USER    DPF = D:/Protein_go_brrr/autodock/final/AncMH_nat/heme_Co/dock.dpf
DOCKED: USER  
DOCKED: USER    Estimated Free Energy of Binding    =   -8.83 kcal/mol  [=(1)+(2)+(3)-(4)]
DOCKED: USER    Estimated Inhibition Constant, Ki   =  335.12 nM (nanomolar)  [Temperature = 298.15 K]
DOCKED: USER    
DOCKED: USER    (1) Final Intermolecular Energy     =  -12.41 kcal/mol
DOCKED: USER        vdW + Hbond + desolv Energy     =   -8.74 kcal/mol
DOCKED: USER        Electrostatic Energy            =   -3.67 kcal/mol
DOCKED: USER    (2) Final Total Internal Energy     =   -1.92 kcal/mol
DOCKED: USER    (3) Torsional Free Energy           =   +3.58 kcal/mol
DOCKED: USER    (4) Unbound System's Energy  [=(2)] =   -1.92 kcal/mol
DOCKED: USER    
DOCKED: USER    
DOCKED: USER    NEWDPF move heme_Co_opt.pdbqt
DOCKED: USER    NEWDPF about 8.781000 34.984000 -0.736000
DOCKED: USER    NEWDPF tran0 -12.165737 -0.316494 2.271146
DOCKED: USER    NEWDPF quaternion0 0.270151 0.094647 -0.119317 0.950697
DOCKED: USER    NEWDPF axisangle0 0.871109 0.305191 -0.384743 36.133239
DOCKED: USER    NEWDPF quat0 0.871109 0.305191 -0.384743 36.133239
DOCKED: USER    NEWDPF dihe0 141.83 -9.76 -134.38 -120.18 70.93 71.46 -47.00 179.96 -74.01 62.47 167.64 -178.38 
DOCKED: USER  keepresnum = 1 
DOCKED: USER  
DOCKED: REMARK  12 active torsions:
DOCKED: REMARK  status: ('A' for Active; 'I' for Inactive)
DOCKED: REMARK    1  A    between atoms: C_6  and  C_10 
DOCKED: REMARK    2  A    between atoms: C_10  and  C_11 
DOCKED: REMARK    3  A    between atoms: C_11  and  C_12 
DOCKED: REMARK    4  A    between atoms: C_12  and  O_14 
DOCKED: REMARK    5  A    between atoms: C_17  and  C_20 
DOCKED: REMARK    6  A    between atoms: C_24  and  C_27 
DOCKED: REMARK    7  A    between atoms: C_31  and  C_34 
DOCKED: REMARK    8  A    between atoms: C_34  and  C_35 
DOCKED: REMARK    9  A    between atoms: C_35  and  C_36 
DOCKED: REMARK   10  A    between atoms: C_36  and  O_38 
DOCKED: REMARK   11  A    between atoms: FE_43  and  C_44 
DOCKED: REMARK   12  A    between atoms: C_44  and  O_45 
DOCKED: USER                              x       y       z     vdW  Elec       q    Type
DOCKED: USER                           _______ _______ _______ _____ _____    ______ ____
DOCKED: ROOT
DOCKED: ATOM      1  C   UNL d   1     -13.891  -0.860   1.069 -0.22 +0.08    +0.064 A 
DOCKED: ATOM      2  C   UNL d   1     -13.136  -0.872   5.764 -0.26 +0.02    +0.064 C 
DOCKED: ATOM      3  C   UNL d   1      -8.573   0.365   5.071 +0.17 +0.02    +0.064 A 
DOCKED: ATOM      4  C   UNL d   1      -9.419   0.761   0.297 -0.36 +0.02    +0.064 A 
DOCKED: ATOM      5  C   UNL d   1     -14.010  -0.989   2.401 -0.24 +0.06    +0.066 A 
DOCKED: ATOM      6  C   UNL d   1     -15.244  -1.280   3.016 -0.18 -0.02    -0.021 A 
DOCKED: ATOM      7  C   UNL d   1     -15.024  -1.260   4.379 +0.07 -0.02    -0.025 A 
DOCKED: ATOM      8  C   UNL d   1     -13.663  -0.974   4.537 -0.17 +0.03    +0.066 A 
DOCKED: ATOM      9  C   UNL d   1     -16.045  -1.497   5.502 -0.03 +0.03    +0.051 C 
DOCKED: ATOM     10  C   UNL d   1     -11.743  -0.607   6.024 -0.33 +0.01    +0.066 A 
DOCKED: ATOM     11  C   UNL d   1     -11.101  -0.626   7.282 +0.10 -0.00    -0.021 A 
DOCKED: ATOM     12  C   UNL d   1      -9.771  -0.266   7.050 -0.21 +0.00    +0.000 A 
DOCKED: ATOM     13  C   UNL d   1      -9.696  -0.067   5.671 -0.30 +0.02    +0.070 A 
DOCKED: ATOM     14  C   UNL d   1     -11.714  -1.057   8.590 -0.26 +0.00    +0.052 C 
DOCKED: ATOM     15  C   UNL d   1      -8.336   0.673   3.674 +0.37 +0.02    +0.066 A 
DOCKED: ATOM     16  C   UNL d   1      -7.194   1.254   3.142 -0.31 -0.00    -0.021 A 
DOCKED: ATOM     17  C   UNL d   1      -7.434   1.372   1.765 -0.40 +0.00    +0.000 A 
DOCKED: ATOM     18  C   UNL d   1      -8.702   0.836   1.564 -0.36 +0.01    +0.070 A 
DOCKED: ATOM     19  C   UNL d   1      -5.968   1.660   3.929 -0.37 +0.00    +0.052 C 
DOCKED: ATOM     20  C   UNL d   1     -10.684   0.323   0.091 -0.30 +0.03    +0.066 A 
DOCKED: ATOM     21  C   UNL d   1     -11.278   0.333  -1.169 -0.22 -0.01    -0.025 A 
DOCKED: ATOM     22  C   UNL d   1     -12.558  -0.156  -0.983 -0.15 -0.02    -0.021 A 
DOCKED: ATOM     23  C   UNL d   1     -12.687  -0.431   0.396 -0.17 +0.07    +0.066 A 
DOCKED: ATOM     24  C   UNL d   1     -10.663   0.803  -2.485 -0.27 +0.01    +0.051 C 
DOCKED: ATOM     25  N   UNL d   1     -13.009  -0.808   3.328 -0.17 -0.16    -0.248 N 
DOCKED: ATOM     26  N   UNL d   1     -10.875  -0.328   5.046 -0.20 -0.07    -0.248 N 
DOCKED: ATOM     27  N   UNL d   1      -9.221   0.457   2.727 -0.21 -0.07    -0.248 N 
DOCKED: ATOM     28  N   UNL d   1     -11.555  -0.140   1.049 -0.17 -0.17    -0.248 N 
DOCKED: ATOM     29 FE   UNL d   1     -11.003  -0.138   3.006 -0.07 +0.00    +0.000 Fe
DOCKED: ENDROOT
DOCKED: BRANCH   6  30
DOCKED: ATOM     30  C   UNL d   1     -16.583  -1.484   2.316 -0.12 +0.05    +0.052 C 
DOCKED: BRANCH  30  31
DOCKED: ATOM     31  C   UNL d   1     -17.509  -0.295   2.570 -0.14 +0.14    +0.115 C 
DOCKED: BRANCH  31  32
DOCKED: ATOM     32  C   UNL d   1     -17.615   0.620   1.369 -0.01 +0.24    +0.139 C 
DOCKED: ATOM     33  O   UNL d   1     -18.273   1.647   1.451 -0.37 -1.29    -0.650 OA
DOCKED: BRANCH  32  34
DOCKED: ATOM     34  O   UNL d   1     -16.962   0.363   0.211 -0.46 -1.43    -0.776 OA
DOCKED: ATOM     35  H   UNL d   1     -17.351   0.471  -0.668 +0.02 +0.23    +0.167 HD
DOCKED: ENDBRANCH  32  34
DOCKED: ENDBRANCH  31  32
DOCKED: ENDBRANCH  30  31
DOCKED: ENDBRANCH   6  30
DOCKED: BRANCH  29  36
DOCKED: ATOM     36  C   UNL d   1     -11.737   1.812   3.236 -0.28 +0.11    +0.190 C 
DOCKED: BRANCH  36  37
DOCKED: ATOM     37  O   UNL d   1     -12.364   2.855   2.546 -0.35 -0.41    -0.399 OA
DOCKED: ATOM     38  H   UNL d   1     -11.750   3.635   2.646 +0.10 +0.13    +0.209 HD
DOCKED: ENDBRANCH  36  37
DOCKED: ENDBRANCH  29  36
DOCKED: BRANCH  22  39
DOCKED: ATOM     39  C   UNL d   1     -13.615  -0.288  -2.062 -0.14 +0.05    +0.052 C 
DOCKED: BRANCH  39  40
DOCKED: ATOM     40  C   UNL d   1     -14.236   1.081  -2.384 -0.10 +0.11    +0.115 C 
DOCKED: BRANCH  40  41
DOCKED: ATOM     41  C   UNL d   1     -15.740   1.140  -2.218 -0.05 +0.16    +0.139 C 
DOCKED: ATOM     42  O   UNL d   1     -16.422   0.204  -2.611 +0.02 -0.53    -0.650 OA
DOCKED: BRANCH  41  43
DOCKED: ATOM     43  O   UNL d   1     -16.344   2.160  -1.569 +0.19 -1.49    -0.776 OA
DOCKED: ATOM     44  H   UNL d   1     -16.975   2.017  -0.851 +0.02 +0.36    +0.167 HD
DOCKED: ENDBRANCH  41  43
DOCKED: ENDBRANCH  40  41
DOCKED: ENDBRANCH  39  40
DOCKED: ENDBRANCH  22  39
DOCKED: BRANCH  12  45
DOCKED: ATOM     45  C   UNL d   1      -8.564  -0.107   7.965 -0.34 +0.00    +0.004 C 
DOCKED: ATOM     46  C   UNL d   1      -7.708   0.903   8.101 -0.50 +0.00    +0.012 C 
DOCKED: ENDBRANCH  12  45
DOCKED: BRANCH  17  47
DOCKED: ATOM     47  C   UNL d   1      -6.586   1.982   0.698 -0.48 +0.00    +0.004 C 
DOCKED: ATOM     48  C   UNL d   1      -5.291   1.702   0.535 -0.50 +0.00    +0.012 C 
DOCKED: ENDBRANCH  17  47
DOCKED: TORSDOF 12
DOCKED: TER
DOCKED: ENDMDL
________________________________________________________________________________


	BEGINNING GENETIC ALGORITHM DOCKING 28 of 100
Run: 28 Seed: 201210598 1322334186 [ Run 28 of 100 GA/GALS ]
Beginning LAMARCKIAN GENETIC ALGORITHM (LGA), with a maximum of 25000000 energy evaluations.

Final-Value: -13.055


	FINAL GENETIC ALGORITHM DOCKED STATE
	_______________________________________________


Detailed state:  trans -13.355 -0.704 2.807 quatxyzw 0.270473 -0.435112 -0.320645 0.796686 center 8.781 34.984 -0.736 ntor 12 178.8030 48.3285 -24.1907 -91.5101 122.3255 -96.5942 -165.8989 163.8774 42.0642 172.4409 38.6593 -178.4557
State:	-13.355  -0.704   2.807   0.448 -0.720 -0.531 74.370    178.80   48.33  -24.19  -91.51  122.33  -96.59 -165.90  163.88   42.06  172.44   38.66 -178.46

DOCKED: MODEL       28
DOCKED: USER    Run = 28
DOCKED: USER    DPF = D:/Protein_go_brrr/autodock/final/AncMH_nat/heme_Co/dock.dpf
DOCKED: USER  
DOCKED: USER    Estimated Free Energy of Binding    =   -8.72 kcal/mol  [=(1)+(2)+(3)-(4)]
DOCKED: USER    Estimated Inhibition Constant, Ki   =  404.29 nM (nanomolar)  [Temperature = 298.15 K]
DOCKED: USER    
DOCKED: USER    (1) Final Intermolecular Energy     =  -12.30 kcal/mol
DOCKED: USER        vdW + Hbond + desolv Energy     =   -9.85 kcal/mol
DOCKED: USER        Electrostatic Energy            =   -2.46 kcal/mol
DOCKED: USER    (2) Final Total Internal Energy     =   -0.75 kcal/mol
DOCKED: USER    (3) Torsional Free Energy           =   +3.58 kcal/mol
DOCKED: USER    (4) Unbound System's Energy  [=(2)] =   -0.75 kcal/mol
DOCKED: USER    
DOCKED: USER    
DOCKED: USER    NEWDPF move heme_Co_opt.pdbqt
DOCKED: USER    NEWDPF about 8.781000 34.984000 -0.736000
DOCKED: USER    NEWDPF tran0 -13.355216 -0.703597 2.806834
DOCKED: USER    NEWDPF quaternion0 0.270473 -0.435112 -0.320645 0.796686
DOCKED: USER    NEWDPF axisangle0 0.447511 -0.719915 -0.530524 74.370443
DOCKED: USER    NEWDPF quat0 0.447511 -0.719915 -0.530524 74.370443
DOCKED: USER    NEWDPF dihe0 178.80 48.33 -24.19 -91.51 122.33 -96.59 -165.90 163.88 42.06 172.44 38.66 -178.46 
DOCKED: USER  keepresnum = 1 
DOCKED: USER  
DOCKED: REMARK  12 active torsions:
DOCKED: REMARK  status: ('A' for Active; 'I' for Inactive)
DOCKED: REMARK    1  A    between atoms: C_6  and  C_10 
DOCKED: REMARK    2  A    between atoms: C_10  and  C_11 
DOCKED: REMARK    3  A    between atoms: C_11  and  C_12 
DOCKED: REMARK    4  A    between atoms: C_12  and  O_14 
DOCKED: REMARK    5  A    between atoms: C_17  and  C_20 
DOCKED: REMARK    6  A    between atoms: C_24  and  C_27 
DOCKED: REMARK    7  A    between atoms: C_31  and  C_34 
DOCKED: REMARK    8  A    between atoms: C_34  and  C_35 
DOCKED: REMARK    9  A    between atoms: C_35  and  C_36 
DOCKED: REMARK   10  A    between atoms: C_36  and  O_38 
DOCKED: REMARK   11  A    between atoms: FE_43  and  C_44 
DOCKED: REMARK   12  A    between atoms: C_44  and  O_45 
DOCKED: USER                              x       y       z     vdW  Elec       q    Type
DOCKED: USER                           _______ _______ _______ _____ _____    ______ ____
DOCKED: ROOT
DOCKED: ATOM      1  C   UNL d   1     -14.974  -1.517   4.004 -0.15 +0.04    +0.064 A 
DOCKED: ATOM      2  C   UNL d   1     -10.524  -0.242   5.092 -0.33 +0.02    +0.064 C 
DOCKED: ATOM      3  C   UNL d   1      -9.611   0.641   0.485 -0.36 +0.02    +0.064 A 
DOCKED: ATOM      4  C   UNL d   1     -14.262  -0.286  -0.600 -0.16 +0.09    +0.064 A 
DOCKED: ATOM      5  C   UNL d   1     -13.814  -1.268   4.635 -0.16 +0.03    +0.066 A 
DOCKED: ATOM      6  C   UNL d   1     -13.694  -1.346   6.036 -0.22 -0.01    -0.021 A 
DOCKED: ATOM      7  C   UNL d   1     -12.407  -0.953   6.348 -0.36 -0.00    -0.025 A 
DOCKED: ATOM      8  C   UNL d   1     -11.793  -0.668   5.124 -0.16 +0.02    +0.066 A 
DOCKED: ATOM      9  C   UNL d   1     -11.766  -0.844   7.740 -0.38 +0.01    +0.051 C 
DOCKED: ATOM     10  C   UNL d   1      -9.801   0.050   3.879 -0.03 +0.02    +0.066 A 
DOCKED: ATOM     11  C   UNL d   1      -8.429   0.365   3.770 -0.26 -0.01    -0.021 A 
DOCKED: ATOM     12  C   UNL d   1      -8.189   0.614   2.415 -0.35 +0.00    +0.000 A 
DOCKED: ATOM     13  C   UNL d   1      -9.426   0.420   1.799 -0.34 +0.02    +0.070 A 
DOCKED: ATOM     14  C   UNL d   1      -7.414   0.330   4.883 -0.38 +0.01    +0.052 C 
DOCKED: ATOM     15  C   UNL d   1     -10.825   0.542  -0.301 -0.28 +0.03    +0.066 A 
DOCKED: ATOM     16  C   UNL d   1     -10.981   0.924  -1.626 -0.28 -0.01    -0.021 A 
DOCKED: ATOM     17  C   UNL d   1     -12.321   0.661  -1.943 -0.21 +0.00    +0.000 A 
DOCKED: ATOM     18  C   UNL d   1     -12.875   0.121  -0.787 -0.17 +0.07    +0.070 A 
DOCKED: ATOM     19  C   UNL d   1      -9.894   1.503  -2.505 +0.01 +0.00    +0.052 C 
DOCKED: ATOM     20  C   UNL d   1     -14.844  -0.732   0.539 -0.15 +0.10    +0.066 A 
DOCKED: ATOM     21  C   UNL d   1     -16.196  -1.058   0.604 -0.14 -0.03    -0.025 A 
DOCKED: ATOM     22  C   UNL d   1     -16.424  -1.444   1.913 -0.12 -0.02    -0.021 A 
DOCKED: ATOM     23  C   UNL d   1     -15.192  -1.322   2.589 -0.17 +0.07    +0.066 A 
DOCKED: ATOM     24  C   UNL d   1     -17.227  -0.987  -0.519 -0.10 +0.05    +0.051 C 
DOCKED: ATOM     25  N   UNL d   1     -12.639  -0.860   4.045 -0.12 -0.12    -0.248 N 
DOCKED: ATOM     26  N   UNL d   1     -10.386   0.025   2.677 -0.10 -0.09    -0.248 N 
DOCKED: ATOM     27  N   UNL d   1     -11.963   0.093   0.179 -0.16 -0.21    -0.248 N 
DOCKED: ATOM     28  N   UNL d   1     -14.233  -0.888   1.762 -0.16 -0.29    -0.248 N 
DOCKED: ATOM     29 FE   UNL d   1     -12.285  -0.357   1.997 -0.06 +0.00    +0.000 Fe
DOCKED: ENDROOT
DOCKED: BRANCH   6  30
DOCKED: ATOM     30  C   UNL d   1     -14.798  -1.703   7.026 -0.29 +0.01    +0.052 C 
DOCKED: BRANCH  30  31
DOCKED: ATOM     31  C   UNL d   1     -14.390  -2.907   7.875 -0.19 +0.01    +0.115 C 
DOCKED: BRANCH  31  32
DOCKED: ATOM     32  C   UNL d   1     -15.536  -3.868   8.103 -0.38 +0.03    +0.139 C 
DOCKED: ATOM     33  O   UNL d   1     -16.024  -4.459   7.151 -0.00 -0.18    -0.650 OA
DOCKED: BRANCH  32  34
DOCKED: ATOM     34  O   UNL d   1     -16.013  -4.135   9.341 -0.39 -0.17    -0.776 OA
DOCKED: ATOM     35  H   UNL d   1     -16.789  -4.684   9.518 -0.53 +0.01    +0.167 HD
DOCKED: ENDBRANCH  32  34
DOCKED: ENDBRANCH  31  32
DOCKED: ENDBRANCH  30  31
DOCKED: ENDBRANCH   6  30
DOCKED: BRANCH  29  36
DOCKED: ATOM     36  C   UNL d   1     -12.854   1.598   2.496 -0.06 +0.24    +0.190 C 
DOCKED: BRANCH  36  37
DOCKED: ATOM     37  O   UNL d   1     -12.355   2.891   2.681 -0.35 -0.39    -0.399 OA
DOCKED: ATOM     38  H   UNL d   1     -11.746   2.821   3.469 +0.10 +0.10    +0.209 HD
DOCKED: ENDBRANCH  36  37
DOCKED: ENDBRANCH  29  36
DOCKED: BRANCH  22  39
DOCKED: ATOM     39  C   UNL d   1     -17.769  -1.845   2.490 -0.06 +0.04    +0.052 C 
DOCKED: BRANCH  39  40
DOCKED: ATOM     40  C   UNL d   1     -18.636  -0.604   2.757 -0.09 +0.13    +0.115 C 
DOCKED: BRANCH  40  41
DOCKED: ATOM     41  C   UNL d   1     -17.884   0.709   2.696 -0.15 +0.23    +0.139 C 
DOCKED: ATOM     42  O   UNL d   1     -16.929   0.886   3.438 +0.05 -0.98    -0.650 OA
DOCKED: BRANCH  41  43
DOCKED: ATOM     43  O   UNL d   1     -18.186   1.659   1.783 -0.48 -1.64    -0.776 OA
DOCKED: ATOM     44  H   UNL d   1     -18.698   1.469   0.986 +0.02 +0.27    +0.167 HD
DOCKED: ENDBRANCH  41  43
DOCKED: ENDBRANCH  40  41
DOCKED: ENDBRANCH  39  40
DOCKED: ENDBRANCH  22  39
DOCKED: BRANCH  12  45
DOCKED: ATOM     45  C   UNL d   1      -6.937   0.991   1.635 -0.42 +0.00    +0.004 C 
DOCKED: ATOM     46  C   UNL d   1      -6.522   2.172   1.183 -0.49 +0.00    +0.012 C 
DOCKED: ENDBRANCH  12  45
DOCKED: BRANCH  17  47
DOCKED: ATOM     47  C   UNL d   1     -13.073   0.929  -3.205 -0.14 +0.00    +0.004 C 
DOCKED: ATOM     48  C   UNL d   1     -13.335  -0.007  -4.120 -0.14 +0.00    +0.012 C 
DOCKED: ENDBRANCH  17  47
DOCKED: TORSDOF 12
DOCKED: TER
DOCKED: ENDMDL
________________________________________________________________________________


	BEGINNING GENETIC ALGORITHM DOCKING 29 of 100
Run: 29 Seed: 1684900823 266765031 [ Run 29 of 100 GA/GALS ]
Beginning LAMARCKIAN GENETIC ALGORITHM (LGA), with a maximum of 25000000 energy evaluations.

Final-Value: -11.336


	FINAL GENETIC ALGORITHM DOCKED STATE
	_______________________________________________


Detailed state:  trans -21.099 5.856 2.886 quatxyzw -0.531301 -0.335043 0.246411 -0.738070 center 8.781 34.984 -0.736 ntor 12 -156.6405 112.4471 43.3421 116.1643 -65.1870 154.3721 89.8778 81.4399 100.0993 -131.0847 2.7849 -29.6485
State:	-21.099   5.856   2.886  -0.787 -0.497  0.365 -84.865   -156.64  112.45   43.34  116.16  -65.19  154.37   89.88   81.44  100.10 -131.08    2.78  -29.65

DOCKED: MODEL       29
DOCKED: USER    Run = 29
DOCKED: USER    DPF = D:/Protein_go_brrr/autodock/final/AncMH_nat/heme_Co/dock.dpf
DOCKED: USER  
DOCKED: USER    Estimated Free Energy of Binding    =   -5.34 kcal/mol  [=(1)+(2)+(3)-(4)]
DOCKED: USER    Estimated Inhibition Constant, Ki   =  121.28 uM (micromolar)  [Temperature = 298.15 K]
DOCKED: USER    
DOCKED: USER    (1) Final Intermolecular Energy     =   -8.92 kcal/mol
DOCKED: USER        vdW + Hbond + desolv Energy     =   -4.84 kcal/mol
DOCKED: USER        Electrostatic Energy            =   -4.08 kcal/mol
DOCKED: USER    (2) Final Total Internal Energy     =   -2.41 kcal/mol
DOCKED: USER    (3) Torsional Free Energy           =   +3.58 kcal/mol
DOCKED: USER    (4) Unbound System's Energy  [=(2)] =   -2.41 kcal/mol
DOCKED: USER    
DOCKED: USER    
DOCKED: USER    NEWDPF move heme_Co_opt.pdbqt
DOCKED: USER    NEWDPF about 8.781000 34.984000 -0.736000
DOCKED: USER    NEWDPF tran0 -21.099382 5.856068 2.886154
DOCKED: USER    NEWDPF quaternion0 -0.531301 -0.335043 0.246411 -0.738070
DOCKED: USER    NEWDPF axisangle0 -0.787434 -0.496562 0.365203 -84.865447
DOCKED: USER    NEWDPF quat0 -0.787434 -0.496562 0.365203 -84.865447
DOCKED: USER    NEWDPF dihe0 -156.64 112.45 43.34 116.16 -65.19 154.37 89.88 81.44 100.10 -131.08 2.78 -29.65 
DOCKED: USER  keepresnum = 1 
DOCKED: USER  
DOCKED: REMARK  12 active torsions:
DOCKED: REMARK  status: ('A' for Active; 'I' for Inactive)
DOCKED: REMARK    1  A    between atoms: C_6  and  C_10 
DOCKED: REMARK    2  A    between atoms: C_10  and  C_11 
DOCKED: REMARK    3  A    between atoms: C_11  and  C_12 
DOCKED: REMARK    4  A    between atoms: C_12  and  O_14 
DOCKED: REMARK    5  A    between atoms: C_17  and  C_20 
DOCKED: REMARK    6  A    between atoms: C_24  and  C_27 
DOCKED: REMARK    7  A    between atoms: C_31  and  C_34 
DOCKED: REMARK    8  A    between atoms: C_34  and  C_35 
DOCKED: REMARK    9  A    between atoms: C_35  and  C_36 
DOCKED: REMARK   10  A    between atoms: C_36  and  O_38 
DOCKED: REMARK   11  A    between atoms: FE_43  and  C_44 
DOCKED: REMARK   12  A    between atoms: C_44  and  O_45 
DOCKED: USER                              x       y       z     vdW  Elec       q    Type
DOCKED: USER                           _______ _______ _______ _____ _____    ______ ____
DOCKED: ROOT
DOCKED: ATOM      1  C   UNL d   1     -21.726   4.094   1.783 +0.06 +0.09    +0.064 A 
DOCKED: ATOM      2  C   UNL d   1     -23.707   6.477   5.389 -0.04 +0.02    +0.064 C 
DOCKED: ATOM      3  C   UNL d   1     -19.871   9.311   5.673 -0.16 +0.02    +0.064 A 
DOCKED: ATOM      4  C   UNL d   1     -17.994   7.143   1.743 -0.19 +0.03    +0.064 A 
DOCKED: ATOM      5  C   UNL d   1     -22.533   4.513   2.771 +0.12 +0.09    +0.066 A 
DOCKED: ATOM      6  C   UNL d   1     -23.815   3.966   2.972 -0.05 -0.02    -0.021 A 
DOCKED: ATOM      7  C   UNL d   1     -24.395   4.676   4.005 -0.03 -0.01    -0.025 A 
DOCKED: ATOM      8  C   UNL d   1     -23.436   5.616   4.400 -0.06 +0.04    +0.066 A 
DOCKED: ATOM      9  C   UNL d   1     -25.796   4.491   4.607 -0.00 +0.02    +0.051 C 
DOCKED: ATOM     10  C   UNL d   1     -22.774   7.460   5.881 -0.04 +0.02    +0.066 A 
DOCKED: ATOM     11  C   UNL d   1     -22.946   8.297   7.005 -0.03 -0.00    -0.021 A 
DOCKED: ATOM     12  C   UNL d   1     -21.811   9.110   7.067 -0.07 +0.00    +0.000 A 
DOCKED: ATOM     13  C   UNL d   1     -21.028   8.702   5.987 -0.10 +0.02    +0.070 A 
DOCKED: ATOM     14  C   UNL d   1     -24.081   8.240   7.995 -0.02 +0.01    +0.052 C 
DOCKED: ATOM     15  C   UNL d   1     -18.967   9.056   4.568 -0.20 +0.02    +0.066 A 
DOCKED: ATOM     16  C   UNL d   1     -17.862   9.817   4.216 -0.32 -0.00    -0.021 A 
DOCKED: ATOM     17  C   UNL d   1     -17.319   9.197   3.082 -0.32 +0.00    +0.000 A 
DOCKED: ATOM     18  C   UNL d   1     -18.129   8.092   2.841 -0.22 +0.03    +0.070 A 
DOCKED: ATOM     19  C   UNL d   1     -17.383  11.056   4.940 -0.33 +0.00    +0.052 C 
DOCKED: ATOM     20  C   UNL d   1     -18.819   6.113   1.439 -0.16 +0.05    +0.066 A 
DOCKED: ATOM     21  C   UNL d   1     -18.605   5.290   0.335 -0.14 -0.02    -0.025 A 
DOCKED: ATOM     22  C   UNL d   1     -19.650   4.383   0.338 -0.10 -0.02    -0.021 A 
DOCKED: ATOM     23  C   UNL d   1     -20.462   4.708   1.445 -0.05 +0.09    +0.066 A 
DOCKED: ATOM     24  C   UNL d   1     -17.473   5.375  -0.685 -0.13 +0.05    +0.051 C 
DOCKED: ATOM     25  N   UNL d   1     -22.271   5.534   3.657 -0.08 -0.26    -0.248 N 
DOCKED: ATOM     26  N   UNL d   1     -21.586   7.667   5.305 -0.06 -0.10    -0.248 N 
DOCKED: ATOM     27  N   UNL d   1     -19.118   8.057   3.727 -0.11 -0.10    -0.248 N 
DOCKED: ATOM     28  N   UNL d   1     -19.964   5.755   2.113 -0.10 -0.26    -0.248 N 
DOCKED: ATOM     29 FE   UNL d   1     -20.599   6.868   3.692 -0.03 +0.00    +0.000 Fe
DOCKED: ENDROOT
DOCKED: BRANCH   6  30
DOCKED: ATOM     30  C   UNL d   1     -24.473   2.864   2.147 -0.02 +0.03    +0.052 C 
DOCKED: BRANCH  30  31
DOCKED: ATOM     31  C   UNL d   1     -24.089   1.487   2.687 -0.03 +0.08    +0.115 C 
DOCKED: BRANCH  31  32
DOCKED: ATOM     32  C   UNL d   1     -22.735   1.029   2.189 -0.03 +0.15    +0.139 C 
DOCKED: ATOM     33  O   UNL d   1     -22.415   1.250   1.031 -0.00 -0.54    -0.650 OA
DOCKED: BRANCH  32  34
DOCKED: ATOM     34  O   UNL d   1     -21.840   0.420   3.001 -0.41 -1.24    -0.776 OA
DOCKED: ATOM     35  H   UNL d   1     -20.894   0.353   2.813 +0.00 +0.31    +0.167 HD
DOCKED: ENDBRANCH  32  34
DOCKED: ENDBRANCH  31  32
DOCKED: ENDBRANCH  30  31
DOCKED: ENDBRANCH   6  30
DOCKED: BRANCH  29  36
DOCKED: ATOM     36  C   UNL d   1     -21.703   8.104   2.407 -0.02 +0.06    +0.190 C 
DOCKED: BRANCH  36  37
DOCKED: ATOM     37  O   UNL d   1     -22.924   8.203   1.734 +0.00 -0.09    -0.399 OA
DOCKED: ATOM     38  H   UNL d   1     -23.414   7.365   1.966 +0.01 +0.06    +0.209 HD
DOCKED: ENDBRANCH  36  37
DOCKED: ENDBRANCH  29  36
DOCKED: BRANCH  22  39
DOCKED: ATOM     39  C   UNL d   1     -19.884   3.308  -0.707 -0.04 +0.04    +0.052 C 
DOCKED: BRANCH  39  40
DOCKED: ATOM     40  C   UNL d   1     -18.843   2.184  -0.572 -0.07 +0.13    +0.115 C 
DOCKED: BRANCH  40  41
DOCKED: ATOM     41  C   UNL d   1     -18.571   1.753   0.854 -0.10 +0.23    +0.139 C 
DOCKED: ATOM     42  O   UNL d   1     -17.424   1.493   1.191 +0.00 -1.52    -0.650 OA
DOCKED: BRANCH  41  43
DOCKED: ATOM     43  O   UNL d   1     -19.547   1.732   1.788 -0.04 -1.87    -0.776 OA
DOCKED: ATOM     44  H   UNL d   1     -20.401   1.307   1.637 +0.01 +0.31    +0.167 HD
DOCKED: ENDBRANCH  41  43
DOCKED: ENDBRANCH  40  41
DOCKED: ENDBRANCH  39  40
DOCKED: ENDBRANCH  22  39
DOCKED: BRANCH  12  45
DOCKED: ATOM     45  C   UNL d   1     -21.370  10.207   8.028 -0.10 +0.00    +0.004 C 
DOCKED: ATOM     46  C   UNL d   1     -20.421  10.211   8.960 -0.19 +0.00    +0.012 C 
DOCKED: ENDBRANCH  12  45
DOCKED: BRANCH  17  47
DOCKED: ATOM     47  C   UNL d   1     -16.161   9.608   2.232 -0.43 -0.00    +0.004 C 
DOCKED: ATOM     48  C   UNL d   1     -16.266  10.451   1.202 -0.41 -0.00    +0.012 C 
DOCKED: ENDBRANCH  17  47
DOCKED: TORSDOF 12
DOCKED: TER
DOCKED: ENDMDL
________________________________________________________________________________


	BEGINNING GENETIC ALGORITHM DOCKING 30 of 100
Run: 30 Seed: 454455575 862255787 [ Run 30 of 100 GA/GALS ]
Beginning LAMARCKIAN GENETIC ALGORITHM (LGA), with a maximum of 25000000 energy evaluations.

Final-Value: -9.052


	FINAL GENETIC ALGORITHM DOCKED STATE
	_______________________________________________


Detailed state:  trans -8.406 -6.969 19.481 quatxyzw 0.437811 0.001386 0.640630 -0.630803 center 8.781 34.984 -0.736 ntor 12 50.8134 101.3374 31.2584 110.8867 135.8767 130.5870 -4.8505 179.4603 -68.5509 -53.2061 -151.4278 -177.3767
State:	 -8.406  -6.969  19.481   0.564  0.002  0.826 -101.781     50.81  101.34   31.26  110.89  135.88  130.59   -4.85  179.46  -68.55  -53.21 -151.43 -177.38

DOCKED: MODEL       30
DOCKED: USER    Run = 30
DOCKED: USER    DPF = D:/Protein_go_brrr/autodock/final/AncMH_nat/heme_Co/dock.dpf
DOCKED: USER  
DOCKED: USER    Estimated Free Energy of Binding    =   -4.58 kcal/mol  [=(1)+(2)+(3)-(4)]
DOCKED: USER    Estimated Inhibition Constant, Ki   =  436.98 uM (micromolar)  [Temperature = 298.15 K]
DOCKED: USER    
DOCKED: USER    (1) Final Intermolecular Energy     =   -8.16 kcal/mol
DOCKED: USER        vdW + Hbond + desolv Energy     =   -6.34 kcal/mol
DOCKED: USER        Electrostatic Energy            =   -1.82 kcal/mol
DOCKED: USER    (2) Final Total Internal Energy     =   -0.89 kcal/mol
DOCKED: USER    (3) Torsional Free Energy           =   +3.58 kcal/mol
DOCKED: USER    (4) Unbound System's Energy  [=(2)] =   -0.89 kcal/mol
DOCKED: USER    
DOCKED: USER    
DOCKED: USER    NEWDPF move heme_Co_opt.pdbqt
DOCKED: USER    NEWDPF about 8.781000 34.984000 -0.736000
DOCKED: USER    NEWDPF tran0 -8.405965 -6.968819 19.481001
DOCKED: USER    NEWDPF quaternion0 0.437811 0.001386 0.640630 -0.630803
DOCKED: USER    NEWDPF axisangle0 0.564231 0.001786 0.825615 -101.781187
DOCKED: USER    NEWDPF quat0 0.564231 0.001786 0.825615 -101.781187
DOCKED: USER    NEWDPF dihe0 50.81 101.34 31.26 110.89 135.88 130.59 -4.85 179.46 -68.55 -53.21 -151.43 -177.38 
DOCKED: USER  keepresnum = 1 
DOCKED: USER  
DOCKED: REMARK  12 active torsions:
DOCKED: REMARK  status: ('A' for Active; 'I' for Inactive)
DOCKED: REMARK    1  A    between atoms: C_6  and  C_10 
DOCKED: REMARK    2  A    between atoms: C_10  and  C_11 
DOCKED: REMARK    3  A    between atoms: C_11  and  C_12 
DOCKED: REMARK    4  A    between atoms: C_12  and  O_14 
DOCKED: REMARK    5  A    between atoms: C_17  and  C_20 
DOCKED: REMARK    6  A    between atoms: C_24  and  C_27 
DOCKED: REMARK    7  A    between atoms: C_31  and  C_34 
DOCKED: REMARK    8  A    between atoms: C_34  and  C_35 
DOCKED: REMARK    9  A    between atoms: C_35  and  C_36 
DOCKED: REMARK   10  A    between atoms: C_36  and  O_38 
DOCKED: REMARK   11  A    between atoms: FE_43  and  C_44 
DOCKED: REMARK   12  A    between atoms: C_44  and  O_45 
DOCKED: USER                              x       y       z     vdW  Elec       q    Type
DOCKED: USER                           _______ _______ _______ _____ _____    ______ ____
DOCKED: ROOT
DOCKED: ATOM      1  C   UNL d   1      -9.634  -8.169  18.151 -0.22 +0.01    +0.064 A 
DOCKED: ATOM      2  C   UNL d   1      -5.160  -8.663  19.685 -0.18 -0.01    +0.064 C 
DOCKED: ATOM      3  C   UNL d   1      -5.421  -4.450  21.922 -0.09 -0.01    +0.064 A 
DOCKED: ATOM      4  C   UNL d   1     -10.115  -4.103  20.692 -0.15 -0.00    +0.064 A 
DOCKED: ATOM      5  C   UNL d   1      -8.380  -8.596  18.376 -0.23 +0.00    +0.066 A 
DOCKED: ATOM      6  C   UNL d   1      -7.929  -9.855  17.932 -0.23 -0.00    -0.021 A 
DOCKED: ATOM      7  C   UNL d   1      -6.638 -10.003  18.399 -0.21 -0.00    -0.025 A 
DOCKED: ATOM      8  C   UNL d   1      -6.351  -8.823  19.093 -0.20 -0.01    +0.066 A 
DOCKED: ATOM      9  C   UNL d   1      -5.698 -11.203  18.208 -0.09 +0.00    +0.051 C 
DOCKED: ATOM     10  C   UNL d   1      -4.765  -7.474  20.398 -0.23 -0.02    +0.066 A 
DOCKED: ATOM     11  C   UNL d   1      -3.485  -7.189  20.919 -0.22 +0.01    -0.021 A 
DOCKED: ATOM     12  C   UNL d   1      -3.588  -5.952  21.563 -0.17 -0.00    +0.000 A 
DOCKED: ATOM     13  C   UNL d   1      -4.917  -5.570  21.376 -0.12 -0.02    +0.070 A 
DOCKED: ATOM     14  C   UNL d   1      -2.237  -8.011  20.720 -0.15 -0.02    +0.052 C 
DOCKED: ATOM     15  C   UNL d   1      -6.775  -3.933  21.876 -0.09 -0.01    +0.066 A 
DOCKED: ATOM     16  C   UNL d   1      -7.265  -2.844  22.583 -0.05 +0.00    -0.021 A 
DOCKED: ATOM     17  C   UNL d   1      -8.619  -2.741  22.234 -0.09 -0.00    +0.000 A 
DOCKED: ATOM     18  C   UNL d   1      -8.845  -3.769  21.324 -0.13 -0.01    +0.070 A 
DOCKED: ATOM     19  C   UNL d   1      -6.461  -1.978  23.528 -0.02 -0.01    +0.052 C 
DOCKED: ATOM     20  C   UNL d   1     -10.379  -5.148  19.872 -0.14 +0.00    +0.066 A 
DOCKED: ATOM     21  C   UNL d   1     -11.650  -5.385  19.355 -0.07 -0.00    -0.025 A 
DOCKED: ATOM     22  C   UNL d   1     -11.535  -6.535  18.595 -0.16 -0.01    -0.021 A 
DOCKED: ATOM     23  C   UNL d   1     -10.191  -6.952  18.697 -0.20 +0.01    +0.066 A 
DOCKED: ATOM     24  C   UNL d   1     -12.918  -4.568  19.589 -0.15 +0.01    +0.051 C 
DOCKED: ATOM     25  N   UNL d   1      -7.410  -7.931  19.090 -0.17 +0.02    -0.248 N 
DOCKED: ATOM     26  N   UNL d   1      -5.612  -6.464  20.624 -0.12 +0.05    -0.248 N 
DOCKED: ATOM     27  N   UNL d   1      -7.732  -4.476  21.158 -0.10 +0.02    -0.248 N 
DOCKED: ATOM     28  N   UNL d   1      -9.488  -6.117  19.471 -0.14 -0.01    -0.248 N 
DOCKED: ATOM     29 FE   UNL d   1      -7.584  -6.101  20.184 -0.05 -0.00    +0.000 Fe
DOCKED: ENDROOT
DOCKED: BRANCH   6  30
DOCKED: ATOM     30  C   UNL d   1      -8.741 -10.893  17.165 -0.25 +0.02    +0.052 C 
DOCKED: BRANCH  30  31
DOCKED: ATOM     31  C   UNL d   1      -9.855 -11.461  18.044 -0.11 +0.02    +0.115 C 
DOCKED: BRANCH  31  32
DOCKED: ATOM     32  C   UNL d   1     -11.228 -11.003  17.602 -0.17 +0.03    +0.139 C 
DOCKED: ATOM     33  O   UNL d   1     -12.028 -10.609  18.438 +0.03 -0.11    -0.650 OA
DOCKED: BRANCH  32  34
DOCKED: ATOM     34  O   UNL d   1     -11.588 -10.969  16.298 +0.04 -0.25    -0.776 OA
DOCKED: ATOM     35  H   UNL d   1     -11.432 -11.689  15.672 -0.47 +0.04    +0.167 HD
DOCKED: ENDBRANCH  32  34
DOCKED: ENDBRANCH  31  32
DOCKED: ENDBRANCH  30  31
DOCKED: ENDBRANCH   6  30
DOCKED: BRANCH  29  36
DOCKED: ATOM     36  C   UNL d   1      -8.164  -7.268  21.826 -0.03 -0.01    +0.190 C 
DOCKED: BRANCH  36  37
DOCKED: ATOM     37  O   UNL d   1      -8.729  -8.500  22.173 +0.00 +0.01    -0.399 OA
DOCKED: ATOM     38  H   UNL d   1      -9.084  -8.870  21.317 +0.02 -0.00    +0.209 HD
DOCKED: ENDBRANCH  36  37
DOCKED: ENDBRANCH  29  36
DOCKED: BRANCH  22  39
DOCKED: ATOM     39  C   UNL d   1     -12.673  -7.226  17.867 -0.27 +0.03    +0.052 C 
DOCKED: BRANCH  39  40
DOCKED: ATOM     40  C   UNL d   1     -13.559  -8.001  18.856 -0.14 +0.06    +0.115 C 
DOCKED: BRANCH  40  41
DOCKED: ATOM     41  C   UNL d   1     -15.011  -7.570  18.864 +0.11 +0.17    +0.139 C 
DOCKED: ATOM     42  O   UNL d   1     -15.282  -6.378  18.824 -0.05 -0.80    -0.650 OA
DOCKED: BRANCH  41  43
DOCKED: ATOM     43  O   UNL d   1     -16.019  -8.470  18.827 -0.54 -1.14    -0.776 OA
DOCKED: ATOM     44  H   UNL d   1     -15.979  -9.314  19.294 +0.01 +0.12    +0.167 HD
DOCKED: ENDBRANCH  41  43
DOCKED: ENDBRANCH  40  41
DOCKED: ENDBRANCH  39  40
DOCKED: ENDBRANCH  22  39
DOCKED: BRANCH  12  45
DOCKED: ATOM     45  C   UNL d   1      -2.586  -5.085  22.312 -0.10 -0.00    +0.004 C 
DOCKED: ATOM     46  C   UNL d   1      -1.938  -3.986  21.932 -0.11 -0.00    +0.012 C 
DOCKED: ENDBRANCH  12  45
DOCKED: BRANCH  17  47
DOCKED: ATOM     47  C   UNL d   1      -9.664  -1.798  22.732 -0.06 -0.00    +0.004 C 
DOCKED: ATOM     48  C   UNL d   1     -10.251  -0.876  21.965 -0.09 -0.00    +0.012 C 
DOCKED: ENDBRANCH  17  47
DOCKED: TORSDOF 12
DOCKED: TER
DOCKED: ENDMDL
________________________________________________________________________________


	BEGINNING GENETIC ALGORITHM DOCKING 31 of 100
Run: 31 Seed: 397836168 435487661 [ Run 31 of 100 GA/GALS ]
Beginning LAMARCKIAN GENETIC ALGORITHM (LGA), with a maximum of 25000000 energy evaluations.

Final-Value: -9.784


	FINAL GENETIC ALGORITHM DOCKED STATE
	_______________________________________________


Detailed state:  trans -19.852 1.689 9.477 quatxyzw -0.724604 0.255250 -0.151925 0.621864 center 8.781 34.984 -0.736 ntor 12 76.0867 108.0237 126.8389 -4.2265 62.2898 137.3559 -41.0281 57.4044 -97.2264 128.8306 -6.7347 13.3002
State:	-19.852   1.689   9.477  -0.925  0.326 -0.194 103.095     76.09  108.02  126.84   -4.23   62.29  137.36  -41.03   57.40  -97.23  128.83   -6.73   13.30

DOCKED: MODEL       31
DOCKED: USER    Run = 31
DOCKED: USER    DPF = D:/Protein_go_brrr/autodock/final/AncMH_nat/heme_Co/dock.dpf
DOCKED: USER  
DOCKED: USER    Estimated Free Energy of Binding    =   -5.52 kcal/mol  [=(1)+(2)+(3)-(4)]
DOCKED: USER    Estimated Inhibition Constant, Ki   =   90.54 uM (micromolar)  [Temperature = 298.15 K]
DOCKED: USER    
DOCKED: USER    (1) Final Intermolecular Energy     =   -9.10 kcal/mol
DOCKED: USER        vdW + Hbond + desolv Energy     =   -7.19 kcal/mol
DOCKED: USER        Electrostatic Energy            =   -1.90 kcal/mol
DOCKED: USER    (2) Final Total Internal Energy     =   -0.69 kcal/mol
DOCKED: USER    (3) Torsional Free Energy           =   +3.58 kcal/mol
DOCKED: USER    (4) Unbound System's Energy  [=(2)] =   -0.69 kcal/mol
DOCKED: USER    
DOCKED: USER    
DOCKED: USER    NEWDPF move heme_Co_opt.pdbqt
DOCKED: USER    NEWDPF about 8.781000 34.984000 -0.736000
DOCKED: USER    NEWDPF tran0 -19.851762 1.689207 9.477108
DOCKED: USER    NEWDPF quaternion0 -0.724604 0.255250 -0.151925 0.621864
DOCKED: USER    NEWDPF axisangle0 -0.925273 0.325937 -0.193999 103.095202
DOCKED: USER    NEWDPF quat0 -0.925273 0.325937 -0.193999 103.095202
DOCKED: USER    NEWDPF dihe0 76.09 108.02 126.84 -4.23 62.29 137.36 -41.03 57.40 -97.23 128.83 -6.73 13.30 
DOCKED: USER  keepresnum = 1 
DOCKED: USER  
DOCKED: REMARK  12 active torsions:
DOCKED: REMARK  status: ('A' for Active; 'I' for Inactive)
DOCKED: REMARK    1  A    between atoms: C_6  and  C_10 
DOCKED: REMARK    2  A    between atoms: C_10  and  C_11 
DOCKED: REMARK    3  A    between atoms: C_11  and  C_12 
DOCKED: REMARK    4  A    between atoms: C_12  and  O_14 
DOCKED: REMARK    5  A    between atoms: C_17  and  C_20 
DOCKED: REMARK    6  A    between atoms: C_24  and  C_27 
DOCKED: REMARK    7  A    between atoms: C_31  and  C_34 
DOCKED: REMARK    8  A    between atoms: C_34  and  C_35 
DOCKED: REMARK    9  A    between atoms: C_35  and  C_36 
DOCKED: REMARK   10  A    between atoms: C_36  and  O_38 
DOCKED: REMARK   11  A    between atoms: FE_43  and  C_44 
DOCKED: REMARK   12  A    between atoms: C_44  and  O_45 
DOCKED: USER                              x       y       z     vdW  Elec       q    Type
DOCKED: USER                           _______ _______ _______ _____ _____    ______ ____
DOCKED: ROOT
DOCKED: ATOM      1  C   UNL d   1     -21.641   2.823   9.001 -0.11 +0.03    +0.064 A 
DOCKED: ATOM      2  C   UNL d   1     -19.481  -0.804   6.813 -0.10 +0.04    +0.064 C 
DOCKED: ATOM      3  C   UNL d   1     -15.905  -0.632   9.977 -0.28 +0.01    +0.064 A 
DOCKED: ATOM      4  C   UNL d   1     -18.280   2.816  12.454 -0.19 +0.01    +0.064 A 
DOCKED: ATOM      5  C   UNL d   1     -21.296   1.843   8.150 -0.10 +0.04    +0.066 A 
DOCKED: ATOM      6  C   UNL d   1     -22.141   1.433   7.100 -0.04 -0.02    -0.021 A 
DOCKED: ATOM      7  C   UNL d   1     -21.520   0.366   6.483 -0.04 -0.02    -0.025 A 
DOCKED: ATOM      8  C   UNL d   1     -20.316   0.180   7.171 -0.05 +0.05    +0.066 A 
DOCKED: ATOM      9  C   UNL d   1     -22.027  -0.459   5.290 -0.06 +0.04    +0.051 C 
DOCKED: ATOM     10  C   UNL d   1     -18.210  -1.054   7.445 -0.11 +0.03    +0.066 A 
DOCKED: ATOM     11  C   UNL d   1     -17.228  -1.979   7.028 -0.13 -0.01    -0.021 A 
DOCKED: ATOM     12  C   UNL d   1     -16.195  -1.905   7.966 -0.23 +0.00    +0.000 A 
DOCKED: ATOM     13  C   UNL d   1     -16.615  -0.935   8.876 -0.20 +0.02    +0.070 A 
DOCKED: ATOM     14  C   UNL d   1     -17.254  -2.798   5.763 -0.11 +0.02    +0.052 C 
DOCKED: ATOM     15  C   UNL d   1     -16.214   0.300  11.043 -0.29 +0.01    +0.066 A 
DOCKED: ATOM     16  C   UNL d   1     -15.508   0.460  12.227 -0.30 +0.00    -0.021 A 
DOCKED: ATOM     17  C   UNL d   1     -16.191   1.452  12.946 -0.28 +0.00    +0.000 A 
DOCKED: ATOM     18  C   UNL d   1     -17.253   1.832  12.133 -0.23 +0.00    +0.070 A 
DOCKED: ATOM     19  C   UNL d   1     -14.263  -0.305  12.616 -0.36 -0.00    +0.052 C 
DOCKED: ATOM     20  C   UNL d   1     -19.370   3.140  11.718 -0.13 +0.01    +0.066 A 
DOCKED: ATOM     21  C   UNL d   1     -20.306   4.077  12.149 -0.16 -0.01    -0.025 A 
DOCKED: ATOM     22  C   UNL d   1     -21.272   4.121  11.160 -0.10 -0.01    -0.021 A 
DOCKED: ATOM     23  C   UNL d   1     -20.880   3.193  10.173 -0.13 +0.02    +0.066 A 
DOCKED: ATOM     24  C   UNL d   1     -20.293   4.877  13.449 -0.12 +0.04    +0.051 C 
DOCKED: ATOM     25  N   UNL d   1     -20.148   1.086   8.205 -0.10 -0.14    -0.248 N 
DOCKED: ATOM     26  N   UNL d   1     -17.808  -0.382   8.529 -0.11 -0.09    -0.248 N 
DOCKED: ATOM     27  N   UNL d   1     -17.254   1.104  11.022 -0.17 -0.02    -0.248 N 
DOCKED: ATOM     28  N   UNL d   1     -19.731   2.595  10.508 -0.09 -0.04    -0.248 N 
DOCKED: ATOM     29 FE   UNL d   1     -18.617   1.099   9.699 -0.04 +0.00    +0.000 Fe
DOCKED: ENDROOT
DOCKED: BRANCH   6  30
DOCKED: ATOM     30  C   UNL d   1     -23.518   1.997   6.768 -0.07 +0.03    +0.052 C 
DOCKED: BRANCH  30  31
DOCKED: ATOM     31  C   UNL d   1     -23.390   3.336   6.042 -0.08 +0.09    +0.115 C 
DOCKED: BRANCH  31  32
DOCKED: ATOM     32  C   UNL d   1     -23.098   3.168   4.567 +0.02 +0.19    +0.139 C 
DOCKED: ATOM     33  O   UNL d   1     -22.800   4.145   3.897 -0.29 -0.98    -0.650 OA
DOCKED: BRANCH  32  34
DOCKED: ATOM     34  O   UNL d   1     -23.109   1.954   3.967 -0.20 -1.09    -0.776 OA
DOCKED: ATOM     35  H   UNL d   1     -23.911   1.444   3.787 +0.01 +0.13    +0.167 HD
DOCKED: ENDBRANCH  32  34
DOCKED: ENDBRANCH  31  32
DOCKED: ENDBRANCH  30  31
DOCKED: ENDBRANCH   6  30
DOCKED: BRANCH  29  36
DOCKED: ATOM     36  C   UNL d   1     -19.757  -0.334  10.719 -0.02 +0.04    +0.190 C 
DOCKED: BRANCH  36  37
DOCKED: ATOM     37  O   UNL d   1     -21.039  -0.886  10.800 +0.01 -0.09    -0.399 OA
DOCKED: ATOM     38  H   UNL d   1     -21.593  -0.342  10.173 +0.02 +0.05    +0.209 HD
DOCKED: ENDBRANCH  36  37
DOCKED: ENDBRANCH  29  36
DOCKED: BRANCH  22  39
DOCKED: ATOM     39  C   UNL d   1     -22.533   4.964  11.199 -0.05 +0.01    +0.052 C 
DOCKED: BRANCH  39  40
DOCKED: ATOM     40  C   UNL d   1     -22.508   6.031  10.092 -0.06 +0.03    +0.115 C 
DOCKED: BRANCH  40  41
DOCKED: ATOM     41  C   UNL d   1     -21.306   6.951  10.139 -0.15 +0.04    +0.139 C 
DOCKED: ATOM     42  O   UNL d   1     -21.326   7.994   9.500 -0.00 -0.14    -0.650 OA
DOCKED: BRANCH  41  43
DOCKED: ATOM     43  O   UNL d   1     -20.245   6.694  10.936 -0.01 -0.23    -0.776 OA
DOCKED: ATOM     44  H   UNL d   1     -19.334   6.750  10.622 -0.52 +0.00    +0.167 HD
DOCKED: ENDBRANCH  41  43
DOCKED: ENDBRANCH  40  41
DOCKED: ENDBRANCH  39  40
DOCKED: ENDBRANCH  22  39
DOCKED: BRANCH  12  45
DOCKED: ATOM     45  C   UNL d   1     -14.857  -2.622   8.097 -0.34 +0.00    +0.004 C 
DOCKED: ATOM     46  C   UNL d   1     -14.384  -3.693   7.466 -0.40 +0.00    +0.012 C 
DOCKED: ENDBRANCH  12  45
DOCKED: BRANCH  17  47
DOCKED: ATOM     47  C   UNL d   1     -15.927   1.991  14.314 -0.30 +0.00    +0.004 C 
DOCKED: ATOM     48  C   UNL d   1     -14.702   2.243  14.783 -0.38 -0.00    +0.012 C 
DOCKED: ENDBRANCH  17  47
DOCKED: TORSDOF 12
DOCKED: TER
DOCKED: ENDMDL
________________________________________________________________________________


	BEGINNING GENETIC ALGORITHM DOCKING 32 of 100
Run: 32 Seed: 373986810 241066288 [ Run 32 of 100 GA/GALS ]
Beginning LAMARCKIAN GENETIC ALGORITHM (LGA), with a maximum of 25000000 energy evaluations.

Final-Value: -11.724


	FINAL GENETIC ALGORITHM DOCKED STATE
	_______________________________________________


Detailed state:  trans -15.265 -0.941 -1.906 quatxyzw -0.363281 0.234415 0.259655 -0.863513 center 8.781 34.984 -0.736 ntor 12 -82.6211 95.9674 -18.9956 31.0313 75.5742 118.4656 40.0594 -59.7283 155.3443 -136.3886 -157.0240 -7.6228
State:	-15.265  -0.941  -1.906  -0.720  0.465  0.515 -60.573    -82.62   95.97  -19.00   31.03   75.57  118.47   40.06  -59.73  155.34 -136.39 -157.02   -7.62

DOCKED: MODEL       32
DOCKED: USER    Run = 32
DOCKED: USER    DPF = D:/Protein_go_brrr/autodock/final/AncMH_nat/heme_Co/dock.dpf
DOCKED: USER  
DOCKED: USER    Estimated Free Energy of Binding    =   -5.95 kcal/mol  [=(1)+(2)+(3)-(4)]
DOCKED: USER    Estimated Inhibition Constant, Ki   =   43.58 uM (micromolar)  [Temperature = 298.15 K]
DOCKED: USER    
DOCKED: USER    (1) Final Intermolecular Energy     =   -9.53 kcal/mol
DOCKED: USER        vdW + Hbond + desolv Energy     =   -6.24 kcal/mol
DOCKED: USER        Electrostatic Energy            =   -3.29 kcal/mol
DOCKED: USER    (2) Final Total Internal Energy     =   -2.20 kcal/mol
DOCKED: USER    (3) Torsional Free Energy           =   +3.58 kcal/mol
DOCKED: USER    (4) Unbound System's Energy  [=(2)] =   -2.20 kcal/mol
DOCKED: USER    
DOCKED: USER    
DOCKED: USER    NEWDPF move heme_Co_opt.pdbqt
DOCKED: USER    NEWDPF about 8.781000 34.984000 -0.736000
DOCKED: USER    NEWDPF tran0 -15.265354 -0.940938 -1.906470
DOCKED: USER    NEWDPF quaternion0 -0.363281 0.234415 0.259655 -0.863513
DOCKED: USER    NEWDPF axisangle0 -0.720331 0.464809 0.514855 -60.573220
DOCKED: USER    NEWDPF quat0 -0.720331 0.464809 0.514855 -60.573220
DOCKED: USER    NEWDPF dihe0 -82.62 95.97 -19.00 31.03 75.57 118.47 40.06 -59.73 155.34 -136.39 -157.02 -7.62 
DOCKED: USER  keepresnum = 1 
DOCKED: USER  
DOCKED: REMARK  12 active torsions:
DOCKED: REMARK  status: ('A' for Active; 'I' for Inactive)
DOCKED: REMARK    1  A    between atoms: C_6  and  C_10 
DOCKED: REMARK    2  A    between atoms: C_10  and  C_11 
DOCKED: REMARK    3  A    between atoms: C_11  and  C_12 
DOCKED: REMARK    4  A    between atoms: C_12  and  O_14 
DOCKED: REMARK    5  A    between atoms: C_17  and  C_20 
DOCKED: REMARK    6  A    between atoms: C_24  and  C_27 
DOCKED: REMARK    7  A    between atoms: C_31  and  C_34 
DOCKED: REMARK    8  A    between atoms: C_34  and  C_35 
DOCKED: REMARK    9  A    between atoms: C_35  and  C_36 
DOCKED: REMARK   10  A    between atoms: C_36  and  O_38 
DOCKED: REMARK   11  A    between atoms: FE_43  and  C_44 
DOCKED: REMARK   12  A    between atoms: C_44  and  O_45 
DOCKED: USER                              x       y       z     vdW  Elec       q    Type
DOCKED: USER                           _______ _______ _______ _____ _____    ______ ____
DOCKED: ROOT
DOCKED: ATOM      1  C   UNL d   1     -17.219  -1.816  -1.543 -0.08 +0.06    +0.064 A 
DOCKED: ATOM      2  C   UNL d   1     -13.815  -0.267   1.394 -0.25 +0.09    +0.064 C 
DOCKED: ATOM      3  C   UNL d   1     -10.930   0.558  -2.325 -0.20 +0.02    +0.064 A 
DOCKED: ATOM      4  C   UNL d   1     -14.527  -0.655  -5.367 -0.04 +0.02    +0.064 A 
DOCKED: ATOM      5  C   UNL d   1     -16.488  -1.487  -0.465 -0.12 +0.08    +0.066 A 
DOCKED: ATOM      6  C   UNL d   1     -17.020  -1.525   0.839 -0.10 -0.02    -0.021 A 
DOCKED: ATOM      7  C   UNL d   1     -16.035  -1.053   1.685 -0.15 -0.03    -0.025 A 
DOCKED: ATOM      8  C   UNL d   1     -14.940  -0.763   0.864 -0.16 +0.10    +0.066 A 
DOCKED: ATOM      9  C   UNL d   1     -16.108  -0.875   3.209 -0.16 +0.05    +0.051 C 
DOCKED: ATOM     10  C   UNL d   1     -12.629   0.037   0.632 -0.22 +0.07    +0.066 A 
DOCKED: ATOM     11  C   UNL d   1     -11.373   0.426   1.146 -0.29 -0.01    -0.021 A 
DOCKED: ATOM     12  C   UNL d   1     -10.550   0.656   0.041 -0.34 +0.00    +0.000 A 
DOCKED: ATOM     13  C   UNL d   1     -11.358   0.379  -1.062 -0.23 +0.04    +0.070 A 
DOCKED: ATOM     14  C   UNL d   1     -10.981   0.475   2.601 -0.34 +0.02    +0.052 C 
DOCKED: ATOM     15  C   UNL d   1     -11.644   0.372  -3.573 -0.22 +0.02    +0.066 A 
DOCKED: ATOM     16  C   UNL d   1     -11.190   0.713  -4.839 -0.25 +0.00    -0.021 A 
DOCKED: ATOM     17  C   UNL d   1     -12.225   0.368  -5.720 -0.12 +0.00    +0.000 A 
DOCKED: ATOM     18  C   UNL d   1     -13.225  -0.175  -4.920 -0.08 +0.02    +0.070 A 
DOCKED: ATOM     19  C   UNL d   1      -9.846   1.332  -5.152 -0.23 -0.02    +0.052 C 
DOCKED: ATOM     20  C   UNL d   1     -15.548  -1.106  -4.599 -0.05 +0.03    +0.066 A 
DOCKED: ATOM     21  C   UNL d   1     -16.766  -1.507  -5.143 -0.02 -0.01    -0.025 A 
DOCKED: ATOM     22  C   UNL d   1     -17.552  -1.874  -4.066 -0.03 -0.01    -0.021 A 
DOCKED: ATOM     23  C   UNL d   1     -16.772  -1.667  -2.909 -0.08 +0.05    +0.066 A 
DOCKED: ATOM     24  C   UNL d   1     -17.170  -1.520  -6.615 -0.00 +0.01    +0.051 C 
DOCKED: ATOM     25  N   UNL d   1     -15.191  -1.028  -0.472 -0.12 -0.33    -0.248 N 
DOCKED: ATOM     26  N   UNL d   1     -12.597  -0.049  -0.702 -0.14 -0.24    -0.248 N 
DOCKED: ATOM     27  N   UNL d   1     -12.857  -0.129  -3.644 -0.10 -0.11    -0.248 N 
DOCKED: ATOM     28  N   UNL d   1     -15.559  -1.199  -3.227 -0.08 -0.19    -0.248 N 
DOCKED: ATOM     29 FE   UNL d   1     -13.957  -0.553  -2.154 -0.04 +0.00    +0.000 Fe
DOCKED: ENDROOT
DOCKED: BRANCH   6  30
DOCKED: ATOM     30  C   UNL d   1     -18.439  -1.921   1.231 -0.04 +0.04    +0.052 C 
DOCKED: BRANCH  30  31
DOCKED: ATOM     31  C   UNL d   1     -19.431  -0.828   0.835 -0.01 +0.10    +0.115 C 
DOCKED: BRANCH  31  32
DOCKED: ATOM     32  C   UNL d   1     -18.788   0.541   0.777 -0.08 +0.17    +0.139 C 
DOCKED: ATOM     33  O   UNL d   1     -18.763   1.236   1.782 -0.39 -1.25    -0.650 OA
DOCKED: BRANCH  32  34
DOCKED: ATOM     34  O   UNL d   1     -18.192   1.007  -0.345 -0.03 -0.98    -0.776 OA
DOCKED: ATOM     35  H   UNL d   1     -17.269   0.840  -0.580 +0.02 +0.27    +0.167 HD
DOCKED: ENDBRANCH  32  34
DOCKED: ENDBRANCH  31  32
DOCKED: ENDBRANCH  30  31
DOCKED: ENDBRANCH   6  30
DOCKED: BRANCH  29  36
DOCKED: ATOM     36  C   UNL d   1     -14.769   1.377  -2.062 -0.03 +0.25    +0.190 C 
DOCKED: BRANCH  36  37
DOCKED: ATOM     37  O   UNL d   1     -15.947   2.079  -1.787 +0.12 -0.71    -0.399 OA
DOCKED: ATOM     38  H   UNL d   1     -16.671   1.394  -1.840 +0.02 +0.27    +0.209 HD
DOCKED: ENDBRANCH  36  37
DOCKED: ENDBRANCH  29  36
DOCKED: BRANCH  22  39
DOCKED: ATOM     39  C   UNL d   1     -18.995  -2.336  -4.148 -0.01 +0.02    +0.052 C 
DOCKED: BRANCH  39  40
DOCKED: ATOM     40  C   UNL d   1     -19.070  -3.871  -4.218 -0.02 +0.05    +0.115 C 
DOCKED: BRANCH  40  41
DOCKED: ATOM     41  C   UNL d   1     -18.053  -4.586  -3.355 -0.04 +0.11    +0.139 C 
DOCKED: ATOM     42  O   UNL d   1     -18.251  -4.683  -2.152 +0.11 -0.61    -0.650 OA
DOCKED: BRANCH  41  43
DOCKED: ATOM     43  O   UNL d   1     -16.973  -5.198  -3.890 -0.46 -0.81    -0.776 OA
DOCKED: ATOM     44  H   UNL d   1     -16.886  -5.364  -4.838 +0.01 +0.11    +0.167 HD
DOCKED: ENDBRANCH  41  43
DOCKED: ENDBRANCH  40  41
DOCKED: ENDBRANCH  39  40
DOCKED: ENDBRANCH  22  39
DOCKED: BRANCH  12  45
DOCKED: ATOM     45  C   UNL d   1      -9.096   1.085  -0.100 -0.45 +0.00    +0.004 C 
DOCKED: ATOM     46  C   UNL d   1      -8.079   0.994   0.754 -0.49 +0.00    +0.012 C 
DOCKED: ENDBRANCH  12  45
DOCKED: BRANCH  17  47
DOCKED: ATOM     47  C   UNL d   1     -12.326   0.564  -7.197 -0.09 -0.00    +0.004 C 
DOCKED: ATOM     48  C   UNL d   1     -11.405   0.134  -8.062 -0.13 -0.00    +0.012 C 
DOCKED: ENDBRANCH  17  47
DOCKED: TORSDOF 12
DOCKED: TER
DOCKED: ENDMDL
________________________________________________________________________________


	BEGINNING GENETIC ALGORITHM DOCKING 33 of 100
Run: 33 Seed: 670263106 2042004844 [ Run 33 of 100 GA/GALS ]
Beginning LAMARCKIAN GENETIC ALGORITHM (LGA), with a maximum of 25000000 energy evaluations.

Final-Value: -13.466


	FINAL GENETIC ALGORITHM DOCKED STATE
	_______________________________________________


Detailed state:  trans -11.154 -0.069 2.151 quatxyzw -0.095429 -0.692229 -0.182318 -0.691717 center 8.781 34.984 -0.736 ntor 12 -177.2115 97.8590 -28.7761 127.0510 158.6736 131.9932 31.0489 90.7814 156.3774 -41.1010 -159.9315 -153.3985
State:	-11.154  -0.069   2.151  -0.132 -0.959 -0.252 -92.468   -177.21   97.86  -28.78  127.05  158.67  131.99   31.05   90.78  156.38  -41.10 -159.93 -153.40

DOCKED: MODEL       33
DOCKED: USER    Run = 33
DOCKED: USER    DPF = D:/Protein_go_brrr/autodock/final/AncMH_nat/heme_Co/dock.dpf
DOCKED: USER  
DOCKED: USER    Estimated Free Energy of Binding    =   -7.78 kcal/mol  [=(1)+(2)+(3)-(4)]
DOCKED: USER    Estimated Inhibition Constant, Ki   =    1.98 uM (micromolar)  [Temperature = 298.15 K]
DOCKED: USER    
DOCKED: USER    (1) Final Intermolecular Energy     =  -11.36 kcal/mol
DOCKED: USER        vdW + Hbond + desolv Energy     =  -10.11 kcal/mol
DOCKED: USER        Electrostatic Energy            =   -1.25 kcal/mol
DOCKED: USER    (2) Final Total Internal Energy     =   -2.11 kcal/mol
DOCKED: USER    (3) Torsional Free Energy           =   +3.58 kcal/mol
DOCKED: USER    (4) Unbound System's Energy  [=(2)] =   -2.11 kcal/mol
DOCKED: USER    
DOCKED: USER    
DOCKED: USER    NEWDPF move heme_Co_opt.pdbqt
DOCKED: USER    NEWDPF about 8.781000 34.984000 -0.736000
DOCKED: USER    NEWDPF tran0 -11.153895 -0.068920 2.150890
DOCKED: USER    NEWDPF quaternion0 -0.095429 -0.692229 -0.182318 -0.691717
DOCKED: USER    NEWDPF axisangle0 -0.132142 -0.958542 -0.252459 -92.467573
DOCKED: USER    NEWDPF quat0 -0.132142 -0.958542 -0.252459 -92.467573
DOCKED: USER    NEWDPF dihe0 -177.21 97.86 -28.78 127.05 158.67 131.99 31.05 90.78 156.38 -41.10 -159.93 -153.40 
DOCKED: USER  keepresnum = 1 
DOCKED: USER  
DOCKED: REMARK  12 active torsions:
DOCKED: REMARK  status: ('A' for Active; 'I' for Inactive)
DOCKED: REMARK    1  A    between atoms: C_6  and  C_10 
DOCKED: REMARK    2  A    between atoms: C_10  and  C_11 
DOCKED: REMARK    3  A    between atoms: C_11  and  C_12 
DOCKED: REMARK    4  A    between atoms: C_12  and  O_14 
DOCKED: REMARK    5  A    between atoms: C_17  and  C_20 
DOCKED: REMARK    6  A    between atoms: C_24  and  C_27 
DOCKED: REMARK    7  A    between atoms: C_31  and  C_34 
DOCKED: REMARK    8  A    between atoms: C_34  and  C_35 
DOCKED: REMARK    9  A    between atoms: C_35  and  C_36 
DOCKED: REMARK   10  A    between atoms: C_36  and  O_38 
DOCKED: REMARK   11  A    between atoms: FE_43  and  C_44 
DOCKED: REMARK   12  A    between atoms: C_44  and  O_45 
DOCKED: USER                              x       y       z     vdW  Elec       q    Type
DOCKED: USER                           _______ _______ _______ _____ _____    ______ ____
DOCKED: ROOT
DOCKED: ATOM      1  C   UNL d   1     -10.130   0.293   0.271 -0.34 +0.02    +0.064 A 
DOCKED: ATOM      2  C   UNL d   1     -14.630  -0.857   1.287 -0.23 +0.08    +0.064 C 
DOCKED: ATOM      3  C   UNL d   1     -13.514  -1.288   5.913 -0.22 +0.02    +0.064 A 
DOCKED: ATOM      4  C   UNL d   1      -9.003   0.260   4.956 +0.21 +0.02    +0.064 A 
DOCKED: ATOM      5  C   UNL d   1     -11.433  -0.024   0.204 -0.25 +0.04    +0.066 A 
DOCKED: ATOM      6  C   UNL d   1     -12.160   0.054  -1.000 -0.16 -0.02    -0.021 A 
DOCKED: ATOM      7  C   UNL d   1     -13.470  -0.259  -0.695 -0.16 -0.03    -0.025 A 
DOCKED: ATOM      8  C   UNL d   1     -13.483  -0.530   0.677 -0.19 +0.08    +0.066 A 
DOCKED: ATOM      9  C   UNL d   1     -14.675  -0.304  -1.648 -0.16 +0.06    +0.051 C 
DOCKED: ATOM     10  C   UNL d   1     -14.736  -1.178   2.689 -0.20 +0.06    +0.066 A 
DOCKED: ATOM     11  C   UNL d   1     -15.880  -1.663   3.359 -0.13 -0.02    -0.021 A 
DOCKED: ATOM     12  C   UNL d   1     -15.525  -1.784   4.706 -0.12 +0.00    +0.000 A 
DOCKED: ATOM     13  C   UNL d   1     -14.192  -1.377   4.755 -0.09 +0.03    +0.070 A 
DOCKED: ATOM     14  C   UNL d   1     -17.183  -2.068   2.720 -0.08 +0.04    +0.052 C 
DOCKED: ATOM     15  C   UNL d   1     -12.157  -0.840   6.153 -0.33 +0.01    +0.066 A 
DOCKED: ATOM     16  C   UNL d   1     -11.564  -0.634   7.390 -0.22 -0.00    -0.021 A 
DOCKED: ATOM     17  C   UNL d   1     -10.264  -0.185   7.120 -0.33 +0.00    +0.000 A 
DOCKED: ATOM     18  C   UNL d   1     -10.160  -0.169   5.733 -0.35 +0.02    +0.070 A 
DOCKED: ATOM     19  C   UNL d   1     -12.229  -0.861   8.730 -0.53 +0.00    +0.052 C 
DOCKED: ATOM     20  C   UNL d   1      -8.908   0.366   3.609 -0.24 +0.02    +0.066 A 
DOCKED: ATOM     21  C   UNL d   1      -7.753   0.825   2.979 -0.32 -0.00    -0.025 A 
DOCKED: ATOM     22  C   UNL d   1      -8.039   0.818   1.626 -0.37 -0.00    -0.021 A 
DOCKED: ATOM     23  C   UNL d   1      -9.368   0.363   1.497 -0.36 +0.02    +0.066 A 
DOCKED: ATOM     24  C   UNL d   1      -6.448   1.268   3.635 -0.38 +0.00    +0.051 C 
DOCKED: ATOM     25  N   UNL d   1     -12.234  -0.398   1.259 -0.17 -0.21    -0.248 N 
DOCKED: ATOM     26  N   UNL d   1     -13.700  -1.064   3.526 -0.16 -0.17    -0.248 N 
DOCKED: ATOM     27  N   UNL d   1     -11.315  -0.535   5.190 -0.16 -0.07    -0.248 N 
DOCKED: ATOM     28  N   UNL d   1      -9.899   0.091   2.695 -0.15 -0.08    -0.248 N 
DOCKED: ATOM     29 FE   UNL d   1     -11.744  -0.470   3.340 -0.07 +0.00    +0.000 Fe
DOCKED: ENDROOT
DOCKED: BRANCH   6  30
DOCKED: ATOM     30  C   UNL d   1     -11.625   0.490  -2.360 -0.26 +0.02    +0.052 C 
DOCKED: BRANCH  30  31
DOCKED: ATOM     31  C   UNL d   1     -11.452   2.008  -2.406 -0.19 +0.04    +0.115 C 
DOCKED: BRANCH  31  32
DOCKED: ATOM     32  C   UNL d   1     -12.370   2.724  -1.439 -0.17 +0.12    +0.139 C 
DOCKED: ATOM     33  O   UNL d   1     -13.414   3.208  -1.849 -0.01 -0.73    -0.650 OA
DOCKED: BRANCH  32  34
DOCKED: ATOM     34  O   UNL d   1     -12.096   2.806  -0.117 -0.25 -0.93    -0.776 OA
DOCKED: ATOM     35  H   UNL d   1     -12.650   3.271   0.526 +0.07 +0.32    +0.167 HD
DOCKED: ENDBRANCH  32  34
DOCKED: ENDBRANCH  31  32
DOCKED: ENDBRANCH  30  31
DOCKED: ENDBRANCH   6  30
DOCKED: BRANCH  29  36
DOCKED: ATOM     36  C   UNL d   1     -12.346   1.535   3.436 +0.00 +0.13    +0.190 C 
DOCKED: BRANCH  36  37
DOCKED: ATOM     37  O   UNL d   1     -12.527   2.683   2.657 -0.27 -0.44    -0.399 OA
DOCKED: ATOM     38  H   UNL d   1     -12.037   2.497   1.808 +0.09 +0.23    +0.209 HD
DOCKED: ENDBRANCH  36  37
DOCKED: ENDBRANCH  29  36
DOCKED: BRANCH  22  39
DOCKED: ATOM     39  C   UNL d   1      -7.103   1.287   0.527 -0.36 +0.01    +0.052 C 
DOCKED: BRANCH  39  40
DOCKED: ATOM     40  C   UNL d   1      -6.578   2.700   0.828 -0.36 +0.01    +0.115 C 
DOCKED: BRANCH  40  41
DOCKED: ATOM     41  C   UNL d   1      -5.084   2.863   0.643 -0.45 -0.00    +0.139 C 
DOCKED: ATOM     42  O   UNL d   1      -4.426   3.394   1.526 +0.02 +0.01    -0.650 OA
DOCKED: BRANCH  41  43
DOCKED: ATOM     43  O   UNL d   1      -4.442   2.360  -0.436 -0.00 +0.07    -0.776 OA
DOCKED: ATOM     44  H   UNL d   1      -4.801   1.633  -0.960 -0.43 -0.04    +0.167 HD
DOCKED: ENDBRANCH  41  43
DOCKED: ENDBRANCH  40  41
DOCKED: ENDBRANCH  39  40
DOCKED: ENDBRANCH  22  39
DOCKED: BRANCH  12  45
DOCKED: ATOM     45  C   UNL d   1     -16.283  -2.252   5.941 -0.17 +0.00    +0.004 C 
DOCKED: ATOM     46  C   UNL d   1     -16.048  -3.268   6.767 -0.25 +0.00    +0.012 C 
DOCKED: ENDBRANCH  12  45
DOCKED: BRANCH  17  47
DOCKED: ATOM     47  C   UNL d   1      -9.190   0.253   8.061 -0.38 +0.00    +0.004 C 
DOCKED: ATOM     48  C   UNL d   1      -7.909  -0.100   7.934 -0.45 +0.00    +0.012 C 
DOCKED: ENDBRANCH  17  47
DOCKED: TORSDOF 12
DOCKED: TER
DOCKED: ENDMDL
________________________________________________________________________________


	BEGINNING GENETIC ALGORITHM DOCKING 34 of 100
Run: 34 Seed: 12221671 1101179011 [ Run 34 of 100 GA/GALS ]
Beginning LAMARCKIAN GENETIC ALGORITHM (LGA), with a maximum of 25000000 energy evaluations.

Final-Value: -10.042


	FINAL GENETIC ALGORITHM DOCKED STATE
	_______________________________________________


Detailed state:  trans -3.808 14.073 15.300 quatxyzw -0.149469 -0.835681 0.483599 -0.213138 center 8.781 34.984 -0.736 ntor 12 73.7462 -62.2899 66.6916 -91.4645 144.4604 172.7594 102.7968 50.7745 -61.8035 -71.5815 -2.8358 157.3719
State:	 -3.808  14.073  15.300  -0.153 -0.855  0.495 -155.387     73.75  -62.29   66.69  -91.46  144.46  172.76  102.80   50.77  -61.80  -71.58   -2.84  157.37

DOCKED: MODEL       34
DOCKED: USER    Run = 34
DOCKED: USER    DPF = D:/Protein_go_brrr/autodock/final/AncMH_nat/heme_Co/dock.dpf
DOCKED: USER  
DOCKED: USER    Estimated Free Energy of Binding    =   -5.60 kcal/mol  [=(1)+(2)+(3)-(4)]
DOCKED: USER    Estimated Inhibition Constant, Ki   =   78.82 uM (micromolar)  [Temperature = 298.15 K]
DOCKED: USER    
DOCKED: USER    (1) Final Intermolecular Energy     =   -9.18 kcal/mol
DOCKED: USER        vdW + Hbond + desolv Energy     =   -6.94 kcal/mol
DOCKED: USER        Electrostatic Energy            =   -2.24 kcal/mol
DOCKED: USER    (2) Final Total Internal Energy     =   -0.86 kcal/mol
DOCKED: USER    (3) Torsional Free Energy           =   +3.58 kcal/mol
DOCKED: USER    (4) Unbound System's Energy  [=(2)] =   -0.86 kcal/mol
DOCKED: USER    
DOCKED: USER    
DOCKED: USER    NEWDPF move heme_Co_opt.pdbqt
DOCKED: USER    NEWDPF about 8.781000 34.984000 -0.736000
DOCKED: USER    NEWDPF tran0 -3.807982 14.072596 15.299672
DOCKED: USER    NEWDPF quaternion0 -0.149469 -0.835681 0.483599 -0.213138
DOCKED: USER    NEWDPF axisangle0 -0.152984 -0.855335 0.494973 -155.387394
DOCKED: USER    NEWDPF quat0 -0.152984 -0.855335 0.494973 -155.387394
DOCKED: USER    NEWDPF dihe0 73.75 -62.29 66.69 -91.46 144.46 172.76 102.80 50.77 -61.80 -71.58 -2.84 157.37 
DOCKED: USER  keepresnum = 1 
DOCKED: USER  
DOCKED: REMARK  12 active torsions:
DOCKED: REMARK  status: ('A' for Active; 'I' for Inactive)
DOCKED: REMARK    1  A    between atoms: C_6  and  C_10 
DOCKED: REMARK    2  A    between atoms: C_10  and  C_11 
DOCKED: REMARK    3  A    between atoms: C_11  and  C_12 
DOCKED: REMARK    4  A    between atoms: C_12  and  O_14 
DOCKED: REMARK    5  A    between atoms: C_17  and  C_20 
DOCKED: REMARK    6  A    between atoms: C_24  and  C_27 
DOCKED: REMARK    7  A    between atoms: C_31  and  C_34 
DOCKED: REMARK    8  A    between atoms: C_34  and  C_35 
DOCKED: REMARK    9  A    between atoms: C_35  and  C_36 
DOCKED: REMARK   10  A    between atoms: C_36  and  O_38 
DOCKED: REMARK   11  A    between atoms: FE_43  and  C_44 
DOCKED: REMARK   12  A    between atoms: C_44  and  O_45 
DOCKED: USER                              x       y       z     vdW  Elec       q    Type
DOCKED: USER                           _______ _______ _______ _____ _____    ______ ____
DOCKED: ROOT
DOCKED: ATOM      1  C   UNL d   1      -1.688  14.066  14.830 -0.06 -0.01    +0.064 A 
DOCKED: ATOM      2  C   UNL d   1      -4.763  10.563  15.767 -0.16 -0.02    +0.064 C 
DOCKED: ATOM      3  C   UNL d   1      -8.182  13.764  16.709 -0.11 -0.02    +0.064 A 
DOCKED: ATOM      4  C   UNL d   1      -5.172  17.349  15.383 -0.11 +0.01    +0.064 A 
DOCKED: ATOM      5  C   UNL d   1      -2.267  12.875  15.052 -0.09 -0.01    +0.066 A 
DOCKED: ATOM      6  C   UNL d   1      -1.594  11.661  14.812 -0.17 +0.00    -0.021 A 
DOCKED: ATOM      7  C   UNL d   1      -2.498  10.648  15.064 -0.24 +0.01    -0.025 A 
DOCKED: ATOM      8  C   UNL d   1      -3.678  11.286  15.462 -0.17 -0.02    +0.066 A 
DOCKED: ATOM      9  C   UNL d   1      -2.275   9.133  14.938 -0.35 -0.02    +0.051 C 
DOCKED: ATOM     10  C   UNL d   1      -6.011  11.129  16.212 -0.18 -0.02    +0.066 A 
DOCKED: ATOM     11  C   UNL d   1      -7.140  10.422  16.681 -0.20 +0.01    -0.021 A 
DOCKED: ATOM     12  C   UNL d   1      -8.120  11.380  16.952 -0.16 -0.00    +0.000 A 
DOCKED: ATOM     13  C   UNL d   1      -7.516  12.598  16.642 -0.15 -0.02    +0.070 A 
DOCKED: ATOM     14  C   UNL d   1      -7.220   8.939  16.936 -0.24 -0.03    +0.052 C 
DOCKED: ATOM     15  C   UNL d   1      -7.731  15.102  16.377 -0.12 -0.02    +0.066 A 
DOCKED: ATOM     16  C   UNL d   1      -8.515  16.246  16.330 -0.16 +0.01    -0.021 A 
DOCKED: ATOM     17  C   UNL d   1      -7.652  17.282  15.946 -0.19 -0.00    +0.000 A 
DOCKED: ATOM     18  C   UNL d   1      -6.402  16.689  15.805 -0.19 -0.01    +0.070 A 
DOCKED: ATOM     19  C   UNL d   1      -9.994  16.310  16.637 -0.15 -0.03    +0.052 C 
DOCKED: ATOM     20  C   UNL d   1      -3.966  16.777  15.156 -0.12 +0.01    +0.066 A 
DOCKED: ATOM     21  C   UNL d   1      -2.866  17.511  14.718 -0.07 -0.01    -0.025 A 
DOCKED: ATOM     22  C   UNL d   1      -1.839  16.596  14.577 -0.08 -0.01    -0.021 A 
DOCKED: ATOM     23  C   UNL d   1      -2.370  15.337  14.928 -0.06 +0.00    +0.066 A 
DOCKED: ATOM     24  C   UNL d   1      -2.801  19.008  14.427 -0.09 +0.03    +0.051 C 
DOCKED: ATOM     25  N   UNL d   1      -3.561  12.665  15.470 -0.05 +0.04    -0.248 N 
DOCKED: ATOM     26  N   UNL d   1      -6.223  12.449  16.248 -0.09 +0.05    -0.248 N 
DOCKED: ATOM     27  N   UNL d   1      -6.493  15.385  16.040 -0.12 +0.05    -0.248 N 
DOCKED: ATOM     28  N   UNL d   1      -3.658  15.441  15.277 -0.05 -0.01    -0.248 N 
DOCKED: ATOM     29 FE   UNL d   1      -5.112  14.108  15.772 -0.03 -0.00    +0.000 Fe
DOCKED: ENDROOT
DOCKED: BRANCH   6  30
DOCKED: ATOM     30  C   UNL d   1      -0.172  11.498  14.285 -0.17 +0.00    +0.052 C 
DOCKED: BRANCH  30  31
DOCKED: ATOM     31  C   UNL d   1       0.842  11.661  15.417 -0.09 +0.04    +0.115 C 
DOCKED: BRANCH  31  32
DOCKED: ATOM     32  C   UNL d   1       1.632  10.395  15.671 -0.03 +0.11    +0.139 C 
DOCKED: ATOM     33  O   UNL d   1       1.137   9.312  15.394 -0.40 -0.61    -0.650 OA
DOCKED: BRANCH  32  34
DOCKED: ATOM     34  O   UNL d   1       2.896  10.422  16.155 +0.00 -0.44    -0.776 OA
DOCKED: ATOM     35  H   UNL d   1       3.127  10.686  17.056 +0.01 +0.04    +0.167 HD
DOCKED: ENDBRANCH  32  34
DOCKED: ENDBRANCH  31  32
DOCKED: ENDBRANCH  30  31
DOCKED: ENDBRANCH   6  30
DOCKED: BRANCH  29  36
DOCKED: ATOM     36  C   UNL d   1      -5.593  13.847  13.748 -0.34 -0.02    +0.190 C 
DOCKED: BRANCH  36  37
DOCKED: ATOM     37  O   UNL d   1      -5.422  12.979  12.665 -0.30 +0.07    -0.399 OA
DOCKED: ATOM     38  H   UNL d   1      -5.848  13.445  11.893 -0.43 -0.09    +0.209 HD
DOCKED: ENDBRANCH  36  37
DOCKED: ENDBRANCH  29  36
DOCKED: BRANCH  22  39
DOCKED: ATOM     39  C   UNL d   1      -0.443  16.910  14.071 -0.05 +0.01    +0.052 C 
DOCKED: BRANCH  39  40
DOCKED: ATOM     40  C   UNL d   1      -0.293  16.490  12.599 -0.09 +0.04    +0.115 C 
DOCKED: BRANCH  40  41
DOCKED: ATOM     41  C   UNL d   1      -0.358  17.636  11.612 +0.10 +0.15    +0.139 C 
DOCKED: ATOM     42  O   UNL d   1      -0.414  17.392  10.415 -0.48 -0.69    -0.650 OA
DOCKED: BRANCH  41  43
DOCKED: ATOM     43  O   UNL d   1      -0.445  18.921  12.021 -0.13 -0.91    -0.776 OA
DOCKED: ATOM     44  H   UNL d   1       0.302  19.394  12.411 +0.01 +0.10    +0.167 HD
DOCKED: ENDBRANCH  41  43
DOCKED: ENDBRANCH  40  41
DOCKED: ENDBRANCH  39  40
DOCKED: ENDBRANCH  22  39
DOCKED: BRANCH  12  45
DOCKED: ATOM     45  C   UNL d   1      -9.544  11.287  17.483 -0.11 -0.00    +0.004 C 
DOCKED: ATOM     46  C   UNL d   1     -10.711  11.322  16.845 -0.14 -0.00    +0.012 C 
DOCKED: ENDBRANCH  12  45
DOCKED: BRANCH  17  47
DOCKED: ATOM     47  C   UNL d   1      -7.950  18.720  15.671 -0.20 -0.00    +0.004 C 
DOCKED: ATOM     48  C   UNL d   1      -7.355  19.731  16.310 -0.13 -0.00    +0.012 C 
DOCKED: ENDBRANCH  17  47
DOCKED: TORSDOF 12
DOCKED: TER
DOCKED: ENDMDL
________________________________________________________________________________


	BEGINNING GENETIC ALGORITHM DOCKING 35 of 100
Run: 35 Seed: 70136277 325433718 [ Run 35 of 100 GA/GALS ]
Beginning LAMARCKIAN GENETIC ALGORITHM (LGA), with a maximum of 25000000 energy evaluations.

Final-Value: -10.629


	FINAL GENETIC ALGORITHM DOCKED STATE
	_______________________________________________


Detailed state:  trans -17.839 -2.516 5.542 quatxyzw -0.072736 0.373843 -0.851560 0.360272 center 8.781 34.984 -0.736 ntor 12 35.1787 133.7571 -6.6620 116.0784 95.7399 89.2161 -138.8196 -18.4040 -98.8525 149.2799 -178.1704 4.1340
State:	-17.839  -2.516   5.542  -0.078  0.401 -0.913 137.766     35.18  133.76   -6.66  116.08   95.74   89.22 -138.82  -18.40  -98.85  149.28 -178.17    4.13

DOCKED: MODEL       35
DOCKED: USER    Run = 35
DOCKED: USER    DPF = D:/Protein_go_brrr/autodock/final/AncMH_nat/heme_Co/dock.dpf
DOCKED: USER  
DOCKED: USER    Estimated Free Energy of Binding    =   -5.82 kcal/mol  [=(1)+(2)+(3)-(4)]
DOCKED: USER    Estimated Inhibition Constant, Ki   =   53.76 uM (micromolar)  [Temperature = 298.15 K]
DOCKED: USER    
DOCKED: USER    (1) Final Intermolecular Energy     =   -9.40 kcal/mol
DOCKED: USER        vdW + Hbond + desolv Energy     =   -6.30 kcal/mol
DOCKED: USER        Electrostatic Energy            =   -3.11 kcal/mol
DOCKED: USER    (2) Final Total Internal Energy     =   -1.23 kcal/mol
DOCKED: USER    (3) Torsional Free Energy           =   +3.58 kcal/mol
DOCKED: USER    (4) Unbound System's Energy  [=(2)] =   -1.23 kcal/mol
DOCKED: USER    
DOCKED: USER    
DOCKED: USER    NEWDPF move heme_Co_opt.pdbqt
DOCKED: USER    NEWDPF about 8.781000 34.984000 -0.736000
DOCKED: USER    NEWDPF tran0 -17.838765 -2.515705 5.541884
DOCKED: USER    NEWDPF quaternion0 -0.072736 0.373843 -0.851560 0.360272
DOCKED: USER    NEWDPF axisangle0 -0.077972 0.400754 -0.912862 137.766164
DOCKED: USER    NEWDPF quat0 -0.077972 0.400754 -0.912862 137.766164
DOCKED: USER    NEWDPF dihe0 35.18 133.76 -6.66 116.08 95.74 89.22 -138.82 -18.40 -98.85 149.28 -178.17 4.13 
DOCKED: USER  keepresnum = 1 
DOCKED: USER  
DOCKED: REMARK  12 active torsions:
DOCKED: REMARK  status: ('A' for Active; 'I' for Inactive)
DOCKED: REMARK    1  A    between atoms: C_6  and  C_10 
DOCKED: REMARK    2  A    between atoms: C_10  and  C_11 
DOCKED: REMARK    3  A    between atoms: C_11  and  C_12 
DOCKED: REMARK    4  A    between atoms: C_12  and  O_14 
DOCKED: REMARK    5  A    between atoms: C_17  and  C_20 
DOCKED: REMARK    6  A    between atoms: C_24  and  C_27 
DOCKED: REMARK    7  A    between atoms: C_31  and  C_34 
DOCKED: REMARK    8  A    between atoms: C_34  and  C_35 
DOCKED: REMARK    9  A    between atoms: C_35  and  C_36 
DOCKED: REMARK   10  A    between atoms: C_36  and  O_38 
DOCKED: REMARK   11  A    between atoms: FE_43  and  C_44 
DOCKED: REMARK   12  A    between atoms: C_44  and  O_45 
DOCKED: USER                              x       y       z     vdW  Elec       q    Type
DOCKED: USER                           _______ _______ _______ _____ _____    ______ ____
DOCKED: ROOT
DOCKED: ATOM      1  C   UNL d   1     -16.636  -3.242   3.886 -0.08 +0.04    +0.064 A 
DOCKED: ATOM      2  C   UNL d   1     -16.322  -3.886   8.587 -0.39 +0.01    +0.064 C 
DOCKED: ATOM      3  C   UNL d   1     -19.926  -0.828   9.285 -0.03 +0.02    +0.064 A 
DOCKED: ATOM      4  C   UNL d   1     -20.520  -0.451   4.471 +0.01 +0.08    +0.064 A 
DOCKED: ATOM      5  C   UNL d   1     -16.262  -3.615   5.121 -0.11 +0.03    +0.066 A 
DOCKED: ATOM      6  C   UNL d   1     -15.258  -4.579   5.339 -0.24 -0.01    -0.021 A 
DOCKED: ATOM      7  C   UNL d   1     -15.187  -4.779   6.703 -0.34 -0.01    -0.025 A 
DOCKED: ATOM      8  C   UNL d   1     -16.138  -3.917   7.261 -0.26 +0.02    +0.066 A 
DOCKED: ATOM      9  C   UNL d   1     -14.265  -5.741   7.468 -0.53 +0.02    +0.051 C 
DOCKED: ATOM     10  C   UNL d   1     -17.257  -3.013   9.252 -0.21 +0.01    +0.066 A 
DOCKED: ATOM     11  C   UNL d   1     -17.398  -2.833  10.645 -0.21 -0.00    -0.021 A 
DOCKED: ATOM     12  C   UNL d   1     -18.453  -1.933  10.820 -0.09 +0.00    +0.000 A 
DOCKED: ATOM     13  C   UNL d   1     -18.868  -1.623   9.525 -0.05 +0.02    +0.070 A 
DOCKED: ATOM     14  C   UNL d   1     -16.511  -3.416  11.715 -0.30 +0.01    +0.052 C 
DOCKED: ATOM     15  C   UNL d   1     -20.521  -0.447   8.019 -0.05 +0.03    +0.066 A 
DOCKED: ATOM     16  C   UNL d   1     -21.703   0.260   7.845 -0.06 -0.01    -0.021 A 
DOCKED: ATOM     17  C   UNL d   1     -21.880   0.370   6.458 -0.07 +0.00    +0.000 A 
DOCKED: ATOM     18  C   UNL d   1     -20.779  -0.267   5.894 -0.06 +0.07    +0.070 A 
DOCKED: ATOM     19  C   UNL d   1     -22.584   0.783   8.957 -0.03 +0.02    +0.052 C 
DOCKED: ATOM     20  C   UNL d   1     -19.504  -1.140   3.901 -0.06 +0.06    +0.066 A 
DOCKED: ATOM     21  C   UNL d   1     -19.381  -1.277   2.520 -0.04 -0.02    -0.025 A 
DOCKED: ATOM     22  C   UNL d   1     -18.254  -2.052   2.320 -0.03 -0.02    -0.021 A 
DOCKED: ATOM     23  C   UNL d   1     -17.747  -2.363   3.600 -0.03 +0.04    +0.066 A 
DOCKED: ATOM     24  C   UNL d   1     -20.304  -0.713   1.442 -0.03 +0.04    +0.051 C 
DOCKED: ATOM     25  N   UNL d   1     -16.814  -3.179   6.304 -0.06 -0.09    -0.248 N 
DOCKED: ATOM     26  N   UNL d   1     -18.108  -2.233   8.577 -0.04 -0.07    -0.248 N 
DOCKED: ATOM     27  N   UNL d   1     -20.008  -0.767   6.852 -0.04 -0.15    -0.248 N 
DOCKED: ATOM     28  N   UNL d   1     -18.502  -1.815   4.560 -0.02 -0.17    -0.248 N 
DOCKED: ATOM     29 FE   UNL d   1     -18.505  -1.901   6.591 -0.03 +0.00    +0.000 Fe
DOCKED: ENDROOT
DOCKED: BRANCH   6  30
DOCKED: ATOM     30  C   UNL d   1     -14.469  -5.327   4.270 -0.38 +0.03    +0.052 C 
DOCKED: BRANCH  30  31
DOCKED: ATOM     31  C   UNL d   1     -15.131  -6.668   3.953 -0.32 +0.06    +0.115 C 
DOCKED: BRANCH  31  32
DOCKED: ATOM     32  C   UNL d   1     -16.321  -6.520   3.029 -0.18 +0.10    +0.139 C 
DOCKED: ATOM     33  O   UNL d   1     -16.158  -6.607   1.821 -0.42 -0.91    -0.650 OA
DOCKED: BRANCH  32  34
DOCKED: ATOM     34  O   UNL d   1     -17.577  -6.340   3.500 +0.02 -0.38    -0.776 OA
DOCKED: ATOM     35  H   UNL d   1     -17.788  -5.882   4.325 +0.03 +0.07    +0.167 HD
DOCKED: ENDBRANCH  32  34
DOCKED: ENDBRANCH  31  32
DOCKED: ENDBRANCH  30  31
DOCKED: ENDBRANCH   6  30
DOCKED: BRANCH  29  36
DOCKED: ATOM     36  C   UNL d   1     -19.683  -3.635   6.539 -0.02 +0.08    +0.190 C 
DOCKED: BRANCH  36  37
DOCKED: ATOM     37  O   UNL d   1     -20.095  -4.677   5.702 -0.56 -0.22    -0.399 OA
DOCKED: ATOM     38  H   UNL d   1     -19.415  -4.703   4.971 +0.02 +0.11    +0.209 HD
DOCKED: ENDBRANCH  36  37
DOCKED: ENDBRANCH  29  36
DOCKED: BRANCH  22  39
DOCKED: ATOM     39  C   UNL d   1     -17.735  -2.520   0.973 -0.08 +0.05    +0.052 C 
DOCKED: BRANCH  39  40
DOCKED: ATOM     40  C   UNL d   1     -16.483  -1.724   0.568 -0.12 +0.13    +0.115 C 
DOCKED: BRANCH  40  41
DOCKED: ATOM     41  C   UNL d   1     -16.512  -0.266   0.973 -0.05 +0.22    +0.139 C 
DOCKED: ATOM     42  O   UNL d   1     -15.647   0.164   1.723 -0.14 -1.29    -0.650 OA
DOCKED: BRANCH  41  43
DOCKED: ATOM     43  O   UNL d   1     -17.417   0.596   0.459 -0.39 -1.36    -0.776 OA
DOCKED: ATOM     44  H   UNL d   1     -18.082   0.327  -0.188 +0.02 +0.20    +0.167 HD
DOCKED: ENDBRANCH  41  43
DOCKED: ENDBRANCH  40  41
DOCKED: ENDBRANCH  39  40
DOCKED: ENDBRANCH  22  39
DOCKED: BRANCH  12  45
DOCKED: ATOM     45  C   UNL d   1     -19.101  -1.320  12.054 -0.04 +0.00    +0.004 C 
DOCKED: ATOM     46  C   UNL d   1     -19.043  -0.082  12.539 -0.05 +0.00    +0.012 C 
DOCKED: ENDBRANCH  12  45
DOCKED: BRANCH  17  47
DOCKED: ATOM     47  C   UNL d   1     -23.006   0.972   5.685 -0.07 +0.00    +0.004 C 
DOCKED: ATOM     48  C   UNL d   1     -23.203   2.288   5.572 -0.08 +0.01    +0.012 C 
DOCKED: ENDBRANCH  17  47
DOCKED: TORSDOF 12
DOCKED: TER
DOCKED: ENDMDL
________________________________________________________________________________


	BEGINNING GENETIC ALGORITHM DOCKING 36 of 100
Run: 36 Seed: 406829884 728038211 [ Run 36 of 100 GA/GALS ]
Beginning LAMARCKIAN GENETIC ALGORITHM (LGA), with a maximum of 25000000 energy evaluations.

Final-Value: -11.994


	FINAL GENETIC ALGORITHM DOCKED STATE
	_______________________________________________


Detailed state:  trans -13.777 7.892 -2.949 quatxyzw 0.866797 0.094329 -0.459474 0.169257 center 8.781 34.984 -0.736 ntor 12 150.7046 102.4306 -83.8262 120.2128 -31.2632 116.4188 -113.7445 -16.0636 -126.8680 -176.3367 180.0000 172.0459
State:	-13.777   7.892  -2.949   0.879  0.096 -0.466 160.511    150.70  102.43  -83.83  120.21  -31.26  116.42 -113.74  -16.06 -126.87 -176.34  180.00  172.05

DOCKED: MODEL       36
DOCKED: USER    Run = 36
DOCKED: USER    DPF = D:/Protein_go_brrr/autodock/final/AncMH_nat/heme_Co/dock.dpf
DOCKED: USER  
DOCKED: USER    Estimated Free Energy of Binding    =   -4.53 kcal/mol  [=(1)+(2)+(3)-(4)]
DOCKED: USER    Estimated Inhibition Constant, Ki   =  477.78 uM (micromolar)  [Temperature = 298.15 K]
DOCKED: USER    
DOCKED: USER    (1) Final Intermolecular Energy     =   -8.11 kcal/mol
DOCKED: USER        vdW + Hbond + desolv Energy     =   -6.64 kcal/mol
DOCKED: USER        Electrostatic Energy            =   -1.47 kcal/mol
DOCKED: USER    (2) Final Total Internal Energy     =   -3.88 kcal/mol
DOCKED: USER    (3) Torsional Free Energy           =   +3.58 kcal/mol
DOCKED: USER    (4) Unbound System's Energy  [=(2)] =   -3.88 kcal/mol
DOCKED: USER    
DOCKED: USER    
DOCKED: USER    NEWDPF move heme_Co_opt.pdbqt
DOCKED: USER    NEWDPF about 8.781000 34.984000 -0.736000
DOCKED: USER    NEWDPF tran0 -13.776631 7.892124 -2.949075
DOCKED: USER    NEWDPF quaternion0 0.866797 0.094329 -0.459474 0.169257
DOCKED: USER    NEWDPF axisangle0 0.879487 0.095710 -0.466201 160.510746
DOCKED: USER    NEWDPF quat0 0.879487 0.095710 -0.466201 160.510746
DOCKED: USER    NEWDPF dihe0 150.70 102.43 -83.83 120.21 -31.26 116.42 -113.74 -16.06 -126.87 -176.34 180.00 172.05 
DOCKED: USER  keepresnum = 1 
DOCKED: USER  
DOCKED: REMARK  12 active torsions:
DOCKED: REMARK  status: ('A' for Active; 'I' for Inactive)
DOCKED: REMARK    1  A    between atoms: C_6  and  C_10 
DOCKED: REMARK    2  A    between atoms: C_10  and  C_11 
DOCKED: REMARK    3  A    between atoms: C_11  and  C_12 
DOCKED: REMARK    4  A    between atoms: C_12  and  O_14 
DOCKED: REMARK    5  A    between atoms: C_17  and  C_20 
DOCKED: REMARK    6  A    between atoms: C_24  and  C_27 
DOCKED: REMARK    7  A    between atoms: C_31  and  C_34 
DOCKED: REMARK    8  A    between atoms: C_34  and  C_35 
DOCKED: REMARK    9  A    between atoms: C_35  and  C_36 
DOCKED: REMARK   10  A    between atoms: C_36  and  O_38 
DOCKED: REMARK   11  A    between atoms: FE_43  and  C_44 
DOCKED: REMARK   12  A    between atoms: C_44  and  O_45 
DOCKED: USER                              x       y       z     vdW  Elec       q    Type
DOCKED: USER                           _______ _______ _______ _____ _____    ______ ____
DOCKED: ROOT
DOCKED: ATOM      1  C   UNL d   1     -14.152   6.637  -1.217 -0.29 +0.03    +0.064 A 
DOCKED: ATOM      2  C   UNL d   1     -16.563  10.272  -3.112 -0.09 +0.00    +0.064 C 
DOCKED: ATOM      3  C   UNL d   1     -13.073  10.973  -6.300 -0.15 -0.01    +0.064 A 
DOCKED: ATOM      4  C   UNL d   1     -10.773   7.025  -4.630 -0.27 -0.02    +0.064 A 
DOCKED: ATOM      5  C   UNL d   1     -15.050   7.602  -1.477 -0.22 +0.02    +0.066 A 
DOCKED: ATOM      6  C   UNL d   1     -16.275   7.689  -0.787 -0.20 -0.01    -0.021 A 
DOCKED: ATOM      7  C   UNL d   1     -16.980   8.731  -1.356 -0.11 -0.00    -0.025 A 
DOCKED: ATOM      8  C   UNL d   1     -16.150   9.245  -2.358 -0.11 +0.01    +0.066 A 
DOCKED: ATOM      9  C   UNL d   1     -18.382   9.235  -0.983 -0.05 +0.00    +0.051 C 
DOCKED: ATOM     10  C   UNL d   1     -15.768  10.883  -4.148 -0.08 +0.00    +0.066 A 
DOCKED: ATOM     11  C   UNL d   1     -16.086  12.049  -4.878 -0.07 +0.00    -0.021 A 
DOCKED: ATOM     12  C   UNL d   1     -15.050  12.233  -5.798 -0.08 -0.00    +0.000 A 
DOCKED: ATOM     13  C   UNL d   1     -14.172  11.176  -5.553 -0.11 -0.00    +0.070 A 
DOCKED: ATOM     14  C   UNL d   1     -17.259  12.964  -4.632 -0.03 -0.00    +0.052 C 
DOCKED: ATOM     15  C   UNL d   1     -12.091   9.910  -6.220 -0.20 -0.01    +0.066 A 
DOCKED: ATOM     16  C   UNL d   1     -11.057   9.676  -7.116 -0.25 +0.00    -0.021 A 
DOCKED: ATOM     17  C   UNL d   1     -10.392   8.536  -6.640 -0.30 -0.00    +0.000 A 
DOCKED: ATOM     18  C   UNL d   1     -11.065   8.174  -5.478 -0.27 -0.02    +0.070 A 
DOCKED: ATOM     19  C   UNL d   1     -10.753  10.508  -8.341 -0.24 -0.01    +0.052 C 
DOCKED: ATOM     20  C   UNL d   1     -11.465   6.603  -3.545 -0.25 -0.00    +0.066 A 
DOCKED: ATOM     21  C   UNL d   1     -11.107   5.462  -2.832 -0.25 -0.00    -0.025 A 
DOCKED: ATOM     22  C   UNL d   1     -12.047   5.341  -1.825 -0.24 -0.01    -0.021 A 
DOCKED: ATOM     23  C   UNL d   1     -12.946   6.417  -1.982 -0.28 +0.02    +0.066 A 
DOCKED: ATOM     24  C   UNL d   1      -9.939   4.519  -3.109 -0.30 -0.01    +0.051 C 
DOCKED: ATOM     25  N   UNL d   1     -14.945   8.568  -2.452 -0.04 -0.03    -0.248 N 
DOCKED: ATOM     26  N   UNL d   1     -14.580  10.394  -4.518 -0.04 -0.00    -0.248 N 
DOCKED: ATOM     27  N   UNL d   1     -12.089   8.996  -5.276 -0.14 +0.03    -0.248 N 
DOCKED: ATOM     28  N   UNL d   1     -12.599   7.182  -3.023 -0.17 -0.02    -0.248 N 
DOCKED: ATOM     29 FE   UNL d   1     -13.430   8.792  -3.946 -0.05 +0.00    +0.000 Fe
DOCKED: ENDROOT
DOCKED: BRANCH   6  30
DOCKED: ATOM     30  C   UNL d   1     -16.767   6.755   0.314 -0.18 +0.03    +0.052 C 
DOCKED: BRANCH  30  31
DOCKED: ATOM     31  C   UNL d   1     -17.671   5.669  -0.269 -0.13 +0.10    +0.115 C 
DOCKED: BRANCH  31  32
DOCKED: ATOM     32  C   UNL d   1     -17.036   4.957  -1.444 -0.09 +0.13    +0.139 C 
DOCKED: ATOM     33  O   UNL d   1     -16.789   3.763  -1.362 -0.40 -1.07    -0.650 OA
DOCKED: BRANCH  32  34
DOCKED: ATOM     34  O   UNL d   1     -16.774   5.592  -2.610 +0.03 -0.38    -0.776 OA
DOCKED: ATOM     35  H   UNL d   1     -16.019   5.391  -3.181 +0.02 +0.07    +0.167 HD
DOCKED: ENDBRANCH  32  34
DOCKED: ENDBRANCH  31  32
DOCKED: ENDBRANCH  30  31
DOCKED: ENDBRANCH   6  30
DOCKED: BRANCH  29  36
DOCKED: ATOM     36  C   UNL d   1     -14.592   7.531  -5.151 -0.05 +0.01    +0.190 C 
DOCKED: BRANCH  36  37
DOCKED: ATOM     37  O   UNL d   1     -15.407   6.395  -5.115 +0.00 -0.04    -0.399 OA
DOCKED: ATOM     38  H   UNL d   1     -15.272   6.011  -4.203 +0.03 +0.04    +0.209 HD
DOCKED: ENDBRANCH  36  37
DOCKED: ENDBRANCH  29  36
DOCKED: BRANCH  22  39
DOCKED: ATOM     39  C   UNL d   1     -12.109   4.214  -0.810 -0.16 +0.04    +0.052 C 
DOCKED: BRANCH  39  40
DOCKED: ATOM     40  C   UNL d   1     -12.909   3.026  -1.368 -0.12 +0.14    +0.115 C 
DOCKED: BRANCH  40  41
DOCKED: ATOM     41  C   UNL d   1     -13.483   3.252  -2.751 -0.09 +0.09    +0.139 C 
DOCKED: ATOM     42  O   UNL d   1     -13.181   2.488  -3.657 +0.05 -0.23    -0.650 OA
DOCKED: BRANCH  41  43
DOCKED: ATOM     43  O   UNL d   1     -14.389   4.226  -2.993 +0.02 -0.47    -0.776 OA
DOCKED: ATOM     44  H   UNL d   1     -15.321   4.138  -2.755 +0.02 +0.13    +0.167 HD
DOCKED: ENDBRANCH  41  43
DOCKED: ENDBRANCH  40  41
DOCKED: ENDBRANCH  39  40
DOCKED: ENDBRANCH  22  39
DOCKED: BRANCH  12  45
DOCKED: ATOM     45  C   UNL d   1     -14.780  13.289  -6.861 -0.05 -0.00    +0.004 C 
DOCKED: ATOM     46  C   UNL d   1     -13.842  14.230  -6.928 -0.08 -0.00    +0.012 C 
DOCKED: ENDBRANCH  12  45
DOCKED: BRANCH  17  47
DOCKED: ATOM     47  C   UNL d   1      -9.243   7.786  -7.230 -0.24 -0.00    +0.004 C 
DOCKED: ATOM     48  C   UNL d   1      -9.226   7.332  -8.485 -0.32 -0.01    +0.012 C 
DOCKED: ENDBRANCH  17  47
DOCKED: TORSDOF 12
DOCKED: TER
DOCKED: ENDMDL
________________________________________________________________________________


	BEGINNING GENETIC ALGORITHM DOCKING 37 of 100
Run: 37 Seed: 16378196 1119209440 [ Run 37 of 100 GA/GALS ]
Beginning LAMARCKIAN GENETIC ALGORITHM (LGA), with a maximum of 25000000 energy evaluations.

Final-Value: -12.307


	FINAL GENETIC ALGORITHM DOCKED STATE
	_______________________________________________


Detailed state:  trans -12.230 -0.039 1.063 quatxyzw 0.258369 0.160524 -0.077843 0.949430 center 8.781 34.984 -0.736 ntor 12 0.4604 -168.4540 -65.2385 -123.5554 45.3758 -141.7427 -155.5588 133.4067 87.7452 -83.1513 -157.6243 106.8695
State:	-12.230  -0.039   1.063   0.823  0.511 -0.248 36.598      0.46 -168.45  -65.24 -123.56   45.38 -141.74 -155.56  133.41   87.75  -83.15 -157.62  106.87

DOCKED: MODEL       37
DOCKED: USER    Run = 37
DOCKED: USER    DPF = D:/Protein_go_brrr/autodock/final/AncMH_nat/heme_Co/dock.dpf
DOCKED: USER  
DOCKED: USER    Estimated Free Energy of Binding    =   -8.26 kcal/mol  [=(1)+(2)+(3)-(4)]
DOCKED: USER    Estimated Inhibition Constant, Ki   =  881.78 nM (nanomolar)  [Temperature = 298.15 K]
DOCKED: USER    
DOCKED: USER    (1) Final Intermolecular Energy     =  -11.84 kcal/mol
DOCKED: USER        vdW + Hbond + desolv Energy     =   -8.78 kcal/mol
DOCKED: USER        Electrostatic Energy            =   -3.06 kcal/mol
DOCKED: USER    (2) Final Total Internal Energy     =   -0.47 kcal/mol
DOCKED: USER    (3) Torsional Free Energy           =   +3.58 kcal/mol
DOCKED: USER    (4) Unbound System's Energy  [=(2)] =   -0.47 kcal/mol
DOCKED: USER    
DOCKED: USER    
DOCKED: USER    NEWDPF move heme_Co_opt.pdbqt
DOCKED: USER    NEWDPF about 8.781000 34.984000 -0.736000
DOCKED: USER    NEWDPF tran0 -12.229631 -0.039129 1.062507
DOCKED: USER    NEWDPF quaternion0 0.258369 0.160524 -0.077843 0.949430
DOCKED: USER    NEWDPF axisangle0 0.822889 0.511260 -0.247926 36.598221
DOCKED: USER    NEWDPF quat0 0.822889 0.511260 -0.247926 36.598221
DOCKED: USER    NEWDPF dihe0 0.46 -168.45 -65.24 -123.56 45.38 -141.74 -155.56 133.41 87.75 -83.15 -157.62 106.87 
DOCKED: USER  keepresnum = 1 
DOCKED: USER  
DOCKED: REMARK  12 active torsions:
DOCKED: REMARK  status: ('A' for Active; 'I' for Inactive)
DOCKED: REMARK    1  A    between atoms: C_6  and  C_10 
DOCKED: REMARK    2  A    between atoms: C_10  and  C_11 
DOCKED: REMARK    3  A    between atoms: C_11  and  C_12 
DOCKED: REMARK    4  A    between atoms: C_12  and  O_14 
DOCKED: REMARK    5  A    between atoms: C_17  and  C_20 
DOCKED: REMARK    6  A    between atoms: C_24  and  C_27 
DOCKED: REMARK    7  A    between atoms: C_31  and  C_34 
DOCKED: REMARK    8  A    between atoms: C_34  and  C_35 
DOCKED: REMARK    9  A    between atoms: C_35  and  C_36 
DOCKED: REMARK   10  A    between atoms: C_36  and  O_38 
DOCKED: REMARK   11  A    between atoms: FE_43  and  C_44 
DOCKED: REMARK   12  A    between atoms: C_44  and  O_45 
DOCKED: USER                              x       y       z     vdW  Elec       q    Type
DOCKED: USER                           _______ _______ _______ _____ _____    ______ ____
DOCKED: ROOT
DOCKED: ATOM      1  C   UNL d   1     -13.781  -0.455  -0.399 -0.01 +0.08    +0.064 A 
DOCKED: ATOM      2  C   UNL d   1     -13.718  -0.698   4.349 +0.07 +0.03    +0.064 C 
DOCKED: ATOM      3  C   UNL d   1      -9.060   0.366   4.379 +0.15 +0.03    +0.064 A 
DOCKED: ATOM      4  C   UNL d   1      -9.186   0.999  -0.442 -0.29 +0.01    +0.064 A 
DOCKED: ATOM      5  C   UNL d   1     -14.097  -0.635   0.893 -0.19 +0.09    +0.066 A 
DOCKED: ATOM      6  C   UNL d   1     -15.417  -0.897   1.310 -0.18 -0.03    -0.021 A 
DOCKED: ATOM      7  C   UNL d   1     -15.397  -0.944   2.690 -0.18 -0.03    -0.025 A 
DOCKED: ATOM      8  C   UNL d   1     -14.064  -0.725   3.056 -0.22 +0.06    +0.066 A 
DOCKED: ATOM      9  C   UNL d   1     -16.579  -1.184   3.642 -0.13 +0.04    +0.051 C 
DOCKED: ATOM     10  C   UNL d   1     -12.369  -0.506   4.819 -0.27 +0.02    +0.066 A 
DOCKED: ATOM     11  C   UNL d   1     -11.918  -0.607   6.153 -0.37 -0.00    -0.021 A 
DOCKED: ATOM     12  C   UNL d   1     -10.555  -0.296   6.133 -0.39 +0.00    +0.000 A 
DOCKED: ATOM     13  C   UNL d   1     -10.274  -0.042   4.790 -0.19 +0.02    +0.070 A 
DOCKED: ATOM     14  C   UNL d   1     -12.730  -1.065   7.337 -0.41 +0.01    +0.052 C 
DOCKED: ATOM     15  C   UNL d   1      -8.611   0.721   3.048 -0.22 +0.02    +0.066 A 
DOCKED: ATOM     16  C   UNL d   1      -7.383   1.273   2.713 -0.33 -0.00    -0.021 A 
DOCKED: ATOM     17  C   UNL d   1      -7.415   1.460   1.324 -0.43 +0.00    +0.000 A 
DOCKED: ATOM     18  C   UNL d   1      -8.659   0.989   0.917 -0.38 +0.01    +0.070 A 
DOCKED: ATOM     19  C   UNL d   1      -6.270   1.592   3.687 -0.38 +0.00    +0.052 C 
DOCKED: ATOM     20  C   UNL d   1     -10.424   0.626  -0.849 -0.27 +0.02    +0.066 A 
DOCKED: ATOM     21  C   UNL d   1     -10.827   0.715  -2.180 -0.24 -0.01    -0.025 A 
DOCKED: ATOM     22  C   UNL d   1     -12.138   0.275  -2.202 -0.18 -0.01    -0.021 A 
DOCKED: ATOM     23  C   UNL d   1     -12.476  -0.051  -0.872 -0.15 +0.06    +0.066 A 
DOCKED: ATOM     24  C   UNL d   1     -10.010   1.213  -3.369 -0.15 -0.00    +0.051 C 
DOCKED: ATOM     25  N   UNL d   1     -13.236  -0.537   1.963 -0.17 -0.25    -0.248 N 
DOCKED: ATOM     26  N   UNL d   1     -11.358  -0.224   3.990 -0.11 -0.09    -0.248 N 
DOCKED: ATOM     27  N   UNL d   1      -9.356   0.585   1.973 -0.22 -0.07    -0.248 N 
DOCKED: ATOM     28  N   UNL d   1     -11.442   0.162  -0.049 -0.17 -0.17    -0.248 N 
DOCKED: ATOM     29 FE   UNL d   1     -11.181   0.057   1.965 -0.07 +0.00    +0.000 Fe
DOCKED: ENDROOT
DOCKED: BRANCH   6  30
DOCKED: ATOM     30  C   UNL d   1     -16.647  -1.013   0.416 -0.13 +0.06    +0.052 C 
DOCKED: BRANCH  30  31
DOCKED: ATOM     31  C   UNL d   1     -17.071   0.364  -0.095 +0.15 +0.19    +0.115 C 
DOCKED: BRANCH  31  32
DOCKED: ATOM     32  C   UNL d   1     -18.132   1.001   0.775 -0.10 +0.22    +0.139 C 
DOCKED: ATOM     33  O   UNL d   1     -17.819   1.470   1.860 -0.29 -1.36    -0.650 OA
DOCKED: BRANCH  32  34
DOCKED: ATOM     34  O   UNL d   1     -19.419   1.114   0.371 +0.01 -0.90    -0.776 OA
DOCKED: ATOM     35  H   UNL d   1     -19.740   0.851  -0.502 +0.02 +0.14    +0.167 HD
DOCKED: ENDBRANCH  32  34
DOCKED: ENDBRANCH  31  32
DOCKED: ENDBRANCH  30  31
DOCKED: ENDBRANCH   6  30
DOCKED: BRANCH  29  36
DOCKED: ATOM     36  C   UNL d   1     -11.867   2.026   2.180 -0.30 +0.16    +0.190 C 
DOCKED: BRANCH  36  37
DOCKED: ATOM     37  O   UNL d   1     -12.567   2.874   3.044 -0.25 -0.39    -0.399 OA
DOCKED: ATOM     38  H   UNL d   1     -11.908   3.118   3.753 +0.11 +0.09    +0.209 HD
DOCKED: ENDBRANCH  36  37
DOCKED: ENDBRANCH  29  36
DOCKED: BRANCH  22  39
DOCKED: ATOM     39  C   UNL d   1     -13.031   0.236  -3.428 -0.15 +0.03    +0.052 C 
DOCKED: BRANCH  39  40
DOCKED: ATOM     40  C   UNL d   1     -14.508   0.387  -3.028 -0.09 +0.08    +0.115 C 
DOCKED: BRANCH  40  41
DOCKED: ATOM     41  C   UNL d   1     -15.009   1.816  -3.017 -0.06 +0.11    +0.139 C 
DOCKED: ATOM     42  O   UNL d   1     -14.895   2.483  -1.998 -0.10 -1.05    -0.650 OA
DOCKED: BRANCH  41  43
DOCKED: ATOM     43  O   UNL d   1     -15.500   2.405  -4.130 +0.03 -0.35    -0.776 OA
DOCKED: ATOM     44  H   UNL d   1     -14.981   2.502  -4.939 +0.01 +0.04    +0.167 HD
DOCKED: ENDBRANCH  41  43
DOCKED: ENDBRANCH  40  41
DOCKED: ENDBRANCH  39  40
DOCKED: ENDBRANCH  22  39
DOCKED: BRANCH  12  45
DOCKED: ATOM     45  C   UNL d   1      -9.489  -0.228   7.218 -0.23 +0.00    +0.004 C 
DOCKED: ATOM     46  C   UNL d   1      -8.586   0.711   7.487 -0.48 +0.00    +0.012 C 
DOCKED: ENDBRANCH  12  45
DOCKED: BRANCH  17  47
DOCKED: ATOM     47  C   UNL d   1      -6.399   2.077   0.420 -0.30 +0.00    +0.004 C 
DOCKED: ATOM     48  C   UNL d   1      -5.098   2.150   0.714 -0.54 -0.00    +0.012 C 
DOCKED: ENDBRANCH  17  47
DOCKED: TORSDOF 12
DOCKED: TER
DOCKED: ENDMDL
________________________________________________________________________________


	BEGINNING GENETIC ALGORITHM DOCKING 38 of 100
Run: 38 Seed: 1399095253 22764333 [ Run 38 of 100 GA/GALS ]
Beginning LAMARCKIAN GENETIC ALGORITHM (LGA), with a maximum of 25000000 energy evaluations.

Final-Value: -8.965


	FINAL GENETIC ALGORITHM DOCKED STATE
	_______________________________________________


Detailed state:  trans -3.029 17.914 14.573 quatxyzw -0.129098 0.180445 0.828296 0.514489 center 8.781 34.984 -0.736 ntor 12 -167.0282 117.9467 43.1669 51.9730 -89.4150 139.9216 30.9585 -173.9149 -180.0000 150.7799 -173.8728 29.7991
State:	 -3.029  17.914  14.573  -0.151  0.210  0.966 118.073   -167.03  117.95   43.17   51.97  -89.41  139.92   30.96 -173.91 -180.00  150.78 -173.87   29.80

DOCKED: MODEL       38
DOCKED: USER    Run = 38
DOCKED: USER    DPF = D:/Protein_go_brrr/autodock/final/AncMH_nat/heme_Co/dock.dpf
DOCKED: USER  
DOCKED: USER    Estimated Free Energy of Binding    =   -3.21 kcal/mol  [=(1)+(2)+(3)-(4)]
DOCKED: USER    Estimated Inhibition Constant, Ki   =    4.40 mM (millimolar)  [Temperature = 298.15 K]
DOCKED: USER    
DOCKED: USER    (1) Final Intermolecular Energy     =   -6.79 kcal/mol
DOCKED: USER        vdW + Hbond + desolv Energy     =   -4.91 kcal/mol
DOCKED: USER        Electrostatic Energy            =   -1.88 kcal/mol
DOCKED: USER    (2) Final Total Internal Energy     =   -2.17 kcal/mol
DOCKED: USER    (3) Torsional Free Energy           =   +3.58 kcal/mol
DOCKED: USER    (4) Unbound System's Energy  [=(2)] =   -2.17 kcal/mol
DOCKED: USER    
DOCKED: USER    
DOCKED: USER    NEWDPF move heme_Co_opt.pdbqt
DOCKED: USER    NEWDPF about 8.781000 34.984000 -0.736000
DOCKED: USER    NEWDPF tran0 -3.028534 17.913919 14.573237
DOCKED: USER    NEWDPF quaternion0 -0.129098 0.180445 0.828296 0.514489
DOCKED: USER    NEWDPF axisangle0 -0.150552 0.210432 0.965946 118.073406
DOCKED: USER    NEWDPF quat0 -0.150552 0.210432 0.965946 118.073406
DOCKED: USER    NEWDPF dihe0 -167.03 117.95 43.17 51.97 -89.41 139.92 30.96 -173.91 -180.00 150.78 -173.87 29.80 
DOCKED: USER  keepresnum = 1 
DOCKED: USER  
DOCKED: REMARK  12 active torsions:
DOCKED: REMARK  status: ('A' for Active; 'I' for Inactive)
DOCKED: REMARK    1  A    between atoms: C_6  and  C_10 
DOCKED: REMARK    2  A    between atoms: C_10  and  C_11 
DOCKED: REMARK    3  A    between atoms: C_11  and  C_12 
DOCKED: REMARK    4  A    between atoms: C_12  and  O_14 
DOCKED: REMARK    5  A    between atoms: C_17  and  C_20 
DOCKED: REMARK    6  A    between atoms: C_24  and  C_27 
DOCKED: REMARK    7  A    between atoms: C_31  and  C_34 
DOCKED: REMARK    8  A    between atoms: C_34  and  C_35 
DOCKED: REMARK    9  A    between atoms: C_35  and  C_36 
DOCKED: REMARK   10  A    between atoms: C_36  and  O_38 
DOCKED: REMARK   11  A    between atoms: FE_43  and  C_44 
DOCKED: REMARK   12  A    between atoms: C_44  and  O_45 
DOCKED: USER                              x       y       z     vdW  Elec       q    Type
DOCKED: USER                           _______ _______ _______ _____ _____    ______ ____
DOCKED: ROOT
DOCKED: ATOM      1  C   UNL d   1      -1.441  19.310  14.077 -0.07 +0.04    +0.064 A 
DOCKED: ATOM      2  C   UNL d   1      -5.627  19.877  16.260 -0.08 +0.00    +0.064 C 
DOCKED: ATOM      3  C   UNL d   1      -6.734  15.308  15.405 -0.20 -0.02    +0.064 A 
DOCKED: ATOM      4  C   UNL d   1      -2.308  14.603  13.513 -0.17 -0.00    +0.064 A 
DOCKED: ATOM      5  C   UNL d   1      -2.518  19.810  14.704 -0.08 +0.03    +0.066 A 
DOCKED: ATOM      6  C   UNL d   1      -2.553  21.131  15.192 -0.04 -0.01    -0.021 A 
DOCKED: ATOM      7  C   UNL d   1      -3.761  21.283  15.844 -0.03 -0.00    -0.025 A 
DOCKED: ATOM      8  C   UNL d   1      -4.417  20.055  15.713 -0.08 +0.01    +0.066 A 
DOCKED: ATOM      9  C   UNL d   1      -4.290  22.530  16.569 -0.01 +0.00    +0.051 C 
DOCKED: ATOM     10  C   UNL d   1      -6.389  18.658  16.154 -0.13 -0.01    +0.066 A 
DOCKED: ATOM     11  C   UNL d   1      -7.719  18.455  16.584 -0.14 +0.01    -0.021 A 
DOCKED: ATOM     12  C   UNL d   1      -8.018  17.116  16.319 -0.21 -0.00    +0.000 A 
DOCKED: ATOM     13  C   UNL d   1      -6.857  16.606  15.738 -0.20 -0.02    +0.070 A 
DOCKED: ATOM     14  C   UNL d   1      -8.654  19.508  17.121 -0.09 -0.02    +0.052 C 
DOCKED: ATOM     15  C   UNL d   1      -5.596  14.605  14.847 -0.25 -0.01    +0.066 A 
DOCKED: ATOM     16  C   UNL d   1      -5.485  13.235  14.661 -0.29 +0.00    -0.021 A 
DOCKED: ATOM     17  C   UNL d   1      -4.210  13.026  14.118 -0.30 -0.00    +0.000 A 
DOCKED: ATOM     18  C   UNL d   1      -3.647  14.292  13.999 -0.20 -0.00    +0.070 A 
DOCKED: ATOM     19  C   UNL d   1      -6.552  12.216  14.995 -0.29 -0.01    +0.052 C 
DOCKED: ATOM     20  C   UNL d   1      -1.709  15.817  13.469 -0.11 +0.02    +0.066 A 
DOCKED: ATOM     21  C   UNL d   1      -0.403  15.985  13.014 -0.09 -0.00    -0.025 A 
DOCKED: ATOM     22  C   UNL d   1      -0.135  17.336  13.138 -0.06 -0.01    -0.021 A 
DOCKED: ATOM     23  C   UNL d   1      -1.297  17.928  13.678 -0.04 +0.05    +0.066 A 
DOCKED: ATOM     24  C   UNL d   1       0.552  14.908  12.505 -0.10 -0.01    +0.051 C 
DOCKED: ATOM     25  N   UNL d   1      -3.674  19.125  15.006 -0.09 -0.10    -0.248 N 
DOCKED: ATOM     26  N   UNL d   1      -5.893  17.553  15.587 -0.12 +0.01    -0.248 N 
DOCKED: ATOM     27  N   UNL d   1      -4.489  15.206  14.470 -0.12 -0.01    -0.248 N 
DOCKED: ATOM     28  N   UNL d   1      -2.251  17.012  13.882 -0.04 -0.15    -0.248 N 
DOCKED: ATOM     29 FE   UNL d   1      -4.102  17.049  14.720 -0.04 +0.00    +0.000 Fe
DOCKED: ENDROOT
DOCKED: BRANCH   6  30
DOCKED: ATOM     30  C   UNL d   1      -1.435  22.164  15.100 -0.01 +0.01    +0.052 C 
DOCKED: BRANCH  30  31
DOCKED: ATOM     31  C   UNL d   1      -0.515  22.070  16.317 +0.00 +0.01    +0.115 C 
DOCKED: BRANCH  31  32
DOCKED: ATOM     32  C   UNL d   1      -0.973  21.021  17.307 +0.00 +0.01    +0.139 C 
DOCKED: ATOM     33  O   UNL d   1      -1.614  21.362  18.290 +0.00 -0.02    -0.650 OA
DOCKED: BRANCH  32  34
DOCKED: ATOM     34  O   UNL d   1      -0.738  19.702  17.116 +0.01 -0.06    -0.776 OA
DOCKED: ATOM     35  H   UNL d   1      -1.118  18.998  17.659 +0.00 +0.01    +0.167 HD
DOCKED: ENDBRANCH  32  34
DOCKED: ENDBRANCH  31  32
DOCKED: ENDBRANCH  30  31
DOCKED: ENDBRANCH   6  30
DOCKED: BRANCH  29  36
DOCKED: ATOM     36  C   UNL d   1      -3.274  16.732  16.620 -0.03 +0.01    +0.190 C 
DOCKED: BRANCH  36  37
DOCKED: ATOM     37  O   UNL d   1      -2.492  17.337  17.609 +0.00 -0.01    -0.399 OA
DOCKED: ATOM     38  H   UNL d   1      -2.334  18.265  17.280 +0.01 +0.01    +0.209 HD
DOCKED: ENDBRANCH  36  37
DOCKED: ENDBRANCH  29  36
DOCKED: BRANCH  22  39
DOCKED: ATOM     39  C   UNL d   1       1.188  18.004  12.815 -0.02 +0.02    +0.052 C 
DOCKED: BRANCH  39  40
DOCKED: ATOM     40  C   UNL d   1       0.969  19.243  11.932 -0.03 +0.05    +0.115 C 
DOCKED: BRANCH  40  41
DOCKED: ATOM     41  C   UNL d   1      -0.168  19.111  10.940 +0.11 +0.16    +0.139 C 
DOCKED: ATOM     42  O   UNL d   1      -0.381  18.027  10.415 -0.43 -0.83    -0.650 OA
DOCKED: BRANCH  41  43
DOCKED: ATOM     43  O   UNL d   1      -1.010  20.136  10.685 +0.11 -1.17    -0.776 OA
DOCKED: ATOM     44  H   UNL d   1      -0.697  21.026  10.477 +0.01 +0.14    +0.167 HD
DOCKED: ENDBRANCH  41  43
DOCKED: ENDBRANCH  40  41
DOCKED: ENDBRANCH  39  40
DOCKED: ENDBRANCH  22  39
DOCKED: BRANCH  12  45
DOCKED: ATOM     45  C   UNL d   1      -9.265  16.269  16.530 -0.15 -0.00    +0.004 C 
DOCKED: ATOM     46  C   UNL d   1     -10.547  16.543  16.302 -0.19 -0.01    +0.012 C 
DOCKED: ENDBRANCH  12  45
DOCKED: BRANCH  17  47
DOCKED: ATOM     47  C   UNL d   1      -3.517  11.749  13.773 -0.37 -0.00    +0.004 C 
DOCKED: ATOM     48  C   UNL d   1      -2.458  11.281  14.439 -0.30 -0.00    +0.012 C 
DOCKED: ENDBRANCH  17  47
DOCKED: TORSDOF 12
DOCKED: TER
DOCKED: ENDMDL
________________________________________________________________________________


	BEGINNING GENETIC ALGORITHM DOCKING 39 of 100
Run: 39 Seed: 1236733504 1954098530 [ Run 39 of 100 GA/GALS ]
Beginning LAMARCKIAN GENETIC ALGORITHM (LGA), with a maximum of 25000000 energy evaluations.

Final-Value: -11.457


	FINAL GENETIC ALGORITHM DOCKED STATE
	_______________________________________________


Detailed state:  trans -13.742 8.154 -3.395 quatxyzw 0.855653 0.118558 -0.455216 0.215826 center 8.781 34.984 -0.736 ntor 12 -125.2471 94.0385 -69.3202 118.1958 -44.4865 151.2533 -40.4412 166.5668 -83.4826 40.5726 168.2112 -175.0183
State:	-13.742   8.154  -3.395   0.876  0.121 -0.466 155.072   -125.25   94.04  -69.32  118.20  -44.49  151.25  -40.44  166.57  -83.48   40.57  168.21 -175.02

DOCKED: MODEL       39
DOCKED: USER    Run = 39
DOCKED: USER    DPF = D:/Protein_go_brrr/autodock/final/AncMH_nat/heme_Co/dock.dpf
DOCKED: USER  
DOCKED: USER    Estimated Free Energy of Binding    =   -6.20 kcal/mol  [=(1)+(2)+(3)-(4)]
DOCKED: USER    Estimated Inhibition Constant, Ki   =   28.61 uM (micromolar)  [Temperature = 298.15 K]
DOCKED: USER    
DOCKED: USER    (1) Final Intermolecular Energy     =   -9.78 kcal/mol
DOCKED: USER        vdW + Hbond + desolv Energy     =   -6.61 kcal/mol
DOCKED: USER        Electrostatic Energy            =   -3.17 kcal/mol
DOCKED: USER    (2) Final Total Internal Energy     =   -1.68 kcal/mol
DOCKED: USER    (3) Torsional Free Energy           =   +3.58 kcal/mol
DOCKED: USER    (4) Unbound System's Energy  [=(2)] =   -1.68 kcal/mol
DOCKED: USER    
DOCKED: USER    
DOCKED: USER    NEWDPF move heme_Co_opt.pdbqt
DOCKED: USER    NEWDPF about 8.781000 34.984000 -0.736000
DOCKED: USER    NEWDPF tran0 -13.741516 8.153851 -3.395273
DOCKED: USER    NEWDPF quaternion0 0.855653 0.118558 -0.455216 0.215826
DOCKED: USER    NEWDPF axisangle0 0.876306 0.121419 -0.466204 155.072022
DOCKED: USER    NEWDPF quat0 0.876306 0.121419 -0.466204 155.072022
DOCKED: USER    NEWDPF dihe0 -125.25 94.04 -69.32 118.20 -44.49 151.25 -40.44 166.57 -83.48 40.57 168.21 -175.02 
DOCKED: USER  keepresnum = 1 
DOCKED: USER  
DOCKED: REMARK  12 active torsions:
DOCKED: REMARK  status: ('A' for Active; 'I' for Inactive)
DOCKED: REMARK    1  A    between atoms: C_6  and  C_10 
DOCKED: REMARK    2  A    between atoms: C_10  and  C_11 
DOCKED: REMARK    3  A    between atoms: C_11  and  C_12 
DOCKED: REMARK    4  A    between atoms: C_12  and  O_14 
DOCKED: REMARK    5  A    between atoms: C_17  and  C_20 
DOCKED: REMARK    6  A    between atoms: C_24  and  C_27 
DOCKED: REMARK    7  A    between atoms: C_31  and  C_34 
DOCKED: REMARK    8  A    between atoms: C_34  and  C_35 
DOCKED: REMARK    9  A    between atoms: C_35  and  C_36 
DOCKED: REMARK   10  A    between atoms: C_36  and  O_38 
DOCKED: REMARK   11  A    between atoms: FE_43  and  C_44 
DOCKED: REMARK   12  A    between atoms: C_44  and  O_45 
DOCKED: USER                              x       y       z     vdW  Elec       q    Type
DOCKED: USER                           _______ _______ _______ _____ _____    ______ ____
DOCKED: ROOT
DOCKED: ATOM      1  C   UNL d   1     -14.111   6.720  -1.807 -0.24 +0.02    +0.064 A 
DOCKED: ATOM      2  C   UNL d   1     -16.527  10.537  -3.292 -0.09 +0.00    +0.064 C 
DOCKED: ATOM      3  C   UNL d   1     -13.048  11.577  -6.398 -0.16 -0.01    +0.064 A 
DOCKED: ATOM      4  C   UNL d   1     -10.744   7.473  -5.170 -0.27 -0.02    +0.064 A 
DOCKED: ATOM      5  C   UNL d   1     -15.010   7.707  -1.959 -0.18 +0.02    +0.066 A 
DOCKED: ATOM      6  C   UNL d   1     -16.232   7.719  -1.259 -0.17 -0.01    -0.021 A 
DOCKED: ATOM      7  C   UNL d   1     -16.939   8.817  -1.710 -0.10 -0.00    -0.025 A 
DOCKED: ATOM      8  C   UNL d   1     -16.112   9.435  -2.654 -0.08 +0.00    +0.066 A 
DOCKED: ATOM      9  C   UNL d   1     -18.340   9.277  -1.280 -0.05 +0.00    +0.051 C 
DOCKED: ATOM     10  C   UNL d   1     -15.736  11.257  -4.259 -0.09 -0.00    +0.066 A 
DOCKED: ATOM     11  C   UNL d   1     -16.057  12.494  -4.859 -0.07 +0.00    -0.021 A 
DOCKED: ATOM     12  C   UNL d   1     -15.023  12.775  -5.757 -0.08 -0.00    +0.000 A 
DOCKED: ATOM     13  C   UNL d   1     -14.145  11.699  -5.630 -0.12 -0.00    +0.070 A 
DOCKED: ATOM     14  C   UNL d   1     -17.228  13.377  -4.511 -0.03 -0.00    +0.052 C 
DOCKED: ATOM     15  C   UNL d   1     -12.066  10.511  -6.437 -0.21 -0.01    +0.066 A 
DOCKED: ATOM     16  C   UNL d   1     -11.035  10.375  -7.356 -0.26 +0.00    -0.021 A 
DOCKED: ATOM     17  C   UNL d   1     -10.369   9.191  -7.007 -0.29 -0.00    +0.000 A 
DOCKED: ATOM     18  C   UNL d   1     -11.039   8.706  -5.889 -0.28 -0.02    +0.070 A 
DOCKED: ATOM     19  C   UNL d   1     -10.735  11.334  -8.486 -0.25 -0.01    +0.052 C 
DOCKED: ATOM     20  C   UNL d   1     -11.433   6.937  -4.134 -0.23 -0.01    +0.066 A 
DOCKED: ATOM     21  C   UNL d   1     -11.072   5.725  -3.549 -0.23 +0.00    -0.025 A 
DOCKED: ATOM     22  C   UNL d   1     -12.008   5.497  -2.557 -0.22 -0.00    -0.021 A 
DOCKED: ATOM     23  C   UNL d   1     -12.908   6.584  -2.595 -0.23 +0.01    +0.066 A 
DOCKED: ATOM     24  C   UNL d   1      -9.905   4.818  -3.929 -0.34 -0.02    +0.051 C 
DOCKED: ATOM     25  N   UNL d   1     -14.908   8.773  -2.824 +0.11 -0.03    -0.248 N 
DOCKED: ATOM     26  N   UNL d   1     -14.549  10.810  -4.683 -0.05 -0.00    -0.248 N 
DOCKED: ATOM     27  N   UNL d   1     -12.062   9.501  -5.596 -0.13 +0.03    -0.248 N 
DOCKED: ATOM     28  N   UNL d   1     -12.564   7.456  -3.549 -0.14 -0.00    -0.248 N 
DOCKED: ATOM     29 FE   UNL d   1     -13.399   9.156  -4.291 -0.05 +0.00    +0.000 Fe
DOCKED: ENDROOT
DOCKED: BRANCH   6  30
DOCKED: ATOM     30  C   UNL d   1     -16.721   6.672  -0.263 -0.19 +0.03    +0.052 C 
DOCKED: BRANCH  30  31
DOCKED: ATOM     31  C   UNL d   1     -17.845   5.835  -0.873 -0.10 +0.08    +0.115 C 
DOCKED: BRANCH  31  32
DOCKED: ATOM     32  C   UNL d   1     -17.336   4.554  -1.498 -0.08 +0.14    +0.139 C 
DOCKED: ATOM     33  O   UNL d   1     -18.091   3.878  -2.181 +0.00 -0.46    -0.650 OA
DOCKED: BRANCH  32  34
DOCKED: ATOM     34  O   UNL d   1     -16.051   4.152  -1.366 -0.49 -1.47    -0.776 OA
DOCKED: ATOM     35  H   UNL d   1     -15.485   3.888  -2.105 +0.01 +0.22    +0.167 HD
DOCKED: ENDBRANCH  32  34
DOCKED: ENDBRANCH  31  32
DOCKED: ENDBRANCH  30  31
DOCKED: ENDBRANCH   6  30
DOCKED: BRANCH  29  36
DOCKED: ATOM     36  C   UNL d   1     -14.565   8.031  -5.621 -0.04 -0.00    +0.190 C 
DOCKED: BRANCH  36  37
DOCKED: ATOM     37  O   UNL d   1     -15.730   7.263  -5.705 -0.00 -0.02    -0.399 OA
DOCKED: ATOM     38  H   UNL d   1     -15.941   7.012  -4.763 +0.02 +0.02    +0.209 HD
DOCKED: ENDBRANCH  36  37
DOCKED: ENDBRANCH  29  36
DOCKED: BRANCH  22  39
DOCKED: ATOM     39  C   UNL d   1     -12.068   4.268  -1.670 -0.22 +0.03    +0.052 C 
DOCKED: BRANCH  39  40
DOCKED: ATOM     40  C   UNL d   1     -12.580   3.052  -2.460 -0.13 +0.06    +0.115 C 
DOCKED: BRANCH  40  41
DOCKED: ATOM     41  C   UNL d   1     -13.436   2.098  -1.653 +0.07 +0.19    +0.139 C 
DOCKED: ATOM     42  O   UNL d   1     -12.991   1.625  -0.617 -0.24 -1.10    -0.650 OA
DOCKED: BRANCH  41  43
DOCKED: ATOM     43  O   UNL d   1     -14.713   1.823  -2.001 +0.02 -1.12    -0.776 OA
DOCKED: ATOM     44  H   UNL d   1     -15.404   2.498  -2.016 +0.01 +0.27    +0.167 HD
DOCKED: ENDBRANCH  41  43
DOCKED: ENDBRANCH  40  41
DOCKED: ENDBRANCH  39  40
DOCKED: ENDBRANCH  22  39
DOCKED: BRANCH  12  45
DOCKED: ATOM     45  C   UNL d   1     -14.757  13.940  -6.701 -0.05 -0.00    +0.004 C 
DOCKED: ATOM     46  C   UNL d   1     -13.840  14.903  -6.651 -0.08 +0.00    +0.012 C 
DOCKED: ENDBRANCH  12  45
DOCKED: BRANCH  17  47
DOCKED: ATOM     47  C   UNL d   1      -9.223   8.509  -7.678 -0.22 -0.00    +0.004 C 
DOCKED: ATOM     48  C   UNL d   1      -9.298   7.964  -8.895 -0.37 -0.01    +0.012 C 
DOCKED: ENDBRANCH  17  47
DOCKED: TORSDOF 12
DOCKED: TER
DOCKED: ENDMDL
________________________________________________________________________________


	BEGINNING GENETIC ALGORITHM DOCKING 40 of 100
Run: 40 Seed: 236645806 1983324544 [ Run 40 of 100 GA/GALS ]
Beginning LAMARCKIAN GENETIC ALGORITHM (LGA), with a maximum of 25000000 energy evaluations.

Final-Value: -10.386


	FINAL GENETIC ALGORITHM DOCKED STATE
	_______________________________________________


Detailed state:  trans -12.153 -8.651 18.860 quatxyzw -0.751542 0.339045 -0.075569 -0.560824 center 8.781 34.984 -0.736 ntor 12 -159.6922 122.5606 -8.4569 51.8259 143.0358 125.9638 38.1711 -154.8023 162.9015 -63.3419 -168.9999 29.6749
State:	-12.153  -8.651  18.860  -0.908  0.410 -0.091 -111.774   -159.69  122.56   -8.46   51.83  143.04  125.96   38.17 -154.80  162.90  -63.34 -169.00   29.67

DOCKED: MODEL       40
DOCKED: USER    Run = 40
DOCKED: USER    DPF = D:/Protein_go_brrr/autodock/final/AncMH_nat/heme_Co/dock.dpf
DOCKED: USER  
DOCKED: USER    Estimated Free Energy of Binding    =   -4.66 kcal/mol  [=(1)+(2)+(3)-(4)]
DOCKED: USER    Estimated Inhibition Constant, Ki   =  384.34 uM (micromolar)  [Temperature = 298.15 K]
DOCKED: USER    
DOCKED: USER    (1) Final Intermolecular Energy     =   -8.24 kcal/mol
DOCKED: USER        vdW + Hbond + desolv Energy     =   -6.36 kcal/mol
DOCKED: USER        Electrostatic Energy            =   -1.88 kcal/mol
DOCKED: USER    (2) Final Total Internal Energy     =   -2.15 kcal/mol
DOCKED: USER    (3) Torsional Free Energy           =   +3.58 kcal/mol
DOCKED: USER    (4) Unbound System's Energy  [=(2)] =   -2.15 kcal/mol
DOCKED: USER    
DOCKED: USER    
DOCKED: USER    NEWDPF move heme_Co_opt.pdbqt
DOCKED: USER    NEWDPF about 8.781000 34.984000 -0.736000
DOCKED: USER    NEWDPF tran0 -12.152842 -8.650785 18.859878
DOCKED: USER    NEWDPF quaternion0 -0.751542 0.339045 -0.075569 -0.560824
DOCKED: USER    NEWDPF axisangle0 -0.907730 0.409506 -0.091274 -111.774460
DOCKED: USER    NEWDPF quat0 -0.907730 0.409506 -0.091274 -111.774460
DOCKED: USER    NEWDPF dihe0 -159.69 122.56 -8.46 51.83 143.04 125.96 38.17 -154.80 162.90 -63.34 -169.00 29.67 
DOCKED: USER  keepresnum = 1 
DOCKED: USER  
DOCKED: REMARK  12 active torsions:
DOCKED: REMARK  status: ('A' for Active; 'I' for Inactive)
DOCKED: REMARK    1  A    between atoms: C_6  and  C_10 
DOCKED: REMARK    2  A    between atoms: C_10  and  C_11 
DOCKED: REMARK    3  A    between atoms: C_11  and  C_12 
DOCKED: REMARK    4  A    between atoms: C_12  and  O_14 
DOCKED: REMARK    5  A    between atoms: C_17  and  C_20 
DOCKED: REMARK    6  A    between atoms: C_24  and  C_27 
DOCKED: REMARK    7  A    between atoms: C_31  and  C_34 
DOCKED: REMARK    8  A    between atoms: C_34  and  C_35 
DOCKED: REMARK    9  A    between atoms: C_35  and  C_36 
DOCKED: REMARK   10  A    between atoms: C_36  and  O_38 
DOCKED: REMARK   11  A    between atoms: FE_43  and  C_44 
DOCKED: REMARK   12  A    between atoms: C_44  and  O_45 
DOCKED: USER                              x       y       z     vdW  Elec       q    Type
DOCKED: USER                           _______ _______ _______ _____ _____    ______ ____
DOCKED: ROOT
DOCKED: ATOM      1  C   UNL d   1     -14.253  -8.244  19.235 -0.11 +0.04    +0.064 A 
DOCKED: ATOM      2  C   UNL d   1     -10.323  -5.660  19.935 -0.17 +0.00    +0.064 C 
DOCKED: ATOM      3  C   UNL d   1      -7.609  -9.347  18.567 -0.20 +0.00    +0.064 A 
DOCKED: ATOM      4  C   UNL d   1     -11.619 -11.876  17.477 -0.16 +0.01    +0.064 A 
DOCKED: ATOM      5  C   UNL d   1     -13.377  -7.279  19.562 -0.09 +0.03    +0.066 A 
DOCKED: ATOM      6  C   UNL d   1     -13.794  -5.992  19.952 -0.08 -0.01    -0.021 A 
DOCKED: ATOM      7  C   UNL d   1     -12.650  -5.240  20.132 -0.10 -0.00    -0.025 A 
DOCKED: ATOM      8  C   UNL d   1     -11.584  -6.104  19.860 -0.11 +0.01    +0.066 A 
DOCKED: ATOM      9  C   UNL d   1     -12.548  -3.763  20.542 -0.12 +0.00    +0.051 C 
DOCKED: ATOM     10  C   UNL d   1      -9.162  -6.482  19.699 -0.18 +0.00    +0.066 A 
DOCKED: ATOM     11  C   UNL d   1      -7.814  -6.115  19.899 -0.22 +0.00    -0.021 A 
DOCKED: ATOM     12  C   UNL d   1      -7.044  -7.210  19.496 -0.25 -0.00    +0.000 A 
DOCKED: ATOM     13  C   UNL d   1      -7.978  -8.166  19.093 -0.20 -0.00    +0.070 A 
DOCKED: ATOM     14  C   UNL d   1      -7.320  -4.836  20.524 -0.20 -0.00    +0.052 C 
DOCKED: ATOM     15  C   UNL d   1      -8.435 -10.423  18.054 -0.14 +0.01    +0.066 A 
DOCKED: ATOM     16  C   UNL d   1      -7.990 -11.557  17.389 -0.18 -0.01    -0.021 A 
DOCKED: ATOM     17  C   UNL d   1      -9.143 -12.288  17.071 -0.21 +0.00    +0.000 A 
DOCKED: ATOM     18  C   UNL d   1     -10.203 -11.548  17.583 -0.15 +0.01    +0.070 A 
DOCKED: ATOM     19  C   UNL d   1      -6.544 -11.889  17.093 -0.24 +0.01    +0.052 C 
DOCKED: ATOM     20  C   UNL d   1     -12.672 -11.131  17.890 -0.17 +0.01    +0.066 A 
DOCKED: ATOM     21  C   UNL d   1     -13.991 -11.536  17.700 -0.17 -0.00    -0.025 A 
DOCKED: ATOM     22  C   UNL d   1     -14.772 -10.522  18.223 -0.13 -0.01    -0.021 A 
DOCKED: ATOM     23  C   UNL d   1     -13.884  -9.535  18.700 -0.13 +0.03    +0.066 A 
DOCKED: ATOM     24  C   UNL d   1     -14.484 -12.818  17.034 -0.17 -0.02    +0.051 C 
DOCKED: ATOM     25  N   UNL d   1     -12.005  -7.376  19.510 -0.04 -0.06    -0.248 N 
DOCKED: ATOM     26  N   UNL d   1      -9.259  -7.745  19.270 -0.07 -0.01    -0.248 N 
DOCKED: ATOM     27  N   UNL d   1      -9.747 -10.429  18.135 -0.05 -0.04    -0.248 N 
DOCKED: ATOM     28  N   UNL d   1     -12.611  -9.898  18.498 -0.08 -0.07    -0.248 N 
DOCKED: ATOM     29 FE   UNL d   1     -10.812  -8.995  18.781 -0.03 +0.00    +0.000 Fe
DOCKED: ENDROOT
DOCKED: BRANCH   6  30
DOCKED: ATOM     30  C   UNL d   1     -15.232  -5.496  20.063 -0.07 +0.02    +0.052 C 
DOCKED: BRANCH  30  31
DOCKED: ATOM     31  C   UNL d   1     -15.741  -5.017  18.704 -0.04 +0.11    +0.115 C 
DOCKED: BRANCH  31  32
DOCKED: ATOM     32  C   UNL d   1     -14.615  -4.719  17.738 -0.19 +0.11    +0.139 C 
DOCKED: ATOM     33  O   UNL d   1     -14.156  -3.588  17.680 -0.05 -0.22    -0.650 OA
DOCKED: BRANCH  32  34
DOCKED: ATOM     34  O   UNL d   1     -14.061  -5.680  16.963 +0.16 -0.83    -0.776 OA
DOCKED: ATOM     35  H   UNL d   1     -13.213  -5.590  16.508 -0.14 +0.11    +0.167 HD
DOCKED: ENDBRANCH  32  34
DOCKED: ENDBRANCH  31  32
DOCKED: ENDBRANCH  30  31
DOCKED: ENDBRANCH   6  30
DOCKED: BRANCH  29  36
DOCKED: ATOM     36  C   UNL d   1     -10.941  -8.093  16.893 -0.30 +0.05    +0.190 C 
DOCKED: BRANCH  36  37
DOCKED: ATOM     37  O   UNL d   1     -11.759  -7.282  16.100 -0.11 -0.15    -0.399 OA
DOCKED: ATOM     38  H   UNL d   1     -12.473  -6.957  16.716 +0.10 +0.12    +0.209 HD
DOCKED: ENDBRANCH  36  37
DOCKED: ENDBRANCH  29  36
DOCKED: BRANCH  22  39
DOCKED: ATOM     39  C   UNL d   1     -16.288 -10.480  18.203 -0.12 +0.03    +0.052 C 
DOCKED: BRANCH  39  40
DOCKED: ATOM     40  C   UNL d   1     -16.840 -10.142  19.598 -0.07 +0.05    +0.115 C 
DOCKED: BRANCH  40  41
DOCKED: ATOM     41  C   UNL d   1     -17.489  -8.777  19.699 -0.06 +0.09    +0.139 C 
DOCKED: ATOM     42  O   UNL d   1     -17.271  -7.946  18.829 -0.35 -1.08    -0.650 OA
DOCKED: BRANCH  41  43
DOCKED: ATOM     43  O   UNL d   1     -18.372  -8.481  20.678 +0.01 -0.26    -0.776 OA
DOCKED: ATOM     44  H   UNL d   1     -18.652  -9.129  21.338 +0.00 +0.03    +0.167 HD
DOCKED: ENDBRANCH  41  43
DOCKED: ENDBRANCH  40  41
DOCKED: ENDBRANCH  39  40
DOCKED: ENDBRANCH  22  39
DOCKED: BRANCH  12  45
DOCKED: ATOM     45  C   UNL d   1      -5.544  -7.469  19.462 -0.12 -0.00    +0.004 C 
DOCKED: ATOM     46  C   UNL d   1      -4.599  -7.203  20.360 -0.30 -0.00    +0.012 C 
DOCKED: ENDBRANCH  12  45
DOCKED: BRANCH  17  47
DOCKED: ATOM     47  C   UNL d   1      -9.283 -13.561  16.301 -0.34 +0.00    +0.004 C 
DOCKED: ATOM     48  C   UNL d   1      -9.838 -14.667  16.802 -0.28 -0.00    +0.012 C 
DOCKED: ENDBRANCH  17  47
DOCKED: TORSDOF 12
DOCKED: TER
DOCKED: ENDMDL
________________________________________________________________________________


	BEGINNING GENETIC ALGORITHM DOCKING 41 of 100
Run: 41 Seed: 1965294047 1437616410 [ Run 41 of 100 GA/GALS ]
Beginning LAMARCKIAN GENETIC ALGORITHM (LGA), with a maximum of 25000000 energy evaluations.

Final-Value: -13.321


	FINAL GENETIC ALGORITHM DOCKED STATE
	_______________________________________________


Detailed state:  trans -16.907 -1.586 2.052 quatxyzw 0.253619 0.071043 -0.126451 0.956368 center 8.781 34.984 -0.736 ntor 12 48.5754 125.4376 -150.3901 -96.9201 81.3025 99.3069 35.2617 109.8734 160.3954 145.4068 -159.9696 170.6889
State:	-16.907  -1.586   2.052   0.868  0.243 -0.433 33.975     48.58  125.44 -150.39  -96.92   81.30   99.31   35.26  109.87  160.40  145.41 -159.97  170.69

DOCKED: MODEL       41
DOCKED: USER    Run = 41
DOCKED: USER    DPF = D:/Protein_go_brrr/autodock/final/AncMH_nat/heme_Co/dock.dpf
DOCKED: USER  
DOCKED: USER    Estimated Free Energy of Binding    =   -5.62 kcal/mol  [=(1)+(2)+(3)-(4)]
DOCKED: USER    Estimated Inhibition Constant, Ki   =   75.52 uM (micromolar)  [Temperature = 298.15 K]
DOCKED: USER    
DOCKED: USER    (1) Final Intermolecular Energy     =   -9.20 kcal/mol
DOCKED: USER        vdW + Hbond + desolv Energy     =   -6.16 kcal/mol
DOCKED: USER        Electrostatic Energy            =   -3.05 kcal/mol
DOCKED: USER    (2) Final Total Internal Energy     =   -4.12 kcal/mol
DOCKED: USER    (3) Torsional Free Energy           =   +3.58 kcal/mol
DOCKED: USER    (4) Unbound System's Energy  [=(2)] =   -4.12 kcal/mol
DOCKED: USER    
DOCKED: USER    
DOCKED: USER    NEWDPF move heme_Co_opt.pdbqt
DOCKED: USER    NEWDPF about 8.781000 34.984000 -0.736000
DOCKED: USER    NEWDPF tran0 -16.907007 -1.586348 2.052167
DOCKED: USER    NEWDPF quaternion0 0.253619 0.071043 -0.126451 0.956368
DOCKED: USER    NEWDPF axisangle0 0.868072 0.243163 -0.432809 33.975044
DOCKED: USER    NEWDPF quat0 0.868072 0.243163 -0.432809 33.975044
DOCKED: USER    NEWDPF dihe0 48.58 125.44 -150.39 -96.92 81.30 99.31 35.26 109.87 160.40 145.41 -159.97 170.69 
DOCKED: USER  keepresnum = 1 
DOCKED: USER  
DOCKED: REMARK  12 active torsions:
DOCKED: REMARK  status: ('A' for Active; 'I' for Inactive)
DOCKED: REMARK    1  A    between atoms: C_6  and  C_10 
DOCKED: REMARK    2  A    between atoms: C_10  and  C_11 
DOCKED: REMARK    3  A    between atoms: C_11  and  C_12 
DOCKED: REMARK    4  A    between atoms: C_12  and  O_14 
DOCKED: REMARK    5  A    between atoms: C_17  and  C_20 
DOCKED: REMARK    6  A    between atoms: C_24  and  C_27 
DOCKED: REMARK    7  A    between atoms: C_31  and  C_34 
DOCKED: REMARK    8  A    between atoms: C_34  and  C_35 
DOCKED: REMARK    9  A    between atoms: C_35  and  C_36 
DOCKED: REMARK   10  A    between atoms: C_36  and  O_38 
DOCKED: REMARK   11  A    between atoms: FE_43  and  C_44 
DOCKED: REMARK   12  A    between atoms: C_44  and  O_45 
DOCKED: USER                              x       y       z     vdW  Elec       q    Type
DOCKED: USER                           _______ _______ _______ _____ _____    ______ ____
DOCKED: ROOT
DOCKED: ATOM      1  C   UNL d   1     -18.693  -2.102   0.930 -0.02 +0.05    +0.064 A 
DOCKED: ATOM      2  C   UNL d   1     -17.687  -2.240   5.576 -0.09 +0.03    +0.064 C 
DOCKED: ATOM      3  C   UNL d   1     -13.170  -0.970   4.673 -0.24 +0.03    +0.064 A 
DOCKED: ATOM      4  C   UNL d   1     -14.272  -0.446  -0.036 -0.14 +0.09    +0.064 A 
DOCKED: ATOM      5  C   UNL d   1     -18.741  -2.269   2.262 -0.01 +0.05    +0.066 A 
DOCKED: ATOM      6  C   UNL d   1     -19.939  -2.580   2.934 -0.01 -0.01    -0.021 A 
DOCKED: ATOM      7  C   UNL d   1     -19.646  -2.597   4.284 -0.03 -0.01    -0.025 A 
DOCKED: ATOM      8  C   UNL d   1     -18.279  -2.311   4.377 -0.03 +0.04    +0.066 A 
DOCKED: ATOM      9  C   UNL d   1     -20.604  -2.868   5.453 -0.04 +0.02    +0.051 C 
DOCKED: ATOM     10  C   UNL d   1     -16.282  -1.979   5.768 -0.10 +0.03    +0.066 A 
DOCKED: ATOM     11  C   UNL d   1     -15.574  -2.030   6.988 -0.22 -0.01    -0.021 A 
DOCKED: ATOM     12  C   UNL d   1     -14.258  -1.659   6.695 -0.31 +0.00    +0.000 A 
DOCKED: ATOM     13  C   UNL d   1     -14.259  -1.422   5.320 -0.04 +0.03    +0.070 A 
DOCKED: ATOM     14  C   UNL d   1     -16.115  -2.498   8.315 -0.28 +0.01    +0.052 C 
DOCKED: ATOM     15  C   UNL d   1     -13.009  -0.623   3.275 -0.23 +0.04    +0.066 A 
DOCKED: ATOM     16  C   UNL d   1     -11.899  -0.024   2.698 -0.23 -0.01    -0.021 A 
DOCKED: ATOM     17  C   UNL d   1     -12.213   0.131   1.340 -0.28 +0.00    +0.000 A 
DOCKED: ATOM     18  C   UNL d   1     -13.488  -0.403   1.192 -0.23 +0.09    +0.070 A 
DOCKED: ATOM     19  C   UNL d   1     -10.633   0.365   3.429 -0.34 +0.02    +0.052 C 
DOCKED: ATOM     20  C   UNL d   1     -15.546  -0.882  -0.186 -0.15 +0.09    +0.066 A 
DOCKED: ATOM     21  C   UNL d   1     -16.206  -0.840  -1.412 -0.12 -0.03    -0.025 A 
DOCKED: ATOM     22  C   UNL d   1     -17.474  -1.338  -1.170 -0.07 -0.02    -0.021 A 
DOCKED: ATOM     23  C   UNL d   1     -17.528  -1.651   0.205 -0.07 +0.06    +0.066 A 
DOCKED: ATOM     24  C   UNL d   1     -15.664  -0.331  -2.745 -0.10 +0.04    +0.051 C 
DOCKED: ATOM     25  N   UNL d   1     -17.692  -2.109   3.139 -0.01 -0.19    -0.248 N 
DOCKED: ATOM     26  N   UNL d   1     -15.469  -1.669   4.752 -0.07 -0.14    -0.248 N 
DOCKED: ATOM     27  N   UNL d   1     -13.943  -0.816   2.370 -0.16 -0.25    -0.248 N 
DOCKED: ATOM     28  N   UNL d   1     -16.364  -1.374   0.805 -0.09 -0.30    -0.248 N 
DOCKED: ATOM     29 FE   UNL d   1     -15.707  -1.424   2.728 -0.03 +0.00    +0.000 Fe
DOCKED: ENDROOT
DOCKED: BRANCH   6  30
DOCKED: ATOM     30  C   UNL d   1     -21.314  -2.770   2.302 +0.00 +0.02    +0.052 C 
DOCKED: BRANCH  30  31
DOCKED: ATOM     31  C   UNL d   1     -21.920  -1.420   1.921 -0.01 +0.07    +0.115 C 
DOCKED: BRANCH  31  32
DOCKED: ATOM     32  C   UNL d   1     -21.307  -0.272   2.694 -0.04 +0.16    +0.139 C 
DOCKED: ATOM     33  O   UNL d   1     -21.846   0.118   3.719 -0.50 -0.99    -0.650 OA
DOCKED: BRANCH  32  34
DOCKED: ATOM     34  O   UNL d   1     -20.146   0.311   2.314 -0.02 -1.26    -0.776 OA
DOCKED: ATOM     35  H   UNL d   1     -19.932   0.552   1.402 +0.02 +0.23    +0.167 HD
DOCKED: ENDBRANCH  32  34
DOCKED: ENDBRANCH  31  32
DOCKED: ENDBRANCH  30  31
DOCKED: ENDBRANCH   6  30
DOCKED: BRANCH  29  36
DOCKED: ATOM     36  C   UNL d   1     -16.431   0.517   3.050 +0.07 +0.28    +0.190 C 
DOCKED: BRANCH  36  37
DOCKED: ATOM     37  O   UNL d   1     -17.411   1.424   2.634 -0.23 -0.80    -0.399 OA
DOCKED: ATOM     38  H   UNL d   1     -18.049   0.881   2.091 +0.04 +0.37    +0.209 HD
DOCKED: ENDBRANCH  36  37
DOCKED: ENDBRANCH  29  36
DOCKED: BRANCH  22  39
DOCKED: ATOM     39  C   UNL d   1     -18.588  -1.444  -2.195 -0.02 +0.03    +0.052 C 
DOCKED: BRANCH  39  40
DOCKED: ATOM     40  C   UNL d   1     -19.403  -0.141  -2.247 +0.01 +0.06    +0.115 C 
DOCKED: BRANCH  40  41
DOCKED: ATOM     41  C   UNL d   1     -19.664   0.487  -0.894 -0.00 +0.10    +0.139 C 
DOCKED: ATOM     42  O   UNL d   1     -20.805   0.512  -0.456 +0.02 -0.43    -0.650 OA
DOCKED: BRANCH  41  43
DOCKED: ATOM     43  O   UNL d   1     -18.657   0.944  -0.117 +0.02 -0.89    -0.776 OA
DOCKED: ATOM     44  H   UNL d   1     -18.672   0.873   0.847 +0.03 +0.23    +0.167 HD
DOCKED: ENDBRANCH  41  43
DOCKED: ENDBRANCH  40  41
DOCKED: ENDBRANCH  39  40
DOCKED: ENDBRANCH  22  39
DOCKED: BRANCH  12  45
DOCKED: ATOM     45  C   UNL d   1     -13.004  -1.521   7.548 -0.47 +0.00    +0.004 C 
DOCKED: ATOM     46  C   UNL d   1     -12.375  -0.437   7.992 -0.58 +0.00    +0.012 C 
DOCKED: ENDBRANCH  12  45
DOCKED: BRANCH  17  47
DOCKED: ATOM     47  C   UNL d   1     -11.425   0.773   0.246 -0.33 +0.00    +0.004 C 
DOCKED: ATOM     48  C   UNL d   1     -10.209   0.364  -0.124 -0.42 +0.00    +0.012 C 
DOCKED: ENDBRANCH  17  47
DOCKED: TORSDOF 12
DOCKED: TER
DOCKED: ENDMDL
________________________________________________________________________________


	BEGINNING GENETIC ALGORITHM DOCKING 42 of 100
Run: 42 Seed: 880573596 1297187420 [ Run 42 of 100 GA/GALS ]
Beginning LAMARCKIAN GENETIC ALGORITHM (LGA), with a maximum of 25000000 energy evaluations.

Final-Value: -10.997


	FINAL GENETIC ALGORITHM DOCKED STATE
	_______________________________________________


Detailed state:  trans -14.831 9.177 -3.912 quatxyzw 0.970196 -0.124786 -0.207694 -0.003291 center 8.781 34.984 -0.736 ntor 12 162.3109 78.6172 -26.9922 126.6976 137.3570 129.5691 -122.3706 -57.3625 -126.3693 -139.8346 -174.3871 155.7493
State:	-14.831   9.177  -3.912   0.970 -0.125 -0.208 -179.623    162.31   78.62  -26.99  126.70  137.36  129.57 -122.37  -57.36 -126.37 -139.83 -174.39  155.75

DOCKED: MODEL       42
DOCKED: USER    Run = 42
DOCKED: USER    DPF = D:/Protein_go_brrr/autodock/final/AncMH_nat/heme_Co/dock.dpf
DOCKED: USER  
DOCKED: USER    Estimated Free Energy of Binding    =   -3.64 kcal/mol  [=(1)+(2)+(3)-(4)]
DOCKED: USER    Estimated Inhibition Constant, Ki   =    2.13 mM (millimolar)  [Temperature = 298.15 K]
DOCKED: USER    
DOCKED: USER    (1) Final Intermolecular Energy     =   -7.22 kcal/mol
DOCKED: USER        vdW + Hbond + desolv Energy     =   -5.84 kcal/mol
DOCKED: USER        Electrostatic Energy            =   -1.38 kcal/mol
DOCKED: USER    (2) Final Total Internal Energy     =   -3.77 kcal/mol
DOCKED: USER    (3) Torsional Free Energy           =   +3.58 kcal/mol
DOCKED: USER    (4) Unbound System's Energy  [=(2)] =   -3.77 kcal/mol
DOCKED: USER    
DOCKED: USER    
DOCKED: USER    NEWDPF move heme_Co_opt.pdbqt
DOCKED: USER    NEWDPF about 8.781000 34.984000 -0.736000
DOCKED: USER    NEWDPF tran0 -14.831446 9.176530 -3.912072
DOCKED: USER    NEWDPF quaternion0 0.970196 -0.124786 -0.207694 -0.003291
DOCKED: USER    NEWDPF axisangle0 0.970202 -0.124786 -0.207695 -179.622926
DOCKED: USER    NEWDPF quat0 0.970202 -0.124786 -0.207695 -179.622926
DOCKED: USER    NEWDPF dihe0 162.31 78.62 -26.99 126.70 137.36 129.57 -122.37 -57.36 -126.37 -139.83 -174.39 155.75 
DOCKED: USER  keepresnum = 1 
DOCKED: USER  
DOCKED: REMARK  12 active torsions:
DOCKED: REMARK  status: ('A' for Active; 'I' for Inactive)
DOCKED: REMARK    1  A    between atoms: C_6  and  C_10 
DOCKED: REMARK    2  A    between atoms: C_10  and  C_11 
DOCKED: REMARK    3  A    between atoms: C_11  and  C_12 
DOCKED: REMARK    4  A    between atoms: C_12  and  O_14 
DOCKED: REMARK    5  A    between atoms: C_17  and  C_20 
DOCKED: REMARK    6  A    between atoms: C_24  and  C_27 
DOCKED: REMARK    7  A    between atoms: C_31  and  C_34 
DOCKED: REMARK    8  A    between atoms: C_34  and  C_35 
DOCKED: REMARK    9  A    between atoms: C_35  and  C_36 
DOCKED: REMARK   10  A    between atoms: C_36  and  O_38 
DOCKED: REMARK   11  A    between atoms: FE_43  and  C_44 
DOCKED: REMARK   12  A    between atoms: C_44  and  O_45 
DOCKED: USER                              x       y       z     vdW  Elec       q    Type
DOCKED: USER                           _______ _______ _______ _____ _____    ______ ____
DOCKED: ROOT
DOCKED: ATOM      1  C   UNL d   1     -16.316   9.126  -2.328 -0.11 +0.01    +0.064 A 
DOCKED: ATOM      2  C   UNL d   1     -16.073  11.566  -6.402 -0.03 -0.00    +0.064 C 
DOCKED: ATOM      3  C   UNL d   1     -11.703   9.820  -7.231 -0.17 -0.01    +0.064 A 
DOCKED: ATOM      4  C   UNL d   1     -12.085   7.020  -3.271 -0.26 +0.00    +0.064 A 
DOCKED: ATOM      5  C   UNL d   1     -16.556   9.949  -3.362 -0.08 +0.00    +0.066 A 
DOCKED: ATOM      6  C   UNL d   1     -17.789  10.610  -3.521 -0.04 -0.00    -0.021 A 
DOCKED: ATOM      7  C   UNL d   1     -17.721  11.299  -4.716 -0.02 -0.00    -0.025 A 
DOCKED: ATOM      8  C   UNL d   1     -16.445  11.042  -5.227 -0.04 +0.00    +0.066 A 
DOCKED: ATOM      9  C   UNL d   1     -18.808  12.169  -5.366 -0.01 +0.00    +0.051 C 
DOCKED: ATOM     10  C   UNL d   1     -14.772  11.378  -6.994 -0.04 -0.00    +0.066 A 
DOCKED: ATOM     11  C   UNL d   1     -14.272  12.013  -8.152 -0.03 +0.00    -0.021 A 
DOCKED: ATOM     12  C   UNL d   1     -12.995  11.489  -8.368 -0.07 -0.00    +0.000 A 
DOCKED: ATOM     13  C   UNL d   1     -12.805  10.585  -7.323 -0.10 -0.01    +0.070 A 
DOCKED: ATOM     14  C   UNL d   1     -14.949  13.114  -8.928 -0.01 -0.00    +0.052 C 
DOCKED: ATOM     15  C   UNL d   1     -11.368   8.804  -6.253 -0.23 -0.01    +0.066 A 
DOCKED: ATOM     16  C   UNL d   1     -10.277   7.947  -6.297 -0.28 +0.01    -0.021 A 
DOCKED: ATOM     17  C   UNL d   1     -10.384   7.136  -5.158 -0.31 -0.00    +0.000 A 
DOCKED: ATOM     18  C   UNL d   1     -11.527   7.575  -4.498 -0.24 -0.01    +0.070 A 
DOCKED: ATOM     19  C   UNL d   1      -9.218   7.930  -7.376 -0.25 -0.02    +0.052 C 
DOCKED: ATOM     20  C   UNL d   1     -13.240   7.373  -2.657 -0.22 +0.01    +0.066 A 
DOCKED: ATOM     21  C   UNL d   1     -13.690   6.741  -1.500 -0.32 -0.01    -0.025 A 
DOCKED: ATOM     22  C   UNL d   1     -14.894   7.347  -1.189 -0.28 -0.01    -0.021 A 
DOCKED: ATOM     23  C   UNL d   1     -15.126   8.318  -2.186 -0.03 +0.01    +0.066 A 
DOCKED: ATOM     24  C   UNL d   1     -13.018   5.602  -0.739 -0.36 +0.03    +0.051 C 
DOCKED: ATOM     25  N   UNL d   1     -15.699  10.213  -4.406 -0.06 -0.01    -0.248 N 
DOCKED: ATOM     26  N   UNL d   1     -13.857  10.561  -6.462 -0.06 +0.01    -0.248 N 
DOCKED: ATOM     27  N   UNL d   1     -12.104   8.549  -5.194 -0.14 +0.03    -0.248 N 
DOCKED: ATOM     28  N   UNL d   1     -14.128   8.336  -3.078 +0.07 -0.03    -0.248 N 
DOCKED: ATOM     29 FE   UNL d   1     -13.795   9.330  -4.820 -0.04 +0.00    +0.000 Fe
DOCKED: ENDROOT
DOCKED: BRANCH   6  30
DOCKED: ATOM     30  C   UNL d   1     -19.000  10.510  -2.599 -0.02 +0.00    +0.052 C 
DOCKED: BRANCH  30  31
DOCKED: ATOM     31  C   UNL d   1     -19.920   9.373  -3.041 -0.00 +0.01    +0.115 C 
DOCKED: BRANCH  31  32
DOCKED: ATOM     32  C   UNL d   1     -19.178   8.065  -3.215 -0.01 +0.02    +0.139 C 
DOCKED: ATOM     33  O   UNL d   1     -19.345   7.167  -2.404 +0.02 -0.15    -0.650 OA
DOCKED: BRANCH  32  34
DOCKED: ATOM     34  O   UNL d   1     -18.366   7.836  -4.273 +0.01 -0.09    -0.776 OA
DOCKED: ATOM     35  H   UNL d   1     -17.659   7.176  -4.283 +0.01 +0.02    +0.167 HD
DOCKED: ENDBRANCH  32  34
DOCKED: ENDBRANCH  31  32
DOCKED: ENDBRANCH  30  31
DOCKED: ENDBRANCH   6  30
DOCKED: BRANCH  29  36
DOCKED: ATOM     36  C   UNL d   1     -14.836   7.856  -5.888 -0.03 +0.00    +0.190 C 
DOCKED: BRANCH  36  37
DOCKED: ATOM     37  O   UNL d   1     -16.078   7.220  -5.987 +0.00 -0.02    -0.399 OA
DOCKED: ATOM     38  H   UNL d   1     -16.417   7.173  -5.050 +0.01 +0.02    +0.209 HD
DOCKED: ENDBRANCH  36  37
DOCKED: ENDBRANCH  29  36
DOCKED: BRANCH  22  39
DOCKED: ATOM     39  C   UNL d   1     -15.798   6.964  -0.032 -0.15 +0.03    +0.052 C 
DOCKED: BRANCH  39  40
DOCKED: ATOM     40  C   UNL d   1     -16.998   6.142  -0.531 -0.14 +0.08    +0.115 C 
DOCKED: BRANCH  40  41
DOCKED: ATOM     41  C   UNL d   1     -16.687   5.226  -1.695 -0.09 +0.12    +0.139 C 
DOCKED: ATOM     42  O   UNL d   1     -16.153   4.147  -1.482 -0.55 -1.13    -0.650 OA
DOCKED: BRANCH  41  43
DOCKED: ATOM     43  O   UNL d   1     -17.063   5.529  -2.958 +0.03 -0.33    -0.776 OA
DOCKED: ATOM     44  H   UNL d   1     -17.770   6.157  -3.152 +0.01 +0.05    +0.167 HD
DOCKED: ENDBRANCH  41  43
DOCKED: ENDBRANCH  40  41
DOCKED: ENDBRANCH  39  40
DOCKED: ENDBRANCH  22  39
DOCKED: BRANCH  12  45
DOCKED: ATOM     45  C   UNL d   1     -11.930  11.750  -9.425 -0.09 -0.00    +0.004 C 
DOCKED: ATOM     46  C   UNL d   1     -10.691  12.219  -9.309 -0.21 -0.00    +0.012 C 
DOCKED: ENDBRANCH  12  45
DOCKED: BRANCH  17  47
DOCKED: ATOM     47  C   UNL d   1      -9.530   5.993  -4.717 -0.38 -0.00    +0.004 C 
DOCKED: ATOM     48  C   UNL d   1      -8.802   6.006  -3.598 -0.51 -0.00    +0.012 C 
DOCKED: ENDBRANCH  17  47
DOCKED: TORSDOF 12
DOCKED: TER
DOCKED: ENDMDL
________________________________________________________________________________


	BEGINNING GENETIC ALGORITHM DOCKING 43 of 100
Run: 43 Seed: 1392963674 216398538 [ Run 43 of 100 GA/GALS ]
Beginning LAMARCKIAN GENETIC ALGORITHM (LGA), with a maximum of 25000000 energy evaluations.

Final-Value: -11.491


	FINAL GENETIC ALGORITHM DOCKED STATE
	_______________________________________________


Detailed state:  trans -16.257 1.115 -3.091 quatxyzw -0.600593 -0.293853 -0.260735 0.696388 center 8.781 34.984 -0.736 ntor 12 120.1031 115.7788 69.3541 111.2648 -71.0247 102.3548 25.0184 -49.2268 140.8403 -151.7039 -139.9450 157.8463
State:	-16.257   1.115  -3.091  -0.837 -0.409 -0.363 91.724    120.10  115.78   69.35  111.26  -71.02  102.35   25.02  -49.23  140.84 -151.70 -139.94  157.85

DOCKED: MODEL       43
DOCKED: USER    Run = 43
DOCKED: USER    DPF = D:/Protein_go_brrr/autodock/final/AncMH_nat/heme_Co/dock.dpf
DOCKED: USER  
DOCKED: USER    Estimated Free Energy of Binding    =   -4.40 kcal/mol  [=(1)+(2)+(3)-(4)]
DOCKED: USER    Estimated Inhibition Constant, Ki   =  597.47 uM (micromolar)  [Temperature = 298.15 K]
DOCKED: USER    
DOCKED: USER    (1) Final Intermolecular Energy     =   -7.98 kcal/mol
DOCKED: USER        vdW + Hbond + desolv Energy     =   -4.46 kcal/mol
DOCKED: USER        Electrostatic Energy            =   -3.52 kcal/mol
DOCKED: USER    (2) Final Total Internal Energy     =   -3.51 kcal/mol
DOCKED: USER    (3) Torsional Free Energy           =   +3.58 kcal/mol
DOCKED: USER    (4) Unbound System's Energy  [=(2)] =   -3.51 kcal/mol
DOCKED: USER    
DOCKED: USER    
DOCKED: USER    NEWDPF move heme_Co_opt.pdbqt
DOCKED: USER    NEWDPF about 8.781000 34.984000 -0.736000
DOCKED: USER    NEWDPF tran0 -16.256561 1.114629 -3.091222
DOCKED: USER    NEWDPF quaternion0 -0.600593 -0.293853 -0.260735 0.696388
DOCKED: USER    NEWDPF axisangle0 -0.836870 -0.409456 -0.363310 91.724168
DOCKED: USER    NEWDPF quat0 -0.836870 -0.409456 -0.363310 91.724168
DOCKED: USER    NEWDPF dihe0 120.10 115.78 69.35 111.26 -71.02 102.35 25.02 -49.23 140.84 -151.70 -139.94 157.85 
DOCKED: USER  keepresnum = 1 
DOCKED: USER  
DOCKED: REMARK  12 active torsions:
DOCKED: REMARK  status: ('A' for Active; 'I' for Inactive)
DOCKED: REMARK    1  A    between atoms: C_6  and  C_10 
DOCKED: REMARK    2  A    between atoms: C_10  and  C_11 
DOCKED: REMARK    3  A    between atoms: C_11  and  C_12 
DOCKED: REMARK    4  A    between atoms: C_12  and  O_14 
DOCKED: REMARK    5  A    between atoms: C_17  and  C_20 
DOCKED: REMARK    6  A    between atoms: C_24  and  C_27 
DOCKED: REMARK    7  A    between atoms: C_31  and  C_34 
DOCKED: REMARK    8  A    between atoms: C_34  and  C_35 
DOCKED: REMARK    9  A    between atoms: C_35  and  C_36 
DOCKED: REMARK   10  A    between atoms: C_36  and  O_38 
DOCKED: REMARK   11  A    between atoms: FE_43  and  C_44 
DOCKED: REMARK   12  A    between atoms: C_44  and  O_45 
DOCKED: USER                              x       y       z     vdW  Elec       q    Type
DOCKED: USER                           _______ _______ _______ _____ _____    ______ ____
DOCKED: ROOT
DOCKED: ATOM      1  C   UNL d   1     -18.213   0.381  -2.501 -0.00 +0.04    +0.064 A 
DOCKED: ATOM      2  C   UNL d   1     -14.618  -1.649  -4.860 -0.11 +0.03    +0.064 C 
DOCKED: ATOM      3  C   UNL d   1     -12.218   2.483  -4.833 -0.07 -0.00    +0.064 A 
DOCKED: ATOM      4  C   UNL d   1     -15.706   4.476  -2.090 -0.05 +0.07    +0.064 A 
DOCKED: ATOM      5  C   UNL d   1     -17.423  -0.468  -3.179 -0.01 +0.04    +0.066 A 
DOCKED: ATOM      6  C   UNL d   1     -17.753  -1.827  -3.344 -0.04 -0.01    -0.021 A 
DOCKED: ATOM      7  C   UNL d   1     -16.696  -2.416  -4.009 -0.09 -0.02    -0.025 A 
DOCKED: ATOM      8  C   UNL d   1     -15.774  -1.389  -4.236 -0.07 +0.04    +0.066 A 
DOCKED: ATOM      9  C   UNL d   1     -16.544  -3.889  -4.420 -0.10 +0.04    +0.051 C 
DOCKED: ATOM     10  C   UNL d   1     -13.621  -0.652  -5.161 -0.08 +0.02    +0.066 A 
DOCKED: ATOM     11  C   UNL d   1     -12.453  -0.832  -5.934 -0.14 -0.00    -0.021 A 
DOCKED: ATOM     12  C   UNL d   1     -11.775   0.389  -5.913 -0.15 -0.00    +0.000 A 
DOCKED: ATOM     13  C   UNL d   1     -12.582   1.226  -5.142 -0.06 +0.00    +0.070 A 
DOCKED: ATOM     14  C   UNL d   1     -12.081  -2.069  -6.711 -0.17 +0.01    +0.052 C 
DOCKED: ATOM     15  C   UNL d   1     -12.901   3.462  -4.010 -0.05 +0.01    +0.066 A 
DOCKED: ATOM     16  C   UNL d   1     -12.402   4.694  -3.612 -0.10 -0.00    -0.021 A 
DOCKED: ATOM     17  C   UNL d   1     -13.403   5.271  -2.818 -0.13 +0.00    +0.000 A 
DOCKED: ATOM     18  C   UNL d   1     -14.445   4.350  -2.809 -0.08 +0.05    +0.070 A 
DOCKED: ATOM     19  C   UNL d   1     -11.047   5.253  -3.984 -0.22 -0.01    +0.052 C 
DOCKED: ATOM     20  C   UNL d   1     -16.697   3.557  -1.996 -0.02 +0.08    +0.066 A 
DOCKED: ATOM     21  C   UNL d   1     -17.848   3.779  -1.243 -0.06 -0.03    -0.025 A 
DOCKED: ATOM     22  C   UNL d   1     -18.603   2.627  -1.367 -0.05 -0.02    -0.021 A 
DOCKED: ATOM     23  C   UNL d   1     -17.863   1.747  -2.185 -0.03 +0.06    +0.066 A 
DOCKED: ATOM     24  C   UNL d   1     -18.204   5.021  -0.430 -0.12 +0.05    +0.051 C 
DOCKED: ATOM     25  N   UNL d   1     -16.201  -0.169  -3.738 -0.01 -0.14    -0.248 N 
DOCKED: ATOM     26  N   UNL d   1     -13.725   0.611  -4.735 -0.02 -0.07    -0.248 N 
DOCKED: ATOM     27  N   UNL d   1     -14.099   3.272  -3.504 -0.02 -0.12    -0.248 N 
DOCKED: ATOM     28  N   UNL d   1     -16.708   2.305  -2.566 -0.04 -0.24    -0.248 N 
DOCKED: ATOM     29 FE   UNL d   1     -15.091   1.655  -3.613 -0.01 +0.00    +0.000 Fe
DOCKED: ENDROOT
DOCKED: BRANCH   6  30
DOCKED: ATOM     30  C   UNL d   1     -18.995  -2.533  -2.808 -0.02 +0.03    +0.052 C 
DOCKED: BRANCH  30  31
DOCKED: ATOM     31  C   UNL d   1     -19.107  -2.348  -1.295 -0.02 +0.07    +0.115 C 
DOCKED: BRANCH  31  32
DOCKED: ATOM     32  C   UNL d   1     -17.770  -2.474  -0.597 -0.07 +0.13    +0.139 C 
DOCKED: ATOM     33  O   UNL d   1     -17.512  -3.492   0.028 +0.04 -0.76    -0.650 OA
DOCKED: BRANCH  32  34
DOCKED: ATOM     34  O   UNL d   1     -16.823  -1.511  -0.681 +0.00 -0.83    -0.776 OA
DOCKED: ATOM     35  H   UNL d   1     -16.505  -0.994   0.072 +0.03 +0.21    +0.167 HD
DOCKED: ENDBRANCH  32  34
DOCKED: ENDBRANCH  31  32
DOCKED: ENDBRANCH  30  31
DOCKED: ENDBRANCH   6  30
DOCKED: BRANCH  29  36
DOCKED: ATOM     36  C   UNL d   1     -14.238   0.883  -1.860 -0.07 +0.23    +0.190 C 
DOCKED: BRANCH  36  37
DOCKED: ATOM     37  O   UNL d   1     -14.556   0.318  -0.621 -0.09 -0.71    -0.399 OA
DOCKED: ATOM     38  H   UNL d   1     -15.552   0.249  -0.619 +0.04 +0.40    +0.209 HD
DOCKED: ENDBRANCH  36  37
DOCKED: ENDBRANCH  29  36
DOCKED: BRANCH  22  39
DOCKED: ATOM     39  C   UNL d   1     -19.931   2.367  -0.680 -0.04 +0.04    +0.052 C 
DOCKED: BRANCH  39  40
DOCKED: ATOM     40  C   UNL d   1     -19.737   1.472   0.555 -0.08 +0.14    +0.115 C 
DOCKED: BRANCH  40  41
DOCKED: ATOM     41  C   UNL d   1     -18.336   1.494   1.129 -0.10 +0.25    +0.139 C 
DOCKED: ATOM     42  O   UNL d   1     -18.049   2.330   1.974 -0.54 -1.54    -0.650 OA
DOCKED: BRANCH  41  43
DOCKED: ATOM     43  O   UNL d   1     -17.418   0.560   0.797 -0.38 -1.37    -0.776 OA
DOCKED: ATOM     44  H   UNL d   1     -16.959   0.561  -0.053 +0.02 +0.33    +0.167 HD
DOCKED: ENDBRANCH  41  43
DOCKED: ENDBRANCH  40  41
DOCKED: ENDBRANCH  39  40
DOCKED: ENDBRANCH  22  39
DOCKED: BRANCH  12  45
DOCKED: ATOM     45  C   UNL d   1     -10.474   0.865  -6.545 -0.09 -0.00    +0.004 C 
DOCKED: ATOM     46  C   UNL d   1     -10.258   1.625  -7.615 -0.19 -0.01    +0.012 C 
DOCKED: ENDBRANCH  12  45
DOCKED: BRANCH  17  47
DOCKED: ATOM     47  C   UNL d   1     -13.400   6.563  -2.068 -0.32 +0.00    +0.004 C 
DOCKED: ATOM     48  C   UNL d   1     -13.034   6.670  -0.788 -0.47 +0.00    +0.012 C 
DOCKED: ENDBRANCH  17  47
DOCKED: TORSDOF 12
DOCKED: TER
DOCKED: ENDMDL
________________________________________________________________________________


	BEGINNING GENETIC ALGORITHM DOCKING 44 of 100
Run: 44 Seed: 1386429393 1883605199 [ Run 44 of 100 GA/GALS ]
Beginning LAMARCKIAN GENETIC ALGORITHM (LGA), with a maximum of 25000000 energy evaluations.

Final-Value: -12.414


	FINAL GENETIC ALGORITHM DOCKED STATE
	_______________________________________________


Detailed state:  trans -15.884 -1.957 3.999 quatxyzw 0.925642 0.123062 0.257295 -0.248681 center 8.781 34.984 -0.736 ntor 12 -85.3641 59.5353 -14.2830 -91.0872 105.7739 152.8046 34.0913 128.9893 153.0767 -142.9771 -160.2252 -7.8263
State:	-15.884  -1.957   3.999   0.956  0.127  0.266 -151.201    -85.36   59.54  -14.28  -91.09  105.77  152.80   34.09  128.99  153.08 -142.98 -160.23   -7.83

DOCKED: MODEL       44
DOCKED: USER    Run = 44
DOCKED: USER    DPF = D:/Protein_go_brrr/autodock/final/AncMH_nat/heme_Co/dock.dpf
DOCKED: USER  
DOCKED: USER    Estimated Free Energy of Binding    =   -6.60 kcal/mol  [=(1)+(2)+(3)-(4)]
DOCKED: USER    Estimated Inhibition Constant, Ki   =   14.63 uM (micromolar)  [Temperature = 298.15 K]
DOCKED: USER    
DOCKED: USER    (1) Final Intermolecular Energy     =  -10.18 kcal/mol
DOCKED: USER        vdW + Hbond + desolv Energy     =   -7.89 kcal/mol
DOCKED: USER        Electrostatic Energy            =   -2.28 kcal/mol
DOCKED: USER    (2) Final Total Internal Energy     =   -2.24 kcal/mol
DOCKED: USER    (3) Torsional Free Energy           =   +3.58 kcal/mol
DOCKED: USER    (4) Unbound System's Energy  [=(2)] =   -2.24 kcal/mol
DOCKED: USER    
DOCKED: USER    
DOCKED: USER    NEWDPF move heme_Co_opt.pdbqt
DOCKED: USER    NEWDPF about 8.781000 34.984000 -0.736000
DOCKED: USER    NEWDPF tran0 -15.883655 -1.957332 3.998910
DOCKED: USER    NEWDPF quaternion0 0.925642 0.123062 0.257295 -0.248681
DOCKED: USER    NEWDPF axisangle0 0.955664 0.127053 0.265640 -151.200996
DOCKED: USER    NEWDPF quat0 0.955664 0.127053 0.265640 -151.200996
DOCKED: USER    NEWDPF dihe0 -85.36 59.54 -14.28 -91.09 105.77 152.80 34.09 128.99 153.08 -142.98 -160.23 -7.83 
DOCKED: USER  keepresnum = 1 
DOCKED: USER  
DOCKED: REMARK  12 active torsions:
DOCKED: REMARK  status: ('A' for Active; 'I' for Inactive)
DOCKED: REMARK    1  A    between atoms: C_6  and  C_10 
DOCKED: REMARK    2  A    between atoms: C_10  and  C_11 
DOCKED: REMARK    3  A    between atoms: C_11  and  C_12 
DOCKED: REMARK    4  A    between atoms: C_12  and  O_14 
DOCKED: REMARK    5  A    between atoms: C_17  and  C_20 
DOCKED: REMARK    6  A    between atoms: C_24  and  C_27 
DOCKED: REMARK    7  A    between atoms: C_31  and  C_34 
DOCKED: REMARK    8  A    between atoms: C_34  and  C_35 
DOCKED: REMARK    9  A    between atoms: C_35  and  C_36 
DOCKED: REMARK   10  A    between atoms: C_36  and  O_38 
DOCKED: REMARK   11  A    between atoms: FE_43  and  C_44 
DOCKED: REMARK   12  A    between atoms: C_44  and  O_45 
DOCKED: USER                              x       y       z     vdW  Elec       q    Type
DOCKED: USER                           _______ _______ _______ _____ _____    ______ ____
DOCKED: ROOT
DOCKED: ATOM      1  C   UNL d   1     -17.911  -2.730   4.089 -0.03 +0.04    +0.064 A 
DOCKED: ATOM      2  C   UNL d   1     -15.115  -1.515   0.440 -0.15 +0.08    +0.064 C 
DOCKED: ATOM      3  C   UNL d   1     -11.776   0.058   3.474 -0.21 +0.03    +0.064 A 
DOCKED: ATOM      4  C   UNL d   1     -14.448  -1.527   7.217 -0.29 +0.01    +0.064 A 
DOCKED: ATOM      5  C   UNL d   1     -17.407  -2.481   2.869 -0.04 +0.05    +0.066 A 
DOCKED: ATOM      6  C   UNL d   1     -18.074  -2.871   1.691 -0.05 -0.02    -0.021 A 
DOCKED: ATOM      7  C   UNL d   1     -17.248  -2.537   0.637 -0.06 -0.03    -0.025 A 
DOCKED: ATOM      8  C   UNL d   1     -16.121  -1.942   1.214 -0.11 +0.08    +0.066 A 
DOCKED: ATOM      9  C   UNL d   1     -17.495  -2.762  -0.863 -0.06 +0.05    +0.051 C 
DOCKED: ATOM     10  C   UNL d   1     -13.928  -0.868   0.943 -0.21 +0.08    +0.066 A 
DOCKED: ATOM     11  C   UNL d   1     -12.903  -0.272   0.176 -0.22 -0.02    -0.021 A 
DOCKED: ATOM     12  C   UNL d   1     -11.945   0.182   1.086 -0.29 +0.00    +0.000 A 
DOCKED: ATOM     13  C   UNL d   1     -12.460  -0.158   2.337 -0.25 +0.05    +0.070 A 
DOCKED: ATOM     14  C   UNL d   1     -12.906  -0.076  -1.318 -0.17 +0.05    +0.052 C 
DOCKED: ATOM     15  C   UNL d   1     -12.132  -0.274   4.840 -0.31 +0.02    +0.066 A 
DOCKED: ATOM     16  C   UNL d   1     -11.316  -0.155   5.956 -0.43 -0.00    -0.021 A 
DOCKED: ATOM     17  C   UNL d   1     -12.081  -0.614   7.037 -0.39 +0.00    +0.000 A 
DOCKED: ATOM     18  C   UNL d   1     -13.315  -0.962   6.496 -0.23 +0.01    +0.070 A 
DOCKED: ATOM     19  C   UNL d   1      -9.897   0.367   5.952 -0.39 +0.01    +0.052 C 
DOCKED: ATOM     20  C   UNL d   1     -15.625  -1.954   6.699 -0.17 +0.02    +0.066 A 
DOCKED: ATOM     21  C   UNL d   1     -16.626  -2.514   7.490 -0.18 -0.01    -0.025 A 
DOCKED: ATOM     22  C   UNL d   1     -17.648  -2.844   6.619 -0.11 -0.01    -0.021 A 
DOCKED: ATOM     23  C   UNL d   1     -17.212  -2.477   5.329 -0.07 +0.03    +0.066 A 
DOCKED: ATOM     24  C   UNL d   1     -16.602  -2.742   8.999 -0.28 +0.01    +0.051 C 
DOCKED: ATOM     25  N   UNL d   1     -16.195  -1.889   2.596 -0.06 -0.23    -0.248 N 
DOCKED: ATOM     26  N   UNL d   1     -13.685  -0.742   2.252 -0.17 -0.25    -0.248 N 
DOCKED: ATOM     27  N   UNL d   1     -13.298  -0.775   5.181 -0.09 -0.09    -0.248 N 
DOCKED: ATOM     28  N   UNL d   1     -15.987  -1.940   5.372 -0.06 -0.12    -0.248 N 
DOCKED: ATOM     29 FE   UNL d   1     -14.663  -1.299   3.968 -0.05 +0.00    +0.000 Fe
DOCKED: ENDROOT
DOCKED: BRANCH   6  30
DOCKED: ATOM     30  C   UNL d   1     -19.407  -3.606   1.602 -0.02 +0.03    +0.052 C 
DOCKED: BRANCH  30  31
DOCKED: ATOM     31  C   UNL d   1     -19.229  -5.085   1.943 -0.04 +0.06    +0.115 C 
DOCKED: BRANCH  31  32
DOCKED: ATOM     32  C   UNL d   1     -17.845  -5.594   1.602 -0.04 +0.13    +0.139 C 
DOCKED: ATOM     33  O   UNL d   1     -17.656  -6.152   0.532 -0.23 -0.89    -0.650 OA
DOCKED: BRANCH  32  34
DOCKED: ATOM     34  O   UNL d   1     -16.788  -5.408   2.428 -0.32 -0.82    -0.776 OA
DOCKED: ATOM     35  H   UNL d   1     -16.204  -4.638   2.398 +0.04 +0.21    +0.167 HD
DOCKED: ENDBRANCH  32  34
DOCKED: ENDBRANCH  31  32
DOCKED: ENDBRANCH  30  31
DOCKED: ENDBRANCH   6  30
DOCKED: BRANCH  29  36
DOCKED: ATOM     36  C   UNL d   1     -13.897  -3.241   3.771 -0.13 +0.12    +0.190 C 
DOCKED: BRANCH  36  37
DOCKED: ATOM     37  O   UNL d   1     -14.129  -4.473   3.150 -0.22 -0.39    -0.399 OA
DOCKED: ATOM     38  H   UNL d   1     -15.064  -4.715   3.402 +0.09 +0.18    +0.209 HD
DOCKED: ENDBRANCH  36  37
DOCKED: ENDBRANCH  29  36
DOCKED: BRANCH  22  39
DOCKED: ATOM     39  C   UNL d   1     -18.943  -3.533   7.005 -0.10 +0.02    +0.052 C 
DOCKED: BRANCH  39  40
DOCKED: ATOM     40  C   UNL d   1     -20.046  -2.499   7.286 -0.05 +0.04    +0.115 C 
DOCKED: BRANCH  40  41
DOCKED: ATOM     41  C   UNL d   1     -19.934  -1.229   6.470 -0.06 +0.08    +0.139 C 
DOCKED: ATOM     42  O   UNL d   1     -19.330  -0.271   6.934 +0.00 -0.44    -0.650 OA
DOCKED: BRANCH  41  43
DOCKED: ATOM     43  O   UNL d   1     -20.408  -1.152   5.207 +0.02 -0.61    -0.776 OA
DOCKED: ATOM     44  H   UNL d   1     -20.736  -1.923   4.727 +0.02 +0.10    +0.167 HD
DOCKED: ENDBRANCH  41  43
DOCKED: ENDBRANCH  40  41
DOCKED: ENDBRANCH  39  40
DOCKED: ENDBRANCH  22  39
DOCKED: BRANCH  12  45
DOCKED: ATOM     45  C   UNL d   1     -10.618   0.910   0.919 -0.37 +0.00    +0.004 C 
DOCKED: ATOM     46  C   UNL d   1      -9.370   0.450   0.931 -0.47 +0.00    +0.012 C 
DOCKED: ENDBRANCH  12  45
DOCKED: BRANCH  17  47
DOCKED: ATOM     47  C   UNL d   1     -11.703  -0.776   8.473 -0.54 +0.00    +0.004 C 
DOCKED: ATOM     48  C   UNL d   1     -11.747   0.217   9.364 -0.34 +0.00    +0.012 C 
DOCKED: ENDBRANCH  17  47
DOCKED: TORSDOF 12
DOCKED: TER
DOCKED: ENDMDL
________________________________________________________________________________


	BEGINNING GENETIC ALGORITHM DOCKING 45 of 100
Run: 45 Seed: 1340680212 1228554207 [ Run 45 of 100 GA/GALS ]
Beginning LAMARCKIAN GENETIC ALGORITHM (LGA), with a maximum of 25000000 energy evaluations.

Final-Value: -11.280


	FINAL GENETIC ALGORITHM DOCKED STATE
	_______________________________________________


Detailed state:  trans -13.234 1.957 -3.381 quatxyzw -0.189331 0.430708 0.654926 -0.591368 center 8.781 34.984 -0.736 ntor 12 -55.8370 63.4591 174.0249 -106.4585 -85.9696 75.2415 -101.4502 -33.1376 -1.1229 101.9909 -160.7510 170.3880
State:	-13.234   1.957  -3.381  -0.235  0.534  0.812 -107.492    -55.84   63.46  174.02 -106.46  -85.97   75.24 -101.45  -33.14   -1.12  101.99 -160.75  170.39

DOCKED: MODEL       45
DOCKED: USER    Run = 45
DOCKED: USER    DPF = D:/Protein_go_brrr/autodock/final/AncMH_nat/heme_Co/dock.dpf
DOCKED: USER  
DOCKED: USER    Estimated Free Energy of Binding    =   -5.80 kcal/mol  [=(1)+(2)+(3)-(4)]
DOCKED: USER    Estimated Inhibition Constant, Ki   =   55.69 uM (micromolar)  [Temperature = 298.15 K]
DOCKED: USER    
DOCKED: USER    (1) Final Intermolecular Energy     =   -9.38 kcal/mol
DOCKED: USER        vdW + Hbond + desolv Energy     =   -6.36 kcal/mol
DOCKED: USER        Electrostatic Energy            =   -3.02 kcal/mol
DOCKED: USER    (2) Final Total Internal Energy     =   -1.90 kcal/mol
DOCKED: USER    (3) Torsional Free Energy           =   +3.58 kcal/mol
DOCKED: USER    (4) Unbound System's Energy  [=(2)] =   -1.90 kcal/mol
DOCKED: USER    
DOCKED: USER    
DOCKED: USER    NEWDPF move heme_Co_opt.pdbqt
DOCKED: USER    NEWDPF about 8.781000 34.984000 -0.736000
DOCKED: USER    NEWDPF tran0 -13.233649 1.957454 -3.381479
DOCKED: USER    NEWDPF quaternion0 -0.189331 0.430708 0.654926 -0.591368
DOCKED: USER    NEWDPF axisangle0 -0.234785 0.534111 0.812159 -107.491712
DOCKED: USER    NEWDPF quat0 -0.234785 0.534111 0.812159 -107.491712
DOCKED: USER    NEWDPF dihe0 -55.84 63.46 174.02 -106.46 -85.97 75.24 -101.45 -33.14 -1.12 101.99 -160.75 170.39 
DOCKED: USER  keepresnum = 1 
DOCKED: USER  
DOCKED: REMARK  12 active torsions:
DOCKED: REMARK  status: ('A' for Active; 'I' for Inactive)
DOCKED: REMARK    1  A    between atoms: C_6  and  C_10 
DOCKED: REMARK    2  A    between atoms: C_10  and  C_11 
DOCKED: REMARK    3  A    between atoms: C_11  and  C_12 
DOCKED: REMARK    4  A    between atoms: C_12  and  O_14 
DOCKED: REMARK    5  A    between atoms: C_17  and  C_20 
DOCKED: REMARK    6  A    between atoms: C_24  and  C_27 
DOCKED: REMARK    7  A    between atoms: C_31  and  C_34 
DOCKED: REMARK    8  A    between atoms: C_34  and  C_35 
DOCKED: REMARK    9  A    between atoms: C_35  and  C_36 
DOCKED: REMARK   10  A    between atoms: C_36  and  O_38 
DOCKED: REMARK   11  A    between atoms: FE_43  and  C_44 
DOCKED: REMARK   12  A    between atoms: C_44  and  O_45 
DOCKED: USER                              x       y       z     vdW  Elec       q    Type
DOCKED: USER                           _______ _______ _______ _____ _____    ______ ____
DOCKED: ROOT
DOCKED: ATOM      1  C   UNL d   1     -13.481   0.139  -2.220 -0.14 +0.05    +0.064 A 
DOCKED: ATOM      2  C   UNL d   1     -10.298   3.665  -1.997 -0.12 +0.01    +0.064 C 
DOCKED: ATOM      3  C   UNL d   1     -12.193   5.673  -5.897 -0.08 -0.02    +0.064 A 
DOCKED: ATOM      4  C   UNL d   1     -15.692   2.293  -5.920 +0.01 +0.01    +0.064 A 
DOCKED: ATOM      5  C   UNL d   1     -12.450   0.936  -1.894 -0.18 +0.05    +0.066 A 
DOCKED: ATOM      6  C   UNL d   1     -11.671   0.716  -0.740 -0.26 -0.01    -0.021 A 
DOCKED: ATOM      7  C   UNL d   1     -10.764   1.755  -0.668 -0.27 -0.01    -0.025 A 
DOCKED: ATOM      8  C   UNL d   1     -11.016   2.555  -1.788 -0.20 +0.02    +0.066 A 
DOCKED: ATOM      9  C   UNL d   1      -9.695   2.000   0.408 -0.27 +0.02    +0.051 C 
DOCKED: ATOM     10  C   UNL d   1     -10.469   4.535  -3.134 -0.23 -0.00    +0.066 A 
DOCKED: ATOM     11  C   UNL d   1      -9.656   5.636  -3.484 -0.38 +0.00    -0.021 A 
DOCKED: ATOM     12  C   UNL d   1     -10.229   6.200  -4.627 -0.31 -0.00    +0.000 A 
DOCKED: ATOM     13  C   UNL d   1     -11.338   5.397  -4.897 -0.14 -0.03    +0.070 A 
DOCKED: ATOM     14  C   UNL d   1      -8.370   6.044  -2.813 -0.49 -0.01    +0.052 C 
DOCKED: ATOM     15  C   UNL d   1     -13.409   4.985  -6.283 -0.02 -0.01    +0.066 A 
DOCKED: ATOM     16  C   UNL d   1     -14.326   5.406  -7.236 -0.00 +0.00    -0.021 A 
DOCKED: ATOM     17  C   UNL d   1     -15.339   4.436  -7.244 +0.00 +0.00    +0.000 A 
DOCKED: ATOM     18  C   UNL d   1     -14.949   3.487  -6.305 +0.01 +0.00    +0.070 A 
DOCKED: ATOM     19  C   UNL d   1     -14.211   6.664  -8.067 -0.01 -0.01    +0.052 C 
DOCKED: ATOM     20  C   UNL d   1     -15.377   1.403  -4.949 -0.00 +0.02    +0.066 A 
DOCKED: ATOM     21  C   UNL d   1     -16.190   0.313  -4.648 -0.01 -0.01    -0.025 A 
DOCKED: ATOM     22  C   UNL d   1     -15.563  -0.343  -3.604 -0.06 -0.01    -0.021 A 
DOCKED: ATOM     23  C   UNL d   1     -14.395   0.393  -3.310 -0.08 +0.04    +0.066 A 
DOCKED: ATOM     24  C   UNL d   1     -17.510  -0.076  -5.308 +0.00 +0.02    +0.051 C 
DOCKED: ATOM     25  N   UNL d   1     -12.052   2.068  -2.568 -0.07 -0.11    -0.248 N 
DOCKED: ATOM     26  N   UNL d   1     -11.449   4.358  -4.026 -0.07 +0.03    -0.248 N 
DOCKED: ATOM     27  N   UNL d   1     -13.812   3.862  -5.730 +0.00 +0.00    -0.248 N 
DOCKED: ATOM     28  N   UNL d   1     -14.280   1.452  -4.121 -0.01 -0.10    -0.248 N 
DOCKED: ATOM     29 FE   UNL d   1     -12.986   3.015  -4.243 -0.02 +0.00    +0.000 Fe
DOCKED: ENDROOT
DOCKED: BRANCH   6  30
DOCKED: ATOM     30  C   UNL d   1     -11.855  -0.400   0.282 -0.24 +0.04    +0.052 C 
DOCKED: BRANCH  30  31
DOCKED: ATOM     31  C   UNL d   1     -13.039  -0.097   1.200 -0.24 +0.13    +0.115 C 
DOCKED: BRANCH  31  32
DOCKED: ATOM     32  C   UNL d   1     -13.305  -1.215   2.186 -0.23 +0.13    +0.139 C 
DOCKED: ATOM     33  O   UNL d   1     -13.411  -0.954   3.376 +0.01 -0.44    -0.650 OA
DOCKED: BRANCH  32  34
DOCKED: ATOM     34  O   UNL d   1     -13.479  -2.496   1.789 -0.40 -0.98    -0.776 OA
DOCKED: ATOM     35  H   UNL d   1     -14.180  -2.789   1.190 +0.05 +0.28    +0.167 HD
DOCKED: ENDBRANCH  32  34
DOCKED: ENDBRANCH  31  32
DOCKED: ENDBRANCH  30  31
DOCKED: ENDBRANCH   6  30
DOCKED: BRANCH  29  36
DOCKED: ATOM     36  C   UNL d   1     -14.124   4.096  -2.854 -0.08 +0.12    +0.190 C 
DOCKED: BRANCH  36  37
DOCKED: ATOM     37  O   UNL d   1     -15.238   4.004  -2.013 -0.54 -0.54    -0.399 OA
DOCKED: ATOM     38  H   UNL d   1     -15.967   3.646  -2.592 +0.02 +0.20    +0.209 HD
DOCKED: ENDBRANCH  36  37
DOCKED: ENDBRANCH  29  36
DOCKED: BRANCH  22  39
DOCKED: ATOM     39  C   UNL d   1     -16.095  -1.571  -2.890 -0.12 +0.04    +0.052 C 
DOCKED: BRANCH  39  40
DOCKED: ATOM     40  C   UNL d   1     -17.010  -1.166  -1.722 -0.08 +0.10    +0.115 C 
DOCKED: BRANCH  40  41
DOCKED: ATOM     41  C   UNL d   1     -16.276  -0.833  -0.440 -0.12 +0.17    +0.139 C 
DOCKED: ATOM     42  O   UNL d   1     -16.163   0.337  -0.102 -0.38 -1.44    -0.650 OA
DOCKED: BRANCH  41  43
DOCKED: ATOM     43  O   UNL d   1     -15.818  -1.798   0.387 +0.02 -1.00    -0.776 OA
DOCKED: ATOM     44  H   UNL d   1     -15.354  -1.599   1.210 +0.04 +0.21    +0.167 HD
DOCKED: ENDBRANCH  41  43
DOCKED: ENDBRANCH  40  41
DOCKED: ENDBRANCH  39  40
DOCKED: ENDBRANCH  22  39
DOCKED: BRANCH  12  45
DOCKED: ATOM     45  C   UNL d   1      -9.848   7.387  -5.501 -0.30 -0.00    +0.004 C 
DOCKED: ATOM     46  C   UNL d   1     -10.478   8.538  -5.721 -0.39 -0.00    +0.012 C 
DOCKED: ENDBRANCH  12  45
DOCKED: BRANCH  17  47
DOCKED: ATOM     47  C   UNL d   1     -16.613   4.393  -8.022 +0.00 +0.00    +0.004 C 
DOCKED: ATOM     48  C   UNL d   1     -17.816   4.593  -7.478 +0.00 +0.00    +0.012 C 
DOCKED: ENDBRANCH  17  47
DOCKED: TORSDOF 12
DOCKED: TER
DOCKED: ENDMDL
________________________________________________________________________________


	BEGINNING GENETIC ALGORITHM DOCKING 46 of 100
Run: 46 Seed: 514847992 1705724596 [ Run 46 of 100 GA/GALS ]
Beginning LAMARCKIAN GENETIC ALGORITHM (LGA), with a maximum of 25000000 energy evaluations.

Final-Value: -10.111


	FINAL GENETIC ALGORITHM DOCKED STATE
	_______________________________________________


Detailed state:  trans 10.288 -10.852 -6.906 quatxyzw 0.319399 -0.540194 0.774757 0.076986 center 8.781 34.984 -0.736 ntor 12 -116.6208 105.6431 -58.4701 115.2974 132.6379 102.9037 43.0517 -12.8714 180.0000 -175.3569 -165.2835 -179.9371
State:	 10.288 -10.852  -6.906   0.320 -0.542  0.777 171.169   -116.62  105.64  -58.47  115.30  132.64  102.90   43.05  -12.87  180.00 -175.36 -165.28 -179.94

DOCKED: MODEL       46
DOCKED: USER    Run = 46
DOCKED: USER    DPF = D:/Protein_go_brrr/autodock/final/AncMH_nat/heme_Co/dock.dpf
DOCKED: USER  
DOCKED: USER    Estimated Free Energy of Binding    =   -3.24 kcal/mol  [=(1)+(2)+(3)-(4)]
DOCKED: USER    Estimated Inhibition Constant, Ki   =    4.22 mM (millimolar)  [Temperature = 298.15 K]
DOCKED: USER    
DOCKED: USER    (1) Final Intermolecular Energy     =   -6.82 kcal/mol
DOCKED: USER        vdW + Hbond + desolv Energy     =   -7.29 kcal/mol
DOCKED: USER        Electrostatic Energy            =   +0.47 kcal/mol
DOCKED: USER    (2) Final Total Internal Energy     =   -3.29 kcal/mol
DOCKED: USER    (3) Torsional Free Energy           =   +3.58 kcal/mol
DOCKED: USER    (4) Unbound System's Energy  [=(2)] =   -3.29 kcal/mol
DOCKED: USER    
DOCKED: USER    
DOCKED: USER    NEWDPF move heme_Co_opt.pdbqt
DOCKED: USER    NEWDPF about 8.781000 34.984000 -0.736000
DOCKED: USER    NEWDPF tran0 10.288028 -10.852065 -6.905525
DOCKED: USER    NEWDPF quaternion0 0.319399 -0.540194 0.774757 0.076986
DOCKED: USER    NEWDPF axisangle0 0.320350 -0.541802 0.777063 171.169349
DOCKED: USER    NEWDPF quat0 0.320350 -0.541802 0.777063 171.169349
DOCKED: USER    NEWDPF dihe0 -116.62 105.64 -58.47 115.30 132.64 102.90 43.05 -12.87 180.00 -175.36 -165.28 -179.94 
DOCKED: USER  keepresnum = 1 
DOCKED: USER  
DOCKED: REMARK  12 active torsions:
DOCKED: REMARK  status: ('A' for Active; 'I' for Inactive)
DOCKED: REMARK    1  A    between atoms: C_6  and  C_10 
DOCKED: REMARK    2  A    between atoms: C_10  and  C_11 
DOCKED: REMARK    3  A    between atoms: C_11  and  C_12 
DOCKED: REMARK    4  A    between atoms: C_12  and  O_14 
DOCKED: REMARK    5  A    between atoms: C_17  and  C_20 
DOCKED: REMARK    6  A    between atoms: C_24  and  C_27 
DOCKED: REMARK    7  A    between atoms: C_31  and  C_34 
DOCKED: REMARK    8  A    between atoms: C_34  and  C_35 
DOCKED: REMARK    9  A    between atoms: C_35  and  C_36 
DOCKED: REMARK   10  A    between atoms: C_36  and  O_38 
DOCKED: REMARK   11  A    between atoms: FE_43  and  C_44 
DOCKED: REMARK   12  A    between atoms: C_44  and  O_45 
DOCKED: USER                              x       y       z     vdW  Elec       q    Type
DOCKED: USER                           _______ _______ _______ _____ _____    ______ ____
DOCKED: ROOT
DOCKED: ATOM      1  C   UNL d   1      11.201  -9.486  -8.325 -0.29 -0.04    +0.064 A 
DOCKED: ATOM      2  C   UNL d   1      12.974 -11.937  -4.656 -0.22 -0.02    +0.064 C 
DOCKED: ATOM      3  C   UNL d   1       8.593 -13.463  -3.511 -0.20 -0.01    +0.064 A 
DOCKED: ATOM      4  C   UNL d   1       6.811 -11.282  -7.477 -0.22 -0.01    +0.064 A 
DOCKED: ATOM      5  C   UNL d   1      12.002 -10.014  -7.385 -0.26 -0.03    +0.066 A 
DOCKED: ATOM      6  C   UNL d   1      13.401  -9.851  -7.418 -0.26 +0.01    -0.021 A 
DOCKED: ATOM      7  C   UNL d   1      13.912 -10.583  -6.364 -0.24 +0.01    -0.025 A 
DOCKED: ATOM      8  C   UNL d   1      12.804 -11.148  -5.725 -0.24 -0.02    +0.066 A 
DOCKED: ATOM      9  C   UNL d   1      15.385 -10.754  -5.963 -0.18 -0.01    +0.051 C 
DOCKED: ATOM     10  C   UNL d   1      11.892 -12.540  -3.918 -0.20 -0.02    +0.066 A 
DOCKED: ATOM     11  C   UNL d   1      11.996 -13.262  -2.709 -0.14 +0.01    -0.021 A 
DOCKED: ATOM     12  C   UNL d   1      10.703 -13.692  -2.395 -0.17 -0.00    +0.000 A 
DOCKED: ATOM     13  C   UNL d   1       9.908 -13.191  -3.426 -0.20 -0.02    +0.070 A 
DOCKED: ATOM     14  C   UNL d   1      13.240 -13.434  -1.876 -0.10 -0.01    +0.052 C 
DOCKED: ATOM     15  C   UNL d   1       7.637 -13.074  -4.529 -0.20 +0.00    +0.066 A 
DOCKED: ATOM     16  C   UNL d   1       6.324 -13.509  -4.633 -0.10 -0.00    -0.021 A 
DOCKED: ATOM     17  C   UNL d   1       5.806 -12.885  -5.777 -0.20 +0.00    +0.000 A 
DOCKED: ATOM     18  C   UNL d   1       6.844 -12.102  -6.272 -0.21 -0.00    +0.070 A 
DOCKED: ATOM     19  C   UNL d   1       5.638 -14.464  -3.682 -0.12 +0.00    +0.052 C 
DOCKED: ATOM     20  C   UNL d   1       7.832 -10.581  -8.025 -0.21 -0.01    +0.066 A 
DOCKED: ATOM     21  C   UNL d   1       7.687  -9.858  -9.207 -0.23 +0.00    -0.025 A 
DOCKED: ATOM     22  C   UNL d   1       8.930  -9.306  -9.461 -0.27 +0.01    -0.021 A 
DOCKED: ATOM     23  C   UNL d   1       9.780  -9.732  -8.419 -0.29 -0.03    +0.066 A 
DOCKED: ATOM     24  C   UNL d   1       6.433  -9.717 -10.065 -0.31 -0.01    +0.051 C 
DOCKED: ATOM     25  N   UNL d   1      11.607 -10.807  -6.332 -0.14 +0.11    -0.248 N 
DOCKED: ATOM     26  N   UNL d   1      10.619 -12.448  -4.316 -0.02 +0.10    -0.248 N 
DOCKED: ATOM     27  N   UNL d   1       7.928 -12.263  -5.521 -0.15 +0.04    -0.248 N 
DOCKED: ATOM     28  N   UNL d   1       9.120 -10.506  -7.549 -0.14 +0.09    -0.248 N 
DOCKED: ATOM     29 FE   UNL d   1       9.657 -11.576  -5.905 -0.05 -0.00    +0.000 Fe
DOCKED: ENDROOT
DOCKED: BRANCH   6  30
DOCKED: ATOM     30  C   UNL d   1      14.204  -9.090  -8.468 -0.29 -0.04    +0.052 C 
DOCKED: BRANCH  30  31
DOCKED: ATOM     31  C   UNL d   1      14.416  -9.954  -9.711 -0.12 -0.06    +0.115 C 
DOCKED: BRANCH  31  32
DOCKED: ATOM     32  C   UNL d   1      13.822 -11.338  -9.561 -0.03 -0.05    +0.139 C 
DOCKED: ATOM     33  O   UNL d   1      14.485 -12.223  -9.041 +0.04 +0.15    -0.650 OA
DOCKED: BRANCH  32  34
DOCKED: ATOM     34  O   UNL d   1      12.555 -11.620  -9.941 +0.06 +0.24    -0.776 OA
DOCKED: ATOM     35  H   UNL d   1      11.870 -11.957  -9.346 +0.03 -0.05    +0.167 HD
DOCKED: ENDBRANCH  32  34
DOCKED: ENDBRANCH  31  32
DOCKED: ENDBRANCH  30  31
DOCKED: ENDBRANCH   6  30
DOCKED: BRANCH  29  36
DOCKED: ATOM     36  C   UNL d   1      10.163 -13.216  -7.109 -0.06 -0.04    +0.190 C 
DOCKED: BRANCH  36  37
DOCKED: ATOM     37  O   UNL d   1      10.660 -13.561  -8.370 +0.00 +0.07    -0.399 OA
DOCKED: ATOM     38  H   UNL d   1      10.700 -12.701  -8.874 +0.03 -0.04    +0.209 HD
DOCKED: ENDBRANCH  36  37
DOCKED: ENDBRANCH  29  36
DOCKED: BRANCH  22  39
DOCKED: ATOM     39  C   UNL d   1       9.289  -8.469 -10.675 -0.28 -0.02    +0.052 C 
DOCKED: BRANCH  39  40
DOCKED: ATOM     40  C   UNL d   1       9.524  -9.366 -11.902 -0.14 -0.03    +0.115 C 
DOCKED: BRANCH  40  41
DOCKED: ATOM     41  C   UNL d   1       9.372 -10.848 -11.631 -0.04 -0.03    +0.139 C 
DOCKED: ATOM     42  O   UNL d   1       8.596 -11.504 -12.312 +0.03 +0.09    -0.650 OA
DOCKED: BRANCH  41  43
DOCKED: ATOM     43  O   UNL d   1      10.134 -11.485 -10.714 +0.06 +0.18    -0.776 OA
DOCKED: ATOM     44  H   UNL d   1      11.098 -11.426 -10.709 +0.03 -0.05    +0.167 HD
DOCKED: ENDBRANCH  41  43
DOCKED: ENDBRANCH  40  41
DOCKED: ENDBRANCH  39  40
DOCKED: ENDBRANCH  22  39
DOCKED: BRANCH  12  45
DOCKED: ATOM     45  C   UNL d   1      10.129 -14.497  -1.237 -0.12 -0.00    +0.004 C 
DOCKED: ATOM     46  C   UNL d   1       9.384 -14.115  -0.203 -0.15 -0.00    +0.012 C 
DOCKED: ENDBRANCH  12  45
DOCKED: BRANCH  17  47
DOCKED: ATOM     47  C   UNL d   1       4.464 -13.026  -6.416 -0.31 -0.00    +0.004 C 
DOCKED: ATOM     48  C   UNL d   1       3.547 -12.056  -6.429 -0.45 -0.00    +0.012 C 
DOCKED: ENDBRANCH  17  47
DOCKED: TORSDOF 12
DOCKED: TER
DOCKED: ENDMDL
________________________________________________________________________________


	BEGINNING GENETIC ALGORITHM DOCKING 47 of 100
Run: 47 Seed: 1126505558 1419717151 [ Run 47 of 100 GA/GALS ]
Beginning LAMARCKIAN GENETIC ALGORITHM (LGA), with a maximum of 25000000 energy evaluations.

Final-Value: -10.333


	FINAL GENETIC ALGORITHM DOCKED STATE
	_______________________________________________


Detailed state:  trans -19.903 8.973 4.902 quatxyzw 0.724956 0.450022 0.498056 -0.154464 center 8.781 34.984 -0.736 ntor 12 170.8171 -44.7451 49.9676 -119.5791 -91.6622 114.0460 -162.3616 172.9776 26.4593 -61.9779 178.9828 1.3501
State:	-19.903   8.973   4.902   0.734  0.455  0.504 -162.229    170.82  -44.75   49.97 -119.58  -91.66  114.05 -162.36  172.98   26.46  -61.98  178.98    1.35

DOCKED: MODEL       47
DOCKED: USER    Run = 47
DOCKED: USER    DPF = D:/Protein_go_brrr/autodock/final/AncMH_nat/heme_Co/dock.dpf
DOCKED: USER  
DOCKED: USER    Estimated Free Energy of Binding    =   -6.07 kcal/mol  [=(1)+(2)+(3)-(4)]
DOCKED: USER    Estimated Inhibition Constant, Ki   =   35.40 uM (micromolar)  [Temperature = 298.15 K]
DOCKED: USER    
DOCKED: USER    (1) Final Intermolecular Energy     =   -9.65 kcal/mol
DOCKED: USER        vdW + Hbond + desolv Energy     =   -6.43 kcal/mol
DOCKED: USER        Electrostatic Energy            =   -3.23 kcal/mol
DOCKED: USER    (2) Final Total Internal Energy     =   -0.68 kcal/mol
DOCKED: USER    (3) Torsional Free Energy           =   +3.58 kcal/mol
DOCKED: USER    (4) Unbound System's Energy  [=(2)] =   -0.68 kcal/mol
DOCKED: USER    
DOCKED: USER    
DOCKED: USER    NEWDPF move heme_Co_opt.pdbqt
DOCKED: USER    NEWDPF about 8.781000 34.984000 -0.736000
DOCKED: USER    NEWDPF tran0 -19.903185 8.973106 4.901586
DOCKED: USER    NEWDPF quaternion0 0.724956 0.450022 0.498056 -0.154464
DOCKED: USER    NEWDPF axisangle0 0.733763 0.455489 0.504106 -162.228523
DOCKED: USER    NEWDPF quat0 0.733763 0.455489 0.504106 -162.228523
DOCKED: USER    NEWDPF dihe0 170.82 -44.75 49.97 -119.58 -91.66 114.05 -162.36 172.98 26.46 -61.98 178.98 1.35 
DOCKED: USER  keepresnum = 1 
DOCKED: USER  
DOCKED: REMARK  12 active torsions:
DOCKED: REMARK  status: ('A' for Active; 'I' for Inactive)
DOCKED: REMARK    1  A    between atoms: C_6  and  C_10 
DOCKED: REMARK    2  A    between atoms: C_10  and  C_11 
DOCKED: REMARK    3  A    between atoms: C_11  and  C_12 
DOCKED: REMARK    4  A    between atoms: C_12  and  O_14 
DOCKED: REMARK    5  A    between atoms: C_17  and  C_20 
DOCKED: REMARK    6  A    between atoms: C_24  and  C_27 
DOCKED: REMARK    7  A    between atoms: C_31  and  C_34 
DOCKED: REMARK    8  A    between atoms: C_34  and  C_35 
DOCKED: REMARK    9  A    between atoms: C_35  and  C_36 
DOCKED: REMARK   10  A    between atoms: C_36  and  O_38 
DOCKED: REMARK   11  A    between atoms: FE_43  and  C_44 
DOCKED: REMARK   12  A    between atoms: C_44  and  O_45 
DOCKED: USER                              x       y       z     vdW  Elec       q    Type
DOCKED: USER                           _______ _______ _______ _____ _____    ______ ____
DOCKED: ROOT
DOCKED: ATOM      1  C   UNL d   1     -20.578   6.949   4.496 -0.14 +0.04    +0.064 A 
DOCKED: ATOM      2  C   UNL d   1     -18.563  10.258   1.739 -0.10 -0.00    +0.064 C 
DOCKED: ATOM      3  C   UNL d   1     -18.748  13.412   5.323 -0.12 -0.01    +0.064 A 
DOCKED: ATOM      4  C   UNL d   1     -20.451   9.939   8.273 -0.16 +0.01    +0.064 A 
DOCKED: ATOM      5  C   UNL d   1     -20.047   7.632   3.469 -0.12 +0.03    +0.066 A 
DOCKED: ATOM      6  C   UNL d   1     -19.761   7.020   2.233 -0.12 -0.01    -0.021 A 
DOCKED: ATOM      7  C   UNL d   1     -19.155   7.979   1.444 -0.08 -0.01    -0.025 A 
DOCKED: ATOM      8  C   UNL d   1     -19.113   9.138   2.226 -0.07 +0.01    +0.066 A 
DOCKED: ATOM      9  C   UNL d   1     -18.631   7.824   0.009 -0.07 +0.02    +0.051 C 
DOCKED: ATOM     10  C   UNL d   1     -18.498  11.505   2.459 -0.11 -0.01    +0.066 A 
DOCKED: ATOM     11  C   UNL d   1     -18.062  12.749   1.954 -0.11 +0.01    -0.021 A 
DOCKED: ATOM     12  C   UNL d   1     -18.130  13.652   3.019 -0.14 -0.00    +0.000 A 
DOCKED: ATOM     13  C   UNL d   1     -18.613  12.897   4.088 -0.12 -0.01    +0.070 A 
DOCKED: ATOM     14  C   UNL d   1     -17.701  13.054   0.523 +0.01 -0.04    +0.052 C 
DOCKED: ATOM     15  C   UNL d   1     -19.180  12.766   6.547 -0.10 +0.00    +0.066 A 
DOCKED: ATOM     16  C   UNL d   1     -19.159  13.317   7.820 -0.09 -0.00    -0.021 A 
DOCKED: ATOM     17  C   UNL d   1     -19.647  12.318   8.675 -0.11 +0.00    +0.000 A 
DOCKED: ATOM     18  C   UNL d   1     -19.944  11.239   7.850 -0.13 +0.01    +0.070 A 
DOCKED: ATOM     19  C   UNL d   1     -18.693  14.714   8.163 -0.11 -0.00    +0.052 C 
DOCKED: ATOM     20  C   UNL d   1     -20.666   8.847   7.502 -0.18 +0.02    +0.066 A 
DOCKED: ATOM     21  C   UNL d   1     -21.121   7.641   8.031 -0.19 -0.01    -0.025 A 
DOCKED: ATOM     22  C   UNL d   1     -21.195   6.769   6.960 -0.18 -0.01    -0.021 A 
DOCKED: ATOM     23  C   UNL d   1     -20.766   7.488   5.824 -0.16 +0.03    +0.066 A 
DOCKED: ATOM     24  C   UNL d   1     -21.451   7.328   9.488 -0.17 +0.01    +0.051 C 
DOCKED: ATOM     25  N   UNL d   1     -19.664   8.954   3.483 -0.04 -0.06    -0.248 N 
DOCKED: ATOM     26  N   UNL d   1     -18.888  11.613   3.733 -0.06 +0.02    -0.248 N 
DOCKED: ATOM     27  N   UNL d   1     -19.625  11.530   6.594 -0.09 -0.03    -0.248 N 
DOCKED: ATOM     28  N   UNL d   1     -20.442   8.745   6.148 -0.10 -0.07    -0.248 N 
DOCKED: ATOM     29 FE   UNL d   1     -19.645  10.316   5.133 -0.03 +0.00    +0.000 Fe
DOCKED: ENDROOT
DOCKED: BRANCH   6  30
DOCKED: ATOM     30  C   UNL d   1     -19.988   5.557   1.868 -0.15 +0.06    +0.052 C 
DOCKED: BRANCH  30  31
DOCKED: ATOM     31  C   UNL d   1     -18.702   4.752   2.048 -0.13 +0.18    +0.115 C 
DOCKED: BRANCH  31  32
DOCKED: ATOM     32  C   UNL d   1     -18.672   3.510   1.184 -0.12 +0.24    +0.139 C 
DOCKED: ATOM     33  O   UNL d   1     -18.596   3.624  -0.030 -0.03 -0.82    -0.650 OA
DOCKED: BRANCH  32  34
DOCKED: ATOM     34  O   UNL d   1     -18.680   2.265   1.716 -0.56 -1.85    -0.776 OA
DOCKED: ATOM     35  H   UNL d   1     -18.847   1.458   1.209 +0.02 +0.29    +0.167 HD
DOCKED: ENDBRANCH  32  34
DOCKED: ENDBRANCH  31  32
DOCKED: ENDBRANCH  30  31
DOCKED: ENDBRANCH   6  30
DOCKED: BRANCH  29  36
DOCKED: ATOM     36  C   UNL d   1     -17.708   9.624   5.536 -0.29 +0.04    +0.190 C 
DOCKED: BRANCH  36  37
DOCKED: ATOM     37  O   UNL d   1     -16.924   8.467   5.576 -0.34 -0.10    -0.399 OA
DOCKED: ATOM     38  H   UNL d   1     -16.164   8.692   6.182 -0.39 +0.01    +0.209 HD
DOCKED: ENDBRANCH  36  37
DOCKED: ENDBRANCH  29  36
DOCKED: BRANCH  22  39
DOCKED: ATOM     39  C   UNL d   1     -21.594   5.307   7.042 -0.08 +0.03    +0.052 C 
DOCKED: BRANCH  39  40
DOCKED: ATOM     40  C   UNL d   1     -23.040   5.111   6.556 -0.09 +0.06    +0.115 C 
DOCKED: BRANCH  40  41
DOCKED: ATOM     41  C   UNL d   1     -23.164   4.332   5.264 -0.09 +0.12    +0.139 C 
DOCKED: ATOM     42  O   UNL d   1     -22.468   4.644   4.308 -0.42 -0.93    -0.650 OA
DOCKED: BRANCH  41  43
DOCKED: ATOM     43  O   UNL d   1     -23.961   3.245   5.163 -0.01 -0.57    -0.776 OA
DOCKED: ATOM     44  H   UNL d   1     -24.904   3.272   5.368 +0.01 +0.08    +0.167 HD
DOCKED: ENDBRANCH  41  43
DOCKED: ENDBRANCH  40  41
DOCKED: ENDBRANCH  39  40
DOCKED: ENDBRANCH  22  39
DOCKED: BRANCH  12  45
DOCKED: ATOM     45  C   UNL d   1     -17.815  15.136   3.144 -0.12 -0.00    +0.004 C 
DOCKED: ATOM     46  C   UNL d   1     -17.047  15.788   4.013 -0.11 -0.01    +0.012 C 
DOCKED: ENDBRANCH  12  45
DOCKED: BRANCH  17  47
DOCKED: ATOM     47  C   UNL d   1     -19.789  12.321  10.162 -0.14 +0.00    +0.004 C 
DOCKED: ATOM     48  C   UNL d   1     -19.077  11.534  10.972 -0.20 +0.00    +0.012 C 
DOCKED: ENDBRANCH  17  47
DOCKED: TORSDOF 12
DOCKED: TER
DOCKED: ENDMDL
________________________________________________________________________________


	BEGINNING GENETIC ALGORITHM DOCKING 48 of 100
Run: 48 Seed: 468950934 1453393905 [ Run 48 of 100 GA/GALS ]
Beginning LAMARCKIAN GENETIC ALGORITHM (LGA), with a maximum of 25000000 energy evaluations.

Final-Value: -10.750


	FINAL GENETIC ALGORITHM DOCKED STATE
	_______________________________________________


Detailed state:  trans -18.387 -0.600 7.026 quatxyzw -0.276929 0.184534 -0.877180 0.346141 center 8.781 34.984 -0.736 ntor 12 -130.5993 119.6792 3.9178 56.0807 139.6229 153.1364 74.1110 139.5615 92.2785 148.6542 5.1370 23.9599
State:	-18.387  -0.600   7.026  -0.295  0.197 -0.935 139.497   -130.60  119.68    3.92   56.08  139.62  153.14   74.11  139.56   92.28  148.65    5.14   23.96

DOCKED: MODEL       48
DOCKED: USER    Run = 48
DOCKED: USER    DPF = D:/Protein_go_brrr/autodock/final/AncMH_nat/heme_Co/dock.dpf
DOCKED: USER  
DOCKED: USER    Estimated Free Energy of Binding    =   -5.18 kcal/mol  [=(1)+(2)+(3)-(4)]
DOCKED: USER    Estimated Inhibition Constant, Ki   =  160.94 uM (micromolar)  [Temperature = 298.15 K]
DOCKED: USER    
DOCKED: USER    (1) Final Intermolecular Energy     =   -8.75 kcal/mol
DOCKED: USER        vdW + Hbond + desolv Energy     =   -5.37 kcal/mol
DOCKED: USER        Electrostatic Energy            =   -3.39 kcal/mol
DOCKED: USER    (2) Final Total Internal Energy     =   -2.00 kcal/mol
DOCKED: USER    (3) Torsional Free Energy           =   +3.58 kcal/mol
DOCKED: USER    (4) Unbound System's Energy  [=(2)] =   -2.00 kcal/mol
DOCKED: USER    
DOCKED: USER    
DOCKED: USER    NEWDPF move heme_Co_opt.pdbqt
DOCKED: USER    NEWDPF about 8.781000 34.984000 -0.736000
DOCKED: USER    NEWDPF tran0 -18.387358 -0.600183 7.025641
DOCKED: USER    NEWDPF quaternion0 -0.276929 0.184534 -0.877180 0.346141
DOCKED: USER    NEWDPF axisangle0 -0.295176 0.196693 -0.934978 139.497091
DOCKED: USER    NEWDPF quat0 -0.295176 0.196693 -0.934978 139.497091
DOCKED: USER    NEWDPF dihe0 -130.60 119.68 3.92 56.08 139.62 153.14 74.11 139.56 92.28 148.65 5.14 23.96 
DOCKED: USER  keepresnum = 1 
DOCKED: USER  
DOCKED: REMARK  12 active torsions:
DOCKED: REMARK  status: ('A' for Active; 'I' for Inactive)
DOCKED: REMARK    1  A    between atoms: C_6  and  C_10 
DOCKED: REMARK    2  A    between atoms: C_10  and  C_11 
DOCKED: REMARK    3  A    between atoms: C_11  and  C_12 
DOCKED: REMARK    4  A    between atoms: C_12  and  O_14 
DOCKED: REMARK    5  A    between atoms: C_17  and  C_20 
DOCKED: REMARK    6  A    between atoms: C_24  and  C_27 
DOCKED: REMARK    7  A    between atoms: C_31  and  C_34 
DOCKED: REMARK    8  A    between atoms: C_34  and  C_35 
DOCKED: REMARK    9  A    between atoms: C_35  and  C_36 
DOCKED: REMARK   10  A    between atoms: C_36  and  O_38 
DOCKED: REMARK   11  A    between atoms: FE_43  and  C_44 
DOCKED: REMARK   12  A    between atoms: C_44  and  O_45 
DOCKED: USER                              x       y       z     vdW  Elec       q    Type
DOCKED: USER                           _______ _______ _______ _____ _____    ______ ____
DOCKED: ROOT
DOCKED: ATOM      1  C   UNL d   1     -17.871  -1.485   5.111 -0.08 +0.04    +0.064 A 
DOCKED: ATOM      2  C   UNL d   1     -15.411  -0.933   9.142 -0.27 +0.01    +0.064 C 
DOCKED: ATOM      3  C   UNL d   1     -19.021   1.549  11.050 -0.13 +0.01    +0.064 A 
DOCKED: ATOM      4  C   UNL d   1     -21.702   0.669   7.087 -0.05 +0.05    +0.064 A 
DOCKED: ATOM      5  C   UNL d   1     -16.920  -1.485   6.059 -0.09 +0.03    +0.066 A 
DOCKED: ATOM      6  C   UNL d   1     -15.708  -2.187   5.902 -0.16 -0.01    -0.021 A 
DOCKED: ATOM      7  C   UNL d   1     -15.008  -2.042   7.083 -0.27 -0.01    -0.025 A 
DOCKED: ATOM      8  C   UNL d   1     -15.814  -1.245   7.904 -0.08 +0.02    +0.066 A 
DOCKED: ATOM      9  C   UNL d   1     -13.633  -2.626   7.441 -0.26 +0.01    +0.051 C 
DOCKED: ATOM     10  C   UNL d   1     -16.160  -0.098  10.048 -0.30 +0.01    +0.066 A 
DOCKED: ATOM     11  C   UNL d   1     -15.730   0.381  11.305 -0.35 -0.00    -0.021 A 
DOCKED: ATOM     12  C   UNL d   1     -16.800   1.105  11.837 -0.27 +0.00    +0.000 A 
DOCKED: ATOM     13  C   UNL d   1     -17.796   1.025  10.864 -0.20 +0.01    +0.070 A 
DOCKED: ATOM     14  C   UNL d   1     -14.351   0.227  11.894 -0.31 -0.00    +0.052 C 
DOCKED: ATOM     15  C   UNL d   1     -20.178   1.514  10.178 -0.11 +0.02    +0.066 A 
DOCKED: ATOM     16  C   UNL d   1     -21.458   1.950  10.491 -0.06 -0.01    -0.021 A 
DOCKED: ATOM     17  C   UNL d   1     -22.236   1.695   9.352 -0.05 +0.00    +0.000 A 
DOCKED: ATOM     18  C   UNL d   1     -21.362   1.138   8.425 -0.08 +0.03    +0.070 A 
DOCKED: ATOM     19  C   UNL d   1     -21.877   2.564  11.808 -0.03 +0.01    +0.052 C 
DOCKED: ATOM     20  C   UNL d   1     -20.890   0.046   6.201 +0.06 +0.06    +0.066 A 
DOCKED: ATOM     21  C   UNL d   1     -21.342  -0.392   4.958 -0.05 -0.03    -0.025 A 
DOCKED: ATOM     22  C   UNL d   1     -20.252  -0.991   4.354 -0.06 -0.02    -0.021 A 
DOCKED: ATOM     23  C   UNL d   1     -19.183  -0.899   5.271 -0.10 +0.05    +0.066 A 
DOCKED: ATOM     24  C   UNL d   1     -22.749  -0.264   4.381 -0.05 +0.04    +0.051 C 
DOCKED: ATOM     25  N   UNL d   1     -17.002  -0.881   7.293 -0.09 -0.11    -0.248 N 
DOCKED: ATOM     26  N   UNL d   1     -17.388   0.345   9.759 -0.16 -0.06    -0.248 N 
DOCKED: ATOM     27  N   UNL d   1     -20.153   1.017   8.961 -0.08 -0.10    -0.248 N 
DOCKED: ATOM     28  N   UNL d   1     -19.565  -0.274   6.391 -0.08 -0.20    -0.248 N 
DOCKED: ATOM     29 FE   UNL d   1     -18.672   0.124   8.173 -0.03 +0.00    +0.000 Fe
DOCKED: ENDROOT
DOCKED: BRANCH   6  30
DOCKED: ATOM     30  C   UNL d   1     -15.291  -3.023   4.696 -0.19 +0.03    +0.052 C 
DOCKED: BRANCH  30  31
DOCKED: ATOM     31  C   UNL d   1     -14.563  -2.157   3.668 -0.20 +0.08    +0.115 C 
DOCKED: BRANCH  31  32
DOCKED: ATOM     32  C   UNL d   1     -15.509  -1.535   2.664 -0.15 +0.13    +0.139 C 
DOCKED: ATOM     33  O   UNL d   1     -16.257  -2.253   2.018 +0.03 -0.65    -0.650 OA
DOCKED: BRANCH  32  34
DOCKED: ATOM     34  O   UNL d   1     -15.590  -0.195   2.489 -0.01 -1.05    -0.776 OA
DOCKED: ATOM     35  H   UNL d   1     -16.421   0.295   2.421 +0.03 +0.27    +0.167 HD
DOCKED: ENDBRANCH  32  34
DOCKED: ENDBRANCH  31  32
DOCKED: ENDBRANCH  30  31
DOCKED: ENDBRANCH   6  30
DOCKED: BRANCH  29  36
DOCKED: ATOM     36  C   UNL d   1     -19.263  -1.746   8.914 -0.03 +0.06    +0.190 C 
DOCKED: BRANCH  36  37
DOCKED: ATOM     37  O   UNL d   1     -18.917  -3.101   8.924 -0.04 -0.10    -0.399 OA
DOCKED: ATOM     38  H   UNL d   1     -18.033  -3.142   8.463 +0.06 +0.05    +0.209 HD
DOCKED: ENDBRANCH  36  37
DOCKED: ENDBRANCH  29  36
DOCKED: BRANCH  22  39
DOCKED: ATOM     39  C   UNL d   1     -20.261  -1.671   2.998 -0.03 +0.04    +0.052 C 
DOCKED: BRANCH  39  40
DOCKED: ATOM     40  C   UNL d   1     -19.176  -1.075   2.085 -0.04 +0.11    +0.115 C 
DOCKED: BRANCH  40  41
DOCKED: ATOM     41  C   UNL d   1     -18.976   0.417   2.243 -0.02 +0.22    +0.139 C 
DOCKED: ATOM     42  O   UNL d   1     -19.725   1.186   1.657 -0.13 -1.22    -0.650 OA
DOCKED: BRANCH  41  43
DOCKED: ATOM     43  O   UNL d   1     -18.048   0.925   3.083 -0.21 -1.43    -0.776 OA
DOCKED: ATOM     44  H   UNL d   1     -17.376   0.376   3.508 +0.04 +0.22    +0.167 HD
DOCKED: ENDBRANCH  41  43
DOCKED: ENDBRANCH  40  41
DOCKED: ENDBRANCH  39  40
DOCKED: ENDBRANCH  22  39
DOCKED: BRANCH  12  45
DOCKED: ATOM     45  C   UNL d   1     -16.988   1.875  13.137 -0.29 +0.00    +0.004 C 
DOCKED: ATOM     46  C   UNL d   1     -16.206   2.770  13.735 -0.34 +0.00    +0.012 C 
DOCKED: ENDBRANCH  12  45
DOCKED: BRANCH  17  47
DOCKED: ATOM     47  C   UNL d   1     -23.699   1.898   9.132 -0.02 +0.00    +0.004 C 
DOCKED: ATOM     48  C   UNL d   1     -24.198   2.725   8.210 -0.03 +0.00    +0.012 C 
DOCKED: ENDBRANCH  17  47
DOCKED: TORSDOF 12
DOCKED: TER
DOCKED: ENDMDL
________________________________________________________________________________


	BEGINNING GENETIC ALGORITHM DOCKING 49 of 100
Run: 49 Seed: 456789081 1876536024 [ Run 49 of 100 GA/GALS ]
Beginning LAMARCKIAN GENETIC ALGORITHM (LGA), with a maximum of 25000000 energy evaluations.

Final-Value: -10.054


	FINAL GENETIC ALGORITHM DOCKED STATE
	_______________________________________________


Detailed state:  trans -11.460 11.878 15.342 quatxyzw -0.199665 -0.094509 -0.696764 0.682438 center 8.781 34.984 -0.736 ntor 12 -84.0508 108.6710 -100.1366 117.0485 136.7077 106.0306 57.7941 -17.4504 155.3985 -127.8053 -151.6437 136.3898
State:	-11.460  11.878  15.342  -0.273 -0.129 -0.953 93.931    -84.05  108.67 -100.14  117.05  136.71  106.03   57.79  -17.45  155.40 -127.81 -151.64  136.39

DOCKED: MODEL       49
DOCKED: USER    Run = 49
DOCKED: USER    DPF = D:/Protein_go_brrr/autodock/final/AncMH_nat/heme_Co/dock.dpf
DOCKED: USER  
DOCKED: USER    Estimated Free Energy of Binding    =   -2.87 kcal/mol  [=(1)+(2)+(3)-(4)]
DOCKED: USER    Estimated Inhibition Constant, Ki   =    7.89 mM (millimolar)  [Temperature = 298.15 K]
DOCKED: USER    
DOCKED: USER    (1) Final Intermolecular Energy     =   -6.45 kcal/mol
DOCKED: USER        vdW + Hbond + desolv Energy     =   -5.67 kcal/mol
DOCKED: USER        Electrostatic Energy            =   -0.78 kcal/mol
DOCKED: USER    (2) Final Total Internal Energy     =   -3.61 kcal/mol
DOCKED: USER    (3) Torsional Free Energy           =   +3.58 kcal/mol
DOCKED: USER    (4) Unbound System's Energy  [=(2)] =   -3.61 kcal/mol
DOCKED: USER    
DOCKED: USER    
DOCKED: USER    NEWDPF move heme_Co_opt.pdbqt
DOCKED: USER    NEWDPF about 8.781000 34.984000 -0.736000
DOCKED: USER    NEWDPF tran0 -11.460367 11.877937 15.342310
DOCKED: USER    NEWDPF quaternion0 -0.199665 -0.094509 -0.696764 0.682438
DOCKED: USER    NEWDPF axisangle0 -0.273160 -0.129298 -0.953240 93.931036
DOCKED: USER    NEWDPF quat0 -0.273160 -0.129298 -0.953240 93.931036
DOCKED: USER    NEWDPF dihe0 -84.05 108.67 -100.14 117.05 136.71 106.03 57.79 -17.45 155.40 -127.81 -151.64 136.39 
DOCKED: USER  keepresnum = 1 
DOCKED: USER  
DOCKED: REMARK  12 active torsions:
DOCKED: REMARK  status: ('A' for Active; 'I' for Inactive)
DOCKED: REMARK    1  A    between atoms: C_6  and  C_10 
DOCKED: REMARK    2  A    between atoms: C_10  and  C_11 
DOCKED: REMARK    3  A    between atoms: C_11  and  C_12 
DOCKED: REMARK    4  A    between atoms: C_12  and  O_14 
DOCKED: REMARK    5  A    between atoms: C_17  and  C_20 
DOCKED: REMARK    6  A    between atoms: C_24  and  C_27 
DOCKED: REMARK    7  A    between atoms: C_31  and  C_34 
DOCKED: REMARK    8  A    between atoms: C_34  and  C_35 
DOCKED: REMARK    9  A    between atoms: C_35  and  C_36 
DOCKED: REMARK   10  A    between atoms: C_36  and  O_38 
DOCKED: REMARK   11  A    between atoms: FE_43  and  C_44 
DOCKED: REMARK   12  A    between atoms: C_44  and  O_45 
DOCKED: USER                              x       y       z     vdW  Elec       q    Type
DOCKED: USER                           _______ _______ _______ _____ _____    ______ ____
DOCKED: ROOT
DOCKED: ATOM      1  C   UNL d   1     -12.284  10.059  14.488 -0.27 -0.00    +0.064 A 
DOCKED: ATOM      2  C   UNL d   1      -8.320  10.913  16.971 -0.17 -0.02    +0.064 C 
DOCKED: ATOM      3  C   UNL d   1      -9.250  15.599  16.918 -0.12 -0.03    +0.064 A 
DOCKED: ATOM      4  C   UNL d   1     -13.498  14.717  14.718 -0.11 -0.03    +0.064 A 
DOCKED: ATOM      5  C   UNL d   1     -11.114   9.952  15.139 -0.14 -0.01    +0.066 A 
DOCKED: ATOM      6  C   UNL d   1     -10.531   8.702  15.427 -0.29 +0.00    -0.021 A 
DOCKED: ATOM      7  C   UNL d   1      -9.392   8.955  16.167 -0.29 +0.01    -0.025 A 
DOCKED: ATOM      8  C   UNL d   1      -9.321  10.347  16.286 -0.20 -0.01    +0.066 A 
DOCKED: ATOM      9  C   UNL d   1      -8.401   7.935  16.748 -0.30 -0.03    +0.051 C 
DOCKED: ATOM     10  C   UNL d   1      -8.149  12.336  17.124 -0.11 -0.01    +0.066 A 
DOCKED: ATOM     11  C   UNL d   1      -7.047  12.996  17.711 -0.06 +0.00    -0.021 A 
DOCKED: ATOM     12  C   UNL d   1      -7.343  14.361  17.678 -0.07 -0.00    +0.000 A 
DOCKED: ATOM     13  C   UNL d   1      -8.594  14.435  17.065 -0.11 -0.02    +0.070 A 
DOCKED: ATOM     14  C   UNL d   1      -5.766  12.352  18.176 -0.04 -0.01    +0.052 C 
DOCKED: ATOM     15  C   UNL d   1     -10.564  15.850  16.359 -0.09 -0.04    +0.066 A 
DOCKED: ATOM     16  C   UNL d   1     -11.246  17.059  16.369 -0.13 +0.02    -0.021 A 
DOCKED: ATOM     17  C   UNL d   1     -12.472  16.809  15.737 -0.14 -0.00    +0.000 A 
DOCKED: ATOM     18  C   UNL d   1     -12.435  15.466  15.376 -0.16 -0.04    +0.070 A 
DOCKED: ATOM     19  C   UNL d   1     -10.727  18.353  16.955 -0.11 -0.04    +0.052 C 
DOCKED: ATOM     20  C   UNL d   1     -13.520  13.392  14.435 -0.13 -0.02    +0.066 A 
DOCKED: ATOM     21  C   UNL d   1     -14.615  12.779  13.832 -0.13 +0.00    -0.025 A 
DOCKED: ATOM     22  C   UNL d   1     -14.282  11.441  13.726 -0.23 +0.00    -0.021 A 
DOCKED: ATOM     23  C   UNL d   1     -12.994  11.301  14.286 -0.23 -0.01    +0.066 A 
DOCKED: ATOM     24  C   UNL d   1     -15.925  13.431  13.395 -0.10 -0.01    +0.051 C 
DOCKED: ATOM     25  N   UNL d   1     -10.371  10.990  15.653 -0.15 +0.04    -0.248 N 
DOCKED: ATOM     26  N   UNL d   1      -9.055  13.214  16.680 -0.09 +0.08    -0.248 N 
DOCKED: ATOM     27  N   UNL d   1     -11.297  14.920  15.789 -0.00 +0.16    -0.248 N 
DOCKED: ATOM     28  N   UNL d   1     -12.530  12.480  14.718 -0.13 +0.05    -0.248 N 
DOCKED: ATOM     29 FE   UNL d   1     -10.864  13.071  15.723 -0.04 -0.00    +0.000 Fe
DOCKED: ENDROOT
DOCKED: BRANCH   6  30
DOCKED: ATOM     30  C   UNL d   1     -11.096   7.331  15.071 -0.48 -0.01    +0.052 C 
DOCKED: BRANCH  30  31
DOCKED: ATOM     31  C   UNL d   1     -12.374   7.055  15.863 -0.23 -0.01    +0.115 C 
DOCKED: BRANCH  31  32
DOCKED: ATOM     32  C   UNL d   1     -12.416   7.811  17.173 -0.11 -0.00    +0.139 C 
DOCKED: ATOM     33  O   UNL d   1     -11.682   7.468  18.088 +0.05 +0.07    -0.650 OA
DOCKED: BRANCH  32  34
DOCKED: ATOM     34  O   UNL d   1     -13.210   8.892  17.354 +0.06 -0.05    -0.776 OA
DOCKED: ATOM     35  H   UNL d   1     -12.948   9.800  17.147 +0.04 +0.00    +0.167 HD
DOCKED: ENDBRANCH  32  34
DOCKED: ENDBRANCH  31  32
DOCKED: ENDBRANCH  30  31
DOCKED: ENDBRANCH   6  30
DOCKED: BRANCH  29  36
DOCKED: ATOM     36  C   UNL d   1     -11.800  12.672  17.556 -0.03 -0.03    +0.190 C 
DOCKED: BRANCH  36  37
DOCKED: ATOM     37  O   UNL d   1     -12.701  11.804  18.181 +0.00 +0.03    -0.399 OA
DOCKED: ATOM     38  H   UNL d   1     -13.029  11.207  17.453 +0.03 -0.01    +0.209 HD
DOCKED: ENDBRANCH  36  37
DOCKED: ENDBRANCH  29  36
DOCKED: BRANCH  22  39
DOCKED: ATOM     39  C   UNL d   1     -15.183  10.351  13.177 -0.34 +0.00    +0.052 C 
DOCKED: BRANCH  39  40
DOCKED: ATOM     40  C   UNL d   1     -15.400   9.246  14.225 +0.11 +0.06    +0.115 C 
DOCKED: BRANCH  40  41
DOCKED: ATOM     41  C   UNL d   1     -15.740   9.757  15.609 -0.13 +0.08    +0.139 C 
DOCKED: ATOM     42  O   UNL d   1     -16.796   9.422  16.128 -0.29 -0.80    -0.650 OA
DOCKED: BRANCH  41  43
DOCKED: ATOM     43  O   UNL d   1     -14.870  10.503  16.325 +0.05 -0.16    -0.776 OA
DOCKED: ATOM     44  H   UNL d   1     -14.259  10.116  16.966 +0.03 +0.02    +0.167 HD
DOCKED: ENDBRANCH  41  43
DOCKED: ENDBRANCH  40  41
DOCKED: ENDBRANCH  39  40
DOCKED: ENDBRANCH  22  39
DOCKED: BRANCH  12  45
DOCKED: ATOM     45  C   UNL d   1      -6.584  15.599  18.136 -0.05 -0.00    +0.004 C 
DOCKED: ATOM     46  C   UNL d   1      -5.985  16.557  17.433 -0.07 -0.00    +0.012 C 
DOCKED: ENDBRANCH  12  45
DOCKED: BRANCH  17  47
DOCKED: ATOM     47  C   UNL d   1     -13.635  17.720  15.518 -0.09 -0.00    +0.004 C 
DOCKED: ATOM     48  C   UNL d   1     -14.049  18.109  14.309 -0.09 -0.01    +0.012 C 
DOCKED: ENDBRANCH  17  47
DOCKED: TORSDOF 12
DOCKED: TER
DOCKED: ENDMDL
________________________________________________________________________________


	BEGINNING GENETIC ALGORITHM DOCKING 50 of 100
Run: 50 Seed: 1640051674 1235468563 [ Run 50 of 100 GA/GALS ]
Beginning LAMARCKIAN GENETIC ALGORITHM (LGA), with a maximum of 25000000 energy evaluations.

Final-Value: -12.018


	FINAL GENETIC ALGORITHM DOCKED STATE
	_______________________________________________


Detailed state:  trans -14.519 -0.940 1.395 quatxyzw 0.028985 0.554679 0.011486 0.831480 center 8.781 34.984 -0.736 ntor 12 119.2367 100.7975 62.4563 143.0688 79.5137 163.8806 -121.5018 108.3046 -139.0151 -72.2230 -174.2099 132.4572
State:	-14.519  -0.940   1.395   0.052  0.998  0.021 67.498    119.24  100.80   62.46  143.07   79.51  163.88 -121.50  108.30 -139.02  -72.22 -174.21  132.46

DOCKED: MODEL       50
DOCKED: USER    Run = 50
DOCKED: USER    DPF = D:/Protein_go_brrr/autodock/final/AncMH_nat/heme_Co/dock.dpf
DOCKED: USER  
DOCKED: USER    Estimated Free Energy of Binding    =   -6.80 kcal/mol  [=(1)+(2)+(3)-(4)]
DOCKED: USER    Estimated Inhibition Constant, Ki   =   10.32 uM (micromolar)  [Temperature = 298.15 K]
DOCKED: USER    
DOCKED: USER    (1) Final Intermolecular Energy     =  -10.38 kcal/mol
DOCKED: USER        vdW + Hbond + desolv Energy     =   -7.43 kcal/mol
DOCKED: USER        Electrostatic Energy            =   -2.95 kcal/mol
DOCKED: USER    (2) Final Total Internal Energy     =   -1.64 kcal/mol
DOCKED: USER    (3) Torsional Free Energy           =   +3.58 kcal/mol
DOCKED: USER    (4) Unbound System's Energy  [=(2)] =   -1.64 kcal/mol
DOCKED: USER    
DOCKED: USER    
DOCKED: USER    NEWDPF move heme_Co_opt.pdbqt
DOCKED: USER    NEWDPF about 8.781000 34.984000 -0.736000
DOCKED: USER    NEWDPF tran0 -14.519080 -0.940048 1.395290
DOCKED: USER    NEWDPF quaternion0 0.028985 0.554679 0.011486 0.831480
DOCKED: USER    NEWDPF axisangle0 0.052172 0.998424 0.020675 67.497776
DOCKED: USER    NEWDPF quat0 0.052172 0.998424 0.020675 67.497776
DOCKED: USER    NEWDPF dihe0 119.24 100.80 62.46 143.07 79.51 163.88 -121.50 108.30 -139.02 -72.22 -174.21 132.46 
DOCKED: USER  keepresnum = 1 
DOCKED: USER  
DOCKED: REMARK  12 active torsions:
DOCKED: REMARK  status: ('A' for Active; 'I' for Inactive)
DOCKED: REMARK    1  A    between atoms: C_6  and  C_10 
DOCKED: REMARK    2  A    between atoms: C_10  and  C_11 
DOCKED: REMARK    3  A    between atoms: C_11  and  C_12 
DOCKED: REMARK    4  A    between atoms: C_12  and  O_14 
DOCKED: REMARK    5  A    between atoms: C_17  and  C_20 
DOCKED: REMARK    6  A    between atoms: C_24  and  C_27 
DOCKED: REMARK    7  A    between atoms: C_31  and  C_34 
DOCKED: REMARK    8  A    between atoms: C_34  and  C_35 
DOCKED: REMARK    9  A    between atoms: C_35  and  C_36 
DOCKED: REMARK   10  A    between atoms: C_36  and  O_38 
DOCKED: REMARK   11  A    between atoms: FE_43  and  C_44 
DOCKED: REMARK   12  A    between atoms: C_44  and  O_45 
DOCKED: USER                              x       y       z     vdW  Elec       q    Type
DOCKED: USER                           _______ _______ _______ _____ _____    ______ ____
DOCKED: ROOT
DOCKED: ATOM      1  C   UNL d   1     -14.454  -0.519  -0.734 -0.09 +0.09    +0.064 A 
DOCKED: ATOM      2  C   UNL d   1     -17.549  -2.930   1.953 -0.08 +0.05    +0.064 C 
DOCKED: ATOM      3  C   UNL d   1     -14.743  -2.346   5.776 -0.21 +0.02    +0.064 A 
DOCKED: ATOM      4  C   UNL d   1     -11.757   0.448   3.141 -0.31 +0.03    +0.064 A 
DOCKED: ATOM      5  C   UNL d   1     -15.488  -1.252  -0.289 -0.12 +0.09    +0.066 A 
DOCKED: ATOM      6  C   UNL d   1     -16.582  -1.578  -1.113 -0.11 -0.02    -0.021 A 
DOCKED: ATOM      7  C   UNL d   1     -17.488  -2.258  -0.323 -0.08 -0.02    -0.025 A 
DOCKED: ATOM      8  C   UNL d   1     -16.901  -2.332   0.945 -0.07 +0.07    +0.066 A 
DOCKED: ATOM      9  C   UNL d   1     -18.857  -2.823  -0.730 -0.05 +0.04    +0.051 C 
DOCKED: ATOM     10  C   UNL d   1     -17.013  -3.076   3.283 -0.06 +0.05    +0.066 A 
DOCKED: ATOM     11  C   UNL d   1     -17.581  -3.814   4.345 -0.08 -0.01    -0.021 A 
DOCKED: ATOM     12  C   UNL d   1     -16.741  -3.630   5.446 -0.13 +0.00    +0.000 A 
DOCKED: ATOM     13  C   UNL d   1     -15.719  -2.806   4.973 -0.11 +0.03    +0.070 A 
DOCKED: ATOM     14  C   UNL d   1     -18.794  -4.706   4.263 -0.07 +0.02    +0.052 C 
DOCKED: ATOM     15  C   UNL d   1     -13.645  -1.450   5.468 -0.24 +0.02    +0.066 A 
DOCKED: ATOM     16  C   UNL d   1     -12.754  -0.898   6.378 -0.38 -0.00    -0.021 A 
DOCKED: ATOM     17  C   UNL d   1     -11.893  -0.089   5.623 -0.40 +0.00    +0.000 A 
DOCKED: ATOM     18  C   UNL d   1     -12.317  -0.226   4.305 -0.28 +0.03    +0.070 A 
DOCKED: ATOM     19  C   UNL d   1     -12.756  -1.147   7.869 -0.44 +0.00    +0.052 C 
DOCKED: ATOM     20  C   UNL d   1     -12.206   0.398   1.864 -0.26 +0.06    +0.066 A 
DOCKED: ATOM     21  C   UNL d   1     -11.605   1.120   0.835 -0.27 -0.02    -0.025 A 
DOCKED: ATOM     22  C   UNL d   1     -12.344   0.838  -0.300 -0.22 -0.02    -0.021 A 
DOCKED: ATOM     23  C   UNL d   1     -13.374  -0.040   0.099 -0.16 +0.09    +0.066 A 
DOCKED: ATOM     24  C   UNL d   1     -10.398   2.049   0.931 -0.29 +0.02    +0.051 C 
DOCKED: ATOM     25  N   UNL d   1     -15.659  -1.721   0.994 -0.11 -0.31    -0.248 N 
DOCKED: ATOM     26  N   UNL d   1     -15.855  -2.519   3.651 -0.06 -0.18    -0.248 N 
DOCKED: ATOM     27  N   UNL d   1     -13.381  -1.020   4.255 -0.17 -0.12    -0.248 N 
DOCKED: ATOM     28  N   UNL d   1     -13.296  -0.307   1.408 -0.16 -0.29    -0.248 N 
DOCKED: ATOM     29 FE   UNL d   1     -14.450  -1.348   2.719 -0.05 +0.00    +0.000 Fe
DOCKED: ENDROOT
DOCKED: BRANCH   6  30
DOCKED: ATOM     30  C   UNL d   1     -16.773  -1.178  -2.572 -0.09 +0.04    +0.052 C 
DOCKED: BRANCH  30  31
DOCKED: ATOM     31  C   UNL d   1     -17.508   0.159  -2.670 -0.02 +0.08    +0.115 C 
DOCKED: BRANCH  31  32
DOCKED: ATOM     32  C   UNL d   1     -17.063   1.141  -1.608 -0.02 +0.17    +0.139 C 
DOCKED: ATOM     33  O   UNL d   1     -16.394   2.112  -1.930 -0.05 -0.96    -0.650 OA
DOCKED: BRANCH  32  34
DOCKED: ATOM     34  O   UNL d   1     -17.423   1.007  -0.310 -0.25 -1.33    -0.776 OA
DOCKED: ATOM     35  H   UNL d   1     -16.803   0.834   0.411 +0.04 +0.44    +0.167 HD
DOCKED: ENDBRANCH  32  34
DOCKED: ENDBRANCH  31  32
DOCKED: ENDBRANCH  30  31
DOCKED: ENDBRANCH   6  30
DOCKED: BRANCH  29  36
DOCKED: ATOM     36  C   UNL d   1     -15.642   0.344   3.050 +0.15 +0.26    +0.190 C 
DOCKED: BRANCH  36  37
DOCKED: ATOM     37  O   UNL d   1     -16.807   0.988   2.619 -0.18 -0.74    -0.399 OA
DOCKED: ATOM     38  H   UNL d   1     -17.057   0.525   1.771 +0.04 +0.39    +0.209 HD
DOCKED: ENDBRANCH  36  37
DOCKED: ENDBRANCH  29  36
DOCKED: BRANCH  22  39
DOCKED: ATOM     39  C   UNL d   1     -12.106   1.434  -1.674 -0.22 +0.04    +0.052 C 
DOCKED: BRANCH  39  40
DOCKED: ATOM     40  C   UNL d   1     -13.394   2.075  -2.218 -0.11 +0.11    +0.115 C 
DOCKED: BRANCH  40  41
DOCKED: ATOM     41  C   UNL d   1     -13.433   3.585  -2.114 -0.12 +0.13    +0.139 C 
DOCKED: ATOM     42  O   UNL d   1     -14.244   4.113  -1.366 -0.18 -1.07    -0.650 OA
DOCKED: BRANCH  41  43
DOCKED: ATOM     43  O   UNL d   1     -12.536   4.365  -2.758 +0.09 -0.26    -0.776 OA
DOCKED: ATOM     44  H   UNL d   1     -12.523   4.454  -3.720 +0.05 +0.02    +0.167 HD
DOCKED: ENDBRANCH  41  43
DOCKED: ENDBRANCH  40  41
DOCKED: ENDBRANCH  39  40
DOCKED: ENDBRANCH  22  39
DOCKED: BRANCH  12  45
DOCKED: ATOM     45  C   UNL d   1     -16.775  -4.149   6.877 -0.17 +0.00    +0.004 C 
DOCKED: ATOM     46  C   UNL d   1     -15.810  -4.665   7.634 -0.45 +0.00    +0.012 C 
DOCKED: ENDBRANCH  12  45
DOCKED: BRANCH  17  47
DOCKED: ATOM     47  C   UNL d   1     -10.779   0.798   6.073 -0.39 +0.00    +0.004 C 
DOCKED: ATOM     48  C   UNL d   1      -9.729   0.365   6.774 -0.50 +0.00    +0.012 C 
DOCKED: ENDBRANCH  17  47
DOCKED: TORSDOF 12
DOCKED: TER
DOCKED: ENDMDL
________________________________________________________________________________


	BEGINNING GENETIC ALGORITHM DOCKING 51 of 100
Run: 51 Seed: 1533191038 1112276784 [ Run 51 of 100 GA/GALS ]
Beginning LAMARCKIAN GENETIC ALGORITHM (LGA), with a maximum of 25000000 energy evaluations.

Final-Value: -9.024


	FINAL GENETIC ALGORITHM DOCKED STATE
	_______________________________________________


Detailed state:  trans 4.150 20.895 -2.499 quatxyzw 0.370391 -0.924147 -0.050350 0.078916 center 8.781 34.984 -0.736 ntor 12 146.1496 161.6692 -180.0000 115.0794 -116.1187 112.9927 -129.0420 -15.1618 -129.4086 -107.1225 -174.1426 -21.5967
State:	  4.150  20.895  -2.499   0.372 -0.927 -0.051 170.947    146.15  161.67 -180.00  115.08 -116.12  112.99 -129.04  -15.16 -129.41 -107.12 -174.14  -21.60

DOCKED: MODEL       51
DOCKED: USER    Run = 51
DOCKED: USER    DPF = D:/Protein_go_brrr/autodock/final/AncMH_nat/heme_Co/dock.dpf
DOCKED: USER  
DOCKED: USER    Estimated Free Energy of Binding    =   -3.35 kcal/mol  [=(1)+(2)+(3)-(4)]
DOCKED: USER    Estimated Inhibition Constant, Ki   =    3.49 mM (millimolar)  [Temperature = 298.15 K]
DOCKED: USER    
DOCKED: USER    (1) Final Intermolecular Energy     =   -6.93 kcal/mol
DOCKED: USER        vdW + Hbond + desolv Energy     =   -5.82 kcal/mol
DOCKED: USER        Electrostatic Energy            =   -1.11 kcal/mol
DOCKED: USER    (2) Final Total Internal Energy     =   -2.09 kcal/mol
DOCKED: USER    (3) Torsional Free Energy           =   +3.58 kcal/mol
DOCKED: USER    (4) Unbound System's Energy  [=(2)] =   -2.09 kcal/mol
DOCKED: USER    
DOCKED: USER    
DOCKED: USER    NEWDPF move heme_Co_opt.pdbqt
DOCKED: USER    NEWDPF about 8.781000 34.984000 -0.736000
DOCKED: USER    NEWDPF tran0 4.150328 20.895034 -2.498788
DOCKED: USER    NEWDPF quaternion0 0.370391 -0.924147 -0.050350 0.078916
DOCKED: USER    NEWDPF axisangle0 0.371550 -0.927038 -0.050508 170.947429
DOCKED: USER    NEWDPF quat0 0.371550 -0.927038 -0.050508 170.947429
DOCKED: USER    NEWDPF dihe0 146.15 161.67 -180.00 115.08 -116.12 112.99 -129.04 -15.16 -129.41 -107.12 -174.14 -21.60 
DOCKED: USER  keepresnum = 1 
DOCKED: USER  
DOCKED: REMARK  12 active torsions:
DOCKED: REMARK  status: ('A' for Active; 'I' for Inactive)
DOCKED: REMARK    1  A    between atoms: C_6  and  C_10 
DOCKED: REMARK    2  A    between atoms: C_10  and  C_11 
DOCKED: REMARK    3  A    between atoms: C_11  and  C_12 
DOCKED: REMARK    4  A    between atoms: C_12  and  O_14 
DOCKED: REMARK    5  A    between atoms: C_17  and  C_20 
DOCKED: REMARK    6  A    between atoms: C_24  and  C_27 
DOCKED: REMARK    7  A    between atoms: C_31  and  C_34 
DOCKED: REMARK    8  A    between atoms: C_34  and  C_35 
DOCKED: REMARK    9  A    between atoms: C_35  and  C_36 
DOCKED: REMARK   10  A    between atoms: C_36  and  O_38 
DOCKED: REMARK   11  A    between atoms: FE_43  and  C_44 
DOCKED: REMARK   12  A    between atoms: C_44  and  O_45 
DOCKED: USER                              x       y       z     vdW  Elec       q    Type
DOCKED: USER                           _______ _______ _______ _____ _____    ______ ____
DOCKED: ROOT
DOCKED: ATOM      1  C   UNL d   1       5.092  22.435  -1.292 -0.04 +0.01    +0.064 A 
DOCKED: ATOM      2  C   UNL d   1       6.442  20.232  -5.284 -0.08 +0.01    +0.064 C 
DOCKED: ATOM      3  C   UNL d   1       2.624  17.371  -5.041 -0.16 +0.00    +0.064 A 
DOCKED: ATOM      4  C   UNL d   1       1.022  19.858  -1.179 -0.08 +0.01    +0.064 A 
DOCKED: ATOM      5  C   UNL d   1       5.761  22.019  -2.381 -0.05 +0.01    +0.066 A 
DOCKED: ATOM      6  C   UNL d   1       6.924  22.670  -2.837 -0.03 -0.00    -0.021 A 
DOCKED: ATOM      7  C   UNL d   1       7.299  22.041  -4.008 -0.05 -0.00    -0.025 A 
DOCKED: ATOM      8  C   UNL d   1       6.358  21.024  -4.207 -0.05 +0.01    +0.066 A 
DOCKED: ATOM      9  C   UNL d   1       8.493  22.373  -4.916 -0.03 +0.00    +0.051 C 
DOCKED: ATOM     10  C   UNL d   1       5.537  19.145  -5.559 -0.09 +0.01    +0.066 A 
DOCKED: ATOM     11  C   UNL d   1       5.653  18.192  -6.594 -0.20 -0.00    -0.021 A 
DOCKED: ATOM     12  C   UNL d   1       4.528  17.367  -6.497 -0.26 +0.00    +0.000 A 
DOCKED: ATOM     13  C   UNL d   1       3.818  17.869  -5.406 -0.15 +0.01    +0.070 A 
DOCKED: ATOM     14  C   UNL d   1       6.816  18.038  -7.540 -0.23 +0.00    +0.052 C 
DOCKED: ATOM     15  C   UNL d   1       1.734  17.799  -3.979 -0.12 +0.00    +0.066 A 
DOCKED: ATOM     16  C   UNL d   1       0.448  17.335  -3.746 -0.23 -0.00    -0.021 A 
DOCKED: ATOM     17  C   UNL d   1      -0.020  18.051  -2.635 -0.22 +0.00    +0.000 A 
DOCKED: ATOM     18  C   UNL d   1       1.030  18.886  -2.266 -0.12 +0.00    +0.070 A 
DOCKED: ATOM     19  C   UNL d   1      -0.262  16.273  -4.556 -0.43 +0.01    +0.052 C 
DOCKED: ATOM     20  C   UNL d   1       1.997  20.741  -0.856 -0.11 +0.01    +0.066 A 
DOCKED: ATOM     21  C   UNL d   1       1.859  21.652   0.189 -0.10 -0.01    -0.025 A 
DOCKED: ATOM     22  C   UNL d   1       3.029  22.388   0.199 -0.08 -0.01    -0.021 A 
DOCKED: ATOM     23  C   UNL d   1       3.825  21.895  -0.857 -0.07 +0.01    +0.066 A 
DOCKED: ATOM     24  C   UNL d   1       0.662  21.825   1.121 -0.10 +0.01    +0.051 C 
DOCKED: ATOM     25  N   UNL d   1       5.397  20.984  -3.211 -0.05 -0.03    -0.248 N 
DOCKED: ATOM     26  N   UNL d   1       4.457  18.908  -4.806 -0.07 -0.03    -0.248 N 
DOCKED: ATOM     27  N   UNL d   1       2.046  18.731  -3.107 -0.04 -0.02    -0.248 N 
DOCKED: ATOM     28  N   UNL d   1       3.203  20.899  -1.500 -0.05 -0.04    -0.248 N 
DOCKED: ATOM     29 FE   UNL d   1       3.622  19.792  -3.153 -0.02 +0.00    +0.000 Fe
DOCKED: ENDROOT
DOCKED: BRANCH   6  30
DOCKED: ATOM     30  C   UNL d   1       7.588  23.891  -2.211 -0.01 +0.00    +0.052 C 
DOCKED: BRANCH  30  31
DOCKED: ATOM     31  C   UNL d   1       7.018  25.178  -2.807 +0.00 +0.00    +0.115 C 
DOCKED: BRANCH  31  32
DOCKED: ATOM     32  C   UNL d   1       5.505  25.184  -2.826 +0.00 +0.00    +0.139 C 
DOCKED: ATOM     33  O   UNL d   1       4.896  25.813  -1.974 +0.00 -0.02    -0.650 OA
DOCKED: BRANCH  32  34
DOCKED: ATOM     34  O   UNL d   1       4.797  24.552  -3.791 +0.00 -0.02    -0.776 OA
DOCKED: ATOM     35  H   UNL d   1       3.970  24.075  -3.634 +0.00 +0.00    +0.167 HD
DOCKED: ENDBRANCH  32  34
DOCKED: ENDBRANCH  31  32
DOCKED: ENDBRANCH  30  31
DOCKED: ENDBRANCH   6  30
DOCKED: BRANCH  29  36
DOCKED: ATOM     36  C   UNL d   1       2.740  21.247  -4.379 -0.01 +0.01    +0.190 C 
DOCKED: BRANCH  36  37
DOCKED: ATOM     37  O   UNL d   1       2.637  22.628  -4.571 +0.00 -0.01    -0.399 OA
DOCKED: ATOM     38  H   UNL d   1       3.577  22.963  -4.538 +0.00 +0.00    +0.209 HD
DOCKED: ENDBRANCH  36  37
DOCKED: ENDBRANCH  29  36
DOCKED: BRANCH  22  39
DOCKED: ATOM     39  C   UNL d   1       3.332  23.545   1.133 -0.04 +0.01    +0.052 C 
DOCKED: BRANCH  39  40
DOCKED: ATOM     40  C   UNL d   1       3.777  23.028   2.511 -0.09 +0.06    +0.115 C 
DOCKED: BRANCH  40  41
DOCKED: ATOM     41  C   UNL d   1       5.113  22.316   2.509 -0.01 +0.13    +0.139 C 
DOCKED: ATOM     42  O   UNL d   1       6.008  22.721   3.237 -0.10 -0.48    -0.650 OA
DOCKED: BRANCH  41  43
DOCKED: ATOM     43  O   UNL d   1       5.317  21.190   1.790 -0.55 -0.96    -0.776 OA
DOCKED: ATOM     44  H   UNL d   1       6.132  20.676   1.849 -0.50 +0.17    +0.167 HD
DOCKED: ENDBRANCH  41  43
DOCKED: ENDBRANCH  40  41
DOCKED: ENDBRANCH  39  40
DOCKED: ENDBRANCH  22  39
DOCKED: BRANCH  12  45
DOCKED: ATOM     45  C   UNL d   1       4.055  16.158  -7.294 -0.42 +0.00    +0.004 C 
DOCKED: ATOM     46  C   UNL d   1       4.034  14.867  -6.977 -0.34 +0.00    +0.012 C 
DOCKED: ENDBRANCH  12  45
DOCKED: BRANCH  17  47
DOCKED: ATOM     47  C   UNL d   1      -1.358  18.019  -1.973 -0.29 +0.00    +0.004 C 
DOCKED: ATOM     48  C   UNL d   1      -2.001  19.113  -1.557 -0.17 +0.00    +0.012 C 
DOCKED: ENDBRANCH  17  47
DOCKED: TORSDOF 12
DOCKED: TER
DOCKED: ENDMDL
________________________________________________________________________________


	BEGINNING GENETIC ALGORITHM DOCKING 52 of 100
Run: 52 Seed: 319556917 1781990480 [ Run 52 of 100 GA/GALS ]
Beginning LAMARCKIAN GENETIC ALGORITHM (LGA), with a maximum of 25000000 energy evaluations.

Final-Value: -9.662


	FINAL GENETIC ALGORITHM DOCKED STATE
	_______________________________________________


Detailed state:  trans -10.304 -6.478 19.352 quatxyzw 0.524469 -0.065529 0.403648 -0.746798 center 8.781 34.984 -0.736 ntor 12 44.7212 94.6175 -34.4229 135.3997 138.3124 132.4243 -136.9937 -69.0868 -117.3255 -17.7819 -168.3138 -10.8036
State:	-10.304  -6.478  19.352   0.789 -0.099  0.607 -83.373     44.72   94.62  -34.42  135.40  138.31  132.42 -136.99  -69.09 -117.33  -17.78 -168.31  -10.80

DOCKED: MODEL       52
DOCKED: USER    Run = 52
DOCKED: USER    DPF = D:/Protein_go_brrr/autodock/final/AncMH_nat/heme_Co/dock.dpf
DOCKED: USER  
DOCKED: USER    Estimated Free Energy of Binding    =   -4.48 kcal/mol  [=(1)+(2)+(3)-(4)]
DOCKED: USER    Estimated Inhibition Constant, Ki   =  523.67 uM (micromolar)  [Temperature = 298.15 K]
DOCKED: USER    
DOCKED: USER    (1) Final Intermolecular Energy     =   -8.06 kcal/mol
DOCKED: USER        vdW + Hbond + desolv Energy     =   -6.19 kcal/mol
DOCKED: USER        Electrostatic Energy            =   -1.87 kcal/mol
DOCKED: USER    (2) Final Total Internal Energy     =   -1.61 kcal/mol
DOCKED: USER    (3) Torsional Free Energy           =   +3.58 kcal/mol
DOCKED: USER    (4) Unbound System's Energy  [=(2)] =   -1.61 kcal/mol
DOCKED: USER    
DOCKED: USER    
DOCKED: USER    NEWDPF move heme_Co_opt.pdbqt
DOCKED: USER    NEWDPF about 8.781000 34.984000 -0.736000
DOCKED: USER    NEWDPF tran0 -10.304273 -6.477810 19.352276
DOCKED: USER    NEWDPF quaternion0 0.524469 -0.065529 0.403648 -0.746798
DOCKED: USER    NEWDPF axisangle0 0.788614 -0.098532 0.606943 -83.372548
DOCKED: USER    NEWDPF quat0 0.788614 -0.098532 0.606943 -83.372548
DOCKED: USER    NEWDPF dihe0 44.72 94.62 -34.42 135.40 138.31 132.42 -136.99 -69.09 -117.33 -17.78 -168.31 -10.80 
DOCKED: USER  keepresnum = 1 
DOCKED: USER  
DOCKED: REMARK  12 active torsions:
DOCKED: REMARK  status: ('A' for Active; 'I' for Inactive)
DOCKED: REMARK    1  A    between atoms: C_6  and  C_10 
DOCKED: REMARK    2  A    between atoms: C_10  and  C_11 
DOCKED: REMARK    3  A    between atoms: C_11  and  C_12 
DOCKED: REMARK    4  A    between atoms: C_12  and  O_14 
DOCKED: REMARK    5  A    between atoms: C_17  and  C_20 
DOCKED: REMARK    6  A    between atoms: C_24  and  C_27 
DOCKED: REMARK    7  A    between atoms: C_31  and  C_34 
DOCKED: REMARK    8  A    between atoms: C_34  and  C_35 
DOCKED: REMARK    9  A    between atoms: C_35  and  C_36 
DOCKED: REMARK   10  A    between atoms: C_36  and  O_38 
DOCKED: REMARK   11  A    between atoms: FE_43  and  C_44 
DOCKED: REMARK   12  A    between atoms: C_44  and  O_45 
DOCKED: USER                              x       y       z     vdW  Elec       q    Type
DOCKED: USER                           _______ _______ _______ _____ _____    ______ ____
DOCKED: ROOT
DOCKED: ATOM      1  C   UNL d   1     -12.204  -6.739  18.333 -0.19 +0.02    +0.064 A 
DOCKED: ATOM      2  C   UNL d   1      -8.364  -9.519  18.694 -0.17 +0.00    +0.064 C 
DOCKED: ATOM      3  C   UNL d   1      -6.043  -6.072  21.052 -0.13 -0.01    +0.064 A 
DOCKED: ATOM      4  C   UNL d   1     -10.081  -3.359  21.034 -0.12 -0.01    +0.064 A 
DOCKED: ATOM      5  C   UNL d   1     -11.313  -7.738  18.227 -0.19 +0.02    +0.066 A 
DOCKED: ATOM      6  C   UNL d   1     -11.646  -8.978  17.648 -0.22 -0.01    -0.021 A 
DOCKED: ATOM      7  C   UNL d   1     -10.535  -9.789  17.776 -0.16 -0.01    -0.025 A 
DOCKED: ATOM      8  C   UNL d   1      -9.567  -9.004  18.412 -0.14 +0.01    +0.066 A 
DOCKED: ATOM      9  C   UNL d   1     -10.376 -11.248  17.322 -0.22 +0.01    +0.051 C 
DOCKED: ATOM     10  C   UNL d   1      -7.297  -8.781  19.323 -0.18 -0.00    +0.066 A 
DOCKED: ATOM     11  C   UNL d   1      -5.969  -9.219  19.519 -0.21 +0.00    -0.021 A 
DOCKED: ATOM     12  C   UNL d   1      -5.313  -8.193  20.205 -0.24 -0.00    +0.000 A 
DOCKED: ATOM     13  C   UNL d   1      -6.283  -7.203  20.365 -0.19 -0.01    +0.070 A 
DOCKED: ATOM     14  C   UNL d   1      -5.364 -10.495  18.993 -0.02 -0.00    +0.052 C 
DOCKED: ATOM     15  C   UNL d   1      -6.938  -4.974  21.358 -0.12 -0.01    +0.066 A 
DOCKED: ATOM     16  C   UNL d   1      -6.670  -3.902  22.197 -0.08 +0.00    -0.021 A 
DOCKED: ATOM     17  C   UNL d   1      -7.832  -3.118  22.197 -0.09 -0.00    +0.000 A 
DOCKED: ATOM     18  C   UNL d   1      -8.716  -3.767  21.341 -0.13 -0.01    +0.070 A 
DOCKED: ATOM     19  C   UNL d   1      -5.371  -3.672  22.938 -0.05 -0.01    +0.052 C 
DOCKED: ATOM     20  C   UNL d   1     -10.987  -4.020  20.274 -0.13 -0.00    +0.066 A 
DOCKED: ATOM     21  C   UNL d   1     -12.283  -3.545  20.081 -0.13 +0.00    -0.025 A 
DOCKED: ATOM     22  C   UNL d   1     -12.909  -4.484  19.283 -0.14 -0.00    -0.021 A 
DOCKED: ATOM     23  C   UNL d   1     -11.961  -5.500  19.036 +0.01 +0.02    +0.066 A 
DOCKED: ATOM     24  C   UNL d   1     -12.901  -2.269  20.646 -0.09 -0.00    +0.051 C 
DOCKED: ATOM     25  N   UNL d   1     -10.020  -7.727  18.698 -0.10 -0.03    -0.248 N 
DOCKED: ATOM     26  N   UNL d   1      -7.465  -7.536  19.782 -0.13 +0.02    -0.248 N 
DOCKED: ATOM     27  N   UNL d   1      -8.161  -4.884  20.884 -0.11 +0.02    -0.248 N 
DOCKED: ATOM     28  N   UNL d   1     -10.797  -5.224  19.636 -0.11 -0.02    -0.248 N 
DOCKED: ATOM     29 FE   UNL d   1      -9.038  -6.219  19.855 -0.04 -0.00    +0.000 Fe
DOCKED: ENDROOT
DOCKED: BRANCH   6  30
DOCKED: ATOM     30  C   UNL d   1     -13.001  -9.380  17.075 +0.11 +0.03    +0.052 C 
DOCKED: BRANCH  30  31
DOCKED: ATOM     31  C   UNL d   1     -13.928  -9.876  18.185 -0.14 +0.06    +0.115 C 
DOCKED: BRANCH  31  32
DOCKED: ATOM     32  C   UNL d   1     -14.193  -8.816  19.232 -0.11 +0.07    +0.139 C 
DOCKED: ATOM     33  O   UNL d   1     -15.178  -8.100  19.126 -0.26 -0.66    -0.650 OA
DOCKED: BRANCH  32  34
DOCKED: ATOM     34  O   UNL d   1     -13.398  -8.663  20.316 +0.04 -0.19    -0.776 OA
DOCKED: ATOM     35  H   UNL d   1     -12.433  -8.725  20.296 +0.02 +0.03    +0.167 HD
DOCKED: ENDBRANCH  32  34
DOCKED: ENDBRANCH  31  32
DOCKED: ENDBRANCH  30  31
DOCKED: ENDBRANCH   6  30
DOCKED: BRANCH  29  36
DOCKED: ATOM     36  C   UNL d   1      -9.778  -7.200  21.554 -0.02 +0.00    +0.190 C 
DOCKED: BRANCH  36  37
DOCKED: ATOM     37  O   UNL d   1     -10.781  -8.073  21.988 +0.00 -0.01    -0.399 OA
DOCKED: ATOM     38  H   UNL d   1     -11.478  -8.037  21.275 +0.02 +0.02    +0.209 HD
DOCKED: ENDBRANCH  36  37
DOCKED: ENDBRANCH  29  36
DOCKED: BRANCH  22  39
DOCKED: ATOM     39  C   UNL d   1     -14.359  -4.435  18.839 -0.16 +0.02    +0.052 C 
DOCKED: BRANCH  39  40
DOCKED: ATOM     40  C   UNL d   1     -14.492  -3.693  17.499 -0.21 +0.05    +0.115 C 
DOCKED: BRANCH  40  41
DOCKED: ATOM     41  C   UNL d   1     -15.732  -4.051  16.707 -0.14 +0.13    +0.139 C 
DOCKED: ATOM     42  O   UNL d   1     -16.828  -3.703  17.123 -0.24 -0.53    -0.650 OA
DOCKED: BRANCH  41  43
DOCKED: ATOM     43  O   UNL d   1     -15.655  -4.668  15.507 -0.19 -0.91    -0.776 OA
DOCKED: ATOM     44  H   UNL d   1     -14.895  -4.568  14.919 -0.48 +0.05    +0.167 HD
DOCKED: ENDBRANCH  41  43
DOCKED: ENDBRANCH  40  41
DOCKED: ENDBRANCH  39  40
DOCKED: ENDBRANCH  22  39
DOCKED: BRANCH  12  45
DOCKED: ATOM     45  C   UNL d   1      -3.886  -8.027  20.708 -0.23 -0.00    +0.004 C 
DOCKED: ATOM     46  C   UNL d   1      -3.006  -7.049  20.510 -0.26 -0.01    +0.012 C 
DOCKED: ENDBRANCH  12  45
DOCKED: BRANCH  17  47
DOCKED: ATOM     47  C   UNL d   1      -8.146  -1.877  22.967 -0.05 -0.00    +0.004 C 
DOCKED: ATOM     48  C   UNL d   1      -8.384  -0.694  22.394 -0.07 -0.00    +0.012 C 
DOCKED: ENDBRANCH  17  47
DOCKED: TORSDOF 12
DOCKED: TER
DOCKED: ENDMDL
________________________________________________________________________________


	BEGINNING GENETIC ALGORITHM DOCKING 53 of 100
Run: 53 Seed: 1193438668 1651574645 [ Run 53 of 100 GA/GALS ]
Beginning LAMARCKIAN GENETIC ALGORITHM (LGA), with a maximum of 25000000 energy evaluations.

Final-Value: -10.177


	FINAL GENETIC ALGORITHM DOCKED STATE
	_______________________________________________


Detailed state:  trans -6.701 -10.153 18.173 quatxyzw -0.383064 0.105688 -0.617234 0.679054 center 8.781 34.984 -0.736 ntor 12 145.4524 81.6171 -71.6114 116.0197 147.5748 132.7119 -123.6934 -42.0164 -126.4151 -124.6231 -176.5800 140.2582
State:	 -6.701 -10.153  18.173  -0.522  0.144 -0.841 94.461    145.45   81.62  -71.61  116.02  147.57  132.71 -123.69  -42.02 -126.42 -124.62 -176.58  140.26

DOCKED: MODEL       53
DOCKED: USER    Run = 53
DOCKED: USER    DPF = D:/Protein_go_brrr/autodock/final/AncMH_nat/heme_Co/dock.dpf
DOCKED: USER  
DOCKED: USER    Estimated Free Energy of Binding    =   -2.86 kcal/mol  [=(1)+(2)+(3)-(4)]
DOCKED: USER    Estimated Inhibition Constant, Ki   =    8.08 mM (millimolar)  [Temperature = 298.15 K]
DOCKED: USER    
DOCKED: USER    (1) Final Intermolecular Energy     =   -6.43 kcal/mol
DOCKED: USER        vdW + Hbond + desolv Energy     =   -6.38 kcal/mol
DOCKED: USER        Electrostatic Energy            =   -0.06 kcal/mol
DOCKED: USER    (2) Final Total Internal Energy     =   -3.74 kcal/mol
DOCKED: USER    (3) Torsional Free Energy           =   +3.58 kcal/mol
DOCKED: USER    (4) Unbound System's Energy  [=(2)] =   -3.74 kcal/mol
DOCKED: USER    
DOCKED: USER    
DOCKED: USER    NEWDPF move heme_Co_opt.pdbqt
DOCKED: USER    NEWDPF about 8.781000 34.984000 -0.736000
DOCKED: USER    NEWDPF tran0 -6.701046 -10.152543 18.172832
DOCKED: USER    NEWDPF quaternion0 -0.383064 0.105688 -0.617234 0.679054
DOCKED: USER    NEWDPF axisangle0 -0.521823 0.143971 -0.840817 94.460502
DOCKED: USER    NEWDPF quat0 -0.521823 0.143971 -0.840817 94.460502
DOCKED: USER    NEWDPF dihe0 145.45 81.62 -71.61 116.02 147.57 132.71 -123.69 -42.02 -126.42 -124.62 -176.58 140.26 
DOCKED: USER  keepresnum = 1 
DOCKED: USER  
DOCKED: REMARK  12 active torsions:
DOCKED: REMARK  status: ('A' for Active; 'I' for Inactive)
DOCKED: REMARK    1  A    between atoms: C_6  and  C_10 
DOCKED: REMARK    2  A    between atoms: C_10  and  C_11 
DOCKED: REMARK    3  A    between atoms: C_11  and  C_12 
DOCKED: REMARK    4  A    between atoms: C_12  and  O_14 
DOCKED: REMARK    5  A    between atoms: C_17  and  C_20 
DOCKED: REMARK    6  A    between atoms: C_24  and  C_27 
DOCKED: REMARK    7  A    between atoms: C_31  and  C_34 
DOCKED: REMARK    8  A    between atoms: C_34  and  C_35 
DOCKED: REMARK    9  A    between atoms: C_35  and  C_36 
DOCKED: REMARK   10  A    between atoms: C_36  and  O_38 
DOCKED: REMARK   11  A    between atoms: FE_43  and  C_44 
DOCKED: REMARK   12  A    between atoms: C_44  and  O_45 
DOCKED: USER                              x       y       z     vdW  Elec       q    Type
DOCKED: USER                           _______ _______ _______ _____ _____    ______ ____
DOCKED: ROOT
DOCKED: ATOM      1  C   UNL d   1      -7.857 -11.092  16.593 -0.23 +0.03    +0.064 A 
DOCKED: ATOM      2  C   UNL d   1      -3.910 -12.422  18.888 -0.11 -0.00    +0.064 C 
DOCKED: ATOM      3  C   UNL d   1      -3.816  -8.252  21.219 -0.13 -0.01    +0.064 A 
DOCKED: ATOM      4  C   UNL d   1      -8.058  -7.029  19.176 -0.25 -0.00    +0.064 A 
DOCKED: ATOM      5  C   UNL d   1      -6.765 -11.747  17.022 -0.21 +0.02    +0.066 A 
DOCKED: ATOM      6  C   UNL d   1      -6.475 -13.064  16.614 -0.22 -0.01    -0.021 A 
DOCKED: ATOM      7  C   UNL d   1      -5.342 -13.453  17.300 -0.13 -0.00    -0.025 A 
DOCKED: ATOM      8  C   UNL d   1      -4.979 -12.352  18.085 -0.11 +0.00    +0.066 A 
DOCKED: ATOM      9  C   UNL d   1      -4.616 -14.805  17.231 -0.13 -0.00    +0.051 C 
DOCKED: ATOM     10  C   UNL d   1      -3.446 -11.333  19.710 -0.05 -0.01    +0.066 A 
DOCKED: ATOM     11  C   UNL d   1      -2.255 -11.295  20.467 -0.08 +0.00    -0.021 A 
DOCKED: ATOM     12  C   UNL d   1      -2.251 -10.066  21.133 -0.08 -0.00    +0.000 A 
DOCKED: ATOM     13  C   UNL d   1      -3.430  -9.443  20.726 -0.10 -0.01    +0.070 A 
DOCKED: ATOM     14  C   UNL d   1      -1.162 -12.332  20.462 -0.05 -0.01    +0.052 C 
DOCKED: ATOM     15  C   UNL d   1      -5.021  -7.493  20.951 -0.17 -0.01    +0.066 A 
DOCKED: ATOM     16  C   UNL d   1      -5.429  -6.338  21.603 -0.12 +0.00    -0.021 A 
DOCKED: ATOM     17  C   UNL d   1      -6.653  -5.983  21.019 -0.16 -0.00    +0.000 A 
DOCKED: ATOM     18  C   UNL d   1      -6.888  -6.943  20.041 -0.18 -0.01    +0.070 A 
DOCKED: ATOM     19  C   UNL d   1      -4.671  -5.644  22.714 -0.07 -0.01    +0.052 C 
DOCKED: ATOM     20  C   UNL d   1      -8.349  -8.001  18.278 -0.28 -0.00    +0.066 A 
DOCKED: ATOM     21  C   UNL d   1      -9.524  -7.993  17.530 -0.34 -0.00    -0.025 A 
DOCKED: ATOM     22  C   UNL d   1      -9.480  -9.138  16.755 -0.32 -0.01    -0.021 A 
DOCKED: ATOM     23  C   UNL d   1      -8.277  -9.798  17.080 -0.29 +0.01    +0.066 A 
DOCKED: ATOM     24  C   UNL d   1     -10.644  -6.957  17.565 -0.10 +0.01    +0.051 C 
DOCKED: ATOM     25  N   UNL d   1      -5.841 -11.280  17.928 -0.07 -0.02    -0.248 N 
DOCKED: ATOM     26  N   UNL d   1      -4.124 -10.185  19.823 +0.00 +0.02    -0.248 N 
DOCKED: ATOM     27  N   UNL d   1      -5.911  -7.843  20.049 -0.17 +0.04    -0.248 N 
DOCKED: ATOM     28  N   UNL d   1      -7.590  -9.115  18.004 -0.18 +0.00    -0.248 N 
DOCKED: ATOM     29 FE   UNL d   1      -5.881  -9.458  19.049 -0.05 -0.00    +0.000 Fe
DOCKED: ENDROOT
DOCKED: BRANCH   6  30
DOCKED: ATOM     30  C   UNL d   1      -7.305 -13.927  15.669 -0.34 +0.03    +0.052 C 
DOCKED: BRANCH  30  31
DOCKED: ATOM     31  C   UNL d   1      -8.299 -14.781  16.455 -0.26 +0.02    +0.115 C 
DOCKED: BRANCH  31  32
DOCKED: ATOM     32  C   UNL d   1      -9.130 -13.960  17.417 -0.15 +0.02    +0.139 C 
DOCKED: ATOM     33  O   UNL d   1     -10.305 -13.743  17.163 +0.00 -0.01    -0.650 OA
DOCKED: BRANCH  32  34
DOCKED: ATOM     34  O   UNL d   1      -8.626 -13.494  18.584 +0.07 -0.05    -0.776 OA
DOCKED: ATOM     35  H   UNL d   1      -8.826 -12.623  18.954 +0.03 +0.01    +0.167 HD
DOCKED: ENDBRANCH  32  34
DOCKED: ENDBRANCH  31  32
DOCKED: ENDBRANCH  30  31
DOCKED: ENDBRANCH   6  30
DOCKED: BRANCH  29  36
DOCKED: ATOM     36  C   UNL d   1      -6.957 -10.512  20.508 -0.04 -0.01    +0.190 C 
DOCKED: BRANCH  36  37
DOCKED: ATOM     37  O   UNL d   1      -7.764 -11.637  20.700 +0.00 +0.00    -0.399 OA
DOCKED: ATOM     38  H   UNL d   1      -8.250 -11.755  19.837 +0.03 +0.01    +0.209 HD
DOCKED: ENDBRANCH  36  37
DOCKED: ENDBRANCH  29  36
DOCKED: BRANCH  22  39
DOCKED: ATOM     39  C   UNL d   1     -10.569  -9.599  15.804 -0.47 +0.02    +0.052 C 
DOCKED: BRANCH  39  40
DOCKED: ATOM     40  C   UNL d   1     -11.128 -10.964  16.240 -0.27 +0.04    +0.115 C 
DOCKED: BRANCH  40  41
DOCKED: ATOM     41  C   UNL d   1     -11.517 -11.042  17.701 -0.17 +0.02    +0.139 C 
DOCKED: ATOM     42  O   UNL d   1     -12.683 -10.858  18.021 -0.01 -0.13    -0.650 OA
DOCKED: BRANCH  41  43
DOCKED: ATOM     43  O   UNL d   1     -10.627 -11.397  18.655 +0.08 -0.08    -0.776 OA
DOCKED: ATOM     44  H   UNL d   1     -10.232 -12.277  18.694 +0.04 +0.01    +0.167 HD
DOCKED: ENDBRANCH  41  43
DOCKED: ENDBRANCH  40  41
DOCKED: ENDBRANCH  39  40
DOCKED: ENDBRANCH  22  39
DOCKED: BRANCH  12  45
DOCKED: ATOM     45  C   UNL d   1      -1.265  -9.406  22.087 -0.06 -0.00    +0.004 C 
DOCKED: ATOM     46  C   UNL d   1      -0.433  -8.384  21.903 -0.06 -0.00    +0.012 C 
DOCKED: ENDBRANCH  12  45
DOCKED: BRANCH  17  47
DOCKED: ATOM     47  C   UNL d   1      -7.584  -4.866  21.360 -0.15 -0.00    +0.004 C 
DOCKED: ATOM     48  C   UNL d   1      -8.017  -3.970  20.471 -0.26 -0.00    +0.012 C 
DOCKED: ENDBRANCH  17  47
DOCKED: TORSDOF 12
DOCKED: TER
DOCKED: ENDMDL
________________________________________________________________________________


	BEGINNING GENETIC ALGORITHM DOCKING 54 of 100
Run: 54 Seed: 482660726 1966440885 [ Run 54 of 100 GA/GALS ]
Beginning LAMARCKIAN GENETIC ALGORITHM (LGA), with a maximum of 25000000 energy evaluations.

Final-Value: -11.627


	FINAL GENETIC ALGORITHM DOCKED STATE
	_______________________________________________


Detailed state:  trans -16.330 -1.845 1.603 quatxyzw 0.232144 0.137051 -0.175150 0.946915 center 8.781 34.984 -0.736 ntor 12 -106.4883 120.7650 69.3096 -91.5168 99.9749 105.7700 45.4830 -134.6201 144.2396 111.5444 -144.8188 22.4425
State:	-16.330  -1.845   1.603   0.722  0.426 -0.545 37.505   -106.49  120.77   69.31  -91.52   99.97  105.77   45.48 -134.62  144.24  111.54 -144.82   22.44

DOCKED: MODEL       54
DOCKED: USER    Run = 54
DOCKED: USER    DPF = D:/Protein_go_brrr/autodock/final/AncMH_nat/heme_Co/dock.dpf
DOCKED: USER  
DOCKED: USER    Estimated Free Energy of Binding    =   -5.75 kcal/mol  [=(1)+(2)+(3)-(4)]
DOCKED: USER    Estimated Inhibition Constant, Ki   =   60.71 uM (micromolar)  [Temperature = 298.15 K]
DOCKED: USER    
DOCKED: USER    (1) Final Intermolecular Energy     =   -9.33 kcal/mol
DOCKED: USER        vdW + Hbond + desolv Energy     =   -6.83 kcal/mol
DOCKED: USER        Electrostatic Energy            =   -2.51 kcal/mol
DOCKED: USER    (2) Final Total Internal Energy     =   -2.29 kcal/mol
DOCKED: USER    (3) Torsional Free Energy           =   +3.58 kcal/mol
DOCKED: USER    (4) Unbound System's Energy  [=(2)] =   -2.29 kcal/mol
DOCKED: USER    
DOCKED: USER    
DOCKED: USER    NEWDPF move heme_Co_opt.pdbqt
DOCKED: USER    NEWDPF about 8.781000 34.984000 -0.736000
DOCKED: USER    NEWDPF tran0 -16.329611 -1.844550 1.602983
DOCKED: USER    NEWDPF quaternion0 0.232144 0.137051 -0.175150 0.946915
DOCKED: USER    NEWDPF axisangle0 0.722103 0.426310 -0.544818 37.505231
DOCKED: USER    NEWDPF quat0 0.722103 0.426310 -0.544818 37.505231
DOCKED: USER    NEWDPF dihe0 -106.49 120.77 69.31 -91.52 99.97 105.77 45.48 -134.62 144.24 111.54 -144.82 22.44 
DOCKED: USER  keepresnum = 1 
DOCKED: USER  
DOCKED: REMARK  12 active torsions:
DOCKED: REMARK  status: ('A' for Active; 'I' for Inactive)
DOCKED: REMARK    1  A    between atoms: C_6  and  C_10 
DOCKED: REMARK    2  A    between atoms: C_10  and  C_11 
DOCKED: REMARK    3  A    between atoms: C_11  and  C_12 
DOCKED: REMARK    4  A    between atoms: C_12  and  O_14 
DOCKED: REMARK    5  A    between atoms: C_17  and  C_20 
DOCKED: REMARK    6  A    between atoms: C_24  and  C_27 
DOCKED: REMARK    7  A    between atoms: C_31  and  C_34 
DOCKED: REMARK    8  A    between atoms: C_34  and  C_35 
DOCKED: REMARK    9  A    between atoms: C_35  and  C_36 
DOCKED: REMARK   10  A    between atoms: C_36  and  O_38 
DOCKED: REMARK   11  A    between atoms: FE_43  and  C_44 
DOCKED: REMARK   12  A    between atoms: C_44  and  O_45 
DOCKED: USER                              x       y       z     vdW  Elec       q    Type
DOCKED: USER                           _______ _______ _______ _____ _____    ______ ____
DOCKED: ROOT
DOCKED: ATOM      1  C   UNL d   1     -17.917  -2.528   0.288 -0.06 +0.06    +0.064 A 
DOCKED: ATOM      2  C   UNL d   1     -17.343  -2.777   5.002 -0.08 +0.03    +0.064 C 
DOCKED: ATOM      3  C   UNL d   1     -12.972  -0.888   4.607 -0.26 +0.03    +0.064 A 
DOCKED: ATOM      4  C   UNL d   1     -13.686  -0.266  -0.164 -0.18 +0.09    +0.064 A 
DOCKED: ATOM      5  C   UNL d   1     -18.067  -2.768   1.601 -0.04 +0.05    +0.066 A 
DOCKED: ATOM      6  C   UNL d   1     -19.270  -3.267   2.137 -0.01 -0.01    -0.021 A 
DOCKED: ATOM      7  C   UNL d   1     -19.106  -3.316   3.508 -0.02 -0.01    -0.025 A 
DOCKED: ATOM      8  C   UNL d   1     -17.805  -2.861   3.748 -0.03 +0.04    +0.066 A 
DOCKED: ATOM      9  C   UNL d   1     -20.126  -3.770   4.563 -0.06 +0.02    +0.051 C 
DOCKED: ATOM     10  C   UNL d   1     -16.010  -2.346   5.344 -0.11 +0.03    +0.066 A 
DOCKED: ATOM     11  C   UNL d   1     -15.419  -2.370   6.626 -0.22 -0.01    -0.021 A 
DOCKED: ATOM     12  C   UNL d   1     -14.144  -1.817   6.481 -0.31 +0.00    +0.000 A 
DOCKED: ATOM     13  C   UNL d   1     -14.047  -1.510   5.124 -0.20 +0.03    +0.070 A 
DOCKED: ATOM     14  C   UNL d   1     -16.015  -2.973   7.872 -0.29 +0.01    +0.052 C 
DOCKED: ATOM     15  C   UNL d   1     -12.728  -0.451   3.247 -0.18 +0.04    +0.066 A 
DOCKED: ATOM     16  C   UNL d   1     -11.659   0.317   2.808 -0.30 -0.01    -0.021 A 
DOCKED: ATOM     17  C   UNL d   1     -11.862   0.501   1.433 -0.29 +0.00    +0.000 A 
DOCKED: ATOM     18  C   UNL d   1     -13.034  -0.186   1.137 -0.23 +0.08    +0.070 A 
DOCKED: ATOM     19  C   UNL d   1     -10.531   0.827   3.677 -0.22 +0.02    +0.052 C 
DOCKED: ATOM     20  C   UNL d   1     -14.871  -0.854  -0.458 -0.14 +0.09    +0.066 A 
DOCKED: ATOM     21  C   UNL d   1     -15.412  -0.834  -1.741 -0.14 -0.03    -0.025 A 
DOCKED: ATOM     22  C   UNL d   1     -16.619  -1.503  -1.648 -0.11 -0.02    -0.021 A 
DOCKED: ATOM     23  C   UNL d   1     -16.760  -1.892  -0.298 -0.09 +0.07    +0.066 A 
DOCKED: ATOM     24  C   UNL d   1     -14.820  -0.190  -2.992 -0.12 +0.04    +0.051 C 
DOCKED: ATOM     25  N   UNL d   1     -17.136  -2.520   2.584 -0.03 -0.20    -0.248 N 
DOCKED: ATOM     26  N   UNL d   1     -15.154  -1.882   4.428 -0.09 -0.14    -0.248 N 
DOCKED: ATOM     27  N   UNL d   1     -13.539  -0.715   2.246 -0.17 -0.24    -0.248 N 
DOCKED: ATOM     28  N   UNL d   1     -15.705  -1.499   0.425 -0.12 -0.32    -0.248 N 
DOCKED: ATOM     29 FE   UNL d   1     -15.231  -1.564   2.402 -0.04 +0.00    +0.000 Fe
DOCKED: ENDROOT
DOCKED: BRANCH   6  30
DOCKED: ATOM     30  C   UNL d   1     -20.542  -3.599   1.364 +0.00 +0.02    +0.052 C 
DOCKED: BRANCH  30  31
DOCKED: ATOM     31  C   UNL d   1     -21.083  -2.355   0.660 +0.01 +0.05    +0.115 C 
DOCKED: BRANCH  31  32
DOCKED: ATOM     32  C   UNL d   1     -20.917  -1.102   1.493 -0.01 +0.10    +0.139 C 
DOCKED: ATOM     33  O   UNL d   1     -21.753  -0.829   2.341 -0.01 -0.51    -0.650 OA
DOCKED: BRANCH  32  34
DOCKED: ATOM     34  O   UNL d   1     -19.841  -0.292   1.364 +0.04 -0.78    -0.776 OA
DOCKED: ATOM     35  H   UNL d   1     -19.151  -0.193   2.034 +0.02 +0.20    +0.167 HD
DOCKED: ENDBRANCH  32  34
DOCKED: ENDBRANCH  31  32
DOCKED: ENDBRANCH  30  31
DOCKED: ENDBRANCH   6  30
DOCKED: BRANCH  29  36
DOCKED: ATOM     36  C   UNL d   1     -16.235   0.247   2.726 -0.05 +0.28    +0.190 C 
DOCKED: BRANCH  36  37
DOCKED: ATOM     37  O   UNL d   1     -17.341   0.998   2.313 -0.26 -0.75    -0.399 OA
DOCKED: ATOM     38  H   UNL d   1     -17.853   0.390   1.710 +0.04 +0.32    +0.209 HD
DOCKED: ENDBRANCH  36  37
DOCKED: ENDBRANCH  29  36
DOCKED: BRANCH  22  39
DOCKED: ATOM     39  C   UNL d   1     -17.607  -1.699  -2.782 -0.06 +0.03    +0.052 C 
DOCKED: BRANCH  39  40
DOCKED: ATOM     40  C   UNL d   1     -17.906  -3.192  -2.990 -0.07 +0.08    +0.115 C 
DOCKED: BRANCH  40  41
DOCKED: ATOM     41  C   UNL d   1     -16.787  -3.968  -3.652 +0.19 +0.15    +0.139 C 
DOCKED: ATOM     42  O   UNL d   1     -15.735  -3.399  -3.909 -0.30 -0.71    -0.650 OA
DOCKED: BRANCH  41  43
DOCKED: ATOM     43  O   UNL d   1     -16.885  -5.294  -3.890 -0.49 -0.85    -0.776 OA
DOCKED: ATOM     44  H   UNL d   1     -17.422  -5.655  -4.608 +0.01 +0.10    +0.167 HD
DOCKED: ENDBRANCH  41  43
DOCKED: ENDBRANCH  40  41
DOCKED: ENDBRANCH  39  40
DOCKED: ENDBRANCH  22  39
DOCKED: BRANCH  12  45
DOCKED: ATOM     45  C   UNL d   1     -13.005  -1.562   7.460 -0.45 +0.00    +0.004 C 
DOCKED: ATOM     46  C   UNL d   1     -12.630  -0.447   8.081 -0.55 +0.00    +0.012 C 
DOCKED: ENDBRANCH  12  45
DOCKED: BRANCH  17  47
DOCKED: ATOM     47  C   UNL d   1     -11.067   1.296   0.449 -0.33 +0.00    +0.004 C 
DOCKED: ATOM     48  C   UNL d   1      -9.918   0.873  -0.084 -0.42 +0.00    +0.012 C 
DOCKED: ENDBRANCH  17  47
DOCKED: TORSDOF 12
DOCKED: TER
DOCKED: ENDMDL
________________________________________________________________________________


	BEGINNING GENETIC ALGORITHM DOCKING 55 of 100
Run: 55 Seed: 1470830121 1688502895 [ Run 55 of 100 GA/GALS ]
Beginning LAMARCKIAN GENETIC ALGORITHM (LGA), with a maximum of 25000000 energy evaluations.

Final-Value: -11.860


	FINAL GENETIC ALGORITHM DOCKED STATE
	_______________________________________________


Detailed state:  trans -16.476 -1.702 1.927 quatxyzw 0.234919 0.120658 -0.145030 0.953531 center 8.781 34.984 -0.736 ntor 12 180.0000 119.0455 -92.4242 -108.8742 100.2712 132.5194 29.6538 32.9479 -179.8680 113.7636 -169.4462 8.6077
State:	-16.476  -1.702   1.927   0.780  0.400 -0.481 35.071    180.00  119.05  -92.42 -108.87  100.27  132.52   29.65   32.95 -179.87  113.76 -169.45    8.61

DOCKED: MODEL       55
DOCKED: USER    Run = 55
DOCKED: USER    DPF = D:/Protein_go_brrr/autodock/final/AncMH_nat/heme_Co/dock.dpf
DOCKED: USER  
DOCKED: USER    Estimated Free Energy of Binding    =   -6.02 kcal/mol  [=(1)+(2)+(3)-(4)]
DOCKED: USER    Estimated Inhibition Constant, Ki   =   38.54 uM (micromolar)  [Temperature = 298.15 K]
DOCKED: USER    
DOCKED: USER    (1) Final Intermolecular Energy     =   -9.60 kcal/mol
DOCKED: USER        vdW + Hbond + desolv Energy     =   -7.03 kcal/mol
DOCKED: USER        Electrostatic Energy            =   -2.58 kcal/mol
DOCKED: USER    (2) Final Total Internal Energy     =   -2.26 kcal/mol
DOCKED: USER    (3) Torsional Free Energy           =   +3.58 kcal/mol
DOCKED: USER    (4) Unbound System's Energy  [=(2)] =   -2.26 kcal/mol
DOCKED: USER    
DOCKED: USER    
DOCKED: USER    NEWDPF move heme_Co_opt.pdbqt
DOCKED: USER    NEWDPF about 8.781000 34.984000 -0.736000
DOCKED: USER    NEWDPF tran0 -16.475857 -1.702385 1.926685
DOCKED: USER    NEWDPF quaternion0 0.234919 0.120658 -0.145030 0.953531
DOCKED: USER    NEWDPF axisangle0 0.779696 0.400465 -0.481355 35.070948
DOCKED: USER    NEWDPF quat0 0.779696 0.400465 -0.481355 35.070948
DOCKED: USER    NEWDPF dihe0 180.00 119.05 -92.42 -108.87 100.27 132.52 29.65 32.95 -179.87 113.76 -169.45 8.61 
DOCKED: USER  keepresnum = 1 
DOCKED: USER  
DOCKED: REMARK  12 active torsions:
DOCKED: REMARK  status: ('A' for Active; 'I' for Inactive)
DOCKED: REMARK    1  A    between atoms: C_6  and  C_10 
DOCKED: REMARK    2  A    between atoms: C_10  and  C_11 
DOCKED: REMARK    3  A    between atoms: C_11  and  C_12 
DOCKED: REMARK    4  A    between atoms: C_12  and  O_14 
DOCKED: REMARK    5  A    between atoms: C_17  and  C_20 
DOCKED: REMARK    6  A    between atoms: C_24  and  C_27 
DOCKED: REMARK    7  A    between atoms: C_31  and  C_34 
DOCKED: REMARK    8  A    between atoms: C_34  and  C_35 
DOCKED: REMARK    9  A    between atoms: C_35  and  C_36 
DOCKED: REMARK   10  A    between atoms: C_36  and  O_38 
DOCKED: REMARK   11  A    between atoms: FE_43  and  C_44 
DOCKED: REMARK   12  A    between atoms: C_44  and  O_45 
DOCKED: USER                              x       y       z     vdW  Elec       q    Type
DOCKED: USER                           _______ _______ _______ _____ _____    ______ ____
DOCKED: ROOT
DOCKED: ATOM      1  C   UNL d   1     -18.129  -2.275   0.641 -0.05 +0.05    +0.064 A 
DOCKED: ATOM      2  C   UNL d   1     -17.489  -2.568   5.344 -0.09 +0.03    +0.064 C 
DOCKED: ATOM      3  C   UNL d   1     -13.008  -0.978   4.870 -0.28 +0.02    +0.064 A 
DOCKED: ATOM      4  C   UNL d   1     -13.764  -0.304   0.112 -0.17 +0.09    +0.064 A 
DOCKED: ATOM      5  C   UNL d   1     -18.272  -2.506   1.956 -0.03 +0.05    +0.066 A 
DOCKED: ATOM      6  C   UNL d   1     -19.496  -2.923   2.514 -0.00 -0.01    -0.021 A 
DOCKED: ATOM      7  C   UNL d   1     -19.311  -2.984   3.881 -0.02 -0.01    -0.025 A 
DOCKED: ATOM      8  C   UNL d   1     -17.978  -2.619   4.098 -0.03 +0.04    +0.066 A 
DOCKED: ATOM      9  C   UNL d   1     -20.340  -3.369   4.955 -0.05 +0.02    +0.051 C 
DOCKED: ATOM     10  C   UNL d   1     -16.125  -2.228   5.662 -0.11 +0.03    +0.066 A 
DOCKED: ATOM     11  C   UNL d   1     -15.513  -2.293   6.933 -0.23 -0.01    -0.021 A 
DOCKED: ATOM     12  C   UNL d   1     -14.206  -1.827   6.765 -0.33 +0.00    +0.000 A 
DOCKED: ATOM     13  C   UNL d   1     -14.113  -1.526   5.406 -0.21 +0.03    +0.070 A 
DOCKED: ATOM     14  C   UNL d   1     -16.126  -2.855   8.190 -0.29 +0.01    +0.052 C 
DOCKED: ATOM     15  C   UNL d   1     -12.760  -0.557   3.505 -0.15 +0.04    +0.066 A 
DOCKED: ATOM     16  C   UNL d   1     -11.649   0.137   3.047 -0.23 -0.01    -0.021 A 
DOCKED: ATOM     17  C   UNL d   1     -11.863   0.335   1.676 -0.30 +0.00    +0.000 A 
DOCKED: ATOM     18  C   UNL d   1     -13.085  -0.270   1.401 -0.24 +0.08    +0.070 A 
DOCKED: ATOM     19  C   UNL d   1     -10.473   0.569   3.896 -0.23 +0.02    +0.052 C 
DOCKED: ATOM     20  C   UNL d   1     -14.990  -0.811  -0.161 -0.15 +0.09    +0.066 A 
DOCKED: ATOM     21  C   UNL d   1     -15.552  -0.753  -1.434 -0.14 -0.03    -0.025 A 
DOCKED: ATOM     22  C   UNL d   1     -16.799  -1.340  -1.318 -0.11 -0.02    -0.021 A 
DOCKED: ATOM     23  C   UNL d   1     -16.942  -1.719   0.033 -0.10 +0.07    +0.066 A 
DOCKED: ATOM     24  C   UNL d   1     -14.940  -0.150  -2.695 -0.12 +0.04    +0.051 C 
DOCKED: ATOM     25  N   UNL d   1     -17.309  -2.323   2.923 -0.02 -0.19    -0.248 N 
DOCKED: ATOM     26  N   UNL d   1     -15.255  -1.822   4.730 -0.08 -0.13    -0.248 N 
DOCKED: ATOM     27  N   UNL d   1     -13.604  -0.765   2.520 -0.17 -0.23    -0.248 N 
DOCKED: ATOM     28  N   UNL d   1     -15.850  -1.399   0.738 -0.12 -0.31    -0.248 N 
DOCKED: ATOM     29 FE   UNL d   1     -15.347  -1.498   2.706 -0.04 +0.00    +0.000 Fe
DOCKED: ENDROOT
DOCKED: BRANCH   6  30
DOCKED: ATOM     30  C   UNL d   1     -20.801  -3.168   1.763 +0.01 +0.02    +0.052 C 
DOCKED: BRANCH  30  31
DOCKED: ATOM     31  C   UNL d   1     -21.577  -1.862   1.595 +0.00 +0.06    +0.115 C 
DOCKED: BRANCH  31  32
DOCKED: ATOM     32  C   UNL d   1     -20.879  -0.688   2.247 -0.03 +0.13    +0.139 C 
DOCKED: ATOM     33  O   UNL d   1     -21.251  -0.301   3.344 -0.33 -0.84    -0.650 OA
DOCKED: BRANCH  32  34
DOCKED: ATOM     34  O   UNL d   1     -19.817  -0.075   1.673 +0.02 -0.91    -0.776 OA
DOCKED: ATOM     35  H   UNL d   1     -19.384   0.711   2.031 +0.02 +0.30    +0.167 HD
DOCKED: ENDBRANCH  32  34
DOCKED: ENDBRANCH  31  32
DOCKED: ENDBRANCH  30  31
DOCKED: ENDBRANCH   6  30
DOCKED: BRANCH  29  36
DOCKED: ATOM     36  C   UNL d   1     -16.220   0.377   3.047 -0.01 +0.27    +0.190 C 
DOCKED: BRANCH  36  37
DOCKED: ATOM     37  O   UNL d   1     -17.435   1.068   2.987 -0.26 -0.70    -0.399 OA
DOCKED: ATOM     38  H   UNL d   1     -18.113   0.374   2.756 +0.04 +0.32    +0.209 HD
DOCKED: ENDBRANCH  36  37
DOCKED: ENDBRANCH  29  36
DOCKED: BRANCH  22  39
DOCKED: ATOM     39  C   UNL d   1     -17.819  -1.466  -2.435 -0.05 +0.03    +0.052 C 
DOCKED: BRANCH  39  40
DOCKED: ATOM     40  C   UNL d   1     -17.966  -2.933  -2.871 -0.07 +0.08    +0.115 C 
DOCKED: BRANCH  40  41
DOCKED: ATOM     41  C   UNL d   1     -16.783  -3.478  -3.642 -0.04 +0.13    +0.139 C 
DOCKED: ATOM     42  O   UNL d   1     -16.729  -4.674  -3.890 -0.44 -0.71    -0.650 OA
DOCKED: BRANCH  41  43
DOCKED: ATOM     43  O   UNL d   1     -15.825  -2.665  -4.141 -0.09 -0.61    -0.776 OA
DOCKED: ATOM     44  H   UNL d   1     -15.904  -2.239  -5.005 +0.02 +0.08    +0.167 HD
DOCKED: ENDBRANCH  41  43
DOCKED: ENDBRANCH  40  41
DOCKED: ENDBRANCH  39  40
DOCKED: ENDBRANCH  22  39
DOCKED: BRANCH  12  45
DOCKED: ATOM     45  C   UNL d   1     -13.036  -1.651   7.723 -0.37 +0.00    +0.004 C 
DOCKED: ATOM     46  C   UNL d   1     -12.383  -0.555   8.100 -0.59 +0.00    +0.012 C 
DOCKED: ENDBRANCH  12  45
DOCKED: BRANCH  17  47
DOCKED: ATOM     47  C   UNL d   1     -11.034   1.076   0.678 -0.34 +0.00    +0.004 C 
DOCKED: ATOM     48  C   UNL d   1      -9.929   0.574   0.121 -0.43 +0.00    +0.012 C 
DOCKED: ENDBRANCH  17  47
DOCKED: TORSDOF 12
DOCKED: TER
DOCKED: ENDMDL
________________________________________________________________________________


	BEGINNING GENETIC ALGORITHM DOCKING 56 of 100
Run: 56 Seed: 1761171602 143161007 [ Run 56 of 100 GA/GALS ]
Beginning LAMARCKIAN GENETIC ALGORITHM (LGA), with a maximum of 25000000 energy evaluations.

Final-Value: -11.302


	FINAL GENETIC ALGORITHM DOCKED STATE
	_______________________________________________


Detailed state:  trans -16.033 -1.637 3.543 quatxyzw -0.647946 0.189021 -0.735777 0.055411 center 8.781 34.984 -0.736 ntor 12 -156.2550 -180.0000 -41.6796 119.0693 140.1440 -178.7561 2.0701 108.9099 85.8051 -134.1765 23.4917 -30.7009
State:	-16.033  -1.637   3.543  -0.649  0.189 -0.737 173.647   -156.26 -180.00  -41.68  119.07  140.14 -178.76    2.07  108.91   85.81 -134.18   23.49  -30.70

DOCKED: MODEL       56
DOCKED: USER    Run = 56
DOCKED: USER    DPF = D:/Protein_go_brrr/autodock/final/AncMH_nat/heme_Co/dock.dpf
DOCKED: USER  
DOCKED: USER    Estimated Free Energy of Binding    =   -5.92 kcal/mol  [=(1)+(2)+(3)-(4)]
DOCKED: USER    Estimated Inhibition Constant, Ki   =   46.11 uM (micromolar)  [Temperature = 298.15 K]
DOCKED: USER    
DOCKED: USER    (1) Final Intermolecular Energy     =   -9.50 kcal/mol
DOCKED: USER        vdW + Hbond + desolv Energy     =   -6.51 kcal/mol
DOCKED: USER        Electrostatic Energy            =   -2.99 kcal/mol
DOCKED: USER    (2) Final Total Internal Energy     =   -1.81 kcal/mol
DOCKED: USER    (3) Torsional Free Energy           =   +3.58 kcal/mol
DOCKED: USER    (4) Unbound System's Energy  [=(2)] =   -1.81 kcal/mol
DOCKED: USER    
DOCKED: USER    
DOCKED: USER    NEWDPF move heme_Co_opt.pdbqt
DOCKED: USER    NEWDPF about 8.781000 34.984000 -0.736000
DOCKED: USER    NEWDPF tran0 -16.032521 -1.637313 3.543081
DOCKED: USER    NEWDPF quaternion0 -0.647946 0.189021 -0.735777 0.055411
DOCKED: USER    NEWDPF axisangle0 -0.648943 0.189312 -0.736909 173.647096
DOCKED: USER    NEWDPF quat0 -0.648943 0.189312 -0.736909 173.647096
DOCKED: USER    NEWDPF dihe0 -156.26 -180.00 -41.68 119.07 140.14 -178.76 2.07 108.91 85.81 -134.18 23.49 -30.70 
DOCKED: USER  keepresnum = 1 
DOCKED: USER  
DOCKED: REMARK  12 active torsions:
DOCKED: REMARK  status: ('A' for Active; 'I' for Inactive)
DOCKED: REMARK    1  A    between atoms: C_6  and  C_10 
DOCKED: REMARK    2  A    between atoms: C_10  and  C_11 
DOCKED: REMARK    3  A    between atoms: C_11  and  C_12 
DOCKED: REMARK    4  A    between atoms: C_12  and  O_14 
DOCKED: REMARK    5  A    between atoms: C_17  and  C_20 
DOCKED: REMARK    6  A    between atoms: C_24  and  C_27 
DOCKED: REMARK    7  A    between atoms: C_31  and  C_34 
DOCKED: REMARK    8  A    between atoms: C_34  and  C_35 
DOCKED: REMARK    9  A    between atoms: C_35  and  C_36 
DOCKED: REMARK   10  A    between atoms: C_36  and  O_38 
DOCKED: REMARK   11  A    between atoms: FE_43  and  C_44 
DOCKED: REMARK   12  A    between atoms: C_44  and  O_45 
DOCKED: USER                              x       y       z     vdW  Elec       q    Type
DOCKED: USER                           _______ _______ _______ _____ _____    ______ ____
DOCKED: ROOT
DOCKED: ATOM      1  C   UNL d   1     -16.690  -1.484   1.479 -0.10 +0.07    +0.064 A 
DOCKED: ATOM      2  C   UNL d   1     -12.532  -0.543   3.587 -0.13 +0.03    +0.064 C 
DOCKED: ATOM      3  C   UNL d   1     -14.451  -1.462   7.865 -0.27 +0.01    +0.064 A 
DOCKED: ATOM      4  C   UNL d   1     -18.598  -2.801   5.704 -0.06 +0.03    +0.064 A 
DOCKED: ATOM      5  C   UNL d   1     -15.423  -1.124   1.744 -0.17 +0.08    +0.066 A 
DOCKED: ATOM      6  C   UNL d   1     -14.497  -0.840   0.721 -0.20 -0.03    -0.021 A 
DOCKED: ATOM      7  C   UNL d   1     -13.287  -0.590   1.337 -0.26 -0.03    -0.025 A 
DOCKED: ATOM      8  C   UNL d   1     -13.529  -0.716   2.709 -0.24 +0.06    +0.066 A 
DOCKED: ATOM      9  C   UNL d   1     -11.945  -0.246   0.673 -0.31 +0.04    +0.051 C 
DOCKED: ATOM     10  C   UNL d   1     -12.692  -0.627   5.017 -0.24 +0.02    +0.066 A 
DOCKED: ATOM     11  C   UNL d   1     -11.721  -0.318   5.994 -0.42 -0.00    -0.021 A 
DOCKED: ATOM     12  C   UNL d   1     -12.308  -0.591   7.233 -0.44 +0.00    +0.000 A 
DOCKED: ATOM     13  C   UNL d   1     -13.595  -1.032   6.921 -0.22 +0.01    +0.070 A 
DOCKED: ATOM     14  C   UNL d   1     -10.363   0.286   5.743 -0.44 +0.01    +0.052 C 
DOCKED: ATOM     15  C   UNL d   1     -15.790  -1.997   7.717 -0.22 +0.02    +0.066 A 
DOCKED: ATOM     16  C   UNL d   1     -16.567  -2.559   8.720 -0.24 -0.00    -0.021 A 
DOCKED: ATOM     17  C   UNL d   1     -17.763  -2.949   8.101 -0.17 +0.00    +0.000 A 
DOCKED: ATOM     18  C   UNL d   1     -17.628  -2.577   6.768 -0.10 +0.03    +0.070 A 
DOCKED: ATOM     19  C   UNL d   1     -16.160  -2.700  10.170 -0.19 +0.00    +0.052 C 
DOCKED: ATOM     20  C   UNL d   1     -18.453  -2.527   4.385 -0.03 +0.04    +0.066 A 
DOCKED: ATOM     21  C   UNL d   1     -19.444  -2.821   3.451 -0.01 -0.01    -0.025 A 
DOCKED: ATOM     22  C   UNL d   1     -18.933  -2.426   2.228 -0.01 -0.01    -0.021 A 
DOCKED: ATOM     23  C   UNL d   1     -17.641  -1.917   2.477 -0.04 +0.06    +0.066 A 
DOCKED: ATOM     24  C   UNL d   1     -20.803  -3.467   3.708 -0.02 +0.02    +0.051 C 
DOCKED: ATOM     25  N   UNL d   1     -14.845  -1.041   2.991 -0.13 -0.23    -0.248 N 
DOCKED: ATOM     26  N   UNL d   1     -13.844  -1.000   5.585 -0.01 -0.08    -0.248 N 
DOCKED: ATOM     27  N   UNL d   1     -16.428  -2.041   6.569 -0.07 -0.09    -0.248 N 
DOCKED: ATOM     28  N   UNL d   1     -17.346  -1.978   3.781 -0.02 -0.18    -0.248 N 
DOCKED: ATOM     29 FE   UNL d   1     -15.687  -1.571   4.885 -0.05 +0.00    +0.000 Fe
DOCKED: ENDROOT
DOCKED: BRANCH   6  30
DOCKED: ATOM     30  C   UNL d   1     -14.757  -0.892  -0.781 -0.11 +0.07    +0.052 C 
DOCKED: BRANCH  30  31
DOCKED: ATOM     31  C   UNL d   1     -14.813   0.520  -1.365 -0.02 +0.17    +0.115 C 
DOCKED: BRANCH  31  32
DOCKED: ATOM     32  C   UNL d   1     -16.229   1.040  -1.484 +0.13 +0.22    +0.139 C 
DOCKED: ATOM     33  O   UNL d   1     -16.620   1.478  -2.556 +0.01 -0.60    -0.650 OA
DOCKED: BRANCH  32  34
DOCKED: ATOM     34  O   UNL d   1     -17.100   0.993  -0.450 -0.15 -1.49    -0.776 OA
DOCKED: ATOM     35  H   UNL d   1     -18.061   1.053  -0.545 +0.02 +0.21    +0.167 HD
DOCKED: ENDBRANCH  32  34
DOCKED: ENDBRANCH  31  32
DOCKED: ENDBRANCH  30  31
DOCKED: ENDBRANCH   6  30
DOCKED: BRANCH  29  36
DOCKED: ATOM     36  C   UNL d   1     -14.955  -3.505   4.542 -0.16 +0.10    +0.190 C 
DOCKED: BRANCH  36  37
DOCKED: ATOM     37  O   UNL d   1     -13.959  -4.215   3.865 -0.17 -0.26    -0.399 OA
DOCKED: ATOM     38  H   UNL d   1     -13.106  -3.943   4.305 +0.11 +0.08    +0.209 HD
DOCKED: ENDBRANCH  36  37
DOCKED: ENDBRANCH  29  36
DOCKED: BRANCH  22  39
DOCKED: ATOM     39  C   UNL d   1     -19.628  -2.592   0.890 -0.00 +0.03    +0.052 C 
DOCKED: BRANCH  39  40
DOCKED: ATOM     40  C   UNL d   1     -20.826  -1.634   0.778 +0.01 +0.07    +0.115 C 
DOCKED: BRANCH  40  41
DOCKED: ATOM     41  C   UNL d   1     -20.576  -0.252   1.343 -0.03 +0.13    +0.139 C 
DOCKED: ATOM     42  O   UNL d   1     -21.186   0.106   2.341 -0.15 -0.87    -0.650 OA
DOCKED: BRANCH  41  43
DOCKED: ATOM     43  O   UNL d   1     -19.632   0.566   0.828 +0.01 -0.90    -0.776 OA
DOCKED: ATOM     44  H   UNL d   1     -18.793   0.237   0.479 +0.03 +0.18    +0.167 HD
DOCKED: ENDBRANCH  41  43
DOCKED: ENDBRANCH  40  41
DOCKED: ENDBRANCH  39  40
DOCKED: ENDBRANCH  22  39
DOCKED: BRANCH  12  45
DOCKED: ATOM     45  C   UNL d   1     -11.811  -0.469   8.667 -0.62 +0.00    +0.004 C 
DOCKED: ATOM     46  C   UNL d   1     -12.170   0.365   9.639 -0.32 +0.00    +0.012 C 
DOCKED: ENDBRANCH  12  45
DOCKED: BRANCH  17  47
DOCKED: ATOM     47  C   UNL d   1     -18.944  -3.663   8.672 -0.17 +0.00    +0.004 C 
DOCKED: ATOM     48  C   UNL d   1     -20.172  -3.141   8.716 -0.09 +0.00    +0.012 C 
DOCKED: ENDBRANCH  17  47
DOCKED: TORSDOF 12
DOCKED: TER
DOCKED: ENDMDL
________________________________________________________________________________


	BEGINNING GENETIC ALGORITHM DOCKING 57 of 100
Run: 57 Seed: 1222007850 712679166 [ Run 57 of 100 GA/GALS ]
Beginning LAMARCKIAN GENETIC ALGORITHM (LGA), with a maximum of 25000000 energy evaluations.

Final-Value: -11.557


	FINAL GENETIC ALGORITHM DOCKED STATE
	_______________________________________________


Detailed state:  trans -14.306 8.352 -2.836 quatxyzw 0.855820 0.140003 -0.471653 0.159733 center 8.781 34.984 -0.736 ntor 12 161.9650 129.4080 35.9538 115.8107 -90.7034 131.5742 -134.5768 -100.5494 -133.6410 -11.3998 -176.1681 -179.0862
State:	-14.306   8.352  -2.836   0.867  0.142 -0.478 161.617    161.96  129.41   35.95  115.81  -90.70  131.57 -134.58 -100.55 -133.64  -11.40 -176.17 -179.09

DOCKED: MODEL       57
DOCKED: USER    Run = 57
DOCKED: USER    DPF = D:/Protein_go_brrr/autodock/final/AncMH_nat/heme_Co/dock.dpf
DOCKED: USER  
DOCKED: USER    Estimated Free Energy of Binding    =   -5.86 kcal/mol  [=(1)+(2)+(3)-(4)]
DOCKED: USER    Estimated Inhibition Constant, Ki   =   51.01 uM (micromolar)  [Temperature = 298.15 K]
DOCKED: USER    
DOCKED: USER    (1) Final Intermolecular Energy     =   -9.44 kcal/mol
DOCKED: USER        vdW + Hbond + desolv Energy     =   -7.05 kcal/mol
DOCKED: USER        Electrostatic Energy            =   -2.39 kcal/mol
DOCKED: USER    (2) Final Total Internal Energy     =   -2.12 kcal/mol
DOCKED: USER    (3) Torsional Free Energy           =   +3.58 kcal/mol
DOCKED: USER    (4) Unbound System's Energy  [=(2)] =   -2.12 kcal/mol
DOCKED: USER    
DOCKED: USER    
DOCKED: USER    NEWDPF move heme_Co_opt.pdbqt
DOCKED: USER    NEWDPF about 8.781000 34.984000 -0.736000
DOCKED: USER    NEWDPF tran0 -14.306186 8.352428 -2.836150
DOCKED: USER    NEWDPF quaternion0 0.855820 0.140003 -0.471653 0.159733
DOCKED: USER    NEWDPF axisangle0 0.866952 0.141824 -0.477787 161.617181
DOCKED: USER    NEWDPF quat0 0.866952 0.141824 -0.477787 161.617181
DOCKED: USER    NEWDPF dihe0 161.96 129.41 35.95 115.81 -90.70 131.57 -134.58 -100.55 -133.64 -11.40 -176.17 -179.09 
DOCKED: USER  keepresnum = 1 
DOCKED: USER  
DOCKED: REMARK  12 active torsions:
DOCKED: REMARK  status: ('A' for Active; 'I' for Inactive)
DOCKED: REMARK    1  A    between atoms: C_6  and  C_10 
DOCKED: REMARK    2  A    between atoms: C_10  and  C_11 
DOCKED: REMARK    3  A    between atoms: C_11  and  C_12 
DOCKED: REMARK    4  A    between atoms: C_12  and  O_14 
DOCKED: REMARK    5  A    between atoms: C_17  and  C_20 
DOCKED: REMARK    6  A    between atoms: C_24  and  C_27 
DOCKED: REMARK    7  A    between atoms: C_31  and  C_34 
DOCKED: REMARK    8  A    between atoms: C_34  and  C_35 
DOCKED: REMARK    9  A    between atoms: C_35  and  C_36 
DOCKED: REMARK   10  A    between atoms: C_36  and  O_38 
DOCKED: REMARK   11  A    between atoms: FE_43  and  C_44 
DOCKED: REMARK   12  A    between atoms: C_44  and  O_45 
DOCKED: USER                              x       y       z     vdW  Elec       q    Type
DOCKED: USER                           _______ _______ _______ _____ _____    ______ ____
DOCKED: ROOT
DOCKED: ATOM      1  C   UNL d   1     -14.536   7.023  -1.134 -0.28 +0.02    +0.064 A 
DOCKED: ATOM      2  C   UNL d   1     -17.305  10.462  -2.899 -0.07 +0.00    +0.064 C 
DOCKED: ATOM      3  C   UNL d   1     -13.946  11.572  -6.110 -0.12 -0.00    +0.064 A 
DOCKED: ATOM      4  C   UNL d   1     -11.260   7.817  -4.578 -0.28 -0.01    +0.064 A 
DOCKED: ATOM      5  C   UNL d   1     -15.524   7.905  -1.357 -0.21 +0.02    +0.066 A 
DOCKED: ATOM      6  C   UNL d   1     -16.741   7.858  -0.649 -0.17 -0.01    -0.021 A 
DOCKED: ATOM      7  C   UNL d   1     -17.549   8.844  -1.180 -0.08 -0.00    -0.025 A 
DOCKED: ATOM      8  C   UNL d   1     -16.786   9.460  -2.178 -0.09 +0.00    +0.066 A 
DOCKED: ATOM      9  C   UNL d   1     -18.987   9.203  -0.776 -0.04 +0.01    +0.051 C 
DOCKED: ATOM     10  C   UNL d   1     -16.587  11.173  -3.927 -0.07 -0.00    +0.066 A 
DOCKED: ATOM     11  C   UNL d   1     -17.025  12.322  -4.621 -0.04 +0.00    -0.021 A 
DOCKED: ATOM     12  C   UNL d   1     -16.024  12.627  -5.548 -0.05 -0.00    +0.000 A 
DOCKED: ATOM     13  C   UNL d   1     -15.048  11.652  -5.343 -0.09 -0.00    +0.070 A 
DOCKED: ATOM     14  C   UNL d   1     -18.274  13.116  -4.335 -0.01 -0.00    +0.052 C 
DOCKED: ATOM     15  C   UNL d   1     -12.867  10.605  -6.072 -0.15 -0.01    +0.066 A 
DOCKED: ATOM     16  C   UNL d   1     -11.829  10.493  -6.986 -0.21 +0.00    -0.021 A 
DOCKED: ATOM     17  C   UNL d   1     -11.053   9.409  -6.550 -0.30 -0.00    +0.000 A 
DOCKED: ATOM     18  C   UNL d   1     -11.672   8.955  -5.390 -0.22 -0.01    +0.070 A 
DOCKED: ATOM     19  C   UNL d   1     -11.623  11.382  -8.192 -0.18 -0.01    +0.052 C 
DOCKED: ATOM     20  C   UNL d   1     -11.893   7.303  -3.497 -0.28 -0.00    +0.066 A 
DOCKED: ATOM     21  C   UNL d   1     -11.419   6.182  -2.820 -0.29 -0.00    -0.025 A 
DOCKED: ATOM     22  C   UNL d   1     -12.328   5.947  -1.804 -0.31 -0.01    -0.021 A 
DOCKED: ATOM     23  C   UNL d   1     -13.326   6.938  -1.920 -0.29 +0.02    +0.066 A 
DOCKED: ATOM     24  C   UNL d   1     -10.171   5.361  -3.137 -0.34 -0.01    +0.051 C 
DOCKED: ATOM     25  N   UNL d   1     -15.525   8.902  -2.305 -0.06 -0.03    -0.248 N 
DOCKED: ATOM     26  N   UNL d   1     -15.364  10.808  -4.325 -0.06 -0.00    -0.248 N 
DOCKED: ATOM     27  N   UNL d   1     -12.765   9.671  -5.153 -0.03 +0.02    -0.248 N 
DOCKED: ATOM     28  N   UNL d   1     -13.068   7.759  -2.945 -0.14 -0.02    -0.248 N 
DOCKED: ATOM     29 FE   UNL d   1     -14.061   9.307  -3.812 -0.05 +0.00    +0.000 Fe
DOCKED: ENDROOT
DOCKED: BRANCH   6  30
DOCKED: ATOM     30  C   UNL d   1     -17.127   6.853   0.432 -0.19 +0.03    +0.052 C 
DOCKED: BRANCH  30  31
DOCKED: ATOM     31  C   UNL d   1     -17.851   5.656  -0.183 -0.13 +0.09    +0.115 C 
DOCKED: BRANCH  31  32
DOCKED: ATOM     32  C   UNL d   1     -17.175   5.155  -1.441 -0.09 +0.12    +0.139 C 
DOCKED: ATOM     33  O   UNL d   1     -16.389   4.222  -1.369 -0.52 -1.07    -0.650 OA
DOCKED: BRANCH  32  34
DOCKED: ATOM     34  O   UNL d   1     -17.449   5.677  -2.659 +0.03 -0.33    -0.776 OA
DOCKED: ATOM     35  H   UNL d   1     -16.854   5.622  -3.420 +0.02 +0.06    +0.167 HD
DOCKED: ENDBRANCH  32  34
DOCKED: ENDBRANCH  31  32
DOCKED: ENDBRANCH  30  31
DOCKED: ENDBRANCH   6  30
DOCKED: BRANCH  29  36
DOCKED: ATOM     36  C   UNL d   1     -15.117   7.973  -5.037 -0.05 +0.01    +0.190 C 
DOCKED: BRANCH  36  37
DOCKED: ATOM     37  O   UNL d   1     -16.004   6.892  -5.003 +0.00 -0.04    -0.399 OA
DOCKED: ATOM     38  H   UNL d   1     -16.377   6.896  -4.077 +0.02 +0.04    +0.209 HD
DOCKED: ENDBRANCH  36  37
DOCKED: ENDBRANCH  29  36
DOCKED: BRANCH  22  39
DOCKED: ATOM     39  C   UNL d   1     -12.269   4.793  -0.821 -0.20 +0.03    +0.052 C 
DOCKED: BRANCH  39  40
DOCKED: ATOM     40  C   UNL d   1     -12.761   3.494  -1.478 -0.17 +0.11    +0.115 C 
DOCKED: BRANCH  40  41
DOCKED: ATOM     41  C   UNL d   1     -12.371   2.232  -0.738 -0.15 +0.16    +0.139 C 
DOCKED: ATOM     42  O   UNL d   1     -12.371   2.232   0.485 -0.56 -1.04    -0.650 OA
DOCKED: BRANCH  41  43
DOCKED: ATOM     43  O   UNL d   1     -12.107   1.078  -1.390 +0.08 -0.58    -0.776 OA
DOCKED: ATOM     44  H   UNL d   1     -11.586   1.049  -2.203 +0.07 +0.07    +0.167 HD
DOCKED: ENDBRANCH  41  43
DOCKED: ENDBRANCH  40  41
DOCKED: ENDBRANCH  39  40
DOCKED: ENDBRANCH  22  39
DOCKED: BRANCH  12  45
DOCKED: ATOM     45  C   UNL d   1     -15.871  13.732  -6.585 -0.03 -0.00    +0.004 C 
DOCKED: ATOM     46  C   UNL d   1     -15.079  14.801  -6.600 -0.04 +0.00    +0.012 C 
DOCKED: ENDBRANCH  12  45
DOCKED: BRANCH  17  47
DOCKED: ATOM     47  C   UNL d   1      -9.848   8.786  -7.175 -0.33 -0.00    +0.004 C 
DOCKED: ATOM     48  C   UNL d   1      -9.839   7.557  -7.695 -0.32 -0.01    +0.012 C 
DOCKED: ENDBRANCH  17  47
DOCKED: TORSDOF 12
DOCKED: TER
DOCKED: ENDMDL
________________________________________________________________________________


	BEGINNING GENETIC ALGORITHM DOCKING 58 of 100
Run: 58 Seed: 1921072703 803211020 [ Run 58 of 100 GA/GALS ]
Beginning LAMARCKIAN GENETIC ALGORITHM (LGA), with a maximum of 25000000 energy evaluations.

Final-Value: -10.302


	FINAL GENETIC ALGORITHM DOCKED STATE
	_______________________________________________


Detailed state:  trans 0.345 11.115 15.772 quatxyzw -0.438774 -0.651012 0.618633 -0.030891 center 8.781 34.984 -0.736 ntor 12 -104.0224 -67.1399 164.3758 132.0020 -29.6339 -180.0000 34.6313 113.9149 -95.9040 94.7861 159.4509 180.0000
State:	  0.345  11.115  15.772  -0.439 -0.651  0.619 -176.460   -104.02  -67.14  164.38  132.00  -29.63 -180.00   34.63  113.91  -95.90   94.79  159.45  180.00

DOCKED: MODEL       58
DOCKED: USER    Run = 58
DOCKED: USER    DPF = D:/Protein_go_brrr/autodock/final/AncMH_nat/heme_Co/dock.dpf
DOCKED: USER  
DOCKED: USER    Estimated Free Energy of Binding    =   -4.15 kcal/mol  [=(1)+(2)+(3)-(4)]
DOCKED: USER    Estimated Inhibition Constant, Ki   =  906.13 uM (micromolar)  [Temperature = 298.15 K]
DOCKED: USER    
DOCKED: USER    (1) Final Intermolecular Energy     =   -7.73 kcal/mol
DOCKED: USER        vdW + Hbond + desolv Energy     =   -6.25 kcal/mol
DOCKED: USER        Electrostatic Energy            =   -1.48 kcal/mol
DOCKED: USER    (2) Final Total Internal Energy     =   -2.57 kcal/mol
DOCKED: USER    (3) Torsional Free Energy           =   +3.58 kcal/mol
DOCKED: USER    (4) Unbound System's Energy  [=(2)] =   -2.57 kcal/mol
DOCKED: USER    
DOCKED: USER    
DOCKED: USER    NEWDPF move heme_Co_opt.pdbqt
DOCKED: USER    NEWDPF about 8.781000 34.984000 -0.736000
DOCKED: USER    NEWDPF tran0 0.344726 11.114970 15.771816
DOCKED: USER    NEWDPF quaternion0 -0.438774 -0.651012 0.618633 -0.030891
DOCKED: USER    NEWDPF axisangle0 -0.438984 -0.651323 0.618928 -176.459580
DOCKED: USER    NEWDPF quat0 -0.438984 -0.651323 0.618928 -176.459580
DOCKED: USER    NEWDPF dihe0 -104.02 -67.14 164.38 132.00 -29.63 -180.00 34.63 113.91 -95.90 94.79 159.45 180.00 
DOCKED: USER  keepresnum = 1 
DOCKED: USER  
DOCKED: REMARK  12 active torsions:
DOCKED: REMARK  status: ('A' for Active; 'I' for Inactive)
DOCKED: REMARK    1  A    between atoms: C_6  and  C_10 
DOCKED: REMARK    2  A    between atoms: C_10  and  C_11 
DOCKED: REMARK    3  A    between atoms: C_11  and  C_12 
DOCKED: REMARK    4  A    between atoms: C_12  and  O_14 
DOCKED: REMARK    5  A    between atoms: C_17  and  C_20 
DOCKED: REMARK    6  A    between atoms: C_24  and  C_27 
DOCKED: REMARK    7  A    between atoms: C_31  and  C_34 
DOCKED: REMARK    8  A    between atoms: C_34  and  C_35 
DOCKED: REMARK    9  A    between atoms: C_35  and  C_36 
DOCKED: REMARK   10  A    between atoms: C_36  and  O_38 
DOCKED: REMARK   11  A    between atoms: FE_43  and  C_44 
DOCKED: REMARK   12  A    between atoms: C_44  and  O_45 
DOCKED: USER                              x       y       z     vdW  Elec       q    Type
DOCKED: USER                           _______ _______ _______ _____ _____    ______ ____
DOCKED: ROOT
DOCKED: ATOM      1  C   UNL d   1       2.293  10.522  16.527 -0.05 +0.03    +0.064 A 
DOCKED: ATOM      2  C   UNL d   1      -2.075   8.782  17.240 -0.20 -0.03    +0.064 C 
DOCKED: ATOM      3  C   UNL d   1      -3.955  12.353  14.681 -0.21 -0.01    +0.064 A 
DOCKED: ATOM      4  C   UNL d   1       0.521  13.930  13.617 -0.08 -0.01    +0.064 A 
DOCKED: ATOM      5  C   UNL d   1       1.235   9.805  16.940 -0.06 +0.01    +0.066 A 
DOCKED: ATOM      6  C   UNL d   1       1.381   8.611  17.673 -0.08 -0.00    -0.021 A 
DOCKED: ATOM      7  C   UNL d   1       0.112   8.099  17.858 -0.13 +0.00    -0.025 A 
DOCKED: ATOM      8  C   UNL d   1      -0.755   9.009  17.244 -0.11 -0.01    +0.066 A 
DOCKED: ATOM      9  C   UNL d   1      -0.285   6.803  18.581 -0.17 -0.01    +0.051 C 
DOCKED: ATOM     10  C   UNL d   1      -3.046   9.675  16.656 -0.19 -0.03    +0.066 A 
DOCKED: ATOM     11  C   UNL d   1      -4.451   9.565  16.741 -0.24 +0.01    -0.021 A 
DOCKED: ATOM     12  C   UNL d   1      -4.974  10.621  15.989 -0.15 -0.00    +0.000 A 
DOCKED: ATOM     13  C   UNL d   1      -3.853  11.302  15.514 -0.17 -0.02    +0.070 A 
DOCKED: ATOM     14  C   UNL d   1      -5.219   8.568  17.569 -0.21 -0.06    +0.052 C 
DOCKED: ATOM     15  C   UNL d   1      -2.908  13.136  14.055 -0.19 -0.02    +0.066 A 
DOCKED: ATOM     16  C   UNL d   1      -3.080  14.118  13.089 -0.28 +0.00    -0.021 A 
DOCKED: ATOM     17  C   UNL d   1      -1.791  14.574  12.777 -0.17 -0.00    +0.000 A 
DOCKED: ATOM     18  C   UNL d   1      -0.933  13.844  13.593 -0.06 -0.03    +0.070 A 
DOCKED: ATOM     19  C   UNL d   1      -4.408  14.566  12.521 -0.35 +0.00    +0.052 C 
DOCKED: ATOM     20  C   UNL d   1       1.381  13.171  14.338 -0.08 +0.01    +0.066 A 
DOCKED: ATOM     21  C   UNL d   1       2.763  13.324  14.248 -0.05 -0.01    -0.025 A 
DOCKED: ATOM     22  C   UNL d   1       3.299  12.374  15.098 -0.05 -0.01    -0.021 A 
DOCKED: ATOM     23  C   UNL d   1       2.209  11.675  15.660 -0.05 +0.03    +0.066 A 
DOCKED: ATOM     24  C   UNL d   1       3.536  14.313  13.380 -0.02 +0.01    +0.051 C 
DOCKED: ATOM     25  N   UNL d   1      -0.087  10.079  16.672 -0.03 -0.01    -0.248 N 
DOCKED: ATOM     26  N   UNL d   1      -2.689  10.762  15.964 -0.08 +0.06    -0.248 N 
DOCKED: ATOM     27  N   UNL d   1      -1.630  12.976  14.319 -0.09 +0.07    -0.248 N 
DOCKED: ATOM     28  N   UNL d   1       1.046  12.153  15.200 -0.06 -0.08    -0.248 N 
DOCKED: ATOM     29 FE   UNL d   1      -0.901  11.615  15.425 -0.03 -0.00    +0.000 Fe
DOCKED: ENDROOT
DOCKED: BRANCH   6  30
DOCKED: ATOM     30  C   UNL d   1       2.693   7.961  18.100 -0.07 +0.00    +0.052 C 
DOCKED: BRANCH  30  31
DOCKED: ATOM     31  C   UNL d   1       2.857   6.595  17.434 -0.10 -0.00    +0.115 C 
DOCKED: BRANCH  31  32
DOCKED: ATOM     32  C   UNL d   1       3.397   6.702  16.024 -0.17 +0.02    +0.139 C 
DOCKED: ATOM     33  O   UNL d   1       2.620   6.717  15.082 -0.52 -0.29    -0.650 OA
DOCKED: BRANCH  32  34
DOCKED: ATOM     34  O   UNL d   1       4.721   6.830  15.771 +0.04 -0.08    -0.776 OA
DOCKED: ATOM     35  H   UNL d   1       5.137   7.644  15.455 +0.03 +0.03    +0.167 HD
DOCKED: ENDBRANCH  32  34
DOCKED: ENDBRANCH  31  32
DOCKED: ENDBRANCH  30  31
DOCKED: ENDBRANCH   6  30
DOCKED: BRANCH  29  36
DOCKED: ATOM     36  C   UNL d   1      -0.735  10.258  13.836 -0.19 -0.03    +0.190 C 
DOCKED: BRANCH  36  37
DOCKED: ATOM     37  O   UNL d   1      -0.690   8.892  13.538 -0.33 +0.06    -0.399 OA
DOCKED: ATOM     38  H   UNL d   1      -0.601   8.850  12.545 -0.18 -0.17    +0.209 HD
DOCKED: ENDBRANCH  36  37
DOCKED: ENDBRANCH  29  36
DOCKED: BRANCH  22  39
DOCKED: ATOM     39  C   UNL d   1       4.779  12.114  15.305 -0.03 +0.02    +0.052 C 
DOCKED: BRANCH  39  40
DOCKED: ATOM     40  C   UNL d   1       5.352  11.283  14.145 -0.05 +0.07    +0.115 C 
DOCKED: BRANCH  40  41
DOCKED: ATOM     41  C   UNL d   1       5.303   9.786  14.365 -0.06 +0.10    +0.139 C 
DOCKED: ATOM     42  O   UNL d   1       6.341   9.180  14.587 -0.01 -0.17    -0.650 OA
DOCKED: BRANCH  41  43
DOCKED: ATOM     43  O   UNL d   1       4.132   9.113  14.409 +0.12 -1.10    -0.776 OA
DOCKED: ATOM     44  H   UNL d   1       4.088   8.148  14.417 +0.02 +0.15    +0.167 HD
DOCKED: ENDBRANCH  41  43
DOCKED: ENDBRANCH  40  41
DOCKED: ENDBRANCH  39  40
DOCKED: ENDBRANCH  22  39
DOCKED: BRANCH  12  45
DOCKED: ATOM     45  C   UNL d   1      -6.395  11.073  15.683 -0.26 -0.00    +0.004 C 
DOCKED: ATOM     46  C   UNL d   1      -6.995  12.243  15.888 -0.28 -0.00    +0.012 C 
DOCKED: ENDBRANCH  12  45
DOCKED: BRANCH  17  47
DOCKED: ATOM     47  C   UNL d   1      -1.355  15.578  11.762 -0.23 +0.00    +0.004 C 
DOCKED: ATOM     48  C   UNL d   1      -1.725  15.539  10.480 -0.37 +0.00    +0.012 C 
DOCKED: ENDBRANCH  17  47
DOCKED: TORSDOF 12
DOCKED: TER
DOCKED: ENDMDL
________________________________________________________________________________


	BEGINNING GENETIC ALGORITHM DOCKING 59 of 100
Run: 59 Seed: 486051938 939416017 [ Run 59 of 100 GA/GALS ]
Beginning LAMARCKIAN GENETIC ALGORITHM (LGA), with a maximum of 25000000 energy evaluations.

Final-Value: -11.588


	FINAL GENETIC ALGORITHM DOCKED STATE
	_______________________________________________


Detailed state:  trans -18.402 -0.875 5.985 quatxyzw -0.242703 0.230754 -0.891578 0.304855 center 8.781 34.984 -0.736 ntor 12 144.2861 112.1312 -97.5909 80.7383 138.1176 120.3109 -117.4025 138.3675 98.5846 -125.0305 11.3083 -21.3502
State:	-18.402  -0.875   5.985  -0.255  0.242 -0.936 144.501    144.29  112.13  -97.59   80.74  138.12  120.31 -117.40  138.37   98.58 -125.03   11.31  -21.35

DOCKED: MODEL       59
DOCKED: USER    Run = 59
DOCKED: USER    DPF = D:/Protein_go_brrr/autodock/final/AncMH_nat/heme_Co/dock.dpf
DOCKED: USER  
DOCKED: USER    Estimated Free Energy of Binding    =   -5.70 kcal/mol  [=(1)+(2)+(3)-(4)]
DOCKED: USER    Estimated Inhibition Constant, Ki   =   66.22 uM (micromolar)  [Temperature = 298.15 K]
DOCKED: USER    
DOCKED: USER    (1) Final Intermolecular Energy     =   -9.28 kcal/mol
DOCKED: USER        vdW + Hbond + desolv Energy     =   -5.62 kcal/mol
DOCKED: USER        Electrostatic Energy            =   -3.66 kcal/mol
DOCKED: USER    (2) Final Total Internal Energy     =   -2.31 kcal/mol
DOCKED: USER    (3) Torsional Free Energy           =   +3.58 kcal/mol
DOCKED: USER    (4) Unbound System's Energy  [=(2)] =   -2.31 kcal/mol
DOCKED: USER    
DOCKED: USER    
DOCKED: USER    NEWDPF move heme_Co_opt.pdbqt
DOCKED: USER    NEWDPF about 8.781000 34.984000 -0.736000
DOCKED: USER    NEWDPF tran0 -18.401748 -0.875147 5.985130
DOCKED: USER    NEWDPF quaternion0 -0.242703 0.230754 -0.891578 0.304855
DOCKED: USER    NEWDPF axisangle0 -0.254833 0.242287 -0.936139 144.501173
DOCKED: USER    NEWDPF quat0 -0.254833 0.242287 -0.936139 144.501173
DOCKED: USER    NEWDPF dihe0 144.29 112.13 -97.59 80.74 138.12 120.31 -117.40 138.37 98.58 -125.03 11.31 -21.35 
DOCKED: USER  keepresnum = 1 
DOCKED: USER  
DOCKED: REMARK  12 active torsions:
DOCKED: REMARK  status: ('A' for Active; 'I' for Inactive)
DOCKED: REMARK    1  A    between atoms: C_6  and  C_10 
DOCKED: REMARK    2  A    between atoms: C_10  and  C_11 
DOCKED: REMARK    3  A    between atoms: C_11  and  C_12 
DOCKED: REMARK    4  A    between atoms: C_12  and  O_14 
DOCKED: REMARK    5  A    between atoms: C_17  and  C_20 
DOCKED: REMARK    6  A    between atoms: C_24  and  C_27 
DOCKED: REMARK    7  A    between atoms: C_31  and  C_34 
DOCKED: REMARK    8  A    between atoms: C_34  and  C_35 
DOCKED: REMARK    9  A    between atoms: C_35  and  C_36 
DOCKED: REMARK   10  A    between atoms: C_36  and  O_38 
DOCKED: REMARK   11  A    between atoms: FE_43  and  C_44 
DOCKED: REMARK   12  A    between atoms: C_44  and  O_45 
DOCKED: USER                              x       y       z     vdW  Elec       q    Type
DOCKED: USER                           _______ _______ _______ _____ _____    ______ ____
DOCKED: ROOT
DOCKED: ATOM      1  C   UNL d   1     -17.630  -1.588   4.085 -0.07 +0.05    +0.064 A 
DOCKED: ATOM      2  C   UNL d   1     -15.672  -1.252   8.405 -0.21 +0.02    +0.064 C 
DOCKED: ATOM      3  C   UNL d   1     -19.590   0.930  10.052 -0.11 +0.02    +0.064 A 
DOCKED: ATOM      4  C   UNL d   1     -21.760   0.253   5.751 -0.01 +0.07    +0.064 A 
DOCKED: ATOM      5  C   UNL d   1     -16.793  -1.624   5.135 -0.09 +0.04    +0.066 A 
DOCKED: ATOM      6  C   UNL d   1     -15.539  -2.262   5.070 -0.14 -0.01    -0.021 A 
DOCKED: ATOM      7  C   UNL d   1     -14.985  -2.182   6.332 -0.23 -0.01    -0.025 A 
DOCKED: ATOM      8  C   UNL d   1     -15.916  -1.484   7.109 -0.12 +0.02    +0.066 A 
DOCKED: ATOM      9  C   UNL d   1     -13.632  -2.736   6.805 -0.28 +0.01    +0.051 C 
DOCKED: ATOM     10  C   UNL d   1     -16.558  -0.520   9.275 -0.20 +0.02    +0.066 A 
DOCKED: ATOM     11  C   UNL d   1     -16.297  -0.122  10.604 -0.30 -0.00    -0.021 A 
DOCKED: ATOM     12  C   UNL d   1     -17.454   0.515  11.059 -0.22 +0.00    +0.000 A 
DOCKED: ATOM     13  C   UNL d   1     -18.329   0.471   9.973 -0.16 +0.02    +0.070 A 
DOCKED: ATOM     14  C   UNL d   1     -14.988  -0.267  11.338 -0.42 -0.00    +0.052 C 
DOCKED: ATOM     15  C   UNL d   1     -20.639   0.916   9.051 -0.09 +0.03    +0.066 A 
DOCKED: ATOM     16  C   UNL d   1     -21.965   1.275   9.244 -0.05 -0.01    -0.021 A 
DOCKED: ATOM     17  C   UNL d   1     -22.596   1.079   8.007 -0.05 +0.00    +0.000 A 
DOCKED: ATOM     18  C   UNL d   1     -21.596   0.630   7.150 -0.04 +0.05    +0.070 A 
DOCKED: ATOM     19  C   UNL d   1     -22.560   1.769  10.544 -0.02 +0.01    +0.052 C 
DOCKED: ATOM     20  C   UNL d   1     -20.823  -0.267   4.923 -0.02 +0.08    +0.066 A 
DOCKED: ATOM     21  C   UNL d   1     -21.110  -0.625   3.608 -0.02 -0.03    -0.025 A 
DOCKED: ATOM     22  C   UNL d   1     -19.930  -1.132   3.093 -0.05 -0.02    -0.021 A 
DOCKED: ATOM     23  C   UNL d   1     -18.978  -1.069   4.132 -0.08 +0.06    +0.066 A 
DOCKED: ATOM     24  C   UNL d   1     -22.447  -0.509   2.881 -0.04 +0.04    +0.051 C 
DOCKED: ATOM     25  N   UNL d   1     -17.043  -1.121   6.391 -0.06 -0.12    -0.248 N 
DOCKED: ATOM     26  N   UNL d   1     -17.765  -0.105   8.878 -0.12 -0.08    -0.248 N 
DOCKED: ATOM     27  N   UNL d   1     -20.451   0.517   7.813 -0.06 -0.15    -0.248 N 
DOCKED: ATOM     28  N   UNL d   1     -19.515  -0.548   5.242 -0.07 -0.25    -0.248 N 
DOCKED: ATOM     29 FE   UNL d   1     -18.849  -0.253   7.141 -0.03 +0.00    +0.000 Fe
DOCKED: ENDROOT
DOCKED: BRANCH   6  30
DOCKED: ATOM     30  C   UNL d   1     -14.948  -2.985   3.864 -0.21 +0.03    +0.052 C 
DOCKED: BRANCH  30  31
DOCKED: ATOM     31  C   UNL d   1     -14.027  -2.054   3.077 -0.22 +0.09    +0.115 C 
DOCKED: BRANCH  31  32
DOCKED: ATOM     32  C   UNL d   1     -14.788  -1.171   2.111 -0.20 +0.15    +0.139 C 
DOCKED: ATOM     33  O   UNL d   1     -14.827   0.035   2.302 -0.04 -0.97    -0.650 OA
DOCKED: BRANCH  32  34
DOCKED: ATOM     34  O   UNL d   1     -15.392  -1.669   1.007 +0.03 -0.98    -0.776 OA
DOCKED: ATOM     35  H   UNL d   1     -16.257  -1.381   0.684 +0.03 +0.20    +0.167 HD
DOCKED: ENDBRANCH  32  34
DOCKED: ENDBRANCH  31  32
DOCKED: ENDBRANCH  30  31
DOCKED: ENDBRANCH   6  30
DOCKED: BRANCH  29  36
DOCKED: ATOM     36  C   UNL d   1     -19.430  -2.197   7.671 -0.04 +0.07    +0.190 C 
DOCKED: BRANCH  36  37
DOCKED: ATOM     37  O   UNL d   1     -19.343  -3.534   7.270 -0.14 -0.14    -0.399 OA
DOCKED: ATOM     38  H   UNL d   1     -18.822  -3.513   6.419 +0.04 +0.09    +0.209 HD
DOCKED: ENDBRANCH  36  37
DOCKED: ENDBRANCH  29  36
DOCKED: BRANCH  22  39
DOCKED: ATOM     39  C   UNL d   1     -19.753  -1.705   1.699 -0.01 +0.04    +0.052 C 
DOCKED: BRANCH  39  40
DOCKED: ATOM     40  C   UNL d   1     -19.583  -0.578   0.667 -0.02 +0.10    +0.115 C 
DOCKED: BRANCH  40  41
DOCKED: ATOM     41  C   UNL d   1     -18.552   0.465   1.045 -0.09 +0.19    +0.139 C 
DOCKED: ATOM     42  O   UNL d   1     -18.872   1.382   1.789 -0.41 -1.33    -0.650 OA
DOCKED: BRANCH  41  43
DOCKED: ATOM     43  O   UNL d   1     -17.262   0.364   0.653 -0.45 -1.34    -0.776 OA
DOCKED: ATOM     44  H   UNL d   1     -16.590  -0.078   1.188 +0.03 +0.29    +0.167 HD
DOCKED: ENDBRANCH  41  43
DOCKED: ENDBRANCH  40  41
DOCKED: ENDBRANCH  39  40
DOCKED: ENDBRANCH  22  39
DOCKED: BRANCH  12  45
DOCKED: ATOM     45  C   UNL d   1     -17.826   1.174  12.381 -0.19 +0.00    +0.004 C 
DOCKED: ATOM     46  C   UNL d   1     -17.422   2.322  12.920 -0.31 +0.00    +0.012 C 
DOCKED: ENDBRANCH  12  45
DOCKED: BRANCH  17  47
DOCKED: ATOM     47  C   UNL d   1     -24.032   1.240   7.632 -0.03 +0.00    +0.004 C 
DOCKED: ATOM     48  C   UNL d   1     -24.466   2.135   6.742 -0.03 +0.01    +0.012 C 
DOCKED: ENDBRANCH  17  47
DOCKED: TORSDOF 12
DOCKED: TER
DOCKED: ENDMDL
________________________________________________________________________________


	BEGINNING GENETIC ALGORITHM DOCKING 60 of 100
Run: 60 Seed: 542850975 1236081933 [ Run 60 of 100 GA/GALS ]
Beginning LAMARCKIAN GENETIC ALGORITHM (LGA), with a maximum of 25000000 energy evaluations.

Final-Value: -10.522


	FINAL GENETIC ALGORITHM DOCKED STATE
	_______________________________________________


Detailed state:  trans 9.631 -12.340 -4.975 quatxyzw -0.937971 -0.271208 0.199854 0.081950 center 8.781 34.984 -0.736 ntor 12 43.6308 113.2444 -151.3045 -38.8206 151.2827 110.6942 23.8797 115.1526 -179.8475 145.7681 -177.2561 165.8551
State:	  9.631 -12.340  -4.975  -0.941 -0.272  0.201 170.599     43.63  113.24 -151.30  -38.82  151.28  110.69   23.88  115.15 -179.85  145.77 -177.26  165.86

DOCKED: MODEL       60
DOCKED: USER    Run = 60
DOCKED: USER    DPF = D:/Protein_go_brrr/autodock/final/AncMH_nat/heme_Co/dock.dpf
DOCKED: USER  
DOCKED: USER    Estimated Free Energy of Binding    =   -3.01 kcal/mol  [=(1)+(2)+(3)-(4)]
DOCKED: USER    Estimated Inhibition Constant, Ki   =    6.27 mM (millimolar)  [Temperature = 298.15 K]
DOCKED: USER    
DOCKED: USER    (1) Final Intermolecular Energy     =   -6.59 kcal/mol
DOCKED: USER        vdW + Hbond + desolv Energy     =   -6.92 kcal/mol
DOCKED: USER        Electrostatic Energy            =   +0.34 kcal/mol
DOCKED: USER    (2) Final Total Internal Energy     =   -3.94 kcal/mol
DOCKED: USER    (3) Torsional Free Energy           =   +3.58 kcal/mol
DOCKED: USER    (4) Unbound System's Energy  [=(2)] =   -3.94 kcal/mol
DOCKED: USER    
DOCKED: USER    
DOCKED: USER    NEWDPF move heme_Co_opt.pdbqt
DOCKED: USER    NEWDPF about 8.781000 34.984000 -0.736000
DOCKED: USER    NEWDPF tran0 9.631186 -12.339932 -4.974556
DOCKED: USER    NEWDPF quaternion0 -0.937971 -0.271208 0.199854 0.081950
DOCKED: USER    NEWDPF axisangle0 -0.941136 -0.272123 0.200529 170.598688
DOCKED: USER    NEWDPF quat0 -0.941136 -0.272123 0.200529 170.598688
DOCKED: USER    NEWDPF dihe0 43.63 113.24 -151.30 -38.82 151.28 110.69 23.88 115.15 -179.85 145.77 -177.26 165.86 
DOCKED: USER  keepresnum = 1 
DOCKED: USER  
DOCKED: REMARK  12 active torsions:
DOCKED: REMARK  status: ('A' for Active; 'I' for Inactive)
DOCKED: REMARK    1  A    between atoms: C_6  and  C_10 
DOCKED: REMARK    2  A    between atoms: C_10  and  C_11 
DOCKED: REMARK    3  A    between atoms: C_11  and  C_12 
DOCKED: REMARK    4  A    between atoms: C_12  and  O_14 
DOCKED: REMARK    5  A    between atoms: C_17  and  C_20 
DOCKED: REMARK    6  A    between atoms: C_24  and  C_27 
DOCKED: REMARK    7  A    between atoms: C_31  and  C_34 
DOCKED: REMARK    8  A    between atoms: C_34  and  C_35 
DOCKED: REMARK    9  A    between atoms: C_35  and  C_36 
DOCKED: REMARK   10  A    between atoms: C_36  and  O_38 
DOCKED: REMARK   11  A    between atoms: FE_43  and  C_44 
DOCKED: REMARK   12  A    between atoms: C_44  and  O_45 
DOCKED: USER                              x       y       z     vdW  Elec       q    Type
DOCKED: USER                           _______ _______ _______ _____ _____    ______ ____
DOCKED: ROOT
DOCKED: ATOM      1  C   UNL d   1       8.687 -13.457  -3.370 -0.21 -0.01    +0.064 A 
DOCKED: ATOM      2  C   UNL d   1       6.985 -11.604  -7.405 -0.22 -0.01    +0.064 C 
DOCKED: ATOM      3  C   UNL d   1      11.232  -9.618  -8.328 -0.29 -0.04    +0.064 A 
DOCKED: ATOM      4  C   UNL d   1      13.097 -11.819  -4.411 -0.21 -0.02    +0.064 A 
DOCKED: ATOM      5  C   UNL d   1       7.900 -13.066  -4.386 -0.21 -0.00    +0.066 A 
DOCKED: ATOM      6  C   UNL d   1       6.569 -13.511  -4.515 -0.16 -0.00    -0.021 A 
DOCKED: ATOM      7  C   UNL d   1       6.088 -12.989  -5.699 -0.17 -0.00    -0.025 A 
DOCKED: ATOM      8  C   UNL d   1       7.138 -12.235  -6.234 -0.20 -0.00    +0.066 A 
DOCKED: ATOM      9  C   UNL d   1       4.695 -13.183  -6.318 -0.26 -0.01    +0.051 C 
DOCKED: ATOM     10  C   UNL d   1       8.000 -10.785  -8.019 -0.20 -0.01    +0.066 A 
DOCKED: ATOM     11  C   UNL d   1       7.854  -9.985  -9.173 -0.22 +0.00    -0.021 A 
DOCKED: ATOM     12  C   UNL d   1       9.106  -9.414  -9.418 -0.28 -0.00    +0.000 A 
DOCKED: ATOM     13  C   UNL d   1       9.918  -9.896  -8.390 -0.28 -0.03    +0.070 A 
DOCKED: ATOM     14  C   UNL d   1       6.571  -9.722  -9.920 -0.30 -0.01    +0.052 C 
DOCKED: ATOM     15  C   UNL d   1      12.223 -10.072  -7.372 -0.25 -0.03    +0.066 A 
DOCKED: ATOM     16  C   UNL d   1      13.593  -9.865  -7.447 -0.27 +0.01    -0.021 A 
DOCKED: ATOM     17  C   UNL d   1      14.136 -10.500  -6.321 -0.25 -0.00    +0.000 A 
DOCKED: ATOM     18  C   UNL d   1      13.048 -11.031  -5.637 -0.25 -0.02    +0.070 A 
DOCKED: ATOM     19  C   UNL d   1      14.307  -9.104  -8.543 -0.29 -0.04    +0.052 C 
DOCKED: ATOM     20  C   UNL d   1      12.063 -12.418  -3.775 -0.20 -0.02    +0.066 A 
DOCKED: ATOM     21  C   UNL d   1      12.240 -13.180  -2.622 -0.14 +0.01    -0.025 A 
DOCKED: ATOM     22  C   UNL d   1      10.981 -13.642  -2.282 -0.15 +0.01    -0.021 A 
DOCKED: ATOM     23  C   UNL d   1      10.093 -13.144  -3.259 -0.21 -0.02    +0.066 A 
DOCKED: ATOM     24  C   UNL d   1      13.548 -13.472  -1.890 -0.09 -0.01    +0.051 C 
DOCKED: ATOM     25  N   UNL d   1       8.271 -12.261  -5.438 -0.10 +0.05    -0.248 N 
DOCKED: ATOM     26  N   UNL d   1       9.234 -10.680  -7.514 -0.13 +0.09    -0.248 N 
DOCKED: ATOM     27  N   UNL d   1      11.929 -10.783  -6.307 -0.17 +0.11    -0.248 N 
DOCKED: ATOM     28  N   UNL d   1      10.744 -12.405  -4.166 -0.07 +0.10    -0.248 N 
DOCKED: ATOM     29 FE   UNL d   1      10.210 -11.479  -5.895 -0.05 -0.00    +0.000 Fe
DOCKED: ENDROOT
DOCKED: BRANCH   6  30
DOCKED: ATOM     30  C   UNL d   1       5.833 -14.462  -3.577 -0.13 +0.00    +0.052 C 
DOCKED: BRANCH  30  31
DOCKED: ATOM     31  C   UNL d   1       5.962 -15.905  -4.065 -0.06 -0.02    +0.115 C 
DOCKED: BRANCH  31  32
DOCKED: ATOM     32  C   UNL d   1       6.740 -16.009  -5.359 -0.02 -0.02    +0.139 C 
DOCKED: ATOM     33  O   UNL d   1       6.145 -16.234  -6.402 +0.03 +0.13    -0.650 OA
DOCKED: BRANCH  32  34
DOCKED: ATOM     34  O   UNL d   1       8.078 -15.813  -5.409 +0.04 +0.09    -0.776 OA
DOCKED: ATOM     35  H   UNL d   1       8.699 -16.124  -4.735 +0.01 -0.02    +0.167 HD
DOCKED: ENDBRANCH  32  34
DOCKED: ENDBRANCH  31  32
DOCKED: ENDBRANCH  30  31
DOCKED: ENDBRANCH   6  30
DOCKED: BRANCH  29  36
DOCKED: ATOM     36  C   UNL d   1      10.544 -13.247  -6.972 -0.05 -0.04    +0.190 C 
DOCKED: BRANCH  36  37
DOCKED: ATOM     37  O   UNL d   1      10.382 -14.635  -6.914 -0.00 +0.06    -0.399 OA
DOCKED: ATOM     38  H   UNL d   1       9.950 -14.805  -6.030 +0.02 -0.03    +0.209 HD
DOCKED: ENDBRANCH  36  37
DOCKED: ENDBRANCH  29  36
DOCKED: BRANCH  22  39
DOCKED: ATOM     39  C   UNL d   1      10.667 -14.563  -1.119 -0.10 -0.01    +0.052 C 
DOCKED: BRANCH  39  40
DOCKED: ATOM     40  C   UNL d   1      10.679 -16.033  -1.572 -0.02 -0.01    +0.115 C 
DOCKED: BRANCH  40  41
DOCKED: ATOM     41  C   UNL d   1      10.063 -16.272  -2.934 -0.01 -0.01    +0.139 C 
DOCKED: ATOM     42  O   UNL d   1       8.967 -16.810  -3.008 +0.02 +0.05    -0.650 OA
DOCKED: BRANCH  41  43
DOCKED: ATOM     43  O   UNL d   1      10.650 -15.829  -4.068 +0.02 +0.09    -0.776 OA
DOCKED: ATOM     44  H   UNL d   1      10.142 -15.515  -4.827 +0.01 -0.02    +0.167 HD
DOCKED: ENDBRANCH  41  43
DOCKED: ENDBRANCH  40  41
DOCKED: ENDBRANCH  39  40
DOCKED: ENDBRANCH  22  39
DOCKED: BRANCH  12  45
DOCKED: ATOM     45  C   UNL d   1       9.621  -8.459 -10.486 -0.29 -0.00    +0.004 C 
DOCKED: ATOM     46  C   UNL d   1       9.472  -8.476 -11.808 -0.24 -0.00    +0.012 C 
DOCKED: ENDBRANCH  12  45
DOCKED: BRANCH  17  47
DOCKED: ATOM     47  C   UNL d   1      15.563 -10.662  -5.912 -0.19 -0.00    +0.004 C 
DOCKED: ATOM     48  C   UNL d   1      16.020 -10.362  -4.694 -0.16 +0.00    +0.012 C 
DOCKED: ENDBRANCH  17  47
DOCKED: TORSDOF 12
DOCKED: TER
DOCKED: ENDMDL
________________________________________________________________________________


	BEGINNING GENETIC ALGORITHM DOCKING 61 of 100
Run: 61 Seed: 960438148 1485446080 [ Run 61 of 100 GA/GALS ]
Beginning LAMARCKIAN GENETIC ALGORITHM (LGA), with a maximum of 25000000 energy evaluations.

Final-Value: -9.715


	FINAL GENETIC ALGORITHM DOCKED STATE
	_______________________________________________


Detailed state:  trans -4.967 20.549 6.229 quatxyzw -0.079486 0.971785 0.039681 0.218499 center 8.781 34.984 -0.736 ntor 12 -58.5447 101.7619 4.4054 53.9580 150.7477 158.6515 91.3137 138.9734 7.5520 174.6663 13.4675 -5.9196
State:	 -4.967  20.549   6.229  -0.081  0.996  0.041 154.758    -58.54  101.76    4.41   53.96  150.75  158.65   91.31  138.97    7.55  174.67   13.47   -5.92

DOCKED: MODEL       61
DOCKED: USER    Run = 61
DOCKED: USER    DPF = D:/Protein_go_brrr/autodock/final/AncMH_nat/heme_Co/dock.dpf
DOCKED: USER  
DOCKED: USER    Estimated Free Energy of Binding    =   -5.36 kcal/mol  [=(1)+(2)+(3)-(4)]
DOCKED: USER    Estimated Inhibition Constant, Ki   =  117.99 uM (micromolar)  [Temperature = 298.15 K]
DOCKED: USER    
DOCKED: USER    (1) Final Intermolecular Energy     =   -8.94 kcal/mol
DOCKED: USER        vdW + Hbond + desolv Energy     =   -5.75 kcal/mol
DOCKED: USER        Electrostatic Energy            =   -3.19 kcal/mol
DOCKED: USER    (2) Final Total Internal Energy     =   -0.78 kcal/mol
DOCKED: USER    (3) Torsional Free Energy           =   +3.58 kcal/mol
DOCKED: USER    (4) Unbound System's Energy  [=(2)] =   -0.78 kcal/mol
DOCKED: USER    
DOCKED: USER    
DOCKED: USER    NEWDPF move heme_Co_opt.pdbqt
DOCKED: USER    NEWDPF about 8.781000 34.984000 -0.736000
DOCKED: USER    NEWDPF tran0 -4.967259 20.548914 6.229480
DOCKED: USER    NEWDPF quaternion0 -0.079486 0.971785 0.039681 0.218499
DOCKED: USER    NEWDPF axisangle0 -0.081455 0.995847 0.040664 154.758211
DOCKED: USER    NEWDPF quat0 -0.081455 0.995847 0.040664 154.758211
DOCKED: USER    NEWDPF dihe0 -58.54 101.76 4.41 53.96 150.75 158.65 91.31 138.97 7.55 174.67 13.47 -5.92 
DOCKED: USER  keepresnum = 1 
DOCKED: USER  
DOCKED: REMARK  12 active torsions:
DOCKED: REMARK  status: ('A' for Active; 'I' for Inactive)
DOCKED: REMARK    1  A    between atoms: C_6  and  C_10 
DOCKED: REMARK    2  A    between atoms: C_10  and  C_11 
DOCKED: REMARK    3  A    between atoms: C_11  and  C_12 
DOCKED: REMARK    4  A    between atoms: C_12  and  O_14 
DOCKED: REMARK    5  A    between atoms: C_17  and  C_20 
DOCKED: REMARK    6  A    between atoms: C_24  and  C_27 
DOCKED: REMARK    7  A    between atoms: C_31  and  C_34 
DOCKED: REMARK    8  A    between atoms: C_34  and  C_35 
DOCKED: REMARK    9  A    between atoms: C_35  and  C_36 
DOCKED: REMARK   10  A    between atoms: C_36  and  O_38 
DOCKED: REMARK   11  A    between atoms: FE_43  and  C_44 
DOCKED: REMARK   12  A    between atoms: C_44  and  O_45 
DOCKED: USER                              x       y       z     vdW  Elec       q    Type
DOCKED: USER                           _______ _______ _______ _____ _____    ______ ____
DOCKED: ROOT
DOCKED: ATOM      1  C   UNL d   1      -2.944  21.336   6.242 -0.03 +0.02    +0.064 A 
DOCKED: ATOM      2  C   UNL d   1      -5.311  18.660   3.104 -0.20 +0.00    +0.064 C 
DOCKED: ATOM      3  C   UNL d   1      -9.040  18.403   6.081 -0.16 -0.01    +0.064 A 
DOCKED: ATOM      4  C   UNL d   1      -6.795  21.452   9.135 -0.11 +0.01    +0.064 A 
DOCKED: ATOM      5  C   UNL d   1      -3.302  20.594   5.182 -0.05 +0.01    +0.066 A 
DOCKED: ATOM      6  C   UNL d   1      -2.486  20.479   4.039 -0.08 -0.00    -0.021 A 
DOCKED: ATOM      7  C   UNL d   1      -3.188  19.720   3.123 -0.12 -0.00    -0.025 A 
DOCKED: ATOM      8  C   UNL d   1      -4.394  19.391   3.751 -0.12 +0.01    +0.066 A 
DOCKED: ATOM      9  C   UNL d   1      -2.754  19.313   1.707 -0.09 +0.00    +0.051 C 
DOCKED: ATOM     10  C   UNL d   1      -6.569  18.251   3.679 -0.14 -0.00    +0.066 A 
DOCKED: ATOM     11  C   UNL d   1      -7.511  17.369   3.106 -0.24 +0.00    -0.021 A 
DOCKED: ATOM     12  C   UNL d   1      -8.586  17.309   3.997 -0.27 -0.00    +0.000 A 
DOCKED: ATOM     13  C   UNL d   1      -8.216  18.146   5.050 -0.16 -0.01    +0.070 A 
DOCKED: ATOM     14  C   UNL d   1      -7.332  16.574   1.838 -0.42 +0.00    +0.052 C 
DOCKED: ATOM     15  C   UNL d   1      -8.842  19.278   7.220 -0.13 -0.02    +0.066 A 
DOCKED: ATOM     16  C   UNL d   1      -9.791  19.611   8.177 -0.18 +0.01    -0.021 A 
DOCKED: ATOM     17  C   UNL d   1      -9.149  20.492   9.058 -0.18 -0.00    +0.000 A 
DOCKED: ATOM     18  C   UNL d   1      -7.850  20.614   8.578 -0.15 -0.00    +0.070 A 
DOCKED: ATOM     19  C   UNL d   1     -11.215  19.101   8.214 -0.17 -0.03    +0.052 C 
DOCKED: ATOM     20  C   UNL d   1      -5.552  21.654   8.637 -0.08 +0.02    +0.066 A 
DOCKED: ATOM     21  C   UNL d   1      -4.638  22.513   9.243 -0.06 -0.01    -0.025 A 
DOCKED: ATOM     22  C   UNL d   1      -3.508  22.477   8.447 -0.04 -0.01    -0.021 A 
DOCKED: ATOM     23  C   UNL d   1      -3.795  21.601   7.379 -0.04 +0.03    +0.066 A 
DOCKED: ATOM     24  C   UNL d   1      -4.838  23.343  10.508 -0.04 +0.01    +0.051 C 
DOCKED: ATOM     25  N   UNL d   1      -4.490  19.915   5.029 -0.05 -0.04    -0.248 N 
DOCKED: ATOM     26  N   UNL d   1      -6.973  18.671   4.882 -0.10 +0.02    -0.248 N 
DOCKED: ATOM     27  N   UNL d   1      -7.711  19.901   7.466 -0.11 +0.02    -0.248 N 
DOCKED: ATOM     28  N   UNL d   1      -5.032  21.102   7.489 -0.04 -0.08    -0.248 N 
DOCKED: ATOM     29 FE   UNL d   1      -6.194  19.909   6.322 -0.03 +0.00    +0.000 Fe
DOCKED: ENDROOT
DOCKED: BRANCH   6  30
DOCKED: ATOM     30  C   UNL d   1      -1.131  21.142   3.819 -0.10 +0.01    +0.052 C 
DOCKED: BRANCH  30  31
DOCKED: ATOM     31  C   UNL d   1       0.002  20.167   4.139 -0.07 +0.05    +0.115 C 
DOCKED: BRANCH  31  32
DOCKED: ATOM     32  C   UNL d   1       1.365  20.822   4.068 -0.08 +0.11    +0.139 C 
DOCKED: ATOM     33  O   UNL d   1       1.589  21.648   3.196 -0.05 -0.40    -0.650 OA
DOCKED: BRANCH  32  34
DOCKED: ATOM     34  O   UNL d   1       2.336  20.558   4.972 -0.40 -1.20    -0.776 OA
DOCKED: ATOM     35  H   UNL d   1       2.267  20.753   5.917 +0.02 +0.17    +0.167 HD
DOCKED: ENDBRANCH  32  34
DOCKED: ENDBRANCH  31  32
DOCKED: ENDBRANCH  30  31
DOCKED: ENDBRANCH   6  30
DOCKED: BRANCH  29  36
DOCKED: ATOM     36  C   UNL d   1      -6.872  21.579   5.250 -0.01 +0.01    +0.190 C 
DOCKED: BRANCH  36  37
DOCKED: ATOM     37  O   UNL d   1      -6.572  22.397   4.157 +0.00 -0.03    -0.399 OA
DOCKED: ATOM     38  H   UNL d   1      -5.642  22.146   3.896 +0.01 +0.02    +0.209 HD
DOCKED: ENDBRANCH  36  37
DOCKED: ENDBRANCH  29  36
DOCKED: BRANCH  22  39
DOCKED: ATOM     39  C   UNL d   1      -2.249  23.294   8.670 -0.01 +0.02    +0.052 C 
DOCKED: BRANCH  39  40
DOCKED: ATOM     40  C   UNL d   1      -1.202  22.477   9.445 -0.02 +0.05    +0.115 C 
DOCKED: BRANCH  40  41
DOCKED: ATOM     41  C   UNL d   1      -1.728  21.183  10.030 -0.00 +0.15    +0.139 C 
DOCKED: ATOM     42  O   UNL d   1      -2.316  21.207  11.102 -0.31 -1.01    -0.650 OA
DOCKED: BRANCH  41  43
DOCKED: ATOM     43  O   UNL d   1      -1.641  20.013   9.359 +0.15 -1.21    -0.776 OA
DOCKED: ATOM     44  H   UNL d   1      -1.114  19.913   8.556 +0.03 +0.15    +0.167 HD
DOCKED: ENDBRANCH  41  43
DOCKED: ENDBRANCH  40  41
DOCKED: ENDBRANCH  39  40
DOCKED: ENDBRANCH  22  39
DOCKED: BRANCH  12  45
DOCKED: ATOM     45  C   UNL d   1      -9.904  16.547   3.983 -0.40 -0.00    +0.004 C 
DOCKED: ATOM     46  C   UNL d   1     -10.166  15.275   3.694 -0.57 -0.00    +0.012 C 
DOCKED: ENDBRANCH  12  45
DOCKED: BRANCH  17  47
DOCKED: ATOM     47  C   UNL d   1      -9.694  21.224  10.241 -0.17 -0.00    +0.004 C 
DOCKED: ATOM     48  C   UNL d   1      -9.117  21.212  11.445 -0.16 -0.01    +0.012 C 
DOCKED: ENDBRANCH  17  47
DOCKED: TORSDOF 12
DOCKED: TER
DOCKED: ENDMDL
________________________________________________________________________________


	BEGINNING GENETIC ALGORITHM DOCKING 62 of 100
Run: 62 Seed: 395071560 1988919864 [ Run 62 of 100 GA/GALS ]
Beginning LAMARCKIAN GENETIC ALGORITHM (LGA), with a maximum of 25000000 energy evaluations.

Final-Value: -10.657


	FINAL GENETIC ALGORITHM DOCKED STATE
	_______________________________________________


Detailed state:  trans -19.384 10.195 6.757 quatxyzw 0.471438 0.236801 -0.557024 0.641402 center 8.781 34.984 -0.736 ntor 12 39.3330 112.3236 -47.2690 116.5864 -91.9785 163.0750 -169.6705 -159.8546 -30.8087 7.9348 -160.5188 160.1137
State:	-19.384  10.195   6.757   0.614  0.309 -0.726 100.207     39.33  112.32  -47.27  116.59  -91.98  163.07 -169.67 -159.85  -30.81    7.93 -160.52  160.11

DOCKED: MODEL       62
DOCKED: USER    Run = 62
DOCKED: USER    DPF = D:/Protein_go_brrr/autodock/final/AncMH_nat/heme_Co/dock.dpf
DOCKED: USER  
DOCKED: USER    Estimated Free Energy of Binding    =   -5.41 kcal/mol  [=(1)+(2)+(3)-(4)]
DOCKED: USER    Estimated Inhibition Constant, Ki   =  107.67 uM (micromolar)  [Temperature = 298.15 K]
DOCKED: USER    
DOCKED: USER    (1) Final Intermolecular Energy     =   -8.99 kcal/mol
DOCKED: USER        vdW + Hbond + desolv Energy     =   -5.81 kcal/mol
DOCKED: USER        Electrostatic Energy            =   -3.18 kcal/mol
DOCKED: USER    (2) Final Total Internal Energy     =   -1.66 kcal/mol
DOCKED: USER    (3) Torsional Free Energy           =   +3.58 kcal/mol
DOCKED: USER    (4) Unbound System's Energy  [=(2)] =   -1.66 kcal/mol
DOCKED: USER    
DOCKED: USER    
DOCKED: USER    NEWDPF move heme_Co_opt.pdbqt
DOCKED: USER    NEWDPF about 8.781000 34.984000 -0.736000
DOCKED: USER    NEWDPF tran0 -19.383592 10.194815 6.757071
DOCKED: USER    NEWDPF quaternion0 0.471438 0.236801 -0.557024 0.641402
DOCKED: USER    NEWDPF axisangle0 0.614488 0.308654 -0.726043 100.207166
DOCKED: USER    NEWDPF quat0 0.614488 0.308654 -0.726043 100.207166
DOCKED: USER    NEWDPF dihe0 39.33 112.32 -47.27 116.59 -91.98 163.07 -169.67 -159.85 -30.81 7.93 -160.52 160.11 
DOCKED: USER  keepresnum = 1 
DOCKED: USER  
DOCKED: REMARK  12 active torsions:
DOCKED: REMARK  status: ('A' for Active; 'I' for Inactive)
DOCKED: REMARK    1  A    between atoms: C_6  and  C_10 
DOCKED: REMARK    2  A    between atoms: C_10  and  C_11 
DOCKED: REMARK    3  A    between atoms: C_11  and  C_12 
DOCKED: REMARK    4  A    between atoms: C_12  and  O_14 
DOCKED: REMARK    5  A    between atoms: C_17  and  C_20 
DOCKED: REMARK    6  A    between atoms: C_24  and  C_27 
DOCKED: REMARK    7  A    between atoms: C_31  and  C_34 
DOCKED: REMARK    8  A    between atoms: C_34  and  C_35 
DOCKED: REMARK    9  A    between atoms: C_35  and  C_36 
DOCKED: REMARK   10  A    between atoms: C_36  and  O_38 
DOCKED: REMARK   11  A    between atoms: FE_43  and  C_44 
DOCKED: REMARK   12  A    between atoms: C_44  and  O_45 
DOCKED: USER                              x       y       z     vdW  Elec       q    Type
DOCKED: USER                           _______ _______ _______ _____ _____    ______ ____
DOCKED: ROOT
DOCKED: ATOM      1  C   UNL d   1     -19.441   8.058   6.375 -0.14 +0.02    +0.064 A 
DOCKED: ATOM      2  C   UNL d   1     -20.894  10.685  10.063 -0.12 +0.01    +0.064 C 
DOCKED: ATOM      3  C   UNL d   1     -19.050  14.604   8.046 -0.09 -0.00    +0.064 A 
DOCKED: ATOM      4  C   UNL d   1     -17.898  12.012   4.094 -0.22 -0.01    +0.064 A 
DOCKED: ATOM      5  C   UNL d   1     -19.942   8.482   7.548 -0.24 +0.02    +0.066 A 
DOCKED: ATOM      6  C   UNL d   1     -20.643   7.622   8.415 -0.23 -0.01    -0.021 A 
DOCKED: ATOM      7  C   UNL d   1     -21.082   8.394   9.473 -0.16 -0.01    -0.025 A 
DOCKED: ATOM      8  C   UNL d   1     -20.616   9.688   9.213 -0.15 +0.01    +0.066 A 
DOCKED: ATOM      9  C   UNL d   1     -21.910   7.947  10.687 -0.10 +0.01    +0.051 C 
DOCKED: ATOM     10  C   UNL d   1     -20.436  12.041   9.893 -0.09 +0.01    +0.066 A 
DOCKED: ATOM     11  C   UNL d   1     -20.574  13.100  10.816 -0.04 -0.00    -0.021 A 
DOCKED: ATOM     12  C   UNL d   1     -20.024  14.230  10.204 -0.05 -0.00    +0.000 A 
DOCKED: ATOM     13  C   UNL d   1     -19.581  13.775   8.962 -0.09 -0.00    +0.070 A 
DOCKED: ATOM     14  C   UNL d   1     -21.111  12.995  12.221 -0.02 +0.01    +0.052 C 
DOCKED: ATOM     15  C   UNL d   1     -18.591  14.316   6.701 -0.10 -0.01    +0.066 A 
DOCKED: ATOM     16  C   UNL d   1     -18.187  15.244   5.752 -0.09 +0.00    -0.021 A 
DOCKED: ATOM     17  C   UNL d   1     -17.856  14.502   4.610 -0.16 -0.00    +0.000 A 
DOCKED: ATOM     18  C   UNL d   1     -18.069  13.172   4.959 -0.18 -0.01    +0.070 A 
DOCKED: ATOM     19  C   UNL d   1     -18.134  16.742   5.958 -0.03 -0.01    +0.052 C 
DOCKED: ATOM     20  C   UNL d   1     -18.181  10.719   4.383 -0.24 +0.00    +0.066 A 
DOCKED: ATOM     21  C   UNL d   1     -18.008   9.695   3.455 -0.25 -0.00    -0.025 A 
DOCKED: ATOM     22  C   UNL d   1     -18.417   8.539   4.094 -0.29 -0.01    -0.021 A 
DOCKED: ATOM     23  C   UNL d   1     -18.835   8.920   5.387 -0.29 +0.02    +0.066 A 
DOCKED: ATOM     24  C   UNL d   1     -17.497   9.813   2.021 -0.26 -0.00    +0.051 C 
DOCKED: ATOM     25  N   UNL d   1     -19.901   9.770   8.031 -0.15 -0.05    -0.248 N 
DOCKED: ATOM     26  N   UNL d   1     -19.780  12.440   8.798 -0.09 -0.02    -0.248 N 
DOCKED: ATOM     27  N   UNL d   1     -18.535  13.102   6.201 -0.07 +0.01    -0.248 N 
DOCKED: ATOM     28  N   UNL d   1     -18.695  10.240   5.565 -0.17 -0.04    -0.248 N 
DOCKED: ATOM     29 FE   UNL d   1     -19.176  11.532   7.059 -0.05 +0.00    +0.000 Fe
DOCKED: ENDROOT
DOCKED: BRANCH   6  30
DOCKED: ATOM     30  C   UNL d   1     -20.942   6.144   8.186 -0.19 +0.02    +0.052 C 
DOCKED: BRANCH  30  31
DOCKED: ATOM     31  C   UNL d   1     -22.077   5.976   7.176 -0.14 +0.05    +0.115 C 
DOCKED: BRANCH  31  32
DOCKED: ATOM     32  C   UNL d   1     -21.920   4.728   6.334 +0.02 +0.13    +0.139 C 
DOCKED: ATOM     33  O   UNL d   1     -21.903   3.634   6.878 +0.05 -0.62    -0.650 OA
DOCKED: BRANCH  32  34
DOCKED: ATOM     34  O   UNL d   1     -21.844   4.778   4.984 -0.18 -1.20    -0.776 OA
DOCKED: ATOM     35  H   UNL d   1     -21.413   5.488   4.489 +0.01 +0.22    +0.167 HD
DOCKED: ENDBRANCH  32  34
DOCKED: ENDBRANCH  31  32
DOCKED: ENDBRANCH  30  31
DOCKED: ENDBRANCH   6  30
DOCKED: BRANCH  29  36
DOCKED: ATOM     36  C   UNL d   1     -21.107  11.758   6.273 -0.03 +0.02    +0.190 C 
DOCKED: BRANCH  36  37
DOCKED: ATOM     37  O   UNL d   1     -22.407  11.249   6.351 +0.00 -0.04    -0.399 OA
DOCKED: ATOM     38  H   UNL d   1     -22.355  10.512   7.022 +0.02 +0.03    +0.209 HD
DOCKED: ENDBRANCH  36  37
DOCKED: ENDBRANCH  29  36
DOCKED: BRANCH  22  39
DOCKED: ATOM     39  C   UNL d   1     -18.465   7.157   3.469 -0.29 +0.03    +0.052 C 
DOCKED: BRANCH  39  40
DOCKED: ATOM     40  C   UNL d   1     -19.890   6.823   2.999 -0.16 +0.08    +0.115 C 
DOCKED: BRANCH  40  41
DOCKED: ATOM     41  C   UNL d   1     -20.045   5.436   2.410 -0.12 +0.18    +0.139 C 
DOCKED: ATOM     42  O   UNL d   1     -19.058   4.856   1.978 -0.07 -0.96    -0.650 OA
DOCKED: BRANCH  41  43
DOCKED: ATOM     43  O   UNL d   1     -21.228   4.785   2.429 -0.36 -1.36    -0.776 OA
DOCKED: ATOM     44  H   UNL d   1     -21.818   4.800   3.194 +0.01 +0.31    +0.167 HD
DOCKED: ENDBRANCH  41  43
DOCKED: ENDBRANCH  40  41
DOCKED: ENDBRANCH  39  40
DOCKED: ENDBRANCH  22  39
DOCKED: BRANCH  12  45
DOCKED: ATOM     45  C   UNL d   1     -19.850  15.674  10.655 -0.02 -0.00    +0.004 C 
DOCKED: ATOM     46  C   UNL d   1     -18.757  16.346  11.006 -0.02 -0.00    +0.012 C 
DOCKED: ENDBRANCH  12  45
DOCKED: BRANCH  17  47
DOCKED: ATOM     47  C   UNL d   1     -17.419  14.971   3.261 -0.10 -0.00    +0.004 C 
DOCKED: ATOM     48  C   UNL d   1     -18.151  14.815   2.154 -0.11 -0.01    +0.012 C 
DOCKED: ENDBRANCH  17  47
DOCKED: TORSDOF 12
DOCKED: TER
DOCKED: ENDMDL
________________________________________________________________________________


	BEGINNING GENETIC ALGORITHM DOCKING 63 of 100
Run: 63 Seed: 1059312972 1869443458 [ Run 63 of 100 GA/GALS ]
Beginning LAMARCKIAN GENETIC ALGORITHM (LGA), with a maximum of 25000000 energy evaluations.

Final-Value: -9.494


	FINAL GENETIC ALGORITHM DOCKED STATE
	_______________________________________________


Detailed state:  trans 10.410 -12.239 -4.516 quatxyzw -0.748888 -0.401566 0.510528 0.131421 center 8.781 34.984 -0.736 ntor 12 -155.8570 96.1517 -63.8579 130.8964 158.6015 134.2483 36.3194 180.0000 148.6141 121.0103 -151.8104 2.2226
State:	 10.410 -12.239  -4.516  -0.755 -0.405  0.515 164.897   -155.86   96.15  -63.86  130.90  158.60  134.25   36.32  180.00  148.61  121.01 -151.81    2.22

DOCKED: MODEL       63
DOCKED: USER    Run = 63
DOCKED: USER    DPF = D:/Protein_go_brrr/autodock/final/AncMH_nat/heme_Co/dock.dpf
DOCKED: USER  
DOCKED: USER    Estimated Free Energy of Binding    =   -3.60 kcal/mol  [=(1)+(2)+(3)-(4)]
DOCKED: USER    Estimated Inhibition Constant, Ki   =    2.30 mM (millimolar)  [Temperature = 298.15 K]
DOCKED: USER    
DOCKED: USER    (1) Final Intermolecular Energy     =   -7.18 kcal/mol
DOCKED: USER        vdW + Hbond + desolv Energy     =   -7.57 kcal/mol
DOCKED: USER        Electrostatic Energy            =   +0.39 kcal/mol
DOCKED: USER    (2) Final Total Internal Energy     =   -2.32 kcal/mol
DOCKED: USER    (3) Torsional Free Energy           =   +3.58 kcal/mol
DOCKED: USER    (4) Unbound System's Energy  [=(2)] =   -2.32 kcal/mol
DOCKED: USER    
DOCKED: USER    
DOCKED: USER    NEWDPF move heme_Co_opt.pdbqt
DOCKED: USER    NEWDPF about 8.781000 34.984000 -0.736000
DOCKED: USER    NEWDPF tran0 10.410138 -12.238892 -4.516498
DOCKED: USER    NEWDPF quaternion0 -0.748888 -0.401566 0.510528 0.131421
DOCKED: USER    NEWDPF axisangle0 -0.755441 -0.405079 0.514995 164.896517
DOCKED: USER    NEWDPF quat0 -0.755441 -0.405079 0.514995 164.896517
DOCKED: USER    NEWDPF dihe0 -155.86 96.15 -63.86 130.90 158.60 134.25 36.32 180.00 148.61 121.01 -151.81 2.22 
DOCKED: USER  keepresnum = 1 
DOCKED: USER  
DOCKED: REMARK  12 active torsions:
DOCKED: REMARK  status: ('A' for Active; 'I' for Inactive)
DOCKED: REMARK    1  A    between atoms: C_6  and  C_10 
DOCKED: REMARK    2  A    between atoms: C_10  and  C_11 
DOCKED: REMARK    3  A    between atoms: C_11  and  C_12 
DOCKED: REMARK    4  A    between atoms: C_12  and  O_14 
DOCKED: REMARK    5  A    between atoms: C_17  and  C_20 
DOCKED: REMARK    6  A    between atoms: C_24  and  C_27 
DOCKED: REMARK    7  A    between atoms: C_31  and  C_34 
DOCKED: REMARK    8  A    between atoms: C_34  and  C_35 
DOCKED: REMARK    9  A    between atoms: C_35  and  C_36 
DOCKED: REMARK   10  A    between atoms: C_36  and  O_38 
DOCKED: REMARK   11  A    between atoms: FE_43  and  C_44 
DOCKED: REMARK   12  A    between atoms: C_44  and  O_45 
DOCKED: USER                              x       y       z     vdW  Elec       q    Type
DOCKED: USER                           _______ _______ _______ _____ _____    ______ ____
DOCKED: ROOT
DOCKED: ATOM      1  C   UNL d   1      11.035 -12.948  -2.561 -0.10 -0.02    +0.064 A 
DOCKED: ATOM      2  C   UNL d   1       6.813 -12.916  -4.749 -0.11 +0.01    +0.064 C 
DOCKED: ATOM      3  C   UNL d   1       8.685 -10.480  -8.408 -0.21 -0.02    +0.064 A 
DOCKED: ATOM      4  C   UNL d   1      13.090 -10.835  -6.374 -0.23 -0.02    +0.064 A 
DOCKED: ATOM      5  C   UNL d   1       9.736 -13.087  -2.874 -0.22 -0.01    +0.066 A 
DOCKED: ATOM      6  C   UNL d   1       8.848 -13.822  -2.065 -0.19 +0.00    -0.021 A 
DOCKED: ATOM      7  C   UNL d   1       7.630 -13.829  -2.716 -0.19 -0.00    -0.025 A 
DOCKED: ATOM      8  C   UNL d   1       7.822 -13.084  -3.885 -0.22 +0.00    +0.066 A 
DOCKED: ATOM      9  C   UNL d   1       6.325 -14.507  -2.268 -0.15 +0.01    +0.051 C 
DOCKED: ATOM     10  C   UNL d   1       6.910 -12.145  -5.963 -0.23 -0.00    +0.066 A 
DOCKED: ATOM     11  C   UNL d   1       5.854 -11.814  -6.839 -0.26 -0.00    -0.021 A 
DOCKED: ATOM     12  C   UNL d   1       6.427 -11.100  -7.895 -0.24 -0.00    +0.000 A 
DOCKED: ATOM     13  C   UNL d   1       7.785 -11.037  -7.580 -0.21 -0.01    +0.070 A 
DOCKED: ATOM     14  C   UNL d   1       4.389 -12.088  -6.614 -0.37 +0.00    +0.052 C 
DOCKED: ATOM     15  C   UNL d   1      10.124 -10.375  -8.266 -0.23 -0.03    +0.066 A 
DOCKED: ATOM     16  C   UNL d   1      11.015  -9.917  -9.226 -0.21 +0.01    -0.021 A 
DOCKED: ATOM     17  C   UNL d   1      12.287 -10.020  -8.645 -0.22 -0.00    +0.000 A 
DOCKED: ATOM     18  C   UNL d   1      12.069 -10.519  -7.365 -0.24 -0.03    +0.070 A 
DOCKED: ATOM     19  C   UNL d   1      10.640  -9.420 -10.604 -0.12 -0.03    +0.052 C 
DOCKED: ATOM     20  C   UNL d   1      12.910 -11.402  -5.157 -0.24 -0.02    +0.066 A 
DOCKED: ATOM     21  C   UNL d   1      13.974 -11.691  -4.306 -0.18 +0.01    -0.025 A 
DOCKED: ATOM     22  C   UNL d   1      13.410 -12.274  -3.187 -0.16 +0.01    -0.021 A 
DOCKED: ATOM     23  C   UNL d   1      12.018 -12.323  -3.417 -0.20 -0.02    +0.066 A 
DOCKED: ATOM     24  C   UNL d   1      15.460 -11.443  -4.556 -0.14 -0.01    +0.051 C 
DOCKED: ATOM     25  N   UNL d   1       9.116 -12.607  -4.005 -0.01 +0.06    -0.248 N 
DOCKED: ATOM     26  N   UNL d   1       8.066 -11.620  -6.384 -0.11 +0.06    -0.248 N 
DOCKED: ATOM     27  N   UNL d   1      10.773 -10.747  -7.185 -0.14 +0.11    -0.248 N 
DOCKED: ATOM     28  N   UNL d   1      11.712 -11.798  -4.609 -0.14 +0.10    -0.248 N 
DOCKED: ATOM     29 FE   UNL d   1       9.997 -11.622  -5.688 -0.06 -0.00    +0.000 Fe
DOCKED: ENDROOT
DOCKED: BRANCH   6  30
DOCKED: ATOM     30  C   UNL d   1       9.188 -14.550  -0.769 -0.11 -0.01    +0.052 C 
DOCKED: BRANCH  30  31
DOCKED: ATOM     31  C   UNL d   1      10.109 -15.738  -1.046 -0.03 -0.01    +0.115 C 
DOCKED: BRANCH  31  32
DOCKED: ATOM     32  C   UNL d   1       9.831 -16.384  -2.386 -0.01 -0.01    +0.139 C 
DOCKED: ATOM     33  O   UNL d   1       9.062 -17.333  -2.448 +0.01 +0.05    -0.650 OA
DOCKED: BRANCH  32  34
DOCKED: ATOM     34  O   UNL d   1      10.370 -15.915  -3.535 +0.02 +0.09    -0.776 OA
DOCKED: ATOM     35  H   UNL d   1      10.020 -16.104  -4.417 +0.01 -0.02    +0.167 HD
DOCKED: ENDBRANCH  32  34
DOCKED: ENDBRANCH  31  32
DOCKED: ENDBRANCH  30  31
DOCKED: ENDBRANCH   6  30
DOCKED: BRANCH  29  36
DOCKED: ATOM     36  C   UNL d   1      10.289 -13.529  -6.509 -0.06 -0.04    +0.190 C 
DOCKED: BRANCH  36  37
DOCKED: ATOM     37  O   UNL d   1      10.378 -14.884  -6.174 -0.00 +0.06    -0.399 OA
DOCKED: ATOM     38  H   UNL d   1      10.538 -14.895  -5.190 +0.02 -0.03    +0.209 HD
DOCKED: ENDBRANCH  36  37
DOCKED: ENDBRANCH  29  36
DOCKED: BRANCH  22  39
DOCKED: ATOM     39  C   UNL d   1      14.177 -12.813  -1.994 -0.10 -0.01    +0.052 C 
DOCKED: BRANCH  39  40
DOCKED: ATOM     40  C   UNL d   1      14.079 -11.844  -0.804 -0.14 -0.03    +0.115 C 
DOCKED: BRANCH  40  41
DOCKED: ATOM     41  C   UNL d   1      14.731 -10.497  -1.039 -0.20 -0.03    +0.139 C 
DOCKED: ATOM     42  O   UNL d   1      15.813 -10.447  -1.607 +0.01 +0.08    -0.650 OA
DOCKED: BRANCH  41  43
DOCKED: ATOM     43  O   UNL d   1      14.109  -9.341  -0.718 +0.01 +0.26    -0.776 OA
DOCKED: ATOM     44  H   UNL d   1      13.245  -9.099  -1.077 -0.47 -0.09    +0.167 HD
DOCKED: ENDBRANCH  41  43
DOCKED: ENDBRANCH  40  41
DOCKED: ENDBRANCH  39  40
DOCKED: ENDBRANCH  22  39
DOCKED: BRANCH  12  45
DOCKED: ATOM     45  C   UNL d   1       5.849 -10.458  -9.149 -0.32 -0.00    +0.004 C 
DOCKED: ATOM     46  C   UNL d   1       5.896  -9.199  -9.578 -0.40 -0.00    +0.012 C 
DOCKED: ENDBRANCH  12  45
DOCKED: BRANCH  17  47
DOCKED: ATOM     47  C   UNL d   1      13.630  -9.731  -9.231 -0.21 -0.00    +0.004 C 
DOCKED: ATOM     48  C   UNL d   1      14.595  -9.080  -8.577 -0.30 -0.01    +0.012 C 
DOCKED: ENDBRANCH  17  47
DOCKED: TORSDOF 12
DOCKED: TER
DOCKED: ENDMDL
________________________________________________________________________________


	BEGINNING GENETIC ALGORITHM DOCKING 64 of 100
Run: 64 Seed: 1476202202 1880180612 [ Run 64 of 100 GA/GALS ]
Beginning LAMARCKIAN GENETIC ALGORITHM (LGA), with a maximum of 25000000 energy evaluations.

Final-Value: -10.811


	FINAL GENETIC ALGORITHM DOCKED STATE
	_______________________________________________


Detailed state:  trans 6.441 -13.313 3.343 quatxyzw 0.872557 -0.058852 0.284883 -0.392457 center 8.781 34.984 -0.736 ntor 12 96.4532 108.9677 -32.6693 105.8537 130.2025 108.7694 19.6545 -2.1500 130.6723 175.6940 -131.9830 -178.5476
State:	  6.441 -13.313   3.343   0.949 -0.064  0.310 -133.785     96.45  108.97  -32.67  105.85  130.20  108.77   19.65   -2.15  130.67  175.69 -131.98 -178.55

DOCKED: MODEL       64
DOCKED: USER    Run = 64
DOCKED: USER    DPF = D:/Protein_go_brrr/autodock/final/AncMH_nat/heme_Co/dock.dpf
DOCKED: USER  
DOCKED: USER    Estimated Free Energy of Binding    =   -4.22 kcal/mol  [=(1)+(2)+(3)-(4)]
DOCKED: USER    Estimated Inhibition Constant, Ki   =  802.08 uM (micromolar)  [Temperature = 298.15 K]
DOCKED: USER    
DOCKED: USER    (1) Final Intermolecular Energy     =   -7.80 kcal/mol
DOCKED: USER        vdW + Hbond + desolv Energy     =   -6.03 kcal/mol
DOCKED: USER        Electrostatic Energy            =   -1.77 kcal/mol
DOCKED: USER    (2) Final Total Internal Energy     =   -3.01 kcal/mol
DOCKED: USER    (3) Torsional Free Energy           =   +3.58 kcal/mol
DOCKED: USER    (4) Unbound System's Energy  [=(2)] =   -3.01 kcal/mol
DOCKED: USER    
DOCKED: USER    
DOCKED: USER    NEWDPF move heme_Co_opt.pdbqt
DOCKED: USER    NEWDPF about 8.781000 34.984000 -0.736000
DOCKED: USER    NEWDPF tran0 6.440652 -13.312755 3.343371
DOCKED: USER    NEWDPF quaternion0 0.872557 -0.058852 0.284883 -0.392457
DOCKED: USER    NEWDPF axisangle0 0.948668 -0.063985 0.309733 -133.785037
DOCKED: USER    NEWDPF quat0 0.948668 -0.063985 0.309733 -133.785037
DOCKED: USER    NEWDPF dihe0 96.45 108.97 -32.67 105.85 130.20 108.77 19.65 -2.15 130.67 175.69 -131.98 -178.55 
DOCKED: USER  keepresnum = 1 
DOCKED: USER  
DOCKED: REMARK  12 active torsions:
DOCKED: REMARK  status: ('A' for Active; 'I' for Inactive)
DOCKED: REMARK    1  A    between atoms: C_6  and  C_10 
DOCKED: REMARK    2  A    between atoms: C_10  and  C_11 
DOCKED: REMARK    3  A    between atoms: C_11  and  C_12 
DOCKED: REMARK    4  A    between atoms: C_12  and  O_14 
DOCKED: REMARK    5  A    between atoms: C_17  and  C_20 
DOCKED: REMARK    6  A    between atoms: C_24  and  C_27 
DOCKED: REMARK    7  A    between atoms: C_31  and  C_34 
DOCKED: REMARK    8  A    between atoms: C_34  and  C_35 
DOCKED: REMARK    9  A    between atoms: C_35  and  C_36 
DOCKED: REMARK   10  A    between atoms: C_36  and  O_38 
DOCKED: REMARK   11  A    between atoms: FE_43  and  C_44 
DOCKED: REMARK   12  A    between atoms: C_44  and  O_45 
DOCKED: USER                              x       y       z     vdW  Elec       q    Type
DOCKED: USER                           _______ _______ _______ _____ _____    ______ ____
DOCKED: ROOT
DOCKED: ATOM      1  C   UNL d   1       4.287 -13.278   3.067 -0.01 +0.02    +0.064 A 
DOCKED: ATOM      2  C   UNL d   1       7.885 -13.987   0.040 -0.15 -0.00    +0.064 C 
DOCKED: ATOM      3  C   UNL d   1      11.036 -13.053   3.509 -0.13 -0.03    +0.064 A 
DOCKED: ATOM      4  C   UNL d   1       7.390 -12.703   6.709 -0.14 -0.02    +0.064 A 
DOCKED: ATOM      5  C   UNL d   1       5.038 -13.505   1.977 -0.13 +0.01    +0.066 A 
DOCKED: ATOM      6  C   UNL d   1       4.471 -13.890   0.746 -0.19 -0.01    -0.021 A 
DOCKED: ATOM      7  C   UNL d   1       5.521 -14.116  -0.122 -0.17 -0.01    -0.025 A 
DOCKED: ATOM      8  C   UNL d   1       6.682 -13.844   0.610 -0.13 +0.00    +0.066 A 
DOCKED: ATOM      9  C   UNL d   1       5.451 -14.572  -1.588 -0.16 +0.01    +0.051 C 
DOCKED: ATOM     10  C   UNL d   1       9.132 -13.705   0.707 -0.16 -0.01    +0.066 A 
DOCKED: ATOM     11  C   UNL d   1      10.418 -13.700   0.124 -0.16 +0.01    -0.021 A 
DOCKED: ATOM     12  C   UNL d   1      11.317 -13.421   1.156 -0.16 -0.00    +0.000 A 
DOCKED: ATOM     13  C   UNL d   1      10.515 -13.264   2.287 -0.15 -0.03    +0.070 A 
DOCKED: ATOM     14  C   UNL d   1      10.734 -13.858  -1.342 -0.15 -0.01    +0.052 C 
DOCKED: ATOM     15  C   UNL d   1      10.362 -12.921   4.786 -0.09 -0.04    +0.066 A 
DOCKED: ATOM     16  C   UNL d   1      10.968 -12.849   6.032 -0.10 +0.01    -0.021 A 
DOCKED: ATOM     17  C   UNL d   1       9.920 -12.750   6.959 -0.12 -0.00    +0.000 A 
DOCKED: ATOM     18  C   UNL d   1       8.754 -12.753   6.200 -0.12 -0.04    +0.070 A 
DOCKED: ATOM     19  C   UNL d   1      12.459 -12.876   6.286 -0.05 -0.02    +0.052 C 
DOCKED: ATOM     20  C   UNL d   1       6.240 -12.791   5.998 -0.16 -0.01    +0.066 A 
DOCKED: ATOM     21  C   UNL d   1       4.987 -12.767   6.605 -0.18 -0.00    -0.025 A 
DOCKED: ATOM     22  C   UNL d   1       4.072 -12.902   5.576 -0.21 -0.00    -0.021 A 
DOCKED: ATOM     23  C   UNL d   1       4.819 -13.014   4.385 -0.15 +0.01    +0.066 A 
DOCKED: ATOM     24  C   UNL d   1       4.675 -12.642   8.094 -0.24 -0.00    +0.051 C 
DOCKED: ATOM     25  N   UNL d   1       6.412 -13.457   1.912 -0.06 +0.01    -0.248 N 
DOCKED: ATOM     26  N   UNL d   1       9.191 -13.381   2.003 -0.11 +0.09    -0.248 N 
DOCKED: ATOM     27  N   UNL d   1       9.055 -12.886   4.913 -0.10 +0.20    -0.248 N 
DOCKED: ATOM     28  N   UNL d   1       6.132 -12.950   4.636 -0.08 +0.05    -0.248 N 
DOCKED: ATOM     29 FE   UNL d   1       7.809 -13.154   3.504 -0.04 -0.00    +0.000 Fe
DOCKED: ENDROOT
DOCKED: BRANCH   6  30
DOCKED: ATOM     30  C   UNL d   1       2.990 -14.106   0.455 -0.22 +0.02    +0.052 C 
DOCKED: BRANCH  30  31
DOCKED: ATOM     31  C   UNL d   1       2.351 -14.973   1.539 -0.19 +0.08    +0.115 C 
DOCKED: BRANCH  31  32
DOCKED: ATOM     32  C   UNL d   1       3.124 -16.249   1.789 +0.07 +0.15    +0.139 C 
DOCKED: ATOM     33  O   UNL d   1       2.644 -17.320   1.446 -0.36 -0.82    -0.650 OA
DOCKED: BRANCH  32  34
DOCKED: ATOM     34  O   UNL d   1       4.360 -16.243   2.340 +0.01 -0.62    -0.776 OA
DOCKED: ATOM     35  H   UNL d   1       4.533 -16.327   3.288 +0.01 +0.17    +0.167 HD
DOCKED: ENDBRANCH  32  34
DOCKED: ENDBRANCH  31  32
DOCKED: ENDBRANCH  30  31
DOCKED: ENDBRANCH   6  30
DOCKED: BRANCH  29  36
DOCKED: ATOM     36  C   UNL d   1       7.772 -15.231   3.781 -0.00 -0.01    +0.190 C 
DOCKED: BRANCH  36  37
DOCKED: ATOM     37  O   UNL d   1       6.909 -16.327   3.879 +0.01 -0.05    -0.399 OA
DOCKED: ATOM     38  H   UNL d   1       5.992 -15.935   3.847 +0.02 +0.06    +0.209 HD
DOCKED: ENDBRANCH  36  37
DOCKED: ENDBRANCH  29  36
DOCKED: BRANCH  22  39
DOCKED: ATOM     39  C   UNL d   1       2.566 -12.983   5.743 -0.40 +0.02    +0.052 C 
DOCKED: BRANCH  39  40
DOCKED: ATOM     40  C   UNL d   1       2.149 -14.381   6.230 -0.20 +0.08    +0.115 C 
DOCKED: BRANCH  40  41
DOCKED: ATOM     41  C   UNL d   1       3.261 -15.409   6.205 +0.00 +0.15    +0.139 C 
DOCKED: ATOM     42  O   UNL d   1       3.403 -16.159   7.161 -0.06 -0.45    -0.650 OA
DOCKED: BRANCH  41  43
DOCKED: ATOM     43  O   UNL d   1       4.046 -15.580   5.119 -0.50 -0.99    -0.776 OA
DOCKED: ATOM     44  H   UNL d   1       3.750 -15.365   4.225 +0.03 +0.26    +0.167 HD
DOCKED: ENDBRANCH  41  43
DOCKED: ENDBRANCH  40  41
DOCKED: ENDBRANCH  39  40
DOCKED: ENDBRANCH  22  39
DOCKED: BRANCH  12  45
DOCKED: ATOM     45  C   UNL d   1      12.832 -13.266   1.201 -0.13 -0.00    +0.004 C 
DOCKED: ATOM     46  C   UNL d   1      13.592 -12.174   1.171 -0.17 -0.00    +0.012 C 
DOCKED: ENDBRANCH  12  45
DOCKED: BRANCH  17  47
DOCKED: ATOM     47  C   UNL d   1       9.967 -12.707   8.451 -0.08 -0.00    +0.004 C 
DOCKED: ATOM     48  C   UNL d   1       9.703 -11.610   9.165 -0.08 -0.00    +0.012 C 
DOCKED: ENDBRANCH  17  47
DOCKED: TORSDOF 12
DOCKED: TER
DOCKED: ENDMDL
________________________________________________________________________________


	BEGINNING GENETIC ALGORITHM DOCKING 65 of 100
Run: 65 Seed: 924055259 98866831 [ Run 65 of 100 GA/GALS ]
Beginning LAMARCKIAN GENETIC ALGORITHM (LGA), with a maximum of 25000000 energy evaluations.

Final-Value: -9.719


	FINAL GENETIC ALGORITHM DOCKED STATE
	_______________________________________________


Detailed state:  trans -5.118 20.426 5.866 quatxyzw -0.099832 0.970363 0.035872 0.217122 center 8.781 34.984 -0.736 ntor 12 71.1078 106.5923 -9.5033 77.0968 167.6566 139.7646 -63.2506 -54.1799 11.5774 -165.6452 7.2236 -24.8776
State:	 -5.118  20.426   5.866  -0.102  0.994  0.037 154.920     71.11  106.59   -9.50   77.10  167.66  139.76  -63.25  -54.18   11.58 -165.65    7.22  -24.88

DOCKED: MODEL       65
DOCKED: USER    Run = 65
DOCKED: USER    DPF = D:/Protein_go_brrr/autodock/final/AncMH_nat/heme_Co/dock.dpf
DOCKED: USER  
DOCKED: USER    Estimated Free Energy of Binding    =   -5.45 kcal/mol  [=(1)+(2)+(3)-(4)]
DOCKED: USER    Estimated Inhibition Constant, Ki   =  101.87 uM (micromolar)  [Temperature = 298.15 K]
DOCKED: USER    
DOCKED: USER    (1) Final Intermolecular Energy     =   -9.03 kcal/mol
DOCKED: USER        vdW + Hbond + desolv Energy     =   -6.04 kcal/mol
DOCKED: USER        Electrostatic Energy            =   -2.99 kcal/mol
DOCKED: USER    (2) Final Total Internal Energy     =   -0.69 kcal/mol
DOCKED: USER    (3) Torsional Free Energy           =   +3.58 kcal/mol
DOCKED: USER    (4) Unbound System's Energy  [=(2)] =   -0.69 kcal/mol
DOCKED: USER    
DOCKED: USER    
DOCKED: USER    NEWDPF move heme_Co_opt.pdbqt
DOCKED: USER    NEWDPF about 8.781000 34.984000 -0.736000
DOCKED: USER    NEWDPF tran0 -5.117669 20.425605 5.866072
DOCKED: USER    NEWDPF quaternion0 -0.099832 0.970363 0.035872 0.217122
DOCKED: USER    NEWDPF axisangle0 -0.102271 0.994078 0.036749 154.919923
DOCKED: USER    NEWDPF quat0 -0.102271 0.994078 0.036749 154.919923
DOCKED: USER    NEWDPF dihe0 71.11 106.59 -9.50 77.10 167.66 139.76 -63.25 -54.18 11.58 -165.65 7.22 -24.88 
DOCKED: USER  keepresnum = 1 
DOCKED: USER  
DOCKED: REMARK  12 active torsions:
DOCKED: REMARK  status: ('A' for Active; 'I' for Inactive)
DOCKED: REMARK    1  A    between atoms: C_6  and  C_10 
DOCKED: REMARK    2  A    between atoms: C_10  and  C_11 
DOCKED: REMARK    3  A    between atoms: C_11  and  C_12 
DOCKED: REMARK    4  A    between atoms: C_12  and  O_14 
DOCKED: REMARK    5  A    between atoms: C_17  and  C_20 
DOCKED: REMARK    6  A    between atoms: C_24  and  C_27 
DOCKED: REMARK    7  A    between atoms: C_31  and  C_34 
DOCKED: REMARK    8  A    between atoms: C_34  and  C_35 
DOCKED: REMARK    9  A    between atoms: C_35  and  C_36 
DOCKED: REMARK   10  A    between atoms: C_36  and  O_38 
DOCKED: REMARK   11  A    between atoms: FE_43  and  C_44 
DOCKED: REMARK   12  A    between atoms: C_44  and  O_45 
DOCKED: USER                              x       y       z     vdW  Elec       q    Type
DOCKED: USER                           _______ _______ _______ _____ _____    ______ ____
DOCKED: ROOT
DOCKED: ATOM      1  C   UNL d   1      -3.128  21.296   5.889 -0.03 +0.02    +0.064 A 
DOCKED: ATOM      2  C   UNL d   1      -5.370  18.531   2.736 -0.21 +0.00    +0.064 C 
DOCKED: ATOM      3  C   UNL d   1      -9.098  18.114   5.696 -0.19 -0.01    +0.064 A 
DOCKED: ATOM      4  C   UNL d   1      -6.994  21.247   8.766 -0.11 +0.01    +0.064 A 
DOCKED: ATOM      5  C   UNL d   1      -3.452  20.542   4.825 -0.06 +0.01    +0.066 A 
DOCKED: ATOM      6  C   UNL d   1      -2.627  20.462   3.686 -0.09 -0.00    -0.021 A 
DOCKED: ATOM      7  C   UNL d   1      -3.293  19.677   2.766 -0.13 -0.00    -0.025 A 
DOCKED: ATOM      8  C   UNL d   1      -4.487  19.298   3.388 -0.13 +0.00    +0.066 A 
DOCKED: ATOM      9  C   UNL d   1      -2.836  19.291   1.351 -0.16 +0.00    +0.051 C 
DOCKED: ATOM     10  C   UNL d   1      -6.612  18.069   3.304 -0.16 -0.00    +0.066 A 
DOCKED: ATOM     11  C   UNL d   1      -7.514  17.150   2.726 -0.28 +0.00    -0.021 A 
DOCKED: ATOM     12  C   UNL d   1      -8.590  17.043   3.612 -0.30 -0.00    +0.000 A 
DOCKED: ATOM     13  C   UNL d   1      -8.260  17.893   4.668 -0.13 -0.01    +0.070 A 
DOCKED: ATOM     14  C   UNL d   1      -7.298  16.365   1.458 -0.44 +0.01    +0.052 C 
DOCKED: ATOM     15  C   UNL d   1      -8.941  18.993   6.838 -0.11 -0.02    +0.066 A 
DOCKED: ATOM     16  C   UNL d   1      -9.907  19.285   7.791 -0.18 +0.01    -0.021 A 
DOCKED: ATOM     17  C   UNL d   1      -9.306  20.191   8.677 -0.19 -0.00    +0.000 A 
DOCKED: ATOM     18  C   UNL d   1      -8.010  20.367   8.202 -0.15 -0.01    +0.070 A 
DOCKED: ATOM     19  C   UNL d   1     -11.308  18.717   7.821 -0.18 -0.03    +0.052 C 
DOCKED: ATOM     20  C   UNL d   1      -5.758  21.501   8.273 -0.08 +0.02    +0.066 A 
DOCKED: ATOM     21  C   UNL d   1      -4.883  22.396   8.885 -0.06 -0.01    -0.025 A 
DOCKED: ATOM     22  C   UNL d   1      -3.749  22.409   8.093 -0.03 -0.01    -0.021 A 
DOCKED: ATOM     23  C   UNL d   1      -3.995  21.523   7.023 -0.04 +0.02    +0.066 A 
DOCKED: ATOM     24  C   UNL d   1      -5.122  23.215  10.150 -0.05 +0.01    +0.051 C 
DOCKED: ATOM     25  N   UNL d   1      -4.609  19.814   4.667 -0.05 -0.03    -0.248 N 
DOCKED: ATOM     26  N   UNL d   1      -7.038  18.469   4.507 -0.06 +0.02    -0.248 N 
DOCKED: ATOM     27  N   UNL d   1      -7.838  19.663   7.089 -0.11 +0.02    -0.248 N 
DOCKED: ATOM     28  N   UNL d   1      -5.211  20.973   7.126 -0.04 -0.07    -0.248 N 
DOCKED: ATOM     29 FE   UNL d   1      -6.317  19.736   5.952 -0.03 +0.00    +0.000 Fe
DOCKED: ENDROOT
DOCKED: BRANCH   6  30
DOCKED: ATOM     30  C   UNL d   1      -1.299  21.181   3.474 -0.10 +0.01    +0.052 C 
DOCKED: BRANCH  30  31
DOCKED: ATOM     31  C   UNL d   1      -0.135  20.309   3.942 -0.05 +0.05    +0.115 C 
DOCKED: BRANCH  31  32
DOCKED: ATOM     32  C   UNL d   1       1.177  21.063   3.970 -0.13 +0.09    +0.139 C 
DOCKED: ATOM     33  O   UNL d   1       2.140  20.573   4.541 -0.42 -0.88    -0.650 OA
DOCKED: BRANCH  32  34
DOCKED: ATOM     34  O   UNL d   1       1.337  22.250   3.339 +0.00 -0.35    -0.776 OA
DOCKED: ATOM     35  H   UNL d   1       0.888  23.067   3.596 +0.02 +0.05    +0.167 HD
DOCKED: ENDBRANCH  32  34
DOCKED: ENDBRANCH  31  32
DOCKED: ENDBRANCH  30  31
DOCKED: ENDBRANCH   6  30
DOCKED: BRANCH  29  36
DOCKED: ATOM     36  C   UNL d   1      -7.059  21.378   4.880 -0.01 +0.01    +0.190 C 
DOCKED: BRANCH  36  37
DOCKED: ATOM     37  O   UNL d   1      -6.685  22.382   3.982 +0.00 -0.03    -0.399 OA
DOCKED: ATOM     38  H   UNL d   1      -5.694  22.298   3.901 +0.01 +0.02    +0.209 HD
DOCKED: ENDBRANCH  36  37
DOCKED: ENDBRANCH  29  36
DOCKED: BRANCH  22  39
DOCKED: ATOM     39  C   UNL d   1      -2.526  23.276   8.323 -0.01 +0.01    +0.052 C 
DOCKED: BRANCH  39  40
DOCKED: ATOM     40  C   UNL d   1      -1.666  22.711   9.466 -0.02 +0.05    +0.115 C 
DOCKED: BRANCH  40  41
DOCKED: ATOM     41  C   UNL d   1      -2.097  21.344   9.954 +0.02 +0.15    +0.139 C 
DOCKED: ATOM     42  O   UNL d   1      -1.707  20.347   9.362 +0.09 -0.90    -0.650 OA
DOCKED: BRANCH  41  43
DOCKED: ATOM     43  O   UNL d   1      -2.830  21.189  11.079 -0.25 -1.37    -0.776 OA
DOCKED: ATOM     44  H   UNL d   1      -3.076  21.932  11.645 +0.01 +0.15    +0.167 HD
DOCKED: ENDBRANCH  41  43
DOCKED: ENDBRANCH  40  41
DOCKED: ENDBRANCH  39  40
DOCKED: ENDBRANCH  22  39
DOCKED: BRANCH  12  45
DOCKED: ATOM     45  C   UNL d   1      -9.876  16.227   3.591 -0.43 -0.00    +0.004 C 
DOCKED: ATOM     46  C   UNL d   1     -10.071  14.916   3.703 -0.62 -0.00    +0.012 C 
DOCKED: ENDBRANCH  12  45
DOCKED: BRANCH  17  47
DOCKED: ATOM     47  C   UNL d   1      -9.885  20.897   9.858 -0.18 -0.00    +0.004 C 
DOCKED: ATOM     48  C   UNL d   1      -9.187  21.189  10.958 -0.19 -0.01    +0.012 C 
DOCKED: ENDBRANCH  17  47
DOCKED: TORSDOF 12
DOCKED: TER
DOCKED: ENDMDL
________________________________________________________________________________


	BEGINNING GENETIC ALGORITHM DOCKING 66 of 100
Run: 66 Seed: 25071036 16931473 [ Run 66 of 100 GA/GALS ]
Beginning LAMARCKIAN GENETIC ALGORITHM (LGA), with a maximum of 25000000 energy evaluations.

Final-Value: -9.143


	FINAL GENETIC ALGORITHM DOCKED STATE
	_______________________________________________


Detailed state:  trans -2.892 15.328 14.904 quatxyzw -0.150361 0.232854 0.696292 0.662079 center 8.781 34.984 -0.736 ntor 12 -73.0479 113.3074 111.1066 121.8047 115.6018 145.5548 -78.7338 -27.8407 71.8122 174.4324 50.7202 0.8028
State:	 -2.892  15.328  14.904  -0.201  0.311  0.929 97.083    -73.05  113.31  111.11  121.80  115.60  145.55  -78.73  -27.84   71.81  174.43   50.72    0.80

DOCKED: MODEL       66
DOCKED: USER    Run = 66
DOCKED: USER    DPF = D:/Protein_go_brrr/autodock/final/AncMH_nat/heme_Co/dock.dpf
DOCKED: USER  
DOCKED: USER    Estimated Free Energy of Binding    =   -4.90 kcal/mol  [=(1)+(2)+(3)-(4)]
DOCKED: USER    Estimated Inhibition Constant, Ki   =  254.22 uM (micromolar)  [Temperature = 298.15 K]
DOCKED: USER    
DOCKED: USER    (1) Final Intermolecular Energy     =   -8.48 kcal/mol
DOCKED: USER        vdW + Hbond + desolv Energy     =   -6.62 kcal/mol
DOCKED: USER        Electrostatic Energy            =   -1.86 kcal/mol
DOCKED: USER    (2) Final Total Internal Energy     =   -0.66 kcal/mol
DOCKED: USER    (3) Torsional Free Energy           =   +3.58 kcal/mol
DOCKED: USER    (4) Unbound System's Energy  [=(2)] =   -0.66 kcal/mol
DOCKED: USER    
DOCKED: USER    
DOCKED: USER    NEWDPF move heme_Co_opt.pdbqt
DOCKED: USER    NEWDPF about 8.781000 34.984000 -0.736000
DOCKED: USER    NEWDPF tran0 -2.891688 15.327757 14.903920
DOCKED: USER    NEWDPF quaternion0 -0.150361 0.232854 0.696292 0.662079
DOCKED: USER    NEWDPF axisangle0 -0.200633 0.310707 0.929090 97.082761
DOCKED: USER    NEWDPF quat0 -0.200633 0.310707 0.929090 97.082761
DOCKED: USER    NEWDPF dihe0 -73.05 113.31 111.11 121.80 115.60 145.55 -78.73 -27.84 71.81 174.43 50.72 0.80 
DOCKED: USER  keepresnum = 1 
DOCKED: USER  
DOCKED: REMARK  12 active torsions:
DOCKED: REMARK  status: ('A' for Active; 'I' for Inactive)
DOCKED: REMARK    1  A    between atoms: C_6  and  C_10 
DOCKED: REMARK    2  A    between atoms: C_10  and  C_11 
DOCKED: REMARK    3  A    between atoms: C_11  and  C_12 
DOCKED: REMARK    4  A    between atoms: C_12  and  O_14 
DOCKED: REMARK    5  A    between atoms: C_17  and  C_20 
DOCKED: REMARK    6  A    between atoms: C_24  and  C_27 
DOCKED: REMARK    7  A    between atoms: C_31  and  C_34 
DOCKED: REMARK    8  A    between atoms: C_34  and  C_35 
DOCKED: REMARK    9  A    between atoms: C_35  and  C_36 
DOCKED: REMARK   10  A    between atoms: C_36  and  O_38 
DOCKED: REMARK   11  A    between atoms: FE_43  and  C_44 
DOCKED: REMARK   12  A    between atoms: C_44  and  O_45 
DOCKED: USER                              x       y       z     vdW  Elec       q    Type
DOCKED: USER                           _______ _______ _______ _____ _____    ______ ____
DOCKED: ROOT
DOCKED: ATOM      1  C   UNL d   1      -1.875  17.134  14.254 -0.06 +0.03    +0.064 A 
DOCKED: ATOM      2  C   UNL d   1      -6.174  16.392  16.148 -0.17 -0.01    +0.064 C 
DOCKED: ATOM      3  C   UNL d   1      -5.468  11.669  15.994 -0.17 -0.01    +0.064 A 
DOCKED: ATOM      4  C   UNL d   1      -0.925  12.412  14.419 -0.14 -0.02    +0.064 A 
DOCKED: ATOM      5  C   UNL d   1      -3.116  17.276  14.749 -0.05 +0.03    +0.066 A 
DOCKED: ATOM      6  C   UNL d   1      -3.672  18.543  15.017 -0.11 -0.01    -0.021 A 
DOCKED: ATOM      7  C   UNL d   1      -4.911  18.321  15.587 -0.12 -0.00    -0.025 A 
DOCKED: ATOM      8  C   UNL d   1      -5.063  16.931  15.628 -0.13 +0.00    +0.066 A 
DOCKED: ATOM      9  C   UNL d   1      -5.922  19.367  16.080 -0.12 -0.00    +0.051 C 
DOCKED: ATOM     10  C   UNL d   1      -6.431  14.974  16.208 -0.15 -0.01    +0.066 A 
DOCKED: ATOM     11  C   UNL d   1      -7.632  14.351  16.612 -0.14 +0.01    -0.021 A 
DOCKED: ATOM     12  C   UNL d   1      -7.399  12.974  16.553 -0.17 -0.00    +0.000 A 
DOCKED: ATOM     13  C   UNL d   1      -6.082  12.859  16.108 -0.15 -0.01    +0.070 A 
DOCKED: ATOM     14  C   UNL d   1      -8.931  15.043  16.934 -0.14 -0.02    +0.052 C 
DOCKED: ATOM     15  C   UNL d   1      -4.104  11.371  15.602 -0.17 -0.01    +0.066 A 
DOCKED: ATOM     16  C   UNL d   1      -3.488  10.128  15.643 -0.26 +0.01    -0.021 A 
DOCKED: ATOM     17  C   UNL d   1      -2.177  10.338  15.193 -0.26 -0.00    +0.000 A 
DOCKED: ATOM     18  C   UNL d   1      -2.102  11.694  14.894 -0.16 -0.02    +0.070 A 
DOCKED: ATOM     19  C   UNL d   1      -4.142   8.840  16.094 -0.08 -0.04    +0.052 C 
DOCKED: ATOM     20  C   UNL d   1      -0.803  13.744  14.205 -0.09 -0.01    +0.066 A 
DOCKED: ATOM     21  C   UNL d   1       0.391  14.322  13.782 -0.07 +0.00    -0.025 A 
DOCKED: ATOM     22  C   UNL d   1       0.139  15.680  13.698 -0.04 -0.00    -0.021 A 
DOCKED: ATOM     23  C   UNL d   1      -1.204  15.865  14.088 -0.07 +0.01    +0.066 A 
DOCKED: ATOM     24  C   UNL d   1       1.715  13.620  13.492 -0.10 +0.00    +0.051 C 
DOCKED: ATOM     25  N   UNL d   1      -3.969  16.259  15.110 -0.08 -0.04    -0.248 N 
DOCKED: ATOM     26  N   UNL d   1      -5.516  14.068  15.847 -0.07 +0.04    -0.248 N 
DOCKED: ATOM     27  N   UNL d   1      -3.258  12.283  15.179 -0.07 +0.05    -0.248 N 
DOCKED: ATOM     28  N   UNL d   1      -1.777  14.696  14.398 -0.04 +0.01    -0.248 N 
DOCKED: ATOM     29 FE   UNL d   1      -3.589  14.154  15.145 -0.03 -0.00    +0.000 Fe
DOCKED: ENDROOT
DOCKED: BRANCH   6  30
DOCKED: ATOM     30  C   UNL d   1      -3.000  19.895  14.805 -0.10 +0.02    +0.052 C 
DOCKED: BRANCH  30  31
DOCKED: ATOM     31  C   UNL d   1      -3.963  20.874  14.134 -0.10 +0.06    +0.115 C 
DOCKED: BRANCH  31  32
DOCKED: ATOM     32  C   UNL d   1      -3.565  21.189  12.708 +0.06 +0.15    +0.139 C 
DOCKED: ATOM     33  O   UNL d   1      -4.427  21.497  11.898 -0.20 -0.59    -0.650 OA
DOCKED: BRANCH  32  34
DOCKED: ATOM     34  O   UNL d   1      -2.273  21.190  12.307 -0.54 -0.94    -0.776 OA
DOCKED: ATOM     35  H   UNL d   1      -1.646  21.902  12.492 +0.01 +0.10    +0.167 HD
DOCKED: ENDBRANCH  32  34
DOCKED: ENDBRANCH  31  32
DOCKED: ENDBRANCH  30  31
DOCKED: ENDBRANCH   6  30
DOCKED: BRANCH  29  36
DOCKED: ATOM     36  C   UNL d   1      -2.890  14.426  17.102 -0.01 -0.01    +0.190 C 
DOCKED: BRANCH  36  37
DOCKED: ATOM     37  O   UNL d   1      -2.557  15.409  18.040 +0.00 +0.01    -0.399 OA
DOCKED: ATOM     38  H   UNL d   1      -2.727  16.275  17.575 +0.01 -0.00    +0.209 HD
DOCKED: ENDBRANCH  36  37
DOCKED: ENDBRANCH  29  36
DOCKED: BRANCH  22  39
DOCKED: ATOM     39  C   UNL d   1       1.157  16.742  13.325 -0.02 +0.01    +0.052 C 
DOCKED: BRANCH  39  40
DOCKED: ATOM     40  C   UNL d   1       0.962  17.192  11.868 -0.04 +0.04    +0.115 C 
DOCKED: BRANCH  40  41
DOCKED: ATOM     41  C   UNL d   1       0.018  16.322  11.066 -0.12 +0.05    +0.139 C 
DOCKED: ATOM     42  O   UNL d   1      -1.071  16.769  10.733 -0.43 -0.77    -0.650 OA
DOCKED: BRANCH  41  43
DOCKED: ATOM     43  O   UNL d   1       0.379  15.094  10.632 +0.05 +0.28    -0.776 OA
DOCKED: ATOM     44  H   UNL d   1      -0.072  14.289  10.917 -0.46 -0.22    +0.167 HD
DOCKED: ENDBRANCH  41  43
DOCKED: ENDBRANCH  40  41
DOCKED: ENDBRANCH  39  40
DOCKED: ENDBRANCH  22  39
DOCKED: BRANCH  12  45
DOCKED: ATOM     45  C   UNL d   1      -8.271  11.761  16.847 -0.19 -0.00    +0.004 C 
DOCKED: ATOM     46  C   UNL d   1      -8.746  10.819  16.036 -0.28 -0.00    +0.012 C 
DOCKED: ENDBRANCH  12  45
DOCKED: BRANCH  17  47
DOCKED: ATOM     47  C   UNL d   1      -1.040   9.376  15.085 -0.37 -0.00    +0.004 C 
DOCKED: ATOM     48  C   UNL d   1      -0.746   8.704  13.970 -0.46 -0.00    +0.012 C 
DOCKED: ENDBRANCH  17  47
DOCKED: TORSDOF 12
DOCKED: TER
DOCKED: ENDMDL
________________________________________________________________________________


	BEGINNING GENETIC ALGORITHM DOCKING 67 of 100
Run: 67 Seed: 834686410 2104077539 [ Run 67 of 100 GA/GALS ]
Beginning LAMARCKIAN GENETIC ALGORITHM (LGA), with a maximum of 25000000 energy evaluations.

Final-Value: -10.161


	FINAL GENETIC ALGORITHM DOCKED STATE
	_______________________________________________


Detailed state:  trans -19.368 2.374 10.455 quatxyzw -0.441835 0.318776 -0.667925 0.506991 center 8.781 34.984 -0.736 ntor 12 -131.9527 103.7652 37.5201 81.8479 136.3195 123.5976 -21.4095 178.4353 -36.3786 22.4035 178.1746 133.4377
State:	-19.368   2.374  10.455  -0.513  0.370 -0.775 119.073   -131.95  103.77   37.52   81.85  136.32  123.60  -21.41  178.44  -36.38   22.40  178.17  133.44

DOCKED: MODEL       67
DOCKED: USER    Run = 67
DOCKED: USER    DPF = D:/Protein_go_brrr/autodock/final/AncMH_nat/heme_Co/dock.dpf
DOCKED: USER  
DOCKED: USER    Estimated Free Energy of Binding    =   -4.45 kcal/mol  [=(1)+(2)+(3)-(4)]
DOCKED: USER    Estimated Inhibition Constant, Ki   =  550.29 uM (micromolar)  [Temperature = 298.15 K]
DOCKED: USER    
DOCKED: USER    (1) Final Intermolecular Energy     =   -8.03 kcal/mol
DOCKED: USER        vdW + Hbond + desolv Energy     =   -5.86 kcal/mol
DOCKED: USER        Electrostatic Energy            =   -2.16 kcal/mol
DOCKED: USER    (2) Final Total Internal Energy     =   -2.14 kcal/mol
DOCKED: USER    (3) Torsional Free Energy           =   +3.58 kcal/mol
DOCKED: USER    (4) Unbound System's Energy  [=(2)] =   -2.14 kcal/mol
DOCKED: USER    
DOCKED: USER    
DOCKED: USER    NEWDPF move heme_Co_opt.pdbqt
DOCKED: USER    NEWDPF about 8.781000 34.984000 -0.736000
DOCKED: USER    NEWDPF tran0 -19.368147 2.374285 10.455003
DOCKED: USER    NEWDPF quaternion0 -0.441835 0.318776 -0.667925 0.506991
DOCKED: USER    NEWDPF axisangle0 -0.512599 0.369831 -0.774898 119.072806
DOCKED: USER    NEWDPF quat0 -0.512599 0.369831 -0.774898 119.072806
DOCKED: USER    NEWDPF dihe0 -131.95 103.77 37.52 81.85 136.32 123.60 -21.41 178.44 -36.38 22.40 178.17 133.44 
DOCKED: USER  keepresnum = 1 
DOCKED: USER  
DOCKED: REMARK  12 active torsions:
DOCKED: REMARK  status: ('A' for Active; 'I' for Inactive)
DOCKED: REMARK    1  A    between atoms: C_6  and  C_10 
DOCKED: REMARK    2  A    between atoms: C_10  and  C_11 
DOCKED: REMARK    3  A    between atoms: C_11  and  C_12 
DOCKED: REMARK    4  A    between atoms: C_12  and  O_14 
DOCKED: REMARK    5  A    between atoms: C_17  and  C_20 
DOCKED: REMARK    6  A    between atoms: C_24  and  C_27 
DOCKED: REMARK    7  A    between atoms: C_31  and  C_34 
DOCKED: REMARK    8  A    between atoms: C_34  and  C_35 
DOCKED: REMARK    9  A    between atoms: C_35  and  C_36 
DOCKED: REMARK   10  A    between atoms: C_36  and  O_38 
DOCKED: REMARK   11  A    between atoms: FE_43  and  C_44 
DOCKED: REMARK   12  A    between atoms: C_44  and  O_45 
DOCKED: USER                              x       y       z     vdW  Elec       q    Type
DOCKED: USER                           _______ _______ _______ _____ _____    ______ ____
DOCKED: ROOT
DOCKED: ATOM      1  C   UNL d   1     -19.889   2.211   8.353 +0.13 +0.04    +0.064 A 
DOCKED: ATOM      2  C   UNL d   1     -16.461   0.197  10.962 -0.31 +0.01    +0.064 C 
DOCKED: ATOM      3  C   UNL d   1     -17.759   2.805  14.749 -0.15 +0.02    +0.064 A 
DOCKED: ATOM      4  C   UNL d   1     -21.509   4.591  12.217 -0.07 +0.02    +0.064 A 
DOCKED: ATOM      5  C   UNL d   1     -18.834   1.495   8.777 -0.25 +0.03    +0.066 A 
DOCKED: ATOM      6  C   UNL d   1     -18.203   0.538   7.960 -0.25 -0.01    -0.021 A 
DOCKED: ATOM      7  C   UNL d   1     -17.223  -0.059   8.729 -0.16 -0.01    -0.025 A 
DOCKED: ATOM      8  C   UNL d   1     -17.288   0.570   9.977 -0.26 +0.01    +0.066 A 
DOCKED: ATOM      9  C   UNL d   1     -16.257  -1.181   8.320 -0.22 +0.02    +0.051 C 
DOCKED: ATOM     10  C   UNL d   1     -16.437   0.804  12.269 -0.23 +0.00    +0.066 A 
DOCKED: ATOM     11  C   UNL d   1     -15.502   0.555  13.298 -0.28 -0.00    -0.021 A 
DOCKED: ATOM     12  C   UNL d   1     -15.902   1.332  14.389 -0.22 +0.00    +0.000 A 
DOCKED: ATOM     13  C   UNL d   1     -17.040   2.004  13.942 -0.19 +0.01    +0.070 A 
DOCKED: ATOM     14  C   UNL d   1     -14.264  -0.297  13.191 -0.39 +0.00    +0.052 C 
DOCKED: ATOM     15  C   UNL d   1     -18.982   3.532  14.470 -0.13 +0.04    +0.066 A 
DOCKED: ATOM     16  C   UNL d   1     -19.754   4.226  15.391 -0.05 -0.02    -0.021 A 
DOCKED: ATOM     17  C   UNL d   1     -20.838   4.741  14.666 -0.09 +0.00    +0.000 A 
DOCKED: ATOM     18  C   UNL d   1     -20.632   4.333  13.352 -0.10 +0.04    +0.070 A 
DOCKED: ATOM     19  C   UNL d   1     -19.447   4.367  16.865 -0.07 +0.04    +0.052 C 
DOCKED: ATOM     20  C   UNL d   1     -21.374   4.133  10.950 -0.09 +0.02    +0.066 A 
DOCKED: ATOM     21  C   UNL d   1     -22.303   4.419   9.952 -0.07 -0.01    -0.025 A 
DOCKED: ATOM     22  C   UNL d   1     -21.847   3.770   8.820 -0.13 -0.01    -0.021 A 
DOCKED: ATOM     23  C   UNL d   1     -20.659   3.104   9.188 -0.17 +0.03    +0.066 A 
DOCKED: ATOM     24  C   UNL d   1     -23.574   5.255  10.076 -0.03 +0.01    +0.051 C 
DOCKED: ATOM     25  N   UNL d   1     -18.273   1.541  10.034 -0.15 -0.03    -0.248 N 
DOCKED: ATOM     26  N   UNL d   1     -17.329   1.727  12.643 -0.14 -0.02    -0.248 N 
DOCKED: ATOM     27  N   UNL d   1     -19.533   3.590  13.279 -0.10 -0.11    -0.248 N 
DOCKED: ATOM     28  N   UNL d   1     -20.370   3.319  10.478 -0.11 -0.06    -0.248 N 
DOCKED: ATOM     29 FE   UNL d   1     -18.943   2.628  11.750 -0.04 +0.00    +0.000 Fe
DOCKED: ENDROOT
DOCKED: BRANCH   6  30
DOCKED: ATOM     30  C   UNL d   1     -18.587   0.166   6.532 -0.07 +0.04    +0.052 C 
DOCKED: BRANCH  30  31
DOCKED: ATOM     31  C   UNL d   1     -19.458  -1.089   6.519 -0.08 +0.07    +0.115 C 
DOCKED: BRANCH  31  32
DOCKED: ATOM     32  C   UNL d   1     -20.558  -1.019   5.482 -0.06 +0.11    +0.139 C 
DOCKED: ATOM     33  O   UNL d   1     -21.604  -1.620   5.674 +0.02 -0.35    -0.650 OA
DOCKED: BRANCH  32  34
DOCKED: ATOM     34  O   UNL d   1     -20.442  -0.267   4.363 -0.19 -1.09    -0.776 OA
DOCKED: ATOM     35  H   UNL d   1     -21.144   0.298   4.012 +0.01 +0.35    +0.167 HD
DOCKED: ENDBRANCH  32  34
DOCKED: ENDBRANCH  31  32
DOCKED: ENDBRANCH  30  31
DOCKED: ENDBRANCH   6  30
DOCKED: BRANCH  29  36
DOCKED: ATOM     36  C   UNL d   1     -20.125   0.958  12.206 -0.03 +0.04    +0.190 C 
DOCKED: BRANCH  36  37
DOCKED: ATOM     37  O   UNL d   1     -20.833  -0.098  11.624 +0.00 -0.08    -0.399 OA
DOCKED: ATOM     38  H   UNL d   1     -20.840   0.105  10.648 +0.02 +0.05    +0.209 HD
DOCKED: ENDBRANCH  36  37
DOCKED: ENDBRANCH  29  36
DOCKED: BRANCH  22  39
DOCKED: ATOM     39  C   UNL d   1     -22.553   3.741   7.477 -0.12 +0.03    +0.052 C 
DOCKED: BRANCH  39  40
DOCKED: ATOM     40  C   UNL d   1     -22.777   2.293   7.013 -0.08 +0.08    +0.115 C 
DOCKED: BRANCH  40  41
DOCKED: ATOM     41  C   UNL d   1     -23.100   2.152   5.540 -0.07 +0.15    +0.139 C 
DOCKED: ATOM     42  O   UNL d   1     -23.894   2.927   5.025 -0.02 -0.52    -0.650 OA
DOCKED: BRANCH  41  43
DOCKED: ATOM     43  O   UNL d   1     -22.470   1.248   4.758 -0.29 -1.31    -0.776 OA
DOCKED: ATOM     44  H   UNL d   1     -22.307   0.339   5.042 +0.00 +0.19    +0.167 HD
DOCKED: ENDBRANCH  41  43
DOCKED: ENDBRANCH  40  41
DOCKED: ENDBRANCH  39  40
DOCKED: ENDBRANCH  22  39
DOCKED: BRANCH  12  45
DOCKED: ATOM     45  C   UNL d   1     -15.332   1.529  15.787 -0.20 +0.00    +0.004 C 
DOCKED: ATOM     46  C   UNL d   1     -14.253   2.189  16.197 -0.28 +0.00    +0.012 C 
DOCKED: ENDBRANCH  12  45
DOCKED: BRANCH  17  47
DOCKED: ATOM     47  C   UNL d   1     -22.022   5.517  15.142 -0.06 +0.00    +0.004 C 
DOCKED: ATOM     48  C   UNL d   1     -22.263   6.783  14.794 -0.06 +0.01    +0.012 C 
DOCKED: ENDBRANCH  17  47
DOCKED: TORSDOF 12
DOCKED: TER
DOCKED: ENDMDL
________________________________________________________________________________


	BEGINNING GENETIC ALGORITHM DOCKING 68 of 100
Run: 68 Seed: 781212268 260786578 [ Run 68 of 100 GA/GALS ]
Beginning LAMARCKIAN GENETIC ALGORITHM (LGA), with a maximum of 25000000 energy evaluations.

Final-Value: -11.551


	FINAL GENETIC ALGORITHM DOCKED STATE
	_______________________________________________


Detailed state:  trans -15.547 -2.003 2.591 quatxyzw -0.315706 0.353582 0.420702 -0.773511 center 8.781 34.984 -0.736 ntor 12 -153.0897 120.2512 -29.5129 116.9857 133.1691 112.7545 30.0869 -39.2263 179.9260 161.9621 -176.5619 6.4331
State:	-15.547  -2.003   2.591  -0.498  0.558  0.664 -78.660   -153.09  120.25  -29.51  116.99  133.17  112.75   30.09  -39.23  179.93  161.96 -176.56    6.43

DOCKED: MODEL       68
DOCKED: USER    Run = 68
DOCKED: USER    DPF = D:/Protein_go_brrr/autodock/final/AncMH_nat/heme_Co/dock.dpf
DOCKED: USER  
DOCKED: USER    Estimated Free Energy of Binding    =   -5.69 kcal/mol  [=(1)+(2)+(3)-(4)]
DOCKED: USER    Estimated Inhibition Constant, Ki   =   67.53 uM (micromolar)  [Temperature = 298.15 K]
DOCKED: USER    
DOCKED: USER    (1) Final Intermolecular Energy     =   -9.27 kcal/mol
DOCKED: USER        vdW + Hbond + desolv Energy     =   -6.97 kcal/mol
DOCKED: USER        Electrostatic Energy            =   -2.30 kcal/mol
DOCKED: USER    (2) Final Total Internal Energy     =   -2.28 kcal/mol
DOCKED: USER    (3) Torsional Free Energy           =   +3.58 kcal/mol
DOCKED: USER    (4) Unbound System's Energy  [=(2)] =   -2.28 kcal/mol
DOCKED: USER    
DOCKED: USER    
DOCKED: USER    NEWDPF move heme_Co_opt.pdbqt
DOCKED: USER    NEWDPF about 8.781000 34.984000 -0.736000
DOCKED: USER    NEWDPF tran0 -15.547215 -2.003227 2.591335
DOCKED: USER    NEWDPF quaternion0 -0.315706 0.353582 0.420702 -0.773511
DOCKED: USER    NEWDPF axisangle0 -0.498129 0.557892 0.663795 -78.659539
DOCKED: USER    NEWDPF quat0 -0.498129 0.557892 0.663795 -78.659539
DOCKED: USER    NEWDPF dihe0 -153.09 120.25 -29.51 116.99 133.17 112.75 30.09 -39.23 179.93 161.96 -176.56 6.43 
DOCKED: USER  keepresnum = 1 
DOCKED: USER  
DOCKED: REMARK  12 active torsions:
DOCKED: REMARK  status: ('A' for Active; 'I' for Inactive)
DOCKED: REMARK    1  A    between atoms: C_6  and  C_10 
DOCKED: REMARK    2  A    between atoms: C_10  and  C_11 
DOCKED: REMARK    3  A    between atoms: C_11  and  C_12 
DOCKED: REMARK    4  A    between atoms: C_12  and  O_14 
DOCKED: REMARK    5  A    between atoms: C_17  and  C_20 
DOCKED: REMARK    6  A    between atoms: C_24  and  C_27 
DOCKED: REMARK    7  A    between atoms: C_31  and  C_34 
DOCKED: REMARK    8  A    between atoms: C_34  and  C_35 
DOCKED: REMARK    9  A    between atoms: C_35  and  C_36 
DOCKED: REMARK   10  A    between atoms: C_36  and  O_38 
DOCKED: REMARK   11  A    between atoms: FE_43  and  C_44 
DOCKED: REMARK   12  A    between atoms: C_44  and  O_45 
DOCKED: USER                              x       y       z     vdW  Elec       q    Type
DOCKED: USER                           _______ _______ _______ _____ _____    ______ ____
DOCKED: ROOT
DOCKED: ATOM      1  C   UNL d   1     -16.989  -3.276   3.601 -0.06 +0.04    +0.064 A 
DOCKED: ATOM      2  C   UNL d   1     -13.114  -0.990   5.142 -0.30 +0.02    +0.064 C 
DOCKED: ATOM      3  C   UNL d   1     -12.109   0.393   0.680 -0.24 +0.06    +0.064 A 
DOCKED: ATOM      4  C   UNL d   1     -16.267  -1.607  -0.862 -0.09 +0.07    +0.064 A 
DOCKED: ATOM      5  C   UNL d   1     -15.984  -2.783   4.344 -0.09 +0.04    +0.066 A 
DOCKED: ATOM      6  C   UNL d   1     -15.956  -2.919   5.746 -0.15 -0.01    -0.021 A 
DOCKED: ATOM      7  C   UNL d   1     -14.842  -2.235   6.190 -0.24 -0.01    -0.025 A 
DOCKED: ATOM      8  C   UNL d   1     -14.229  -1.725   5.040 -0.21 +0.03    +0.066 A 
DOCKED: ATOM      9  C   UNL d   1     -14.359  -2.058   7.638 -0.35 +0.01    +0.051 C 
DOCKED: ATOM     10  C   UNL d   1     -12.400  -0.447   4.014 -0.17 +0.03    +0.066 A 
DOCKED: ATOM     11  C   UNL d   1     -11.151   0.212   4.043 -0.26 -0.01    -0.021 A 
DOCKED: ATOM     12  C   UNL d   1     -10.881   0.601   2.728 -0.32 +0.00    +0.000 A 
DOCKED: ATOM     13  C   UNL d   1     -11.974   0.141   1.994 -0.25 +0.05    +0.070 A 
DOCKED: ATOM     14  C   UNL d   1     -10.251   0.363   5.242 -0.34 +0.02    +0.052 C 
DOCKED: ATOM     15  C   UNL d   1     -13.192   0.041  -0.217 -0.17 +0.08    +0.066 A 
DOCKED: ATOM     16  C   UNL d   1     -13.339   0.457  -1.533 -0.18 -0.02    -0.021 A 
DOCKED: ATOM     17  C   UNL d   1     -14.538  -0.115  -1.981 -0.15 +0.00    +0.000 A 
DOCKED: ATOM     18  C   UNL d   1     -15.021  -0.852  -0.905 -0.13 +0.09    +0.070 A 
DOCKED: ATOM     19  C   UNL d   1     -12.374   1.348  -2.284 -0.19 +0.03    +0.052 C 
DOCKED: ATOM     20  C   UNL d   1     -16.799  -2.259   0.199 -0.05 +0.08    +0.066 A 
DOCKED: ATOM     21  C   UNL d   1     -18.023  -2.921   0.127 -0.07 -0.02    -0.025 A 
DOCKED: ATOM     22  C   UNL d   1     -18.244  -3.436   1.391 -0.06 -0.02    -0.021 A 
DOCKED: ATOM     23  C   UNL d   1     -17.140  -3.050   2.181 -0.06 +0.06    +0.066 A 
DOCKED: ATOM     24  C   UNL d   1     -18.948  -3.040  -1.082 -0.05 +0.03    +0.051 C 
DOCKED: ATOM     25  N   UNL d   1     -14.912  -2.054   3.882 -0.10 -0.16    -0.248 N 
DOCKED: ATOM     26  N   UNL d   1     -12.865  -0.540   2.763 -0.16 -0.19    -0.248 N 
DOCKED: ATOM     27  N   UNL d   1     -14.210  -0.711   0.138 -0.13 -0.34    -0.248 N 
DOCKED: ATOM     28  N   UNL d   1     -16.265  -2.336   1.464 -0.06 -0.28    -0.248 N 
DOCKED: ATOM     29 FE   UNL d   1     -14.543  -1.345   1.897 -0.04 +0.00    +0.000 Fe
DOCKED: ENDROOT
DOCKED: BRANCH   6  30
DOCKED: ATOM     30  C   UNL d   1     -17.003  -3.608   6.614 -0.18 +0.02    +0.052 C 
DOCKED: BRANCH  30  31
DOCKED: ATOM     31  C   UNL d   1     -18.046  -2.601   7.099 -0.10 +0.04    +0.115 C 
DOCKED: BRANCH  31  32
DOCKED: ATOM     32  C   UNL d   1     -17.745  -1.191   6.638 -0.12 +0.07    +0.139 C 
DOCKED: ATOM     33  O   UNL d   1     -17.206  -0.410   7.407 -0.05 -0.32    -0.650 OA
DOCKED: BRANCH  32  34
DOCKED: ATOM     34  O   UNL d   1     -18.011  -0.777   5.377 +0.04 -0.59    -0.776 OA
DOCKED: ATOM     35  H   UNL d   1     -17.572  -0.031   4.946 +0.04 +0.16    +0.167 HD
DOCKED: ENDBRANCH  32  34
DOCKED: ENDBRANCH  31  32
DOCKED: ENDBRANCH  30  31
DOCKED: ENDBRANCH   6  30
DOCKED: BRANCH  29  36
DOCKED: ATOM     36  C   UNL d   1     -15.634   0.366   2.427 +0.06 +0.32    +0.190 C 
DOCKED: BRANCH  36  37
DOCKED: ATOM     37  O   UNL d   1     -16.780   0.790   3.106 -0.14 -0.62    -0.399 OA
DOCKED: ATOM     38  H   UNL d   1     -17.139  -0.033   3.543 +0.05 +0.24    +0.209 HD
DOCKED: ENDBRANCH  36  37
DOCKED: ENDBRANCH  29  36
DOCKED: BRANCH  22  39
DOCKED: ATOM     39  C   UNL d   1     -19.480  -4.201   1.826 -0.03 +0.03    +0.052 C 
DOCKED: BRANCH  39  40
DOCKED: ATOM     40  C   UNL d   1     -19.157  -5.692   2.015 -0.06 +0.06    +0.115 C 
DOCKED: BRANCH  40  41
DOCKED: ATOM     41  C   UNL d   1     -17.953  -6.175   1.233 -0.05 +0.13    +0.139 C 
DOCKED: ATOM     42  O   UNL d   1     -16.875  -6.279   1.800 -0.46 -0.77    -0.650 OA
DOCKED: BRANCH  41  43
DOCKED: ATOM     43  O   UNL d   1     -18.056  -6.577  -0.053 -0.42 -0.88    -0.776 OA
DOCKED: ATOM     44  H   UNL d   1     -18.887  -6.888  -0.435 +0.01 +0.11    +0.167 HD
DOCKED: ENDBRANCH  41  43
DOCKED: ENDBRANCH  40  41
DOCKED: ENDBRANCH  39  40
DOCKED: ENDBRANCH  22  39
DOCKED: BRANCH  12  45
DOCKED: ATOM     45  C   UNL d   1      -9.712   1.333   2.082 -0.27 +0.00    +0.004 C 
DOCKED: ATOM     46  C   UNL d   1      -8.754   0.890   1.272 -0.46 +0.00    +0.012 C 
DOCKED: ENDBRANCH  12  45
DOCKED: BRANCH  17  47
DOCKED: ATOM     47  C   UNL d   1     -15.235   0.036  -3.294 -0.09 +0.00    +0.004 C 
DOCKED: ATOM     48  C   UNL d   1     -15.352  -0.952  -4.184 -0.09 +0.01    +0.012 C 
DOCKED: ENDBRANCH  17  47
DOCKED: TORSDOF 12
DOCKED: TER
DOCKED: ENDMDL
________________________________________________________________________________


	BEGINNING GENETIC ALGORITHM DOCKING 69 of 100
Run: 69 Seed: 1475631206 1531436308 [ Run 69 of 100 GA/GALS ]
Beginning LAMARCKIAN GENETIC ALGORITHM (LGA), with a maximum of 25000000 energy evaluations.

Final-Value: -11.818


	FINAL GENETIC ALGORITHM DOCKED STATE
	_______________________________________________


Detailed state:  trans -14.490 -0.986 1.442 quatxyzw 0.041037 0.563030 0.014949 0.825282 center 8.781 34.984 -0.736 ntor 12 114.2261 100.2055 42.1333 137.7087 70.8872 165.3878 -124.7358 106.8517 -141.0991 39.2368 -173.2037 180.0000
State:	-14.490  -0.986   1.442   0.073  0.997  0.026 68.766    114.23  100.21   42.13  137.71   70.89  165.39 -124.74  106.85 -141.10   39.24 -173.20  180.00

DOCKED: MODEL       69
DOCKED: USER    Run = 69
DOCKED: USER    DPF = D:/Protein_go_brrr/autodock/final/AncMH_nat/heme_Co/dock.dpf
DOCKED: USER  
DOCKED: USER    Estimated Free Energy of Binding    =   -5.86 kcal/mol  [=(1)+(2)+(3)-(4)]
DOCKED: USER    Estimated Inhibition Constant, Ki   =   50.84 uM (micromolar)  [Temperature = 298.15 K]
DOCKED: USER    
DOCKED: USER    (1) Final Intermolecular Energy     =   -9.44 kcal/mol
DOCKED: USER        vdW + Hbond + desolv Energy     =   -7.30 kcal/mol
DOCKED: USER        Electrostatic Energy            =   -2.14 kcal/mol
DOCKED: USER    (2) Final Total Internal Energy     =   -2.38 kcal/mol
DOCKED: USER    (3) Torsional Free Energy           =   +3.58 kcal/mol
DOCKED: USER    (4) Unbound System's Energy  [=(2)] =   -2.38 kcal/mol
DOCKED: USER    
DOCKED: USER    
DOCKED: USER    NEWDPF move heme_Co_opt.pdbqt
DOCKED: USER    NEWDPF about 8.781000 34.984000 -0.736000
DOCKED: USER    NEWDPF tran0 -14.490193 -0.986032 1.441871
DOCKED: USER    NEWDPF quaternion0 0.041037 0.563030 0.014949 0.825282
DOCKED: USER    NEWDPF axisangle0 0.072669 0.997005 0.026471 68.765839
DOCKED: USER    NEWDPF quat0 0.072669 0.997005 0.026471 68.765839
DOCKED: USER    NEWDPF dihe0 114.23 100.21 42.13 137.71 70.89 165.39 -124.74 106.85 -141.10 39.24 -173.20 180.00 
DOCKED: USER  keepresnum = 1 
DOCKED: USER  
DOCKED: REMARK  12 active torsions:
DOCKED: REMARK  status: ('A' for Active; 'I' for Inactive)
DOCKED: REMARK    1  A    between atoms: C_6  and  C_10 
DOCKED: REMARK    2  A    between atoms: C_10  and  C_11 
DOCKED: REMARK    3  A    between atoms: C_11  and  C_12 
DOCKED: REMARK    4  A    between atoms: C_12  and  O_14 
DOCKED: REMARK    5  A    between atoms: C_17  and  C_20 
DOCKED: REMARK    6  A    between atoms: C_24  and  C_27 
DOCKED: REMARK    7  A    between atoms: C_31  and  C_34 
DOCKED: REMARK    8  A    between atoms: C_34  and  C_35 
DOCKED: REMARK    9  A    between atoms: C_35  and  C_36 
DOCKED: REMARK   10  A    between atoms: C_36  and  O_38 
DOCKED: REMARK   11  A    between atoms: FE_43  and  C_44 
DOCKED: REMARK   12  A    between atoms: C_44  and  O_45 
DOCKED: USER                              x       y       z     vdW  Elec       q    Type
DOCKED: USER                           _______ _______ _______ _____ _____    ______ ____
DOCKED: ROOT
DOCKED: ATOM      1  C   UNL d   1     -14.373  -0.602  -0.692 -0.05 +0.08    +0.064 A 
DOCKED: ATOM      2  C   UNL d   1     -17.568  -2.909   1.969 -0.07 +0.05    +0.064 C 
DOCKED: ATOM      3  C   UNL d   1     -14.830  -2.313   5.839 -0.20 +0.02    +0.064 A 
DOCKED: ATOM      4  C   UNL d   1     -11.739   0.380   3.221 -0.31 +0.03    +0.064 A 
DOCKED: ATOM      5  C   UNL d   1     -15.430  -1.308  -0.257 -0.10 +0.09    +0.066 A 
DOCKED: ATOM      6  C   UNL d   1     -16.513  -1.628  -1.098 -0.10 -0.02    -0.021 A 
DOCKED: ATOM      7  C   UNL d   1     -17.447  -2.278  -0.315 -0.09 -0.02    -0.025 A 
DOCKED: ATOM      8  C   UNL d   1     -16.888  -2.340   0.965 -0.07 +0.07    +0.066 A 
DOCKED: ATOM      9  C   UNL d   1     -18.819  -2.823  -0.742 -0.05 +0.04    +0.051 C 
DOCKED: ATOM     10  C   UNL d   1     -17.063  -3.043   3.313 -0.06 +0.05    +0.066 A 
DOCKED: ATOM     11  C   UNL d   1     -17.666  -3.752   4.374 -0.08 -0.01    -0.021 A 
DOCKED: ATOM     12  C   UNL d   1     -16.845  -3.565   5.489 -0.13 +0.00    +0.000 A 
DOCKED: ATOM     13  C   UNL d   1     -15.798  -2.769   5.024 -0.11 +0.03    +0.070 A 
DOCKED: ATOM     14  C   UNL d   1     -18.893  -4.622   4.282 -0.08 +0.02    +0.052 C 
DOCKED: ATOM     15  C   UNL d   1     -13.710  -1.444   5.540 -0.22 +0.02    +0.066 A 
DOCKED: ATOM     16  C   UNL d   1     -12.828  -0.892   6.459 -0.38 -0.00    -0.021 A 
DOCKED: ATOM     17  C   UNL d   1     -11.935  -0.113   5.709 -0.39 +0.00    +0.000 A 
DOCKED: ATOM     18  C   UNL d   1     -12.335  -0.264   4.385 -0.29 +0.03    +0.070 A 
DOCKED: ATOM     19  C   UNL d   1     -12.865  -1.116   7.954 -0.47 +0.00    +0.052 C 
DOCKED: ATOM     20  C   UNL d   1     -12.162   0.316   1.936 -0.26 +0.05    +0.066 A 
DOCKED: ATOM     21  C   UNL d   1     -11.527   1.009   0.909 -0.27 -0.02    -0.025 A 
DOCKED: ATOM     22  C   UNL d   1     -12.247   0.722  -0.236 -0.23 -0.02    -0.021 A 
DOCKED: ATOM     23  C   UNL d   1     -13.302  -0.130   0.155 -0.18 +0.09    +0.066 A 
DOCKED: ATOM     24  C   UNL d   1     -10.305   1.918   1.015 -0.30 +0.02    +0.051 C 
DOCKED: ATOM     25  N   UNL d   1     -15.636  -1.753   1.030 -0.11 -0.31    -0.248 N 
DOCKED: ATOM     26  N   UNL d   1     -15.902  -2.501   3.695 -0.05 -0.17    -0.248 N 
DOCKED: ATOM     27  N   UNL d   1     -13.413  -1.039   4.325 -0.17 -0.12    -0.248 N 
DOCKED: ATOM     28  N   UNL d   1     -13.256  -0.376   1.469 -0.16 -0.28    -0.248 N 
DOCKED: ATOM     29 FE   UNL d   1     -14.456  -1.373   2.773 -0.05 +0.00    +0.000 Fe
DOCKED: ENDROOT
DOCKED: BRANCH   6  30
DOCKED: ATOM     30  C   UNL d   1     -16.667  -1.249  -2.567 -0.09 +0.04    +0.052 C 
DOCKED: BRANCH  30  31
DOCKED: ATOM     31  C   UNL d   1     -17.351   0.111  -2.702 -0.02 +0.08    +0.115 C 
DOCKED: BRANCH  31  32
DOCKED: ATOM     32  C   UNL d   1     -16.926   1.081  -1.621 -0.03 +0.18    +0.139 C 
DOCKED: ATOM     33  O   UNL d   1     -16.163   1.994  -1.899 -0.02 -1.02    -0.650 OA
DOCKED: BRANCH  32  34
DOCKED: ATOM     34  O   UNL d   1     -17.402   1.001  -0.357 -0.24 -1.32    -0.776 OA
DOCKED: ATOM     35  H   UNL d   1     -16.875   0.731   0.407 +0.04 +0.41    +0.167 HD
DOCKED: ENDBRANCH  32  34
DOCKED: ENDBRANCH  31  32
DOCKED: ENDBRANCH  30  31
DOCKED: ENDBRANCH   6  30
DOCKED: BRANCH  29  36
DOCKED: ATOM     36  C   UNL d   1     -15.622   0.346   3.051 +0.16 +0.26    +0.190 C 
DOCKED: BRANCH  36  37
DOCKED: ATOM     37  O   UNL d   1     -16.777   0.994   2.600 -0.18 -0.75    -0.399 OA
DOCKED: ATOM     38  H   UNL d   1     -17.030   0.514   1.762 +0.04 +0.39    +0.209 HD
DOCKED: ENDBRANCH  36  37
DOCKED: ENDBRANCH  29  36
DOCKED: BRANCH  22  39
DOCKED: ATOM     39  C   UNL d   1     -11.970   1.290  -1.616 -0.24 +0.03    +0.052 C 
DOCKED: BRANCH  39  40
DOCKED: ATOM     40  C   UNL d   1     -12.512   2.725  -1.730 -0.15 +0.09    +0.115 C 
DOCKED: BRANCH  40  41
DOCKED: ATOM     41  C   UNL d   1     -13.026   3.090  -3.107 -0.08 +0.06    +0.139 C 
DOCKED: ATOM     42  O   UNL d   1     -12.453   3.961  -3.748 +0.06 -0.08    -0.650 OA
DOCKED: BRANCH  41  43
DOCKED: ATOM     43  O   UNL d   1     -14.048   2.421  -3.685 +0.05 -0.37    -0.776 OA
DOCKED: ATOM     44  H   UNL d   1     -14.874   2.234  -3.222 +0.02 +0.12    +0.167 HD
DOCKED: ENDBRANCH  41  43
DOCKED: ENDBRANCH  40  41
DOCKED: ENDBRANCH  39  40
DOCKED: ENDBRANCH  22  39
DOCKED: BRANCH  12  45
DOCKED: ATOM     45  C   UNL d   1     -16.918  -4.059   6.928 -0.23 +0.00    +0.004 C 
DOCKED: ATOM     46  C   UNL d   1     -16.006  -4.666   7.683 -0.42 +0.00    +0.012 C 
DOCKED: ENDBRANCH  12  45
DOCKED: BRANCH  17  47
DOCKED: ATOM     47  C   UNL d   1     -10.815   0.762   6.167 -0.44 +0.00    +0.004 C 
DOCKED: ATOM     48  C   UNL d   1      -9.877   0.366   7.031 -0.51 +0.00    +0.012 C 
DOCKED: ENDBRANCH  17  47
DOCKED: TORSDOF 12
DOCKED: TER
DOCKED: ENDMDL
________________________________________________________________________________


	BEGINNING GENETIC ALGORITHM DOCKING 70 of 100
Run: 70 Seed: 1099223819 828061585 [ Run 70 of 100 GA/GALS ]
Beginning LAMARCKIAN GENETIC ALGORITHM (LGA), with a maximum of 25000000 energy evaluations.

Final-Value: -11.232


	FINAL GENETIC ALGORITHM DOCKED STATE
	_______________________________________________


Detailed state:  trans -17.115 -2.609 5.408 quatxyzw -0.158542 -0.729262 -0.095907 -0.658667 center 8.781 34.984 -0.736 ntor 12 106.2854 125.5147 126.2369 116.3089 -99.8272 93.1463 -142.8873 -49.4176 -69.3493 108.0062 164.6470 179.8560
State:	-17.115  -2.609   5.408  -0.211 -0.969 -0.127 -97.603    106.29  125.51  126.24  116.31  -99.83   93.15 -142.89  -49.42  -69.35  108.01  164.65  179.86

DOCKED: MODEL       70
DOCKED: USER    Run = 70
DOCKED: USER    DPF = D:/Protein_go_brrr/autodock/final/AncMH_nat/heme_Co/dock.dpf
DOCKED: USER  
DOCKED: USER    Estimated Free Energy of Binding    =   -4.87 kcal/mol  [=(1)+(2)+(3)-(4)]
DOCKED: USER    Estimated Inhibition Constant, Ki   =  271.55 uM (micromolar)  [Temperature = 298.15 K]
DOCKED: USER    
DOCKED: USER    (1) Final Intermolecular Energy     =   -8.44 kcal/mol
DOCKED: USER        vdW + Hbond + desolv Energy     =   -4.77 kcal/mol
DOCKED: USER        Electrostatic Energy            =   -3.68 kcal/mol
DOCKED: USER    (2) Final Total Internal Energy     =   -2.79 kcal/mol
DOCKED: USER    (3) Torsional Free Energy           =   +3.58 kcal/mol
DOCKED: USER    (4) Unbound System's Energy  [=(2)] =   -2.79 kcal/mol
DOCKED: USER    
DOCKED: USER    
DOCKED: USER    NEWDPF move heme_Co_opt.pdbqt
DOCKED: USER    NEWDPF about 8.781000 34.984000 -0.736000
DOCKED: USER    NEWDPF tran0 -17.114807 -2.608519 5.407697
DOCKED: USER    NEWDPF quaternion0 -0.158542 -0.729262 -0.095907 -0.658667
DOCKED: USER    NEWDPF axisangle0 -0.210705 -0.969204 -0.127462 -97.603382
DOCKED: USER    NEWDPF quat0 -0.210705 -0.969204 -0.127462 -97.603382
DOCKED: USER    NEWDPF dihe0 106.29 125.51 126.24 116.31 -99.83 93.15 -142.89 -49.42 -69.35 108.01 164.65 179.86 
DOCKED: USER  keepresnum = 1 
DOCKED: USER  
DOCKED: REMARK  12 active torsions:
DOCKED: REMARK  status: ('A' for Active; 'I' for Inactive)
DOCKED: REMARK    1  A    between atoms: C_6  and  C_10 
DOCKED: REMARK    2  A    between atoms: C_10  and  C_11 
DOCKED: REMARK    3  A    between atoms: C_11  and  C_12 
DOCKED: REMARK    4  A    between atoms: C_12  and  O_14 
DOCKED: REMARK    5  A    between atoms: C_17  and  C_20 
DOCKED: REMARK    6  A    between atoms: C_24  and  C_27 
DOCKED: REMARK    7  A    between atoms: C_31  and  C_34 
DOCKED: REMARK    8  A    between atoms: C_34  and  C_35 
DOCKED: REMARK    9  A    between atoms: C_35  and  C_36 
DOCKED: REMARK   10  A    between atoms: C_36  and  O_38 
DOCKED: REMARK   11  A    between atoms: FE_43  and  C_44 
DOCKED: REMARK   12  A    between atoms: C_44  and  O_45 
DOCKED: USER                              x       y       z     vdW  Elec       q    Type
DOCKED: USER                           _______ _______ _______ _____ _____    ______ ____
DOCKED: ROOT
DOCKED: ATOM      1  C   UNL d   1     -15.987  -2.643   3.552 -0.10 +0.05    +0.064 A 
DOCKED: ATOM      2  C   UNL d   1     -20.516  -3.686   4.558 -0.05 +0.03    +0.064 C 
DOCKED: ATOM      3  C   UNL d   1     -19.672  -3.031   9.215 -0.08 +0.02    +0.064 A 
DOCKED: ATOM      4  C   UNL d   1     -15.144  -1.587   8.178 -0.25 +0.01    +0.064 A 
DOCKED: ATOM      5  C   UNL d   1     -17.277  -3.012   3.489 -0.05 +0.04    +0.066 A 
DOCKED: ATOM      6  C   UNL d   1     -17.932  -3.230   2.261 -0.05 -0.02    -0.021 A 
DOCKED: ATOM      7  C   UNL d   1     -19.251  -3.510   2.558 -0.01 -0.01    -0.025 A 
DOCKED: ATOM      8  C   UNL d   1     -19.342  -3.467   3.953 -0.03 +0.03    +0.066 A 
DOCKED: ATOM      9  C   UNL d   1     -20.395  -3.808   1.576 -0.00 +0.02    +0.051 C 
DOCKED: ATOM     10  C   UNL d   1     -20.699  -3.688   5.988 -0.05 +0.03    +0.066 A 
DOCKED: ATOM     11  C   UNL d   1     -21.871  -4.048   6.688 -0.05 -0.01    -0.021 A 
DOCKED: ATOM     12  C   UNL d   1     -21.596  -3.852   8.044 -0.06 +0.00    +0.000 A 
DOCKED: ATOM     13  C   UNL d   1     -20.277  -3.399   8.072 -0.08 +0.02    +0.070 A 
DOCKED: ATOM     14  C   UNL d   1     -23.125  -4.630   6.088 -0.03 +0.01    +0.052 C 
DOCKED: ATOM     15  C   UNL d   1     -18.341  -2.495   9.420 -0.11 +0.02    +0.066 A 
DOCKED: ATOM     16  C   UNL d   1     -17.828  -1.997  10.609 -0.13 -0.00    -0.021 A 
DOCKED: ATOM     17  C   UNL d   1     -16.523  -1.577  10.315 -0.21 +0.00    +0.000 A 
DOCKED: ATOM     18  C   UNL d   1     -16.336  -1.869   8.968 -0.21 +0.01    +0.070 A 
DOCKED: ATOM     19  C   UNL d   1     -18.567  -1.939  11.927 -0.07 +0.01    +0.052 C 
DOCKED: ATOM     20  C   UNL d   1     -14.970  -1.782   6.849 -0.21 +0.02    +0.066 A 
DOCKED: ATOM     21  C   UNL d   1     -13.789  -1.438   6.195 -0.24 -0.01    -0.025 A 
DOCKED: ATOM     22  C   UNL d   1     -13.993  -1.758   4.865 -0.25 -0.01    -0.021 A 
DOCKED: ATOM     23  C   UNL d   1     -15.302  -2.275   4.771 -0.14 +0.03    +0.066 A 
DOCKED: ATOM     24  C   UNL d   1     -12.535  -0.816   6.803 -0.43 +0.01    +0.051 C 
DOCKED: ATOM     25  N   UNL d   1     -18.132  -3.166   4.556 -0.02 -0.13    -0.248 N 
DOCKED: ATOM     26  N   UNL d   1     -19.718  -3.355   6.833 -0.05 -0.09    -0.248 N 
DOCKED: ATOM     27  N   UNL d   1     -17.449  -2.386   8.460 -0.07 -0.06    -0.248 N 
DOCKED: ATOM     28  N   UNL d   1     -15.898  -2.289   5.969 -0.07 -0.10    -0.248 N 
DOCKED: ATOM     29 FE   UNL d   1     -17.767  -2.752   6.623 -0.03 +0.00    +0.000 Fe
DOCKED: ENDROOT
DOCKED: BRANCH   6  30
DOCKED: ATOM     30  C   UNL d   1     -17.325  -3.092   0.869 +0.01 +0.06    +0.052 C 
DOCKED: BRANCH  30  31
DOCKED: ATOM     31  C   UNL d   1     -17.927  -1.893   0.137 -0.06 +0.10    +0.115 C 
DOCKED: BRANCH  31  32
DOCKED: ATOM     32  C   UNL d   1     -16.945  -0.750  -0.005 -0.09 +0.17    +0.139 C 
DOCKED: ATOM     33  O   UNL d   1     -16.192  -0.721  -0.967 -0.07 -0.78    -0.650 OA
DOCKED: BRANCH  32  34
DOCKED: ATOM     34  O   UNL d   1     -16.904   0.275   0.878 -0.45 -1.47    -0.776 OA
DOCKED: ATOM     35  H   UNL d   1     -16.242   0.363   1.578 +0.03 +0.36    +0.167 HD
DOCKED: ENDBRANCH  32  34
DOCKED: ENDBRANCH  31  32
DOCKED: ENDBRANCH  30  31
DOCKED: ENDBRANCH   6  30
DOCKED: BRANCH  29  36
DOCKED: ATOM     36  C   UNL d   1     -18.415  -0.798   6.230 -0.11 +0.12    +0.190 C 
DOCKED: BRANCH  36  37
DOCKED: ATOM     37  O   UNL d   1     -18.123   0.342   5.474 -0.09 -0.43    -0.399 OA
DOCKED: ATOM     38  H   UNL d   1     -17.448   0.039   4.804 +0.05 +0.21    +0.209 HD
DOCKED: ENDBRANCH  36  37
DOCKED: ENDBRANCH  29  36
DOCKED: BRANCH  22  39
DOCKED: ATOM     39  C   UNL d   1     -13.003  -1.517   3.741 -0.01 +0.03    +0.052 C 
DOCKED: BRANCH  39  40
DOCKED: ATOM     40  C   UNL d   1     -13.025  -0.043   3.304 -0.25 +0.08    +0.115 C 
DOCKED: BRANCH  40  41
DOCKED: ATOM     41  C   UNL d   1     -14.201   0.330   2.426 -0.15 +0.20    +0.139 C 
DOCKED: ATOM     42  O   UNL d   1     -15.243   0.703   2.947 +0.24 -1.04    -0.650 OA
DOCKED: BRANCH  41  43
DOCKED: ATOM     43  O   UNL d   1     -14.104   0.347   1.078 +0.13 -1.53    -0.776 OA
DOCKED: ATOM     44  H   UNL d   1     -14.762  -0.066   0.504 +0.04 +0.33    +0.167 HD
DOCKED: ENDBRANCH  41  43
DOCKED: ENDBRANCH  40  41
DOCKED: ENDBRANCH  39  40
DOCKED: ENDBRANCH  22  39
DOCKED: BRANCH  12  45
DOCKED: ATOM     45  C   UNL d   1     -22.417  -4.056   9.310 -0.03 +0.00    +0.004 C 
DOCKED: ATOM     46  C   UNL d   1     -22.321  -4.977  10.265 -0.05 +0.00    +0.012 C 
DOCKED: ENDBRANCH  12  45
DOCKED: BRANCH  17  47
DOCKED: ATOM     47  C   UNL d   1     -15.517  -0.903  11.189 -0.30 -0.00    +0.004 C 
DOCKED: ATOM     48  C   UNL d   1     -14.979   0.287  10.912 -0.46 +0.00    +0.012 C 
DOCKED: ENDBRANCH  17  47
DOCKED: TORSDOF 12
DOCKED: TER
DOCKED: ENDMDL
________________________________________________________________________________


	BEGINNING GENETIC ALGORITHM DOCKING 71 of 100
Run: 71 Seed: 1671268196 2140717958 [ Run 71 of 100 GA/GALS ]
Beginning LAMARCKIAN GENETIC ALGORITHM (LGA), with a maximum of 25000000 energy evaluations.

Final-Value: -9.832


	FINAL GENETIC ALGORITHM DOCKED STATE
	_______________________________________________


Detailed state:  trans -20.589 0.318 8.288 quatxyzw 0.688251 -0.144524 0.238111 -0.669870 center 8.781 34.984 -0.736 ntor 12 42.8649 106.1919 59.2388 131.8322 -3.1704 138.5878 -149.5871 148.1399 -180.0000 147.0011 -0.1250 20.0380
State:	-20.589   0.318   8.288   0.927 -0.195  0.321 -95.886     42.86  106.19   59.24  131.83   -3.17  138.59 -149.59  148.14 -180.00  147.00   -0.13   20.04

DOCKED: MODEL       71
DOCKED: USER    Run = 71
DOCKED: USER    DPF = D:/Protein_go_brrr/autodock/final/AncMH_nat/heme_Co/dock.dpf
DOCKED: USER  
DOCKED: USER    Estimated Free Energy of Binding    =   -4.38 kcal/mol  [=(1)+(2)+(3)-(4)]
DOCKED: USER    Estimated Inhibition Constant, Ki   =  619.67 uM (micromolar)  [Temperature = 298.15 K]
DOCKED: USER    
DOCKED: USER    (1) Final Intermolecular Energy     =   -7.96 kcal/mol
DOCKED: USER        vdW + Hbond + desolv Energy     =   -5.43 kcal/mol
DOCKED: USER        Electrostatic Energy            =   -2.53 kcal/mol
DOCKED: USER    (2) Final Total Internal Energy     =   -1.88 kcal/mol
DOCKED: USER    (3) Torsional Free Energy           =   +3.58 kcal/mol
DOCKED: USER    (4) Unbound System's Energy  [=(2)] =   -1.88 kcal/mol
DOCKED: USER    
DOCKED: USER    
DOCKED: USER    NEWDPF move heme_Co_opt.pdbqt
DOCKED: USER    NEWDPF about 8.781000 34.984000 -0.736000
DOCKED: USER    NEWDPF tran0 -20.588505 0.318116 8.287673
DOCKED: USER    NEWDPF quaternion0 0.688251 -0.144524 0.238111 -0.669870
DOCKED: USER    NEWDPF axisangle0 0.926965 -0.194651 0.320697 -95.885899
DOCKED: USER    NEWDPF quat0 0.926965 -0.194651 0.320697 -95.885899
DOCKED: USER    NEWDPF dihe0 42.86 106.19 59.24 131.83 -3.17 138.59 -149.59 148.14 -180.00 147.00 -0.13 20.04 
DOCKED: USER  keepresnum = 1 
DOCKED: USER  
DOCKED: REMARK  12 active torsions:
DOCKED: REMARK  status: ('A' for Active; 'I' for Inactive)
DOCKED: REMARK    1  A    between atoms: C_6  and  C_10 
DOCKED: REMARK    2  A    between atoms: C_10  and  C_11 
DOCKED: REMARK    3  A    between atoms: C_11  and  C_12 
DOCKED: REMARK    4  A    between atoms: C_12  and  O_14 
DOCKED: REMARK    5  A    between atoms: C_17  and  C_20 
DOCKED: REMARK    6  A    between atoms: C_24  and  C_27 
DOCKED: REMARK    7  A    between atoms: C_31  and  C_34 
DOCKED: REMARK    8  A    between atoms: C_34  and  C_35 
DOCKED: REMARK    9  A    between atoms: C_35  and  C_36 
DOCKED: REMARK   10  A    between atoms: C_36  and  O_38 
DOCKED: REMARK   11  A    between atoms: FE_43  and  C_44 
DOCKED: REMARK   12  A    between atoms: C_44  and  O_45 
DOCKED: USER                              x       y       z     vdW  Elec       q    Type
DOCKED: USER                           _______ _______ _______ _____ _____    ______ ____
DOCKED: ROOT
DOCKED: ATOM      1  C   UNL d   1     -22.596   0.898   7.695 -0.05 +0.03    +0.064 A 
DOCKED: ATOM      2  C   UNL d   1     -19.653  -2.490   6.123 -0.06 +0.03    +0.064 C 
DOCKED: ATOM      3  C   UNL d   1     -16.206  -0.895   9.021 -0.23 +0.02    +0.064 A 
DOCKED: ATOM      4  C   UNL d   1     -19.314   2.329  10.921 -0.12 +0.01    +0.064 A 
DOCKED: ATOM      5  C   UNL d   1     -22.033  -0.122   7.027 -0.05 +0.04    +0.066 A 
DOCKED: ATOM      6  C   UNL d   1     -22.762  -0.910   6.114 -0.02 -0.01    -0.021 A 
DOCKED: ATOM      7  C   UNL d   1     -21.910  -1.906   5.678 -0.02 -0.01    -0.025 A 
DOCKED: ATOM      8  C   UNL d   1     -20.694  -1.673   6.330 -0.03 +0.03    +0.066 A 
DOCKED: ATOM      9  C   UNL d   1     -22.214  -3.040   4.687 -0.01 +0.02    +0.051 C 
DOCKED: ATOM     10  C   UNL d   1     -18.357  -2.315   6.728 -0.07 +0.03    +0.066 A 
DOCKED: ATOM     11  C   UNL d   1     -17.187  -3.053   6.444 -0.13 -0.01    -0.021 A 
DOCKED: ATOM     12  C   UNL d   1     -16.196  -2.565   7.301 -0.21 +0.00    +0.000 A 
DOCKED: ATOM     13  C   UNL d   1     -16.829  -1.560   8.032 -0.16 +0.02    +0.070 A 
DOCKED: ATOM     14  C   UNL d   1     -17.024  -4.085   5.357 -0.13 +0.02    +0.052 C 
DOCKED: ATOM     15  C   UNL d   1     -16.722   0.130   9.908 -0.27 +0.01    +0.066 A 
DOCKED: ATOM     16  C   UNL d   1     -16.069   0.673  11.005 -0.32 -0.00    -0.021 A 
DOCKED: ATOM     17  C   UNL d   1     -16.962   1.602  11.558 -0.29 +0.00    +0.000 A 
DOCKED: ATOM     18  C   UNL d   1     -18.087   1.564  10.741 -0.14 +0.01    +0.070 A 
DOCKED: ATOM     19  C   UNL d   1     -14.677   0.303  11.469 -0.36 -0.00    +0.052 C 
DOCKED: ATOM     20  C   UNL d   1     -20.453   2.246  10.192 -0.13 +0.02    +0.066 A 
DOCKED: ATOM     21  C   UNL d   1     -21.581   3.008  10.485 -0.08 -0.01    -0.025 A 
DOCKED: ATOM     22  C   UNL d   1     -22.534   2.638   9.553 -0.05 -0.01    -0.021 A 
DOCKED: ATOM     23  C   UNL d   1     -21.938   1.651   8.739 -0.07 +0.03    +0.066 A 
DOCKED: ATOM     24  C   UNL d   1     -21.751   4.026  11.609 -0.07 +0.01    +0.051 C 
DOCKED: ATOM     25  N   UNL d   1     -20.740  -0.571   7.167 -0.04 -0.14    -0.248 N 
DOCKED: ATOM     26  N   UNL d   1     -18.120  -1.372   7.645 -0.05 -0.10    -0.248 N 
DOCKED: ATOM     27  N   UNL d   1     -17.921   0.654   9.787 -0.15 -0.06    -0.248 N 
DOCKED: ATOM     28  N   UNL d   1     -20.679   1.409   9.124 -0.07 -0.10    -0.248 N 
DOCKED: ATOM     29 FE   UNL d   1     -19.249   0.081   8.555 -0.03 +0.00    +0.000 Fe
DOCKED: ENDROOT
DOCKED: BRANCH   6  30
DOCKED: ATOM     30  C   UNL d   1     -24.235  -0.752   5.750 -0.01 +0.02    +0.052 C 
DOCKED: BRANCH  30  31
DOCKED: ATOM     31  C   UNL d   1     -24.408   0.305   4.659 -0.02 +0.06    +0.115 C 
DOCKED: BRANCH  31  32
DOCKED: ATOM     32  C   UNL d   1     -23.095   0.945   4.262 -0.04 +0.16    +0.139 C 
DOCKED: ATOM     33  O   UNL d   1     -22.355   0.365   3.481 -0.53 -0.87    -0.650 OA
DOCKED: BRANCH  32  34
DOCKED: ATOM     34  O   UNL d   1     -22.729   2.169   4.708 +0.16 -1.38    -0.776 OA
DOCKED: ATOM     35  H   UNL d   1     -22.893   2.492   5.605 +0.00 +0.20    +0.167 HD
DOCKED: ENDBRANCH  32  34
DOCKED: ENDBRANCH  31  32
DOCKED: ENDBRANCH  30  31
DOCKED: ENDBRANCH   6  30
DOCKED: BRANCH  29  36
DOCKED: ATOM     36  C   UNL d   1     -20.018  -1.350   9.880 -0.01 +0.05    +0.190 C 
DOCKED: BRANCH  36  37
DOCKED: ATOM     37  O   UNL d   1     -21.128  -2.169  10.115 +0.01 -0.09    -0.399 OA
DOCKED: ATOM     38  H   UNL d   1     -21.801  -1.891   9.433 +0.02 +0.05    +0.209 HD
DOCKED: ENDBRANCH  36  37
DOCKED: ENDBRANCH  29  36
DOCKED: BRANCH  22  39
DOCKED: ATOM     39  C   UNL d   1     -23.957   3.160   9.495 -0.02 +0.01    +0.052 C 
DOCKED: BRANCH  39  40
DOCKED: ATOM     40  C   UNL d   1     -24.236   3.825   8.137 -0.02 +0.04    +0.115 C 
DOCKED: BRANCH  40  41
DOCKED: ATOM     41  C   UNL d   1     -23.078   4.630   7.585 -0.08 +0.06    +0.139 C 
DOCKED: ATOM     42  O   UNL d   1     -22.808   5.712   8.088 +0.01 -0.23    -0.650 OA
DOCKED: BRANCH  41  43
DOCKED: ATOM     43  O   UNL d   1     -22.279   4.147   6.609 +0.01 -0.68    -0.776 OA
DOCKED: ATOM     44  H   UNL d   1     -22.599   3.971   5.715 +0.01 +0.19    +0.167 HD
DOCKED: ENDBRANCH  41  43
DOCKED: ENDBRANCH  40  41
DOCKED: ENDBRANCH  39  40
DOCKED: ENDBRANCH  22  39
DOCKED: BRANCH  12  45
DOCKED: ATOM     45  C   UNL d   1     -14.728  -2.917   7.498 -0.40 +0.00    +0.004 C 
DOCKED: ATOM     46  C   UNL d   1     -13.638  -2.156   7.429 -0.45 +0.00    +0.012 C 
DOCKED: ENDBRANCH  12  45
DOCKED: BRANCH  17  47
DOCKED: ATOM     47  C   UNL d   1     -16.827   2.441  12.786 -0.37 +0.00    +0.004 C 
DOCKED: ATOM     48  C   UNL d   1     -16.041   2.119  13.816 -0.33 +0.00    +0.012 C 
DOCKED: ENDBRANCH  17  47
DOCKED: TORSDOF 12
DOCKED: TER
DOCKED: ENDMDL
________________________________________________________________________________


	BEGINNING GENETIC ALGORITHM DOCKING 72 of 100
Run: 72 Seed: 988726632 1626761986 [ Run 72 of 100 GA/GALS ]
Beginning LAMARCKIAN GENETIC ALGORITHM (LGA), with a maximum of 25000000 energy evaluations.

Final-Value: -9.637


	FINAL GENETIC ALGORITHM DOCKED STATE
	_______________________________________________


Detailed state:  trans -15.694 9.446 16.044 quatxyzw 0.006542 -0.044780 -0.320819 -0.946059 center 8.781 34.984 -0.736 ntor 12 34.9880 142.6605 135.9900 118.3232 -93.8201 80.5527 32.8326 -32.7645 -179.6014 -159.0527 4.6726 162.8095
State:	-15.694   9.446  16.044   0.020 -0.138 -0.990 -37.809     34.99  142.66  135.99  118.32  -93.82   80.55   32.83  -32.76 -179.60 -159.05    4.67  162.81

DOCKED: MODEL       72
DOCKED: USER    Run = 72
DOCKED: USER    DPF = D:/Protein_go_brrr/autodock/final/AncMH_nat/heme_Co/dock.dpf
DOCKED: USER  
DOCKED: USER    Estimated Free Energy of Binding    =   -3.81 kcal/mol  [=(1)+(2)+(3)-(4)]
DOCKED: USER    Estimated Inhibition Constant, Ki   =    1.62 mM (millimolar)  [Temperature = 298.15 K]
DOCKED: USER    
DOCKED: USER    (1) Final Intermolecular Energy     =   -7.39 kcal/mol
DOCKED: USER        vdW + Hbond + desolv Energy     =   -5.90 kcal/mol
DOCKED: USER        Electrostatic Energy            =   -1.49 kcal/mol
DOCKED: USER    (2) Final Total Internal Energy     =   -2.25 kcal/mol
DOCKED: USER    (3) Torsional Free Energy           =   +3.58 kcal/mol
DOCKED: USER    (4) Unbound System's Energy  [=(2)] =   -2.25 kcal/mol
DOCKED: USER    
DOCKED: USER    
DOCKED: USER    NEWDPF move heme_Co_opt.pdbqt
DOCKED: USER    NEWDPF about 8.781000 34.984000 -0.736000
DOCKED: USER    NEWDPF tran0 -15.693712 9.445559 16.043542
DOCKED: USER    NEWDPF quaternion0 0.006542 -0.044780 -0.320819 -0.946059
DOCKED: USER    NEWDPF axisangle0 0.020191 -0.138213 -0.990197 -37.809418
DOCKED: USER    NEWDPF quat0 0.020191 -0.138213 -0.990197 -37.809418
DOCKED: USER    NEWDPF dihe0 34.99 142.66 135.99 118.32 -93.82 80.55 32.83 -32.76 -179.60 -159.05 4.67 162.81 
DOCKED: USER  keepresnum = 1 
DOCKED: USER  
DOCKED: REMARK  12 active torsions:
DOCKED: REMARK  status: ('A' for Active; 'I' for Inactive)
DOCKED: REMARK    1  A    between atoms: C_6  and  C_10 
DOCKED: REMARK    2  A    between atoms: C_10  and  C_11 
DOCKED: REMARK    3  A    between atoms: C_11  and  C_12 
DOCKED: REMARK    4  A    between atoms: C_12  and  O_14 
DOCKED: REMARK    5  A    between atoms: C_17  and  C_20 
DOCKED: REMARK    6  A    between atoms: C_24  and  C_27 
DOCKED: REMARK    7  A    between atoms: C_31  and  C_34 
DOCKED: REMARK    8  A    between atoms: C_34  and  C_35 
DOCKED: REMARK    9  A    between atoms: C_35  and  C_36 
DOCKED: REMARK   10  A    between atoms: C_36  and  O_38 
DOCKED: REMARK   11  A    between atoms: FE_43  and  C_44 
DOCKED: REMARK   12  A    between atoms: C_44  and  O_45 
DOCKED: USER                              x       y       z     vdW  Elec       q    Type
DOCKED: USER                           _______ _______ _______ _____ _____    ______ ____
DOCKED: ROOT
DOCKED: ATOM      1  C   UNL d   1     -16.844  11.004  15.062 -0.11 +0.03    +0.064 A 
DOCKED: ATOM      2  C   UNL d   1     -17.795   8.188  18.773 -0.06 +0.04    +0.064 C 
DOCKED: ATOM      3  C   UNL d   1     -13.693   5.835  18.087 -0.09 +0.01    +0.064 A 
DOCKED: ATOM      4  C   UNL d   1     -12.520   8.944  14.535 -0.35 -0.00    +0.064 A 
DOCKED: ATOM      5  C   UNL d   1     -17.422  10.384  16.104 -0.06 +0.05    +0.066 A 
DOCKED: ATOM      6  C   UNL d   1     -18.633  10.835  16.664 -0.06 -0.01    -0.021 A 
DOCKED: ATOM      7  C   UNL d   1     -18.893  10.028  17.755 -0.05 -0.02    -0.025 A 
DOCKED: ATOM      8  C   UNL d   1     -17.839   9.110  17.804 +0.02 +0.06    +0.066 A 
DOCKED: ATOM      9  C   UNL d   1     -20.083  10.107  18.723 -0.01 +0.02    +0.051 C 
DOCKED: ATOM     10  C   UNL d   1     -16.765   7.186  18.889 -0.06 +0.03    +0.066 A 
DOCKED: ATOM     11  C   UNL d   1     -16.736   6.106  19.798 -0.02 -0.01    -0.021 A 
DOCKED: ATOM     12  C   UNL d   1     -15.531   5.434  19.573 -0.02 +0.00    +0.000 A 
DOCKED: ATOM     13  C   UNL d   1     -14.922   6.144  18.538 -0.06 +0.02    +0.070 A 
DOCKED: ATOM     14  C   UNL d   1     -17.840   5.705  20.742 -0.00 +0.01    +0.052 C 
DOCKED: ATOM     15  C   UNL d   1     -12.896   6.489  17.068 -0.17 +0.00    +0.066 A 
DOCKED: ATOM     16  C   UNL d   1     -11.575   6.208  16.750 -0.24 +0.00    -0.021 A 
DOCKED: ATOM     17  C   UNL d   1     -11.231   7.104  15.727 -0.37 -0.00    +0.000 A 
DOCKED: ATOM     18  C   UNL d   1     -12.380   7.852  15.490 -0.28 -0.00    +0.070 A 
DOCKED: ATOM     19  C   UNL d   1     -10.723   5.143  17.403 -0.28 -0.01    +0.052 C 
DOCKED: ATOM     20  C   UNL d   1     -13.598   9.742  14.347 -0.29 +0.00    +0.066 A 
DOCKED: ATOM     21  C   UNL d   1     -13.600  10.784  13.422 -0.33 +0.00    -0.025 A 
DOCKED: ATOM     22  C   UNL d   1     -14.844  11.378  13.531 -0.24 +0.00    -0.021 A 
DOCKED: ATOM     23  C   UNL d   1     -15.541  10.670  14.534 -0.18 +0.02    +0.066 A 
DOCKED: ATOM     24  C   UNL d   1     -12.465  11.207  12.493 -0.43 -0.01    +0.051 C 
DOCKED: ATOM     25  N   UNL d   1     -16.916   9.303  16.789 +0.03 -0.29    -0.248 N 
DOCKED: ATOM     26  N   UNL d   1     -15.694   7.169  18.088 -0.07 -0.11    -0.248 N 
DOCKED: ATOM     27  N   UNL d   1     -13.341   7.480  16.327 -0.14 -0.03    -0.248 N 
DOCKED: ATOM     28  N   UNL d   1     -14.789   9.681  15.032 -0.14 -0.07    -0.248 N 
DOCKED: ATOM     29 FE   UNL d   1     -15.022   8.339  16.541 -0.03 +0.00    +0.000 Fe
DOCKED: ENDROOT
DOCKED: BRANCH   6  30
DOCKED: ATOM     30  C   UNL d   1     -19.452  12.040  16.212 -0.02 +0.02    +0.052 C 
DOCKED: BRANCH  30  31
DOCKED: ATOM     31  C   UNL d   1     -20.453  11.634  15.130 -0.03 +0.04    +0.115 C 
DOCKED: BRANCH  31  32
DOCKED: ATOM     32  C   UNL d   1     -20.349  10.168  14.768 +0.05 +0.14    +0.139 C 
DOCKED: ATOM     33  O   UNL d   1     -19.689   9.835  13.795 -0.30 -0.76    -0.650 OA
DOCKED: BRANCH  32  34
DOCKED: ATOM     34  O   UNL d   1     -20.926   9.201  15.518 -0.35 -1.02    -0.776 OA
DOCKED: ATOM     35  H   UNL d   1     -21.739   9.320  16.028 +0.01 +0.12    +0.167 HD
DOCKED: ENDBRANCH  32  34
DOCKED: ENDBRANCH  31  32
DOCKED: ENDBRANCH  30  31
DOCKED: ENDBRANCH   6  30
DOCKED: BRANCH  29  36
DOCKED: ATOM     36  C   UNL d   1     -14.264   9.724  17.921 -0.03 +0.02    +0.190 C 
DOCKED: BRANCH  36  37
DOCKED: ATOM     37  O   UNL d   1     -13.890  11.064  18.064 +0.00 -0.01    -0.399 OA
DOCKED: ATOM     38  H   UNL d   1     -14.470  11.561  17.422 +0.02 +0.01    +0.209 HD
DOCKED: ENDBRANCH  36  37
DOCKED: ENDBRANCH  29  36
DOCKED: BRANCH  22  39
DOCKED: ATOM     39  C   UNL d   1     -15.308  12.598  12.758 -0.22 -0.01    +0.052 C 
DOCKED: BRANCH  39  40
DOCKED: ATOM     40  C   UNL d   1     -15.103  13.876  13.587 -0.08 -0.02    +0.115 C 
DOCKED: BRANCH  40  41
DOCKED: ATOM     41  C   UNL d   1     -14.183  13.707  14.778 -0.07 -0.03    +0.139 C 
DOCKED: ATOM     42  O   UNL d   1     -13.049  14.164  14.729 +0.00 +0.24    -0.650 OA
DOCKED: BRANCH  41  43
DOCKED: ATOM     43  O   UNL d   1     -14.608  13.142  15.930 +0.06 +0.06    -0.776 OA
DOCKED: ATOM     44  H   UNL d   1     -14.049  12.560  16.460 +0.03 -0.01    +0.167 HD
DOCKED: ENDBRANCH  41  43
DOCKED: ENDBRANCH  40  41
DOCKED: ENDBRANCH  39  40
DOCKED: ENDBRANCH  22  39
DOCKED: BRANCH  12  45
DOCKED: ATOM     45  C   UNL d   1     -14.898   4.199  20.200 -0.02 +0.00    +0.004 C 
DOCKED: ATOM     46  C   UNL d   1     -14.694   2.983  19.701 -0.03 +0.00    +0.012 C 
DOCKED: ENDBRANCH  12  45
DOCKED: BRANCH  17  47
DOCKED: ATOM     47  C   UNL d   1      -9.923   7.308  15.038 -0.55 -0.00    +0.004 C 
DOCKED: ATOM     48  C   UNL d   1      -9.214   8.437  15.118 -0.28 -0.00    +0.012 C 
DOCKED: ENDBRANCH  17  47
DOCKED: TORSDOF 12
DOCKED: TER
DOCKED: ENDMDL
________________________________________________________________________________


	BEGINNING GENETIC ALGORITHM DOCKING 73 of 100
Run: 73 Seed: 1042793740 1253140394 [ Run 73 of 100 GA/GALS ]
Beginning LAMARCKIAN GENETIC ALGORITHM (LGA), with a maximum of 25000000 energy evaluations.

Final-Value: -11.566


	FINAL GENETIC ALGORITHM DOCKED STATE
	_______________________________________________


Detailed state:  trans -15.631 -2.003 2.622 quatxyzw -0.326019 0.342126 0.407705 -0.781305 center 8.781 34.984 -0.736 ntor 12 -153.7079 134.7733 22.5665 118.6404 135.3497 105.3664 36.9610 133.2540 -180.0000 164.4410 -172.5613 6.7009
State:	-15.631  -2.003   2.622  -0.522  0.548  0.653 -77.240   -153.71  134.77   22.57  118.64  135.35  105.37   36.96  133.25 -180.00  164.44 -172.56    6.70

DOCKED: MODEL       73
DOCKED: USER    Run = 73
DOCKED: USER    DPF = D:/Protein_go_brrr/autodock/final/AncMH_nat/heme_Co/dock.dpf
DOCKED: USER  
DOCKED: USER    Estimated Free Energy of Binding    =   -5.74 kcal/mol  [=(1)+(2)+(3)-(4)]
DOCKED: USER    Estimated Inhibition Constant, Ki   =   62.06 uM (micromolar)  [Temperature = 298.15 K]
DOCKED: USER    
DOCKED: USER    (1) Final Intermolecular Energy     =   -9.32 kcal/mol
DOCKED: USER        vdW + Hbond + desolv Energy     =   -6.94 kcal/mol
DOCKED: USER        Electrostatic Energy            =   -2.38 kcal/mol
DOCKED: USER    (2) Final Total Internal Energy     =   -2.25 kcal/mol
DOCKED: USER    (3) Torsional Free Energy           =   +3.58 kcal/mol
DOCKED: USER    (4) Unbound System's Energy  [=(2)] =   -2.25 kcal/mol
DOCKED: USER    
DOCKED: USER    
DOCKED: USER    NEWDPF move heme_Co_opt.pdbqt
DOCKED: USER    NEWDPF about 8.781000 34.984000 -0.736000
DOCKED: USER    NEWDPF tran0 -15.630552 -2.002886 2.622218
DOCKED: USER    NEWDPF quaternion0 -0.326019 0.342126 0.407705 -0.781305
DOCKED: USER    NEWDPF axisangle0 -0.522341 0.548148 0.653218 -77.239498
DOCKED: USER    NEWDPF quat0 -0.522341 0.548148 0.653218 -77.239498
DOCKED: USER    NEWDPF dihe0 -153.71 134.77 22.57 118.64 135.35 105.37 36.96 133.25 -180.00 164.44 -172.56 6.70 
DOCKED: USER  keepresnum = 1 
DOCKED: USER  
DOCKED: REMARK  12 active torsions:
DOCKED: REMARK  status: ('A' for Active; 'I' for Inactive)
DOCKED: REMARK    1  A    between atoms: C_6  and  C_10 
DOCKED: REMARK    2  A    between atoms: C_10  and  C_11 
DOCKED: REMARK    3  A    between atoms: C_11  and  C_12 
DOCKED: REMARK    4  A    between atoms: C_12  and  O_14 
DOCKED: REMARK    5  A    between atoms: C_17  and  C_20 
DOCKED: REMARK    6  A    between atoms: C_24  and  C_27 
DOCKED: REMARK    7  A    between atoms: C_31  and  C_34 
DOCKED: REMARK    8  A    between atoms: C_34  and  C_35 
DOCKED: REMARK    9  A    between atoms: C_35  and  C_36 
DOCKED: REMARK   10  A    between atoms: C_36  and  O_38 
DOCKED: REMARK   11  A    between atoms: FE_43  and  C_44 
DOCKED: REMARK   12  A    between atoms: C_44  and  O_45 
DOCKED: USER                              x       y       z     vdW  Elec       q    Type
DOCKED: USER                           _______ _______ _______ _____ _____    ______ ____
DOCKED: ROOT
DOCKED: ATOM      1  C   UNL d   1     -17.127  -3.247   3.586 -0.06 +0.04    +0.064 A 
DOCKED: ATOM      2  C   UNL d   1     -13.289  -0.991   5.258 -0.25 +0.02    +0.064 C 
DOCKED: ATOM      3  C   UNL d   1     -12.089   0.331   0.826 -0.24 +0.06    +0.064 A 
DOCKED: ATOM      4  C   UNL d   1     -16.206  -1.636  -0.862 -0.08 +0.08    +0.064 A 
DOCKED: ATOM      5  C   UNL d   1     -16.147  -2.759   4.364 -0.09 +0.04    +0.066 A 
DOCKED: ATOM      6  C   UNL d   1     -16.177  -2.880   5.767 -0.14 -0.01    -0.021 A 
DOCKED: ATOM      7  C   UNL d   1     -15.073  -2.204   6.248 -0.22 -0.01    -0.025 A 
DOCKED: ATOM      8  C   UNL d   1     -14.408  -1.714   5.119 -0.18 +0.03    +0.066 A 
DOCKED: ATOM      9  C   UNL d   1     -14.647  -2.017   7.713 -0.34 +0.01    +0.051 C 
DOCKED: ATOM     10  C   UNL d   1     -12.524  -0.469   4.154 -0.19 +0.03    +0.066 A 
DOCKED: ATOM     11  C   UNL d   1     -11.269   0.175   4.226 -0.28 -0.01    -0.021 A 
DOCKED: ATOM     12  C   UNL d   1     -10.941   0.547   2.920 -0.32 +0.00    +0.000 A 
DOCKED: ATOM     13  C   UNL d   1     -12.010   0.092   2.147 -0.25 +0.05    +0.070 A 
DOCKED: ATOM     14  C   UNL d   1     -10.415   0.328   5.459 -0.42 +0.01    +0.052 C 
DOCKED: ATOM     15  C   UNL d   1     -13.140  -0.017  -0.110 -0.18 +0.08    +0.066 A 
DOCKED: ATOM     16  C   UNL d   1     -13.229   0.386  -1.435 -0.19 -0.02    -0.021 A 
DOCKED: ATOM     17  C   UNL d   1     -14.416  -0.177  -1.926 -0.16 +0.00    +0.000 A 
DOCKED: ATOM     18  C   UNL d   1     -14.951  -0.895  -0.862 -0.13 +0.09    +0.070 A 
DOCKED: ATOM     19  C   UNL d   1     -12.224   1.257  -2.156 -0.21 +0.03    +0.052 C 
DOCKED: ATOM     20  C   UNL d   1     -16.789  -2.270   0.184 -0.04 +0.08    +0.066 A 
DOCKED: ATOM     21  C   UNL d   1     -18.017  -2.918   0.070 -0.07 -0.02    -0.025 A 
DOCKED: ATOM     22  C   UNL d   1     -18.294  -3.417   1.329 -0.06 -0.02    -0.021 A 
DOCKED: ATOM     23  C   UNL d   1     -17.219  -3.035   2.159 -0.06 +0.06    +0.066 A 
DOCKED: ATOM     24  C   UNL d   1     -18.894  -3.038  -1.174 -0.05 +0.03    +0.051 C 
DOCKED: ATOM     25  N   UNL d   1     -15.049  -2.047   3.937 -0.09 -0.16    -0.248 N 
DOCKED: ATOM     26  N   UNL d   1     -12.939  -0.570   2.887 -0.16 -0.18    -0.248 N 
DOCKED: ATOM     27  N   UNL d   1     -14.180  -0.753   0.211 -0.14 -0.34    -0.248 N 
DOCKED: ATOM     28  N   UNL d   1     -16.306  -2.339   1.470 -0.06 -0.27    -0.248 N 
DOCKED: ATOM     29 FE   UNL d   1     -14.591  -1.364   1.962 -0.04 +0.00    +0.000 Fe
DOCKED: ENDROOT
DOCKED: BRANCH   6  30
DOCKED: ATOM     30  C   UNL d   1     -17.266  -3.547   6.600 -0.16 +0.02    +0.052 C 
DOCKED: BRANCH  30  31
DOCKED: ATOM     31  C   UNL d   1     -18.365  -2.544   6.949 -0.09 +0.04    +0.115 C 
DOCKED: BRANCH  31  32
DOCKED: ATOM     32  C   UNL d   1     -18.068  -1.156   6.424 -0.12 +0.08    +0.139 C 
DOCKED: ATOM     33  O   UNL d   1     -17.489  -0.353   7.141 -0.03 -0.34    -0.650 OA
DOCKED: BRANCH  32  34
DOCKED: ATOM     34  O   UNL d   1     -18.381  -0.784   5.160 +0.04 -0.64    -0.776 OA
DOCKED: ATOM     35  H   UNL d   1     -17.957  -0.054   4.688 +0.03 +0.18    +0.167 HD
DOCKED: ENDBRANCH  32  34
DOCKED: ENDBRANCH  31  32
DOCKED: ENDBRANCH  30  31
DOCKED: ENDBRANCH   6  30
DOCKED: BRANCH  29  36
DOCKED: ATOM     36  C   UNL d   1     -15.681   0.365   2.430 +0.05 +0.32    +0.190 C 
DOCKED: BRANCH  36  37
DOCKED: ATOM     37  O   UNL d   1     -16.898   0.806   2.961 -0.18 -0.65    -0.399 OA
DOCKED: ATOM     38  H   UNL d   1     -17.236   0.037   3.500 +0.05 +0.25    +0.209 HD
DOCKED: ENDBRANCH  36  37
DOCKED: ENDBRANCH  29  36
DOCKED: BRANCH  22  39
DOCKED: ATOM     39  C   UNL d   1     -19.556  -4.162   1.722 -0.02 +0.03    +0.052 C 
DOCKED: BRANCH  39  40
DOCKED: ATOM     40  C   UNL d   1     -19.258  -5.653   1.946 -0.05 +0.06    +0.115 C 
DOCKED: BRANCH  40  41
DOCKED: ATOM     41  C   UNL d   1     -17.996  -6.146   1.271 -0.06 +0.12    +0.139 C 
DOCKED: ATOM     42  O   UNL d   1     -18.054  -6.561   0.122 -0.47 -0.71    -0.650 OA
DOCKED: BRANCH  41  43
DOCKED: ATOM     43  O   UNL d   1     -16.789  -6.061   1.874 -0.42 -0.99    -0.776 OA
DOCKED: ATOM     44  H   UNL d   1     -16.685  -6.084   2.834 +0.05 +0.14    +0.167 HD
DOCKED: ENDBRANCH  41  43
DOCKED: ENDBRANCH  40  41
DOCKED: ENDBRANCH  39  40
DOCKED: ENDBRANCH  22  39
DOCKED: BRANCH  12  45
DOCKED: ATOM     45  C   UNL d   1      -9.739   1.258   2.313 -0.24 +0.00    +0.004 C 
DOCKED: ATOM     46  C   UNL d   1      -8.771   0.801   1.523 -0.45 +0.00    +0.012 C 
DOCKED: ENDBRANCH  12  45
DOCKED: BRANCH  17  47
DOCKED: ATOM     47  C   UNL d   1     -15.057  -0.032  -3.266 -0.10 +0.00    +0.004 C 
DOCKED: ATOM     48  C   UNL d   1     -15.189  -1.038  -4.134 -0.10 +0.01    +0.012 C 
DOCKED: ENDBRANCH  17  47
DOCKED: TORSDOF 12
DOCKED: TER
DOCKED: ENDMDL
________________________________________________________________________________


	BEGINNING GENETIC ALGORITHM DOCKING 74 of 100
Run: 74 Seed: 620997825 504581769 [ Run 74 of 100 GA/GALS ]
Beginning LAMARCKIAN GENETIC ALGORITHM (LGA), with a maximum of 25000000 energy evaluations.

Final-Value: -11.797


	FINAL GENETIC ALGORITHM DOCKED STATE
	_______________________________________________


Detailed state:  trans -13.873 7.922 -3.056 quatxyzw 0.869747 0.101071 -0.442868 0.192854 center 8.781 34.984 -0.736 ntor 12 31.3124 110.6032 161.6164 123.3500 -10.0040 100.7402 -155.1515 -101.6308 -35.1598 112.1153 173.1687 179.8363
State:	-13.873   7.922  -3.056   0.886  0.103 -0.451 157.761     31.31  110.60  161.62  123.35  -10.00  100.74 -155.15 -101.63  -35.16  112.12  173.17  179.84

DOCKED: MODEL       74
DOCKED: USER    Run = 74
DOCKED: USER    DPF = D:/Protein_go_brrr/autodock/final/AncMH_nat/heme_Co/dock.dpf
DOCKED: USER  
DOCKED: USER    Estimated Free Energy of Binding    =   -6.00 kcal/mol  [=(1)+(2)+(3)-(4)]
DOCKED: USER    Estimated Inhibition Constant, Ki   =   40.10 uM (micromolar)  [Temperature = 298.15 K]
DOCKED: USER    
DOCKED: USER    (1) Final Intermolecular Energy     =   -9.58 kcal/mol
DOCKED: USER        vdW + Hbond + desolv Energy     =   -6.47 kcal/mol
DOCKED: USER        Electrostatic Energy            =   -3.10 kcal/mol
DOCKED: USER    (2) Final Total Internal Energy     =   -2.22 kcal/mol
DOCKED: USER    (3) Torsional Free Energy           =   +3.58 kcal/mol
DOCKED: USER    (4) Unbound System's Energy  [=(2)] =   -2.22 kcal/mol
DOCKED: USER    
DOCKED: USER    
DOCKED: USER    NEWDPF move heme_Co_opt.pdbqt
DOCKED: USER    NEWDPF about 8.781000 34.984000 -0.736000
DOCKED: USER    NEWDPF tran0 -13.872914 7.922013 -3.056496
DOCKED: USER    NEWDPF quaternion0 0.869747 0.101071 -0.442868 0.192854
DOCKED: USER    NEWDPF axisangle0 0.886387 0.103005 -0.451340 157.761193
DOCKED: USER    NEWDPF quat0 0.886387 0.103005 -0.451340 157.761193
DOCKED: USER    NEWDPF dihe0 31.31 110.60 161.62 123.35 -10.00 100.74 -155.15 -101.63 -35.16 112.12 173.17 179.84 
DOCKED: USER  keepresnum = 1 
DOCKED: USER  
DOCKED: REMARK  12 active torsions:
DOCKED: REMARK  status: ('A' for Active; 'I' for Inactive)
DOCKED: REMARK    1  A    between atoms: C_6  and  C_10 
DOCKED: REMARK    2  A    between atoms: C_10  and  C_11 
DOCKED: REMARK    3  A    between atoms: C_11  and  C_12 
DOCKED: REMARK    4  A    between atoms: C_12  and  O_14 
DOCKED: REMARK    5  A    between atoms: C_17  and  C_20 
DOCKED: REMARK    6  A    between atoms: C_24  and  C_27 
DOCKED: REMARK    7  A    between atoms: C_31  and  C_34 
DOCKED: REMARK    8  A    between atoms: C_34  and  C_35 
DOCKED: REMARK    9  A    between atoms: C_35  and  C_36 
DOCKED: REMARK   10  A    between atoms: C_36  and  O_38 
DOCKED: REMARK   11  A    between atoms: FE_43  and  C_44 
DOCKED: REMARK   12  A    between atoms: C_44  and  O_45 
DOCKED: USER                              x       y       z     vdW  Elec       q    Type
DOCKED: USER                           _______ _______ _______ _____ _____    ______ ____
DOCKED: ROOT
DOCKED: ATOM      1  C   UNL d   1     -14.319   6.591  -1.400 -0.26 +0.03    +0.064 A 
DOCKED: ATOM      2  C   UNL d   1     -16.616  10.353  -3.182 -0.09 +0.00    +0.064 C 
DOCKED: ATOM      3  C   UNL d   1     -13.023  11.151  -6.229 -0.15 -0.01    +0.064 A 
DOCKED: ATOM      4  C   UNL d   1     -10.834   7.088  -4.691 -0.27 -0.02    +0.064 A 
DOCKED: ATOM      5  C   UNL d   1     -15.194   7.581  -1.638 -0.20 +0.02    +0.066 A 
DOCKED: ATOM      6  C   UNL d   1     -16.437   7.655  -0.980 -0.17 -0.01    -0.021 A 
DOCKED: ATOM      7  C   UNL d   1     -17.109   8.736  -1.517 -0.10 -0.00    -0.025 A 
DOCKED: ATOM      8  C   UNL d   1     -16.241   9.284  -2.468 -0.11 +0.01    +0.066 A 
DOCKED: ATOM      9  C   UNL d   1     -18.514   9.244  -1.160 -0.05 +0.00    +0.051 C 
DOCKED: ATOM     10  C   UNL d   1     -15.781  11.002  -4.163 -0.08 +0.00    +0.066 A 
DOCKED: ATOM     11  C   UNL d   1     -16.060  12.207  -4.844 -0.07 +0.00    -0.021 A 
DOCKED: ATOM     12  C   UNL d   1     -14.994  12.418  -5.723 -0.09 -0.00    +0.000 A 
DOCKED: ATOM     13  C   UNL d   1     -14.140  11.336  -5.505 -0.11 -0.00    +0.070 A 
DOCKED: ATOM     14  C   UNL d   1     -17.225  13.128  -4.586 -0.03 -0.00    +0.052 C 
DOCKED: ATOM     15  C   UNL d   1     -12.060  10.068  -6.174 -0.21 -0.01    +0.066 A 
DOCKED: ATOM     16  C   UNL d   1     -11.003   9.861  -7.049 -0.27 +0.00    -0.021 A 
DOCKED: ATOM     17  C   UNL d   1     -10.370   8.689  -6.612 -0.30 -0.00    +0.000 A 
DOCKED: ATOM     18  C   UNL d   1     -11.083   8.282  -5.489 -0.27 -0.02    +0.070 A 
DOCKED: ATOM     19  C   UNL d   1     -10.650  10.748  -8.223 -0.27 -0.01    +0.052 C 
DOCKED: ATOM     20  C   UNL d   1     -11.565   6.625  -3.649 -0.23 -0.00    +0.066 A 
DOCKED: ATOM     21  C   UNL d   1     -11.246   5.444  -2.983 -0.23 -0.00    -0.025 A 
DOCKED: ATOM     22  C   UNL d   1     -12.217   5.290  -2.010 -0.24 -0.01    -0.021 A 
DOCKED: ATOM     23  C   UNL d   1     -13.094   6.388  -2.139 -0.25 +0.02    +0.066 A 
DOCKED: ATOM     24  C   UNL d   1     -10.084   4.497  -3.272 -0.30 -0.01    +0.051 C 
DOCKED: ATOM     25  N   UNL d   1     -15.045   8.593  -2.560 -0.03 -0.03    -0.248 N 
DOCKED: ATOM     26  N   UNL d   1     -14.590  10.511  -4.522 -0.04 -0.00    -0.248 N 
DOCKED: ATOM     27  N   UNL d   1     -12.100   9.110  -5.276 -0.14 +0.03    -0.248 N 
DOCKED: ATOM     28  N   UNL d   1     -12.704   7.197  -3.132 -0.15 -0.02    -0.248 N 
DOCKED: ATOM     29 FE   UNL d   1     -13.483   8.864  -3.997 -0.05 +0.00    +0.000 Fe
DOCKED: ENDROOT
DOCKED: BRANCH   6  30
DOCKED: ATOM     30  C   UNL d   1     -16.976   6.677   0.058 -0.19 +0.03    +0.052 C 
DOCKED: BRANCH  30  31
DOCKED: ATOM     31  C   UNL d   1     -18.009   5.742  -0.570 -0.11 +0.08    +0.115 C 
DOCKED: BRANCH  31  32
DOCKED: ATOM     32  C   UNL d   1     -17.925   4.335  -0.020 +0.01 +0.18    +0.139 C 
DOCKED: ATOM     33  O   UNL d   1     -18.361   4.100   1.097 -0.05 -1.02    -0.650 OA
DOCKED: BRANCH  32  34
DOCKED: ATOM     34  O   UNL d   1     -17.423   3.309  -0.745 -0.09 -1.34    -0.776 OA
DOCKED: ATOM     35  H   UNL d   1     -16.769   3.410  -1.451 +0.01 +0.29    +0.167 HD
DOCKED: ENDBRANCH  32  34
DOCKED: ENDBRANCH  31  32
DOCKED: ENDBRANCH  30  31
DOCKED: ENDBRANCH   6  30
DOCKED: BRANCH  29  36
DOCKED: ATOM     36  C   UNL d   1     -14.628   7.683  -5.297 -0.04 +0.00    +0.190 C 
DOCKED: BRANCH  36  37
DOCKED: ATOM     37  O   UNL d   1     -15.272   6.445  -5.403 +0.00 -0.03    -0.399 OA
DOCKED: ATOM     38  H   UNL d   1     -15.067   5.976  -4.546 +0.03 +0.03    +0.209 HD
DOCKED: ENDBRANCH  36  37
DOCKED: ENDBRANCH  29  36
DOCKED: BRANCH  22  39
DOCKED: ATOM     39  C   UNL d   1     -12.327   4.116  -1.055 -0.25 +0.04    +0.052 C 
DOCKED: BRANCH  39  40
DOCKED: ATOM     40  C   UNL d   1     -12.956   2.902  -1.758 -0.12 +0.12    +0.115 C 
DOCKED: BRANCH  40  41
DOCKED: ATOM     41  C   UNL d   1     -14.444   3.027  -2.008 +0.14 +0.20    +0.139 C 
DOCKED: ATOM     42  O   UNL d   1     -14.911   4.118  -2.305 -0.29 -0.69    -0.650 OA
DOCKED: BRANCH  41  43
DOCKED: ATOM     43  O   UNL d   1     -15.259   1.949  -1.998 -0.01 -1.19    -0.776 OA
DOCKED: ATOM     44  H   UNL d   1     -16.222   2.026  -1.987 +0.01 +0.24    +0.167 HD
DOCKED: ENDBRANCH  41  43
DOCKED: ENDBRANCH  40  41
DOCKED: ENDBRANCH  39  40
DOCKED: ENDBRANCH  22  39
DOCKED: BRANCH  12  45
DOCKED: ATOM     45  C   UNL d   1     -14.676  13.520  -6.724 -0.06 -0.00    +0.004 C 
DOCKED: ATOM     46  C   UNL d   1     -13.690  14.413  -6.745 -0.09 -0.00    +0.012 C 
DOCKED: ENDBRANCH  12  45
DOCKED: BRANCH  17  47
DOCKED: ATOM     47  C   UNL d   1      -9.216   7.950  -7.204 -0.22 -0.00    +0.004 C 
DOCKED: ATOM     48  C   UNL d   1      -8.961   7.909  -8.514 -0.37 -0.01    +0.012 C 
DOCKED: ENDBRANCH  17  47
DOCKED: TORSDOF 12
DOCKED: TER
DOCKED: ENDMDL
________________________________________________________________________________


	BEGINNING GENETIC ALGORITHM DOCKING 75 of 100
Run: 75 Seed: 1619529072 1865028567 [ Run 75 of 100 GA/GALS ]
Beginning LAMARCKIAN GENETIC ALGORITHM (LGA), with a maximum of 25000000 energy evaluations.

Final-Value: -9.528


	FINAL GENETIC ALGORITHM DOCKED STATE
	_______________________________________________


Detailed state:  trans -7.300 -9.326 18.378 quatxyzw 0.301009 -0.041138 0.709792 -0.635528 center 8.781 34.984 -0.736 ntor 12 -134.4766 112.0935 137.4777 116.6667 -99.5348 96.2687 -132.3397 -31.5256 -141.0996 -163.6652 -0.9892 165.7921
State:	 -7.300  -9.326  18.378   0.390 -0.053  0.919 -101.082   -134.48  112.09  137.48  116.67  -99.53   96.27 -132.34  -31.53 -141.10 -163.67   -0.99  165.79

DOCKED: MODEL       75
DOCKED: USER    Run = 75
DOCKED: USER    DPF = D:/Protein_go_brrr/autodock/final/AncMH_nat/heme_Co/dock.dpf
DOCKED: USER  
DOCKED: USER    Estimated Free Energy of Binding    =   -3.73 kcal/mol  [=(1)+(2)+(3)-(4)]
DOCKED: USER    Estimated Inhibition Constant, Ki   =    1.84 mM (millimolar)  [Temperature = 298.15 K]
DOCKED: USER    
DOCKED: USER    (1) Final Intermolecular Energy     =   -7.31 kcal/mol
DOCKED: USER        vdW + Hbond + desolv Energy     =   -7.25 kcal/mol
DOCKED: USER        Electrostatic Energy            =   -0.06 kcal/mol
DOCKED: USER    (2) Final Total Internal Energy     =   -2.22 kcal/mol
DOCKED: USER    (3) Torsional Free Energy           =   +3.58 kcal/mol
DOCKED: USER    (4) Unbound System's Energy  [=(2)] =   -2.22 kcal/mol
DOCKED: USER    
DOCKED: USER    
DOCKED: USER    NEWDPF move heme_Co_opt.pdbqt
DOCKED: USER    NEWDPF about 8.781000 34.984000 -0.736000
DOCKED: USER    NEWDPF tran0 -7.300455 -9.326454 18.377907
DOCKED: USER    NEWDPF quaternion0 0.301009 -0.041138 0.709792 -0.635528
DOCKED: USER    NEWDPF axisangle0 0.389869 -0.053283 0.919327 -101.081672
DOCKED: USER    NEWDPF quat0 0.389869 -0.053283 0.919327 -101.081672
DOCKED: USER    NEWDPF dihe0 -134.48 112.09 137.48 116.67 -99.53 96.27 -132.34 -31.53 -141.10 -163.67 -0.99 165.79 
DOCKED: USER  keepresnum = 1 
DOCKED: USER  
DOCKED: REMARK  12 active torsions:
DOCKED: REMARK  status: ('A' for Active; 'I' for Inactive)
DOCKED: REMARK    1  A    between atoms: C_6  and  C_10 
DOCKED: REMARK    2  A    between atoms: C_10  and  C_11 
DOCKED: REMARK    3  A    between atoms: C_11  and  C_12 
DOCKED: REMARK    4  A    between atoms: C_12  and  O_14 
DOCKED: REMARK    5  A    between atoms: C_17  and  C_20 
DOCKED: REMARK    6  A    between atoms: C_24  and  C_27 
DOCKED: REMARK    7  A    between atoms: C_31  and  C_34 
DOCKED: REMARK    8  A    between atoms: C_34  and  C_35 
DOCKED: REMARK    9  A    between atoms: C_35  and  C_36 
DOCKED: REMARK   10  A    between atoms: C_36  and  O_38 
DOCKED: REMARK   11  A    between atoms: FE_43  and  C_44 
DOCKED: REMARK   12  A    between atoms: C_44  and  O_45 
DOCKED: USER                              x       y       z     vdW  Elec       q    Type
DOCKED: USER                           _______ _______ _______ _____ _____    ______ ____
DOCKED: ROOT
DOCKED: ATOM      1  C   UNL d   1      -8.060 -10.744  16.919 -0.26 +0.02    +0.064 A 
DOCKED: ATOM      2  C   UNL d   1      -4.208 -10.784  19.706 -0.05 -0.00    +0.064 C 
DOCKED: ATOM      3  C   UNL d   1      -5.214  -6.367  21.224 -0.14 -0.01    +0.064 A 
DOCKED: ATOM      4  C   UNL d   1      -9.360  -6.451  18.681 -0.28 +0.00    +0.064 A 
DOCKED: ATOM      5  C   UNL d   1      -6.914 -11.065  17.541 -0.21 +0.01    +0.066 A 
DOCKED: ATOM      6  C   UNL d   1      -6.322 -12.336  17.406 -0.16 -0.00    -0.021 A 
DOCKED: ATOM      7  C   UNL d   1      -5.217 -12.350  18.235 -0.12 -0.00    -0.025 A 
DOCKED: ATOM      8  C   UNL d   1      -5.173 -11.082  18.826 -0.05 -0.00    +0.066 A 
DOCKED: ATOM      9  C   UNL d   1      -4.231 -13.504  18.472 -0.08 -0.00    +0.051 C 
DOCKED: ATOM     10  C   UNL d   1      -4.067  -9.499  20.344 -0.06 -0.01    +0.066 A 
DOCKED: ATOM     11  C   UNL d   1      -2.999  -9.078  21.166 -0.10 +0.00    -0.021 A 
DOCKED: ATOM     12  C   UNL d   1      -3.317  -7.785  21.592 -0.13 -0.00    +0.000 A 
DOCKED: ATOM     13  C   UNL d   1      -4.544  -7.509  20.990 -0.18 -0.02    +0.070 A 
DOCKED: ATOM     14  C   UNL d   1      -1.726  -9.839  21.435 -0.08 -0.01    +0.052 C 
DOCKED: ATOM     15  C   UNL d   1      -6.510  -5.943  20.731 -0.15 -0.01    +0.066 A 
DOCKED: ATOM     16  C   UNL d   1      -7.211  -4.812  21.127 -0.15 +0.00    -0.021 A 
DOCKED: ATOM     17  C   UNL d   1      -8.409  -4.834  20.398 -0.24 -0.00    +0.000 A 
DOCKED: ATOM     18  C   UNL d   1      -8.336  -5.970  19.600 -0.25 -0.00    +0.070 A 
DOCKED: ATOM     19  C   UNL d   1      -6.737  -3.797  22.142 -0.09 -0.01    +0.052 C 
DOCKED: ATOM     20  C   UNL d   1      -9.349  -7.598  17.960 -0.31 +0.00    +0.066 A 
DOCKED: ATOM     21  C   UNL d   1     -10.411  -7.970  17.139 -0.34 -0.01    -0.025 A 
DOCKED: ATOM     22  C   UNL d   1     -10.051  -9.190  16.595 -0.35 -0.01    -0.021 A 
DOCKED: ATOM     23  C   UNL d   1      -8.783  -9.509  17.125 -0.28 +0.01    +0.066 A 
DOCKED: ATOM     24  C   UNL d   1     -11.713  -7.211  16.898 -0.21 +0.02    +0.051 C 
DOCKED: ATOM     25  N   UNL d   1      -6.209 -10.264  18.410 -0.12 -0.01    -0.248 N 
DOCKED: ATOM     26  N   UNL d   1      -4.970  -8.524  20.191 -0.16 +0.04    -0.248 N 
DOCKED: ATOM     27  N   UNL d   1      -7.205  -6.622  19.847 -0.14 +0.02    -0.248 N 
DOCKED: ATOM     28  N   UNL d   1      -8.356  -8.550  17.954 -0.18 -0.00    -0.248 N 
DOCKED: ATOM     29 FE   UNL d   1      -6.739  -8.335  19.169 -0.05 -0.00    +0.000 Fe
DOCKED: ENDROOT
DOCKED: BRANCH   6  30
DOCKED: ATOM     30  C   UNL d   1      -6.850 -13.503  16.579 -0.25 +0.02    +0.052 C 
DOCKED: BRANCH  30  31
DOCKED: ATOM     31  C   UNL d   1      -6.428 -13.359  15.117 -0.28 +0.08    +0.115 C 
DOCKED: BRANCH  31  32
DOCKED: ATOM     32  C   UNL d   1      -5.036 -12.785  14.972 -0.37 +0.03    +0.139 C 
DOCKED: ATOM     33  O   UNL d   1      -4.092 -13.538  14.786 -0.00 +0.04    -0.650 OA
DOCKED: BRANCH  32  34
DOCKED: ATOM     34  O   UNL d   1      -4.803 -11.452  14.993 +0.08 -0.09    -0.776 OA
DOCKED: ATOM     35  H   UNL d   1      -4.185 -10.999  14.403 -0.39 -0.05    +0.167 HD
DOCKED: ENDBRANCH  32  34
DOCKED: ENDBRANCH  31  32
DOCKED: ENDBRANCH  30  31
DOCKED: ENDBRANCH   6  30
DOCKED: BRANCH  29  36
DOCKED: ATOM     36  C   UNL d   1      -7.737  -9.341  20.713 -0.04 -0.01    +0.190 C 
DOCKED: BRANCH  36  37
DOCKED: ATOM     37  O   UNL d   1      -8.749 -10.273  20.964 +0.00 -0.00    -0.399 OA
DOCKED: ATOM     38  H   UNL d   1      -9.108 -10.512  20.064 +0.03 +0.01    +0.209 HD
DOCKED: ENDBRANCH  36  37
DOCKED: ENDBRANCH  29  36
DOCKED: BRANCH  22  39
DOCKED: ATOM     39  C   UNL d   1     -10.912 -10.027  15.668 -0.46 +0.03    +0.052 C 
DOCKED: BRANCH  39  40
DOCKED: ATOM     40  C   UNL d   1     -11.740 -11.046  16.469 -0.12 +0.03    +0.115 C 
DOCKED: BRANCH  40  41
DOCKED: ATOM     41  C   UNL d   1     -11.719 -10.827  17.968 -0.15 +0.02    +0.139 C 
DOCKED: ATOM     42  O   UNL d   1     -12.713 -10.377  18.520 +0.01 -0.15    -0.650 OA
DOCKED: BRANCH  41  43
DOCKED: ATOM     43  O   UNL d   1     -10.663 -11.198  18.725 +0.08 -0.08    -0.776 OA
DOCKED: ATOM     44  H   UNL d   1     -10.366 -10.685  19.488 +0.03 +0.01    +0.167 HD
DOCKED: ENDBRANCH  41  43
DOCKED: ENDBRANCH  40  41
DOCKED: ENDBRANCH  39  40
DOCKED: ENDBRANCH  22  39
DOCKED: BRANCH  12  45
DOCKED: ATOM     45  C   UNL d   1      -2.596  -6.777  22.478 -0.07 -0.00    +0.004 C 
DOCKED: ATOM     46  C   UNL d   1      -1.981  -5.638  22.170 -0.09 -0.00    +0.012 C 
DOCKED: ENDBRANCH  12  45
DOCKED: BRANCH  17  47
DOCKED: ATOM     47  C   UNL d   1      -9.578  -3.906  20.456 -0.18 -0.00    +0.004 C 
DOCKED: ATOM     48  C   UNL d   1     -10.818  -4.300  20.753 -0.16 -0.00    +0.012 C 
DOCKED: ENDBRANCH  17  47
DOCKED: TORSDOF 12
DOCKED: TER
DOCKED: ENDMDL
________________________________________________________________________________


	BEGINNING GENETIC ALGORITHM DOCKING 76 of 100
Run: 76 Seed: 1790840956 1923806172 [ Run 76 of 100 GA/GALS ]
Beginning LAMARCKIAN GENETIC ALGORITHM (LGA), with a maximum of 25000000 energy evaluations.

Final-Value: -10.534


	FINAL GENETIC ALGORITHM DOCKED STATE
	_______________________________________________


Detailed state:  trans -14.319 8.553 -2.855 quatxyzw -0.857589 -0.129942 0.469150 -0.165996 center 8.781 34.984 -0.736 ntor 12 -53.3132 109.0890 18.5394 116.6887 -93.3863 124.1775 -95.7677 -114.2502 -79.9559 -9.6099 175.5157 180.0000
State:	-14.319   8.553  -2.855  -0.870 -0.132  0.476 -160.890    -53.31  109.09   18.54  116.69  -93.39  124.18  -95.77 -114.25  -79.96   -9.61  175.52  180.00

DOCKED: MODEL       76
DOCKED: USER    Run = 76
DOCKED: USER    DPF = D:/Protein_go_brrr/autodock/final/AncMH_nat/heme_Co/dock.dpf
DOCKED: USER  
DOCKED: USER    Estimated Free Energy of Binding    =   -6.24 kcal/mol  [=(1)+(2)+(3)-(4)]
DOCKED: USER    Estimated Inhibition Constant, Ki   =   26.83 uM (micromolar)  [Temperature = 298.15 K]
DOCKED: USER    
DOCKED: USER    (1) Final Intermolecular Energy     =   -9.82 kcal/mol
DOCKED: USER        vdW + Hbond + desolv Energy     =   -6.74 kcal/mol
DOCKED: USER        Electrostatic Energy            =   -3.08 kcal/mol
DOCKED: USER    (2) Final Total Internal Energy     =   -0.72 kcal/mol
DOCKED: USER    (3) Torsional Free Energy           =   +3.58 kcal/mol
DOCKED: USER    (4) Unbound System's Energy  [=(2)] =   -0.72 kcal/mol
DOCKED: USER    
DOCKED: USER    
DOCKED: USER    NEWDPF move heme_Co_opt.pdbqt
DOCKED: USER    NEWDPF about 8.781000 34.984000 -0.736000
DOCKED: USER    NEWDPF tran0 -14.318578 8.552543 -2.855380
DOCKED: USER    NEWDPF quaternion0 -0.857589 -0.129942 0.469150 -0.165996
DOCKED: USER    NEWDPF axisangle0 -0.869654 -0.131770 0.475750 -160.889800
DOCKED: USER    NEWDPF quat0 -0.869654 -0.131770 0.475750 -160.889800
DOCKED: USER    NEWDPF dihe0 -53.31 109.09 18.54 116.69 -93.39 124.18 -95.77 -114.25 -79.96 -9.61 175.52 180.00 
DOCKED: USER  keepresnum = 1 
DOCKED: USER  
DOCKED: REMARK  12 active torsions:
DOCKED: REMARK  status: ('A' for Active; 'I' for Inactive)
DOCKED: REMARK    1  A    between atoms: C_6  and  C_10 
DOCKED: REMARK    2  A    between atoms: C_10  and  C_11 
DOCKED: REMARK    3  A    between atoms: C_11  and  C_12 
DOCKED: REMARK    4  A    between atoms: C_12  and  O_14 
DOCKED: REMARK    5  A    between atoms: C_17  and  C_20 
DOCKED: REMARK    6  A    between atoms: C_24  and  C_27 
DOCKED: REMARK    7  A    between atoms: C_31  and  C_34 
DOCKED: REMARK    8  A    between atoms: C_34  and  C_35 
DOCKED: REMARK    9  A    between atoms: C_35  and  C_36 
DOCKED: REMARK   10  A    between atoms: C_36  and  O_38 
DOCKED: REMARK   11  A    between atoms: FE_43  and  C_44 
DOCKED: REMARK   12  A    between atoms: C_44  and  O_45 
DOCKED: USER                              x       y       z     vdW  Elec       q    Type
DOCKED: USER                           _______ _______ _______ _____ _____    ______ ____
DOCKED: ROOT
DOCKED: ATOM      1  C   UNL d   1     -14.582   7.227  -1.156 -0.28 +0.02    +0.064 A 
DOCKED: ATOM      2  C   UNL d   1     -17.265  10.735  -2.918 -0.07 -0.00    +0.064 C 
DOCKED: ATOM      3  C   UNL d   1     -13.876  11.767  -6.124 -0.12 -0.00    +0.064 A 
DOCKED: ATOM      4  C   UNL d   1     -11.285   7.945  -4.595 -0.29 -0.01    +0.064 A 
DOCKED: ATOM      5  C   UNL d   1     -15.549   8.133  -1.378 -0.20 +0.01    +0.066 A 
DOCKED: ATOM      6  C   UNL d   1     -16.767   8.115  -0.671 -0.16 -0.00    -0.021 A 
DOCKED: ATOM      7  C   UNL d   1     -17.550   9.121  -1.202 -0.08 -0.00    -0.025 A 
DOCKED: ATOM      8  C   UNL d   1     -16.772   9.719  -2.198 -0.10 +0.00    +0.066 A 
DOCKED: ATOM      9  C   UNL d   1     -18.979   9.515  -0.798 -0.04 +0.00    +0.051 C 
DOCKED: ATOM     10  C   UNL d   1     -16.529  11.430  -3.944 -0.07 -0.00    +0.066 A 
DOCKED: ATOM     11  C   UNL d   1     -16.938  12.590  -4.637 -0.04 +0.00    -0.021 A 
DOCKED: ATOM     12  C   UNL d   1     -15.929  12.871  -5.563 -0.05 -0.00    +0.000 A 
DOCKED: ATOM     13  C   UNL d   1     -14.977  11.872  -5.359 -0.09 -0.00    +0.070 A 
DOCKED: ATOM     14  C   UNL d   1     -18.167  13.413  -4.351 -0.01 -0.00    +0.052 C 
DOCKED: ATOM     15  C   UNL d   1     -12.822  10.773  -6.087 -0.16 -0.01    +0.066 A 
DOCKED: ATOM     16  C   UNL d   1     -11.786  10.637  -7.000 -0.21 +0.00    -0.021 A 
DOCKED: ATOM     17  C   UNL d   1     -11.037   9.535  -6.565 -0.30 -0.00    +0.000 A 
DOCKED: ATOM     18  C   UNL d   1     -11.668   9.094  -5.406 -0.21 -0.01    +0.070 A 
DOCKED: ATOM     19  C   UNL d   1     -11.557  11.523  -8.205 -0.18 -0.01    +0.052 C 
DOCKED: ATOM     20  C   UNL d   1     -11.932   7.446  -3.515 -0.26 -0.00    +0.066 A 
DOCKED: ATOM     21  C   UNL d   1     -11.485   6.312  -2.839 -0.30 -0.00    -0.025 A 
DOCKED: ATOM     22  C   UNL d   1     -12.400   6.098  -1.825 -0.32 -0.01    -0.021 A 
DOCKED: ATOM     23  C   UNL d   1     -13.374   7.113  -1.940 -0.28 +0.01    +0.066 A 
DOCKED: ATOM     24  C   UNL d   1     -10.258   5.462  -3.156 -0.34 -0.01    +0.051 C 
DOCKED: ATOM     25  N   UNL d   1     -15.524   9.131  -2.325 -0.03 -0.02    -0.248 N 
DOCKED: ATOM     26  N   UNL d   1     -15.315  11.035  -4.342 -0.06 -0.00    -0.248 N 
DOCKED: ATOM     27  N   UNL d   1     -12.744   9.836  -5.169 -0.01 +0.02    -0.248 N 
DOCKED: ATOM     28  N   UNL d   1     -13.095   7.929  -2.964 -0.13 -0.02    -0.248 N 
DOCKED: ATOM     29 FE   UNL d   1     -14.049   9.502  -3.830 -0.05 +0.00    +0.000 Fe
DOCKED: ENDROOT
DOCKED: BRANCH   6  30
DOCKED: ATOM     30  C   UNL d   1     -17.178   7.118   0.408 -0.20 +0.03    +0.052 C 
DOCKED: BRANCH  30  31
DOCKED: ATOM     31  C   UNL d   1     -18.104   6.050  -0.173 -0.12 +0.08    +0.115 C 
DOCKED: BRANCH  31  32
DOCKED: ATOM     32  C   UNL d   1     -17.367   4.775  -0.521 -0.04 +0.17    +0.139 C 
DOCKED: ATOM     33  O   UNL d   1     -17.845   3.697  -0.199 -0.00 -1.02    -0.650 OA
DOCKED: BRANCH  32  34
DOCKED: ATOM     34  O   UNL d   1     -16.210   4.783  -1.224 -0.47 -1.08    -0.776 OA
DOCKED: ATOM     35  H   UNL d   1     -16.112   5.171  -2.105 +0.02 +0.13    +0.167 HD
DOCKED: ENDBRANCH  32  34
DOCKED: ENDBRANCH  31  32
DOCKED: ENDBRANCH  30  31
DOCKED: ENDBRANCH   6  30
DOCKED: BRANCH  29  36
DOCKED: ATOM     36  C   UNL d   1     -15.137   8.197  -5.058 -0.05 +0.01    +0.190 C 
DOCKED: BRANCH  36  37
DOCKED: ATOM     37  O   UNL d   1     -15.964   7.069  -5.029 -0.00 -0.04    -0.399 OA
DOCKED: ATOM     38  H   UNL d   1     -15.985   6.791  -4.071 +0.02 +0.04    +0.209 HD
DOCKED: ENDBRANCH  36  37
DOCKED: ENDBRANCH  29  36
DOCKED: BRANCH  22  39
DOCKED: ATOM     39  C   UNL d   1     -12.371   4.942  -0.843 -0.31 +0.03    +0.052 C 
DOCKED: BRANCH  39  40
DOCKED: ATOM     40  C   UNL d   1     -12.915   3.661  -1.496 -0.17 +0.11    +0.115 C 
DOCKED: BRANCH  40  41
DOCKED: ATOM     41  C   UNL d   1     -12.597   2.389  -0.738 +0.18 +0.19    +0.139 C 
DOCKED: ATOM     42  O   UNL d   1     -12.366   2.450   0.462 -0.54 -1.04    -0.650 OA
DOCKED: BRANCH  41  43
DOCKED: ATOM     43  O   UNL d   1     -12.647   1.177  -1.332 +0.04 -0.76    -0.776 OA
DOCKED: ATOM     44  H   UNL d   1     -12.534   1.060  -2.285 +0.06 +0.11    +0.167 HD
DOCKED: ENDBRANCH  41  43
DOCKED: ENDBRANCH  40  41
DOCKED: ENDBRANCH  39  40
DOCKED: ENDBRANCH  22  39
DOCKED: BRANCH  12  45
DOCKED: ATOM     45  C   UNL d   1     -15.748  13.973  -6.598 -0.03 -0.00    +0.004 C 
DOCKED: ATOM     46  C   UNL d   1     -14.919  15.014  -6.619 -0.04 +0.00    +0.012 C 
DOCKED: ENDBRANCH  12  45
DOCKED: BRANCH  17  47
DOCKED: ATOM     47  C   UNL d   1      -9.847   8.883  -7.189 -0.33 -0.00    +0.004 C 
DOCKED: ATOM     48  C   UNL d   1      -9.854   7.636  -7.664 -0.32 -0.01    +0.012 C 
DOCKED: ENDBRANCH  17  47
DOCKED: TORSDOF 12
DOCKED: TER
DOCKED: ENDMDL
________________________________________________________________________________


	BEGINNING GENETIC ALGORITHM DOCKING 77 of 100
Run: 77 Seed: 1634132843 1158324430 [ Run 77 of 100 GA/GALS ]
Beginning LAMARCKIAN GENETIC ALGORITHM (LGA), with a maximum of 25000000 energy evaluations.

Final-Value: -12.227


	FINAL GENETIC ALGORITHM DOCKED STATE
	_______________________________________________


Detailed state:  trans -15.097 -1.036 -1.588 quatxyzw -0.386146 0.251781 0.269304 -0.845561 center 8.781 34.984 -0.736 ntor 12 38.0991 142.7307 137.7837 36.3445 96.9161 92.6440 18.6435 -28.2166 172.7340 -177.9558 -174.4741 166.3546
State:	-15.097  -1.036  -1.588  -0.723  0.472  0.504 -64.536     38.10  142.73  137.78   36.34   96.92   92.64   18.64  -28.22  172.73 -177.96 -174.47  166.35

DOCKED: MODEL       77
DOCKED: USER    Run = 77
DOCKED: USER    DPF = D:/Protein_go_brrr/autodock/final/AncMH_nat/heme_Co/dock.dpf
DOCKED: USER  
DOCKED: USER    Estimated Free Energy of Binding    =   -5.46 kcal/mol  [=(1)+(2)+(3)-(4)]
DOCKED: USER    Estimated Inhibition Constant, Ki   =   99.07 uM (micromolar)  [Temperature = 298.15 K]
DOCKED: USER    
DOCKED: USER    (1) Final Intermolecular Energy     =   -9.04 kcal/mol
DOCKED: USER        vdW + Hbond + desolv Energy     =   -6.09 kcal/mol
DOCKED: USER        Electrostatic Energy            =   -2.96 kcal/mol
DOCKED: USER    (2) Final Total Internal Energy     =   -3.19 kcal/mol
DOCKED: USER    (3) Torsional Free Energy           =   +3.58 kcal/mol
DOCKED: USER    (4) Unbound System's Energy  [=(2)] =   -3.19 kcal/mol
DOCKED: USER    
DOCKED: USER    
DOCKED: USER    NEWDPF move heme_Co_opt.pdbqt
DOCKED: USER    NEWDPF about 8.781000 34.984000 -0.736000
DOCKED: USER    NEWDPF tran0 -15.096816 -1.036025 -1.588121
DOCKED: USER    NEWDPF quaternion0 -0.386146 0.251781 0.269304 -0.845561
DOCKED: USER    NEWDPF axisangle0 -0.723284 0.471606 0.504428 -64.535892
DOCKED: USER    NEWDPF quat0 -0.723284 0.471606 0.504428 -64.535892
DOCKED: USER    NEWDPF dihe0 38.10 142.73 137.78 36.34 96.92 92.64 18.64 -28.22 172.73 -177.96 -174.47 166.35 
DOCKED: USER  keepresnum = 1 
DOCKED: USER  
DOCKED: REMARK  12 active torsions:
DOCKED: REMARK  status: ('A' for Active; 'I' for Inactive)
DOCKED: REMARK    1  A    between atoms: C_6  and  C_10 
DOCKED: REMARK    2  A    between atoms: C_10  and  C_11 
DOCKED: REMARK    3  A    between atoms: C_11  and  C_12 
DOCKED: REMARK    4  A    between atoms: C_12  and  O_14 
DOCKED: REMARK    5  A    between atoms: C_17  and  C_20 
DOCKED: REMARK    6  A    between atoms: C_24  and  C_27 
DOCKED: REMARK    7  A    between atoms: C_31  and  C_34 
DOCKED: REMARK    8  A    between atoms: C_34  and  C_35 
DOCKED: REMARK    9  A    between atoms: C_35  and  C_36 
DOCKED: REMARK   10  A    between atoms: C_36  and  O_38 
DOCKED: REMARK   11  A    between atoms: FE_43  and  C_44 
DOCKED: REMARK   12  A    between atoms: C_44  and  O_45 
DOCKED: USER                              x       y       z     vdW  Elec       q    Type
DOCKED: USER                           _______ _______ _______ _____ _____    ______ ____
DOCKED: ROOT
DOCKED: ATOM      1  C   UNL d   1     -17.015  -1.934  -1.109 -0.09 +0.07    +0.064 A 
DOCKED: ATOM      2  C   UNL d   1     -13.556  -0.140   1.617 -0.25 +0.08    +0.064 C 
DOCKED: ATOM      3  C   UNL d   1     -10.817   0.536  -2.238 -0.18 +0.02    +0.064 A 
DOCKED: ATOM      4  C   UNL d   1     -14.480  -0.932  -5.083 -0.06 +0.02    +0.064 A 
DOCKED: ATOM      5  C   UNL d   1     -16.257  -1.527  -0.077 -0.13 +0.08    +0.066 A 
DOCKED: ATOM      6  C   UNL d   1     -16.745  -1.502   1.244 -0.11 -0.02    -0.021 A 
DOCKED: ATOM      7  C   UNL d   1     -15.745  -0.960   2.028 -0.17 -0.03    -0.025 A 
DOCKED: ATOM      8  C   UNL d   1     -14.685  -0.692   1.155 -0.17 +0.09    +0.066 A 
DOCKED: ATOM      9  C   UNL d   1     -15.772  -0.696   3.541 -0.02 +0.05    +0.051 C 
DOCKED: ATOM     10  C   UNL d   1     -12.404   0.146   0.800 -0.24 +0.07    +0.066 A 
DOCKED: ATOM     11  C   UNL d   1     -11.142   0.594   1.247 -0.29 -0.01    -0.021 A 
DOCKED: ATOM     12  C   UNL d   1     -10.361   0.779   0.103 -0.35 +0.00    +0.000 A 
DOCKED: ATOM     13  C   UNL d   1     -11.198   0.420  -0.954 -0.24 +0.04    +0.070 A 
DOCKED: ATOM     14  C   UNL d   1     -10.703   0.735   2.682 -0.34 +0.02    +0.052 C 
DOCKED: ATOM     15  C   UNL d   1     -11.566   0.262  -3.449 -0.22 +0.02    +0.066 A 
DOCKED: ATOM     16  C   UNL d   1     -11.163   0.541  -4.747 -0.27 -0.00    -0.021 A 
DOCKED: ATOM     17  C   UNL d   1     -12.217   0.122  -5.571 -0.14 +0.00    +0.000 A 
DOCKED: ATOM     18  C   UNL d   1     -13.177  -0.397  -4.708 -0.10 +0.02    +0.070 A 
DOCKED: ATOM     19  C   UNL d   1      -9.846   1.171  -5.140 -0.18 -0.02    +0.052 C 
DOCKED: ATOM     20  C   UNL d   1     -15.463  -1.362  -4.256 -0.08 +0.04    +0.066 A 
DOCKED: ATOM     21  C   UNL d   1     -16.688  -1.821  -4.734 -0.04 -0.01    -0.025 A 
DOCKED: ATOM     22  C   UNL d   1     -17.429  -2.144  -3.612 -0.06 -0.01    -0.021 A 
DOCKED: ATOM     23  C   UNL d   1     -16.617  -1.853  -2.496 -0.09 +0.06    +0.066 A 
DOCKED: ATOM     24  C   UNL d   1     -17.140  -1.929  -6.188 -0.01 +0.01    +0.051 C 
DOCKED: ATOM     25  N   UNL d   1     -14.973  -1.039  -0.155 -0.13 -0.34    -0.248 N 
DOCKED: ATOM     26  N   UNL d   1     -12.414  -0.015  -0.528 -0.14 -0.23    -0.248 N 
DOCKED: ATOM     27  N   UNL d   1     -12.768  -0.269  -3.450 -0.11 -0.12    -0.248 N 
DOCKED: ATOM     28  N   UNL d   1     -15.427  -1.377  -2.881 -0.10 -0.21    -0.248 N 
DOCKED: ATOM     29 FE   UNL d   1     -13.808  -0.633  -1.902 -0.05 +0.00    +0.000 Fe
DOCKED: ENDROOT
DOCKED: BRANCH   6  30
DOCKED: ATOM     30  C   UNL d   1     -18.141  -1.908   1.707 -0.05 +0.04    +0.052 C 
DOCKED: BRANCH  30  31
DOCKED: ATOM     31  C   UNL d   1     -19.085  -0.707   1.680 -0.05 +0.11    +0.115 C 
DOCKED: BRANCH  31  32
DOCKED: ATOM     32  C   UNL d   1     -18.357   0.595   1.423 -0.11 +0.21    +0.139 C 
DOCKED: ATOM     33  O   UNL d   1     -18.271   1.422   2.319 -0.38 -1.44    -0.650 OA
DOCKED: BRANCH  32  34
DOCKED: ATOM     34  O   UNL d   1     -17.752   0.858   0.242 -0.20 -1.27    -0.776 OA
DOCKED: ATOM     35  H   UNL d   1     -18.078   0.552  -0.616 +0.02 +0.19    +0.167 HD
DOCKED: ENDBRANCH  32  34
DOCKED: ENDBRANCH  31  32
DOCKED: ENDBRANCH  30  31
DOCKED: ENDBRANCH   6  30
DOCKED: BRANCH  29  36
DOCKED: ATOM     36  C   UNL d   1     -14.664   1.281  -1.891 +0.11 +0.26    +0.190 C 
DOCKED: BRANCH  36  37
DOCKED: ATOM     37  O   UNL d   1     -15.884   1.956  -1.992 -0.10 -0.60    -0.399 OA
DOCKED: ATOM     38  H   UNL d   1     -16.560   1.319  -1.626 +0.02 +0.31    +0.209 HD
DOCKED: ENDBRANCH  36  37
DOCKED: ENDBRANCH  29  36
DOCKED: BRANCH  22  39
DOCKED: ATOM     39  C   UNL d   1     -18.862  -2.644  -3.618 -0.02 +0.02    +0.052 C 
DOCKED: BRANCH  39  40
DOCKED: ATOM     40  C   UNL d   1     -19.847  -1.469  -3.490 +0.01 +0.04    +0.115 C 
DOCKED: BRANCH  40  41
DOCKED: ATOM     41  C   UNL d   1     -19.187  -0.119  -3.304 +0.01 +0.06    +0.139 C 
DOCKED: ATOM     42  O   UNL d   1     -19.232   0.699  -4.213 +0.01 -0.21    -0.650 OA
DOCKED: BRANCH  41  43
DOCKED: ATOM     43  O   UNL d   1     -18.625   0.242  -2.129 +0.04 -0.50    -0.776 OA
DOCKED: ATOM     44  H   UNL d   1     -17.824   0.780  -2.081 +0.02 +0.14    +0.167 HD
DOCKED: ENDBRANCH  41  43
DOCKED: ENDBRANCH  40  41
DOCKED: ENDBRANCH  39  40
DOCKED: ENDBRANCH  22  39
DOCKED: BRANCH  12  45
DOCKED: ATOM     45  C   UNL d   1      -8.924   1.233  -0.111 -0.41 +0.00    +0.004 C 
DOCKED: ATOM     46  C   UNL d   1      -7.857   1.129   0.677 -0.48 +0.00    +0.012 C 
DOCKED: ENDBRANCH  12  45
DOCKED: BRANCH  17  47
DOCKED: ATOM     47  C   UNL d   1     -12.372   0.230  -7.052 -0.09 -0.00    +0.004 C 
DOCKED: ATOM     48  C   UNL d   1     -11.724  -0.551  -7.920 -0.12 -0.00    +0.012 C 
DOCKED: ENDBRANCH  17  47
DOCKED: TORSDOF 12
DOCKED: TER
DOCKED: ENDMDL
________________________________________________________________________________


	BEGINNING GENETIC ALGORITHM DOCKING 78 of 100
Run: 78 Seed: 1698812306 543294753 [ Run 78 of 100 GA/GALS ]
Beginning LAMARCKIAN GENETIC ALGORITHM (LGA), with a maximum of 25000000 energy evaluations.

Final-Value: -9.554


	FINAL GENETIC ALGORITHM DOCKED STATE
	_______________________________________________


Detailed state:  trans -6.106 20.854 7.902 quatxyzw -0.224117 0.967166 0.119258 -0.011785 center 8.781 34.984 -0.736 ntor 12 155.0044 111.5881 -6.8423 105.1774 -99.7004 158.1225 86.7408 90.0484 98.5547 -115.0328 -2.7984 -40.3916
State:	 -6.106  20.854   7.902  -0.224  0.967  0.119 -178.650    155.00  111.59   -6.84  105.18  -99.70  158.12   86.74   90.05   98.55 -115.03   -2.80  -40.39

DOCKED: MODEL       78
DOCKED: USER    Run = 78
DOCKED: USER    DPF = D:/Protein_go_brrr/autodock/final/AncMH_nat/heme_Co/dock.dpf
DOCKED: USER  
DOCKED: USER    Estimated Free Energy of Binding    =   -3.71 kcal/mol  [=(1)+(2)+(3)-(4)]
DOCKED: USER    Estimated Inhibition Constant, Ki   =    1.90 mM (millimolar)  [Temperature = 298.15 K]
DOCKED: USER    
DOCKED: USER    (1) Final Intermolecular Energy     =   -7.29 kcal/mol
DOCKED: USER        vdW + Hbond + desolv Energy     =   -4.98 kcal/mol
DOCKED: USER        Electrostatic Energy            =   -2.31 kcal/mol
DOCKED: USER    (2) Final Total Internal Energy     =   -2.26 kcal/mol
DOCKED: USER    (3) Torsional Free Energy           =   +3.58 kcal/mol
DOCKED: USER    (4) Unbound System's Energy  [=(2)] =   -2.26 kcal/mol
DOCKED: USER    
DOCKED: USER    
DOCKED: USER    NEWDPF move heme_Co_opt.pdbqt
DOCKED: USER    NEWDPF about 8.781000 34.984000 -0.736000
DOCKED: USER    NEWDPF tran0 -6.105572 20.853900 7.902290
DOCKED: USER    NEWDPF quaternion0 -0.224117 0.967166 0.119258 -0.011785
DOCKED: USER    NEWDPF axisangle0 -0.224133 0.967233 0.119267 -178.649521
DOCKED: USER    NEWDPF quat0 -0.224133 0.967233 0.119267 -178.649521
DOCKED: USER    NEWDPF dihe0 155.00 111.59 -6.84 105.18 -99.70 158.12 86.74 90.05 98.55 -115.03 -2.80 -40.39 
DOCKED: USER  keepresnum = 1 
DOCKED: USER  
DOCKED: REMARK  12 active torsions:
DOCKED: REMARK  status: ('A' for Active; 'I' for Inactive)
DOCKED: REMARK    1  A    between atoms: C_6  and  C_10 
DOCKED: REMARK    2  A    between atoms: C_10  and  C_11 
DOCKED: REMARK    3  A    between atoms: C_11  and  C_12 
DOCKED: REMARK    4  A    between atoms: C_12  and  O_14 
DOCKED: REMARK    5  A    between atoms: C_17  and  C_20 
DOCKED: REMARK    6  A    between atoms: C_24  and  C_27 
DOCKED: REMARK    7  A    between atoms: C_31  and  C_34 
DOCKED: REMARK    8  A    between atoms: C_34  and  C_35 
DOCKED: REMARK    9  A    between atoms: C_35  and  C_36 
DOCKED: REMARK   10  A    between atoms: C_36  and  O_38 
DOCKED: REMARK   11  A    between atoms: FE_43  and  C_44 
DOCKED: REMARK   12  A    between atoms: C_44  and  O_45 
DOCKED: USER                              x       y       z     vdW  Elec       q    Type
DOCKED: USER                           _______ _______ _______ _____ _____    ______ ____
DOCKED: ROOT
DOCKED: ATOM      1  C   UNL d   1      -4.557  21.921   8.988 -0.08 +0.03    +0.064 A 
DOCKED: ATOM      2  C   UNL d   1      -4.643  19.943   4.665 -0.10 +0.01    +0.064 C 
DOCKED: ATOM      3  C   UNL d   1      -9.018  18.214   5.502 -0.19 -0.01    +0.064 A 
DOCKED: ATOM      4  C   UNL d   1      -9.110  20.548   9.769 -0.18 -0.03    +0.064 A 
DOCKED: ATOM      5  C   UNL d   1      -4.245  21.477   7.759 -0.06 +0.03    +0.066 A 
DOCKED: ATOM      6  C   UNL d   1      -3.045  21.840   7.116 -0.03 -0.01    -0.021 A 
DOCKED: ATOM      7  C   UNL d   1      -3.085  21.282   5.854 -0.03 -0.01    -0.025 A 
DOCKED: ATOM      8  C   UNL d   1      -4.300  20.590   5.786 -0.06 +0.01    +0.066 A 
DOCKED: ATOM      9  C   UNL d   1      -2.030  21.387   4.742 -0.05 +0.01    +0.051 C 
DOCKED: ATOM     10  C   UNL d   1      -5.859  19.184   4.511 -0.10 +0.00    +0.066 A 
DOCKED: ATOM     11  C   UNL d   1      -6.212  18.369   3.413 -0.17 +0.00    -0.021 A 
DOCKED: ATOM     12  C   UNL d   1      -7.490  17.874   3.686 -0.17 -0.00    +0.000 A 
DOCKED: ATOM     13  C   UNL d   1      -7.816  18.411   4.931 -0.12 -0.01    +0.070 A 
DOCKED: ATOM     14  C   UNL d   1      -5.332  18.024   2.239 -0.24 +0.00    +0.052 C 
DOCKED: ATOM     15  C   UNL d   1      -9.539  18.733   6.751 -0.15 -0.02    +0.066 A 
DOCKED: ATOM     16  C   UNL d   1     -10.841  18.609   7.214 -0.17 +0.01    -0.021 A 
DOCKED: ATOM     17  C   UNL d   1     -10.874  19.283   8.443 -0.18 -0.00    +0.000 A 
DOCKED: ATOM     18  C   UNL d   1      -9.579  19.752   8.642 -0.19 -0.03    +0.070 A 
DOCKED: ATOM     19  C   UNL d   1     -11.961  17.887   6.499 -0.16 -0.01    +0.052 C 
DOCKED: ATOM     20  C   UNL d   1      -7.879  21.087   9.941 -0.14 -0.01    +0.066 A 
DOCKED: ATOM     21  C   UNL d   1      -7.558  21.866  11.051 -0.13 +0.00    -0.025 A 
DOCKED: ATOM     22  C   UNL d   1      -6.243  22.252  10.868 -0.10 -0.00    -0.021 A 
DOCKED: ATOM     23  C   UNL d   1      -5.827  21.695   9.639 -0.10 +0.02    +0.066 A 
DOCKED: ATOM     24  C   UNL d   1      -8.465  22.241  12.220 -0.12 -0.01    +0.051 C 
DOCKED: ATOM     25  N   UNL d   1      -5.036  20.689   6.954 -0.05 -0.08    -0.248 N 
DOCKED: ATOM     26  N   UNL d   1      -6.807  19.157   5.454 -0.08 +0.00    -0.248 N 
DOCKED: ATOM     27  N   UNL d   1      -8.819  19.432   7.600 -0.12 +0.07    -0.248 N 
DOCKED: ATOM     28  N   UNL d   1      -6.816  20.992   9.074 -0.09 -0.04    -0.248 N 
DOCKED: ATOM     29 FE   UNL d   1      -7.039  20.024   7.300 -0.03 +0.00    +0.000 Fe
DOCKED: ENDROOT
DOCKED: BRANCH   6  30
DOCKED: ATOM     30  C   UNL d   1      -1.954  22.750   7.672 -0.01 +0.02    +0.052 C 
DOCKED: BRANCH  30  31
DOCKED: ATOM     31  C   UNL d   1      -1.036  21.974   8.616 -0.02 +0.05    +0.115 C 
DOCKED: BRANCH  31  32
DOCKED: ATOM     32  C   UNL d   1      -1.599  21.877  10.018 -0.05 +0.10    +0.139 C 
DOCKED: ATOM     33  O   UNL d   1      -2.111  22.862  10.529 -0.00 -0.30    -0.650 OA
DOCKED: BRANCH  32  34
DOCKED: ATOM     34  O   UNL d   1      -1.597  20.716  10.713 +0.09 -1.24    -0.776 OA
DOCKED: ATOM     35  H   UNL d   1      -1.553  20.661  11.678 -0.00 +0.26    +0.167 HD
DOCKED: ENDBRANCH  32  34
DOCKED: ENDBRANCH  31  32
DOCKED: ENDBRANCH  30  31
DOCKED: ENDBRANCH   6  30
DOCKED: BRANCH  29  36
DOCKED: ATOM     36  C   UNL d   1      -7.667  21.802   6.383 -0.01 +0.01    +0.190 C 
DOCKED: BRANCH  36  37
DOCKED: ATOM     37  O   UNL d   1      -7.196  22.948   5.735 +0.00 -0.02    -0.399 OA
DOCKED: ATOM     38  H   UNL d   1      -6.202  22.861   5.749 +0.01 +0.02    +0.209 HD
DOCKED: ENDBRANCH  36  37
DOCKED: ENDBRANCH  29  36
DOCKED: BRANCH  22  39
DOCKED: ATOM     39  C   UNL d   1      -5.455  23.160  11.793 -0.06 +0.01    +0.052 C 
DOCKED: BRANCH  39  40
DOCKED: ATOM     40  C   UNL d   1      -5.340  22.538  13.195 -0.07 +0.02    +0.115 C 
DOCKED: BRANCH  40  41
DOCKED: ATOM     41  C   UNL d   1      -4.658  21.187  13.225 -0.08 +0.08    +0.139 C 
DOCKED: ATOM     42  O   UNL d   1      -5.178  20.267  13.841 +0.03 -0.29    -0.650 OA
DOCKED: BRANCH  41  43
DOCKED: ATOM     43  O   UNL d   1      -3.534  20.942  12.516 -0.38 -1.13    -0.776 OA
DOCKED: ATOM     44  H   UNL d   1      -3.117  21.611  11.956 +0.00 +0.19    +0.167 HD
DOCKED: ENDBRANCH  41  43
DOCKED: ENDBRANCH  40  41
DOCKED: ENDBRANCH  39  40
DOCKED: ENDBRANCH  22  39
DOCKED: BRANCH  12  45
DOCKED: ATOM     45  C   UNL d   1      -8.428  16.946   2.925 -0.35 +0.00    +0.004 C 
DOCKED: ATOM     46  C   UNL d   1      -8.635  15.637   3.044 -0.53 -0.00    +0.012 C 
DOCKED: ENDBRANCH  12  45
DOCKED: BRANCH  17  47
DOCKED: ATOM     47  C   UNL d   1     -12.022  19.534   9.364 -0.08 -0.00    +0.004 C 
DOCKED: ATOM     48  C   UNL d   1     -12.424  20.754   9.727 -0.08 -0.01    +0.012 C 
DOCKED: ENDBRANCH  17  47
DOCKED: TORSDOF 12
DOCKED: TER
DOCKED: ENDMDL
________________________________________________________________________________


	BEGINNING GENETIC ALGORITHM DOCKING 79 of 100
Run: 79 Seed: 62714122 1282728437 [ Run 79 of 100 GA/GALS ]
Beginning LAMARCKIAN GENETIC ALGORITHM (LGA), with a maximum of 25000000 energy evaluations.

Final-Value: -10.791


	FINAL GENETIC ALGORITHM DOCKED STATE
	_______________________________________________


Detailed state:  trans -17.173 -3.010 5.060 quatxyzw 0.211868 0.654230 -0.004059 0.726002 center 8.781 34.984 -0.736 ntor 12 -46.9332 115.6181 81.6887 117.0387 -179.6665 81.3781 -148.6075 -56.8915 -11.9852 132.4610 -165.2545 -176.9332
State:	-17.173  -3.010   5.060   0.308  0.951 -0.006 86.895    -46.93  115.62   81.69  117.04 -179.67   81.38 -148.61  -56.89  -11.99  132.46 -165.25 -176.93

DOCKED: MODEL       79
DOCKED: USER    Run = 79
DOCKED: USER    DPF = D:/Protein_go_brrr/autodock/final/AncMH_nat/heme_Co/dock.dpf
DOCKED: USER  
DOCKED: USER    Estimated Free Energy of Binding    =   -5.01 kcal/mol  [=(1)+(2)+(3)-(4)]
DOCKED: USER    Estimated Inhibition Constant, Ki   =  214.13 uM (micromolar)  [Temperature = 298.15 K]
DOCKED: USER    
DOCKED: USER    (1) Final Intermolecular Energy     =   -8.59 kcal/mol
DOCKED: USER        vdW + Hbond + desolv Energy     =   -5.79 kcal/mol
DOCKED: USER        Electrostatic Energy            =   -2.79 kcal/mol
DOCKED: USER    (2) Final Total Internal Energy     =   -2.21 kcal/mol
DOCKED: USER    (3) Torsional Free Energy           =   +3.58 kcal/mol
DOCKED: USER    (4) Unbound System's Energy  [=(2)] =   -2.21 kcal/mol
DOCKED: USER    
DOCKED: USER    
DOCKED: USER    NEWDPF move heme_Co_opt.pdbqt
DOCKED: USER    NEWDPF about 8.781000 34.984000 -0.736000
DOCKED: USER    NEWDPF tran0 -17.173364 -3.010500 5.060176
DOCKED: USER    NEWDPF quaternion0 0.211868 0.654230 -0.004059 0.726002
DOCKED: USER    NEWDPF axisangle0 0.308086 0.951340 -0.005903 86.895467
DOCKED: USER    NEWDPF quat0 0.308086 0.951340 -0.005903 86.895467
DOCKED: USER    NEWDPF dihe0 -46.93 115.62 81.69 117.04 -179.67 81.38 -148.61 -56.89 -11.99 132.46 -165.25 -176.93 
DOCKED: USER  keepresnum = 1 
DOCKED: USER  
DOCKED: REMARK  12 active torsions:
DOCKED: REMARK  status: ('A' for Active; 'I' for Inactive)
DOCKED: REMARK    1  A    between atoms: C_6  and  C_10 
DOCKED: REMARK    2  A    between atoms: C_10  and  C_11 
DOCKED: REMARK    3  A    between atoms: C_11  and  C_12 
DOCKED: REMARK    4  A    between atoms: C_12  and  O_14 
DOCKED: REMARK    5  A    between atoms: C_17  and  C_20 
DOCKED: REMARK    6  A    between atoms: C_24  and  C_27 
DOCKED: REMARK    7  A    between atoms: C_31  and  C_34 
DOCKED: REMARK    8  A    between atoms: C_34  and  C_35 
DOCKED: REMARK    9  A    between atoms: C_35  and  C_36 
DOCKED: REMARK   10  A    between atoms: C_36  and  O_38 
DOCKED: REMARK   11  A    between atoms: FE_43  and  C_44 
DOCKED: REMARK   12  A    between atoms: C_44  and  O_45 
DOCKED: USER                              x       y       z     vdW  Elec       q    Type
DOCKED: USER                           _______ _______ _______ _____ _____    ______ ____
DOCKED: ROOT
DOCKED: ATOM      1  C   UNL d   1     -16.508  -3.361   3.023 -0.08 +0.05    +0.064 A 
DOCKED: ATOM      2  C   UNL d   1     -20.603  -4.297   5.252 -0.04 +0.03    +0.064 C 
DOCKED: ATOM      3  C   UNL d   1     -18.743  -2.781   9.384 -0.10 +0.02    +0.064 A 
DOCKED: ATOM      4  C   UNL d   1     -14.682  -1.457   7.056 -0.14 +0.02    +0.064 A 
DOCKED: ATOM      5  C   UNL d   1     -17.751  -3.762   3.336 -0.06 +0.04    +0.066 A 
DOCKED: ATOM      6  C   UNL d   1     -18.658  -4.216   2.358 -0.05 -0.01    -0.021 A 
DOCKED: ATOM      7  C   UNL d   1     -19.852  -4.464   3.007 -0.03 -0.01    -0.025 A 
DOCKED: ATOM      8  C   UNL d   1     -19.617  -4.167   4.354 -0.05 +0.03    +0.066 A 
DOCKED: ATOM      9  C   UNL d   1     -21.171  -4.961   2.396 -0.01 +0.02    +0.051 C 
DOCKED: ATOM     10  C   UNL d   1     -20.448  -4.040   6.662 -0.06 +0.02    +0.066 A 
DOCKED: ATOM     11  C   UNL d   1     -21.400  -4.291   7.674 -0.08 -0.01    -0.021 A 
DOCKED: ATOM     12  C   UNL d   1     -20.830  -3.843   8.869 -0.09 +0.00    +0.000 A 
DOCKED: ATOM     13  C   UNL d   1     -19.572  -3.366   8.501 -0.10 +0.02    +0.070 A 
DOCKED: ATOM     14  C   UNL d   1     -22.719  -4.999   7.503 -0.05 +0.01    +0.052 C 
DOCKED: ATOM     15  C   UNL d   1     -17.438  -2.189   9.167 -0.14 +0.01    +0.066 A 
DOCKED: ATOM     16  C   UNL d   1     -16.696  -1.470  10.094 -0.20 -0.00    -0.021 A 
DOCKED: ATOM     17  C   UNL d   1     -15.525  -1.084   9.427 -0.24 +0.00    +0.000 A 
DOCKED: ATOM     18  C   UNL d   1     -15.638  -1.614   8.146 -0.24 +0.02    +0.070 A 
DOCKED: ATOM     19  C   UNL d   1     -17.111  -1.188  11.521 -0.16 +0.01    +0.052 C 
DOCKED: ATOM     20  C   UNL d   1     -14.810  -1.889   5.779 -0.16 +0.02    +0.066 A 
DOCKED: ATOM     21  C   UNL d   1     -13.838  -1.646   4.811 -0.26 -0.01    -0.025 A 
DOCKED: ATOM     22  C   UNL d   1     -14.324  -2.209   3.645 -0.23 -0.01    -0.021 A 
DOCKED: ATOM     23  C   UNL d   1     -15.584  -2.761   3.959 -0.12 +0.04    +0.066 A 
DOCKED: ATOM     24  C   UNL d   1     -12.520  -0.897   4.983 -0.32 +0.02    +0.051 C 
DOCKED: ATOM     25  N   UNL d   1     -18.323  -3.736   4.587 -0.04 -0.12    -0.248 N 
DOCKED: ATOM     26  N   UNL d   1     -19.321  -3.537   7.176 -0.07 -0.09    -0.248 N 
DOCKED: ATOM     27  N   UNL d   1     -16.803  -2.239   8.018 -0.09 -0.07    -0.248 N 
DOCKED: ATOM     28  N   UNL d   1     -15.883  -2.568   5.249 -0.05 -0.12    -0.248 N 
DOCKED: ATOM     29 FE   UNL d   1     -17.515  -2.943   6.403 -0.03 +0.00    +0.000 Fe
DOCKED: ENDROOT
DOCKED: BRANCH   6  30
DOCKED: ATOM     30  C   UNL d   1     -18.401  -4.322   0.859 -0.07 +0.04    +0.052 C 
DOCKED: BRANCH  30  31
DOCKED: ATOM     31  C   UNL d   1     -18.573  -2.960   0.186 -0.05 +0.09    +0.115 C 
DOCKED: BRANCH  31  32
DOCKED: ATOM     32  C   UNL d   1     -18.011  -2.936  -1.219 -0.06 +0.12    +0.139 C 
DOCKED: ATOM     33  O   UNL d   1     -18.680  -3.376  -2.142 -0.01 -0.43    -0.650 OA
DOCKED: BRANCH  32  34
DOCKED: ATOM     34  O   UNL d   1     -16.802  -2.395  -1.499 +0.01 -0.88    -0.776 OA
DOCKED: ATOM     35  H   UNL d   1     -16.526  -1.510  -1.225 +0.02 +0.18    +0.167 HD
DOCKED: ENDBRANCH  32  34
DOCKED: ENDBRANCH  31  32
DOCKED: ENDBRANCH  30  31
DOCKED: ENDBRANCH   6  30
DOCKED: BRANCH  29  36
DOCKED: ATOM     36  C   UNL d   1     -18.360  -1.107   5.845 -0.10 +0.12    +0.190 C 
DOCKED: BRANCH  36  37
DOCKED: ATOM     37  O   UNL d   1     -18.212  -0.037   4.957 -0.08 -0.43    -0.399 OA
DOCKED: ATOM     38  H   UNL d   1     -17.433  -0.283   4.385 +0.06 +0.20    +0.209 HD
DOCKED: ENDBRANCH  36  37
DOCKED: ENDBRANCH  29  36
DOCKED: BRANCH  22  39
DOCKED: ATOM     39  C   UNL d   1     -13.640  -2.157   2.292 -0.26 +0.05    +0.052 C 
DOCKED: BRANCH  39  40
DOCKED: ATOM     40  C   UNL d   1     -13.790  -0.763   1.660 -0.26 +0.13    +0.115 C 
DOCKED: BRANCH  40  41
DOCKED: ATOM     41  C   UNL d   1     -15.218  -0.265   1.578 -0.11 +0.22    +0.139 C 
DOCKED: ATOM     42  O   UNL d   1     -15.734   0.236   2.567 -0.09 -1.01    -0.650 OA
DOCKED: BRANCH  41  43
DOCKED: ATOM     43  O   UNL d   1     -15.909  -0.279   0.417 -0.43 -1.34    -0.776 OA
DOCKED: ATOM     44  H   UNL d   1     -16.424  -1.044   0.129 +0.03 +0.21    +0.167 HD
DOCKED: ENDBRANCH  41  43
DOCKED: ENDBRANCH  40  41
DOCKED: ENDBRANCH  39  40
DOCKED: ENDBRANCH  22  39
DOCKED: BRANCH  12  45
DOCKED: ATOM     45  C   UNL d   1     -21.320  -3.829  10.311 -0.06 +0.00    +0.004 C 
DOCKED: ATOM     46  C   UNL d   1     -20.936  -4.548  11.363 -0.09 +0.00    +0.012 C 
DOCKED: ENDBRANCH  12  45
DOCKED: BRANCH  17  47
DOCKED: ATOM     47  C   UNL d   1     -14.389  -0.240   9.904 -0.40 +0.00    +0.004 C 
DOCKED: ATOM     48  C   UNL d   1     -13.171  -0.267   9.358 -0.53 +0.00    +0.012 C 
DOCKED: ENDBRANCH  17  47
DOCKED: TORSDOF 12
DOCKED: TER
DOCKED: ENDMDL
________________________________________________________________________________


	BEGINNING GENETIC ALGORITHM DOCKING 80 of 100
Run: 80 Seed: 391697402 734945875 [ Run 80 of 100 GA/GALS ]
Beginning LAMARCKIAN GENETIC ALGORITHM (LGA), with a maximum of 25000000 energy evaluations.

Final-Value: -8.561


	FINAL GENETIC ALGORITHM DOCKED STATE
	_______________________________________________


Detailed state:  trans 17.652 -7.403 -2.144 quatxyzw 0.528327 0.527462 0.583966 -0.318806 center 8.781 34.984 -0.736 ntor 12 -129.5430 106.3496 -146.1543 18.2576 -89.1384 158.6649 41.1429 101.7462 78.2651 -83.3593 18.7826 -17.7633
State:	 17.652  -7.403  -2.144   0.557  0.557  0.616 -142.819   -129.54  106.35 -146.15   18.26  -89.14  158.66   41.14  101.75   78.27  -83.36   18.78  -17.76

DOCKED: MODEL       80
DOCKED: USER    Run = 80
DOCKED: USER    DPF = D:/Protein_go_brrr/autodock/final/AncMH_nat/heme_Co/dock.dpf
DOCKED: USER  
DOCKED: USER    Estimated Free Energy of Binding    =   -2.24 kcal/mol  [=(1)+(2)+(3)-(4)]
DOCKED: USER    Estimated Inhibition Constant, Ki   =   22.98 mM (millimolar)  [Temperature = 298.15 K]
DOCKED: USER    
DOCKED: USER    (1) Final Intermolecular Energy     =   -5.82 kcal/mol
DOCKED: USER        vdW + Hbond + desolv Energy     =   -6.16 kcal/mol
DOCKED: USER        Electrostatic Energy            =   +0.34 kcal/mol
DOCKED: USER    (2) Final Total Internal Energy     =   -2.75 kcal/mol
DOCKED: USER    (3) Torsional Free Energy           =   +3.58 kcal/mol
DOCKED: USER    (4) Unbound System's Energy  [=(2)] =   -2.75 kcal/mol
DOCKED: USER    
DOCKED: USER    
DOCKED: USER    NEWDPF move heme_Co_opt.pdbqt
DOCKED: USER    NEWDPF about 8.781000 34.984000 -0.736000
DOCKED: USER    NEWDPF tran0 17.652077 -7.403455 -2.143810
DOCKED: USER    NEWDPF quaternion0 0.528327 0.527462 0.583966 -0.318806
DOCKED: USER    NEWDPF axisangle0 0.557413 0.556501 0.616115 -142.818522
DOCKED: USER    NEWDPF quat0 0.557413 0.556501 0.616115 -142.818522
DOCKED: USER    NEWDPF dihe0 -129.54 106.35 -146.15 18.26 -89.14 158.66 41.14 101.75 78.27 -83.36 18.78 -17.76 
DOCKED: USER  keepresnum = 1 
DOCKED: USER  
DOCKED: REMARK  12 active torsions:
DOCKED: REMARK  status: ('A' for Active; 'I' for Inactive)
DOCKED: REMARK    1  A    between atoms: C_6  and  C_10 
DOCKED: REMARK    2  A    between atoms: C_10  and  C_11 
DOCKED: REMARK    3  A    between atoms: C_11  and  C_12 
DOCKED: REMARK    4  A    between atoms: C_12  and  O_14 
DOCKED: REMARK    5  A    between atoms: C_17  and  C_20 
DOCKED: REMARK    6  A    between atoms: C_24  and  C_27 
DOCKED: REMARK    7  A    between atoms: C_31  and  C_34 
DOCKED: REMARK    8  A    between atoms: C_34  and  C_35 
DOCKED: REMARK    9  A    between atoms: C_35  and  C_36 
DOCKED: REMARK   10  A    between atoms: C_36  and  O_38 
DOCKED: REMARK   11  A    between atoms: FE_43  and  C_44 
DOCKED: REMARK   12  A    between atoms: C_44  and  O_45 
DOCKED: USER                              x       y       z     vdW  Elec       q    Type
DOCKED: USER                           _______ _______ _______ _____ _____    ______ ____
DOCKED: ROOT
DOCKED: ATOM      1  C   UNL d   1      17.395  -9.560  -2.114 -0.10 -0.01    +0.064 A 
DOCKED: ATOM      2  C   UNL d   1      20.164  -6.707  -4.724 -0.09 -0.01    +0.064 C 
DOCKED: ATOM      3  C   UNL d   1      18.136  -2.862  -2.740 -0.33 -0.02    +0.064 A 
DOCKED: ATOM      4  C   UNL d   1      15.572  -5.754   0.213 -0.24 -0.01    +0.064 A 
DOCKED: ATOM      5  C   UNL d   1      18.275  -9.062  -2.999 -0.10 -0.01    +0.066 A 
DOCKED: ATOM      6  C   UNL d   1      19.134  -9.892  -3.746 -0.06 +0.00    -0.021 A 
DOCKED: ATOM      7  C   UNL d   1      19.951  -9.059  -4.484 -0.06 +0.00    -0.025 A 
DOCKED: ATOM      8  C   UNL d   1      19.545  -7.757  -4.169 -0.08 -0.01    +0.066 A 
DOCKED: ATOM      9  C   UNL d   1      21.075  -9.457  -5.452 -0.02 -0.01    +0.051 C 
DOCKED: ATOM     10  C   UNL d   1      19.798  -5.334  -4.481 -0.12 -0.01    +0.066 A 
DOCKED: ATOM     11  C   UNL d   1      20.314  -4.195  -5.136 -0.14 +0.00    -0.021 A 
DOCKED: ATOM     12  C   UNL d   1      19.703  -3.088  -4.541 -0.25 -0.00    +0.000 A 
DOCKED: ATOM     13  C   UNL d   1      18.853  -3.632  -3.578 -0.28 -0.02    +0.070 A 
DOCKED: ATOM     14  C   UNL d   1      21.254  -4.193  -6.314 -0.07 -0.01    +0.052 C 
DOCKED: ATOM     15  C   UNL d   1      17.254  -3.254  -1.659 -0.29 -0.02    +0.066 A 
DOCKED: ATOM     16  C   UNL d   1      16.656  -2.407  -0.737 -0.34 +0.01    -0.021 A 
DOCKED: ATOM     17  C   UNL d   1      15.917  -3.236   0.119 -0.32 -0.00    +0.000 A 
DOCKED: ATOM     18  C   UNL d   1      16.110  -4.527  -0.361 -0.26 -0.02    +0.070 A 
DOCKED: ATOM     19  C   UNL d   1      16.805  -0.902  -0.703 -0.21 -0.01    +0.052 C 
DOCKED: ATOM     20  C   UNL d   1      15.815  -7.026  -0.184 -0.20 -0.01    +0.066 A 
DOCKED: ATOM     21  C   UNL d   1      15.268  -8.127   0.472 -0.20 +0.01    -0.025 A 
DOCKED: ATOM     22  C   UNL d   1      15.753  -9.237  -0.195 -0.16 +0.00    -0.021 A 
DOCKED: ATOM     23  C   UNL d   1      16.588  -8.755  -1.225 -0.11 -0.01    +0.066 A 
DOCKED: ATOM     24  C   UNL d   1      14.344  -8.123   1.687 -0.24 -0.01    +0.051 C 
DOCKED: ATOM     25  N   UNL d   1      18.504  -7.730  -3.256 -0.10 +0.03    -0.248 N 
DOCKED: ATOM     26  N   UNL d   1      18.870  -4.992  -3.581 -0.13 +0.05    -0.248 N 
DOCKED: ATOM     27  N   UNL d   1      16.935  -4.503  -1.402 -0.18 +0.07    -0.248 N 
DOCKED: ATOM     28  N   UNL d   1      16.630  -7.417  -1.221 -0.12 +0.03    -0.248 N 
DOCKED: ATOM     29 FE   UNL d   1      17.671  -6.023  -2.273 -0.05 -0.00    +0.000 Fe
DOCKED: ENDROOT
DOCKED: BRANCH   6  30
DOCKED: ATOM     30  C   UNL d   1      19.212 -11.414  -3.681 -0.02 -0.01    +0.052 C 
DOCKED: BRANCH  30  31
DOCKED: ATOM     31  C   UNL d   1      18.513 -12.040  -4.887 -0.01 -0.01    +0.115 C 
DOCKED: BRANCH  31  32
DOCKED: ATOM     32  C   UNL d   1      17.154 -12.607  -4.536 -0.01 -0.02    +0.139 C 
DOCKED: ATOM     33  O   UNL d   1      17.067 -13.761  -4.144 +0.01 +0.07    -0.650 OA
DOCKED: BRANCH  32  34
DOCKED: ATOM     34  O   UNL d   1      16.027 -11.860  -4.597 +0.04 +0.08    -0.776 OA
DOCKED: ATOM     35  H   UNL d   1      15.353 -11.835  -3.904 +0.04 -0.02    +0.167 HD
DOCKED: ENDBRANCH  32  34
DOCKED: ENDBRANCH  31  32
DOCKED: ENDBRANCH  30  31
DOCKED: ENDBRANCH   6  30
DOCKED: BRANCH  29  36
DOCKED: ATOM     36  C   UNL d   1      19.268  -6.162  -0.922 -0.03 -0.03    +0.190 C 
DOCKED: BRANCH  36  37
DOCKED: ATOM     37  O   UNL d   1      20.443  -6.872  -0.655 +0.00 +0.05    -0.399 OA
DOCKED: ATOM     38  H   UNL d   1      20.452  -7.614  -1.323 +0.01 -0.02    +0.209 HD
DOCKED: ENDBRANCH  36  37
DOCKED: ENDBRANCH  29  36
DOCKED: BRANCH  22  39
DOCKED: ATOM     39  C   UNL d   1      15.477 -10.681   0.183 -0.12 -0.01    +0.052 C 
DOCKED: BRANCH  39  40
DOCKED: ATOM     40  C   UNL d   1      14.136 -11.149  -0.405 -0.20 -0.03    +0.115 C 
DOCKED: BRANCH  40  41
DOCKED: ATOM     41  C   UNL d   1      14.241 -11.784  -1.775 -0.15 -0.03    +0.139 C 
DOCKED: ATOM     42  O   UNL d   1      13.637 -11.286  -2.714 -0.05 +0.19    -0.650 OA
DOCKED: BRANCH  41  43
DOCKED: ATOM     43  O   UNL d   1      15.055 -12.838  -2.009 +0.05 +0.13    -0.776 OA
DOCKED: ATOM     44  H   UNL d   1      15.579 -12.920  -2.816 +0.02 -0.02    +0.167 HD
DOCKED: ENDBRANCH  41  43
DOCKED: ENDBRANCH  40  41
DOCKED: ENDBRANCH  39  40
DOCKED: ENDBRANCH  22  39
DOCKED: BRANCH  12  45
DOCKED: ATOM     45  C   UNL d   1      19.810  -1.588  -4.783 -0.06 -0.00    +0.004 C 
DOCKED: ATOM     46  C   UNL d   1      20.403  -0.909  -5.761 -0.25 -0.00    +0.012 C 
DOCKED: ENDBRANCH  12  45
DOCKED: BRANCH  17  47
DOCKED: ATOM     47  C   UNL d   1      15.122  -2.888   1.334 -0.36 +0.00    +0.004 C 
DOCKED: ATOM     48  C   UNL d   1      15.480  -3.233   2.573 -0.22 +0.00    +0.012 C 
DOCKED: ENDBRANCH  17  47
DOCKED: TORSDOF 12
DOCKED: TER
DOCKED: ENDMDL
________________________________________________________________________________


	BEGINNING GENETIC ALGORITHM DOCKING 81 of 100
Run: 81 Seed: 84783212 287594142 [ Run 81 of 100 GA/GALS ]
Beginning LAMARCKIAN GENETIC ALGORITHM (LGA), with a maximum of 25000000 energy evaluations.

Final-Value: -12.838


	FINAL GENETIC ALGORITHM DOCKED STATE
	_______________________________________________


Detailed state:  trans -15.103 -1.005 -1.655 quatxyzw 0.400776 -0.241062 -0.274870 0.840068 center 8.781 34.984 -0.736 ntor 12 39.3807 124.5953 -143.3828 54.5874 104.9820 105.0411 19.9132 122.0456 178.7673 141.0270 180.0000 164.9778
State:	-15.103  -1.005  -1.655   0.739 -0.444 -0.507 65.705     39.38  124.60 -143.38   54.59  104.98  105.04   19.91  122.05  178.77  141.03  180.00  164.98

DOCKED: MODEL       81
DOCKED: USER    Run = 81
DOCKED: USER    DPF = D:/Protein_go_brrr/autodock/final/AncMH_nat/heme_Co/dock.dpf
DOCKED: USER  
DOCKED: USER    Estimated Free Energy of Binding    =   -5.40 kcal/mol  [=(1)+(2)+(3)-(4)]
DOCKED: USER    Estimated Inhibition Constant, Ki   =  109.37 uM (micromolar)  [Temperature = 298.15 K]
DOCKED: USER    
DOCKED: USER    (1) Final Intermolecular Energy     =   -8.98 kcal/mol
DOCKED: USER        vdW + Hbond + desolv Energy     =   -6.07 kcal/mol
DOCKED: USER        Electrostatic Energy            =   -2.92 kcal/mol
DOCKED: USER    (2) Final Total Internal Energy     =   -3.85 kcal/mol
DOCKED: USER    (3) Torsional Free Energy           =   +3.58 kcal/mol
DOCKED: USER    (4) Unbound System's Energy  [=(2)] =   -3.85 kcal/mol
DOCKED: USER    
DOCKED: USER    
DOCKED: USER    NEWDPF move heme_Co_opt.pdbqt
DOCKED: USER    NEWDPF about 8.781000 34.984000 -0.736000
DOCKED: USER    NEWDPF tran0 -15.102708 -1.004668 -1.654973
DOCKED: USER    NEWDPF quaternion0 0.400776 -0.241062 -0.274870 0.840068
DOCKED: USER    NEWDPF axisangle0 0.738783 -0.444369 -0.506690 65.705324
DOCKED: USER    NEWDPF quat0 0.738783 -0.444369 -0.506690 65.705324
DOCKED: USER    NEWDPF dihe0 39.38 124.60 -143.38 54.59 104.98 105.04 19.91 122.05 178.77 141.03 180.00 164.98 
DOCKED: USER  keepresnum = 1 
DOCKED: USER  
DOCKED: REMARK  12 active torsions:
DOCKED: REMARK  status: ('A' for Active; 'I' for Inactive)
DOCKED: REMARK    1  A    between atoms: C_6  and  C_10 
DOCKED: REMARK    2  A    between atoms: C_10  and  C_11 
DOCKED: REMARK    3  A    between atoms: C_11  and  C_12 
DOCKED: REMARK    4  A    between atoms: C_12  and  O_14 
DOCKED: REMARK    5  A    between atoms: C_17  and  C_20 
DOCKED: REMARK    6  A    between atoms: C_24  and  C_27 
DOCKED: REMARK    7  A    between atoms: C_31  and  C_34 
DOCKED: REMARK    8  A    between atoms: C_34  and  C_35 
DOCKED: REMARK    9  A    between atoms: C_35  and  C_36 
DOCKED: REMARK   10  A    between atoms: C_36  and  O_38 
DOCKED: REMARK   11  A    between atoms: FE_43  and  C_44 
DOCKED: REMARK   12  A    between atoms: C_44  and  O_45 
DOCKED: USER                              x       y       z     vdW  Elec       q    Type
DOCKED: USER                           _______ _______ _______ _____ _____    ______ ____
DOCKED: ROOT
DOCKED: ATOM      1  C   UNL d   1     -17.004  -1.946  -1.193 -0.09 +0.07    +0.064 A 
DOCKED: ATOM      2  C   UNL d   1     -13.650  -0.002   1.559 -0.21 +0.09    +0.064 C 
DOCKED: ATOM      3  C   UNL d   1     -10.856   0.674  -2.258 -0.21 +0.02    +0.064 A 
DOCKED: ATOM      4  C   UNL d   1     -14.422  -0.954  -5.139 -0.06 +0.02    +0.064 A 
DOCKED: ATOM      5  C   UNL d   1     -16.278  -1.498  -0.156 -0.13 +0.08    +0.066 A 
DOCKED: ATOM      6  C   UNL d   1     -16.791  -1.460   1.155 -0.11 -0.02    -0.021 A 
DOCKED: ATOM      7  C   UNL d   1     -15.822  -0.874   1.946 -0.16 -0.03    -0.025 A 
DOCKED: ATOM      8  C   UNL d   1     -14.754  -0.594   1.087 -0.15 +0.10    +0.066 A 
DOCKED: ATOM      9  C   UNL d   1     -15.886  -0.581   3.453 -0.01 +0.05    +0.051 C 
DOCKED: ATOM     10  C   UNL d   1     -12.490   0.301   0.758 -0.22 +0.07    +0.066 A 
DOCKED: ATOM     11  C   UNL d   1     -11.250   0.793   1.220 -0.29 -0.01    -0.021 A 
DOCKED: ATOM     12  C   UNL d   1     -10.453   0.977   0.086 -0.33 +0.00    +0.000 A 
DOCKED: ATOM     13  C   UNL d   1     -11.259   0.573  -0.979 -0.24 +0.04    +0.070 A 
DOCKED: ATOM     14  C   UNL d   1     -10.843   0.975   2.659 -0.35 +0.02    +0.052 C 
DOCKED: ATOM     15  C   UNL d   1     -11.574   0.355  -3.476 -0.23 +0.02    +0.066 A 
DOCKED: ATOM     16  C   UNL d   1     -11.154   0.619  -4.772 -0.26 -0.00    -0.021 A 
DOCKED: ATOM     17  C   UNL d   1     -12.181   0.153  -5.606 -0.14 +0.00    +0.000 A 
DOCKED: ATOM     18  C   UNL d   1     -13.142  -0.375  -4.751 -0.10 +0.02    +0.070 A 
DOCKED: ATOM     19  C   UNL d   1      -9.848   1.278  -5.153 -0.22 -0.02    +0.052 C 
DOCKED: ATOM     20  C   UNL d   1     -15.409  -1.395  -4.322 -0.08 +0.04    +0.066 A 
DOCKED: ATOM     21  C   UNL d   1     -16.611  -1.898  -4.813 -0.04 -0.01    -0.025 A 
DOCKED: ATOM     22  C   UNL d   1     -17.364  -2.219  -3.699 -0.06 -0.01    -0.021 A 
DOCKED: ATOM     23  C   UNL d   1     -16.582  -1.882  -2.574 -0.09 +0.06    +0.066 A 
DOCKED: ATOM     24  C   UNL d   1     -17.031  -2.047  -6.273 -0.01 +0.01    +0.051 C 
DOCKED: ATOM     25  N   UNL d   1     -15.006  -0.975  -0.220 -0.13 -0.34    -0.248 N 
DOCKED: ATOM     26  N   UNL d   1     -12.470   0.112  -0.566 -0.14 -0.24    -0.248 N 
DOCKED: ATOM     27  N   UNL d   1     -12.761  -0.210  -3.489 -0.11 -0.12    -0.248 N 
DOCKED: ATOM     28  N   UNL d   1     -15.399  -1.380  -2.947 -0.10 -0.21    -0.248 N 
DOCKED: ATOM     29 FE   UNL d   1     -13.819  -0.572  -1.953 -0.05 +0.00    +0.000 Fe
DOCKED: ENDROOT
DOCKED: BRANCH   6  30
DOCKED: ATOM     30  C   UNL d   1     -18.184  -1.895   1.600 -0.04 +0.04    +0.052 C 
DOCKED: BRANCH  30  31
DOCKED: ATOM     31  C   UNL d   1     -19.128  -0.695   1.661 -0.04 +0.11    +0.115 C 
DOCKED: BRANCH  31  32
DOCKED: ATOM     32  C   UNL d   1     -18.426   0.608   1.344 -0.11 +0.21    +0.139 C 
DOCKED: ATOM     33  O   UNL d   1     -18.239   1.423   2.235 -0.39 -1.41    -0.650 OA
DOCKED: BRANCH  32  34
DOCKED: ATOM     34  O   UNL d   1     -17.952   0.885   0.107 -0.12 -1.15    -0.776 OA
DOCKED: ATOM     35  H   UNL d   1     -18.381   0.607  -0.714 +0.02 +0.17    +0.167 HD
DOCKED: ENDBRANCH  32  34
DOCKED: ENDBRANCH  31  32
DOCKED: ENDBRANCH  30  31
DOCKED: ENDBRANCH   6  30
DOCKED: BRANCH  29  36
DOCKED: ATOM     36  C   UNL d   1     -14.728   1.317  -1.998 -0.03 +0.25    +0.190 C 
DOCKED: BRANCH  36  37
DOCKED: ATOM     37  O   UNL d   1     -15.971   1.956  -1.953 -0.06 -0.61    -0.399 OA
DOCKED: ATOM     38  H   UNL d   1     -16.616   1.245  -1.682 +0.02 +0.29    +0.209 HD
DOCKED: ENDBRANCH  36  37
DOCKED: ENDBRANCH  29  36
DOCKED: BRANCH  22  39
DOCKED: ATOM     39  C   UNL d   1     -18.782  -2.758  -3.721 -0.02 +0.02    +0.052 C 
DOCKED: BRANCH  39  40
DOCKED: ATOM     40  C   UNL d   1     -19.801  -1.613  -3.601 +0.01 +0.04    +0.115 C 
DOCKED: BRANCH  40  41
DOCKED: ATOM     41  C   UNL d   1     -19.461  -0.583  -2.544 +0.01 +0.07    +0.139 C 
DOCKED: ATOM     42  O   UNL d   1     -20.016  -0.636  -1.456 +0.03 -0.34    -0.650 OA
DOCKED: BRANCH  41  43
DOCKED: ATOM     43  O   UNL d   1     -18.496   0.343  -2.739 +0.04 -0.44    -0.776 OA
DOCKED: ATOM     44  H   UNL d   1     -17.855   0.577  -2.056 +0.02 +0.13    +0.167 HD
DOCKED: ENDBRANCH  41  43
DOCKED: ENDBRANCH  40  41
DOCKED: ENDBRANCH  39  40
DOCKED: ENDBRANCH  22  39
DOCKED: BRANCH  12  45
DOCKED: ATOM     45  C   UNL d   1      -9.025   1.466  -0.110 -0.38 +0.00    +0.004 C 
DOCKED: ATOM     46  C   UNL d   1      -7.903   1.146   0.530 -0.48 +0.00    +0.012 C 
DOCKED: ENDBRANCH  12  45
DOCKED: BRANCH  17  47
DOCKED: ATOM     47  C   UNL d   1     -12.309   0.227  -7.093 -0.10 -0.00    +0.004 C 
DOCKED: ATOM     48  C   UNL d   1     -11.745  -0.650  -7.926 -0.12 -0.00    +0.012 C 
DOCKED: ENDBRANCH  17  47
DOCKED: TORSDOF 12
DOCKED: TER
DOCKED: ENDMDL
________________________________________________________________________________


	BEGINNING GENETIC ALGORITHM DOCKING 82 of 100
Run: 82 Seed: 740167729 356557685 [ Run 82 of 100 GA/GALS ]
Beginning LAMARCKIAN GENETIC ALGORITHM (LGA), with a maximum of 25000000 energy evaluations.

Final-Value: -9.904


	FINAL GENETIC ALGORITHM DOCKED STATE
	_______________________________________________


Detailed state:  trans -14.706 8.945 -4.070 quatxyzw 0.969966 -0.100048 -0.220378 -0.024295 center 8.781 34.984 -0.736 ntor 12 -167.3552 102.1443 74.7071 125.8592 146.8253 133.9760 44.2114 178.2843 157.9797 -82.7238 -157.5177 138.0045
State:	-14.706   8.945  -4.070   0.970 -0.100 -0.220 -177.216   -167.36  102.14   74.71  125.86  146.83  133.98   44.21  178.28  157.98  -82.72 -157.52  138.00

DOCKED: MODEL       82
DOCKED: USER    Run = 82
DOCKED: USER    DPF = D:/Protein_go_brrr/autodock/final/AncMH_nat/heme_Co/dock.dpf
DOCKED: USER  
DOCKED: USER    Estimated Free Energy of Binding    =   -4.08 kcal/mol  [=(1)+(2)+(3)-(4)]
DOCKED: USER    Estimated Inhibition Constant, Ki   =    1.02 mM (millimolar)  [Temperature = 298.15 K]
DOCKED: USER    
DOCKED: USER    (1) Final Intermolecular Energy     =   -7.66 kcal/mol
DOCKED: USER        vdW + Hbond + desolv Energy     =   -5.69 kcal/mol
DOCKED: USER        Electrostatic Energy            =   -1.97 kcal/mol
DOCKED: USER    (2) Final Total Internal Energy     =   -2.24 kcal/mol
DOCKED: USER    (3) Torsional Free Energy           =   +3.58 kcal/mol
DOCKED: USER    (4) Unbound System's Energy  [=(2)] =   -2.24 kcal/mol
DOCKED: USER    
DOCKED: USER    
DOCKED: USER    NEWDPF move heme_Co_opt.pdbqt
DOCKED: USER    NEWDPF about 8.781000 34.984000 -0.736000
DOCKED: USER    NEWDPF tran0 -14.705917 8.945477 -4.070087
DOCKED: USER    NEWDPF quaternion0 0.969966 -0.100048 -0.220378 -0.024295
DOCKED: USER    NEWDPF axisangle0 0.970252 -0.100077 -0.220443 -177.215678
DOCKED: USER    NEWDPF quat0 0.970252 -0.100077 -0.220443 -177.215678
DOCKED: USER    NEWDPF dihe0 -167.36 102.14 74.71 125.86 146.83 133.98 44.21 178.28 157.98 -82.72 -157.52 138.00 
DOCKED: USER  keepresnum = 1 
DOCKED: USER  
DOCKED: REMARK  12 active torsions:
DOCKED: REMARK  status: ('A' for Active; 'I' for Inactive)
DOCKED: REMARK    1  A    between atoms: C_6  and  C_10 
DOCKED: REMARK    2  A    between atoms: C_10  and  C_11 
DOCKED: REMARK    3  A    between atoms: C_11  and  C_12 
DOCKED: REMARK    4  A    between atoms: C_12  and  O_14 
DOCKED: REMARK    5  A    between atoms: C_17  and  C_20 
DOCKED: REMARK    6  A    between atoms: C_24  and  C_27 
DOCKED: REMARK    7  A    between atoms: C_31  and  C_34 
DOCKED: REMARK    8  A    between atoms: C_34  and  C_35 
DOCKED: REMARK    9  A    between atoms: C_35  and  C_36 
DOCKED: REMARK   10  A    between atoms: C_36  and  O_38 
DOCKED: REMARK   11  A    between atoms: FE_43  and  C_44 
DOCKED: REMARK   12  A    between atoms: C_44  and  O_45 
DOCKED: USER                              x       y       z     vdW  Elec       q    Type
DOCKED: USER                           _______ _______ _______ _____ _____    ______ ____
DOCKED: ROOT
DOCKED: ATOM      1  C   UNL d   1     -16.138   8.856  -2.440 -0.11 +0.01    +0.064 A 
DOCKED: ATOM      2  C   UNL d   1     -16.154  11.190  -6.583 -0.03 -0.00    +0.064 C 
DOCKED: ATOM      3  C   UNL d   1     -11.718   9.670  -7.499 -0.14 -0.01    +0.064 A 
DOCKED: ATOM      4  C   UNL d   1     -11.824   6.966  -3.457 -0.26 -0.00    +0.064 A 
DOCKED: ATOM      5  C   UNL d   1     -16.455   9.635  -3.488 -0.08 +0.00    +0.066 A 
DOCKED: ATOM      6  C   UNL d   1     -17.728  10.221  -3.626 -0.03 -0.00    -0.021 A 
DOCKED: ATOM      7  C   UNL d   1     -17.734  10.879  -4.840 -0.02 -0.00    -0.025 A 
DOCKED: ATOM      8  C   UNL d   1     -16.461  10.679  -5.384 -0.04 +0.00    +0.066 A 
DOCKED: ATOM      9  C   UNL d   1     -18.888  11.668  -5.479 -0.01 +0.00    +0.051 C 
DOCKED: ATOM     10  C   UNL d   1     -14.862  11.060  -7.210 -0.03 -0.00    +0.066 A 
DOCKED: ATOM     11  C   UNL d   1     -14.434  11.689  -8.399 -0.02 +0.00    -0.021 A 
DOCKED: ATOM     12  C   UNL d   1     -13.136  11.231  -8.640 -0.05 -0.00    +0.000 A 
DOCKED: ATOM     13  C   UNL d   1     -12.864  10.369  -7.578 -0.08 -0.01    +0.070 A 
DOCKED: ATOM     14  C   UNL d   1     -15.194  12.728  -9.182 -0.01 -0.00    +0.052 C 
DOCKED: ATOM     15  C   UNL d   1     -11.297   8.702  -6.506 -0.21 -0.01    +0.066 A 
DOCKED: ATOM     16  C   UNL d   1     -10.161   7.907  -6.561 -0.28 +0.01    -0.021 A 
DOCKED: ATOM     17  C   UNL d   1     -10.188   7.123  -5.398 -0.29 -0.00    +0.000 A 
DOCKED: ATOM     18  C   UNL d   1     -11.334   7.516  -4.715 -0.24 -0.01    +0.070 A 
DOCKED: ATOM     19  C   UNL d   1      -9.135   7.920  -7.672 -0.29 -0.02    +0.052 C 
DOCKED: ATOM     20  C   UNL d   1     -12.978   7.270  -2.818 -0.24 +0.01    +0.066 A 
DOCKED: ATOM     21  C   UNL d   1     -13.358   6.647  -1.631 -0.33 -0.01    -0.025 A 
DOCKED: ATOM     22  C   UNL d   1     -14.584   7.193  -1.299 -0.29 -0.01    -0.021 A 
DOCKED: ATOM     23  C   UNL d   1     -14.900   8.121  -2.314 -0.08 +0.01    +0.066 A 
DOCKED: ATOM     24  C   UNL d   1     -12.599   5.569  -0.861 -0.36 +0.03    +0.051 C 
DOCKED: ATOM     25  N   UNL d   1     -15.645   9.917  -4.565 -0.06 -0.01    -0.248 N 
DOCKED: ATOM     26  N   UNL d   1     -13.887  10.310  -6.684 -0.05 +0.02    -0.248 N 
DOCKED: ATOM     27  N   UNL d   1     -11.985   8.436  -5.418 -0.13 +0.04    -0.248 N 
DOCKED: ATOM     28  N   UNL d   1     -13.932   8.169  -3.236 -0.03 -0.03    -0.248 N 
DOCKED: ATOM     29 FE   UNL d   1     -13.707   9.131  -5.013 -0.03 -0.00    +0.000 Fe
DOCKED: ENDROOT
DOCKED: BRANCH   6  30
DOCKED: ATOM     30  C   UNL d   1     -18.903  10.079  -2.664 -0.02 +0.00    +0.052 C 
DOCKED: BRANCH  30  31
DOCKED: ATOM     31  C   UNL d   1     -19.520   8.685  -2.772 -0.01 +0.01    +0.115 C 
DOCKED: BRANCH  31  32
DOCKED: ATOM     32  C   UNL d   1     -19.246   8.035  -4.111 -0.00 +0.02    +0.139 C 
DOCKED: ATOM     33  O   UNL d   1     -19.984   8.270  -5.056 +0.00 -0.05    -0.650 OA
DOCKED: BRANCH  32  34
DOCKED: ATOM     34  O   UNL d   1     -18.176   7.232  -4.313 +0.02 -0.11    -0.776 OA
DOCKED: ATOM     35  H   UNL d   1     -17.904   6.895  -5.178 +0.00 +0.02    +0.167 HD
DOCKED: ENDBRANCH  32  34
DOCKED: ENDBRANCH  31  32
DOCKED: ENDBRANCH  30  31
DOCKED: ENDBRANCH   6  30
DOCKED: BRANCH  29  36
DOCKED: ATOM     36  C   UNL d   1     -14.693   7.572  -6.009 -0.02 -0.00    +0.190 C 
DOCKED: BRANCH  36  37
DOCKED: ATOM     37  O   UNL d   1     -15.920   6.907  -6.098 +0.00 -0.02    -0.399 OA
DOCKED: ATOM     38  H   UNL d   1     -16.448   7.238  -5.318 +0.01 +0.02    +0.209 HD
DOCKED: ENDBRANCH  36  37
DOCKED: ENDBRANCH  29  36
DOCKED: BRANCH  22  39
DOCKED: ATOM     39  C   UNL d   1     -15.431   6.793  -0.105 -0.14 +0.03    +0.052 C 
DOCKED: BRANCH  39  40
DOCKED: ATOM     40  C   UNL d   1     -16.807   6.281  -0.563 -0.15 +0.08    +0.115 C 
DOCKED: BRANCH  40  41
DOCKED: ATOM     41  C   UNL d   1     -16.875   4.784  -0.784 +0.01 +0.19    +0.139 C 
DOCKED: ATOM     42  O   UNL d   1     -15.960   4.224  -1.372 -0.49 -1.21    -0.650 OA
DOCKED: BRANCH  41  43
DOCKED: ATOM     43  O   UNL d   1     -17.877   4.035  -0.273 -0.02 -1.08    -0.776 OA
DOCKED: ATOM     44  H   UNL d   1     -18.743   3.969  -0.696 +0.02 +0.16    +0.167 HD
DOCKED: ENDBRANCH  41  43
DOCKED: ENDBRANCH  40  41
DOCKED: ENDBRANCH  39  40
DOCKED: ENDBRANCH  22  39
DOCKED: BRANCH  12  45
DOCKED: ATOM     45  C   UNL d   1     -12.119  11.522  -9.736 -0.07 -0.00    +0.004 C 
DOCKED: ATOM     46  C   UNL d   1     -10.911  12.075  -9.673 -0.16 -0.00    +0.012 C 
DOCKED: ENDBRANCH  12  45
DOCKED: BRANCH  17  47
DOCKED: ATOM     47  C   UNL d   1      -9.258   6.043  -4.954 -0.36 -0.00    +0.004 C 
DOCKED: ATOM     48  C   UNL d   1      -8.637   6.045  -3.772 -0.49 -0.00    +0.012 C 
DOCKED: ENDBRANCH  17  47
DOCKED: TORSDOF 12
DOCKED: TER
DOCKED: ENDMDL
________________________________________________________________________________


	BEGINNING GENETIC ALGORITHM DOCKING 83 of 100
Run: 83 Seed: 59642430 416904058 [ Run 83 of 100 GA/GALS ]
Beginning LAMARCKIAN GENETIC ALGORITHM (LGA), with a maximum of 25000000 energy evaluations.

Final-Value: -9.045


	FINAL GENETIC ALGORITHM DOCKED STATE
	_______________________________________________


Detailed state:  trans 3.983 16.606 8.526 quatxyzw -0.380873 0.034122 0.285038 0.878934 center 8.781 34.984 -0.736 ntor 12 89.2929 114.4747 41.9027 36.7376 133.3631 92.3491 37.5886 141.9590 -62.6524 119.1166 -3.1285 45.5421
State:	  3.983  16.606   8.526  -0.799  0.072  0.598 56.972     89.29  114.47   41.90   36.74  133.36   92.35   37.59  141.96  -62.65  119.12   -3.13   45.54

DOCKED: MODEL       83
DOCKED: USER    Run = 83
DOCKED: USER    DPF = D:/Protein_go_brrr/autodock/final/AncMH_nat/heme_Co/dock.dpf
DOCKED: USER  
DOCKED: USER    Estimated Free Energy of Binding    =   -4.69 kcal/mol  [=(1)+(2)+(3)-(4)]
DOCKED: USER    Estimated Inhibition Constant, Ki   =  365.57 uM (micromolar)  [Temperature = 298.15 K]
DOCKED: USER    
DOCKED: USER    (1) Final Intermolecular Energy     =   -8.27 kcal/mol
DOCKED: USER        vdW + Hbond + desolv Energy     =   -5.11 kcal/mol
DOCKED: USER        Electrostatic Energy            =   -3.16 kcal/mol
DOCKED: USER    (2) Final Total Internal Energy     =   -0.78 kcal/mol
DOCKED: USER    (3) Torsional Free Energy           =   +3.58 kcal/mol
DOCKED: USER    (4) Unbound System's Energy  [=(2)] =   -0.78 kcal/mol
DOCKED: USER    
DOCKED: USER    
DOCKED: USER    NEWDPF move heme_Co_opt.pdbqt
DOCKED: USER    NEWDPF about 8.781000 34.984000 -0.736000
DOCKED: USER    NEWDPF tran0 3.983044 16.606103 8.525753
DOCKED: USER    NEWDPF quaternion0 -0.380873 0.034122 0.285038 0.878934
DOCKED: USER    NEWDPF axisangle0 -0.798570 0.071544 0.597635 56.971944
DOCKED: USER    NEWDPF quat0 -0.798570 0.071544 0.597635 56.971944
DOCKED: USER    NEWDPF dihe0 89.29 114.47 41.90 36.74 133.36 92.35 37.59 141.96 -62.65 119.12 -3.13 45.54 
DOCKED: USER  keepresnum = 1 
DOCKED: USER  
DOCKED: REMARK  12 active torsions:
DOCKED: REMARK  status: ('A' for Active; 'I' for Inactive)
DOCKED: REMARK    1  A    between atoms: C_6  and  C_10 
DOCKED: REMARK    2  A    between atoms: C_10  and  C_11 
DOCKED: REMARK    3  A    between atoms: C_11  and  C_12 
DOCKED: REMARK    4  A    between atoms: C_12  and  O_14 
DOCKED: REMARK    5  A    between atoms: C_17  and  C_20 
DOCKED: REMARK    6  A    between atoms: C_24  and  C_27 
DOCKED: REMARK    7  A    between atoms: C_31  and  C_34 
DOCKED: REMARK    8  A    between atoms: C_34  and  C_35 
DOCKED: REMARK    9  A    between atoms: C_35  and  C_36 
DOCKED: REMARK   10  A    between atoms: C_36  and  O_38 
DOCKED: REMARK   11  A    between atoms: FE_43  and  C_44 
DOCKED: REMARK   12  A    between atoms: C_44  and  O_45 
DOCKED: USER                              x       y       z     vdW  Elec       q    Type
DOCKED: USER                           _______ _______ _______ _____ _____    ______ ____
DOCKED: ROOT
DOCKED: ATOM      1  C   UNL d   1       2.840  18.452   8.572 -0.04 +0.03    +0.064 A 
DOCKED: ATOM      2  C   UNL d   1       1.592  13.904   9.184 -0.22 -0.03    +0.064 C 
DOCKED: ATOM      3  C   UNL d   1       6.029  12.502   8.097 -0.06 +0.00    +0.064 A 
DOCKED: ATOM      4  C   UNL d   1       7.423  17.155   7.844 -0.04 +0.02    +0.064 A 
DOCKED: ATOM      5  C   UNL d   1       2.164  17.310   8.784 -0.07 +0.02    +0.066 A 
DOCKED: ATOM      6  C   UNL d   1       0.819  17.305   9.203 -0.11 -0.01    -0.021 A 
DOCKED: ATOM      7  C   UNL d   1       0.469  15.983   9.401 -0.20 -0.00    -0.025 A 
DOCKED: ATOM      8  C   UNL d   1       1.609  15.239   9.079 -0.11 -0.01    +0.066 A 
DOCKED: ATOM      9  C   UNL d   1      -0.882  15.427   9.876 -0.34 -0.00    +0.051 C 
DOCKED: ATOM     10  C   UNL d   1       2.708  13.054   8.850 -0.21 -0.02    +0.066 A 
DOCKED: ATOM     11  C   UNL d   1       2.709  11.643   8.805 -0.40 +0.00    -0.021 A 
DOCKED: ATOM     12  C   UNL d   1       4.014  11.261   8.481 -0.30 +0.00    +0.000 A 
DOCKED: ATOM     13  C   UNL d   1       4.707  12.463   8.341 -0.16 +0.00    +0.070 A 
DOCKED: ATOM     14  C   UNL d   1       1.510  10.744   8.968 -0.03 -0.03    +0.052 C 
DOCKED: ATOM     15  C   UNL d   1       6.908  13.648   7.975 -0.08 +0.00    +0.066 A 
DOCKED: ATOM     16  C   UNL d   1       8.292  13.616   7.867 -0.06 -0.00    -0.021 A 
DOCKED: ATOM     17  C   UNL d   1       8.699  14.955   7.796 -0.04 +0.00    +0.000 A 
DOCKED: ATOM     18  C   UNL d   1       7.526  15.701   7.850 -0.05 +0.01    +0.070 A 
DOCKED: ATOM     19  C   UNL d   1       9.140  12.364   7.838 -0.06 -0.00    +0.052 C 
DOCKED: ATOM     20  C   UNL d   1       6.302  17.903   7.982 -0.05 +0.03    +0.066 A 
DOCKED: ATOM     21  C   UNL d   1       6.335  19.296   7.996 -0.04 -0.01    -0.025 A 
DOCKED: ATOM     22  C   UNL d   1       5.024  19.698   8.176 -0.05 -0.01    -0.021 A 
DOCKED: ATOM     23  C   UNL d   1       4.252  18.521   8.275 -0.05 +0.03    +0.066 A 
DOCKED: ATOM     24  C   UNL d   1       7.558  20.200   7.866 -0.02 +0.02    +0.051 C 
DOCKED: ATOM     25  N   UNL d   1       2.672  16.035   8.687 -0.07 -0.02    -0.248 N 
DOCKED: ATOM     26  N   UNL d   1       3.903  13.547   8.509 -0.10 +0.03    -0.248 N 
DOCKED: ATOM     27  N   UNL d   1       6.482  14.891   7.987 -0.03 -0.03    -0.248 N 
DOCKED: ATOM     28  N   UNL d   1       5.022  17.432   8.160 -0.03 -0.10    -0.248 N 
DOCKED: ATOM     29 FE   UNL d   1       4.691  15.432   8.315 -0.02 +0.00    +0.000 Fe
DOCKED: ENDROOT
DOCKED: BRANCH   6  30
DOCKED: ATOM     30  C   UNL d   1      -0.053  18.525   9.477 -0.09 +0.04    +0.052 C 
DOCKED: BRANCH  30  31
DOCKED: ATOM     31  C   UNL d   1      -0.615  19.088   8.171 -0.11 +0.08    +0.115 C 
DOCKED: BRANCH  31  32
DOCKED: ATOM     32  C   UNL d   1      -2.123  18.983   8.099 -0.08 +0.16    +0.139 C 
DOCKED: ATOM     33  O   UNL d   1      -2.633  17.998   7.585 -0.13 -0.54    -0.650 OA
DOCKED: BRANCH  32  34
DOCKED: ATOM     34  O   UNL d   1      -2.934  19.927   8.630 -0.19 -1.28    -0.776 OA
DOCKED: ATOM     35  H   UNL d   1      -3.200  20.736   8.171 +0.02 +0.14    +0.167 HD
DOCKED: ENDBRANCH  32  34
DOCKED: ENDBRANCH  31  32
DOCKED: ENDBRANCH  30  31
DOCKED: ENDBRANCH   6  30
DOCKED: BRANCH  29  36
DOCKED: ATOM     36  C   UNL d   1       4.981  15.522  10.390 +0.01 +0.02    +0.190 C 
DOCKED: BRANCH  36  37
DOCKED: ATOM     37  O   UNL d   1       4.966  16.398  11.480 +0.01 -0.04    -0.399 OA
DOCKED: ATOM     38  H   UNL d   1       4.708  17.282  11.095 +0.01 +0.03    +0.209 HD
DOCKED: ENDBRANCH  36  37
DOCKED: ENDBRANCH  29  36
DOCKED: BRANCH  22  39
DOCKED: ATOM     39  C   UNL d   1       4.555  21.135   8.310 -0.02 +0.02    +0.052 C 
DOCKED: BRANCH  39  40
DOCKED: ATOM     40  C   UNL d   1       3.154  21.307   7.700 -0.03 +0.06    +0.115 C 
DOCKED: BRANCH  40  41
DOCKED: ATOM     41  C   UNL d   1       3.098  21.118   6.199 -0.02 +0.15    +0.139 C 
DOCKED: ATOM     42  O   UNL d   1       3.446  22.034   5.467 -0.19 -0.66    -0.650 OA
DOCKED: BRANCH  41  43
DOCKED: ATOM     43  O   UNL d   1       2.758  19.934   5.645 -0.48 -1.42    -0.776 OA
DOCKED: ATOM     44  H   UNL d   1       1.982  19.432   5.926 +0.02 +0.17    +0.167 HD
DOCKED: ENDBRANCH  41  43
DOCKED: ENDBRANCH  40  41
DOCKED: ENDBRANCH  39  40
DOCKED: ENDBRANCH  22  39
DOCKED: BRANCH  12  45
DOCKED: ATOM     45  C   UNL d   1       4.677   9.906   8.271 -0.30 +0.00    +0.004 C 
DOCKED: ATOM     46  C   UNL d   1       4.170   8.749   7.854 -0.42 +0.00    +0.012 C 
DOCKED: ENDBRANCH  12  45
DOCKED: BRANCH  17  47
DOCKED: ATOM     47  C   UNL d   1      10.075  15.532   7.734 -0.03 +0.00    +0.004 C 
DOCKED: ATOM     48  C   UNL d   1      10.566  16.154   6.660 -0.05 +0.00    +0.012 C 
DOCKED: ENDBRANCH  17  47
DOCKED: TORSDOF 12
DOCKED: TER
DOCKED: ENDMDL
________________________________________________________________________________


	BEGINNING GENETIC ALGORITHM DOCKING 84 of 100
Run: 84 Seed: 112770419 684153265 [ Run 84 of 100 GA/GALS ]
Beginning LAMARCKIAN GENETIC ALGORITHM (LGA), with a maximum of 25000000 energy evaluations.

Final-Value: -9.009


	FINAL GENETIC ALGORITHM DOCKED STATE
	_______________________________________________


Detailed state:  trans -5.453 16.803 15.557 quatxyzw -0.322146 0.042565 0.506300 0.798794 center 8.781 34.984 -0.736 ntor 12 -173.4010 119.9791 98.8541 -6.0197 -19.4127 131.3681 34.6974 179.1909 177.1436 96.3985 -169.8036 -1.2629
State:	 -5.453  16.803  15.557  -0.535  0.071  0.842 73.970   -173.40  119.98   98.85   -6.02  -19.41  131.37   34.70  179.19  177.14   96.40 -169.80   -1.26

DOCKED: MODEL       84
DOCKED: USER    Run = 84
DOCKED: USER    DPF = D:/Protein_go_brrr/autodock/final/AncMH_nat/heme_Co/dock.dpf
DOCKED: USER  
DOCKED: USER    Estimated Free Energy of Binding    =   -3.18 kcal/mol  [=(1)+(2)+(3)-(4)]
DOCKED: USER    Estimated Inhibition Constant, Ki   =    4.65 mM (millimolar)  [Temperature = 298.15 K]
DOCKED: USER    
DOCKED: USER    (1) Final Intermolecular Energy     =   -6.76 kcal/mol
DOCKED: USER        vdW + Hbond + desolv Energy     =   -5.42 kcal/mol
DOCKED: USER        Electrostatic Energy            =   -1.34 kcal/mol
DOCKED: USER    (2) Final Total Internal Energy     =   -2.25 kcal/mol
DOCKED: USER    (3) Torsional Free Energy           =   +3.58 kcal/mol
DOCKED: USER    (4) Unbound System's Energy  [=(2)] =   -2.25 kcal/mol
DOCKED: USER    
DOCKED: USER    
DOCKED: USER    NEWDPF move heme_Co_opt.pdbqt
DOCKED: USER    NEWDPF about 8.781000 34.984000 -0.736000
DOCKED: USER    NEWDPF tran0 -5.452537 16.803272 15.556706
DOCKED: USER    NEWDPF quaternion0 -0.322146 0.042565 0.506300 0.798794
DOCKED: USER    NEWDPF axisangle0 -0.535477 0.070752 0.841581 73.969896
DOCKED: USER    NEWDPF quat0 -0.535477 0.070752 0.841581 73.969896
DOCKED: USER    NEWDPF dihe0 -173.40 119.98 98.85 -6.02 -19.41 131.37 34.70 179.19 177.14 96.40 -169.80 -1.26 
DOCKED: USER  keepresnum = 1 
DOCKED: USER  
DOCKED: REMARK  12 active torsions:
DOCKED: REMARK  status: ('A' for Active; 'I' for Inactive)
DOCKED: REMARK    1  A    between atoms: C_6  and  C_10 
DOCKED: REMARK    2  A    between atoms: C_10  and  C_11 
DOCKED: REMARK    3  A    between atoms: C_11  and  C_12 
DOCKED: REMARK    4  A    between atoms: C_12  and  O_14 
DOCKED: REMARK    5  A    between atoms: C_17  and  C_20 
DOCKED: REMARK    6  A    between atoms: C_24  and  C_27 
DOCKED: REMARK    7  A    between atoms: C_31  and  C_34 
DOCKED: REMARK    8  A    between atoms: C_34  and  C_35 
DOCKED: REMARK    9  A    between atoms: C_35  and  C_36 
DOCKED: REMARK   10  A    between atoms: C_36  and  O_38 
DOCKED: REMARK   11  A    between atoms: FE_43  and  C_44 
DOCKED: REMARK   12  A    between atoms: C_44  and  O_45 
DOCKED: USER                              x       y       z     vdW  Elec       q    Type
DOCKED: USER                           _______ _______ _______ _____ _____    ______ ____
DOCKED: ROOT
DOCKED: ATOM      1  C   UNL d   1      -5.663  18.962  15.664 -0.13 +0.00    +0.064 A 
DOCKED: ATOM      2  C   UNL d   1      -8.605  15.404  16.802 -0.10 -0.03    +0.064 C 
DOCKED: ATOM      3  C   UNL d   1      -5.483  12.222  15.082 -0.23 -0.01    +0.064 A 
DOCKED: ATOM      4  C   UNL d   1      -2.299  15.808  14.265 -0.09 +0.01    +0.064 A 
DOCKED: ATOM      5  C   UNL d   1      -6.712  18.226  16.068 -0.15 -0.01    +0.066 A 
DOCKED: ATOM      6  C   UNL d   1      -7.827  18.802  16.708 -0.13 +0.01    -0.021 A 
DOCKED: ATOM      7  C   UNL d   1      -8.667  17.762  17.057 -0.13 +0.01    -0.025 A 
DOCKED: ATOM      8  C   UNL d   1      -8.037  16.599  16.600 -0.17 -0.03    +0.066 A 
DOCKED: ATOM      9  C   UNL d   1     -10.013  17.845  17.792 -0.08 -0.02    +0.051 C 
DOCKED: ATOM     10  C   UNL d   1      -8.045  14.156  16.345 -0.07 -0.03    +0.066 A 
DOCKED: ATOM     11  C   UNL d   1      -8.658  12.885  16.401 -0.18 +0.01    -0.021 A 
DOCKED: ATOM     12  C   UNL d   1      -7.727  11.977  15.890 -0.26 -0.00    +0.000 A 
DOCKED: ATOM     13  C   UNL d   1      -6.624  12.760  15.549 -0.23 -0.01    +0.070 A 
DOCKED: ATOM     14  C   UNL d   1     -10.074  12.596  16.828 -0.14 -0.01    +0.052 C 
DOCKED: ATOM     15  C   UNL d   1      -4.236  12.872  14.732 -0.19 -0.01    +0.066 A 
DOCKED: ATOM     16  C   UNL d   1      -3.046  12.243  14.393 -0.23 +0.01    -0.021 A 
DOCKED: ATOM     17  C   UNL d   1      -2.124  13.273  14.159 -0.16 -0.00    +0.000 A 
DOCKED: ATOM     18  C   UNL d   1      -2.831  14.454  14.357 -0.12 -0.00    +0.070 A 
DOCKED: ATOM     19  C   UNL d   1      -2.838  10.747  14.311 -0.23 -0.02    +0.052 C 
DOCKED: ATOM     20  C   UNL d   1      -2.944  16.968  14.537 -0.06 +0.03    +0.066 A 
DOCKED: ATOM     21  C   UNL d   1      -2.315  18.207  14.446 -0.08 -0.01    -0.025 A 
DOCKED: ATOM     22  C   UNL d   1      -3.269  19.138  14.816 -0.09 -0.01    -0.021 A 
DOCKED: ATOM     23  C   UNL d   1      -4.439  18.413  15.128 -0.12 +0.02    +0.066 A 
DOCKED: ATOM     24  C   UNL d   1      -0.870  18.491  14.046 -0.07 +0.03    +0.051 C 
DOCKED: ATOM     25  N   UNL d   1      -6.827  16.857  15.978 -0.14 +0.05    -0.248 N 
DOCKED: ATOM     26  N   UNL d   1      -6.839  14.084  15.772 -0.14 +0.07    -0.248 N 
DOCKED: ATOM     27  N   UNL d   1      -4.077  14.177  14.726 -0.08 +0.02    -0.248 N 
DOCKED: ATOM     28  N   UNL d   1      -4.246  17.099  14.962 -0.09 -0.06    -0.248 N 
DOCKED: ATOM     29 FE   UNL d   1      -5.369  15.440  15.314 -0.04 -0.00    +0.000 Fe
DOCKED: ENDROOT
DOCKED: BRANCH   6  30
DOCKED: ATOM     30  C   UNL d   1      -8.025  20.277  17.038 -0.07 -0.01    +0.052 C 
DOCKED: BRANCH  30  31
DOCKED: ATOM     31  C   UNL d   1      -7.369  20.622  18.375 -0.01 -0.01    +0.115 C 
DOCKED: BRANCH  31  32
DOCKED: ATOM     32  C   UNL d   1      -6.802  19.403  19.071 -0.01 -0.01    +0.139 C 
DOCKED: ATOM     33  O   UNL d   1      -7.475  18.822  19.908 +0.01 +0.07    -0.650 OA
DOCKED: BRANCH  32  34
DOCKED: ATOM     34  O   UNL d   1      -5.584  18.902  18.761 +0.02 +0.05    -0.776 OA
DOCKED: ATOM     35  H   UNL d   1      -5.205  18.107  19.160 +0.01 -0.01    +0.167 HD
DOCKED: ENDBRANCH  32  34
DOCKED: ENDBRANCH  31  32
DOCKED: ENDBRANCH  30  31
DOCKED: ENDBRANCH   6  30
DOCKED: BRANCH  29  36
DOCKED: ATOM     36  C   UNL d   1      -4.693  15.375  17.297 -0.03 -0.01    +0.190 C 
DOCKED: BRANCH  36  37
DOCKED: ATOM     37  O   UNL d   1      -4.663  16.107  18.489 +0.00 +0.03    -0.399 OA
DOCKED: ATOM     38  H   UNL d   1      -5.240  16.903  18.315 +0.02 -0.01    +0.209 HD
DOCKED: ENDBRANCH  36  37
DOCKED: ENDBRANCH  29  36
DOCKED: BRANCH  22  39
DOCKED: ATOM     39  C   UNL d   1      -3.043  20.634  14.925 -0.08 +0.02    +0.052 C 
DOCKED: BRANCH  39  40
DOCKED: ATOM     40  C   UNL d   1      -3.582  21.356  13.679 -0.09 +0.06    +0.115 C 
DOCKED: BRANCH  40  41
DOCKED: ATOM     41  C   UNL d   1      -2.579  21.492  12.552 +0.02 +0.13    +0.139 C 
DOCKED: ATOM     42  O   UNL d   1      -1.426  21.806  12.812 -0.04 -0.35    -0.650 OA
DOCKED: BRANCH  41  43
DOCKED: ATOM     43  O   UNL d   1      -2.901  21.190  11.275 -0.32 -1.41    -0.776 OA
DOCKED: ATOM     44  H   UNL d   1      -3.058  21.868  10.605 +0.01 +0.16    +0.167 HD
DOCKED: ENDBRANCH  41  43
DOCKED: ENDBRANCH  40  41
DOCKED: ENDBRANCH  39  40
DOCKED: ENDBRANCH  22  39
DOCKED: BRANCH  12  45
DOCKED: ATOM     45  C   UNL d   1      -7.760  10.471  15.667 -0.29 -0.00    +0.004 C 
DOCKED: ATOM     46  C   UNL d   1      -8.596   9.545  16.130 -0.31 -0.00    +0.012 C 
DOCKED: ENDBRANCH  12  45
DOCKED: BRANCH  17  47
DOCKED: ATOM     47  C   UNL d   1      -0.671  13.195  13.824 -0.15 -0.00    +0.004 C 
DOCKED: ATOM     48  C   UNL d   1       0.172  12.329  14.394 -0.17 +0.00    +0.012 C 
DOCKED: ENDBRANCH  17  47
DOCKED: TORSDOF 12
DOCKED: TER
DOCKED: ENDMDL
________________________________________________________________________________


	BEGINNING GENETIC ALGORITHM DOCKING 85 of 100
Run: 85 Seed: 1351212183 501342939 [ Run 85 of 100 GA/GALS ]
Beginning LAMARCKIAN GENETIC ALGORITHM (LGA), with a maximum of 25000000 energy evaluations.

Final-Value: -8.894


	FINAL GENETIC ALGORITHM DOCKED STATE
	_______________________________________________


Detailed state:  trans 9.278 -11.327 -6.646 quatxyzw 0.655095 -0.366672 0.660526 0.010355 center 8.781 34.984 -0.736 ntor 12 120.3996 124.7322 138.1619 120.5157 104.8944 96.2587 169.6212 -13.8353 -47.2964 86.9409 -180.0000 -176.9589
State:	  9.278 -11.327  -6.646   0.655 -0.367  0.661 178.813    120.40  124.73  138.16  120.52  104.89   96.26  169.62  -13.84  -47.30   86.94 -180.00 -176.96

DOCKED: MODEL       85
DOCKED: USER    Run = 85
DOCKED: USER    DPF = D:/Protein_go_brrr/autodock/final/AncMH_nat/heme_Co/dock.dpf
DOCKED: USER  
DOCKED: USER    Estimated Free Energy of Binding    =   -2.60 kcal/mol  [=(1)+(2)+(3)-(4)]
DOCKED: USER    Estimated Inhibition Constant, Ki   =   12.44 mM (millimolar)  [Temperature = 298.15 K]
DOCKED: USER    
DOCKED: USER    (1) Final Intermolecular Energy     =   -6.18 kcal/mol
DOCKED: USER        vdW + Hbond + desolv Energy     =   -6.47 kcal/mol
DOCKED: USER        Electrostatic Energy            =   +0.29 kcal/mol
DOCKED: USER    (2) Final Total Internal Energy     =   -2.72 kcal/mol
DOCKED: USER    (3) Torsional Free Energy           =   +3.58 kcal/mol
DOCKED: USER    (4) Unbound System's Energy  [=(2)] =   -2.72 kcal/mol
DOCKED: USER    
DOCKED: USER    
DOCKED: USER    NEWDPF move heme_Co_opt.pdbqt
DOCKED: USER    NEWDPF about 8.781000 34.984000 -0.736000
DOCKED: USER    NEWDPF tran0 9.277547 -11.326914 -6.645968
DOCKED: USER    NEWDPF quaternion0 0.655095 -0.366672 0.660526 0.010355
DOCKED: USER    NEWDPF axisangle0 0.655130 -0.366691 0.660562 178.813338
DOCKED: USER    NEWDPF quat0 0.655130 -0.366691 0.660562 178.813338
DOCKED: USER    NEWDPF dihe0 120.40 124.73 138.16 120.52 104.89 96.26 169.62 -13.84 -47.30 86.94 -180.00 -176.96 
DOCKED: USER  keepresnum = 1 
DOCKED: USER  
DOCKED: REMARK  12 active torsions:
DOCKED: REMARK  status: ('A' for Active; 'I' for Inactive)
DOCKED: REMARK    1  A    between atoms: C_6  and  C_10 
DOCKED: REMARK    2  A    between atoms: C_10  and  C_11 
DOCKED: REMARK    3  A    between atoms: C_11  and  C_12 
DOCKED: REMARK    4  A    between atoms: C_12  and  O_14 
DOCKED: REMARK    5  A    between atoms: C_17  and  C_20 
DOCKED: REMARK    6  A    between atoms: C_24  and  C_27 
DOCKED: REMARK    7  A    between atoms: C_31  and  C_34 
DOCKED: REMARK    8  A    between atoms: C_34  and  C_35 
DOCKED: REMARK    9  A    between atoms: C_35  and  C_36 
DOCKED: REMARK   10  A    between atoms: C_36  and  O_38 
DOCKED: REMARK   11  A    between atoms: FE_43  and  C_44 
DOCKED: REMARK   12  A    between atoms: C_44  and  O_45 
DOCKED: USER                              x       y       z     vdW  Elec       q    Type
DOCKED: USER                           _______ _______ _______ _____ _____    ______ ____
DOCKED: ROOT
DOCKED: ATOM      1  C   UNL d   1       8.576 -10.335  -8.446 -0.22 -0.02    +0.064 A 
DOCKED: ATOM      2  C   UNL d   1      12.900 -10.772  -6.517 -0.26 -0.02    +0.064 C 
DOCKED: ATOM      3  C   UNL d   1      11.023 -12.972  -2.714 -0.14 -0.02    +0.064 A 
DOCKED: ATOM      4  C   UNL d   1       6.648 -12.883  -4.839 -0.05 +0.01    +0.064 A 
DOCKED: ATOM      5  C   UNL d   1       9.891 -10.261  -8.182 -0.25 -0.02    +0.066 A 
DOCKED: ATOM      6  C   UNL d   1      10.811  -9.734  -9.109 -0.24 +0.01    -0.021 A 
DOCKED: ATOM      7  C   UNL d   1      12.067  -9.883  -8.553 -0.24 +0.02    -0.025 A 
DOCKED: ATOM      8  C   UNL d   1      11.858 -10.480  -7.305 -0.25 -0.03    +0.066 A 
DOCKED: ATOM      9  C   UNL d   1      13.420  -9.486  -9.162 -0.05 -0.04    +0.051 C 
DOCKED: ATOM     10  C   UNL d   1      12.781 -11.361  -5.207 -0.24 -0.02    +0.066 A 
DOCKED: ATOM     11  C   UNL d   1      13.822 -11.563  -4.274 -0.21 +0.00    -0.021 A 
DOCKED: ATOM     12  C   UNL d   1      13.246 -12.202  -3.173 -0.19 -0.00    +0.000 A 
DOCKED: ATOM     13  C   UNL d   1      11.898 -12.332  -3.509 -0.20 -0.03    +0.070 A 
DOCKED: ATOM     14  C   UNL d   1      15.245 -11.082  -4.407 -0.18 -0.00    +0.052 C 
DOCKED: ATOM     15  C   UNL d   1       9.614 -13.243  -2.927 -0.21 -0.01    +0.066 A 
DOCKED: ATOM     16  C   UNL d   1       8.799 -14.036  -2.133 -0.16 +0.00    -0.021 A 
DOCKED: ATOM     17  C   UNL d   1       7.537 -14.016  -2.743 -0.18 +0.00    +0.000 A 
DOCKED: ATOM     18  C   UNL d   1       7.678 -13.194  -3.856 -0.20 +0.00    +0.070 A 
DOCKED: ATOM     19  C   UNL d   1       9.233 -14.757  -0.875 -0.09 -0.01    +0.052 C 
DOCKED: ATOM     20  C   UNL d   1       6.784 -12.158  -5.975 -0.23 +0.00    +0.066 A 
DOCKED: ATOM     21  C   UNL d   1       5.727 -11.958  -6.861 -0.25 -0.00    -0.025 A 
DOCKED: ATOM     22  C   UNL d   1       6.246 -11.202  -7.896 -0.23 +0.00    -0.021 A 
DOCKED: ATOM     23  C   UNL d   1       7.608 -10.987  -7.594 -0.22 -0.01    +0.066 A 
DOCKED: ATOM     24  C   UNL d   1       4.298 -12.478  -6.737 -0.33 -0.00    +0.051 C 
DOCKED: ATOM     25  N   UNL d   1      10.519 -10.720  -7.046 -0.11 +0.12    -0.248 N 
DOCKED: ATOM     26  N   UNL d   1      11.608 -11.773  -4.714 -0.13 +0.11    -0.248 N 
DOCKED: ATOM     27  N   UNL d   1       8.936 -12.776  -3.951 -0.13 +0.04    -0.248 N 
DOCKED: ATOM     28  N   UNL d   1       7.938 -11.566  -6.433 -0.14 +0.06    -0.248 N 
DOCKED: ATOM     29 FE   UNL d   1       9.677 -11.808  -5.408 -0.05 -0.00    +0.000 Fe
DOCKED: ENDROOT
DOCKED: BRANCH   6  30
DOCKED: ATOM     30  C   UNL d   1      10.493  -9.189 -10.497 -0.13 -0.03    +0.052 C 
DOCKED: BRANCH  30  31
DOCKED: ATOM     31  C   UNL d   1      10.704 -10.268 -11.559 -0.08 -0.04    +0.115 C 
DOCKED: BRANCH  31  32
DOCKED: ATOM     32  C   UNL d   1       9.525 -10.391 -12.500 -0.04 -0.02    +0.139 C 
DOCKED: ATOM     33  O   UNL d   1       8.956  -9.380 -12.886 +0.02 +0.08    -0.650 OA
DOCKED: BRANCH  32  34
DOCKED: ATOM     34  O   UNL d   1       9.105 -11.588 -12.971 +0.03 +0.10    -0.776 OA
DOCKED: ATOM     35  H   UNL d   1       8.239 -11.973 -12.781 +0.01 -0.02    +0.167 HD
DOCKED: ENDBRANCH  32  34
DOCKED: ENDBRANCH  31  32
DOCKED: ENDBRANCH  30  31
DOCKED: ENDBRANCH   6  30
DOCKED: BRANCH  29  36
DOCKED: ATOM     36  C   UNL d   1      10.102 -13.550  -6.494 -0.06 -0.04    +0.190 C 
DOCKED: BRANCH  36  37
DOCKED: ATOM     37  O   UNL d   1       9.847 -14.196  -7.709 +0.00 +0.06    -0.399 OA
DOCKED: ATOM     38  H   UNL d   1       9.411 -13.505  -8.280 +0.02 -0.03    +0.209 HD
DOCKED: ENDBRANCH  36  37
DOCKED: ENDBRANCH  29  36
DOCKED: BRANCH  22  39
DOCKED: ATOM     39  C   UNL d   1       5.487 -10.770  -9.136 -0.26 -0.00    +0.052 C 
DOCKED: BRANCH  39  40
DOCKED: ATOM     40  C   UNL d   1       5.317 -11.950 -10.107 -0.08 -0.00    +0.115 C 
DOCKED: BRANCH  40  41
DOCKED: ATOM     41  C   UNL d   1       6.322 -11.976 -11.240 -0.06 -0.01    +0.139 C 
DOCKED: ATOM     42  O   UNL d   1       7.010 -12.974 -11.405 +0.02 +0.07    -0.650 OA
DOCKED: BRANCH  41  43
DOCKED: ATOM     43  O   UNL d   1       6.420 -10.962 -12.127 +0.07 +0.07    -0.776 OA
DOCKED: ATOM     44  H   UNL d   1       7.264 -10.682 -12.505 +0.03 -0.02    +0.167 HD
DOCKED: ENDBRANCH  41  43
DOCKED: ENDBRANCH  40  41
DOCKED: ENDBRANCH  39  40
DOCKED: ENDBRANCH  22  39
DOCKED: BRANCH  12  45
DOCKED: ATOM     45  C   UNL d   1      13.807 -12.686  -1.842 -0.13 -0.00    +0.004 C 
DOCKED: ATOM     46  C   UNL d   1      13.591 -12.252  -0.603 -0.16 -0.00    +0.012 C 
DOCKED: ENDBRANCH  12  45
DOCKED: BRANCH  17  47
DOCKED: ATOM     47  C   UNL d   1       6.285 -14.739  -2.369 -0.15 +0.00    +0.004 C 
DOCKED: ATOM     48  C   UNL d   1       5.429 -14.301  -1.443 -0.19 +0.00    +0.012 C 
DOCKED: ENDBRANCH  17  47
DOCKED: TORSDOF 12
DOCKED: TER
DOCKED: ENDMDL
________________________________________________________________________________


	BEGINNING GENETIC ALGORITHM DOCKING 86 of 100
Run: 86 Seed: 1094516747 1501006463 [ Run 86 of 100 GA/GALS ]
Beginning LAMARCKIAN GENETIC ALGORITHM (LGA), with a maximum of 25000000 energy evaluations.

Final-Value: -12.177


	FINAL GENETIC ALGORITHM DOCKED STATE
	_______________________________________________


Detailed state:  trans -13.322 1.815 -3.086 quatxyzw 0.170319 -0.463967 -0.653999 0.572723 center 8.781 34.984 -0.736 ntor 12 -111.2369 142.0945 80.3476 -86.3328 -92.2780 43.8287 43.0960 -55.6102 -112.8190 137.1434 151.7118 178.8605
State:	-13.322   1.815  -3.086   0.208 -0.566 -0.798 110.119   -111.24  142.09   80.35  -86.33  -92.28   43.83   43.10  -55.61 -112.82  137.14  151.71  178.86

DOCKED: MODEL       86
DOCKED: USER    Run = 86
DOCKED: USER    DPF = D:/Protein_go_brrr/autodock/final/AncMH_nat/heme_Co/dock.dpf
DOCKED: USER  
DOCKED: USER    Estimated Free Energy of Binding    =   -6.55 kcal/mol  [=(1)+(2)+(3)-(4)]
DOCKED: USER    Estimated Inhibition Constant, Ki   =   15.67 uM (micromolar)  [Temperature = 298.15 K]
DOCKED: USER    
DOCKED: USER    (1) Final Intermolecular Energy     =  -10.13 kcal/mol
DOCKED: USER        vdW + Hbond + desolv Energy     =   -6.26 kcal/mol
DOCKED: USER        Electrostatic Energy            =   -3.88 kcal/mol
DOCKED: USER    (2) Final Total Internal Energy     =   -2.04 kcal/mol
DOCKED: USER    (3) Torsional Free Energy           =   +3.58 kcal/mol
DOCKED: USER    (4) Unbound System's Energy  [=(2)] =   -2.04 kcal/mol
DOCKED: USER    
DOCKED: USER    
DOCKED: USER    NEWDPF move heme_Co_opt.pdbqt
DOCKED: USER    NEWDPF about 8.781000 34.984000 -0.736000
DOCKED: USER    NEWDPF tran0 -13.321818 1.815404 -3.085580
DOCKED: USER    NEWDPF quaternion0 0.170319 -0.463967 -0.653999 0.572723
DOCKED: USER    NEWDPF axisangle0 0.207769 -0.565986 -0.797804 110.119382
DOCKED: USER    NEWDPF quat0 0.207769 -0.565986 -0.797804 110.119382
DOCKED: USER    NEWDPF dihe0 -111.24 142.09 80.35 -86.33 -92.28 43.83 43.10 -55.61 -112.82 137.14 151.71 178.86 
DOCKED: USER  keepresnum = 1 
DOCKED: USER  
DOCKED: REMARK  12 active torsions:
DOCKED: REMARK  status: ('A' for Active; 'I' for Inactive)
DOCKED: REMARK    1  A    between atoms: C_6  and  C_10 
DOCKED: REMARK    2  A    between atoms: C_10  and  C_11 
DOCKED: REMARK    3  A    between atoms: C_11  and  C_12 
DOCKED: REMARK    4  A    between atoms: C_12  and  O_14 
DOCKED: REMARK    5  A    between atoms: C_17  and  C_20 
DOCKED: REMARK    6  A    between atoms: C_24  and  C_27 
DOCKED: REMARK    7  A    between atoms: C_31  and  C_34 
DOCKED: REMARK    8  A    between atoms: C_34  and  C_35 
DOCKED: REMARK    9  A    between atoms: C_35  and  C_36 
DOCKED: REMARK   10  A    between atoms: C_36  and  O_38 
DOCKED: REMARK   11  A    between atoms: FE_43  and  C_44 
DOCKED: REMARK   12  A    between atoms: C_44  and  O_45 
DOCKED: USER                              x       y       z     vdW  Elec       q    Type
DOCKED: USER                           _______ _______ _______ _____ _____    ______ ____
DOCKED: ROOT
DOCKED: ATOM      1  C   UNL d   1     -13.484   0.033  -1.855 -0.14 +0.06    +0.064 A 
DOCKED: ATOM      2  C   UNL d   1     -10.278   3.542  -1.990 -0.12 +0.01    +0.064 C 
DOCKED: ATOM      3  C   UNL d   1     -12.469   5.450  -5.783 -0.07 -0.02    +0.064 A 
DOCKED: ATOM      4  C   UNL d   1     -15.974   2.095  -5.429 +0.00 +0.02    +0.064 A 
DOCKED: ATOM      5  C   UNL d   1     -12.426   0.832  -1.636 -0.18 +0.05    +0.066 A 
DOCKED: ATOM      6  C   UNL d   1     -11.559   0.640  -0.543 -0.27 -0.01    -0.021 A 
DOCKED: ATOM      7  C   UNL d   1     -10.644   1.674  -0.573 -0.28 -0.01    -0.025 A 
DOCKED: ATOM      8  C   UNL d   1     -10.982   2.443  -1.693 -0.20 +0.02    +0.066 A 
DOCKED: ATOM      9  C   UNL d   1      -9.491   1.942   0.406 -0.29 +0.01    +0.051 C 
DOCKED: ATOM     10  C   UNL d   1     -10.534   4.380  -3.135 -0.22 -0.00    +0.066 A 
DOCKED: ATOM     11  C   UNL d   1      -9.748   5.465  -3.580 -0.36 +0.01    -0.021 A 
DOCKED: ATOM     12  C   UNL d   1     -10.408   6.000  -4.690 -0.27 -0.00    +0.000 A 
DOCKED: ATOM     13  C   UNL d   1     -11.538   5.197  -4.847 -0.12 -0.02    +0.070 A 
DOCKED: ATOM     14  C   UNL d   1      -8.410   5.883  -3.026 -0.48 -0.01    +0.052 C 
DOCKED: ATOM     15  C   UNL d   1     -13.715   4.759  -6.051 -0.01 -0.00    +0.066 A 
DOCKED: ATOM     16  C   UNL d   1     -14.704   5.159  -6.939 -0.00 +0.00    -0.021 A 
DOCKED: ATOM     17  C   UNL d   1     -15.718   4.196  -6.839 +0.00 +0.00    +0.000 A 
DOCKED: ATOM     18  C   UNL d   1     -15.259   3.272  -5.906 +0.01 +0.01    +0.070 A 
DOCKED: ATOM     19  C   UNL d   1     -14.650   6.392  -7.814 -0.01 -0.00    +0.052 C 
DOCKED: ATOM     20  C   UNL d   1     -15.586   1.231  -4.461 -0.01 +0.03    +0.066 A 
DOCKED: ATOM     21  C   UNL d   1     -16.377   0.155  -4.064 -0.02 -0.01    -0.025 A 
DOCKED: ATOM     22  C   UNL d   1     -15.671  -0.475  -3.055 -0.08 -0.02    -0.021 A 
DOCKED: ATOM     23  C   UNL d   1     -14.481   0.261  -2.876 -0.10 +0.05    +0.066 A 
DOCKED: ATOM     24  C   UNL d   1     -17.748  -0.243  -4.605 -0.00 +0.02    +0.051 C 
DOCKED: ATOM     25  N   UNL d   1     -12.078   1.941  -2.373 -0.08 -0.12    -0.248 N 
DOCKED: ATOM     26  N   UNL d   1     -11.583   4.184  -3.941 -0.06 +0.02    -0.248 N 
DOCKED: ATOM     27  N   UNL d   1     -14.077   3.656  -5.435 +0.00 -0.02    -0.248 N 
DOCKED: ATOM     28  N   UNL d   1     -14.426   1.296  -3.724 -0.02 -0.13    -0.248 N 
DOCKED: ATOM     29 FE   UNL d   1     -13.139   2.846  -3.995 -0.02 +0.00    +0.000 Fe
DOCKED: ENDROOT
DOCKED: BRANCH   6  30
DOCKED: ATOM     30  C   UNL d   1     -11.666  -0.445   0.524 -0.31 +0.04    +0.052 C 
DOCKED: BRANCH  30  31
DOCKED: ATOM     31  C   UNL d   1     -11.725   0.176   1.919 -0.28 +0.08    +0.115 C 
DOCKED: BRANCH  31  32
DOCKED: ATOM     32  C   UNL d   1     -12.980   0.995   2.133 -0.21 +0.18    +0.139 C 
DOCKED: ATOM     33  O   UNL d   1     -12.997   2.168   1.794 -0.09 -1.34    -0.650 OA
DOCKED: BRANCH  32  34
DOCKED: ATOM     34  O   UNL d   1     -14.109   0.455   2.647 +0.04 -1.05    -0.776 OA
DOCKED: ATOM     35  H   UNL d   1     -14.943   0.375   2.163 +0.04 +0.30    +0.167 HD
DOCKED: ENDBRANCH  32  34
DOCKED: ENDBRANCH  31  32
DOCKED: ENDBRANCH  30  31
DOCKED: ENDBRANCH   6  30
DOCKED: BRANCH  29  36
DOCKED: ATOM     36  C   UNL d   1     -14.157   3.975  -2.551 -0.09 +0.15    +0.190 C 
DOCKED: BRANCH  36  37
DOCKED: ATOM     37  O   UNL d   1     -15.410   4.150  -1.953 -0.59 -0.54    -0.399 OA
DOCKED: ATOM     38  H   UNL d   1     -15.846   3.254  -2.006 +0.02 +0.33    +0.209 HD
DOCKED: ENDBRANCH  36  37
DOCKED: ENDBRANCH  29  36
DOCKED: BRANCH  22  39
DOCKED: ATOM     39  C   UNL d   1     -16.151  -1.678  -2.265 -0.10 +0.05    +0.052 C 
DOCKED: BRANCH  39  40
DOCKED: ATOM     40  C   UNL d   1     -17.138  -1.248  -1.167 -0.09 +0.11    +0.115 C 
DOCKED: BRANCH  40  41
DOCKED: ATOM     41  C   UNL d   1     -16.666  -0.082  -0.324 +0.07 +0.21    +0.139 C 
DOCKED: ATOM     42  O   UNL d   1     -16.820   1.058  -0.740 -0.16 -1.26    -0.650 OA
DOCKED: BRANCH  41  43
DOCKED: ATOM     43  O   UNL d   1     -16.157  -0.261   0.915 -0.47 -1.32    -0.776 OA
DOCKED: ATOM     44  H   UNL d   1     -15.222  -0.448   1.071 +0.04 +0.27    +0.167 HD
DOCKED: ENDBRANCH  41  43
DOCKED: ENDBRANCH  40  41
DOCKED: ENDBRANCH  39  40
DOCKED: ENDBRANCH  22  39
DOCKED: BRANCH  12  45
DOCKED: ATOM     45  C   UNL d   1     -10.093   7.159  -5.626 -0.33 -0.00    +0.004 C 
DOCKED: ATOM     46  C   UNL d   1     -10.493   8.428  -5.599 -0.39 -0.00    +0.012 C 
DOCKED: ENDBRANCH  12  45
DOCKED: BRANCH  17  47
DOCKED: ATOM     47  C   UNL d   1     -17.050   4.140  -7.511 +0.00 +0.00    +0.004 C 
DOCKED: ATOM     48  C   UNL d   1     -18.210   4.243  -6.858 +0.00 +0.00    +0.012 C 
DOCKED: ENDBRANCH  17  47
DOCKED: TORSDOF 12
DOCKED: TER
DOCKED: ENDMDL
________________________________________________________________________________


	BEGINNING GENETIC ALGORITHM DOCKING 87 of 100
Run: 87 Seed: 704837363 1014327454 [ Run 87 of 100 GA/GALS ]
Beginning LAMARCKIAN GENETIC ALGORITHM (LGA), with a maximum of 25000000 energy evaluations.

Final-Value: -11.489


	FINAL GENETIC ALGORITHM DOCKED STATE
	_______________________________________________


Detailed state:  trans -16.474 -2.248 0.203 quatxyzw -0.178487 -0.197581 0.223165 -0.937711 center 8.781 34.984 -0.736 ntor 12 -121.0607 168.5819 -17.3599 -53.6169 117.1960 58.1758 121.6375 118.7948 82.9071 -140.1920 -2.2697 -20.8195
State:	-16.474  -2.248   0.203  -0.514 -0.569  0.642 -40.659   -121.06  168.58  -17.36  -53.62  117.20   58.18  121.64  118.79   82.91 -140.19   -2.27  -20.82

DOCKED: MODEL       87
DOCKED: USER    Run = 87
DOCKED: USER    DPF = D:/Protein_go_brrr/autodock/final/AncMH_nat/heme_Co/dock.dpf
DOCKED: USER  
DOCKED: USER    Estimated Free Energy of Binding    =   -5.44 kcal/mol  [=(1)+(2)+(3)-(4)]
DOCKED: USER    Estimated Inhibition Constant, Ki   =  103.71 uM (micromolar)  [Temperature = 298.15 K]
DOCKED: USER    
DOCKED: USER    (1) Final Intermolecular Energy     =   -9.01 kcal/mol
DOCKED: USER        vdW + Hbond + desolv Energy     =   -6.85 kcal/mol
DOCKED: USER        Electrostatic Energy            =   -2.16 kcal/mol
DOCKED: USER    (2) Final Total Internal Energy     =   -2.47 kcal/mol
DOCKED: USER    (3) Torsional Free Energy           =   +3.58 kcal/mol
DOCKED: USER    (4) Unbound System's Energy  [=(2)] =   -2.47 kcal/mol
DOCKED: USER    
DOCKED: USER    
DOCKED: USER    NEWDPF move heme_Co_opt.pdbqt
DOCKED: USER    NEWDPF about 8.781000 34.984000 -0.736000
DOCKED: USER    NEWDPF tran0 -16.474427 -2.247906 0.203279
DOCKED: USER    NEWDPF quaternion0 -0.178487 -0.197581 0.223165 -0.937711
DOCKED: USER    NEWDPF axisangle0 -0.513754 -0.568714 0.642356 -40.658838
DOCKED: USER    NEWDPF quat0 -0.513754 -0.568714 0.642356 -40.658838
DOCKED: USER    NEWDPF dihe0 -121.06 168.58 -17.36 -53.62 117.20 58.18 121.64 118.79 82.91 -140.19 -2.27 -20.82 
DOCKED: USER  keepresnum = 1 
DOCKED: USER  
DOCKED: REMARK  12 active torsions:
DOCKED: REMARK  status: ('A' for Active; 'I' for Inactive)
DOCKED: REMARK    1  A    between atoms: C_6  and  C_10 
DOCKED: REMARK    2  A    between atoms: C_10  and  C_11 
DOCKED: REMARK    3  A    between atoms: C_11  and  C_12 
DOCKED: REMARK    4  A    between atoms: C_12  and  O_14 
DOCKED: REMARK    5  A    between atoms: C_17  and  C_20 
DOCKED: REMARK    6  A    between atoms: C_24  and  C_27 
DOCKED: REMARK    7  A    between atoms: C_31  and  C_34 
DOCKED: REMARK    8  A    between atoms: C_34  and  C_35 
DOCKED: REMARK    9  A    between atoms: C_35  and  C_36 
DOCKED: REMARK   10  A    between atoms: C_36  and  O_38 
DOCKED: REMARK   11  A    between atoms: FE_43  and  C_44 
DOCKED: REMARK   12  A    between atoms: C_44  and  O_45 
DOCKED: USER                              x       y       z     vdW  Elec       q    Type
DOCKED: USER                           _______ _______ _______ _____ _____    ______ ____
DOCKED: ROOT
DOCKED: ATOM      1  C   UNL d   1     -17.857  -2.986  -1.300 +0.01 +0.06    +0.064 A 
DOCKED: ATOM      2  C   UNL d   1     -17.577  -3.675   3.397 -0.08 +0.04    +0.064 C 
DOCKED: ATOM      3  C   UNL d   1     -13.498  -1.192   3.556 -0.20 +0.04    +0.064 A 
DOCKED: ATOM      4  C   UNL d   1     -13.964  -0.148  -1.172 -0.14 +0.08    +0.064 A 
DOCKED: ATOM      5  C   UNL d   1     -18.061  -3.388  -0.035 -0.06 +0.06    +0.066 A 
DOCKED: ATOM      6  C   UNL d   1     -19.216  -4.097   0.347 -0.05 -0.01    -0.021 A 
DOCKED: ATOM      7  C   UNL d   1     -19.141  -4.274   1.715 -0.04 -0.01    -0.025 A 
DOCKED: ATOM      8  C   UNL d   1     -17.936  -3.681   2.106 -0.06 +0.05    +0.066 A 
DOCKED: ATOM      9  C   UNL d   1     -20.156  -4.973   2.632 -0.04 +0.02    +0.051 C 
DOCKED: ATOM     10  C   UNL d   1     -16.345  -3.112   3.889 -0.08 +0.04    +0.066 A 
DOCKED: ATOM     11  C   UNL d   1     -15.846  -3.198   5.207 -0.14 -0.01    -0.021 A 
DOCKED: ATOM     12  C   UNL d   1     -14.653  -2.469   5.224 -0.23 +0.00    +0.000 A 
DOCKED: ATOM     13  C   UNL d   1     -14.508  -2.004   3.917 -0.19 +0.04    +0.070 A 
DOCKED: ATOM     14  C   UNL d   1     -16.435  -4.008   6.333 -0.21 +0.02    +0.052 C 
DOCKED: ATOM     15  C   UNL d   1     -13.226  -0.579   2.271 -0.25 +0.06    +0.066 A 
DOCKED: ATOM     16  C   UNL d   1     -12.247   0.367   2.001 -0.29 -0.02    -0.021 A 
DOCKED: ATOM     17  C   UNL d   1     -12.379   0.673   0.639 -0.24 +0.00    +0.000 A 
DOCKED: ATOM     18  C   UNL d   1     -13.420  -0.127   0.180 -0.17 +0.09    +0.070 A 
DOCKED: ATOM     19  C   UNL d   1     -11.264   0.923   3.007 -0.37 +0.03    +0.052 C 
DOCKED: ATOM     20  C   UNL d   1     -15.031  -0.852  -1.621 -0.12 +0.07    +0.066 A 
DOCKED: ATOM     21  C   UNL d   1     -15.481  -0.762  -2.936 -0.10 -0.02    -0.025 A 
DOCKED: ATOM     22  C   UNL d   1     -16.585  -1.592  -3.010 -0.09 -0.02    -0.021 A 
DOCKED: ATOM     23  C   UNL d   1     -16.762  -2.142  -1.722 -0.08 +0.07    +0.066 A 
DOCKED: ATOM     24  C   UNL d   1     -14.901   0.088  -4.063 -0.06 +0.03    +0.051 C 
DOCKED: ATOM     25  N   UNL d   1     -17.243  -3.129   1.042 -0.03 -0.26    -0.248 N 
DOCKED: ATOM     26  N   UNL d   1     -15.502  -2.440   3.098 -0.08 -0.21    -0.248 N 
DOCKED: ATOM     27  N   UNL d   1     -13.921  -0.836   1.185 -0.17 -0.30    -0.248 N 
DOCKED: ATOM     28  N   UNL d   1     -15.825  -1.695  -0.878 -0.04 -0.31    -0.248 N 
DOCKED: ATOM     29 FE   UNL d   1     -15.484  -1.914   1.114 -0.04 +0.00    +0.000 Fe
DOCKED: ENDROOT
DOCKED: BRANCH   6  30
DOCKED: ATOM     30  C   UNL d   1     -20.372  -4.508  -0.558 -0.01 +0.02    +0.052 C 
DOCKED: BRANCH  30  31
DOCKED: ATOM     31  C   UNL d   1     -20.032  -5.791  -1.316 -0.02 +0.05    +0.115 C 
DOCKED: BRANCH  31  32
DOCKED: ATOM     32  C   UNL d   1     -19.559  -5.520  -2.728 -0.03 +0.07    +0.139 C 
DOCKED: ATOM     33  O   UNL d   1     -19.628  -4.386  -3.177 +0.01 -0.28    -0.650 OA
DOCKED: BRANCH  32  34
DOCKED: ATOM     34  O   UNL d   1     -19.014  -6.488  -3.500 +0.01 -0.35    -0.776 OA
DOCKED: ATOM     35  H   UNL d   1     -18.148  -6.421  -3.925 +0.01 +0.09    +0.167 HD
DOCKED: ENDBRANCH  32  34
DOCKED: ENDBRANCH  31  32
DOCKED: ENDBRANCH  30  31
DOCKED: ENDBRANCH   6  30
DOCKED: BRANCH  29  36
DOCKED: ATOM     36  C   UNL d   1     -16.752  -0.299   1.533 -0.09 +0.28    +0.190 C 
DOCKED: BRANCH  36  37
DOCKED: ATOM     37  O   UNL d   1     -17.423   0.775   0.938 -0.43 -0.76    -0.399 OA
DOCKED: ATOM     38  H   UNL d   1     -17.976   0.363   0.217 +0.03 +0.27    +0.209 HD
DOCKED: ENDBRANCH  36  37
DOCKED: ENDBRANCH  29  36
DOCKED: BRANCH  22  39
DOCKED: ATOM     39  C   UNL d   1     -17.456  -1.790  -4.236 -0.03 +0.03    +0.052 C 
DOCKED: BRANCH  39  40
DOCKED: ATOM     40  C   UNL d   1     -16.803  -2.784  -5.211 -0.04 +0.05    +0.115 C 
DOCKED: BRANCH  40  41
DOCKED: ATOM     41  C   UNL d   1     -16.019  -3.892  -4.542 -0.10 +0.11    +0.139 C 
DOCKED: ATOM     42  O   UNL d   1     -14.797  -3.833  -4.520 -0.58 -0.63    -0.650 OA
DOCKED: BRANCH  41  43
DOCKED: ATOM     43  O   UNL d   1     -16.634  -4.904  -3.890 -0.45 -0.90    -0.776 OA
DOCKED: ATOM     44  H   UNL d   1     -17.578  -4.892  -3.686 +0.01 +0.15    +0.167 HD
DOCKED: ENDBRANCH  41  43
DOCKED: ENDBRANCH  40  41
DOCKED: ENDBRANCH  39  40
DOCKED: ENDBRANCH  22  39
DOCKED: BRANCH  12  45
DOCKED: ATOM     45  C   UNL d   1     -13.632  -2.175   6.315 -0.39 +0.00    +0.004 C 
DOCKED: ATOM     46  C   UNL d   1     -13.759  -1.525   7.468 -0.46 +0.00    +0.012 C 
DOCKED: ENDBRANCH  12  45
DOCKED: BRANCH  17  47
DOCKED: ATOM     47  C   UNL d   1     -11.638   1.669  -0.191 -0.29 +0.00    +0.004 C 
DOCKED: ATOM     48  C   UNL d   1     -10.574   1.362  -0.937 -0.35 +0.00    +0.012 C 
DOCKED: ENDBRANCH  17  47
DOCKED: TORSDOF 12
DOCKED: TER
DOCKED: ENDMDL
________________________________________________________________________________


	BEGINNING GENETIC ALGORITHM DOCKING 88 of 100
Run: 88 Seed: 1887551308 2061353599 [ Run 88 of 100 GA/GALS ]
Beginning LAMARCKIAN GENETIC ALGORITHM (LGA), with a maximum of 25000000 energy evaluations.

Final-Value: -11.430


	FINAL GENETIC ALGORITHM DOCKED STATE
	_______________________________________________


Detailed state:  trans -15.033 -0.959 -1.742 quatxyzw 0.390970 -0.229548 -0.290179 0.842761 center 8.781 34.984 -0.736 ntor 12 -141.1050 135.6311 -124.4880 48.2477 72.8408 105.3944 -14.1173 128.0147 -149.4525 122.4534 165.3359 16.2880
State:	-15.033  -0.959  -1.742   0.726 -0.426 -0.539 65.134   -141.10  135.63 -124.49   48.25   72.84  105.39  -14.12  128.01 -149.45  122.45  165.34   16.29

DOCKED: MODEL       88
DOCKED: USER    Run = 88
DOCKED: USER    DPF = D:/Protein_go_brrr/autodock/final/AncMH_nat/heme_Co/dock.dpf
DOCKED: USER  
DOCKED: USER    Estimated Free Energy of Binding    =   -6.20 kcal/mol  [=(1)+(2)+(3)-(4)]
DOCKED: USER    Estimated Inhibition Constant, Ki   =   28.64 uM (micromolar)  [Temperature = 298.15 K]
DOCKED: USER    
DOCKED: USER    (1) Final Intermolecular Energy     =   -9.78 kcal/mol
DOCKED: USER        vdW + Hbond + desolv Energy     =   -6.85 kcal/mol
DOCKED: USER        Electrostatic Energy            =   -2.93 kcal/mol
DOCKED: USER    (2) Final Total Internal Energy     =   -1.65 kcal/mol
DOCKED: USER    (3) Torsional Free Energy           =   +3.58 kcal/mol
DOCKED: USER    (4) Unbound System's Energy  [=(2)] =   -1.65 kcal/mol
DOCKED: USER    
DOCKED: USER    
DOCKED: USER    NEWDPF move heme_Co_opt.pdbqt
DOCKED: USER    NEWDPF about 8.781000 34.984000 -0.736000
DOCKED: USER    NEWDPF tran0 -15.033106 -0.958768 -1.742403
DOCKED: USER    NEWDPF quaternion0 0.390970 -0.229548 -0.290179 0.842761
DOCKED: USER    NEWDPF axisangle0 0.726321 -0.426441 -0.539078 65.134312
DOCKED: USER    NEWDPF quat0 0.726321 -0.426441 -0.539078 65.134312
DOCKED: USER    NEWDPF dihe0 -141.10 135.63 -124.49 48.25 72.84 105.39 -14.12 128.01 -149.45 122.45 165.34 16.29 
DOCKED: USER  keepresnum = 1 
DOCKED: USER  
DOCKED: REMARK  12 active torsions:
DOCKED: REMARK  status: ('A' for Active; 'I' for Inactive)
DOCKED: REMARK    1  A    between atoms: C_6  and  C_10 
DOCKED: REMARK    2  A    between atoms: C_10  and  C_11 
DOCKED: REMARK    3  A    between atoms: C_11  and  C_12 
DOCKED: REMARK    4  A    between atoms: C_12  and  O_14 
DOCKED: REMARK    5  A    between atoms: C_17  and  C_20 
DOCKED: REMARK    6  A    between atoms: C_24  and  C_27 
DOCKED: REMARK    7  A    between atoms: C_31  and  C_34 
DOCKED: REMARK    8  A    between atoms: C_34  and  C_35 
DOCKED: REMARK    9  A    between atoms: C_35  and  C_36 
DOCKED: REMARK   10  A    between atoms: C_36  and  O_38 
DOCKED: REMARK   11  A    between atoms: FE_43  and  C_44 
DOCKED: REMARK   12  A    between atoms: C_44  and  O_45 
DOCKED: USER                              x       y       z     vdW  Elec       q    Type
DOCKED: USER                           _______ _______ _______ _____ _____    ______ ____
DOCKED: ROOT
DOCKED: ATOM      1  C   UNL d   1     -16.908  -1.969  -1.318 -0.09 +0.07    +0.064 A 
DOCKED: ATOM      2  C   UNL d   1     -13.618  -0.019   1.508 -0.22 +0.09    +0.064 C 
DOCKED: ATOM      3  C   UNL d   1     -10.835   0.860  -2.276 -0.24 +0.02    +0.064 A 
DOCKED: ATOM      4  C   UNL d   1     -14.345  -0.776  -5.220 -0.05 +0.02    +0.064 A 
DOCKED: ATOM      5  C   UNL d   1     -16.198  -1.533  -0.264 -0.13 +0.08    +0.066 A 
DOCKED: ATOM      6  C   UNL d   1     -16.715  -1.553   1.046 -0.12 -0.02    -0.021 A 
DOCKED: ATOM      7  C   UNL d   1     -15.765  -0.965   1.858 -0.16 -0.03    -0.025 A 
DOCKED: ATOM      8  C   UNL d   1     -14.703  -0.627   1.013 -0.15 +0.10    +0.066 A 
DOCKED: ATOM      9  C   UNL d   1     -15.841  -0.723   3.374 -0.09 +0.05    +0.051 C 
DOCKED: ATOM     10  C   UNL d   1     -12.466   0.343   0.720 -0.22 +0.07    +0.066 A 
DOCKED: ATOM     11  C   UNL d   1     -11.241   0.854   1.202 -0.29 -0.01    -0.021 A 
DOCKED: ATOM     12  C   UNL d   1     -10.447   1.098   0.078 -0.33 +0.00    +0.000 A 
DOCKED: ATOM     13  C   UNL d   1     -11.238   0.706  -1.002 -0.24 +0.04    +0.070 A 
DOCKED: ATOM     14  C   UNL d   1     -10.843   1.002   2.648 -0.35 +0.02    +0.052 C 
DOCKED: ATOM     15  C   UNL d   1     -11.541   0.560  -3.506 -0.23 +0.02    +0.066 A 
DOCKED: ATOM     16  C   UNL d   1     -11.125   0.877  -4.792 -0.25 +0.00    -0.021 A 
DOCKED: ATOM     17  C   UNL d   1     -12.136   0.410  -5.644 -0.13 +0.00    +0.000 A 
DOCKED: ATOM     18  C   UNL d   1     -13.083  -0.173  -4.810 -0.10 +0.02    +0.070 A 
DOCKED: ATOM     19  C   UNL d   1      -9.837   1.586  -5.147 -0.31 -0.02    +0.052 C 
DOCKED: ATOM     20  C   UNL d   1     -15.321  -1.271  -4.422 -0.07 +0.04    +0.066 A 
DOCKED: ATOM     21  C   UNL d   1     -16.507  -1.792  -4.933 -0.04 -0.01    -0.025 A 
DOCKED: ATOM     22  C   UNL d   1     -17.254  -2.171  -3.832 -0.06 -0.01    -0.021 A 
DOCKED: ATOM     23  C   UNL d   1     -16.484  -1.848  -2.694 -0.09 +0.06    +0.066 A 
DOCKED: ATOM     24  C   UNL d   1     -16.919  -1.906  -6.398 -0.01 +0.01    +0.051 C 
DOCKED: ATOM     25  N   UNL d   1     -14.941  -0.973  -0.306 -0.13 -0.33    -0.248 N 
DOCKED: ATOM     26  N   UNL d   1     -12.436   0.198  -0.609 -0.14 -0.23    -0.248 N 
DOCKED: ATOM     27  N   UNL d   1     -12.710  -0.039  -3.542 -0.10 -0.11    -0.248 N 
DOCKED: ATOM     28  N   UNL d   1     -15.315  -1.301  -3.046 -0.09 -0.20    -0.248 N 
DOCKED: ATOM     29 FE   UNL d   1     -13.762  -0.480  -2.022 -0.04 +0.00    +0.000 Fe
DOCKED: ENDROOT
DOCKED: BRANCH   6  30
DOCKED: ATOM     30  C   UNL d   1     -18.095  -2.042   1.471 -0.05 +0.04    +0.052 C 
DOCKED: BRANCH  30  31
DOCKED: ATOM     31  C   UNL d   1     -18.967  -0.869   1.918 -0.05 +0.11    +0.115 C 
DOCKED: BRANCH  31  32
DOCKED: ATOM     32  C   UNL d   1     -18.593   0.424   1.226 -0.10 +0.19    +0.139 C 
DOCKED: ATOM     33  O   UNL d   1     -18.652   1.476   1.846 -0.46 -1.37    -0.650 OA
DOCKED: BRANCH  32  34
DOCKED: ATOM     34  O   UNL d   1     -18.146   0.452  -0.051 -0.02 -0.95    -0.776 OA
DOCKED: ATOM     35  H   UNL d   1     -17.482   1.072  -0.381 +0.02 +0.28    +0.167 HD
DOCKED: ENDBRANCH  32  34
DOCKED: ENDBRANCH  31  32
DOCKED: ENDBRANCH  30  31
DOCKED: ENDBRANCH   6  30
DOCKED: BRANCH  29  36
DOCKED: ATOM     36  C   UNL d   1     -14.725   1.382  -2.009 -0.03 +0.25    +0.190 C 
DOCKED: BRANCH  36  37
DOCKED: ATOM     37  O   UNL d   1     -15.986   1.984  -1.942 -0.06 -0.62    -0.399 OA
DOCKED: ATOM     38  H   UNL d   1     -16.574   1.300  -1.517 +0.02 +0.32    +0.209 HD
DOCKED: ENDBRANCH  36  37
DOCKED: ENDBRANCH  29  36
DOCKED: BRANCH  22  39
DOCKED: ATOM     39  C   UNL d   1     -18.655  -2.750  -3.876 -0.02 +0.02    +0.052 C 
DOCKED: BRANCH  39  40
DOCKED: ATOM     40  C   UNL d   1     -18.673  -4.173  -3.295 -0.05 +0.07    +0.115 C 
DOCKED: BRANCH  40  41
DOCKED: ATOM     41  C   UNL d   1     -17.842  -5.175  -4.068 -0.04 +0.09    +0.139 C 
DOCKED: ATOM     42  O   UNL d   1     -18.378  -5.858  -4.930 +0.00 -0.26    -0.650 OA
DOCKED: BRANCH  41  43
DOCKED: ATOM     43  O   UNL d   1     -16.506  -5.274  -3.894 -0.50 -0.96    -0.776 OA
DOCKED: ATOM     44  H   UNL d   1     -15.875  -5.107  -4.607 +0.02 +0.15    +0.167 HD
DOCKED: ENDBRANCH  41  43
DOCKED: ENDBRANCH  40  41
DOCKED: ENDBRANCH  39  40
DOCKED: ENDBRANCH  22  39
DOCKED: BRANCH  12  45
DOCKED: ATOM     45  C   UNL d   1      -9.033   1.634  -0.098 -0.37 +0.00    +0.004 C 
DOCKED: ATOM     46  C   UNL d   1      -7.927   1.409   0.607 -0.47 +0.00    +0.012 C 
DOCKED: ENDBRANCH  12  45
DOCKED: BRANCH  17  47
DOCKED: ATOM     47  C   UNL d   1     -12.262   0.528  -7.128 -0.09 -0.00    +0.004 C 
DOCKED: ATOM     48  C   UNL d   1     -11.295   0.182  -7.980 -0.14 -0.00    +0.012 C 
DOCKED: ENDBRANCH  17  47
DOCKED: TORSDOF 12
DOCKED: TER
DOCKED: ENDMDL
________________________________________________________________________________


	BEGINNING GENETIC ALGORITHM DOCKING 89 of 100
Run: 89 Seed: 1823471045 1781305352 [ Run 89 of 100 GA/GALS ]
Beginning LAMARCKIAN GENETIC ALGORITHM (LGA), with a maximum of 25000000 energy evaluations.

Final-Value: -10.922


	FINAL GENETIC ALGORITHM DOCKED STATE
	_______________________________________________


Detailed state:  trans -19.381 10.089 6.772 quatxyzw -0.495674 -0.256807 0.561410 -0.610882 center 8.781 34.984 -0.736 ntor 12 -142.3940 111.2181 -6.6577 116.9437 -92.1827 124.6560 50.4082 158.8819 -116.4823 21.0350 -172.0137 -171.1355
State:	-19.381  10.089   6.772  -0.626 -0.324  0.709 -104.693   -142.39  111.22   -6.66  116.94  -92.18  124.66   50.41  158.88 -116.48   21.03 -172.01 -171.14

DOCKED: MODEL       89
DOCKED: USER    Run = 89
DOCKED: USER    DPF = D:/Protein_go_brrr/autodock/final/AncMH_nat/heme_Co/dock.dpf
DOCKED: USER  
DOCKED: USER    Estimated Free Energy of Binding    =   -4.94 kcal/mol  [=(1)+(2)+(3)-(4)]
DOCKED: USER    Estimated Inhibition Constant, Ki   =  238.42 uM (micromolar)  [Temperature = 298.15 K]
DOCKED: USER    
DOCKED: USER    (1) Final Intermolecular Energy     =   -8.52 kcal/mol
DOCKED: USER        vdW + Hbond + desolv Energy     =   -5.83 kcal/mol
DOCKED: USER        Electrostatic Energy            =   -2.70 kcal/mol
DOCKED: USER    (2) Final Total Internal Energy     =   -2.40 kcal/mol
DOCKED: USER    (3) Torsional Free Energy           =   +3.58 kcal/mol
DOCKED: USER    (4) Unbound System's Energy  [=(2)] =   -2.40 kcal/mol
DOCKED: USER    
DOCKED: USER    
DOCKED: USER    NEWDPF move heme_Co_opt.pdbqt
DOCKED: USER    NEWDPF about 8.781000 34.984000 -0.736000
DOCKED: USER    NEWDPF tran0 -19.381240 10.088829 6.772053
DOCKED: USER    NEWDPF quaternion0 -0.495674 -0.256807 0.561410 -0.610882
DOCKED: USER    NEWDPF axisangle0 -0.626071 -0.324366 0.709100 -104.693462
DOCKED: USER    NEWDPF quat0 -0.626071 -0.324366 0.709100 -104.693462
DOCKED: USER    NEWDPF dihe0 -142.39 111.22 -6.66 116.94 -92.18 124.66 50.41 158.88 -116.48 21.03 -172.01 -171.14 
DOCKED: USER  keepresnum = 1 
DOCKED: USER  
DOCKED: REMARK  12 active torsions:
DOCKED: REMARK  status: ('A' for Active; 'I' for Inactive)
DOCKED: REMARK    1  A    between atoms: C_6  and  C_10 
DOCKED: REMARK    2  A    between atoms: C_10  and  C_11 
DOCKED: REMARK    3  A    between atoms: C_11  and  C_12 
DOCKED: REMARK    4  A    between atoms: C_12  and  O_14 
DOCKED: REMARK    5  A    between atoms: C_17  and  C_20 
DOCKED: REMARK    6  A    between atoms: C_24  and  C_27 
DOCKED: REMARK    7  A    between atoms: C_31  and  C_34 
DOCKED: REMARK    8  A    between atoms: C_34  and  C_35 
DOCKED: REMARK    9  A    between atoms: C_35  and  C_36 
DOCKED: REMARK   10  A    between atoms: C_36  and  O_38 
DOCKED: REMARK   11  A    between atoms: FE_43  and  C_44 
DOCKED: REMARK   12  A    between atoms: C_44  and  O_45 
DOCKED: USER                              x       y       z     vdW  Elec       q    Type
DOCKED: USER                           _______ _______ _______ _____ _____    ______ ____
DOCKED: ROOT
DOCKED: ATOM      1  C   UNL d   1     -19.317   7.939   6.476 -0.06 +0.02    +0.064 A 
DOCKED: ATOM      2  C   UNL d   1     -21.121  10.631   9.955 -0.10 +0.01    +0.064 C 
DOCKED: ATOM      3  C   UNL d   1     -19.332  14.555   7.897 -0.08 -0.00    +0.064 A 
DOCKED: ATOM      4  C   UNL d   1     -17.813  11.873   4.134 -0.24 -0.01    +0.064 A 
DOCKED: ATOM      5  C   UNL d   1     -19.910   8.382   7.596 -0.23 +0.02    +0.066 A 
DOCKED: ATOM      6  C   UNL d   1     -20.625   7.523   8.453 -0.24 -0.01    -0.021 A 
DOCKED: ATOM      7  C   UNL d   1     -21.166   8.313   9.449 -0.15 -0.01    -0.025 A 
DOCKED: ATOM      8  C   UNL d   1     -20.744   9.617   9.166 -0.15 +0.01    +0.066 A 
DOCKED: ATOM      9  C   UNL d   1     -22.048   7.873  10.627 -0.09 +0.01    +0.051 C 
DOCKED: ATOM     10  C   UNL d   1     -20.715  12.001   9.758 -0.07 +0.01    +0.066 A 
DOCKED: ATOM     11  C   UNL d   1     -20.960  13.086  10.627 -0.03 -0.00    -0.021 A 
DOCKED: ATOM     12  C   UNL d   1     -20.424  14.217  10.004 -0.03 +0.00    +0.000 A 
DOCKED: ATOM     13  C   UNL d   1     -19.883  13.737   8.811 -0.08 +0.00    +0.070 A 
DOCKED: ATOM     14  C   UNL d   1     -21.580  13.009  11.998 -0.01 +0.01    +0.052 C 
DOCKED: ATOM     15  C   UNL d   1     -18.776  14.238   6.596 -0.10 -0.01    +0.066 A 
DOCKED: ATOM     16  C   UNL d   1     -18.355  15.148   5.637 -0.09 +0.00    -0.021 A 
DOCKED: ATOM     17  C   UNL d   1     -17.918  14.379   4.549 -0.16 -0.00    +0.000 A 
DOCKED: ATOM     18  C   UNL d   1     -18.092  13.056   4.938 -0.18 -0.01    +0.070 A 
DOCKED: ATOM     19  C   UNL d   1     -18.384  16.653   5.784 -0.03 -0.01    +0.052 C 
DOCKED: ATOM     20  C   UNL d   1     -18.054  10.580   4.458 -0.27 +0.00    +0.066 A 
DOCKED: ATOM     21  C   UNL d   1     -17.776   9.530   3.585 -0.29 -0.00    -0.025 A 
DOCKED: ATOM     22  C   UNL d   1     -18.172   8.381   4.244 -0.34 -0.01    -0.021 A 
DOCKED: ATOM     23  C   UNL d   1     -18.688   8.791   5.492 -0.31 +0.02    +0.066 A 
DOCKED: ATOM     24  C   UNL d   1     -17.180   9.618   2.182 -0.31 -0.00    +0.051 C 
DOCKED: ATOM     25  N   UNL d   1     -19.959   9.688   8.027 -0.16 -0.05    -0.248 N 
DOCKED: ATOM     26  N   UNL d   1     -20.009  12.389   8.690 -0.08 -0.02    -0.248 N 
DOCKED: ATOM     27  N   UNL d   1     -18.633  13.010   6.151 -0.09 +0.01    -0.248 N 
DOCKED: ATOM     28  N   UNL d   1     -18.621  10.121   5.624 -0.18 -0.05    -0.248 N 
DOCKED: ATOM     29 FE   UNL d   1     -19.255  11.445   7.031 -0.04 +0.00    +0.000 Fe
DOCKED: ENDROOT
DOCKED: BRANCH   6  30
DOCKED: ATOM     30  C   UNL d   1     -20.841   6.025   8.267 -0.17 +0.02    +0.052 C 
DOCKED: BRANCH  30  31
DOCKED: ATOM     31  C   UNL d   1     -22.083   5.763   7.416 -0.14 +0.05    +0.115 C 
DOCKED: BRANCH  31  32
DOCKED: ATOM     32  C   UNL d   1     -21.964   6.346   6.025 -0.13 +0.08    +0.139 C 
DOCKED: ATOM     33  O   UNL d   1     -22.155   7.541   5.856 +0.01 -0.23    -0.650 OA
DOCKED: BRANCH  32  34
DOCKED: ATOM     34  O   UNL d   1     -21.603   5.593   4.960 -0.11 -0.85    -0.776 OA
DOCKED: ATOM     35  H   UNL d   1     -21.084   5.921   4.213 +0.02 +0.19    +0.167 HD
DOCKED: ENDBRANCH  32  34
DOCKED: ENDBRANCH  31  32
DOCKED: ENDBRANCH  30  31
DOCKED: ENDBRANCH   6  30
DOCKED: BRANCH  29  36
DOCKED: ATOM     36  C   UNL d   1     -21.140  11.547   6.119 -0.03 +0.02    +0.190 C 
DOCKED: BRANCH  36  37
DOCKED: ATOM     37  O   UNL d   1     -22.205  10.759   5.672 +0.00 -0.05    -0.399 OA
DOCKED: ATOM     38  H   UNL d   1     -21.920   9.819   5.847 +0.03 +0.03    +0.209 HD
DOCKED: ENDBRANCH  36  37
DOCKED: ENDBRANCH  29  36
DOCKED: BRANCH  22  39
DOCKED: ATOM     39  C   UNL d   1     -18.116   6.976   3.675 -0.31 +0.03    +0.052 C 
DOCKED: BRANCH  39  40
DOCKED: ATOM     40  C   UNL d   1     -19.154   6.803   2.553 -0.19 +0.08    +0.115 C 
DOCKED: BRANCH  40  41
DOCKED: ATOM     41  C   UNL d   1     -19.433   5.364   2.177 -0.14 +0.17    +0.139 C 
DOCKED: ATOM     42  O   UNL d   1     -18.531   4.680   1.714 -0.09 -0.96    -0.650 OA
DOCKED: BRANCH  41  43
DOCKED: ATOM     43  O   UNL d   1     -20.631   4.786   2.419 -0.17 -1.47    -0.776 OA
DOCKED: ATOM     44  H   UNL d   1     -21.359   5.258   2.843 +0.01 +0.25    +0.167 HD
DOCKED: ENDBRANCH  41  43
DOCKED: ENDBRANCH  40  41
DOCKED: ENDBRANCH  39  40
DOCKED: ENDBRANCH  22  39
DOCKED: BRANCH  12  45
DOCKED: ATOM     45  C   UNL d   1     -20.346  15.684  10.405 -0.01 -0.00    +0.004 C 
DOCKED: ATOM     46  C   UNL d   1     -19.308  16.422  10.789 -0.01 -0.00    +0.012 C 
DOCKED: ENDBRANCH  12  45
DOCKED: BRANCH  17  47
DOCKED: ATOM     47  C   UNL d   1     -17.418  14.817   3.211 -0.08 -0.00    +0.004 C 
DOCKED: ATOM     48  C   UNL d   1     -18.067  14.581   2.068 -0.12 -0.01    +0.012 C 
DOCKED: ENDBRANCH  17  47
DOCKED: TORSDOF 12
DOCKED: TER
DOCKED: ENDMDL
________________________________________________________________________________


	BEGINNING GENETIC ALGORITHM DOCKING 90 of 100
Run: 90 Seed: 1330700260 1393034477 [ Run 90 of 100 GA/GALS ]
Beginning LAMARCKIAN GENETIC ALGORITHM (LGA), with a maximum of 25000000 energy evaluations.

Final-Value: -11.502


	FINAL GENETIC ALGORITHM DOCKED STATE
	_______________________________________________


Detailed state:  trans -16.389 -2.106 1.334 quatxyzw 0.204976 0.192915 -0.188252 0.940920 center 8.781 34.984 -0.736 ntor 12 151.2079 152.4941 67.1184 -101.9383 116.4677 116.9739 -128.7072 -149.0523 -130.4588 117.9320 -178.0379 23.5577
State:	-16.389  -2.106   1.334   0.605  0.570 -0.556 39.587    151.21  152.49   67.12 -101.94  116.47  116.97 -128.71 -149.05 -130.46  117.93 -178.04   23.56

DOCKED: MODEL       90
DOCKED: USER    Run = 90
DOCKED: USER    DPF = D:/Protein_go_brrr/autodock/final/AncMH_nat/heme_Co/dock.dpf
DOCKED: USER  
DOCKED: USER    Estimated Free Energy of Binding    =   -5.65 kcal/mol  [=(1)+(2)+(3)-(4)]
DOCKED: USER    Estimated Inhibition Constant, Ki   =   72.57 uM (micromolar)  [Temperature = 298.15 K]
DOCKED: USER    
DOCKED: USER    (1) Final Intermolecular Energy     =   -9.23 kcal/mol
DOCKED: USER        vdW + Hbond + desolv Energy     =   -6.87 kcal/mol
DOCKED: USER        Electrostatic Energy            =   -2.36 kcal/mol
DOCKED: USER    (2) Final Total Internal Energy     =   -2.28 kcal/mol
DOCKED: USER    (3) Torsional Free Energy           =   +3.58 kcal/mol
DOCKED: USER    (4) Unbound System's Energy  [=(2)] =   -2.28 kcal/mol
DOCKED: USER    
DOCKED: USER    
DOCKED: USER    NEWDPF move heme_Co_opt.pdbqt
DOCKED: USER    NEWDPF about 8.781000 34.984000 -0.736000
DOCKED: USER    NEWDPF tran0 -16.388916 -2.106289 1.334030
DOCKED: USER    NEWDPF quaternion0 0.204976 0.192915 -0.188252 0.940920
DOCKED: USER    NEWDPF axisangle0 0.605310 0.569693 -0.555922 39.586881
DOCKED: USER    NEWDPF quat0 0.605310 0.569693 -0.555922 39.586881
DOCKED: USER    NEWDPF dihe0 151.21 152.49 67.12 -101.94 116.47 116.97 -128.71 -149.05 -130.46 117.93 -178.04 23.56 
DOCKED: USER  keepresnum = 1 
DOCKED: USER  
DOCKED: REMARK  12 active torsions:
DOCKED: REMARK  status: ('A' for Active; 'I' for Inactive)
DOCKED: REMARK    1  A    between atoms: C_6  and  C_10 
DOCKED: REMARK    2  A    between atoms: C_10  and  C_11 
DOCKED: REMARK    3  A    between atoms: C_11  and  C_12 
DOCKED: REMARK    4  A    between atoms: C_12  and  O_14 
DOCKED: REMARK    5  A    between atoms: C_17  and  C_20 
DOCKED: REMARK    6  A    between atoms: C_24  and  C_27 
DOCKED: REMARK    7  A    between atoms: C_31  and  C_34 
DOCKED: REMARK    8  A    between atoms: C_34  and  C_35 
DOCKED: REMARK    9  A    between atoms: C_35  and  C_36 
DOCKED: REMARK   10  A    between atoms: C_36  and  O_38 
DOCKED: REMARK   11  A    between atoms: FE_43  and  C_44 
DOCKED: REMARK   12  A    between atoms: C_44  and  O_45 
DOCKED: USER                              x       y       z     vdW  Elec       q    Type
DOCKED: USER                           _______ _______ _______ _____ _____    ______ ____
DOCKED: ROOT
DOCKED: ATOM      1  C   UNL d   1     -17.806  -2.789  -0.163 -0.06 +0.06    +0.064 A 
DOCKED: ATOM      2  C   UNL d   1     -17.642  -3.322   4.559 -0.08 +0.03    +0.064 C 
DOCKED: ATOM      3  C   UNL d   1     -13.382  -1.163   4.693 -0.21 +0.03    +0.064 A 
DOCKED: ATOM      4  C   UNL d   1     -13.703  -0.263  -0.077 -0.19 +0.09    +0.064 A 
DOCKED: ATOM      5  C   UNL d   1     -18.057  -3.126   1.113 -0.06 +0.06    +0.066 A 
DOCKED: ATOM      6  C   UNL d   1     -19.270  -3.727   1.502 -0.02 -0.01    -0.021 A 
DOCKED: ATOM      7  C   UNL d   1     -19.227  -3.859   2.876 -0.02 -0.01    -0.025 A 
DOCKED: ATOM      8  C   UNL d   1     -17.984  -3.348   3.265 -0.03 +0.04    +0.066 A 
DOCKED: ATOM      9  C   UNL d   1     -20.306  -4.441   3.802 -0.06 +0.02    +0.051 C 
DOCKED: ATOM     10  C   UNL d   1     -16.376  -2.840   5.050 -0.09 +0.03    +0.066 A 
DOCKED: ATOM     11  C   UNL d   1     -15.901  -2.915   6.378 -0.18 -0.01    -0.021 A 
DOCKED: ATOM     12  C   UNL d   1     -14.656  -2.282   6.388 -0.28 +0.00    +0.000 A 
DOCKED: ATOM     13  C   UNL d   1     -14.457  -1.879   5.067 -0.19 +0.03    +0.070 A 
DOCKED: ATOM     14  C   UNL d   1     -16.567  -3.634   7.524 -0.28 +0.01    +0.052 C 
DOCKED: ATOM     15  C   UNL d   1     -13.045  -0.623   3.390 -0.23 +0.04    +0.066 A 
DOCKED: ATOM     16  C   UNL d   1     -11.991   0.233   3.102 -0.29 -0.01    -0.021 A 
DOCKED: ATOM     17  C   UNL d   1     -12.081   0.497   1.728 -0.30 +0.00    +0.000 A 
DOCKED: ATOM     18  C   UNL d   1     -13.176  -0.234   1.282 -0.23 +0.08    +0.070 A 
DOCKED: ATOM     19  C   UNL d   1     -10.980   0.747   4.102 -0.30 +0.02    +0.052 C 
DOCKED: ATOM     20  C   UNL d   1     -14.816  -0.897  -0.516 -0.12 +0.09    +0.066 A 
DOCKED: ATOM     21  C   UNL d   1     -15.241  -0.822  -1.841 -0.13 -0.03    -0.025 A 
DOCKED: ATOM     22  C   UNL d   1     -16.406  -1.564  -1.902 -0.11 -0.02    -0.021 A 
DOCKED: ATOM     23  C   UNL d   1     -16.643  -2.050  -0.598 -0.04 +0.08    +0.066 A 
DOCKED: ATOM     24  C   UNL d   1     -14.581  -0.063  -2.989 -0.12 +0.04    +0.051 C 
DOCKED: ATOM     25  N   UNL d   1     -17.236  -2.892   2.192 -0.04 -0.21    -0.248 N 
DOCKED: ATOM     26  N   UNL d   1     -15.471  -2.267   4.249 -0.06 -0.15    -0.248 N 
DOCKED: ATOM     27  N   UNL d   1     -13.744  -0.864   2.304 -0.16 -0.24    -0.248 N 
DOCKED: ATOM     28  N   UNL d   1     -15.684  -1.647   0.244 -0.10 -0.32    -0.248 N 
DOCKED: ATOM     29 FE   UNL d   1     -15.386  -1.818   2.248 -0.04 +0.00    +0.000 Fe
DOCKED: ENDROOT
DOCKED: BRANCH   6  30
DOCKED: ATOM     30  C   UNL d   1     -20.444  -4.079   0.593 -0.00 +0.02    +0.052 C 
DOCKED: BRANCH  30  31
DOCKED: ATOM     31  C   UNL d   1     -21.469  -2.946   0.577 +0.01 +0.05    +0.115 C 
DOCKED: BRANCH  31  32
DOCKED: ATOM     32  C   UNL d   1     -20.828  -1.591   0.366 +0.01 +0.08    +0.139 C 
DOCKED: ATOM     33  O   UNL d   1     -20.875  -1.070  -0.738 +0.03 -0.32    -0.650 OA
DOCKED: BRANCH  32  34
DOCKED: ATOM     34  O   UNL d   1     -20.243  -0.908   1.377 +0.04 -0.63    -0.776 OA
DOCKED: ATOM     35  H   UNL d   1     -19.475  -0.330   1.270 +0.02 +0.17    +0.167 HD
DOCKED: ENDBRANCH  32  34
DOCKED: ENDBRANCH  31  32
DOCKED: ENDBRANCH  30  31
DOCKED: ENDBRANCH   6  30
DOCKED: BRANCH  29  36
DOCKED: ATOM     36  C   UNL d   1     -16.528  -0.093   2.588 -0.12 +0.26    +0.190 C 
DOCKED: BRANCH  36  37
DOCKED: ATOM     37  O   UNL d   1     -17.725   0.539   2.235 -0.21 -0.64    -0.399 OA
DOCKED: ATOM     38  H   UNL d   1     -18.398  -0.196   2.184 +0.04 +0.26    +0.209 HD
DOCKED: ENDBRANCH  36  37
DOCKED: ENDBRANCH  29  36
DOCKED: BRANCH  22  39
DOCKED: ATOM     39  C   UNL d   1     -17.275  -1.739  -3.134 -0.07 +0.03    +0.052 C 
DOCKED: BRANCH  39  40
DOCKED: ATOM     40  C   UNL d   1     -17.482  -3.231  -3.445 -0.08 +0.09    +0.115 C 
DOCKED: BRANCH  40  41
DOCKED: ATOM     41  C   UNL d   1     -16.230  -3.956  -3.892 +0.02 +0.15    +0.139 C 
DOCKED: ATOM     42  O   UNL d   1     -15.230  -3.308  -4.169 -0.34 -0.68    -0.650 OA
DOCKED: BRANCH  41  43
DOCKED: ATOM     43  O   UNL d   1     -16.159  -5.305  -3.910 -0.50 -1.06    -0.776 OA
DOCKED: ATOM     44  H   UNL d   1     -16.613  -5.840  -4.574 +0.01 +0.13    +0.167 HD
DOCKED: ENDBRANCH  41  43
DOCKED: ENDBRANCH  40  41
DOCKED: ENDBRANCH  39  40
DOCKED: ENDBRANCH  22  39
DOCKED: BRANCH  12  45
DOCKED: ATOM     45  C   UNL d   1     -13.628  -2.029   7.483 -0.45 +0.00    +0.004 C 
DOCKED: ATOM     46  C   UNL d   1     -13.255  -0.898   8.076 -0.52 +0.00    +0.012 C 
DOCKED: ENDBRANCH  12  45
DOCKED: BRANCH  17  47
DOCKED: ATOM     47  C   UNL d   1     -11.253   1.400   0.874 -0.34 +0.00    +0.004 C 
DOCKED: ATOM     48  C   UNL d   1     -10.198   0.986   0.168 -0.39 +0.00    +0.012 C 
DOCKED: ENDBRANCH  17  47
DOCKED: TORSDOF 12
DOCKED: TER
DOCKED: ENDMDL
________________________________________________________________________________


	BEGINNING GENETIC ALGORITHM DOCKING 91 of 100
Run: 91 Seed: 1029588705 824810490 [ Run 91 of 100 GA/GALS ]
Beginning LAMARCKIAN GENETIC ALGORITHM (LGA), with a maximum of 25000000 energy evaluations.

Final-Value: -10.095


	FINAL GENETIC ALGORITHM DOCKED STATE
	_______________________________________________


Detailed state:  trans -15.967 -0.536 -2.813 quatxyzw 0.946344 0.199413 -0.005388 -0.254242 center 8.781 34.984 -0.736 ntor 12 105.7212 114.1912 -47.0768 -107.0703 147.5858 140.2522 -124.1687 -173.3680 -122.9982 140.3542 176.6062 7.7367
State:	-15.967  -0.536  -2.813   0.978  0.206 -0.006 -150.543    105.72  114.19  -47.08 -107.07  147.59  140.25 -124.17 -173.37 -123.00  140.35  176.61    7.74

DOCKED: MODEL       91
DOCKED: USER    Run = 91
DOCKED: USER    DPF = D:/Protein_go_brrr/autodock/final/AncMH_nat/heme_Co/dock.dpf
DOCKED: USER  
DOCKED: USER    Estimated Free Energy of Binding    =   -4.40 kcal/mol  [=(1)+(2)+(3)-(4)]
DOCKED: USER    Estimated Inhibition Constant, Ki   =  592.64 uM (micromolar)  [Temperature = 298.15 K]
DOCKED: USER    
DOCKED: USER    (1) Final Intermolecular Energy     =   -7.98 kcal/mol
DOCKED: USER        vdW + Hbond + desolv Energy     =   -4.60 kcal/mol
DOCKED: USER        Electrostatic Energy            =   -3.38 kcal/mol
DOCKED: USER    (2) Final Total Internal Energy     =   -2.11 kcal/mol
DOCKED: USER    (3) Torsional Free Energy           =   +3.58 kcal/mol
DOCKED: USER    (4) Unbound System's Energy  [=(2)] =   -2.11 kcal/mol
DOCKED: USER    
DOCKED: USER    
DOCKED: USER    NEWDPF move heme_Co_opt.pdbqt
DOCKED: USER    NEWDPF about 8.781000 34.984000 -0.736000
DOCKED: USER    NEWDPF tran0 -15.967036 -0.535560 -2.812855
DOCKED: USER    NEWDPF quaternion0 0.946344 0.199413 -0.005388 -0.254242
DOCKED: USER    NEWDPF axisangle0 0.978496 0.206189 -0.005571 -150.542643
DOCKED: USER    NEWDPF quat0 0.978496 0.206189 -0.005571 -150.542643
DOCKED: USER    NEWDPF dihe0 105.72 114.19 -47.08 -107.07 147.59 140.25 -124.17 -173.37 -123.00 140.35 176.61 7.74 
DOCKED: USER  keepresnum = 1 
DOCKED: USER  
DOCKED: REMARK  12 active torsions:
DOCKED: REMARK  status: ('A' for Active; 'I' for Inactive)
DOCKED: REMARK    1  A    between atoms: C_6  and  C_10 
DOCKED: REMARK    2  A    between atoms: C_10  and  C_11 
DOCKED: REMARK    3  A    between atoms: C_11  and  C_12 
DOCKED: REMARK    4  A    between atoms: C_12  and  O_14 
DOCKED: REMARK    5  A    between atoms: C_17  and  C_20 
DOCKED: REMARK    6  A    between atoms: C_24  and  C_27 
DOCKED: REMARK    7  A    between atoms: C_31  and  C_34 
DOCKED: REMARK    8  A    between atoms: C_34  and  C_35 
DOCKED: REMARK    9  A    between atoms: C_35  and  C_36 
DOCKED: REMARK   10  A    between atoms: C_36  and  O_38 
DOCKED: REMARK   11  A    between atoms: FE_43  and  C_44 
DOCKED: REMARK   12  A    between atoms: C_44  and  O_45 
DOCKED: USER                              x       y       z     vdW  Elec       q    Type
DOCKED: USER                           _______ _______ _______ _____ _____    ______ ____
DOCKED: ROOT
DOCKED: ATOM      1  C   UNL d   1     -17.636  -1.245  -1.618 -0.05 +0.05    +0.064 A 
DOCKED: ATOM      2  C   UNL d   1     -17.148  -0.474  -6.285 +0.00 +0.01    +0.064 C 
DOCKED: ATOM      3  C   UNL d   1     -12.774   1.313  -5.570 -0.05 +0.00    +0.064 A 
DOCKED: ATOM      4  C   UNL d   1     -13.097   0.180  -0.850 -0.17 +0.07    +0.064 A 
DOCKED: ATOM      5  C   UNL d   1     -17.838  -1.132  -2.941 -0.02 +0.04    +0.066 A 
DOCKED: ATOM      6  C   UNL d   1     -19.002  -1.622  -3.564 +0.00 -0.01    -0.021 A 
DOCKED: ATOM      7  C   UNL d   1     -18.845  -1.416  -4.920 +0.00 -0.01    -0.025 A 
DOCKED: ATOM      8  C   UNL d   1     -17.600  -0.795  -5.066 +0.00 +0.02    +0.066 A 
DOCKED: ATOM      9  C   UNL d   1     -19.820  -1.786  -6.049 +0.00 +0.01    +0.051 C 
DOCKED: ATOM     10  C   UNL d   1     -15.892   0.191  -6.530 +0.00 +0.01    +0.066 A 
DOCKED: ATOM     11  C   UNL d   1     -15.425   0.680  -7.769 -0.00 -0.00    -0.021 A 
DOCKED: ATOM     12  C   UNL d   1     -14.149   1.200  -7.531 -0.01 +0.00    +0.000 A 
DOCKED: ATOM     13  C   UNL d   1     -13.939   1.001  -6.166 -0.01 +0.01    +0.070 A 
DOCKED: ATOM     14  C   UNL d   1     -16.200   0.725  -9.061 +0.00 +0.00    +0.052 C 
DOCKED: ATOM     15  C   UNL d   1     -12.369   1.129  -4.190 -0.10 +0.01    +0.066 A 
DOCKED: ATOM     16  C   UNL d   1     -11.100   1.340  -3.670 -0.26 -0.00    -0.021 A 
DOCKED: ATOM     17  C   UNL d   1     -11.187   1.012  -2.310 -0.28 +0.00    +0.000 A 
DOCKED: ATOM     18  C   UNL d   1     -12.512   0.642  -2.103 -0.17 +0.05    +0.070 A 
DOCKED: ATOM     19  C   UNL d   1      -9.900   1.823  -4.454 -0.32 -0.02    +0.052 C 
DOCKED: ATOM     20  C   UNL d   1     -14.359  -0.266  -0.645 -0.16 +0.09    +0.066 A 
DOCKED: ATOM     21  C   UNL d   1     -14.794  -0.719   0.599 -0.16 -0.04    -0.025 A 
DOCKED: ATOM     22  C   UNL d   1     -16.108  -1.109   0.415 -0.15 -0.03    -0.021 A 
DOCKED: ATOM     23  C   UNL d   1     -16.408  -0.885  -0.946 -0.11 +0.07    +0.066 A 
DOCKED: ATOM     24  C   UNL d   1     -13.992  -0.794   1.895 -0.28 +0.06    +0.051 C 
DOCKED: ATOM     25  N   UNL d   1     -16.957  -0.601  -3.855 -0.00 -0.13    -0.248 N 
DOCKED: ATOM     26  N   UNL d   1     -15.015   0.442  -5.552 +0.00 -0.06    -0.248 N 
DOCKED: ATOM     27  N   UNL d   1     -13.179   0.694  -3.251 -0.06 -0.13    -0.248 N 
DOCKED: ATOM     28  N   UNL d   1     -15.351  -0.377  -1.591 -0.10 -0.28    -0.248 N 
DOCKED: ATOM     29 FE   UNL d   1     -14.956   0.085  -3.532 -0.02 +0.00    +0.000 Fe
DOCKED: ENDROOT
DOCKED: BRANCH   6  30
DOCKED: ATOM     30  C   UNL d   1     -20.169  -2.329  -2.882 +0.00 +0.02    +0.052 C 
DOCKED: BRANCH  30  31
DOCKED: ATOM     31  C   UNL d   1     -20.050  -3.844  -3.046 -0.01 +0.04    +0.115 C 
DOCKED: BRANCH  31  32
DOCKED: ATOM     32  C   UNL d   1     -18.723  -4.375  -2.548 -0.05 +0.09    +0.139 C 
DOCKED: ATOM     33  O   UNL d   1     -18.681  -4.995  -1.496 -0.01 -0.54    -0.650 OA
DOCKED: BRANCH  32  34
DOCKED: ATOM     34  O   UNL d   1     -17.579  -4.229  -3.257 -0.11 -0.73    -0.776 OA
DOCKED: ATOM     35  H   UNL d   1     -16.902  -3.566  -3.065 +0.00 +0.19    +0.167 HD
DOCKED: ENDBRANCH  32  34
DOCKED: ENDBRANCH  31  32
DOCKED: ENDBRANCH  30  31
DOCKED: ENDBRANCH   6  30
DOCKED: BRANCH  29  36
DOCKED: ATOM     36  C   UNL d   1     -14.341  -1.885  -3.900 -0.05 +0.14    +0.190 C 
DOCKED: BRANCH  36  37
DOCKED: ATOM     37  O   UNL d   1     -14.812  -3.198  -4.006 -0.37 -0.47    -0.399 OA
DOCKED: ATOM     38  H   UNL d   1     -15.796  -3.130  -3.857 +0.02 +0.21    +0.209 HD
DOCKED: ENDBRANCH  36  37
DOCKED: ENDBRANCH  29  36
DOCKED: BRANCH  22  39
DOCKED: ATOM     39  C   UNL d   1     -17.000  -1.723   1.477 -0.11 +0.05    +0.052 C 
DOCKED: BRANCH  39  40
DOCKED: ATOM     40  C   UNL d   1     -18.094  -0.732   1.907 -0.07 +0.12    +0.115 C 
DOCKED: BRANCH  40  41
DOCKED: ATOM     41  C   UNL d   1     -17.598   0.677   2.156 -0.12 +0.24    +0.139 C 
DOCKED: ATOM     42  O   UNL d   1     -16.488   0.843   2.642 +0.02 -1.19    -0.650 OA
DOCKED: BRANCH  41  43
DOCKED: ATOM     43  O   UNL d   1     -18.312   1.759   1.775 -0.49 -1.67    -0.776 OA
DOCKED: ATOM     44  H   UNL d   1     -18.781   1.802   0.932 +0.02 +0.28    +0.167 HD
DOCKED: ENDBRANCH  41  43
DOCKED: ENDBRANCH  40  41
DOCKED: ENDBRANCH  39  40
DOCKED: ENDBRANCH  22  39
DOCKED: BRANCH  12  45
DOCKED: ATOM     45  C   UNL d   1     -13.119   1.874  -8.427 -0.03 -0.00    +0.004 C 
DOCKED: ATOM     46  C   UNL d   1     -11.897   1.487  -8.786 -0.07 -0.00    +0.012 C 
DOCKED: ENDBRANCH  12  45
DOCKED: BRANCH  17  47
DOCKED: ATOM     47  C   UNL d   1     -10.121   0.985  -1.265 -0.35 +0.00    +0.004 C 
DOCKED: ATOM     48  C   UNL d   1     -10.208   1.642  -0.105 -0.35 +0.00    +0.012 C 
DOCKED: ENDBRANCH  17  47
DOCKED: TORSDOF 12
DOCKED: TER
DOCKED: ENDMDL
________________________________________________________________________________


	BEGINNING GENETIC ALGORITHM DOCKING 92 of 100
Run: 92 Seed: 764064766 1504511255 [ Run 92 of 100 GA/GALS ]
Beginning LAMARCKIAN GENETIC ALGORITHM (LGA), with a maximum of 25000000 energy evaluations.

Final-Value: -9.954


	FINAL GENETIC ALGORITHM DOCKED STATE
	_______________________________________________


Detailed state:  trans -20.250 0.836 8.773 quatxyzw -0.729786 0.184651 -0.179229 0.633398 center 8.781 34.984 -0.736 ntor 12 -19.3833 108.2741 -33.9662 120.1465 3.9968 136.0895 171.8608 -179.9332 -135.8060 133.2280 -21.8791 34.6211
State:	-20.250   0.836   8.773  -0.943  0.239 -0.232 101.397    -19.38  108.27  -33.97  120.15    4.00  136.09  171.86 -179.93 -135.81  133.23  -21.88   34.62

DOCKED: MODEL       92
DOCKED: USER    Run = 92
DOCKED: USER    DPF = D:/Protein_go_brrr/autodock/final/AncMH_nat/heme_Co/dock.dpf
DOCKED: USER  
DOCKED: USER    Estimated Free Energy of Binding    =   -4.45 kcal/mol  [=(1)+(2)+(3)-(4)]
DOCKED: USER    Estimated Inhibition Constant, Ki   =  547.55 uM (micromolar)  [Temperature = 298.15 K]
DOCKED: USER    
DOCKED: USER    (1) Final Intermolecular Energy     =   -8.03 kcal/mol
DOCKED: USER        vdW + Hbond + desolv Energy     =   -5.48 kcal/mol
DOCKED: USER        Electrostatic Energy            =   -2.55 kcal/mol
DOCKED: USER    (2) Final Total Internal Energy     =   -1.92 kcal/mol
DOCKED: USER    (3) Torsional Free Energy           =   +3.58 kcal/mol
DOCKED: USER    (4) Unbound System's Energy  [=(2)] =   -1.92 kcal/mol
DOCKED: USER    
DOCKED: USER    
DOCKED: USER    NEWDPF move heme_Co_opt.pdbqt
DOCKED: USER    NEWDPF about 8.781000 34.984000 -0.736000
DOCKED: USER    NEWDPF tran0 -20.250062 0.835574 8.772866
DOCKED: USER    NEWDPF quaternion0 -0.729786 0.184651 -0.179229 0.633398
DOCKED: USER    NEWDPF axisangle0 -0.943088 0.238620 -0.231614 101.397478
DOCKED: USER    NEWDPF quat0 -0.943088 0.238620 -0.231614 101.397478
DOCKED: USER    NEWDPF dihe0 -19.38 108.27 -33.97 120.15 4.00 136.09 171.86 -179.93 -135.81 133.23 -21.88 34.62 
DOCKED: USER  keepresnum = 1 
DOCKED: USER  
DOCKED: REMARK  12 active torsions:
DOCKED: REMARK  status: ('A' for Active; 'I' for Inactive)
DOCKED: REMARK    1  A    between atoms: C_6  and  C_10 
DOCKED: REMARK    2  A    between atoms: C_10  and  C_11 
DOCKED: REMARK    3  A    between atoms: C_11  and  C_12 
DOCKED: REMARK    4  A    between atoms: C_12  and  O_14 
DOCKED: REMARK    5  A    between atoms: C_17  and  C_20 
DOCKED: REMARK    6  A    between atoms: C_24  and  C_27 
DOCKED: REMARK    7  A    between atoms: C_31  and  C_34 
DOCKED: REMARK    8  A    between atoms: C_34  and  C_35 
DOCKED: REMARK    9  A    between atoms: C_35  and  C_36 
DOCKED: REMARK   10  A    between atoms: C_36  and  O_38 
DOCKED: REMARK   11  A    between atoms: FE_43  and  C_44 
DOCKED: REMARK   12  A    between atoms: C_44  and  O_45 
DOCKED: USER                              x       y       z     vdW  Elec       q    Type
DOCKED: USER                           _______ _______ _______ _____ _____    ______ ____
DOCKED: ROOT
DOCKED: ATOM      1  C   UNL d   1     -22.200   1.695   8.356 -0.07 +0.03    +0.064 A 
DOCKED: ATOM      2  C   UNL d   1     -19.684  -1.714   6.198 -0.06 +0.03    +0.064 C 
DOCKED: ATOM      3  C   UNL d   1     -16.003  -0.910   9.137 -0.24 +0.01    +0.064 A 
DOCKED: ATOM      4  C   UNL d   1     -18.693   2.308  11.603 -0.09 +0.01    +0.064 A 
DOCKED: ATOM      5  C   UNL d   1     -21.770   0.730   7.527 -0.07 +0.04    +0.066 A 
DOCKED: ATOM      6  C   UNL d   1     -22.605   0.159   6.547 -0.05 -0.01    -0.021 A 
DOCKED: ATOM      7  C   UNL d   1     -21.877  -0.845   5.939 -0.05 -0.02    -0.025 A 
DOCKED: ATOM      8  C   UNL d   1     -20.624  -0.834   6.563 -0.06 +0.04    +0.066 A 
DOCKED: ATOM      9  C   UNL d   1     -22.329  -1.788   4.814 -0.02 +0.03    +0.051 C 
DOCKED: ATOM     10  C   UNL d   1     -18.359  -1.760   6.765 -0.08 +0.03    +0.066 A 
DOCKED: ATOM     11  C   UNL d   1     -17.283  -2.565   6.330 -0.11 -0.01    -0.021 A 
DOCKED: ATOM     12  C   UNL d   1     -16.222  -2.308   7.202 -0.20 +0.00    +0.000 A 
DOCKED: ATOM     13  C   UNL d   1     -16.722  -1.359   8.093 -0.17 +0.02    +0.070 A 
DOCKED: ATOM     14  C   UNL d   1     -17.263  -3.441   5.104 -0.11 +0.02    +0.052 C 
DOCKED: ATOM     15  C   UNL d   1     -16.380   0.024  10.180 -0.29 +0.01    +0.066 A 
DOCKED: ATOM     16  C   UNL d   1     -15.641   0.336  11.313 -0.36 -0.00    -0.021 A 
DOCKED: ATOM     17  C   UNL d   1     -16.414   1.262  12.028 -0.27 +0.00    +0.000 A 
DOCKED: ATOM     18  C   UNL d   1     -17.560   1.456  11.264 -0.20 +0.00    +0.070 A 
DOCKED: ATOM     19  C   UNL d   1     -14.285  -0.236  11.659 -0.37 -0.00    +0.052 C 
DOCKED: ATOM     20  C   UNL d   1     -19.854   2.446  10.919 -0.12 +0.01    +0.066 A 
DOCKED: ATOM     21  C   UNL d   1     -20.885   3.270  11.365 -0.10 -0.01    -0.025 A 
DOCKED: ATOM     22  C   UNL d   1     -21.898   3.136  10.433 -0.06 -0.01    -0.021 A 
DOCKED: ATOM     23  C   UNL d   1     -21.436   2.220   9.464 -0.09 +0.02    +0.066 A 
DOCKED: ATOM     24  C   UNL d   1     -20.913   4.128  12.627 -0.11 +0.02    +0.051 C 
DOCKED: ATOM     25  N   UNL d   1     -20.528   0.136   7.547 -0.06 -0.15    -0.248 N 
DOCKED: ATOM     26  N   UNL d   1     -17.996  -0.987   7.794 -0.07 -0.10    -0.248 N 
DOCKED: ATOM     27  N   UNL d   1     -17.519   0.680  10.186 -0.16 -0.04    -0.248 N 
DOCKED: ATOM     28  N   UNL d   1     -20.200   1.799   9.756 -0.09 -0.07    -0.248 N 
DOCKED: ATOM     29 FE   UNL d   1     -18.936   0.427   8.946 -0.03 +0.00    +0.000 Fe
DOCKED: ENDROOT
DOCKED: BRANCH   6  30
DOCKED: ATOM     30  C   UNL d   1     -24.062   0.517   6.273 -0.03 +0.02    +0.052 C 
DOCKED: BRANCH  30  31
DOCKED: ATOM     31  C   UNL d   1     -24.183   1.974   5.830 -0.04 +0.07    +0.115 C 
DOCKED: BRANCH  31  32
DOCKED: ATOM     32  C   UNL d   1     -23.099   2.372   4.851 +0.01 +0.18    +0.139 C 
DOCKED: ATOM     33  O   UNL d   1     -22.788   1.603   3.954 -0.18 -1.15    -0.650 OA
DOCKED: BRANCH  32  34
DOCKED: ATOM     34  O   UNL d   1     -22.491   3.580   4.905 +0.09 -1.36    -0.776 OA
DOCKED: ATOM     35  H   UNL d   1     -22.881   4.368   5.309 +0.01 +0.17    +0.167 HD
DOCKED: ENDBRANCH  32  34
DOCKED: ENDBRANCH  31  32
DOCKED: ENDBRANCH  30  31
DOCKED: ENDBRANCH   6  30
DOCKED: BRANCH  29  36
DOCKED: ATOM     36  C   UNL d   1     -19.815  -1.093  10.091 -0.02 +0.05    +0.190 C 
DOCKED: BRANCH  36  37
DOCKED: ATOM     37  O   UNL d   1     -21.010  -1.795  10.282 +0.01 -0.09    -0.399 OA
DOCKED: ATOM     38  H   UNL d   1     -21.668  -1.349   9.678 +0.02 +0.05    +0.209 HD
DOCKED: ENDBRANCH  36  37
DOCKED: ENDBRANCH  29  36
DOCKED: BRANCH  22  39
DOCKED: ATOM     39  C   UNL d   1     -23.259   3.803  10.511 -0.03 +0.01    +0.052 C 
DOCKED: BRANCH  39  40
DOCKED: ATOM     40  C   UNL d   1     -23.661   4.377   9.143 -0.03 +0.03    +0.115 C 
DOCKED: BRANCH  40  41
DOCKED: ATOM     41  C   UNL d   1     -22.621   5.281   8.514 -0.08 +0.05    +0.139 C 
DOCKED: ATOM     42  O   UNL d   1     -22.028   6.089   9.215 +0.01 -0.19    -0.650 OA
DOCKED: BRANCH  41  43
DOCKED: ATOM     43  O   UNL d   1     -22.266   5.160   7.216 -0.01 -0.43    -0.776 OA
DOCKED: ATOM     44  H   UNL d   1     -22.325   4.323   6.737 +0.02 +0.13    +0.167 HD
DOCKED: ENDBRANCH  41  43
DOCKED: ENDBRANCH  40  41
DOCKED: ENDBRANCH  39  40
DOCKED: ENDBRANCH  22  39
DOCKED: BRANCH  12  45
DOCKED: ATOM     45  C   UNL d   1     -14.794  -2.832   7.283 -0.39 +0.00    +0.004 C 
DOCKED: ATOM     46  C   UNL d   1     -13.633  -2.218   7.071 -0.42 +0.00    +0.012 C 
DOCKED: ENDBRANCH  12  45
DOCKED: BRANCH  17  47
DOCKED: ATOM     47  C   UNL d   1     -16.155   1.898  13.354 -0.33 +0.00    +0.004 C 
DOCKED: ATOM     48  C   UNL d   1     -15.273   1.426  14.238 -0.33 +0.00    +0.012 C 
DOCKED: ENDBRANCH  17  47
DOCKED: TORSDOF 12
DOCKED: TER
DOCKED: ENDMDL
________________________________________________________________________________


	BEGINNING GENETIC ALGORITHM DOCKING 93 of 100
Run: 93 Seed: 1763919342 315009982 [ Run 93 of 100 GA/GALS ]
Beginning LAMARCKIAN GENETIC ALGORITHM (LGA), with a maximum of 25000000 energy evaluations.

Final-Value: -11.920


	FINAL GENETIC ALGORITHM DOCKED STATE
	_______________________________________________


Detailed state:  trans -14.035 8.144 -2.814 quatxyzw -0.844762 -0.121609 0.484419 -0.192165 center 8.781 34.984 -0.736 ntor 12 175.0240 113.2510 -71.0721 117.3888 -88.9771 138.0915 -132.6915 153.4475 -138.7982 55.2078 -170.3612 -154.3629
State:	-14.035   8.144  -2.814  -0.861 -0.124  0.494 -157.842    175.02  113.25  -71.07  117.39  -88.98  138.09 -132.69  153.45 -138.80   55.21 -170.36 -154.36

DOCKED: MODEL       93
DOCKED: USER    Run = 93
DOCKED: USER    DPF = D:/Protein_go_brrr/autodock/final/AncMH_nat/heme_Co/dock.dpf
DOCKED: USER  
DOCKED: USER    Estimated Free Energy of Binding    =   -5.98 kcal/mol  [=(1)+(2)+(3)-(4)]
DOCKED: USER    Estimated Inhibition Constant, Ki   =   41.07 uM (micromolar)  [Temperature = 298.15 K]
DOCKED: USER    
DOCKED: USER    (1) Final Intermolecular Energy     =   -9.56 kcal/mol
DOCKED: USER        vdW + Hbond + desolv Energy     =   -6.64 kcal/mol
DOCKED: USER        Electrostatic Energy            =   -2.92 kcal/mol
DOCKED: USER    (2) Final Total Internal Energy     =   -2.36 kcal/mol
DOCKED: USER    (3) Torsional Free Energy           =   +3.58 kcal/mol
DOCKED: USER    (4) Unbound System's Energy  [=(2)] =   -2.36 kcal/mol
DOCKED: USER    
DOCKED: USER    
DOCKED: USER    NEWDPF move heme_Co_opt.pdbqt
DOCKED: USER    NEWDPF about 8.781000 34.984000 -0.736000
DOCKED: USER    NEWDPF tran0 -14.035131 8.143593 -2.814323
DOCKED: USER    NEWDPF quaternion0 -0.844762 -0.121609 0.484419 -0.192165
DOCKED: USER    NEWDPF axisangle0 -0.860805 -0.123918 0.493619 -157.841665
DOCKED: USER    NEWDPF quat0 -0.860805 -0.123918 0.493619 -157.841665
DOCKED: USER    NEWDPF dihe0 175.02 113.25 -71.07 117.39 -88.98 138.09 -132.69 153.45 -138.80 55.21 -170.36 -154.36 
DOCKED: USER  keepresnum = 1 
DOCKED: USER  
DOCKED: REMARK  12 active torsions:
DOCKED: REMARK  status: ('A' for Active; 'I' for Inactive)
DOCKED: REMARK    1  A    between atoms: C_6  and  C_10 
DOCKED: REMARK    2  A    between atoms: C_10  and  C_11 
DOCKED: REMARK    3  A    between atoms: C_11  and  C_12 
DOCKED: REMARK    4  A    between atoms: C_12  and  O_14 
DOCKED: REMARK    5  A    between atoms: C_17  and  C_20 
DOCKED: REMARK    6  A    between atoms: C_24  and  C_27 
DOCKED: REMARK    7  A    between atoms: C_31  and  C_34 
DOCKED: REMARK    8  A    between atoms: C_34  and  C_35 
DOCKED: REMARK    9  A    between atoms: C_35  and  C_36 
DOCKED: REMARK   10  A    between atoms: C_36  and  O_38 
DOCKED: REMARK   11  A    between atoms: FE_43  and  C_44 
DOCKED: REMARK   12  A    between atoms: C_44  and  O_45 
DOCKED: USER                              x       y       z     vdW  Elec       q    Type
DOCKED: USER                           _______ _______ _______ _____ _____    ______ ____
DOCKED: ROOT
DOCKED: ATOM      1  C   UNL d   1     -14.260   6.763  -1.154 -0.29 +0.03    +0.064 A 
DOCKED: ATOM      2  C   UNL d   1     -16.912  10.413  -2.654 -0.10 +0.00    +0.064 C 
DOCKED: ATOM      3  C   UNL d   1     -13.647  11.466  -5.981 -0.14 -0.00    +0.064 A 
DOCKED: ATOM      4  C   UNL d   1     -11.107   7.513  -4.720 -0.27 -0.01    +0.064 A 
DOCKED: ATOM      5  C   UNL d   1     -15.207   7.705  -1.296 -0.23 +0.02    +0.066 A 
DOCKED: ATOM      6  C   UNL d   1     -16.390   7.696  -0.532 -0.21 -0.01    -0.021 A 
DOCKED: ATOM      7  C   UNL d   1     -17.166   8.744  -0.987 -0.11 -0.00    -0.025 A 
DOCKED: ATOM      8  C   UNL d   1     -16.417   9.357  -1.997 -0.11 +0.00    +0.066 A 
DOCKED: ATOM      9  C   UNL d   1     -18.561   9.164  -0.500 -0.05 +0.01    +0.051 C 
DOCKED: ATOM     10  C   UNL d   1     -16.203  11.124  -3.689 -0.09 -0.00    +0.066 A 
DOCKED: ATOM     11  C   UNL d   1     -16.608  12.322  -4.318 -0.06 +0.00    -0.021 A 
DOCKED: ATOM     12  C   UNL d   1     -15.636  12.608  -5.281 -0.07 -0.00    +0.000 A 
DOCKED: ATOM     13  C   UNL d   1     -14.707  11.574  -5.160 -0.11 -0.00    +0.070 A 
DOCKED: ATOM     14  C   UNL d   1     -17.796  13.169  -3.943 -0.02 -0.00    +0.052 C 
DOCKED: ATOM     15  C   UNL d   1     -12.623  10.441  -6.031 -0.16 -0.01    +0.066 A 
DOCKED: ATOM     16  C   UNL d   1     -11.637  10.309  -6.998 -0.22 +0.00    -0.021 A 
DOCKED: ATOM     17  C   UNL d   1     -10.903   9.169  -6.640 -0.29 -0.00    +0.000 A 
DOCKED: ATOM     18  C   UNL d   1     -11.492   8.703  -5.469 -0.25 -0.01    +0.070 A 
DOCKED: ATOM     19  C   UNL d   1     -11.437  11.233  -8.178 -0.19 -0.01    +0.052 C 
DOCKED: ATOM     20  C   UNL d   1     -11.718   6.993  -3.629 -0.25 -0.00    +0.066 A 
DOCKED: ATOM     21  C   UNL d   1     -11.276   5.821  -3.017 -0.26 -0.00    -0.025 A 
DOCKED: ATOM     22  C   UNL d   1     -12.148   5.596  -1.968 -0.27 -0.01    -0.021 A 
DOCKED: ATOM     23  C   UNL d   1     -13.094   6.643  -1.999 -0.29 +0.02    +0.066 A 
DOCKED: ATOM     24  C   UNL d   1     -10.092   4.948  -3.424 -0.33 -0.01    +0.051 C 
DOCKED: ATOM     25  N   UNL d   1     -15.196   8.737  -2.206 +0.14 -0.03    -0.248 N 
DOCKED: ATOM     26  N   UNL d   1     -15.022  10.709  -4.159 -0.01 -0.00    -0.248 N 
DOCKED: ATOM     27  N   UNL d   1     -12.532   9.467  -5.152 -0.05 +0.02    -0.248 N 
DOCKED: ATOM     28  N   UNL d   1     -12.838   7.489  -3.004 -0.16 -0.02    -0.248 N 
DOCKED: ATOM     29 FE   UNL d   1     -13.783   9.121  -3.765 -0.05 +0.00    +0.000 Fe
DOCKED: ENDROOT
DOCKED: BRANCH   6  30
DOCKED: ATOM     30  C   UNL d   1     -16.781   6.671   0.528 -0.16 +0.03    +0.052 C 
DOCKED: BRANCH  30  31
DOCKED: ATOM     31  C   UNL d   1     -17.474   5.470  -0.115 -0.13 +0.11    +0.115 C 
DOCKED: BRANCH  31  32
DOCKED: ATOM     32  C   UNL d   1     -16.838   5.074  -1.430 -0.10 +0.13    +0.139 C 
DOCKED: ATOM     33  O   UNL d   1     -16.028   4.159  -1.455 -0.51 -1.17    -0.650 OA
DOCKED: BRANCH  32  34
DOCKED: ATOM     34  O   UNL d   1     -17.175   5.670  -2.598 +0.03 -0.35    -0.776 OA
DOCKED: ATOM     35  H   UNL d   1     -16.705   5.534  -3.433 +0.02 +0.06    +0.167 HD
DOCKED: ENDBRANCH  32  34
DOCKED: ENDBRANCH  31  32
DOCKED: ENDBRANCH  30  31
DOCKED: ENDBRANCH   6  30
DOCKED: BRANCH  29  36
DOCKED: ATOM     36  C   UNL d   1     -14.967   7.896  -4.986 -0.05 +0.01    +0.190 C 
DOCKED: BRANCH  36  37
DOCKED: ATOM     37  O   UNL d   1     -15.979   6.931  -4.949 +0.00 -0.04    -0.399 OA
DOCKED: ATOM     38  H   UNL d   1     -16.183   6.810  -3.980 +0.02 +0.04    +0.209 HD
DOCKED: ENDBRANCH  36  37
DOCKED: ENDBRANCH  29  36
DOCKED: BRANCH  22  39
DOCKED: ATOM     39  C   UNL d   1     -12.108   4.403  -1.032 -0.17 +0.03    +0.052 C 
DOCKED: BRANCH  39  40
DOCKED: ATOM     40  C   UNL d   1     -12.101   3.088  -1.828 -0.17 +0.07    +0.115 C 
DOCKED: BRANCH  40  41
DOCKED: ATOM     41  C   UNL d   1     -13.125   2.072  -1.367 -0.01 +0.19    +0.139 C 
DOCKED: ATOM     42  O   UNL d   1     -12.990   1.540  -0.274 -0.26 -1.23    -0.650 OA
DOCKED: BRANCH  41  43
DOCKED: ATOM     43  O   UNL d   1     -14.234   1.801  -2.091 +0.04 -0.98    -0.776 OA
DOCKED: ATOM     44  H   UNL d   1     -14.923   2.459  -2.252 +0.02 +0.23    +0.167 HD
DOCKED: ENDBRANCH  41  43
DOCKED: ENDBRANCH  40  41
DOCKED: ENDBRANCH  39  40
DOCKED: ENDBRANCH  22  39
DOCKED: BRANCH  12  45
DOCKED: ATOM     45  C   UNL d   1     -15.469  13.743  -6.283 -0.04 -0.00    +0.004 C 
DOCKED: ATOM     46  C   UNL d   1     -14.602  14.752  -6.312 -0.06 +0.00    +0.012 C 
DOCKED: ENDBRANCH  12  45
DOCKED: BRANCH  17  47
DOCKED: ATOM     47  C   UNL d   1      -9.765   8.507  -7.344 -0.30 -0.00    +0.004 C 
DOCKED: ATOM     48  C   UNL d   1      -9.858   7.314  -7.938 -0.30 -0.01    +0.012 C 
DOCKED: ENDBRANCH  17  47
DOCKED: TORSDOF 12
DOCKED: TER
DOCKED: ENDMDL
________________________________________________________________________________


	BEGINNING GENETIC ALGORITHM DOCKING 94 of 100
Run: 94 Seed: 1296951639 371066113 [ Run 94 of 100 GA/GALS ]
Beginning LAMARCKIAN GENETIC ALGORITHM (LGA), with a maximum of 25000000 energy evaluations.

Final-Value: -10.428


	FINAL GENETIC ALGORITHM DOCKED STATE
	_______________________________________________


Detailed state:  trans -16.226 2.914 -1.550 quatxyzw -0.771416 -0.201513 0.257345 -0.545970 center 8.781 34.984 -0.736 ntor 12 25.9311 110.7526 64.9692 38.3939 61.3790 155.4568 46.2415 -169.0707 -126.1655 -30.3356 -10.3726 179.9234
State:	-16.226   2.914  -1.550  -0.921 -0.241  0.307 -113.818     25.93  110.75   64.97   38.39   61.38  155.46   46.24 -169.07 -126.17  -30.34  -10.37  179.92

DOCKED: MODEL       94
DOCKED: USER    Run = 94
DOCKED: USER    DPF = D:/Protein_go_brrr/autodock/final/AncMH_nat/heme_Co/dock.dpf
DOCKED: USER  
DOCKED: USER    Estimated Free Energy of Binding    =   -5.98 kcal/mol  [=(1)+(2)+(3)-(4)]
DOCKED: USER    Estimated Inhibition Constant, Ki   =   41.48 uM (micromolar)  [Temperature = 298.15 K]
DOCKED: USER    
DOCKED: USER    (1) Final Intermolecular Energy     =   -9.56 kcal/mol
DOCKED: USER        vdW + Hbond + desolv Energy     =   -6.19 kcal/mol
DOCKED: USER        Electrostatic Energy            =   -3.36 kcal/mol
DOCKED: USER    (2) Final Total Internal Energy     =   -0.87 kcal/mol
DOCKED: USER    (3) Torsional Free Energy           =   +3.58 kcal/mol
DOCKED: USER    (4) Unbound System's Energy  [=(2)] =   -0.87 kcal/mol
DOCKED: USER    
DOCKED: USER    
DOCKED: USER    NEWDPF move heme_Co_opt.pdbqt
DOCKED: USER    NEWDPF about 8.781000 34.984000 -0.736000
DOCKED: USER    NEWDPF tran0 -16.226198 2.913778 -1.549885
DOCKED: USER    NEWDPF quaternion0 -0.771416 -0.201513 0.257345 -0.545970
DOCKED: USER    NEWDPF axisangle0 -0.920759 -0.240525 0.307166 -113.818094
DOCKED: USER    NEWDPF quat0 -0.920759 -0.240525 0.307166 -113.818094
DOCKED: USER    NEWDPF dihe0 25.93 110.75 64.97 38.39 61.38 155.46 46.24 -169.07 -126.17 -30.34 -10.37 179.92 
DOCKED: USER  keepresnum = 1 
DOCKED: USER  
DOCKED: REMARK  12 active torsions:
DOCKED: REMARK  status: ('A' for Active; 'I' for Inactive)
DOCKED: REMARK    1  A    between atoms: C_6  and  C_10 
DOCKED: REMARK    2  A    between atoms: C_10  and  C_11 
DOCKED: REMARK    3  A    between atoms: C_11  and  C_12 
DOCKED: REMARK    4  A    between atoms: C_12  and  O_14 
DOCKED: REMARK    5  A    between atoms: C_17  and  C_20 
DOCKED: REMARK    6  A    between atoms: C_24  and  C_27 
DOCKED: REMARK    7  A    between atoms: C_31  and  C_34 
DOCKED: REMARK    8  A    between atoms: C_34  and  C_35 
DOCKED: REMARK    9  A    between atoms: C_35  and  C_36 
DOCKED: REMARK   10  A    between atoms: C_36  and  O_38 
DOCKED: REMARK   11  A    between atoms: FE_43  and  C_44 
DOCKED: REMARK   12  A    between atoms: C_44  and  O_45 
DOCKED: USER                              x       y       z     vdW  Elec       q    Type
DOCKED: USER                           _______ _______ _______ _____ _____    ______ ____
DOCKED: ROOT
DOCKED: ATOM      1  C   UNL d   1     -17.208   0.980  -1.449 -0.04 +0.08    +0.064 A 
DOCKED: ATOM      2  C   UNL d   1     -18.603   5.342  -0.169 -0.11 +0.05    +0.064 C 
DOCKED: ATOM      3  C   UNL d   1     -14.285   7.080  -1.250 -0.29 +0.02    +0.064 A 
DOCKED: ATOM      4  C   UNL d   1     -12.960   2.710  -2.926 -0.09 +0.03    +0.064 A 
DOCKED: ATOM      5  C   UNL d   1     -17.895   2.037  -0.985 -0.01 +0.09    +0.066 A 
DOCKED: ATOM      6  C   UNL d   1     -19.253   1.946  -0.624 -0.05 -0.02    -0.021 A 
DOCKED: ATOM      7  C   UNL d   1     -19.659   3.219  -0.275 -0.07 -0.02    -0.025 A 
DOCKED: ATOM      8  C   UNL d   1     -18.528   4.029  -0.423 -0.10 +0.07    +0.066 A 
DOCKED: ATOM      9  C   UNL d   1     -21.054   3.672   0.180 -0.05 +0.04    +0.051 C 
DOCKED: ATOM     10  C   UNL d   1     -17.486   6.248  -0.267 -0.13 +0.04    +0.066 A 
DOCKED: ATOM     11  C   UNL d   1     -17.465   7.606   0.119 -0.15 -0.01    -0.021 A 
DOCKED: ATOM     12  C   UNL d   1     -16.193   8.087  -0.203 -0.26 +0.00    +0.000 A 
DOCKED: ATOM     13  C   UNL d   1     -15.530   6.987  -0.749 -0.23 +0.03    +0.070 A 
DOCKED: ATOM     14  C   UNL d   1     -18.565   8.347   0.835 -0.10 +0.01    +0.052 C 
DOCKED: ATOM     15  C   UNL d   1     -13.475   6.065  -1.894 -0.23 +0.03    +0.066 A 
DOCKED: ATOM     16  C   UNL d   1     -12.253   6.262  -2.520 -0.28 -0.00    -0.021 A 
DOCKED: ATOM     17  C   UNL d   1     -11.867   5.005  -3.007 -0.18 +0.00    +0.000 A 
DOCKED: ATOM     18  C   UNL d   1     -12.881   4.133  -2.623 -0.12 +0.03    +0.070 A 
DOCKED: ATOM     19  C   UNL d   1     -11.526   7.584  -2.628 -0.39 -0.00    +0.052 C 
DOCKED: ATOM     20  C   UNL d   1     -13.976   1.861  -2.639 -0.08 +0.06    +0.066 A 
DOCKED: ATOM     21  C   UNL d   1     -13.952   0.519  -3.013 -0.11 -0.02    -0.025 A 
DOCKED: ATOM     22  C   UNL d   1     -15.151  -0.012  -2.575 -0.11 -0.02    -0.021 A 
DOCKED: ATOM     23  C   UNL d   1     -15.858   1.044  -1.961 -0.03 +0.08    +0.066 A 
DOCKED: ATOM     24  C   UNL d   1     -12.849  -0.217  -3.770 -0.17 +0.02    +0.051 C 
DOCKED: ATOM     25  N   UNL d   1     -17.419   3.322  -0.856 +0.00 -0.41    -0.248 N 
DOCKED: ATOM     26  N   UNL d   1     -16.294   5.863  -0.735 -0.11 -0.22    -0.248 N 
DOCKED: ATOM     27  N   UNL d   1     -13.836   4.804  -1.989 -0.10 -0.19    -0.248 N 
DOCKED: ATOM     28  N   UNL d   1     -15.151   2.179  -1.999 +0.01 -0.39    -0.248 N 
DOCKED: ATOM     29 FE   UNL d   1     -15.520   4.104  -1.457 -0.04 +0.00    +0.000 Fe
DOCKED: ENDROOT
DOCKED: BRANCH   6  30
DOCKED: ATOM     30  C   UNL d   1     -20.132   0.701  -0.695 -0.01 +0.04    +0.052 C 
DOCKED: BRANCH  30  31
DOCKED: ATOM     31  C   UNL d   1     -19.772  -0.274   0.425 -0.02 +0.10    +0.115 C 
DOCKED: BRANCH  31  32
DOCKED: ATOM     32  C   UNL d   1     -19.768   0.386   1.787 -0.05 +0.20    +0.139 C 
DOCKED: ATOM     33  O   UNL d   1     -18.775   0.996   2.156 -0.29 -1.28    -0.650 OA
DOCKED: BRANCH  32  34
DOCKED: ATOM     34  O   UNL d   1     -20.851   0.366   2.598 -0.13 -1.35    -0.776 OA
DOCKED: ATOM     35  H   UNL d   1     -21.565  -0.284   2.536 +0.01 +0.18    +0.167 HD
DOCKED: ENDBRANCH  32  34
DOCKED: ENDBRANCH  31  32
DOCKED: ENDBRANCH  30  31
DOCKED: ENDBRANCH   6  30
DOCKED: BRANCH  29  36
DOCKED: ATOM     36  C   UNL d   1     -16.395   4.487  -3.323 -0.03 +0.10    +0.190 C 
DOCKED: BRANCH  36  37
DOCKED: ATOM     37  O   UNL d   1     -17.595   4.382  -4.034 +0.00 -0.13    -0.399 OA
DOCKED: ATOM     38  H   UNL d   1     -18.229   3.938  -3.403 +0.01 +0.09    +0.209 HD
DOCKED: ENDBRANCH  36  37
DOCKED: ENDBRANCH  29  36
DOCKED: BRANCH  22  39
DOCKED: ATOM     39  C   UNL d   1     -15.614  -1.440  -2.796 -0.12 +0.05    +0.052 C 
DOCKED: BRANCH  39  40
DOCKED: ATOM     40  C   UNL d   1     -16.149  -1.621  -4.226 -0.07 +0.07    +0.115 C 
DOCKED: BRANCH  40  41
DOCKED: ATOM     41  C   UNL d   1     -15.842  -2.971  -4.842 -0.09 +0.09    +0.139 C 
DOCKED: ATOM     42  O   UNL d   1     -14.817  -3.555  -4.520 -0.54 -0.60    -0.650 OA
DOCKED: BRANCH  41  43
DOCKED: ATOM     43  O   UNL d   1     -16.713  -3.588  -5.671 +0.02 -0.33    -0.776 OA
DOCKED: ATOM     44  H   UNL d   1     -16.885  -3.275  -6.569 +0.01 +0.05    +0.167 HD
DOCKED: ENDBRANCH  41  43
DOCKED: ENDBRANCH  40  41
DOCKED: ENDBRANCH  39  40
DOCKED: ENDBRANCH  22  39
DOCKED: BRANCH  12  45
DOCKED: ATOM     45  C   UNL d   1     -15.525   9.446  -0.042 -0.23 -0.00    +0.004 C 
DOCKED: ATOM     46  C   UNL d   1     -15.710  10.400   0.867 -0.36 -0.00    +0.012 C 
DOCKED: ENDBRANCH  12  45
DOCKED: BRANCH  17  47
DOCKED: ATOM     47  C   UNL d   1     -10.674   4.621  -3.818 -0.27 -0.00    +0.004 C 
DOCKED: ATOM     48  C   UNL d   1      -9.453   5.124  -3.618 -0.41 -0.00    +0.012 C 
DOCKED: ENDBRANCH  17  47
DOCKED: TORSDOF 12
DOCKED: TER
DOCKED: ENDMDL
________________________________________________________________________________


	BEGINNING GENETIC ALGORITHM DOCKING 95 of 100
Run: 95 Seed: 1940997194 459493218 [ Run 95 of 100 GA/GALS ]
Beginning LAMARCKIAN GENETIC ALGORITHM (LGA), with a maximum of 25000000 energy evaluations.

Final-Value: -10.567


	FINAL GENETIC ALGORITHM DOCKED STATE
	_______________________________________________


Detailed state:  trans -6.364 20.926 6.485 quatxyzw -0.243840 0.086174 0.919682 0.295468 center 8.781 34.984 -0.736 ntor 12 52.4688 132.3539 -102.8897 -96.4025 -30.8665 87.9829 40.5767 114.6423 148.8656 135.7073 -143.6629 -180.0000
State:	 -6.364  20.926   6.485  -0.255  0.090  0.963 145.629     52.47  132.35 -102.89  -96.40  -30.87   87.98   40.58  114.64  148.87  135.71 -143.66 -180.00

DOCKED: MODEL       95
DOCKED: USER    Run = 95
DOCKED: USER    DPF = D:/Protein_go_brrr/autodock/final/AncMH_nat/heme_Co/dock.dpf
DOCKED: USER  
DOCKED: USER    Estimated Free Energy of Binding    =   -3.31 kcal/mol  [=(1)+(2)+(3)-(4)]
DOCKED: USER    Estimated Inhibition Constant, Ki   =    3.72 mM (millimolar)  [Temperature = 298.15 K]
DOCKED: USER    
DOCKED: USER    (1) Final Intermolecular Energy     =   -6.89 kcal/mol
DOCKED: USER        vdW + Hbond + desolv Energy     =   -4.28 kcal/mol
DOCKED: USER        Electrostatic Energy            =   -2.61 kcal/mol
DOCKED: USER    (2) Final Total Internal Energy     =   -3.67 kcal/mol
DOCKED: USER    (3) Torsional Free Energy           =   +3.58 kcal/mol
DOCKED: USER    (4) Unbound System's Energy  [=(2)] =   -3.67 kcal/mol
DOCKED: USER    
DOCKED: USER    
DOCKED: USER    NEWDPF move heme_Co_opt.pdbqt
DOCKED: USER    NEWDPF about 8.781000 34.984000 -0.736000
DOCKED: USER    NEWDPF tran0 -6.364293 20.926144 6.484550
DOCKED: USER    NEWDPF quaternion0 -0.243840 0.086174 0.919682 0.295468
DOCKED: USER    NEWDPF axisangle0 -0.255235 0.090201 0.962662 145.628761
DOCKED: USER    NEWDPF quat0 -0.255235 0.090201 0.962662 145.628761
DOCKED: USER    NEWDPF dihe0 52.47 132.35 -102.89 -96.40 -30.87 87.98 40.58 114.64 148.87 135.71 -143.66 -180.00 
DOCKED: USER  keepresnum = 1 
DOCKED: USER  
DOCKED: REMARK  12 active torsions:
DOCKED: REMARK  status: ('A' for Active; 'I' for Inactive)
DOCKED: REMARK    1  A    between atoms: C_6  and  C_10 
DOCKED: REMARK    2  A    between atoms: C_10  and  C_11 
DOCKED: REMARK    3  A    between atoms: C_11  and  C_12 
DOCKED: REMARK    4  A    between atoms: C_12  and  O_14 
DOCKED: REMARK    5  A    between atoms: C_17  and  C_20 
DOCKED: REMARK    6  A    between atoms: C_24  and  C_27 
DOCKED: REMARK    7  A    between atoms: C_31  and  C_34 
DOCKED: REMARK    8  A    between atoms: C_34  and  C_35 
DOCKED: REMARK    9  A    between atoms: C_35  and  C_36 
DOCKED: REMARK   10  A    between atoms: C_36  and  O_38 
DOCKED: REMARK   11  A    between atoms: FE_43  and  C_44 
DOCKED: REMARK   12  A    between atoms: C_44  and  O_45 
DOCKED: USER                              x       y       z     vdW  Elec       q    Type
DOCKED: USER                           _______ _______ _______ _____ _____    ______ ____
DOCKED: ROOT
DOCKED: ATOM      1  C   UNL d   1      -4.323  21.642   6.669 -0.03 +0.02    +0.064 A 
DOCKED: ATOM      2  C   UNL d   1      -8.411  23.115   8.598 -0.02 -0.00    +0.064 C 
DOCKED: ATOM      3  C   UNL d   1     -10.832  19.918   6.001 -0.04 -0.01    +0.064 A 
DOCKED: ATOM      4  C   UNL d   1      -6.635  18.137   4.305 +0.13 -0.01    +0.064 A 
DOCKED: ATOM      5  C   UNL d   1      -5.265  22.304   7.360 -0.02 +0.01    +0.066 A 
DOCKED: ATOM      6  C   UNL d   1      -4.941  23.294   8.307 -0.02 -0.00    -0.021 A 
DOCKED: ATOM      7  C   UNL d   1      -6.129  23.702   8.881 -0.01 -0.00    -0.025 A 
DOCKED: ATOM      8  C   UNL d   1      -7.129  22.956   8.247 -0.02 +0.00    +0.066 A 
DOCKED: ATOM      9  C   UNL d   1      -6.332  24.752   9.984 -0.01 +0.00    +0.051 C 
DOCKED: ATOM     10  C   UNL d   1      -9.510  22.411   7.985 -0.02 -0.01    +0.066 A 
DOCKED: ATOM     11  C   UNL d   1     -10.886  22.635   8.210 -0.01 +0.00    -0.021 A 
DOCKED: ATOM     12  C   UNL d   1     -11.569  21.692   7.437 -0.01 -0.00    +0.000 A 
DOCKED: ATOM     13  C   UNL d   1     -10.563  20.973   6.790 -0.02 -0.01    +0.070 A 
DOCKED: ATOM     14  C   UNL d   1     -11.486  23.743   9.036 -0.00 -0.01    +0.052 C 
DOCKED: ATOM     15  C   UNL d   1      -9.920  19.036   5.301 -0.09 -0.00    +0.066 A 
DOCKED: ATOM     16  C   UNL d   1     -10.257  17.876   4.619 -0.18 +0.00    -0.021 A 
DOCKED: ATOM     17  C   UNL d   1      -9.050  17.357   4.130 -0.27 -0.00    +0.000 A 
DOCKED: ATOM     18  C   UNL d   1      -8.069  18.255   4.539 -0.15 -0.01    +0.070 A 
DOCKED: ATOM     19  C   UNL d   1     -11.657  17.325   4.465 -0.24 -0.01    +0.052 C 
DOCKED: ATOM     20  C   UNL d   1      -5.655  18.950   4.766 -0.04 +0.00    +0.066 A 
DOCKED: ATOM     21  C   UNL d   1      -4.308  18.714   4.504 -0.17 -0.00    -0.025 A 
DOCKED: ATOM     22  C   UNL d   1      -3.619  19.725   5.148 -0.11 -0.00    -0.021 A 
DOCKED: ATOM     23  C   UNL d   1      -4.587  20.528   5.788 -0.06 +0.01    +0.066 A 
DOCKED: ATOM     24  C   UNL d   1      -3.704  17.569   3.695 -0.32 +0.00    +0.051 C 
DOCKED: ATOM     25  N   UNL d   1      -6.623  22.086   7.296 -0.01 -0.02    -0.248 N 
DOCKED: ATOM     26  N   UNL d   1      -9.321  21.446   7.079 -0.01 +0.02    -0.248 N 
DOCKED: ATOM     27  N   UNL d   1      -8.620  19.225   5.260 -0.07 +0.01    -0.248 N 
DOCKED: ATOM     28  N   UNL d   1      -5.821  20.061   5.561 -0.05 -0.03    -0.248 N 
DOCKED: ATOM     29 FE   UNL d   1      -7.677  20.570   6.216 -0.02 +0.00    +0.000 Fe
DOCKED: ENDROOT
DOCKED: BRANCH   6  30
DOCKED: ATOM     30  C   UNL d   1      -3.541  23.759   8.693 -0.01 +0.01    +0.052 C 
DOCKED: BRANCH  30  31
DOCKED: ATOM     31  C   UNL d   1      -2.717  22.592   9.237 -0.04 +0.05    +0.115 C 
DOCKED: BRANCH  31  32
DOCKED: ATOM     32  C   UNL d   1      -3.566  21.587   9.986 +0.03 +0.15    +0.139 C 
DOCKED: ATOM     33  O   UNL d   1      -3.754  21.734  11.184 -0.28 -0.67    -0.650 OA
DOCKED: BRANCH  32  34
DOCKED: ATOM     34  O   UNL d   1      -4.168  20.548   9.361 -0.07 -1.14    -0.776 OA
DOCKED: ATOM     35  H   UNL d   1      -3.722  19.955   8.741 +0.02 +0.28    +0.167 HD
DOCKED: ENDBRANCH  32  34
DOCKED: ENDBRANCH  31  32
DOCKED: ENDBRANCH  30  31
DOCKED: ENDBRANCH   6  30
DOCKED: BRANCH  29  36
DOCKED: ATOM     36  C   UNL d   1      -7.438  19.356   7.908 -0.12 -0.02    +0.190 C 
DOCKED: BRANCH  36  37
DOCKED: ATOM     37  O   UNL d   1      -6.476  18.693   8.677 -0.12 -0.10    -0.399 OA
DOCKED: ATOM     38  H   UNL d   1      -5.612  19.132   8.441 +0.04 +0.14    +0.209 HD
DOCKED: ENDBRANCH  36  37
DOCKED: ENDBRANCH  29  36
DOCKED: BRANCH  22  39
DOCKED: ATOM     39  C   UNL d   1      -2.109  19.868   5.198 -0.12 +0.01    +0.052 C 
DOCKED: BRANCH  39  40
DOCKED: ATOM     40  C   UNL d   1      -1.506  18.905   6.234 -0.16 +0.05    +0.115 C 
DOCKED: BRANCH  40  41
DOCKED: ATOM     41  C   UNL d   1      -2.170  18.956   7.594 -0.15 +0.12    +0.139 C 
DOCKED: ATOM     42  O   UNL d   1      -1.579  19.478   8.529 -0.02 -0.76    -0.650 OA
DOCKED: BRANCH  41  43
DOCKED: ATOM     43  O   UNL d   1      -3.434  18.518   7.785 -0.31 -0.86    -0.776 OA
DOCKED: ATOM     44  H   UNL d   1      -4.196  19.112   7.782 +0.04 +0.16    +0.167 HD
DOCKED: ENDBRANCH  41  43
DOCKED: ENDBRANCH  40  41
DOCKED: ENDBRANCH  39  40
DOCKED: ENDBRANCH  22  39
DOCKED: BRANCH  12  45
DOCKED: ATOM     45  C   UNL d   1     -13.048  21.401   7.221 -0.01 -0.00    +0.004 C 
DOCKED: ATOM     46  C   UNL d   1     -13.813  20.417   7.686 -0.01 -0.00    +0.012 C 
DOCKED: ENDBRANCH  12  45
DOCKED: BRANCH  17  47
DOCKED: ATOM     47  C   UNL d   1      -8.789  16.093   3.378 -0.46 -0.00    +0.004 C 
DOCKED: ATOM     48  C   UNL d   1      -9.200  14.892   3.790 -0.63 -0.00    +0.012 C 
DOCKED: ENDBRANCH  17  47
DOCKED: TORSDOF 12
DOCKED: TER
DOCKED: ENDMDL
________________________________________________________________________________


	BEGINNING GENETIC ALGORITHM DOCKING 96 of 100
Run: 96 Seed: 949699944 159590607 [ Run 96 of 100 GA/GALS ]
Beginning LAMARCKIAN GENETIC ALGORITHM (LGA), with a maximum of 25000000 energy evaluations.

Final-Value: -11.644


	FINAL GENETIC ALGORITHM DOCKED STATE
	_______________________________________________


Detailed state:  trans -15.016 -0.949 -1.771 quatxyzw 0.385312 -0.224173 -0.295533 0.844950 center 8.781 34.984 -0.736 ntor 12 -160.6922 122.5516 -99.4431 57.2653 71.3733 108.3361 18.8876 98.1828 -180.0000 105.6848 -178.1318 37.7042
State:	-15.016  -0.949  -1.771   0.720 -0.419 -0.553 64.667   -160.69  122.55  -99.44   57.27   71.37  108.34   18.89   98.18 -180.00  105.68 -178.13   37.70

DOCKED: MODEL       96
DOCKED: USER    Run = 96
DOCKED: USER    DPF = D:/Protein_go_brrr/autodock/final/AncMH_nat/heme_Co/dock.dpf
DOCKED: USER  
DOCKED: USER    Estimated Free Energy of Binding    =   -6.07 kcal/mol  [=(1)+(2)+(3)-(4)]
DOCKED: USER    Estimated Inhibition Constant, Ki   =   35.49 uM (micromolar)  [Temperature = 298.15 K]
DOCKED: USER    
DOCKED: USER    (1) Final Intermolecular Energy     =   -9.65 kcal/mol
DOCKED: USER        vdW + Hbond + desolv Energy     =   -6.72 kcal/mol
DOCKED: USER        Electrostatic Energy            =   -2.93 kcal/mol
DOCKED: USER    (2) Final Total Internal Energy     =   -1.99 kcal/mol
DOCKED: USER    (3) Torsional Free Energy           =   +3.58 kcal/mol
DOCKED: USER    (4) Unbound System's Energy  [=(2)] =   -1.99 kcal/mol
DOCKED: USER    
DOCKED: USER    
DOCKED: USER    NEWDPF move heme_Co_opt.pdbqt
DOCKED: USER    NEWDPF about 8.781000 34.984000 -0.736000
DOCKED: USER    NEWDPF tran0 -15.016433 -0.949444 -1.770845
DOCKED: USER    NEWDPF quaternion0 0.385312 -0.224173 -0.295533 0.844950
DOCKED: USER    NEWDPF axisangle0 0.720419 -0.419137 -0.552559 64.666809
DOCKED: USER    NEWDPF quat0 0.720419 -0.419137 -0.552559 64.666809
DOCKED: USER    NEWDPF dihe0 -160.69 122.55 -99.44 57.27 71.37 108.34 18.89 98.18 -180.00 105.68 -178.13 37.70 
DOCKED: USER  keepresnum = 1 
DOCKED: USER  
DOCKED: REMARK  12 active torsions:
DOCKED: REMARK  status: ('A' for Active; 'I' for Inactive)
DOCKED: REMARK    1  A    between atoms: C_6  and  C_10 
DOCKED: REMARK    2  A    between atoms: C_10  and  C_11 
DOCKED: REMARK    3  A    between atoms: C_11  and  C_12 
DOCKED: REMARK    4  A    between atoms: C_12  and  O_14 
DOCKED: REMARK    5  A    between atoms: C_17  and  C_20 
DOCKED: REMARK    6  A    between atoms: C_24  and  C_27 
DOCKED: REMARK    7  A    between atoms: C_31  and  C_34 
DOCKED: REMARK    8  A    between atoms: C_34  and  C_35 
DOCKED: REMARK    9  A    between atoms: C_35  and  C_36 
DOCKED: REMARK   10  A    between atoms: C_36  and  O_38 
DOCKED: REMARK   11  A    between atoms: FE_43  and  C_44 
DOCKED: REMARK   12  A    between atoms: C_44  and  O_45 
DOCKED: USER                              x       y       z     vdW  Elec       q    Type
DOCKED: USER                           _______ _______ _______ _____ _____    ______ ____
DOCKED: ROOT
DOCKED: ATOM      1  C   UNL d   1     -16.883  -1.984  -1.368 -0.09 +0.07    +0.064 A 
DOCKED: ATOM      2  C   UNL d   1     -13.618  -0.051   1.498 -0.22 +0.09    +0.064 C 
DOCKED: ATOM      3  C   UNL d   1     -10.834   0.917  -2.262 -0.25 +0.02    +0.064 A 
DOCKED: ATOM      4  C   UNL d   1     -14.322  -0.701  -5.243 -0.05 +0.02    +0.064 A 
DOCKED: ATOM      5  C   UNL d   1     -16.179  -1.560  -0.305 -0.12 +0.08    +0.066 A 
DOCKED: ATOM      6  C   UNL d   1     -16.700  -1.606   1.003 -0.12 -0.02    -0.021 A 
DOCKED: ATOM      7  C   UNL d   1     -15.758  -1.024   1.827 -0.16 -0.03    -0.025 A 
DOCKED: ATOM      8  C   UNL d   1     -14.697  -0.661   0.991 -0.16 +0.10    +0.066 A 
DOCKED: ATOM      9  C   UNL d   1     -15.839  -0.808   3.346 -0.13 +0.05    +0.051 C 
DOCKED: ATOM     10  C   UNL d   1     -12.467   0.334   0.720 -0.22 +0.07    +0.066 A 
DOCKED: ATOM     11  C   UNL d   1     -11.249   0.849   1.214 -0.29 -0.01    -0.021 A 
DOCKED: ATOM     12  C   UNL d   1     -10.454   1.119   0.096 -0.32 +0.00    +0.000 A 
DOCKED: ATOM     13  C   UNL d   1     -11.239   0.738  -0.993 -0.24 +0.04    +0.070 A 
DOCKED: ATOM     14  C   UNL d   1     -10.856   0.976   2.663 -0.35 +0.02    +0.052 C 
DOCKED: ATOM     15  C   UNL d   1     -11.534   0.631  -3.500 -0.22 +0.02    +0.066 A 
DOCKED: ATOM     16  C   UNL d   1     -11.118   0.974  -4.778 -0.25 +0.00    -0.021 A 
DOCKED: ATOM     17  C   UNL d   1     -12.122   0.512  -5.641 -0.13 +0.00    +0.000 A 
DOCKED: ATOM     18  C   UNL d   1     -13.066  -0.094  -4.819 -0.09 +0.02    +0.070 A 
DOCKED: ATOM     19  C   UNL d   1      -9.836   1.700  -5.118 -0.32 -0.02    +0.052 C 
DOCKED: ATOM     20  C   UNL d   1     -15.295  -1.219  -4.456 -0.07 +0.03    +0.066 A 
DOCKED: ATOM     21  C   UNL d   1     -16.475  -1.743  -4.979 -0.03 -0.01    -0.025 A 
DOCKED: ATOM     22  C   UNL d   1     -17.220  -2.147  -3.887 -0.06 -0.01    -0.021 A 
DOCKED: ATOM     23  C   UNL d   1     -16.457  -1.836  -2.741 -0.09 +0.06    +0.066 A 
DOCKED: ATOM     24  C   UNL d   1     -16.882  -1.836  -6.447 -0.01 +0.01    +0.051 C 
DOCKED: ATOM     25  N   UNL d   1     -14.928  -0.987  -0.335 -0.12 -0.33    -0.248 N 
DOCKED: ATOM     26  N   UNL d   1     -12.434   0.212  -0.611 -0.14 -0.23    -0.248 N 
DOCKED: ATOM     27  N   UNL d   1     -12.698   0.023  -3.548 -0.10 -0.11    -0.248 N 
DOCKED: ATOM     28  N   UNL d   1     -15.292  -1.272  -3.081 -0.09 -0.20    -0.248 N 
DOCKED: ATOM     29 FE   UNL d   1     -13.749  -0.454  -2.039 -0.04 +0.00    +0.000 Fe
DOCKED: ENDROOT
DOCKED: BRANCH   6  30
DOCKED: ATOM     30  C   UNL d   1     -18.077  -2.116   1.416 -0.05 +0.04    +0.052 C 
DOCKED: BRANCH  30  31
DOCKED: ATOM     31  C   UNL d   1     -19.077  -0.962   1.485 -0.03 +0.10    +0.115 C 
DOCKED: BRANCH  31  32
DOCKED: ATOM     32  C   UNL d   1     -18.440   0.375   1.175 -0.10 +0.19    +0.139 C 
DOCKED: ATOM     33  O   UNL d   1     -18.308   1.199   2.067 -0.34 -1.29    -0.650 OA
DOCKED: BRANCH  32  34
DOCKED: ATOM     34  O   UNL d   1     -17.962   0.674  -0.056 -0.08 -1.06    -0.776 OA
DOCKED: ATOM     35  H   UNL d   1     -17.370   1.415  -0.244 +0.02 +0.33    +0.167 HD
DOCKED: ENDBRANCH  32  34
DOCKED: ENDBRANCH  31  32
DOCKED: ENDBRANCH  30  31
DOCKED: ENDBRANCH   6  30
DOCKED: BRANCH  29  36
DOCKED: ATOM     36  C   UNL d   1     -14.730   1.398  -1.997 -0.02 +0.25    +0.190 C 
DOCKED: BRANCH  36  37
DOCKED: ATOM     37  O   UNL d   1     -15.992   1.988  -1.881 -0.00 -0.65    -0.399 OA
DOCKED: ATOM     38  H   UNL d   1     -16.603   1.240  -1.631 +0.02 +0.30    +0.209 HD
DOCKED: ENDBRANCH  36  37
DOCKED: ENDBRANCH  29  36
DOCKED: BRANCH  22  39
DOCKED: ATOM     39  C   UNL d   1     -18.616  -2.738  -3.944 -0.02 +0.02    +0.052 C 
DOCKED: BRANCH  39  40
DOCKED: ATOM     40  C   UNL d   1     -18.756  -3.899  -2.946 -0.05 +0.07    +0.115 C 
DOCKED: BRANCH  40  41
DOCKED: ATOM     41  C   UNL d   1     -18.174  -5.211  -3.428 -0.01 +0.10    +0.139 C 
DOCKED: ATOM     42  O   UNL d   1     -18.888  -6.203  -3.471 -0.01 -0.32    -0.650 OA
DOCKED: BRANCH  41  43
DOCKED: ATOM     43  O   UNL d   1     -16.909  -5.298  -3.896 -0.49 -0.84    -0.776 OA
DOCKED: ATOM     44  H   UNL d   1     -16.696  -5.216  -4.835 +0.01 +0.11    +0.167 HD
DOCKED: ENDBRANCH  41  43
DOCKED: ENDBRANCH  40  41
DOCKED: ENDBRANCH  39  40
DOCKED: ENDBRANCH  22  39
DOCKED: BRANCH  12  45
DOCKED: ATOM     45  C   UNL d   1      -9.045   1.672  -0.067 -0.36 +0.00    +0.004 C 
DOCKED: ATOM     46  C   UNL d   1      -7.906   1.330   0.531 -0.47 +0.00    +0.012 C 
DOCKED: ENDBRANCH  12  45
DOCKED: BRANCH  17  47
DOCKED: ATOM     47  C   UNL d   1     -12.246   0.654  -7.123 -0.09 -0.00    +0.004 C 
DOCKED: ATOM     48  C   UNL d   1     -11.264   0.358  -7.977 -0.14 -0.00    +0.012 C 
DOCKED: ENDBRANCH  17  47
DOCKED: TORSDOF 12
DOCKED: TER
DOCKED: ENDMDL
________________________________________________________________________________


	BEGINNING GENETIC ALGORITHM DOCKING 97 of 100
Run: 97 Seed: 1594330957 1827373150 [ Run 97 of 100 GA/GALS ]
Beginning LAMARCKIAN GENETIC ALGORITHM (LGA), with a maximum of 25000000 energy evaluations.

Final-Value: -11.338


	FINAL GENETIC ALGORITHM DOCKED STATE
	_______________________________________________


Detailed state:  trans -17.188 -2.835 6.013 quatxyzw -0.227647 -0.653833 0.008750 -0.721528 center 8.781 34.984 -0.736 ntor 12 125.3361 121.9276 112.6412 119.6453 -154.4329 85.2554 175.3654 -54.2917 -71.5134 105.4175 -179.5154 -169.4906
State:	-17.188  -2.835   6.013  -0.329 -0.944  0.013 -87.638    125.34  121.93  112.64  119.65 -154.43   85.26  175.37  -54.29  -71.51  105.42 -179.52 -169.49

DOCKED: MODEL       97
DOCKED: USER    Run = 97
DOCKED: USER    DPF = D:/Protein_go_brrr/autodock/final/AncMH_nat/heme_Co/dock.dpf
DOCKED: USER  
DOCKED: USER    Estimated Free Energy of Binding    =   -5.09 kcal/mol  [=(1)+(2)+(3)-(4)]
DOCKED: USER    Estimated Inhibition Constant, Ki   =  187.17 uM (micromolar)  [Temperature = 298.15 K]
DOCKED: USER    
DOCKED: USER    (1) Final Intermolecular Energy     =   -8.67 kcal/mol
DOCKED: USER        vdW + Hbond + desolv Energy     =   -5.62 kcal/mol
DOCKED: USER        Electrostatic Energy            =   -3.05 kcal/mol
DOCKED: USER    (2) Final Total Internal Energy     =   -2.67 kcal/mol
DOCKED: USER    (3) Torsional Free Energy           =   +3.58 kcal/mol
DOCKED: USER    (4) Unbound System's Energy  [=(2)] =   -2.67 kcal/mol
DOCKED: USER    
DOCKED: USER    
DOCKED: USER    NEWDPF move heme_Co_opt.pdbqt
DOCKED: USER    NEWDPF about 8.781000 34.984000 -0.736000
DOCKED: USER    NEWDPF tran0 -17.188013 -2.834510 6.013189
DOCKED: USER    NEWDPF quaternion0 -0.227647 -0.653833 0.008750 -0.721528
DOCKED: USER    NEWDPF axisangle0 -0.328787 -0.944320 0.012637 -87.638388
DOCKED: USER    NEWDPF quat0 -0.328787 -0.944320 0.012637 -87.638388
DOCKED: USER    NEWDPF dihe0 125.34 121.93 112.64 119.65 -154.43 85.26 175.37 -54.29 -71.51 105.42 -179.52 -169.49 
DOCKED: USER  keepresnum = 1 
DOCKED: USER  
DOCKED: REMARK  12 active torsions:
DOCKED: REMARK  status: ('A' for Active; 'I' for Inactive)
DOCKED: REMARK    1  A    between atoms: C_6  and  C_10 
DOCKED: REMARK    2  A    between atoms: C_10  and  C_11 
DOCKED: REMARK    3  A    between atoms: C_11  and  C_12 
DOCKED: REMARK    4  A    between atoms: C_12  and  O_14 
DOCKED: REMARK    5  A    between atoms: C_17  and  C_20 
DOCKED: REMARK    6  A    between atoms: C_24  and  C_27 
DOCKED: REMARK    7  A    between atoms: C_31  and  C_34 
DOCKED: REMARK    8  A    between atoms: C_34  and  C_35 
DOCKED: REMARK    9  A    between atoms: C_35  and  C_36 
DOCKED: REMARK   10  A    between atoms: C_36  and  O_38 
DOCKED: REMARK   11  A    between atoms: FE_43  and  C_44 
DOCKED: REMARK   12  A    between atoms: C_44  and  O_45 
DOCKED: USER                              x       y       z     vdW  Elec       q    Type
DOCKED: USER                           _______ _______ _______ _____ _____    ______ ____
DOCKED: ROOT
DOCKED: ATOM      1  C   UNL d   1     -16.521  -3.257   3.990 -0.08 +0.04    +0.064 A 
DOCKED: ATOM      2  C   UNL d   1     -20.635  -4.066   6.232 -0.06 +0.02    +0.064 C 
DOCKED: ATOM      3  C   UNL d   1     -18.769  -2.449  10.322 -0.08 +0.02    +0.064 A 
DOCKED: ATOM      4  C   UNL d   1     -14.682  -1.255   7.969 -0.15 +0.01    +0.064 A 
DOCKED: ATOM      5  C   UNL d   1     -17.771  -3.631   4.311 -0.06 +0.03    +0.066 A 
DOCKED: ATOM      6  C   UNL d   1     -18.681  -4.102   3.344 -0.05 -0.01    -0.021 A 
DOCKED: ATOM      7  C   UNL d   1     -19.880  -4.313   3.996 -0.05 -0.01    -0.025 A 
DOCKED: ATOM      8  C   UNL d   1     -19.646  -3.978   5.334 -0.03 +0.03    +0.066 A 
DOCKED: ATOM      9  C   UNL d   1     -21.204  -4.811   3.396 -0.04 +0.02    +0.051 C 
DOCKED: ATOM     10  C   UNL d   1     -20.482  -3.768   7.634 -0.08 +0.02    +0.066 A 
DOCKED: ATOM     11  C   UNL d   1     -21.441  -3.974   8.650 -0.07 -0.01    -0.021 A 
DOCKED: ATOM     12  C   UNL d   1     -20.868  -3.498   9.833 -0.06 +0.00    +0.000 A 
DOCKED: ATOM     13  C   UNL d   1     -19.603  -3.050   9.455 -0.08 +0.02    +0.070 A 
DOCKED: ATOM     14  C   UNL d   1     -22.769  -4.669   8.496 -0.04 +0.01    +0.052 C 
DOCKED: ATOM     15  C   UNL d   1     -17.454  -1.882  10.092 -0.14 +0.01    +0.066 A 
DOCKED: ATOM     16  C   UNL d   1     -16.705  -1.146  10.999 -0.19 -0.00    -0.021 A 
DOCKED: ATOM     17  C   UNL d   1     -15.527  -0.797  10.324 -0.28 +0.00    +0.000 A 
DOCKED: ATOM     18  C   UNL d   1     -15.643  -1.365   9.060 -0.19 +0.01    +0.070 A 
DOCKED: ATOM     19  C   UNL d   1     -17.121  -0.814  12.414 -0.14 +0.01    +0.052 C 
DOCKED: ATOM     20  C   UNL d   1     -14.812  -1.724   6.705 -0.21 +0.02    +0.066 A 
DOCKED: ATOM     21  C   UNL d   1     -13.833  -1.525   5.734 -0.28 -0.01    -0.025 A 
DOCKED: ATOM     22  C   UNL d   1     -14.323  -2.117   4.584 -0.23 -0.01    -0.021 A 
DOCKED: ATOM     23  C   UNL d   1     -15.592  -2.641   4.910 -0.12 +0.03    +0.066 A 
DOCKED: ATOM     24  C   UNL d   1     -12.505  -0.789   5.887 -0.39 +0.01    +0.051 C 
DOCKED: ATOM     25  N   UNL d   1     -18.346  -3.558   5.559 -0.05 -0.11    -0.248 N 
DOCKED: ATOM     26  N   UNL d   1     -19.349  -3.265   8.136 -0.07 -0.07    -0.248 N 
DOCKED: ATOM     27  N   UNL d   1     -16.816  -1.977   8.947 -0.10 -0.05    -0.248 N 
DOCKED: ATOM     28  N   UNL d   1     -15.892  -2.404   6.193 -0.08 -0.09    -0.248 N 
DOCKED: ATOM     29 FE   UNL d   1     -17.533  -2.720   7.352 -0.03 +0.00    +0.000 Fe
DOCKED: ENDROOT
DOCKED: BRANCH   6  30
DOCKED: ATOM     30  C   UNL d   1     -18.420  -4.258   1.850 -0.07 +0.04    +0.052 C 
DOCKED: BRANCH  30  31
DOCKED: ATOM     31  C   UNL d   1     -18.906  -3.025   1.088 -0.03 +0.08    +0.115 C 
DOCKED: BRANCH  31  32
DOCKED: ATOM     32  C   UNL d   1     -17.763  -2.157   0.607 -0.06 +0.13    +0.139 C 
DOCKED: ATOM     33  O   UNL d   1     -16.799  -2.678   0.066 +0.02 -0.81    -0.650 OA
DOCKED: BRANCH  32  34
DOCKED: ATOM     34  O   UNL d   1     -17.793  -0.808   0.713 +0.04 -0.83    -0.776 OA
DOCKED: ATOM     35  H   UNL d   1     -17.139  -0.286   1.198 +0.03 +0.23    +0.167 HD
DOCKED: ENDBRANCH  32  34
DOCKED: ENDBRANCH  31  32
DOCKED: ENDBRANCH  30  31
DOCKED: ENDBRANCH   6  30
DOCKED: BRANCH  29  36
DOCKED: ATOM     36  C   UNL d   1     -18.350  -0.891   6.734 -0.11 +0.11    +0.190 C 
DOCKED: BRANCH  36  37
DOCKED: ATOM     37  O   UNL d   1     -18.220   0.121   5.778 -0.09 -0.38    -0.399 OA
DOCKED: ATOM     38  H   UNL d   1     -17.557  -0.231   5.121 +0.05 +0.18    +0.209 HD
DOCKED: ENDBRANCH  36  37
DOCKED: ENDBRANCH  29  36
DOCKED: BRANCH  22  39
DOCKED: ATOM     39  C   UNL d   1     -13.634  -2.116   3.232 -0.24 +0.04    +0.052 C 
DOCKED: BRANCH  39  40
DOCKED: ATOM     40  C   UNL d   1     -13.601  -0.698   2.640 -0.26 +0.10    +0.115 C 
DOCKED: BRANCH  40  41
DOCKED: ATOM     41  C   UNL d   1     -14.893  -0.266   1.981 -0.18 +0.20    +0.139 C 
DOCKED: ATOM     42  O   UNL d   1     -15.791   0.197   2.670 -0.08 -0.97    -0.650 OA
DOCKED: BRANCH  41  43
DOCKED: ATOM     43  O   UNL d   1     -15.051  -0.297   0.639 -0.21 -1.35    -0.776 OA
DOCKED: ATOM     44  H   UNL d   1     -15.726  -0.837   0.207 +0.03 +0.23    +0.167 HD
DOCKED: ENDBRANCH  41  43
DOCKED: ENDBRANCH  40  41
DOCKED: ENDBRANCH  39  40
DOCKED: ENDBRANCH  22  39
DOCKED: BRANCH  12  45
DOCKED: ATOM     45  C   UNL d   1     -21.362  -3.432  11.272 -0.04 +0.00    +0.004 C 
DOCKED: ATOM     46  C   UNL d   1     -20.961  -4.091  12.356 -0.06 +0.00    +0.012 C 
DOCKED: ENDBRANCH  12  45
DOCKED: BRANCH  17  47
DOCKED: ATOM     47  C   UNL d   1     -14.380   0.045  10.779 -0.40 -0.00    +0.004 C 
DOCKED: ATOM     48  C   UNL d   1     -13.345   0.366   9.999 -0.53 +0.00    +0.012 C 
DOCKED: ENDBRANCH  17  47
DOCKED: TORSDOF 12
DOCKED: TER
DOCKED: ENDMDL
________________________________________________________________________________


	BEGINNING GENETIC ALGORITHM DOCKING 98 of 100
Run: 98 Seed: 565409347 153572392 [ Run 98 of 100 GA/GALS ]
Beginning LAMARCKIAN GENETIC ALGORITHM (LGA), with a maximum of 25000000 energy evaluations.

Final-Value: -12.516


	FINAL GENETIC ALGORITHM DOCKED STATE
	_______________________________________________


Detailed state:  trans -15.583 -1.430 1.179 quatxyzw 0.142943 0.271348 -0.113347 0.945034 center 8.781 34.984 -0.736 ntor 12 141.0241 82.5120 -63.1273 -133.8805 136.1038 137.6434 -119.9686 -10.2569 -122.8586 176.4400 178.1867 -180.0000
State:	-15.583  -1.430   1.179   0.437  0.830 -0.347 38.170    141.02   82.51  -63.13 -133.88  136.10  137.64 -119.97  -10.26 -122.86  176.44  178.19 -180.00

DOCKED: MODEL       98
DOCKED: USER    Run = 98
DOCKED: USER    DPF = D:/Protein_go_brrr/autodock/final/AncMH_nat/heme_Co/dock.dpf
DOCKED: USER  
DOCKED: USER    Estimated Free Energy of Binding    =   -5.37 kcal/mol  [=(1)+(2)+(3)-(4)]
DOCKED: USER    Estimated Inhibition Constant, Ki   =  115.48 uM (micromolar)  [Temperature = 298.15 K]
DOCKED: USER    
DOCKED: USER    (1) Final Intermolecular Energy     =   -8.95 kcal/mol
DOCKED: USER        vdW + Hbond + desolv Energy     =   -5.95 kcal/mol
DOCKED: USER        Electrostatic Energy            =   -3.00 kcal/mol
DOCKED: USER    (2) Final Total Internal Energy     =   -3.56 kcal/mol
DOCKED: USER    (3) Torsional Free Energy           =   +3.58 kcal/mol
DOCKED: USER    (4) Unbound System's Energy  [=(2)] =   -3.56 kcal/mol
DOCKED: USER    
DOCKED: USER    
DOCKED: USER    NEWDPF move heme_Co_opt.pdbqt
DOCKED: USER    NEWDPF about 8.781000 34.984000 -0.736000
DOCKED: USER    NEWDPF tran0 -15.583088 -1.429680 1.179103
DOCKED: USER    NEWDPF quaternion0 0.142943 0.271348 -0.113347 0.945034
DOCKED: USER    NEWDPF axisangle0 0.437174 0.829884 -0.346658 38.170092
DOCKED: USER    NEWDPF quat0 0.437174 0.829884 -0.346658 38.170092
DOCKED: USER    NEWDPF dihe0 141.02 82.51 -63.13 -133.88 136.10 137.64 -119.97 -10.26 -122.86 176.44 178.19 -180.00 
DOCKED: USER  keepresnum = 1 
DOCKED: USER  
DOCKED: REMARK  12 active torsions:
DOCKED: REMARK  status: ('A' for Active; 'I' for Inactive)
DOCKED: REMARK    1  A    between atoms: C_6  and  C_10 
DOCKED: REMARK    2  A    between atoms: C_10  and  C_11 
DOCKED: REMARK    3  A    between atoms: C_11  and  C_12 
DOCKED: REMARK    4  A    between atoms: C_12  and  O_14 
DOCKED: REMARK    5  A    between atoms: C_17  and  C_20 
DOCKED: REMARK    6  A    between atoms: C_24  and  C_27 
DOCKED: REMARK    7  A    between atoms: C_31  and  C_34 
DOCKED: REMARK    8  A    between atoms: C_34  and  C_35 
DOCKED: REMARK    9  A    between atoms: C_35  and  C_36 
DOCKED: REMARK   10  A    between atoms: C_36  and  O_38 
DOCKED: REMARK   11  A    between atoms: FE_43  and  C_44 
DOCKED: REMARK   12  A    between atoms: C_44  and  O_45 
DOCKED: USER                              x       y       z     vdW  Elec       q    Type
DOCKED: USER                           _______ _______ _______ _____ _____    ______ ____
DOCKED: ROOT
DOCKED: ATOM      1  C   UNL d   1     -16.788  -1.706  -0.606 -0.10 +0.07    +0.064 A 
DOCKED: ATOM      2  C   UNL d   1     -17.420  -3.042   3.913 -0.06 +0.04    +0.064 C 
DOCKED: ATOM      3  C   UNL d   1     -13.091  -1.371   5.052 -0.27 +0.02    +0.064 A 
DOCKED: ATOM      4  C   UNL d   1     -12.580   0.349   0.530 -0.21 +0.07    +0.064 A 
DOCKED: ATOM      5  C   UNL d   1     -17.264  -2.226   0.537 -0.08 +0.07    +0.066 A 
DOCKED: ATOM      6  C   UNL d   1     -18.563  -2.762   0.631 -0.04 -0.02    -0.021 A 
DOCKED: ATOM      7  C   UNL d   1     -18.750  -3.127   1.950 -0.02 -0.02    -0.025 A 
DOCKED: ATOM      8  C   UNL d   1     -17.551  -2.814   2.600 -0.05 +0.05    +0.066 A 
DOCKED: ATOM      9  C   UNL d   1     -20.002  -3.747   2.588 -0.01 +0.02    +0.051 C 
DOCKED: ATOM     10  C   UNL d   1     -16.217  -2.778   4.662 -0.09 +0.04    +0.066 A 
DOCKED: ATOM     11  C   UNL d   1     -15.968  -3.123   6.008 -0.16 -0.01    -0.021 A 
DOCKED: ATOM     12  C   UNL d   1     -14.697  -2.627   6.313 -0.27 +0.00    +0.000 A 
DOCKED: ATOM     13  C   UNL d   1     -14.261  -2.029   5.131 -0.22 +0.03    +0.070 A 
DOCKED: ATOM     14  C   UNL d   1     -16.858  -3.955   6.895 -0.21 +0.02    +0.052 C 
DOCKED: ATOM     15  C   UNL d   1     -12.512  -0.654   3.933 -0.06 +0.03    +0.066 A 
DOCKED: ATOM     16  C   UNL d   1     -11.367   0.129   3.960 -0.22 -0.01    -0.021 A 
DOCKED: ATOM     17  C   UNL d   1     -11.217   0.629   2.659 -0.33 +0.00    +0.000 A 
DOCKED: ATOM     18  C   UNL d   1     -12.277   0.096   1.933 -0.25 +0.06    +0.070 A 
DOCKED: ATOM     19  C   UNL d   1     -10.494   0.364   5.173 -0.41 +0.01    +0.052 C 
DOCKED: ATOM     20  C   UNL d   1     -13.652  -0.088  -0.173 -0.14 +0.09    +0.066 A 
DOCKED: ATOM     21  C   UNL d   1     -13.853   0.252  -1.509 -0.16 -0.03    -0.025 A 
DOCKED: ATOM     22  C   UNL d   1     -15.044  -0.350  -1.872 -0.14 -0.02    -0.021 A 
DOCKED: ATOM     23  C   UNL d   1     -15.520  -1.023  -0.727 -0.13 +0.08    +0.066 A 
DOCKED: ATOM     24  C   UNL d   1     -12.965   1.125  -2.392 -0.16 +0.04    +0.051 C 
DOCKED: ATOM     25  N   UNL d   1     -16.611  -2.261   1.748 -0.07 -0.25    -0.248 N 
DOCKED: ATOM     26  N   UNL d   1     -15.157  -2.170   4.118 -0.08 -0.15    -0.248 N 
DOCKED: ATOM     27  N   UNL d   1     -13.045  -0.638   2.731 -0.17 -0.19    -0.248 N 
DOCKED: ATOM     28  N   UNL d   1     -14.682  -0.865   0.304 -0.14 -0.34    -0.248 N 
DOCKED: ATOM     29 FE   UNL d   1     -14.721  -1.401   2.265 -0.04 +0.00    +0.000 Fe
DOCKED: ENDROOT
DOCKED: BRANCH   6  30
DOCKED: ATOM     30  C   UNL d   1     -19.599  -2.837  -0.486 -0.02 +0.03    +0.052 C 
DOCKED: BRANCH  30  31
DOCKED: ATOM     31  C   UNL d   1     -20.581  -1.670  -0.387 +0.01 +0.06    +0.115 C 
DOCKED: BRANCH  31  32
DOCKED: ATOM     32  C   UNL d   1     -19.884  -0.327  -0.382 +0.00 +0.10    +0.139 C 
DOCKED: ATOM     33  O   UNL d   1     -19.995   0.412  -1.349 +0.03 -0.39    -0.650 OA
DOCKED: BRANCH  32  34
DOCKED: ATOM     34  O   UNL d   1     -19.174   0.109   0.685 +0.04 -0.82    -0.776 OA
DOCKED: ATOM     35  H   UNL d   1     -18.313   0.545   0.624 +0.03 +0.22    +0.167 HD
DOCKED: ENDBRANCH  32  34
DOCKED: ENDBRANCH  31  32
DOCKED: ENDBRANCH  30  31
DOCKED: ENDBRANCH   6  30
DOCKED: BRANCH  29  36
DOCKED: ATOM     36  C   UNL d   1     -15.775   0.347   2.745 +0.07 +0.29    +0.190 C 
DOCKED: BRANCH  36  37
DOCKED: ATOM     37  O   UNL d   1     -17.001   0.995   2.561 -0.21 -0.74    -0.399 OA
DOCKED: ATOM     38  H   UNL d   1     -17.318   0.694   1.664 +0.04 +0.39    +0.209 HD
DOCKED: ENDBRANCH  36  37
DOCKED: ENDBRANCH  29  36
DOCKED: BRANCH  22  39
DOCKED: ATOM     39  C   UNL d   1     -15.715  -0.227  -3.227 -0.07 +0.04    +0.052 C 
DOCKED: BRANCH  39  40
DOCKED: ATOM     40  C   UNL d   1     -16.450   1.118  -3.349 -0.02 +0.07    +0.115 C 
DOCKED: BRANCH  40  41
DOCKED: ATOM     41  C   UNL d   1     -16.532   1.904  -2.057 -0.02 +0.18    +0.139 C 
DOCKED: ATOM     42  O   UNL d   1     -16.165   3.070  -2.042 -0.35 -0.97    -0.650 OA
DOCKED: BRANCH  41  43
DOCKED: ATOM     43  O   UNL d   1     -17.083   1.379  -0.940 -0.00 -1.37    -0.776 OA
DOCKED: ATOM     44  H   UNL d   1     -17.987   1.039  -0.917 +0.02 +0.20    +0.167 HD
DOCKED: ENDBRANCH  41  43
DOCKED: ENDBRANCH  40  41
DOCKED: ENDBRANCH  39  40
DOCKED: ENDBRANCH  22  39
DOCKED: BRANCH  12  45
DOCKED: ATOM     45  C   UNL d   1     -13.842  -2.666   7.572 -0.26 +0.00    +0.004 C 
DOCKED: ATOM     46  C   UNL d   1     -13.032  -1.751   8.098 -0.26 +0.00    +0.012 C 
DOCKED: ENDBRANCH  12  45
DOCKED: BRANCH  17  47
DOCKED: ATOM     47  C   UNL d   1     -10.200   1.577   2.113 -0.25 +0.00    +0.004 C 
DOCKED: ATOM     48  C   UNL d   1      -9.293   1.236   1.194 -0.42 +0.00    +0.012 C 
DOCKED: ENDBRANCH  17  47
DOCKED: TORSDOF 12
DOCKED: TER
DOCKED: ENDMDL
________________________________________________________________________________


	BEGINNING GENETIC ALGORITHM DOCKING 99 of 100
Run: 99 Seed: 1482495261 1571343904 [ Run 99 of 100 GA/GALS ]
Beginning LAMARCKIAN GENETIC ALGORITHM (LGA), with a maximum of 25000000 energy evaluations.

Final-Value: -10.360


	FINAL GENETIC ALGORITHM DOCKED STATE
	_______________________________________________


Detailed state:  trans -20.485 5.767 1.810 quatxyzw 0.228379 0.572408 -0.182142 0.766170 center 8.781 34.984 -0.736 ntor 12 166.9947 98.5025 -48.5898 124.7475 -100.4077 152.5626 -145.9460 -157.3761 114.2600 121.9051 10.0849 36.8515
State:	-20.485   5.767   1.810   0.355  0.891 -0.283 79.978    166.99   98.50  -48.59  124.75 -100.41  152.56 -145.95 -157.38  114.26  121.91   10.08   36.85

DOCKED: MODEL       99
DOCKED: USER    Run = 99
DOCKED: USER    DPF = D:/Protein_go_brrr/autodock/final/AncMH_nat/heme_Co/dock.dpf
DOCKED: USER  
DOCKED: USER    Estimated Free Energy of Binding    =   -4.33 kcal/mol  [=(1)+(2)+(3)-(4)]
DOCKED: USER    Estimated Inhibition Constant, Ki   =  672.36 uM (micromolar)  [Temperature = 298.15 K]
DOCKED: USER    
DOCKED: USER    (1) Final Intermolecular Energy     =   -7.91 kcal/mol
DOCKED: USER        vdW + Hbond + desolv Energy     =   -4.84 kcal/mol
DOCKED: USER        Electrostatic Energy            =   -3.07 kcal/mol
DOCKED: USER    (2) Final Total Internal Energy     =   -2.45 kcal/mol
DOCKED: USER    (3) Torsional Free Energy           =   +3.58 kcal/mol
DOCKED: USER    (4) Unbound System's Energy  [=(2)] =   -2.45 kcal/mol
DOCKED: USER    
DOCKED: USER    
DOCKED: USER    NEWDPF move heme_Co_opt.pdbqt
DOCKED: USER    NEWDPF about 8.781000 34.984000 -0.736000
DOCKED: USER    NEWDPF tran0 -20.484619 5.767482 1.810137
DOCKED: USER    NEWDPF quaternion0 0.228379 0.572408 -0.182142 0.766170
DOCKED: USER    NEWDPF axisangle0 0.355378 0.890716 -0.283429 79.977595
DOCKED: USER    NEWDPF quat0 0.355378 0.890716 -0.283429 79.977595
DOCKED: USER    NEWDPF dihe0 166.99 98.50 -48.59 124.75 -100.41 152.56 -145.95 -157.38 114.26 121.91 10.08 36.85 
DOCKED: USER  keepresnum = 1 
DOCKED: USER  
DOCKED: REMARK  12 active torsions:
DOCKED: REMARK  status: ('A' for Active; 'I' for Inactive)
DOCKED: REMARK    1  A    between atoms: C_6  and  C_10 
DOCKED: REMARK    2  A    between atoms: C_10  and  C_11 
DOCKED: REMARK    3  A    between atoms: C_11  and  C_12 
DOCKED: REMARK    4  A    between atoms: C_12  and  O_14 
DOCKED: REMARK    5  A    between atoms: C_17  and  C_20 
DOCKED: REMARK    6  A    between atoms: C_24  and  C_27 
DOCKED: REMARK    7  A    between atoms: C_31  and  C_34 
DOCKED: REMARK    8  A    between atoms: C_34  and  C_35 
DOCKED: REMARK    9  A    between atoms: C_35  and  C_36 
DOCKED: REMARK   10  A    between atoms: C_36  and  O_38 
DOCKED: REMARK   11  A    between atoms: FE_43  and  C_44 
DOCKED: REMARK   12  A    between atoms: C_44  and  O_45 
DOCKED: USER                              x       y       z     vdW  Elec       q    Type
DOCKED: USER                           _______ _______ _______ _____ _____    ______ ____
DOCKED: ROOT
DOCKED: ATOM      1  C   UNL d   1     -20.216   5.015  -0.209 -0.04 +0.04    +0.064 A 
DOCKED: ATOM      2  C   UNL d   1     -23.405   4.018   3.174 -0.05 +0.06    +0.064 C 
DOCKED: ATOM      3  C   UNL d   1     -21.087   6.849   6.246 -0.15 +0.03    +0.064 A 
DOCKED: ATOM      4  C   UNL d   1     -18.040   8.183   2.697 -0.22 +0.02    +0.064 A 
DOCKED: ATOM      5  C   UNL d   1     -21.237   4.506   0.500 -0.05 +0.05    +0.066 A 
DOCKED: ATOM      6  C   UNL d   1     -22.207   3.668  -0.082 -0.02 -0.01    -0.021 A 
DOCKED: ATOM      7  C   UNL d   1     -23.142   3.400   0.898 -0.03 -0.02    -0.025 A 
DOCKED: ATOM      8  C   UNL d   1     -22.695   4.073   2.040 -0.02 +0.07    +0.066 A 
DOCKED: ATOM      9  C   UNL d   1     -24.414   2.546   0.779 -0.00 +0.02    +0.051 C 
DOCKED: ATOM     10  C   UNL d   1     -23.010   4.655   4.405 -0.04 +0.07    +0.066 A 
DOCKED: ATOM     11  C   UNL d   1     -23.637   4.521   5.663 -0.08 -0.01    -0.021 A 
DOCKED: ATOM     12  C   UNL d   1     -22.938   5.354   6.542 -0.10 +0.00    +0.000 A 
DOCKED: ATOM     13  C   UNL d   1     -21.933   5.923   5.760 -0.13 +0.05    +0.070 A 
DOCKED: ATOM     14  C   UNL d   1     -24.765   3.581   6.002 -0.03 +0.02    +0.052 C 
DOCKED: ATOM     15  C   UNL d   1     -20.030   7.575   5.570 -0.17 +0.03    +0.066 A 
DOCKED: ATOM     16  C   UNL d   1     -19.287   8.624   6.093 -0.29 -0.01    -0.021 A 
DOCKED: ATOM     17  C   UNL d   1     -18.409   9.014   5.073 -0.36 +0.00    +0.000 A 
DOCKED: ATOM     18  C   UNL d   1     -18.674   8.158   4.009 -0.24 +0.03    +0.070 A 
DOCKED: ATOM     19  C   UNL d   1     -19.436   9.195   7.486 -0.19 +0.01    +0.052 C 
DOCKED: ATOM     20  C   UNL d   1     -18.341   7.418   1.621 -0.15 +0.03    +0.066 A 
DOCKED: ATOM     21  C   UNL d   1     -17.684   7.561   0.401 -0.14 -0.01    -0.025 A 
DOCKED: ATOM     22  C   UNL d   1     -18.270   6.640  -0.448 -0.08 -0.01    -0.021 A 
DOCKED: ATOM     23  C   UNL d   1     -19.272   5.985   0.299 -0.07 +0.04    +0.066 A 
DOCKED: ATOM     24  C   UNL d   1     -16.565   8.540   0.054 -0.25 +0.01    +0.051 C 
DOCKED: ATOM     25  N   UNL d   1     -21.513   4.761   1.824 -0.06 -0.31    -0.248 N 
DOCKED: ATOM     26  N   UNL d   1     -21.943   5.457   4.482 -0.10 -0.29    -0.248 N 
DOCKED: ATOM     27  N   UNL d   1     -19.666   7.334   4.331 -0.13 -0.14    -0.248 N 
DOCKED: ATOM     28  N   UNL d   1     -19.319   6.455   1.551 -0.08 -0.17    -0.248 N 
DOCKED: ATOM     29 FE   UNL d   1     -20.532   6.124   3.149 -0.03 +0.00    +0.000 Fe
DOCKED: ENDROOT
DOCKED: BRANCH   6  30
DOCKED: ATOM     30  C   UNL d   1     -22.265   3.219  -1.539 +0.00 +0.02    +0.052 C 
DOCKED: BRANCH  30  31
DOCKED: ATOM     31  C   UNL d   1     -21.583   1.862  -1.710 +0.01 +0.05    +0.115 C 
DOCKED: BRANCH  31  32
DOCKED: ATOM     32  C   UNL d   1     -20.088   1.934  -1.482 -0.00 +0.09    +0.139 C 
DOCKED: ATOM     33  O   UNL d   1     -19.650   1.859  -0.344 +0.01 -0.63    -0.650 OA
DOCKED: BRANCH  32  34
DOCKED: ATOM     34  O   UNL d   1     -19.210   2.031  -2.507 +0.03 -0.42    -0.776 OA
DOCKED: ATOM     35  H   UNL d   1     -18.290   2.314  -2.410 +0.01 +0.12    +0.167 HD
DOCKED: ENDBRANCH  32  34
DOCKED: ENDBRANCH  31  32
DOCKED: ENDBRANCH  30  31
DOCKED: ENDBRANCH   6  30
DOCKED: BRANCH  29  36
DOCKED: ATOM     36  C   UNL d   1     -21.873   7.582   2.462 -0.02 +0.07    +0.190 C 
DOCKED: BRANCH  36  37
DOCKED: ATOM     37  O   UNL d   1     -22.924   7.794   1.564 +0.00 -0.11    -0.399 OA
DOCKED: ATOM     38  H   UNL d   1     -22.893   7.013   0.944 +0.01 +0.07    +0.209 HD
DOCKED: ENDBRANCH  36  37
DOCKED: ENDBRANCH  29  36
DOCKED: BRANCH  22  39
DOCKED: ATOM     39  C   UNL d   1     -17.927   6.451  -1.914 -0.05 +0.02    +0.052 C 
DOCKED: BRANCH  39  40
DOCKED: ATOM     40  C   UNL d   1     -17.874   4.957  -2.271 -0.04 +0.07    +0.115 C 
DOCKED: BRANCH  40  41
DOCKED: ATOM     41  C   UNL d   1     -16.789   4.181  -1.553 +0.03 +0.18    +0.139 C 
DOCKED: ATOM     42  O   UNL d   1     -15.849   4.786  -1.058 -0.42 -1.04    -0.650 OA
DOCKED: BRANCH  41  43
DOCKED: ATOM     43  O   UNL d   1     -16.876   2.845  -1.367 -0.11 -1.42    -0.776 OA
DOCKED: ATOM     44  H   UNL d   1     -17.697   2.410  -1.105 +0.01 +0.24    +0.167 HD
DOCKED: ENDBRANCH  41  43
DOCKED: ENDBRANCH  40  41
DOCKED: ENDBRANCH  39  40
DOCKED: ENDBRANCH  22  39
DOCKED: BRANCH  12  45
DOCKED: ATOM     45  C   UNL d   1     -23.092   5.661   8.025 -0.07 +0.00    +0.004 C 
DOCKED: ATOM     46  C   UNL d   1     -22.271   5.434   9.046 -0.12 +0.00    +0.012 C 
DOCKED: ENDBRANCH  12  45
DOCKED: BRANCH  17  47
DOCKED: ATOM     47  C   UNL d   1     -17.419  10.132   5.041 -0.43 +0.00    +0.004 C 
DOCKED: ATOM     48  C   UNL d   1     -17.438  11.108   4.131 -0.38 -0.00    +0.012 C 
DOCKED: ENDBRANCH  17  47
DOCKED: TORSDOF 12
DOCKED: TER
DOCKED: ENDMDL
________________________________________________________________________________


	BEGINNING GENETIC ALGORITHM DOCKING 100 of 100
Run: 100 Seed: 1460951629 156815760 [ Run 100 of 100 GA/GALS ]
Beginning LAMARCKIAN GENETIC ALGORITHM (LGA), with a maximum of 25000000 energy evaluations.

Final-Value: -10.058


	FINAL GENETIC ALGORITHM DOCKED STATE
	_______________________________________________


Detailed state:  trans -16.174 3.145 -1.682 quatxyzw -0.772137 -0.225737 0.214090 -0.554088 center 8.781 34.984 -0.736 ntor 12 -21.2058 108.1264 132.9707 44.9349 46.9903 108.4455 -142.5290 -42.4940 152.0994 -146.9324 17.8117 143.9033
State:	-16.174   3.145  -1.682  -0.928 -0.271  0.257 -112.704    -21.21  108.13  132.97   44.93   46.99  108.45 -142.53  -42.49  152.10 -146.93   17.81  143.90

DOCKED: MODEL      100
DOCKED: USER    Run = 100
DOCKED: USER    DPF = D:/Protein_go_brrr/autodock/final/AncMH_nat/heme_Co/dock.dpf
DOCKED: USER  
DOCKED: USER    Estimated Free Energy of Binding    =   -4.39 kcal/mol  [=(1)+(2)+(3)-(4)]
DOCKED: USER    Estimated Inhibition Constant, Ki   =  602.15 uM (micromolar)  [Temperature = 298.15 K]
DOCKED: USER    
DOCKED: USER    (1) Final Intermolecular Energy     =   -7.97 kcal/mol
DOCKED: USER        vdW + Hbond + desolv Energy     =   -5.37 kcal/mol
DOCKED: USER        Electrostatic Energy            =   -2.61 kcal/mol
DOCKED: USER    (2) Final Total Internal Energy     =   -2.09 kcal/mol
DOCKED: USER    (3) Torsional Free Energy           =   +3.58 kcal/mol
DOCKED: USER    (4) Unbound System's Energy  [=(2)] =   -2.09 kcal/mol
DOCKED: USER    
DOCKED: USER    
DOCKED: USER    NEWDPF move heme_Co_opt.pdbqt
DOCKED: USER    NEWDPF about 8.781000 34.984000 -0.736000
DOCKED: USER    NEWDPF tran0 -16.174291 3.144778 -1.681718
DOCKED: USER    NEWDPF quaternion0 -0.772137 -0.225737 0.214090 -0.554088
DOCKED: USER    NEWDPF axisangle0 -0.927538 -0.271169 0.257179 -112.704178
DOCKED: USER    NEWDPF quat0 -0.927538 -0.271169 0.257179 -112.704178
DOCKED: USER    NEWDPF dihe0 -21.21 108.13 132.97 44.93 46.99 108.45 -142.53 -42.49 152.10 -146.93 17.81 143.90 
DOCKED: USER  keepresnum = 1 
DOCKED: USER  
DOCKED: REMARK  12 active torsions:
DOCKED: REMARK  status: ('A' for Active; 'I' for Inactive)
DOCKED: REMARK    1  A    between atoms: C_6  and  C_10 
DOCKED: REMARK    2  A    between atoms: C_10  and  C_11 
DOCKED: REMARK    3  A    between atoms: C_11  and  C_12 
DOCKED: REMARK    4  A    between atoms: C_12  and  O_14 
DOCKED: REMARK    5  A    between atoms: C_17  and  C_20 
DOCKED: REMARK    6  A    between atoms: C_24  and  C_27 
DOCKED: REMARK    7  A    between atoms: C_31  and  C_34 
DOCKED: REMARK    8  A    between atoms: C_34  and  C_35 
DOCKED: REMARK    9  A    between atoms: C_35  and  C_36 
DOCKED: REMARK   10  A    between atoms: C_36  and  O_38 
DOCKED: REMARK   11  A    between atoms: FE_43  and  C_44 
DOCKED: REMARK   12  A    between atoms: C_44  and  O_45 
DOCKED: USER                              x       y       z     vdW  Elec       q    Type
DOCKED: USER                           _______ _______ _______ _____ _____    ______ ____
DOCKED: ROOT
DOCKED: ATOM      1  C   UNL d   1     -17.185   1.224  -1.751 -0.03 +0.07    +0.064 A 
DOCKED: ATOM      2  C   UNL d   1     -18.636   5.552  -0.418 -0.09 +0.04    +0.064 C 
DOCKED: ATOM      3  C   UNL d   1     -14.217   7.263  -1.033 -0.31 +0.02    +0.064 A 
DOCKED: ATOM      4  C   UNL d   1     -12.800   2.944  -2.766 -0.10 +0.03    +0.064 A 
DOCKED: ATOM      5  C   UNL d   1     -17.898   2.273  -1.307 -0.04 +0.08    +0.066 A 
DOCKED: ATOM      6  C   UNL d   1     -19.285   2.189  -1.074 -0.04 -0.02    -0.021 A 
DOCKED: ATOM      7  C   UNL d   1     -19.704   3.453  -0.709 -0.05 -0.02    -0.025 A 
DOCKED: ATOM      8  C   UNL d   1     -18.554   4.250  -0.720 -0.08 +0.06    +0.066 A 
DOCKED: ATOM      9  C   UNL d   1     -21.129   3.910  -0.362 -0.03 +0.03    +0.051 C 
DOCKED: ATOM     10  C   UNL d   1     -17.503   6.444  -0.378 -0.12 +0.04    +0.066 A 
DOCKED: ATOM     11  C   UNL d   1     -17.500   7.784   0.066 -0.14 -0.01    -0.021 A 
DOCKED: ATOM     12  C   UNL d   1     -16.199   8.257  -0.120 -0.27 +0.00    +0.000 A 
DOCKED: ATOM     13  C   UNL d   1     -15.503   7.170  -0.650 -0.24 +0.03    +0.070 A 
DOCKED: ATOM     14  C   UNL d   1     -18.651   8.513   0.711 -0.08 +0.01    +0.052 C 
DOCKED: ATOM     15  C   UNL d   1     -13.365   6.262  -1.644 -0.28 +0.03    +0.066 A 
DOCKED: ATOM     16  C   UNL d   1     -12.088   6.465  -2.148 -0.34 -0.00    -0.021 A 
DOCKED: ATOM     17  C   UNL d   1     -11.676   5.223  -2.651 -0.22 +0.00    +0.000 A 
DOCKED: ATOM     18  C   UNL d   1     -12.731   4.353  -2.398 -0.14 +0.03    +0.070 A 
DOCKED: ATOM     19  C   UNL d   1     -11.338   7.779  -2.135 -0.16 -0.00    +0.052 C 
DOCKED: ATOM     20  C   UNL d   1     -13.848   2.101  -2.607 -0.08 +0.06    +0.066 A 
DOCKED: ATOM     21  C   UNL d   1     -13.807   0.776  -3.035 -0.10 -0.02    -0.025 A 
DOCKED: ATOM     22  C   UNL d   1     -15.047   0.247  -2.729 -0.09 -0.02    -0.021 A 
DOCKED: ATOM     23  C   UNL d   1     -15.794   1.287  -2.136 -0.03 +0.08    +0.066 A 
DOCKED: ATOM     24  C   UNL d   1     -12.650   0.053  -3.719 -0.18 +0.02    +0.051 C 
DOCKED: ATOM     25  N   UNL d   1     -17.420   3.543  -1.081 -0.04 -0.37    -0.248 N 
DOCKED: ATOM     26  N   UNL d   1     -16.279   6.059  -0.753 -0.12 -0.19    -0.248 N 
DOCKED: ATOM     27  N   UNL d   1     -13.731   5.013  -1.824 -0.12 -0.18    -0.248 N 
DOCKED: ATOM     28  N   UNL d   1     -15.072   2.412  -2.063 +0.02 -0.39    -0.248 N 
DOCKED: ATOM     29 FE   UNL d   1     -15.465   4.318  -1.475 -0.04 +0.00    +0.000 Fe
DOCKED: ENDROOT
DOCKED: BRANCH   6  30
DOCKED: ATOM     30  C   UNL d   1     -20.169   0.963  -1.275 -0.00 +0.03    +0.052 C 
DOCKED: BRANCH  30  31
DOCKED: ATOM     31  C   UNL d   1     -20.474   0.294   0.065 -0.01 +0.09    +0.115 C 
DOCKED: BRANCH  31  32
DOCKED: ATOM     32  C   UNL d   1     -19.362   0.488   1.073 -0.07 +0.17    +0.139 C 
DOCKED: ATOM     33  O   UNL d   1     -19.364   1.480   1.787 -0.27 -1.43    -0.650 OA
DOCKED: BRANCH  32  34
DOCKED: ATOM     34  O   UNL d   1     -18.382  -0.429   1.246 +0.05 -0.86    -0.776 OA
DOCKED: ATOM     35  H   UNL d   1     -18.476  -1.370   1.045 +0.03 +0.15    +0.167 HD
DOCKED: ENDBRANCH  32  34
DOCKED: ENDBRANCH  31  32
DOCKED: ENDBRANCH  30  31
DOCKED: ENDBRANCH   6  30
DOCKED: BRANCH  29  36
DOCKED: ATOM     36  C   UNL d   1     -16.162   4.791  -3.395 -0.03 +0.09    +0.190 C 
DOCKED: BRANCH  36  37
DOCKED: ATOM     37  O   UNL d   1     -16.879   4.274  -4.479 +0.00 -0.12    -0.399 OA
DOCKED: ATOM     38  H   UNL d   1     -17.058   3.323  -4.237 +0.01 +0.08    +0.209 HD
DOCKED: ENDBRANCH  36  37
DOCKED: ENDBRANCH  29  36
DOCKED: BRANCH  22  39
DOCKED: ATOM     39  C   UNL d   1     -15.506  -1.163  -3.051 -0.12 +0.04    +0.052 C 
DOCKED: BRANCH  39  40
DOCKED: ATOM     40  C   UNL d   1     -16.660  -1.140  -4.067 -0.04 +0.06    +0.115 C 
DOCKED: BRANCH  40  41
DOCKED: ATOM     41  C   UNL d   1     -16.659   0.064  -4.986 -0.00 +0.05    +0.139 C 
DOCKED: ATOM     42  O   UNL d   1     -16.143  -0.026  -6.091 +0.02 -0.16    -0.650 OA
DOCKED: BRANCH  41  43
DOCKED: ATOM     43  O   UNL d   1     -17.290   1.212  -4.652 +0.03 -0.28    -0.776 OA
DOCKED: ATOM     44  H   UNL d   1     -16.911   2.083  -4.827 +0.01 +0.05    +0.167 HD
DOCKED: ENDBRANCH  41  43
DOCKED: ENDBRANCH  40  41
DOCKED: ENDBRANCH  39  40
DOCKED: ENDBRANCH  22  39
DOCKED: BRANCH  12  45
DOCKED: ATOM     45  C   UNL d   1     -15.531   9.598   0.158 -0.23 -0.00    +0.004 C 
DOCKED: ATOM     46  C   UNL d   1     -15.708  10.463   1.152 -0.41 -0.01    +0.012 C 
DOCKED: ENDBRANCH  12  45
DOCKED: BRANCH  17  47
DOCKED: ATOM     47  C   UNL d   1     -10.419   4.853  -3.367 -0.32 -0.00    +0.004 C 
DOCKED: ATOM     48  C   UNL d   1      -9.270   5.520  -3.232 -0.47 -0.00    +0.012 C 
DOCKED: ENDBRANCH  17  47
DOCKED: TORSDOF 12
DOCKED: TER
DOCKED: ENDMDL
________________________________________________________________________________

DPF> analysis                             # perform a ranked cluster analysis


		CLUSTER ANALYSIS OF CONFORMATIONS
		_________________________________

Number of conformations = 100

RMSD cluster analysis will be performed using the ligand atoms only (48 / 48 total atoms).

Outputting structurally similar clusters, ranked in order of increasing energy.


________________________________________________________________________________

Number of distinct conformational clusters found = 45,  out of 100 runs,
Using an rmsd-tolerance of 2.0 A


	CLUSTERING HISTOGRAM
	____________________

________________________________________________________________________________
     |           |     |           |     |                                    
Clus | Lowest    | Run | Mean      | Num | Histogram                          
-ter | Binding   |     | Binding   | in  |                                    
Rank | Energy    |     | Energy    | Clus|    5    10   15   20   25   30   35
_____|___________|_____|___________|_____|____:____|____:____|____:____|____:___
   1 |     -8.93 |  26 |     -8.68 |   3 |###
   2 |     -8.72 |  28 |     -8.72 |   1 |#
   3 |     -7.78 |  33 |     -7.68 |   2 |##
   4 |     -6.80 |  50 |     -5.94 |   4 |####
   5 |     -6.60 |  44 |     -6.17 |   2 |##
   6 |     -6.55 |  86 |     -6.18 |   2 |##
   7 |     -6.52 |  22 |     -5.56 |  15 |###############
   8 |     -6.42 |  14 |     -5.80 |   3 |###
   9 |     -6.36 |  24 |     -5.84 |   5 |#####
  10 |     -6.20 |  88 |     -5.65 |   7 |#######
  11 |     -6.07 |  47 |     -6.07 |   1 |#
  12 |     -5.98 |  94 |     -5.19 |   2 |##
  13 |     -5.92 |  56 |     -5.77 |   2 |##
  14 |     -5.82 |  35 |     -5.82 |   1 |#
  15 |     -5.70 |  59 |     -5.45 |   3 |###
  16 |     -5.60 |  34 |     -5.41 |   2 |##
  17 |     -5.52 |  31 |     -4.70 |   4 |####
  18 |     -5.45 |  65 |     -4.84 |   3 |###
  19 |     -5.41 |  62 |     -4.82 |   3 |###
  20 |     -5.34 |  29 |     -5.33 |   2 |##
  21 |     -5.13 |  16 |     -5.13 |   1 |#
  22 |     -5.09 |  97 |     -4.99 |   3 |###
  23 |     -4.90 |  66 |     -4.90 |   1 |#
  24 |     -4.79 |  18 |     -4.79 |   1 |#
  25 |     -4.69 |  83 |     -4.69 |   1 |#
  26 |     -4.66 |  40 |     -4.24 |   2 |##
  27 |     -4.58 |  30 |     -4.58 |   1 |#
  28 |     -4.57 |   2 |     -4.57 |   1 |#
  29 |     -4.48 |  52 |     -4.48 |   1 |#
  30 |     -4.40 |  43 |     -4.40 |   1 |#
  31 |     -4.33 |  99 |     -4.33 |   1 |#
  32 |     -4.22 |  64 |     -4.22 |   1 |#
  33 |     -4.15 |  58 |     -4.15 |   1 |#
  34 |     -4.08 |   8 |     -4.08 |   1 |#
  35 |     -3.81 |  72 |     -3.81 |   1 |#
  36 |     -3.73 |  75 |     -3.29 |   2 |##
  37 |     -3.60 |  63 |     -3.19 |   3 |###
  38 |     -3.44 |  25 |     -3.15 |   2 |##
  39 |     -3.35 |  51 |     -3.35 |   1 |#
  40 |     -3.31 |  95 |     -3.31 |   1 |#
  41 |     -3.24 |  46 |     -2.92 |   2 |##
  42 |     -3.21 |  38 |     -3.21 |   1 |#
  43 |     -3.18 |  84 |     -3.18 |   1 |#
  44 |     -2.73 |   4 |     -2.73 |   1 |#
  45 |     -2.24 |  80 |     -2.24 |   1 |#
_____|___________|_____|___________|_____|______________________________________


Number of multi-member conformational clusters found = 23, out of 100 runs.

	RMSD TABLE
	__________

_____________________________________________________________________
     |      |      |           |         |                 |
Rank | Sub- | Run  | Binding   | Cluster | Reference       | Grep
     | Rank |      | Energy    | RMSD    | RMSD            | Pattern
_____|______|______|___________|_________|_________________|___________
   1      1     26       -8.93      0.00     37.67           RANKING
   1      2     27       -8.83      1.48     37.77           RANKING
   1      3     37       -8.26      1.08     37.61           RANKING
   2      1     28       -8.72      0.00     38.95           RANKING
   3      1     33       -7.78      0.00     37.44           RANKING
   3      2     12       -7.57      0.46     37.29           RANKING
   4      1     50       -6.80      0.00     39.70           RANKING
   4      2     69       -5.86      0.68     39.79           RANKING
   4      3     17       -5.71      1.61     40.45           RANKING
   4      4     98       -5.37      1.32     40.32           RANKING
   5      1     44       -6.60      0.00     41.43           RANKING
   5      2     73       -5.74      1.89     41.06           RANKING
   6      1     86       -6.55      0.00     36.73           RANKING
   6      2     45       -5.80      0.92     36.89           RANKING
   7      1     22       -6.52      0.00     32.73           RANKING
   7      2     10       -6.38      0.69     32.64           RANKING
   7      3      9       -6.31      0.72     32.69           RANKING
   7      4     11       -6.27      1.27     32.98           RANKING
   7      5     76       -6.24      1.01     32.53           RANKING
   7      6     39       -6.20      0.97     32.54           RANKING
   7      7     74       -6.00      0.88     32.79           RANKING
   7      8     93       -5.98      0.98     32.62           RANKING
   7      9     57       -5.86      0.98     32.61           RANKING
   7     10     15       -5.67      1.07     32.79           RANKING
   7     11     20       -5.22      1.58     32.09           RANKING
   7     12     36       -4.53      0.93     32.57           RANKING
   7     13     13       -4.46      0.94     32.57           RANKING
   7     14     82       -4.08      1.67     32.58           RANKING
   7     15     42       -3.64      1.63     32.36           RANKING
   8      1     14       -6.42      0.00     41.65           RANKING
   8      2     68       -5.69      1.82     41.05           RANKING
   8      3     21       -5.30      1.47     41.54           RANKING
   9      1     24       -6.36      0.00     40.87           RANKING
   9      2     55       -6.02      1.89     41.15           RANKING
   9      3     54       -5.75      1.75     41.30           RANKING
   9      4     90       -5.65      1.67     41.56           RANKING
   9      5     87       -5.44      1.54     41.95           RANKING
  10      1     88       -6.20      0.00     39.85           RANKING
  10      2     96       -6.07      0.32     39.84           RANKING
  10      3      6       -6.05      0.32     40.04           RANKING
  10      4     32       -5.95      0.59     39.94           RANKING
  10      5     77       -5.46      0.91     39.53           RANKING
  10      6     81       -5.40      0.79     39.56           RANKING
  10      7     91       -4.40      1.91     40.23           RANKING
  11      1     47       -6.07      0.00     35.55           RANKING
  12      1     94       -5.98      0.00     37.51           RANKING
  12      2    100       -4.39      1.13     36.99           RANKING
  13      1     56       -5.92      0.00     41.23           RANKING
  13      2     41       -5.62      1.87     41.01           RANKING
  14      1     35       -5.82      0.00     43.45           RANKING
  15      1     59       -5.70      0.00     42.05           RANKING
  15      2     19       -5.49      0.54     42.09           RANKING
  15      3     48       -5.18      1.20     41.91           RANKING
  16      1     34       -5.60      0.00     26.26           RANKING
  16      2      1       -5.22      1.72     26.23           RANKING
  17      1     31       -5.52      0.00     41.46           RANKING
  17      2     92       -4.45      1.47     42.06           RANKING
  17      3     67       -4.45      1.99     41.55           RANKING
  17      4     71       -4.38      1.72     42.51           RANKING
  18      1     65       -5.45      0.00     18.62           RANKING
  18      2     61       -5.36      0.90     18.59           RANKING
  18      3     78       -3.71      1.69     19.63           RANKING
  19      1     62       -5.41      0.00     34.93           RANKING
  19      2     89       -4.94      0.64     34.84           RANKING
  19      3      7       -4.11      0.90     34.69           RANKING
  20      1     29       -5.34      0.00     38.21           RANKING
  20      2     23       -5.31      1.39     37.76           RANKING
  21      1     16       -5.13      0.00     42.97           RANKING
  22      1     97       -5.09      0.00     42.88           RANKING
  22      2     79       -5.01      1.06     43.01           RANKING
  22      3     70       -4.87      1.15     42.68           RANKING
  23      1     66       -4.90      0.00     24.78           RANKING
  24      1     18       -4.79      0.00     38.34           RANKING
  25      1     83       -4.69      0.00     18.31           RANKING
  26      1     40       -4.66      0.00     48.56           RANKING
  26      2      5       -3.82      1.91     48.88           RANKING
  27      1     30       -4.58      0.00     46.56           RANKING
  28      1      2       -4.57      0.00     26.91           RANKING
  29      1     52       -4.48      0.00     46.54           RANKING
  30      1     43       -4.40      0.00     38.83           RANKING
  31      1     99       -4.33      0.00     38.02           RANKING
  32      1     64       -4.22      0.00     46.40           RANKING
  33      1     58       -4.15      0.00     27.22           RANKING
  34      1      8       -4.08      0.00     41.30           RANKING
  35      1     72       -3.81      0.00     35.83           RANKING
  36      1     75       -3.73      0.00     47.50           RANKING
  36      2     53       -2.86      1.50     48.34           RANKING
  37      1     63       -3.60      0.00     45.37           RANKING
  37      2     60       -3.01      1.41     45.85           RANKING
  37      3      3       -2.98      0.86     45.89           RANKING
  38      1     25       -3.44      0.00     31.21           RANKING
  38      2     49       -2.87      1.65     31.47           RANKING
  39      1     51       -3.35      0.00     14.30           RANKING
  40      1     95       -3.31      0.00     19.64           RANKING
  41      1     46       -3.24      0.00     45.15           RANKING
  41      2     85       -2.60      1.58     45.25           RANKING
  42      1     38       -3.21      0.00     23.26           RANKING
  43      1     84       -3.18      0.00     25.36           RANKING
  44      1      4       -2.73      0.00     25.29           RANKING
  45      1     80       -2.24      0.00     40.86           RANKING
_______________________________________________________________________



	INFORMATION ENTROPY ANALYSIS FOR THIS CLUSTERING
	________________________________________________


Information entropy for this clustering = 0.76  (rmstol = 2.00 Angstrom)

_______________________________________________________________________


	STATISTICAL MECHANICAL ANALYSIS
	_______________________________


Partition function, Q =   100.87            at Temperature, T = 298.15 K
Free energy,        A ~ -2733.63 kcal/mol   at Temperature, T = 298.15 K
Internal energy,    U =    -5.16 kcal/mol   at Temperature, T = 298.15 K
Entropy,            S =     9.15 kcal/mol/K at Temperature, T = 298.15 K

_______________________________________________________________________


	LOWEST ENERGY DOCKED CONFORMATION from EACH CLUSTER
	___________________________________________________



Keeping original residue number (specified in the input PDBQ file) for outputting.

MODEL       26
USER    Run = 26
USER    Cluster Rank = 1
USER    Number of conformations in this cluster = 3
USER  
USER    RMSD from reference structure       = 37.665 A
USER  
USER    Estimated Free Energy of Binding    =   -8.93 kcal/mol  [=(1)+(2)+(3)-(4)]
USER    Estimated Inhibition Constant, Ki   =  282.33 nM (nanomolar)  [Temperature = 298.15 K]
USER    
USER    (1) Final Intermolecular Energy     =  -12.51 kcal/mol
USER        vdW + Hbond + desolv Energy     =   -9.17 kcal/mol
USER        Electrostatic Energy            =   -3.34 kcal/mol
USER    (2) Final Total Internal Energy     =   -1.84 kcal/mol
USER    (3) Torsional Free Energy           =   +3.58 kcal/mol
USER    (4) Unbound System's Energy  [=(2)] =   -1.84 kcal/mol
USER    
USER    
USER  
USER    DPF = D:/Protein_go_brrr/autodock/final/AncMH_nat/heme_Co/dock.dpf
USER    NEWDPF move	heme_Co_opt.pdbqt
USER    NEWDPF about	8.781000 34.984000 -0.736000
USER    NEWDPF tran0	-12.474018 -0.010017 0.891895
USER    NEWDPF axisangle0	-0.792109 -0.566649 0.226875 -37.436607
USER    NEWDPF quaternion0	-0.254200 -0.181846 0.072808 -0.947108
USER    NEWDPF dihe0	-8.11 132.53 -139.05 -125.33 74.49 53.29 -114.99 115.28 104.69 159.03 -175.52 165.33 
USER  
USER                              x       y       z    vdW   Elec        q     RMS 
ATOM      1  C   UNL d   1     -13.959  -0.413  -0.640 -0.04 +0.08    +0.064    37.665
ATOM      2  C   UNL d   1     -14.100  -0.712   4.103 +0.24 +0.04    +0.064    37.665
ATOM      3  C   UNL d   1      -9.452   0.365   4.347 +0.05 +0.02    +0.064    37.665
ATOM      4  C   UNL d   1      -9.372   1.054  -0.468 -0.29 +0.01    +0.064    37.665
ATOM      5  C   UNL d   1     -14.331  -0.610   0.635 -0.17 +0.10    +0.066    37.665
ATOM      6  C   UNL d   1     -15.666  -0.880   0.992 -0.17 -0.03    -0.021    37.665
ATOM      7  C   UNL d   1     -15.706  -0.943   2.371 -0.17 -0.03    -0.025    37.665
ATOM      8  C   UNL d   1     -14.391  -0.725   2.796 -0.21 +0.06    +0.066    37.665
ATOM      9  C   UNL d   1     -16.927  -1.198   3.268 -0.12 +0.05    +0.051    37.665
ATOM     10  C   UNL d   1     -12.773  -0.522   4.633 -0.21 +0.03    +0.066    37.665
ATOM     11  C   UNL d   1     -12.380  -0.636   5.985 -0.38 -0.00    -0.021    37.665
ATOM     12  C   UNL d   1     -11.019  -0.321   6.027 -0.41 +0.00    +0.000    37.665
ATOM     13  C   UNL d   1     -10.681  -0.050   4.700 -0.20 +0.02    +0.070    37.665
ATOM     14  C   UNL d   1     -13.241  -1.110   7.127 -0.40 +0.01    +0.052    37.665
ATOM     15  C   UNL d   1      -8.947   0.737   3.040 -0.18 +0.02    +0.066    37.665
ATOM     16  C   UNL d   1      -7.707   1.297   2.765 -0.24 -0.00    -0.021    37.665
ATOM     17  C   UNL d   1      -7.681   1.500   1.378 -0.42 +0.00    +0.000    37.665
ATOM     18  C   UNL d   1      -8.904   1.030   0.912 -0.37 +0.02    +0.070    37.665
ATOM     19  C   UNL d   1      -6.639   1.608   3.790 -0.37 +0.01    +0.052    37.665
ATOM     20  C   UNL d   1     -10.589   0.683  -0.932 -0.27 +0.03    +0.066    37.665
ATOM     21  C   UNL d   1     -10.935   0.786  -2.278 -0.26 -0.01    -0.025    37.665
ATOM     22  C   UNL d   1     -12.242   0.343  -2.362 -0.20 -0.01    -0.021    37.665
ATOM     23  C   UNL d   1     -12.636  -0.000  -1.051 -0.15 +0.06    +0.066    37.665
ATOM     24  C   UNL d   1     -10.069   1.301  -3.425 -0.19 -0.00    +0.051    37.665
ATOM     25  N   UNL d   1     -13.517  -0.521   1.742 -0.17 -0.28    -0.248    37.665
ATOM     26  N   UNL d   1     -11.729  -0.227   3.852 -0.16 -0.11    -0.248    37.665
ATOM     27  N   UNL d   1      -9.644   0.611   1.933 -0.21 -0.08    -0.248    37.665
ATOM     28  N   UNL d   1     -11.640   0.207  -0.182 -0.16 -0.18    -0.248    37.665
ATOM     29 FE   UNL d   1     -11.465   0.079   1.839 -0.06 +0.00    +0.000    37.665
ATOM     30  C   UNL d   1     -16.856  -0.989   0.044 -0.12 +0.06    +0.052    37.665
ATOM     31  C   UNL d   1     -17.538   0.369  -0.120 -0.05 +0.16    +0.115    37.665
ATOM     32  C   UNL d   1     -18.404   0.728   1.068 -0.10 +0.21    +0.139    37.665
ATOM     33  O   UNL d   1     -18.110   1.692   1.757 -0.50 -1.37    -0.650    37.665
ATOM     34  O   UNL d   1     -19.531   0.040   1.367 +0.03 -0.90    -0.776    37.665
ATOM     35  H   UNL d   1     -19.953  -0.597   0.775 +0.02 +0.14    +0.167    37.665
ATOM     36  C   UNL d   1     -12.167   2.043   2.048 -0.25 +0.21    +0.190    37.665
ATOM     37  O   UNL d   1     -12.369   3.235   1.344 -0.44 -0.55    -0.399    37.665
ATOM     38  H   UNL d   1     -12.369   2.968   0.382 +0.08 +0.32    +0.209    37.665
ATOM     39  C   UNL d   1     -13.082   0.315  -3.625 -0.14 +0.02    +0.052    37.665
ATOM     40  C   UNL d   1     -13.910   1.604  -3.755 -0.05 +0.05    +0.115    37.665
ATOM     41  C   UNL d   1     -14.229   2.277  -2.437 -0.05 +0.15    +0.139    37.665
ATOM     42  O   UNL d   1     -15.367   2.216  -1.993 -0.07 -1.05    -0.650    37.665
ATOM     43  O   UNL d   1     -13.270   2.870  -1.692 +0.03 -0.95    -0.776    37.665
ATOM     44  H   UNL d   1     -13.183   2.720  -0.741 +0.05 +0.34    +0.167    37.665
ATOM     45  C   UNL d   1     -10.001  -0.263   7.157 -0.30 +0.00    +0.004    37.665
ATOM     46  C   UNL d   1      -9.092   0.661   7.458 -0.45 +0.00    +0.012    37.665
ATOM     47  C   UNL d   1      -6.628   2.130   0.527 -0.46 +0.00    +0.004    37.665
ATOM     48  C   UNL d   1      -5.346   1.756   0.541 -0.51 +0.00    +0.012    37.665
TER
ENDMDL
MODEL       28
USER    Run = 28
USER    Cluster Rank = 2
USER    Number of conformations in this cluster = 1
USER  
USER    RMSD from reference structure       = 38.951 A
USER  
USER    Estimated Free Energy of Binding    =   -8.72 kcal/mol  [=(1)+(2)+(3)-(4)]
USER    Estimated Inhibition Constant, Ki   =  404.29 nM (nanomolar)  [Temperature = 298.15 K]
USER    
USER    (1) Final Intermolecular Energy     =  -12.30 kcal/mol
USER        vdW + Hbond + desolv Energy     =   -9.85 kcal/mol
USER        Electrostatic Energy            =   -2.46 kcal/mol
USER    (2) Final Total Internal Energy     =   -0.75 kcal/mol
USER    (3) Torsional Free Energy           =   +3.58 kcal/mol
USER    (4) Unbound System's Energy  [=(2)] =   -0.75 kcal/mol
USER    
USER    
USER  
USER    DPF = D:/Protein_go_brrr/autodock/final/AncMH_nat/heme_Co/dock.dpf
USER    NEWDPF move	heme_Co_opt.pdbqt
USER    NEWDPF about	8.781000 34.984000 -0.736000
USER    NEWDPF tran0	-13.355216 -0.703597 2.806834
USER    NEWDPF axisangle0	0.447511 -0.719915 -0.530524 74.370443
USER    NEWDPF quaternion0	0.270473 -0.435112 -0.320645 0.796686
USER    NEWDPF dihe0	178.80 48.33 -24.19 -91.51 122.33 -96.59 -165.90 163.88 42.06 172.44 38.66 -178.46 
USER  
USER                              x       y       z    vdW   Elec        q     RMS 
ATOM      1  C   UNL d   1     -14.974  -1.517   4.004 -0.15 +0.04    +0.064    38.951
ATOM      2  C   UNL d   1     -10.524  -0.242   5.092 -0.33 +0.02    +0.064    38.951
ATOM      3  C   UNL d   1      -9.611   0.641   0.485 -0.36 +0.02    +0.064    38.951
ATOM      4  C   UNL d   1     -14.262  -0.286  -0.600 -0.16 +0.09    +0.064    38.951
ATOM      5  C   UNL d   1     -13.814  -1.268   4.635 -0.16 +0.03    +0.066    38.951
ATOM      6  C   UNL d   1     -13.694  -1.346   6.036 -0.22 -0.01    -0.021    38.951
ATOM      7  C   UNL d   1     -12.407  -0.953   6.348 -0.36 -0.00    -0.025    38.951
ATOM      8  C   UNL d   1     -11.793  -0.668   5.124 -0.16 +0.02    +0.066    38.951
ATOM      9  C   UNL d   1     -11.766  -0.844   7.740 -0.38 +0.01    +0.051    38.951
ATOM     10  C   UNL d   1      -9.801   0.050   3.879 -0.03 +0.02    +0.066    38.951
ATOM     11  C   UNL d   1      -8.429   0.365   3.770 -0.26 -0.01    -0.021    38.951
ATOM     12  C   UNL d   1      -8.189   0.614   2.415 -0.35 +0.00    +0.000    38.951
ATOM     13  C   UNL d   1      -9.426   0.420   1.799 -0.34 +0.02    +0.070    38.951
ATOM     14  C   UNL d   1      -7.414   0.330   4.883 -0.38 +0.01    +0.052    38.951
ATOM     15  C   UNL d   1     -10.825   0.542  -0.301 -0.28 +0.03    +0.066    38.951
ATOM     16  C   UNL d   1     -10.981   0.924  -1.626 -0.28 -0.01    -0.021    38.951
ATOM     17  C   UNL d   1     -12.321   0.661  -1.943 -0.21 +0.00    +0.000    38.951
ATOM     18  C   UNL d   1     -12.875   0.121  -0.787 -0.17 +0.07    +0.070    38.951
ATOM     19  C   UNL d   1      -9.894   1.503  -2.505 +0.01 +0.00    +0.052    38.951
ATOM     20  C   UNL d   1     -14.844  -0.732   0.539 -0.15 +0.10    +0.066    38.951
ATOM     21  C   UNL d   1     -16.196  -1.058   0.604 -0.14 -0.03    -0.025    38.951
ATOM     22  C   UNL d   1     -16.424  -1.444   1.913 -0.12 -0.02    -0.021    38.951
ATOM     23  C   UNL d   1     -15.192  -1.322   2.589 -0.17 +0.07    +0.066    38.951
ATOM     24  C   UNL d   1     -17.227  -0.987  -0.519 -0.10 +0.05    +0.051    38.951
ATOM     25  N   UNL d   1     -12.639  -0.860   4.045 -0.12 -0.12    -0.248    38.951
ATOM     26  N   UNL d   1     -10.386   0.025   2.677 -0.10 -0.09    -0.248    38.951
ATOM     27  N   UNL d   1     -11.963   0.093   0.179 -0.16 -0.21    -0.248    38.951
ATOM     28  N   UNL d   1     -14.233  -0.888   1.762 -0.16 -0.29    -0.248    38.951
ATOM     29 FE   UNL d   1     -12.285  -0.357   1.997 -0.06 +0.00    +0.000    38.951
ATOM     30  C   UNL d   1     -14.798  -1.703   7.026 -0.29 +0.01    +0.052    38.951
ATOM     31  C   UNL d   1     -14.390  -2.907   7.875 -0.19 +0.01    +0.115    38.951
ATOM     32  C   UNL d   1     -15.536  -3.868   8.103 -0.38 +0.03    +0.139    38.951
ATOM     33  O   UNL d   1     -16.024  -4.459   7.151 -0.00 -0.18    -0.650    38.951
ATOM     34  O   UNL d   1     -16.013  -4.135   9.341 -0.39 -0.17    -0.776    38.951
ATOM     35  H   UNL d   1     -16.789  -4.684   9.518 -0.53 +0.01    +0.167    38.951
ATOM     36  C   UNL d   1     -12.854   1.598   2.496 -0.06 +0.24    +0.190    38.951
ATOM     37  O   UNL d   1     -12.355   2.891   2.681 -0.35 -0.39    -0.399    38.951
ATOM     38  H   UNL d   1     -11.746   2.821   3.469 +0.10 +0.10    +0.209    38.951
ATOM     39  C   UNL d   1     -17.769  -1.845   2.490 -0.06 +0.04    +0.052    38.951
ATOM     40  C   UNL d   1     -18.636  -0.604   2.757 -0.09 +0.13    +0.115    38.951
ATOM     41  C   UNL d   1     -17.884   0.709   2.696 -0.15 +0.23    +0.139    38.951
ATOM     42  O   UNL d   1     -16.929   0.886   3.438 +0.05 -0.98    -0.650    38.951
ATOM     43  O   UNL d   1     -18.186   1.659   1.783 -0.48 -1.64    -0.776    38.951
ATOM     44  H   UNL d   1     -18.698   1.469   0.986 +0.02 +0.27    +0.167    38.951
ATOM     45  C   UNL d   1      -6.937   0.991   1.635 -0.42 +0.00    +0.004    38.951
ATOM     46  C   UNL d   1      -6.522   2.172   1.183 -0.49 +0.00    +0.012    38.951
ATOM     47  C   UNL d   1     -13.073   0.929  -3.205 -0.14 +0.00    +0.004    38.951
ATOM     48  C   UNL d   1     -13.335  -0.007  -4.120 -0.14 +0.00    +0.012    38.951
TER
ENDMDL
MODEL       33
USER    Run = 33
USER    Cluster Rank = 3
USER    Number of conformations in this cluster = 2
USER  
USER    RMSD from reference structure       = 37.443 A
USER  
USER    Estimated Free Energy of Binding    =   -7.78 kcal/mol  [=(1)+(2)+(3)-(4)]
USER    Estimated Inhibition Constant, Ki   =    1.98 uM (micromolar)  [Temperature = 298.15 K]
USER    
USER    (1) Final Intermolecular Energy     =  -11.36 kcal/mol
USER        vdW + Hbond + desolv Energy     =  -10.11 kcal/mol
USER        Electrostatic Energy            =   -1.25 kcal/mol
USER    (2) Final Total Internal Energy     =   -2.11 kcal/mol
USER    (3) Torsional Free Energy           =   +3.58 kcal/mol
USER    (4) Unbound System's Energy  [=(2)] =   -2.11 kcal/mol
USER    
USER    
USER  
USER    DPF = D:/Protein_go_brrr/autodock/final/AncMH_nat/heme_Co/dock.dpf
USER    NEWDPF move	heme_Co_opt.pdbqt
USER    NEWDPF about	8.781000 34.984000 -0.736000
USER    NEWDPF tran0	-11.153895 -0.068920 2.150890
USER    NEWDPF axisangle0	-0.132142 -0.958542 -0.252459 -92.467573
USER    NEWDPF quaternion0	-0.095429 -0.692229 -0.182318 -0.691717
USER    NEWDPF dihe0	-177.21 97.86 -28.78 127.05 158.67 131.99 31.05 90.78 156.38 -41.10 -159.93 -153.40 
USER  
USER                              x       y       z    vdW   Elec        q     RMS 
ATOM      1  C   UNL d   1     -10.130   0.293   0.271 -0.34 +0.02    +0.064    37.443
ATOM      2  C   UNL d   1     -14.630  -0.857   1.287 -0.23 +0.08    +0.064    37.443
ATOM      3  C   UNL d   1     -13.514  -1.288   5.913 -0.22 +0.02    +0.064    37.443
ATOM      4  C   UNL d   1      -9.003   0.260   4.956 +0.21 +0.02    +0.064    37.443
ATOM      5  C   UNL d   1     -11.433  -0.024   0.204 -0.25 +0.04    +0.066    37.443
ATOM      6  C   UNL d   1     -12.160   0.054  -1.000 -0.16 -0.02    -0.021    37.443
ATOM      7  C   UNL d   1     -13.470  -0.259  -0.695 -0.16 -0.03    -0.025    37.443
ATOM      8  C   UNL d   1     -13.483  -0.530   0.677 -0.19 +0.08    +0.066    37.443
ATOM      9  C   UNL d   1     -14.675  -0.304  -1.648 -0.16 +0.06    +0.051    37.443
ATOM     10  C   UNL d   1     -14.736  -1.178   2.689 -0.20 +0.06    +0.066    37.443
ATOM     11  C   UNL d   1     -15.880  -1.663   3.359 -0.13 -0.02    -0.021    37.443
ATOM     12  C   UNL d   1     -15.525  -1.784   4.706 -0.12 +0.00    +0.000    37.443
ATOM     13  C   UNL d   1     -14.192  -1.377   4.755 -0.09 +0.03    +0.070    37.443
ATOM     14  C   UNL d   1     -17.183  -2.068   2.720 -0.08 +0.04    +0.052    37.443
ATOM     15  C   UNL d   1     -12.157  -0.840   6.153 -0.33 +0.01    +0.066    37.443
ATOM     16  C   UNL d   1     -11.564  -0.634   7.390 -0.22 -0.00    -0.021    37.443
ATOM     17  C   UNL d   1     -10.264  -0.185   7.120 -0.33 +0.00    +0.000    37.443
ATOM     18  C   UNL d   1     -10.160  -0.169   5.733 -0.35 +0.02    +0.070    37.443
ATOM     19  C   UNL d   1     -12.229  -0.861   8.730 -0.53 +0.00    +0.052    37.443
ATOM     20  C   UNL d   1      -8.908   0.366   3.609 -0.24 +0.02    +0.066    37.443
ATOM     21  C   UNL d   1      -7.753   0.825   2.979 -0.32 -0.00    -0.025    37.443
ATOM     22  C   UNL d   1      -8.039   0.818   1.626 -0.37 -0.00    -0.021    37.443
ATOM     23  C   UNL d   1      -9.368   0.363   1.497 -0.36 +0.02    +0.066    37.443
ATOM     24  C   UNL d   1      -6.448   1.268   3.635 -0.38 +0.00    +0.051    37.443
ATOM     25  N   UNL d   1     -12.234  -0.398   1.259 -0.17 -0.21    -0.248    37.443
ATOM     26  N   UNL d   1     -13.700  -1.064   3.526 -0.16 -0.17    -0.248    37.443
ATOM     27  N   UNL d   1     -11.315  -0.535   5.190 -0.16 -0.07    -0.248    37.443
ATOM     28  N   UNL d   1      -9.899   0.091   2.695 -0.15 -0.08    -0.248    37.443
ATOM     29 FE   UNL d   1     -11.744  -0.470   3.340 -0.07 +0.00    +0.000    37.443
ATOM     30  C   UNL d   1     -11.625   0.490  -2.360 -0.26 +0.02    +0.052    37.443
ATOM     31  C   UNL d   1     -11.452   2.008  -2.406 -0.19 +0.04    +0.115    37.443
ATOM     32  C   UNL d   1     -12.370   2.724  -1.439 -0.17 +0.12    +0.139    37.443
ATOM     33  O   UNL d   1     -13.414   3.208  -1.849 -0.01 -0.73    -0.650    37.443
ATOM     34  O   UNL d   1     -12.096   2.806  -0.117 -0.25 -0.93    -0.776    37.443
ATOM     35  H   UNL d   1     -12.650   3.271   0.526 +0.07 +0.32    +0.167    37.443
ATOM     36  C   UNL d   1     -12.346   1.535   3.436 +0.00 +0.13    +0.190    37.443
ATOM     37  O   UNL d   1     -12.527   2.683   2.657 -0.27 -0.44    -0.399    37.443
ATOM     38  H   UNL d   1     -12.037   2.497   1.808 +0.09 +0.23    +0.209    37.443
ATOM     39  C   UNL d   1      -7.103   1.287   0.527 -0.36 +0.01    +0.052    37.443
ATOM     40  C   UNL d   1      -6.578   2.700   0.828 -0.36 +0.01    +0.115    37.443
ATOM     41  C   UNL d   1      -5.084   2.863   0.643 -0.45 -0.00    +0.139    37.443
ATOM     42  O   UNL d   1      -4.426   3.394   1.526 +0.02 +0.01    -0.650    37.443
ATOM     43  O   UNL d   1      -4.442   2.360  -0.436 -0.00 +0.07    -0.776    37.443
ATOM     44  H   UNL d   1      -4.801   1.633  -0.960 -0.43 -0.04    +0.167    37.443
ATOM     45  C   UNL d   1     -16.283  -2.252   5.941 -0.17 +0.00    +0.004    37.443
ATOM     46  C   UNL d   1     -16.048  -3.268   6.767 -0.25 +0.00    +0.012    37.443
ATOM     47  C   UNL d   1      -9.190   0.253   8.061 -0.38 +0.00    +0.004    37.443
ATOM     48  C   UNL d   1      -7.909  -0.100   7.934 -0.45 +0.00    +0.012    37.443
TER
ENDMDL
MODEL       50
USER    Run = 50
USER    Cluster Rank = 4
USER    Number of conformations in this cluster = 4
USER  
USER    RMSD from reference structure       = 39.695 A
USER  
USER    Estimated Free Energy of Binding    =   -6.80 kcal/mol  [=(1)+(2)+(3)-(4)]
USER    Estimated Inhibition Constant, Ki   =   10.32 uM (micromolar)  [Temperature = 298.15 K]
USER    
USER    (1) Final Intermolecular Energy     =  -10.38 kcal/mol
USER        vdW + Hbond + desolv Energy     =   -7.43 kcal/mol
USER        Electrostatic Energy            =   -2.95 kcal/mol
USER    (2) Final Total Internal Energy     =   -1.64 kcal/mol
USER    (3) Torsional Free Energy           =   +3.58 kcal/mol
USER    (4) Unbound System's Energy  [=(2)] =   -1.64 kcal/mol
USER    
USER    
USER  
USER    DPF = D:/Protein_go_brrr/autodock/final/AncMH_nat/heme_Co/dock.dpf
USER    NEWDPF move	heme_Co_opt.pdbqt
USER    NEWDPF about	8.781000 34.984000 -0.736000
USER    NEWDPF tran0	-14.519080 -0.940048 1.395290
USER    NEWDPF axisangle0	0.052172 0.998424 0.020675 67.497776
USER    NEWDPF quaternion0	0.028985 0.554679 0.011486 0.831480
USER    NEWDPF dihe0	119.24 100.80 62.46 143.07 79.51 163.88 -121.50 108.30 -139.02 -72.22 -174.21 132.46 
USER  
USER                              x       y       z    vdW   Elec        q     RMS 
ATOM      1  C   UNL d   1     -14.454  -0.519  -0.734 -0.09 +0.09    +0.064    39.695
ATOM      2  C   UNL d   1     -17.549  -2.930   1.953 -0.08 +0.05    +0.064    39.695
ATOM      3  C   UNL d   1     -14.743  -2.346   5.776 -0.21 +0.02    +0.064    39.695
ATOM      4  C   UNL d   1     -11.757   0.448   3.141 -0.31 +0.03    +0.064    39.695
ATOM      5  C   UNL d   1     -15.488  -1.252  -0.289 -0.12 +0.09    +0.066    39.695
ATOM      6  C   UNL d   1     -16.582  -1.578  -1.113 -0.11 -0.02    -0.021    39.695
ATOM      7  C   UNL d   1     -17.488  -2.258  -0.323 -0.08 -0.02    -0.025    39.695
ATOM      8  C   UNL d   1     -16.901  -2.332   0.945 -0.07 +0.07    +0.066    39.695
ATOM      9  C   UNL d   1     -18.857  -2.823  -0.730 -0.05 +0.04    +0.051    39.695
ATOM     10  C   UNL d   1     -17.013  -3.076   3.283 -0.06 +0.05    +0.066    39.695
ATOM     11  C   UNL d   1     -17.581  -3.814   4.345 -0.08 -0.01    -0.021    39.695
ATOM     12  C   UNL d   1     -16.741  -3.630   5.446 -0.13 +0.00    +0.000    39.695
ATOM     13  C   UNL d   1     -15.719  -2.806   4.973 -0.11 +0.03    +0.070    39.695
ATOM     14  C   UNL d   1     -18.794  -4.706   4.263 -0.07 +0.02    +0.052    39.695
ATOM     15  C   UNL d   1     -13.645  -1.450   5.468 -0.24 +0.02    +0.066    39.695
ATOM     16  C   UNL d   1     -12.754  -0.898   6.378 -0.38 -0.00    -0.021    39.695
ATOM     17  C   UNL d   1     -11.893  -0.089   5.623 -0.40 +0.00    +0.000    39.695
ATOM     18  C   UNL d   1     -12.317  -0.226   4.305 -0.28 +0.03    +0.070    39.695
ATOM     19  C   UNL d   1     -12.756  -1.147   7.869 -0.44 +0.00    +0.052    39.695
ATOM     20  C   UNL d   1     -12.206   0.398   1.864 -0.26 +0.06    +0.066    39.695
ATOM     21  C   UNL d   1     -11.605   1.120   0.835 -0.27 -0.02    -0.025    39.695
ATOM     22  C   UNL d   1     -12.344   0.838  -0.300 -0.22 -0.02    -0.021    39.695
ATOM     23  C   UNL d   1     -13.374  -0.040   0.099 -0.16 +0.09    +0.066    39.695
ATOM     24  C   UNL d   1     -10.398   2.049   0.931 -0.29 +0.02    +0.051    39.695
ATOM     25  N   UNL d   1     -15.659  -1.721   0.994 -0.11 -0.31    -0.248    39.695
ATOM     26  N   UNL d   1     -15.855  -2.519   3.651 -0.06 -0.18    -0.248    39.695
ATOM     27  N   UNL d   1     -13.381  -1.020   4.255 -0.17 -0.12    -0.248    39.695
ATOM     28  N   UNL d   1     -13.296  -0.307   1.408 -0.16 -0.29    -0.248    39.695
ATOM     29 FE   UNL d   1     -14.450  -1.348   2.719 -0.05 +0.00    +0.000    39.695
ATOM     30  C   UNL d   1     -16.773  -1.178  -2.572 -0.09 +0.04    +0.052    39.695
ATOM     31  C   UNL d   1     -17.508   0.159  -2.670 -0.02 +0.08    +0.115    39.695
ATOM     32  C   UNL d   1     -17.063   1.141  -1.608 -0.02 +0.17    +0.139    39.695
ATOM     33  O   UNL d   1     -16.394   2.112  -1.930 -0.05 -0.96    -0.650    39.695
ATOM     34  O   UNL d   1     -17.423   1.007  -0.310 -0.25 -1.33    -0.776    39.695
ATOM     35  H   UNL d   1     -16.803   0.834   0.411 +0.04 +0.44    +0.167    39.695
ATOM     36  C   UNL d   1     -15.642   0.344   3.050 +0.15 +0.26    +0.190    39.695
ATOM     37  O   UNL d   1     -16.807   0.988   2.619 -0.18 -0.74    -0.399    39.695
ATOM     38  H   UNL d   1     -17.057   0.525   1.771 +0.04 +0.39    +0.209    39.695
ATOM     39  C   UNL d   1     -12.106   1.434  -1.674 -0.22 +0.04    +0.052    39.695
ATOM     40  C   UNL d   1     -13.394   2.075  -2.218 -0.11 +0.11    +0.115    39.695
ATOM     41  C   UNL d   1     -13.433   3.585  -2.114 -0.12 +0.13    +0.139    39.695
ATOM     42  O   UNL d   1     -14.244   4.113  -1.366 -0.18 -1.07    -0.650    39.695
ATOM     43  O   UNL d   1     -12.536   4.365  -2.758 +0.09 -0.26    -0.776    39.695
ATOM     44  H   UNL d   1     -12.523   4.454  -3.720 +0.05 +0.02    +0.167    39.695
ATOM     45  C   UNL d   1     -16.775  -4.149   6.877 -0.17 +0.00    +0.004    39.695
ATOM     46  C   UNL d   1     -15.810  -4.665   7.634 -0.45 +0.00    +0.012    39.695
ATOM     47  C   UNL d   1     -10.779   0.798   6.073 -0.39 +0.00    +0.004    39.695
ATOM     48  C   UNL d   1      -9.729   0.365   6.774 -0.50 +0.00    +0.012    39.695
TER
ENDMDL
MODEL       44
USER    Run = 44
USER    Cluster Rank = 5
USER    Number of conformations in this cluster = 2
USER  
USER    RMSD from reference structure       = 41.434 A
USER  
USER    Estimated Free Energy of Binding    =   -6.60 kcal/mol  [=(1)+(2)+(3)-(4)]
USER    Estimated Inhibition Constant, Ki   =   14.63 uM (micromolar)  [Temperature = 298.15 K]
USER    
USER    (1) Final Intermolecular Energy     =  -10.18 kcal/mol
USER        vdW + Hbond + desolv Energy     =   -7.89 kcal/mol
USER        Electrostatic Energy            =   -2.28 kcal/mol
USER    (2) Final Total Internal Energy     =   -2.24 kcal/mol
USER    (3) Torsional Free Energy           =   +3.58 kcal/mol
USER    (4) Unbound System's Energy  [=(2)] =   -2.24 kcal/mol
USER    
USER    
USER  
USER    DPF = D:/Protein_go_brrr/autodock/final/AncMH_nat/heme_Co/dock.dpf
USER    NEWDPF move	heme_Co_opt.pdbqt
USER    NEWDPF about	8.781000 34.984000 -0.736000
USER    NEWDPF tran0	-15.883655 -1.957332 3.998910
USER    NEWDPF axisangle0	0.955664 0.127053 0.265640 -151.200996
USER    NEWDPF quaternion0	0.925642 0.123062 0.257295 -0.248681
USER    NEWDPF dihe0	-85.36 59.54 -14.28 -91.09 105.77 152.80 34.09 128.99 153.08 -142.98 -160.23 -7.83 
USER  
USER                              x       y       z    vdW   Elec        q     RMS 
ATOM      1  C   UNL d   1     -17.911  -2.730   4.089 -0.03 +0.04    +0.064    41.434
ATOM      2  C   UNL d   1     -15.115  -1.515   0.440 -0.15 +0.08    +0.064    41.434
ATOM      3  C   UNL d   1     -11.776   0.058   3.474 -0.21 +0.03    +0.064    41.434
ATOM      4  C   UNL d   1     -14.448  -1.527   7.217 -0.29 +0.01    +0.064    41.434
ATOM      5  C   UNL d   1     -17.407  -2.481   2.869 -0.04 +0.05    +0.066    41.434
ATOM      6  C   UNL d   1     -18.074  -2.871   1.691 -0.05 -0.02    -0.021    41.434
ATOM      7  C   UNL d   1     -17.248  -2.537   0.637 -0.06 -0.03    -0.025    41.434
ATOM      8  C   UNL d   1     -16.121  -1.942   1.214 -0.11 +0.08    +0.066    41.434
ATOM      9  C   UNL d   1     -17.495  -2.762  -0.863 -0.06 +0.05    +0.051    41.434
ATOM     10  C   UNL d   1     -13.928  -0.868   0.943 -0.21 +0.08    +0.066    41.434
ATOM     11  C   UNL d   1     -12.903  -0.272   0.176 -0.22 -0.02    -0.021    41.434
ATOM     12  C   UNL d   1     -11.945   0.182   1.086 -0.29 +0.00    +0.000    41.434
ATOM     13  C   UNL d   1     -12.460  -0.158   2.337 -0.25 +0.05    +0.070    41.434
ATOM     14  C   UNL d   1     -12.906  -0.076  -1.318 -0.17 +0.05    +0.052    41.434
ATOM     15  C   UNL d   1     -12.132  -0.274   4.840 -0.31 +0.02    +0.066    41.434
ATOM     16  C   UNL d   1     -11.316  -0.155   5.956 -0.43 -0.00    -0.021    41.434
ATOM     17  C   UNL d   1     -12.081  -0.614   7.037 -0.39 +0.00    +0.000    41.434
ATOM     18  C   UNL d   1     -13.315  -0.962   6.496 -0.23 +0.01    +0.070    41.434
ATOM     19  C   UNL d   1      -9.897   0.367   5.952 -0.39 +0.01    +0.052    41.434
ATOM     20  C   UNL d   1     -15.625  -1.954   6.699 -0.17 +0.02    +0.066    41.434
ATOM     21  C   UNL d   1     -16.626  -2.514   7.490 -0.18 -0.01    -0.025    41.434
ATOM     22  C   UNL d   1     -17.648  -2.844   6.619 -0.11 -0.01    -0.021    41.434
ATOM     23  C   UNL d   1     -17.212  -2.477   5.329 -0.07 +0.03    +0.066    41.434
ATOM     24  C   UNL d   1     -16.602  -2.742   8.999 -0.28 +0.01    +0.051    41.434
ATOM     25  N   UNL d   1     -16.195  -1.889   2.596 -0.06 -0.23    -0.248    41.434
ATOM     26  N   UNL d   1     -13.685  -0.742   2.252 -0.17 -0.25    -0.248    41.434
ATOM     27  N   UNL d   1     -13.298  -0.775   5.181 -0.09 -0.09    -0.248    41.434
ATOM     28  N   UNL d   1     -15.987  -1.940   5.372 -0.06 -0.12    -0.248    41.434
ATOM     29 FE   UNL d   1     -14.663  -1.299   3.968 -0.05 +0.00    +0.000    41.434
ATOM     30  C   UNL d   1     -19.407  -3.606   1.602 -0.02 +0.03    +0.052    41.434
ATOM     31  C   UNL d   1     -19.229  -5.085   1.943 -0.04 +0.06    +0.115    41.434
ATOM     32  C   UNL d   1     -17.845  -5.594   1.602 -0.04 +0.13    +0.139    41.434
ATOM     33  O   UNL d   1     -17.656  -6.152   0.532 -0.23 -0.89    -0.650    41.434
ATOM     34  O   UNL d   1     -16.788  -5.408   2.428 -0.32 -0.82    -0.776    41.434
ATOM     35  H   UNL d   1     -16.204  -4.638   2.398 +0.04 +0.21    +0.167    41.434
ATOM     36  C   UNL d   1     -13.897  -3.241   3.771 -0.13 +0.12    +0.190    41.434
ATOM     37  O   UNL d   1     -14.129  -4.473   3.150 -0.22 -0.39    -0.399    41.434
ATOM     38  H   UNL d   1     -15.064  -4.715   3.402 +0.09 +0.18    +0.209    41.434
ATOM     39  C   UNL d   1     -18.943  -3.533   7.005 -0.10 +0.02    +0.052    41.434
ATOM     40  C   UNL d   1     -20.046  -2.499   7.286 -0.05 +0.04    +0.115    41.434
ATOM     41  C   UNL d   1     -19.934  -1.229   6.470 -0.06 +0.08    +0.139    41.434
ATOM     42  O   UNL d   1     -19.330  -0.271   6.934 +0.00 -0.44    -0.650    41.434
ATOM     43  O   UNL d   1     -20.408  -1.152   5.207 +0.02 -0.61    -0.776    41.434
ATOM     44  H   UNL d   1     -20.736  -1.923   4.727 +0.02 +0.10    +0.167    41.434
ATOM     45  C   UNL d   1     -10.618   0.910   0.919 -0.37 +0.00    +0.004    41.434
ATOM     46  C   UNL d   1      -9.370   0.450   0.931 -0.47 +0.00    +0.012    41.434
ATOM     47  C   UNL d   1     -11.703  -0.776   8.473 -0.54 +0.00    +0.004    41.434
ATOM     48  C   UNL d   1     -11.747   0.217   9.364 -0.34 +0.00    +0.012    41.434
TER
ENDMDL
MODEL       86
USER    Run = 86
USER    Cluster Rank = 6
USER    Number of conformations in this cluster = 2
USER  
USER    RMSD from reference structure       = 36.730 A
USER  
USER    Estimated Free Energy of Binding    =   -6.55 kcal/mol  [=(1)+(2)+(3)-(4)]
USER    Estimated Inhibition Constant, Ki   =   15.67 uM (micromolar)  [Temperature = 298.15 K]
USER    
USER    (1) Final Intermolecular Energy     =  -10.13 kcal/mol
USER        vdW + Hbond + desolv Energy     =   -6.26 kcal/mol
USER        Electrostatic Energy            =   -3.88 kcal/mol
USER    (2) Final Total Internal Energy     =   -2.04 kcal/mol
USER    (3) Torsional Free Energy           =   +3.58 kcal/mol
USER    (4) Unbound System's Energy  [=(2)] =   -2.04 kcal/mol
USER    
USER    
USER  
USER    DPF = D:/Protein_go_brrr/autodock/final/AncMH_nat/heme_Co/dock.dpf
USER    NEWDPF move	heme_Co_opt.pdbqt
USER    NEWDPF about	8.781000 34.984000 -0.736000
USER    NEWDPF tran0	-13.321818 1.815404 -3.085580
USER    NEWDPF axisangle0	0.207769 -0.565986 -0.797804 110.119382
USER    NEWDPF quaternion0	0.170319 -0.463967 -0.653999 0.572723
USER    NEWDPF dihe0	-111.24 142.09 80.35 -86.33 -92.28 43.83 43.10 -55.61 -112.82 137.14 151.71 178.86 
USER  
USER                              x       y       z    vdW   Elec        q     RMS 
ATOM      1  C   UNL d   1     -13.484   0.033  -1.855 -0.14 +0.06    +0.064    36.730
ATOM      2  C   UNL d   1     -10.278   3.542  -1.990 -0.12 +0.01    +0.064    36.730
ATOM      3  C   UNL d   1     -12.469   5.450  -5.783 -0.07 -0.02    +0.064    36.730
ATOM      4  C   UNL d   1     -15.974   2.095  -5.429 +0.00 +0.02    +0.064    36.730
ATOM      5  C   UNL d   1     -12.426   0.832  -1.636 -0.18 +0.05    +0.066    36.730
ATOM      6  C   UNL d   1     -11.559   0.640  -0.543 -0.27 -0.01    -0.021    36.730
ATOM      7  C   UNL d   1     -10.644   1.674  -0.573 -0.28 -0.01    -0.025    36.730
ATOM      8  C   UNL d   1     -10.982   2.443  -1.693 -0.20 +0.02    +0.066    36.730
ATOM      9  C   UNL d   1      -9.491   1.942   0.406 -0.29 +0.01    +0.051    36.730
ATOM     10  C   UNL d   1     -10.534   4.380  -3.135 -0.22 -0.00    +0.066    36.730
ATOM     11  C   UNL d   1      -9.748   5.465  -3.580 -0.36 +0.01    -0.021    36.730
ATOM     12  C   UNL d   1     -10.408   6.000  -4.690 -0.27 -0.00    +0.000    36.730
ATOM     13  C   UNL d   1     -11.538   5.197  -4.847 -0.12 -0.02    +0.070    36.730
ATOM     14  C   UNL d   1      -8.410   5.883  -3.026 -0.48 -0.01    +0.052    36.730
ATOM     15  C   UNL d   1     -13.715   4.759  -6.051 -0.01 -0.00    +0.066    36.730
ATOM     16  C   UNL d   1     -14.704   5.159  -6.939 -0.00 +0.00    -0.021    36.730
ATOM     17  C   UNL d   1     -15.718   4.196  -6.839 +0.00 +0.00    +0.000    36.730
ATOM     18  C   UNL d   1     -15.259   3.272  -5.906 +0.01 +0.01    +0.070    36.730
ATOM     19  C   UNL d   1     -14.650   6.392  -7.814 -0.01 -0.00    +0.052    36.730
ATOM     20  C   UNL d   1     -15.586   1.231  -4.461 -0.01 +0.03    +0.066    36.730
ATOM     21  C   UNL d   1     -16.377   0.155  -4.064 -0.02 -0.01    -0.025    36.730
ATOM     22  C   UNL d   1     -15.671  -0.475  -3.055 -0.08 -0.02    -0.021    36.730
ATOM     23  C   UNL d   1     -14.481   0.261  -2.876 -0.10 +0.05    +0.066    36.730
ATOM     24  C   UNL d   1     -17.748  -0.243  -4.605 -0.00 +0.02    +0.051    36.730
ATOM     25  N   UNL d   1     -12.078   1.941  -2.373 -0.08 -0.12    -0.248    36.730
ATOM     26  N   UNL d   1     -11.583   4.184  -3.941 -0.06 +0.02    -0.248    36.730
ATOM     27  N   UNL d   1     -14.077   3.656  -5.435 +0.00 -0.02    -0.248    36.730
ATOM     28  N   UNL d   1     -14.426   1.296  -3.724 -0.02 -0.13    -0.248    36.730
ATOM     29 FE   UNL d   1     -13.139   2.846  -3.995 -0.02 +0.00    +0.000    36.730
ATOM     30  C   UNL d   1     -11.666  -0.445   0.524 -0.31 +0.04    +0.052    36.730
ATOM     31  C   UNL d   1     -11.725   0.176   1.919 -0.28 +0.08    +0.115    36.730
ATOM     32  C   UNL d   1     -12.980   0.995   2.133 -0.21 +0.18    +0.139    36.730
ATOM     33  O   UNL d   1     -12.997   2.168   1.794 -0.09 -1.34    -0.650    36.730
ATOM     34  O   UNL d   1     -14.109   0.455   2.647 +0.04 -1.05    -0.776    36.730
ATOM     35  H   UNL d   1     -14.943   0.375   2.163 +0.04 +0.30    +0.167    36.730
ATOM     36  C   UNL d   1     -14.157   3.975  -2.551 -0.09 +0.15    +0.190    36.730
ATOM     37  O   UNL d   1     -15.410   4.150  -1.953 -0.59 -0.54    -0.399    36.730
ATOM     38  H   UNL d   1     -15.846   3.254  -2.006 +0.02 +0.33    +0.209    36.730
ATOM     39  C   UNL d   1     -16.151  -1.678  -2.265 -0.10 +0.05    +0.052    36.730
ATOM     40  C   UNL d   1     -17.138  -1.248  -1.167 -0.09 +0.11    +0.115    36.730
ATOM     41  C   UNL d   1     -16.666  -0.082  -0.324 +0.07 +0.21    +0.139    36.730
ATOM     42  O   UNL d   1     -16.820   1.058  -0.740 -0.16 -1.26    -0.650    36.730
ATOM     43  O   UNL d   1     -16.157  -0.261   0.915 -0.47 -1.32    -0.776    36.730
ATOM     44  H   UNL d   1     -15.222  -0.448   1.071 +0.04 +0.27    +0.167    36.730
ATOM     45  C   UNL d   1     -10.093   7.159  -5.626 -0.33 -0.00    +0.004    36.730
ATOM     46  C   UNL d   1     -10.493   8.428  -5.599 -0.39 -0.00    +0.012    36.730
ATOM     47  C   UNL d   1     -17.050   4.140  -7.511 +0.00 +0.00    +0.004    36.730
ATOM     48  C   UNL d   1     -18.210   4.243  -6.858 +0.00 +0.00    +0.012    36.730
TER
ENDMDL
MODEL       22
USER    Run = 22
USER    Cluster Rank = 7
USER    Number of conformations in this cluster = 15
USER  
USER    RMSD from reference structure       = 32.733 A
USER  
USER    Estimated Free Energy of Binding    =   -6.52 kcal/mol  [=(1)+(2)+(3)-(4)]
USER    Estimated Inhibition Constant, Ki   =   16.58 uM (micromolar)  [Temperature = 298.15 K]
USER    
USER    (1) Final Intermolecular Energy     =  -10.10 kcal/mol
USER        vdW + Hbond + desolv Energy     =   -6.98 kcal/mol
USER        Electrostatic Energy            =   -3.12 kcal/mol
USER    (2) Final Total Internal Energy     =   -0.65 kcal/mol
USER    (3) Torsional Free Energy           =   +3.58 kcal/mol
USER    (4) Unbound System's Energy  [=(2)] =   -0.65 kcal/mol
USER    
USER    
USER  
USER    DPF = D:/Protein_go_brrr/autodock/final/AncMH_nat/heme_Co/dock.dpf
USER    NEWDPF move	heme_Co_opt.pdbqt
USER    NEWDPF about	8.781000 34.984000 -0.736000
USER    NEWDPF tran0	-13.710581 8.026142 -3.212102
USER    NEWDPF axisangle0	0.874020 0.116194 -0.471792 159.039563
USER    NEWDPF quaternion0	0.859439 0.114256 -0.463922 0.181896
USER    NEWDPF dihe0	90.36 86.97 164.30 122.23 -25.04 152.56 81.60 129.16 -68.42 -13.34 164.28 174.04 
USER  
USER                              x       y       z    vdW   Elec        q     RMS 
ATOM      1  C   UNL d   1     -14.035   6.691  -1.531 -0.27 +0.02    +0.064    32.733
ATOM      2  C   UNL d   1     -16.558  10.337  -3.249 -0.09 +0.00    +0.064    32.733
ATOM      3  C   UNL d   1     -13.122  11.261  -6.437 -0.15 -0.01    +0.064    32.733
ATOM      4  C   UNL d   1     -10.703   7.308  -4.957 -0.28 -0.02    +0.064    32.733
ATOM      5  C   UNL d   1     -14.960   7.642  -1.742 -0.20 +0.02    +0.066    32.733
ATOM      6  C   UNL d   1     -16.179   7.668  -1.036 -0.19 -0.01    -0.021    32.733
ATOM      7  C   UNL d   1     -16.917   8.714  -1.555 -0.11 -0.00    -0.025    32.733
ATOM      8  C   UNL d   1     -16.111   9.291  -2.542 -0.09 +0.01    +0.066    32.733
ATOM      9  C   UNL d   1     -18.328   9.165  -1.147 -0.05 +0.01    +0.051    32.733
ATOM     10  C   UNL d   1     -15.790  11.012  -4.265 -0.08 +0.00    +0.066    32.733
ATOM     11  C   UNL d   1     -16.146  12.198  -4.943 -0.06 +0.00    -0.021    32.733
ATOM     12  C   UNL d   1     -15.125  12.447  -5.864 -0.08 -0.00    +0.000    32.733
ATOM     13  C   UNL d   1     -14.218  11.405  -5.672 -0.11 -0.00    +0.070    32.733
ATOM     14  C   UNL d   1     -17.339  13.071  -4.647 -0.03 -0.00    +0.052    32.733
ATOM     15  C   UNL d   1     -12.112  10.221  -6.412 -0.20 -0.01    +0.066    32.733
ATOM     16  C   UNL d   1     -11.082  10.052  -7.326 -0.25 +0.00    -0.021    32.733
ATOM     17  C   UNL d   1     -10.383   8.912  -6.905 -0.29 -0.00    +0.000    32.733
ATOM     18  C   UNL d   1     -11.034   8.484  -5.753 -0.27 -0.02    +0.070    32.733
ATOM     19  C   UNL d   1     -10.812  10.943  -8.518 -0.23 -0.01    +0.052    32.733
ATOM     20  C   UNL d   1     -11.373   6.824  -3.884 -0.25 -0.01    +0.066    32.733
ATOM     21  C   UNL d   1     -10.979   5.663  -3.223 -0.26 +0.00    -0.025    32.733
ATOM     22  C   UNL d   1     -11.904   5.476  -2.212 -0.25 -0.00    -0.021    32.733
ATOM     23  C   UNL d   1     -12.832   6.534  -2.315 -0.26 +0.01    +0.066    32.733
ATOM     24  C   UNL d   1      -9.789   4.764  -3.550 -0.34 -0.01    +0.051    32.733
ATOM     25  N   UNL d   1     -14.891   8.650  -2.675 +0.04 -0.03    -0.248    32.733
ATOM     26  N   UNL d   1     -14.594  10.569  -4.667 -0.05 -0.00    -0.248    32.733
ATOM     27  N   UNL d   1     -12.077   9.270  -5.506 -0.13 +0.03    -0.248    32.733
ATOM     28  N   UNL d   1     -12.516   7.351  -3.327 -0.16 -0.01    -0.248    32.733
ATOM     29 FE   UNL d   1     -13.398   8.976  -4.173 -0.05 +0.00    +0.000    32.733
ATOM     30  C   UNL d   1     -16.636   6.676   0.028 -0.17 +0.03    +0.052    32.733
ATOM     31  C   UNL d   1     -17.805   5.837  -0.485 -0.12 +0.08    +0.115    32.733
ATOM     32  C   UNL d   1     -17.415   4.396  -0.738 -0.05 +0.18    +0.139    32.733
ATOM     33  O   UNL d   1     -16.400   4.151  -1.371 -0.52 -1.10    -0.650    32.733
ATOM     34  O   UNL d   1     -18.132   3.361  -0.241 -0.00 -1.12    -0.776    32.733
ATOM     35  H   UNL d   1     -18.902   2.974  -0.678 +0.02 +0.17    +0.167    32.733
ATOM     36  C   UNL d   1     -14.540   7.736  -5.420 -0.04 +0.00    +0.190    32.733
ATOM     37  O   UNL d   1     -15.696   6.949  -5.452 +0.00 -0.03    -0.399    32.733
ATOM     38  H   UNL d   1     -15.844   6.672  -4.505 +0.02 +0.03    +0.209    32.733
ATOM     39  C   UNL d   1     -11.927   4.307  -1.246 -0.19 +0.03    +0.052    32.733
ATOM     40  C   UNL d   1     -12.659   3.105  -1.865 -0.15 +0.09    +0.115    32.733
ATOM     41  C   UNL d   1     -12.357   1.779  -1.200 -0.17 +0.13    +0.139    32.733
ATOM     42  O   UNL d   1     -11.454   1.081  -1.640 +0.02 -0.32    -0.650    32.733
ATOM     43  O   UNL d   1     -12.999   1.384  -0.079 -0.20 -1.49    -0.776    32.733
ATOM     44  H   UNL d   1     -12.914   0.491   0.282 +0.06 +0.23    +0.167    32.733
ATOM     45  C   UNL d   1     -14.893  13.554  -6.884 -0.05 -0.00    +0.004    32.733
ATOM     46  C   UNL d   1     -13.959  14.499  -6.939 -0.07 -0.00    +0.012    32.733
ATOM     47  C   UNL d   1      -9.221   8.217  -7.536 -0.24 -0.00    +0.004    32.733
ATOM     48  C   UNL d   1      -9.157   7.923  -8.837 -0.38 -0.01    +0.012    32.733
TER
ENDMDL
MODEL       14
USER    Run = 14
USER    Cluster Rank = 8
USER    Number of conformations in this cluster = 3
USER  
USER    RMSD from reference structure       = 41.653 A
USER  
USER    Estimated Free Energy of Binding    =   -6.42 kcal/mol  [=(1)+(2)+(3)-(4)]
USER    Estimated Inhibition Constant, Ki   =   19.78 uM (micromolar)  [Temperature = 298.15 K]
USER    
USER    (1) Final Intermolecular Energy     =  -10.00 kcal/mol
USER        vdW + Hbond + desolv Energy     =   -8.00 kcal/mol
USER        Electrostatic Energy            =   -2.00 kcal/mol
USER    (2) Final Total Internal Energy     =   -0.69 kcal/mol
USER    (3) Torsional Free Energy           =   +3.58 kcal/mol
USER    (4) Unbound System's Energy  [=(2)] =   -0.69 kcal/mol
USER    
USER    
USER  
USER    DPF = D:/Protein_go_brrr/autodock/final/AncMH_nat/heme_Co/dock.dpf
USER    NEWDPF move	heme_Co_opt.pdbqt
USER    NEWDPF about	8.781000 34.984000 -0.736000
USER    NEWDPF tran0	-15.467750 -2.122913 2.175114
USER    NEWDPF axisangle0	-0.403430 0.625407 0.667914 -104.737154
USER    NEWDPF quaternion0	-0.319499 0.495294 0.528958 -0.610580
USER    NEWDPF dihe0	100.19 149.24 -26.09 113.35 137.12 6.95 -4.62 -54.04 -13.38 -166.73 -35.01 -18.34 
USER  
USER                              x       y       z    vdW   Elec        q     RMS 
ATOM      1  C   UNL d   1     -16.078  -3.420   3.807 -0.10 +0.04    +0.064    41.653
ATOM      2  C   UNL d   1     -12.584  -0.219   3.404 -0.30 +0.04    +0.064    41.653
ATOM      3  C   UNL d   1     -13.675   0.448  -1.200 -0.13 +0.08    +0.064    41.653
ATOM      4  C   UNL d   1     -17.491  -2.529  -0.713 -0.06 +0.06    +0.064    41.653
ATOM      5  C   UNL d   1     -15.020  -2.621   4.025 -0.16 +0.04    +0.066    41.653
ATOM      6  C   UNL d   1     -14.441  -2.480   5.302 -0.24 -0.01    -0.021    41.653
ATOM      7  C   UNL d   1     -13.443  -1.533   5.184 -0.30 -0.01    -0.025    41.653
ATOM      8  C   UNL d   1     -13.444  -1.149   3.838 -0.20 +0.04    +0.066    41.653
ATOM      9  C   UNL d   1     -12.515  -0.999   6.286 -0.38 +0.01    +0.051    41.653
ATOM     10  C   UNL d   1     -12.494   0.220   2.034 -0.26 +0.06    +0.066    41.653
ATOM     11  C   UNL d   1     -11.523   1.087   1.487 -0.29 -0.02    -0.021    41.653
ATOM     12  C   UNL d   1     -11.863   1.261   0.143 -0.24 +0.00    +0.000    41.653
ATOM     13  C   UNL d   1     -13.005   0.480  -0.034 -0.13 +0.10    +0.070    41.653
ATOM     14  C   UNL d   1     -10.307   1.624   2.197 -0.21 +0.02    +0.052    41.653
ATOM     15  C   UNL d   1     -14.894  -0.259  -1.541 -0.14 +0.08    +0.066    41.653
ATOM     16  C   UNL d   1     -15.615  -0.135  -2.720 -0.09 -0.02    -0.021    41.653
ATOM     17  C   UNL d   1     -16.718  -0.990  -2.584 -0.08 +0.00    +0.000    41.653
ATOM     18  C   UNL d   1     -16.573  -1.583  -1.334 -0.10 +0.07    +0.070    41.653
ATOM     19  C   UNL d   1     -15.244   0.756  -3.885 -0.04 +0.03    +0.052    41.653
ATOM     20  C   UNL d   1     -17.417  -3.053   0.534 -0.03 +0.07    +0.066    41.653
ATOM     21  C   UNL d   1     -18.381  -3.926   1.032 -0.07 -0.02    -0.025    41.653
ATOM     22  C   UNL d   1     -17.985  -4.223   2.323 -0.08 -0.02    -0.021    41.653
ATOM     23  C   UNL d   1     -16.795  -3.500   2.555 -0.07 +0.06    +0.066    41.653
ATOM     24  C   UNL d   1     -19.631  -4.439   0.320 -0.04 +0.03    +0.051    41.653
ATOM     25  N   UNL d   1     -14.407  -1.811   3.096 -0.14 -0.20    -0.248    41.653
ATOM     26  N   UNL d   1     -13.353  -0.193   1.095 -0.15 -0.31    -0.248    41.653
ATOM     27  N   UNL d   1     -15.493  -1.101  -0.729 -0.12 -0.32    -0.248    41.653
ATOM     28  N   UNL d   1     -16.450  -2.788   1.475 -0.02 -0.28    -0.248    41.653
ATOM     29 FE   UNL d   1     -14.985  -1.438   1.070 -0.04 +0.00    +0.000    41.653
ATOM     30  C   UNL d   1     -14.891  -3.169   6.586 -0.31 +0.01    +0.052    41.653
ATOM     31  C   UNL d   1     -15.064  -4.670   6.358 -0.33 +0.04    +0.115    41.653
ATOM     32  C   UNL d   1     -15.145  -5.446   7.655 -0.30 +0.05    +0.139    41.653
ATOM     33  O   UNL d   1     -14.493  -6.471   7.784 -0.37 -0.32    -0.650    41.653
ATOM     34  O   UNL d   1     -15.883  -5.014   8.704 -0.13 -0.21    -0.776    41.653
ATOM     35  H   UNL d   1     -16.785  -5.307   8.892 -0.51 -0.01    +0.167    41.653
ATOM     36  C   UNL d   1     -16.179   0.116   1.816 +0.31 +0.35    +0.190    41.653
ATOM     37  O   UNL d   1     -17.373   0.808   1.593 -0.34 -0.76    -0.399    41.653
ATOM     38  H   UNL d   1     -18.011   0.118   1.258 +0.04 +0.28    +0.209    41.653
ATOM     39  C   UNL d   1     -18.746  -5.101   3.298 -0.09 +0.03    +0.052    41.653
ATOM     40  C   UNL d   1     -18.432  -6.586   3.050 -0.13 +0.05    +0.115    41.653
ATOM     41  C   UNL d   1     -17.325  -6.831   2.046 -0.13 +0.11    +0.139    41.653
ATOM     42  O   UNL d   1     -16.161  -6.799   2.420 -0.47 -0.62    -0.650    41.653
ATOM     43  O   UNL d   1     -17.590  -7.171   0.765 -0.42 -0.75    -0.776    41.653
ATOM     44  H   UNL d   1     -18.439  -7.540   0.491 +0.02 +0.10    +0.167    41.653
ATOM     45  C   UNL d   1     -11.232   2.056  -0.993 -0.29 +0.00    +0.004    41.653
ATOM     46  C   UNL d   1     -10.513   1.652  -2.037 -0.33 +0.00    +0.012    41.653
ATOM     47  C   UNL d   1     -17.866  -1.220  -3.510 -0.02 +0.00    +0.004    41.653
ATOM     48  C   UNL d   1     -18.106  -2.389  -4.110 -0.03 +0.01    +0.012    41.653
TER
ENDMDL
MODEL       24
USER    Run = 24
USER    Cluster Rank = 9
USER    Number of conformations in this cluster = 5
USER  
USER    RMSD from reference structure       = 40.869 A
USER  
USER    Estimated Free Energy of Binding    =   -6.36 kcal/mol  [=(1)+(2)+(3)-(4)]
USER    Estimated Inhibition Constant, Ki   =   21.63 uM (micromolar)  [Temperature = 298.15 K]
USER    
USER    (1) Final Intermolecular Energy     =   -9.94 kcal/mol
USER        vdW + Hbond + desolv Energy     =   -6.83 kcal/mol
USER        Electrostatic Energy            =   -3.11 kcal/mol
USER    (2) Final Total Internal Energy     =   -1.05 kcal/mol
USER    (3) Torsional Free Energy           =   +3.58 kcal/mol
USER    (4) Unbound System's Energy  [=(2)] =   -1.05 kcal/mol
USER    
USER    
USER  
USER    DPF = D:/Protein_go_brrr/autodock/final/AncMH_nat/heme_Co/dock.dpf
USER    NEWDPF move	heme_Co_opt.pdbqt
USER    NEWDPF about	8.781000 34.984000 -0.736000
USER    NEWDPF tran0	-15.641320 -1.581464 0.158378
USER    NEWDPF axisangle0	0.142575 0.983336 -0.112797 57.135451
USER    NEWDPF quaternion0	0.068179 0.470228 -0.053939 0.878252
USER    NEWDPF dihe0	-25.24 96.61 45.99 131.84 147.46 120.82 -99.69 179.76 120.54 156.55 17.37 -172.85 
USER  
USER                              x       y       z    vdW   Elec        q     RMS 
ATOM      1  C   UNL d   1     -16.016  -1.456  -1.977 -0.10 +0.06    +0.064    40.869
ATOM      2  C   UNL d   1     -18.352  -3.618   1.556 -0.06 +0.05    +0.064    40.869
ATOM      3  C   UNL d   1     -14.917  -2.378   4.637 -0.17 +0.03    +0.064    40.869
ATOM      4  C   UNL d   1     -12.707   0.165   1.128 -0.23 +0.07    +0.064    40.869
ATOM      5  C   UNL d   1     -16.889  -2.169  -1.245 -0.07 +0.07    +0.066    40.869
ATOM      6  C   UNL d   1     -18.093  -2.658  -1.787 -0.07 -0.02    -0.021    40.869
ATOM      7  C   UNL d   1     -18.778  -3.265  -0.752 -0.05 -0.02    -0.025    40.869
ATOM      8  C   UNL d   1     -17.955  -3.134   0.372 -0.05 +0.06    +0.066    40.869
ATOM      9  C   UNL d   1     -20.154  -3.945  -0.804 -0.01 +0.02    +0.051    40.869
ATOM     10  C   UNL d   1     -17.563  -3.554   2.760 -0.06 +0.05    +0.066    40.869
ATOM     11  C   UNL d   1     -17.861  -4.164   3.998 -0.08 -0.01    -0.021    40.869
ATOM     12  C   UNL d   1     -16.841  -3.789   4.877 -0.12 +0.00    +0.000    40.869
ATOM     13  C   UNL d   1     -15.992  -2.991   4.110 -0.10 +0.04    +0.070    40.869
ATOM     14  C   UNL d   1     -18.997  -5.115   4.273 +0.04 +0.02    +0.052    40.869
ATOM     15  C   UNL d   1     -13.968  -1.482   4.006 -0.22 +0.04    +0.066    40.869
ATOM     16  C   UNL d   1     -12.963  -0.767   4.642 -0.27 -0.01    -0.021    40.869
ATOM     17  C   UNL d   1     -12.325  -0.030   3.635 -0.30 +0.00    +0.000    40.869
ATOM     18  C   UNL d   1     -12.982  -0.368   2.457 -0.25 +0.06    +0.070    40.869
ATOM     19  C   UNL d   1     -12.661  -0.808   6.124 -0.38 +0.01    +0.052    40.869
ATOM     20  C   UNL d   1     -13.387  -0.083  -0.017 -0.16 +0.09    +0.066    40.869
ATOM     21  C   UNL d   1     -13.049   0.518  -1.227 -0.19 -0.03    -0.025    40.869
ATOM     22  C   UNL d   1     -13.968   0.047  -2.147 -0.15 -0.02    -0.021    40.869
ATOM     23  C   UNL d   1     -14.836  -0.815  -1.444 -0.09 +0.08    +0.066    40.869
ATOM     24  C   UNL d   1     -11.918   1.509  -1.492 -0.23 +0.03    +0.051    40.869
ATOM     25  N   UNL d   1     -16.776  -2.465   0.094 -0.04 -0.30    -0.248    40.869
ATOM     26  N   UNL d   1     -16.400  -2.895   2.816 -0.05 -0.21    -0.248    40.869
ATOM     27  N   UNL d   1     -13.974  -1.211   2.720 -0.16 -0.22    -0.248    40.869
ATOM     28  N   UNL d   1     -14.489  -0.895  -0.153 -0.13 -0.33    -0.248    40.869
ATOM     29 FE   UNL d   1     -15.290  -1.799   1.482 -0.04 +0.00    +0.000    40.869
ATOM     30  C   UNL d   1     -18.590  -2.473  -3.217 -0.03 +0.03    +0.052    40.869
ATOM     31  C   UNL d   1     -18.353  -3.741  -4.037 -0.04 +0.06    +0.115    40.869
ATOM     32  C   UNL d   1     -16.886  -4.097  -4.139 -0.06 +0.12    +0.139    40.869
ATOM     33  O   UNL d   1     -16.526  -5.239  -3.893 -0.52 -0.80    -0.650    40.869
ATOM     34  O   UNL d   1     -15.956  -3.200  -4.543 -0.09 -0.57    -0.776    40.869
ATOM     35  H   UNL d   1     -16.133  -2.470  -5.152 +0.02 +0.08    +0.167    40.869
ATOM     36  C   UNL d   1     -16.519  -0.137   1.828 -0.03 +0.29    +0.190    40.869
ATOM     37  O   UNL d   1     -17.419   0.733   1.204 -0.42 -0.75    -0.399    40.869
ATOM     38  H   UNL d   1     -17.263   0.605   0.226 +0.03 +0.38    +0.209    40.869
ATOM     39  C   UNL d   1     -14.043   0.459  -3.605 -0.09 +0.03    +0.052    40.869
ATOM     40  C   UNL d   1     -14.559   1.901  -3.737 -0.04 +0.06    +0.115    40.869
ATOM     41  C   UNL d   1     -15.485   2.338  -2.621 -0.06 +0.15    +0.139    40.869
ATOM     42  O   UNL d   1     -16.342   1.564  -2.218 -0.00 -0.76    -0.650    40.869
ATOM     43  O   UNL d   1     -15.337   3.528  -1.999 -0.42 -1.22    -0.776    40.869
ATOM     44  H   UNL d   1     -15.279   4.363  -2.482 +0.02 +0.15    +0.167    40.869
ATOM     45  C   UNL d   1     -16.562  -4.107   6.340 -0.19 +0.00    +0.004    40.869
ATOM     46  C   UNL d   1     -15.496  -4.653   6.920 -0.41 +0.00    +0.012    40.869
ATOM     47  C   UNL d   1     -11.214   0.964   3.738 -0.41 +0.00    +0.004    40.869
ATOM     48  C   UNL d   1     -10.081   0.878   3.037 -0.29 +0.00    +0.012    40.869
TER
ENDMDL
MODEL       88
USER    Run = 88
USER    Cluster Rank = 10
USER    Number of conformations in this cluster = 7
USER  
USER    RMSD from reference structure       = 39.847 A
USER  
USER    Estimated Free Energy of Binding    =   -6.20 kcal/mol  [=(1)+(2)+(3)-(4)]
USER    Estimated Inhibition Constant, Ki   =   28.64 uM (micromolar)  [Temperature = 298.15 K]
USER    
USER    (1) Final Intermolecular Energy     =   -9.78 kcal/mol
USER        vdW + Hbond + desolv Energy     =   -6.85 kcal/mol
USER        Electrostatic Energy            =   -2.93 kcal/mol
USER    (2) Final Total Internal Energy     =   -1.65 kcal/mol
USER    (3) Torsional Free Energy           =   +3.58 kcal/mol
USER    (4) Unbound System's Energy  [=(2)] =   -1.65 kcal/mol
USER    
USER    
USER  
USER    DPF = D:/Protein_go_brrr/autodock/final/AncMH_nat/heme_Co/dock.dpf
USER    NEWDPF move	heme_Co_opt.pdbqt
USER    NEWDPF about	8.781000 34.984000 -0.736000
USER    NEWDPF tran0	-15.033106 -0.958768 -1.742403
USER    NEWDPF axisangle0	0.726321 -0.426441 -0.539078 65.134312
USER    NEWDPF quaternion0	0.390970 -0.229548 -0.290179 0.842761
USER    NEWDPF dihe0	-141.10 135.63 -124.49 48.25 72.84 105.39 -14.12 128.01 -149.45 122.45 165.34 16.29 
USER  
USER                              x       y       z    vdW   Elec        q     RMS 
ATOM      1  C   UNL d   1     -16.908  -1.969  -1.318 -0.09 +0.07    +0.064    39.847
ATOM      2  C   UNL d   1     -13.618  -0.019   1.508 -0.22 +0.09    +0.064    39.847
ATOM      3  C   UNL d   1     -10.835   0.860  -2.276 -0.24 +0.02    +0.064    39.847
ATOM      4  C   UNL d   1     -14.345  -0.776  -5.220 -0.05 +0.02    +0.064    39.847
ATOM      5  C   UNL d   1     -16.198  -1.533  -0.264 -0.13 +0.08    +0.066    39.847
ATOM      6  C   UNL d   1     -16.715  -1.553   1.046 -0.12 -0.02    -0.021    39.847
ATOM      7  C   UNL d   1     -15.765  -0.965   1.858 -0.16 -0.03    -0.025    39.847
ATOM      8  C   UNL d   1     -14.703  -0.627   1.013 -0.15 +0.10    +0.066    39.847
ATOM      9  C   UNL d   1     -15.841  -0.723   3.374 -0.09 +0.05    +0.051    39.847
ATOM     10  C   UNL d   1     -12.466   0.343   0.720 -0.22 +0.07    +0.066    39.847
ATOM     11  C   UNL d   1     -11.241   0.854   1.202 -0.29 -0.01    -0.021    39.847
ATOM     12  C   UNL d   1     -10.447   1.098   0.078 -0.33 +0.00    +0.000    39.847
ATOM     13  C   UNL d   1     -11.238   0.706  -1.002 -0.24 +0.04    +0.070    39.847
ATOM     14  C   UNL d   1     -10.843   1.002   2.648 -0.35 +0.02    +0.052    39.847
ATOM     15  C   UNL d   1     -11.541   0.560  -3.506 -0.23 +0.02    +0.066    39.847
ATOM     16  C   UNL d   1     -11.125   0.877  -4.792 -0.25 +0.00    -0.021    39.847
ATOM     17  C   UNL d   1     -12.136   0.410  -5.644 -0.13 +0.00    +0.000    39.847
ATOM     18  C   UNL d   1     -13.083  -0.173  -4.810 -0.10 +0.02    +0.070    39.847
ATOM     19  C   UNL d   1      -9.837   1.586  -5.147 -0.31 -0.02    +0.052    39.847
ATOM     20  C   UNL d   1     -15.321  -1.271  -4.422 -0.07 +0.04    +0.066    39.847
ATOM     21  C   UNL d   1     -16.507  -1.792  -4.933 -0.04 -0.01    -0.025    39.847
ATOM     22  C   UNL d   1     -17.254  -2.171  -3.832 -0.06 -0.01    -0.021    39.847
ATOM     23  C   UNL d   1     -16.484  -1.848  -2.694 -0.09 +0.06    +0.066    39.847
ATOM     24  C   UNL d   1     -16.919  -1.906  -6.398 -0.01 +0.01    +0.051    39.847
ATOM     25  N   UNL d   1     -14.941  -0.973  -0.306 -0.13 -0.33    -0.248    39.847
ATOM     26  N   UNL d   1     -12.436   0.198  -0.609 -0.14 -0.23    -0.248    39.847
ATOM     27  N   UNL d   1     -12.710  -0.039  -3.542 -0.10 -0.11    -0.248    39.847
ATOM     28  N   UNL d   1     -15.315  -1.301  -3.046 -0.09 -0.20    -0.248    39.847
ATOM     29 FE   UNL d   1     -13.762  -0.480  -2.022 -0.04 +0.00    +0.000    39.847
ATOM     30  C   UNL d   1     -18.095  -2.042   1.471 -0.05 +0.04    +0.052    39.847
ATOM     31  C   UNL d   1     -18.967  -0.869   1.918 -0.05 +0.11    +0.115    39.847
ATOM     32  C   UNL d   1     -18.593   0.424   1.226 -0.10 +0.19    +0.139    39.847
ATOM     33  O   UNL d   1     -18.652   1.476   1.846 -0.46 -1.37    -0.650    39.847
ATOM     34  O   UNL d   1     -18.146   0.452  -0.051 -0.02 -0.95    -0.776    39.847
ATOM     35  H   UNL d   1     -17.482   1.072  -0.381 +0.02 +0.28    +0.167    39.847
ATOM     36  C   UNL d   1     -14.725   1.382  -2.009 -0.03 +0.25    +0.190    39.847
ATOM     37  O   UNL d   1     -15.986   1.984  -1.942 -0.06 -0.62    -0.399    39.847
ATOM     38  H   UNL d   1     -16.574   1.300  -1.517 +0.02 +0.32    +0.209    39.847
ATOM     39  C   UNL d   1     -18.655  -2.750  -3.876 -0.02 +0.02    +0.052    39.847
ATOM     40  C   UNL d   1     -18.673  -4.173  -3.295 -0.05 +0.07    +0.115    39.847
ATOM     41  C   UNL d   1     -17.842  -5.175  -4.068 -0.04 +0.09    +0.139    39.847
ATOM     42  O   UNL d   1     -18.378  -5.858  -4.930 +0.00 -0.26    -0.650    39.847
ATOM     43  O   UNL d   1     -16.506  -5.274  -3.894 -0.50 -0.96    -0.776    39.847
ATOM     44  H   UNL d   1     -15.875  -5.107  -4.607 +0.02 +0.15    +0.167    39.847
ATOM     45  C   UNL d   1      -9.033   1.634  -0.098 -0.37 +0.00    +0.004    39.847
ATOM     46  C   UNL d   1      -7.927   1.409   0.607 -0.47 +0.00    +0.012    39.847
ATOM     47  C   UNL d   1     -12.262   0.528  -7.128 -0.09 -0.00    +0.004    39.847
ATOM     48  C   UNL d   1     -11.295   0.182  -7.980 -0.14 -0.00    +0.012    39.847
TER
ENDMDL
MODEL       47
USER    Run = 47
USER    Cluster Rank = 11
USER    Number of conformations in this cluster = 1
USER  
USER    RMSD from reference structure       = 35.548 A
USER  
USER    Estimated Free Energy of Binding    =   -6.07 kcal/mol  [=(1)+(2)+(3)-(4)]
USER    Estimated Inhibition Constant, Ki   =   35.40 uM (micromolar)  [Temperature = 298.15 K]
USER    
USER    (1) Final Intermolecular Energy     =   -9.65 kcal/mol
USER        vdW + Hbond + desolv Energy     =   -6.43 kcal/mol
USER        Electrostatic Energy            =   -3.23 kcal/mol
USER    (2) Final Total Internal Energy     =   -0.68 kcal/mol
USER    (3) Torsional Free Energy           =   +3.58 kcal/mol
USER    (4) Unbound System's Energy  [=(2)] =   -0.68 kcal/mol
USER    
USER    
USER  
USER    DPF = D:/Protein_go_brrr/autodock/final/AncMH_nat/heme_Co/dock.dpf
USER    NEWDPF move	heme_Co_opt.pdbqt
USER    NEWDPF about	8.781000 34.984000 -0.736000
USER    NEWDPF tran0	-19.903185 8.973106 4.901586
USER    NEWDPF axisangle0	0.733763 0.455489 0.504106 -162.228523
USER    NEWDPF quaternion0	0.724956 0.450022 0.498056 -0.154464
USER    NEWDPF dihe0	170.82 -44.75 49.97 -119.58 -91.66 114.05 -162.36 172.98 26.46 -61.98 178.98 1.35 
USER  
USER                              x       y       z    vdW   Elec        q     RMS 
ATOM      1  C   UNL d   1     -20.578   6.949   4.496 -0.14 +0.04    +0.064    35.548
ATOM      2  C   UNL d   1     -18.563  10.258   1.739 -0.10 -0.00    +0.064    35.548
ATOM      3  C   UNL d   1     -18.748  13.412   5.323 -0.12 -0.01    +0.064    35.548
ATOM      4  C   UNL d   1     -20.451   9.939   8.273 -0.16 +0.01    +0.064    35.548
ATOM      5  C   UNL d   1     -20.047   7.632   3.469 -0.12 +0.03    +0.066    35.548
ATOM      6  C   UNL d   1     -19.761   7.020   2.233 -0.12 -0.01    -0.021    35.548
ATOM      7  C   UNL d   1     -19.155   7.979   1.444 -0.08 -0.01    -0.025    35.548
ATOM      8  C   UNL d   1     -19.113   9.138   2.226 -0.07 +0.01    +0.066    35.548
ATOM      9  C   UNL d   1     -18.631   7.824   0.009 -0.07 +0.02    +0.051    35.548
ATOM     10  C   UNL d   1     -18.498  11.505   2.459 -0.11 -0.01    +0.066    35.548
ATOM     11  C   UNL d   1     -18.062  12.749   1.954 -0.11 +0.01    -0.021    35.548
ATOM     12  C   UNL d   1     -18.130  13.652   3.019 -0.14 -0.00    +0.000    35.548
ATOM     13  C   UNL d   1     -18.613  12.897   4.088 -0.12 -0.01    +0.070    35.548
ATOM     14  C   UNL d   1     -17.701  13.054   0.523 +0.01 -0.04    +0.052    35.548
ATOM     15  C   UNL d   1     -19.180  12.766   6.547 -0.10 +0.00    +0.066    35.548
ATOM     16  C   UNL d   1     -19.159  13.317   7.820 -0.09 -0.00    -0.021    35.548
ATOM     17  C   UNL d   1     -19.647  12.318   8.675 -0.11 +0.00    +0.000    35.548
ATOM     18  C   UNL d   1     -19.944  11.239   7.850 -0.13 +0.01    +0.070    35.548
ATOM     19  C   UNL d   1     -18.693  14.714   8.163 -0.11 -0.00    +0.052    35.548
ATOM     20  C   UNL d   1     -20.666   8.847   7.502 -0.18 +0.02    +0.066    35.548
ATOM     21  C   UNL d   1     -21.121   7.641   8.031 -0.19 -0.01    -0.025    35.548
ATOM     22  C   UNL d   1     -21.195   6.769   6.960 -0.18 -0.01    -0.021    35.548
ATOM     23  C   UNL d   1     -20.766   7.488   5.824 -0.16 +0.03    +0.066    35.548
ATOM     24  C   UNL d   1     -21.451   7.328   9.488 -0.17 +0.01    +0.051    35.548
ATOM     25  N   UNL d   1     -19.664   8.954   3.483 -0.04 -0.06    -0.248    35.548
ATOM     26  N   UNL d   1     -18.888  11.613   3.733 -0.06 +0.02    -0.248    35.548
ATOM     27  N   UNL d   1     -19.625  11.530   6.594 -0.09 -0.03    -0.248    35.548
ATOM     28  N   UNL d   1     -20.442   8.745   6.148 -0.10 -0.07    -0.248    35.548
ATOM     29 FE   UNL d   1     -19.645  10.316   5.133 -0.03 +0.00    +0.000    35.548
ATOM     30  C   UNL d   1     -19.988   5.557   1.868 -0.15 +0.06    +0.052    35.548
ATOM     31  C   UNL d   1     -18.702   4.752   2.048 -0.13 +0.18    +0.115    35.548
ATOM     32  C   UNL d   1     -18.672   3.510   1.184 -0.12 +0.24    +0.139    35.548
ATOM     33  O   UNL d   1     -18.596   3.624  -0.030 -0.03 -0.82    -0.650    35.548
ATOM     34  O   UNL d   1     -18.680   2.265   1.716 -0.56 -1.85    -0.776    35.548
ATOM     35  H   UNL d   1     -18.847   1.458   1.209 +0.02 +0.29    +0.167    35.548
ATOM     36  C   UNL d   1     -17.708   9.624   5.536 -0.29 +0.04    +0.190    35.548
ATOM     37  O   UNL d   1     -16.924   8.467   5.576 -0.34 -0.10    -0.399    35.548
ATOM     38  H   UNL d   1     -16.164   8.692   6.182 -0.39 +0.01    +0.209    35.548
ATOM     39  C   UNL d   1     -21.594   5.307   7.042 -0.08 +0.03    +0.052    35.548
ATOM     40  C   UNL d   1     -23.040   5.111   6.556 -0.09 +0.06    +0.115    35.548
ATOM     41  C   UNL d   1     -23.164   4.332   5.264 -0.09 +0.12    +0.139    35.548
ATOM     42  O   UNL d   1     -22.468   4.644   4.308 -0.42 -0.93    -0.650    35.548
ATOM     43  O   UNL d   1     -23.961   3.245   5.163 -0.01 -0.57    -0.776    35.548
ATOM     44  H   UNL d   1     -24.904   3.272   5.368 +0.01 +0.08    +0.167    35.548
ATOM     45  C   UNL d   1     -17.815  15.136   3.144 -0.12 -0.00    +0.004    35.548
ATOM     46  C   UNL d   1     -17.047  15.788   4.013 -0.11 -0.01    +0.012    35.548
ATOM     47  C   UNL d   1     -19.789  12.321  10.162 -0.14 +0.00    +0.004    35.548
ATOM     48  C   UNL d   1     -19.077  11.534  10.972 -0.20 +0.00    +0.012    35.548
TER
ENDMDL
MODEL       94
USER    Run = 94
USER    Cluster Rank = 12
USER    Number of conformations in this cluster = 2
USER  
USER    RMSD from reference structure       = 37.511 A
USER  
USER    Estimated Free Energy of Binding    =   -5.98 kcal/mol  [=(1)+(2)+(3)-(4)]
USER    Estimated Inhibition Constant, Ki   =   41.48 uM (micromolar)  [Temperature = 298.15 K]
USER    
USER    (1) Final Intermolecular Energy     =   -9.56 kcal/mol
USER        vdW + Hbond + desolv Energy     =   -6.19 kcal/mol
USER        Electrostatic Energy            =   -3.36 kcal/mol
USER    (2) Final Total Internal Energy     =   -0.87 kcal/mol
USER    (3) Torsional Free Energy           =   +3.58 kcal/mol
USER    (4) Unbound System's Energy  [=(2)] =   -0.87 kcal/mol
USER    
USER    
USER  
USER    DPF = D:/Protein_go_brrr/autodock/final/AncMH_nat/heme_Co/dock.dpf
USER    NEWDPF move	heme_Co_opt.pdbqt
USER    NEWDPF about	8.781000 34.984000 -0.736000
USER    NEWDPF tran0	-16.226198 2.913778 -1.549885
USER    NEWDPF axisangle0	-0.920759 -0.240525 0.307166 -113.818094
USER    NEWDPF quaternion0	-0.771416 -0.201513 0.257345 -0.545970
USER    NEWDPF dihe0	25.93 110.75 64.97 38.39 61.38 155.46 46.24 -169.07 -126.17 -30.34 -10.37 179.92 
USER  
USER                              x       y       z    vdW   Elec        q     RMS 
ATOM      1  C   UNL d   1     -17.208   0.980  -1.449 -0.04 +0.08    +0.064    37.511
ATOM      2  C   UNL d   1     -18.603   5.342  -0.169 -0.11 +0.05    +0.064    37.511
ATOM      3  C   UNL d   1     -14.285   7.080  -1.250 -0.29 +0.02    +0.064    37.511
ATOM      4  C   UNL d   1     -12.960   2.710  -2.926 -0.09 +0.03    +0.064    37.511
ATOM      5  C   UNL d   1     -17.895   2.037  -0.985 -0.01 +0.09    +0.066    37.511
ATOM      6  C   UNL d   1     -19.253   1.946  -0.624 -0.05 -0.02    -0.021    37.511
ATOM      7  C   UNL d   1     -19.659   3.219  -0.275 -0.07 -0.02    -0.025    37.511
ATOM      8  C   UNL d   1     -18.528   4.029  -0.423 -0.10 +0.07    +0.066    37.511
ATOM      9  C   UNL d   1     -21.054   3.672   0.180 -0.05 +0.04    +0.051    37.511
ATOM     10  C   UNL d   1     -17.486   6.248  -0.267 -0.13 +0.04    +0.066    37.511
ATOM     11  C   UNL d   1     -17.465   7.606   0.119 -0.15 -0.01    -0.021    37.511
ATOM     12  C   UNL d   1     -16.193   8.087  -0.203 -0.26 +0.00    +0.000    37.511
ATOM     13  C   UNL d   1     -15.530   6.987  -0.749 -0.23 +0.03    +0.070    37.511
ATOM     14  C   UNL d   1     -18.565   8.347   0.835 -0.10 +0.01    +0.052    37.511
ATOM     15  C   UNL d   1     -13.475   6.065  -1.894 -0.23 +0.03    +0.066    37.511
ATOM     16  C   UNL d   1     -12.253   6.262  -2.520 -0.28 -0.00    -0.021    37.511
ATOM     17  C   UNL d   1     -11.867   5.005  -3.007 -0.18 +0.00    +0.000    37.511
ATOM     18  C   UNL d   1     -12.881   4.133  -2.623 -0.12 +0.03    +0.070    37.511
ATOM     19  C   UNL d   1     -11.526   7.584  -2.628 -0.39 -0.00    +0.052    37.511
ATOM     20  C   UNL d   1     -13.976   1.861  -2.639 -0.08 +0.06    +0.066    37.511
ATOM     21  C   UNL d   1     -13.952   0.519  -3.013 -0.11 -0.02    -0.025    37.511
ATOM     22  C   UNL d   1     -15.151  -0.012  -2.575 -0.11 -0.02    -0.021    37.511
ATOM     23  C   UNL d   1     -15.858   1.044  -1.961 -0.03 +0.08    +0.066    37.511
ATOM     24  C   UNL d   1     -12.849  -0.217  -3.770 -0.17 +0.02    +0.051    37.511
ATOM     25  N   UNL d   1     -17.419   3.322  -0.856 +0.00 -0.41    -0.248    37.511
ATOM     26  N   UNL d   1     -16.294   5.863  -0.735 -0.11 -0.22    -0.248    37.511
ATOM     27  N   UNL d   1     -13.836   4.804  -1.989 -0.10 -0.19    -0.248    37.511
ATOM     28  N   UNL d   1     -15.151   2.179  -1.999 +0.01 -0.39    -0.248    37.511
ATOM     29 FE   UNL d   1     -15.520   4.104  -1.457 -0.04 +0.00    +0.000    37.511
ATOM     30  C   UNL d   1     -20.132   0.701  -0.695 -0.01 +0.04    +0.052    37.511
ATOM     31  C   UNL d   1     -19.772  -0.274   0.425 -0.02 +0.10    +0.115    37.511
ATOM     32  C   UNL d   1     -19.768   0.386   1.787 -0.05 +0.20    +0.139    37.511
ATOM     33  O   UNL d   1     -18.775   0.996   2.156 -0.29 -1.28    -0.650    37.511
ATOM     34  O   UNL d   1     -20.851   0.366   2.598 -0.13 -1.35    -0.776    37.511
ATOM     35  H   UNL d   1     -21.565  -0.284   2.536 +0.01 +0.18    +0.167    37.511
ATOM     36  C   UNL d   1     -16.395   4.487  -3.323 -0.03 +0.10    +0.190    37.511
ATOM     37  O   UNL d   1     -17.595   4.382  -4.034 +0.00 -0.13    -0.399    37.511
ATOM     38  H   UNL d   1     -18.229   3.938  -3.403 +0.01 +0.09    +0.209    37.511
ATOM     39  C   UNL d   1     -15.614  -1.440  -2.796 -0.12 +0.05    +0.052    37.511
ATOM     40  C   UNL d   1     -16.149  -1.621  -4.226 -0.07 +0.07    +0.115    37.511
ATOM     41  C   UNL d   1     -15.842  -2.971  -4.842 -0.09 +0.09    +0.139    37.511
ATOM     42  O   UNL d   1     -14.817  -3.555  -4.520 -0.54 -0.60    -0.650    37.511
ATOM     43  O   UNL d   1     -16.713  -3.588  -5.671 +0.02 -0.33    -0.776    37.511
ATOM     44  H   UNL d   1     -16.885  -3.275  -6.569 +0.01 +0.05    +0.167    37.511
ATOM     45  C   UNL d   1     -15.525   9.446  -0.042 -0.23 -0.00    +0.004    37.511
ATOM     46  C   UNL d   1     -15.710  10.400   0.867 -0.36 -0.00    +0.012    37.511
ATOM     47  C   UNL d   1     -10.674   4.621  -3.818 -0.27 -0.00    +0.004    37.511
ATOM     48  C   UNL d   1      -9.453   5.124  -3.618 -0.41 -0.00    +0.012    37.511
TER
ENDMDL
MODEL       56
USER    Run = 56
USER    Cluster Rank = 13
USER    Number of conformations in this cluster = 2
USER  
USER    RMSD from reference structure       = 41.231 A
USER  
USER    Estimated Free Energy of Binding    =   -5.92 kcal/mol  [=(1)+(2)+(3)-(4)]
USER    Estimated Inhibition Constant, Ki   =   46.11 uM (micromolar)  [Temperature = 298.15 K]
USER    
USER    (1) Final Intermolecular Energy     =   -9.50 kcal/mol
USER        vdW + Hbond + desolv Energy     =   -6.51 kcal/mol
USER        Electrostatic Energy            =   -2.99 kcal/mol
USER    (2) Final Total Internal Energy     =   -1.81 kcal/mol
USER    (3) Torsional Free Energy           =   +3.58 kcal/mol
USER    (4) Unbound System's Energy  [=(2)] =   -1.81 kcal/mol
USER    
USER    
USER  
USER    DPF = D:/Protein_go_brrr/autodock/final/AncMH_nat/heme_Co/dock.dpf
USER    NEWDPF move	heme_Co_opt.pdbqt
USER    NEWDPF about	8.781000 34.984000 -0.736000
USER    NEWDPF tran0	-16.032521 -1.637313 3.543081
USER    NEWDPF axisangle0	-0.648943 0.189312 -0.736909 173.647096
USER    NEWDPF quaternion0	-0.647946 0.189021 -0.735777 0.055411
USER    NEWDPF dihe0	-156.26 -180.00 -41.68 119.07 140.14 -178.76 2.07 108.91 85.81 -134.18 23.49 -30.70 
USER  
USER                              x       y       z    vdW   Elec        q     RMS 
ATOM      1  C   UNL d   1     -16.690  -1.484   1.479 -0.10 +0.07    +0.064    41.231
ATOM      2  C   UNL d   1     -12.532  -0.543   3.587 -0.13 +0.03    +0.064    41.231
ATOM      3  C   UNL d   1     -14.451  -1.462   7.865 -0.27 +0.01    +0.064    41.231
ATOM      4  C   UNL d   1     -18.598  -2.801   5.704 -0.06 +0.03    +0.064    41.231
ATOM      5  C   UNL d   1     -15.423  -1.124   1.744 -0.17 +0.08    +0.066    41.231
ATOM      6  C   UNL d   1     -14.497  -0.840   0.721 -0.20 -0.03    -0.021    41.231
ATOM      7  C   UNL d   1     -13.287  -0.590   1.337 -0.26 -0.03    -0.025    41.231
ATOM      8  C   UNL d   1     -13.529  -0.716   2.709 -0.24 +0.06    +0.066    41.231
ATOM      9  C   UNL d   1     -11.945  -0.246   0.673 -0.31 +0.04    +0.051    41.231
ATOM     10  C   UNL d   1     -12.692  -0.627   5.017 -0.24 +0.02    +0.066    41.231
ATOM     11  C   UNL d   1     -11.721  -0.318   5.994 -0.42 -0.00    -0.021    41.231
ATOM     12  C   UNL d   1     -12.308  -0.591   7.233 -0.44 +0.00    +0.000    41.231
ATOM     13  C   UNL d   1     -13.595  -1.032   6.921 -0.22 +0.01    +0.070    41.231
ATOM     14  C   UNL d   1     -10.363   0.286   5.743 -0.44 +0.01    +0.052    41.231
ATOM     15  C   UNL d   1     -15.790  -1.997   7.717 -0.22 +0.02    +0.066    41.231
ATOM     16  C   UNL d   1     -16.567  -2.559   8.720 -0.24 -0.00    -0.021    41.231
ATOM     17  C   UNL d   1     -17.763  -2.949   8.101 -0.17 +0.00    +0.000    41.231
ATOM     18  C   UNL d   1     -17.628  -2.577   6.768 -0.10 +0.03    +0.070    41.231
ATOM     19  C   UNL d   1     -16.160  -2.700  10.170 -0.19 +0.00    +0.052    41.231
ATOM     20  C   UNL d   1     -18.453  -2.527   4.385 -0.03 +0.04    +0.066    41.231
ATOM     21  C   UNL d   1     -19.444  -2.821   3.451 -0.01 -0.01    -0.025    41.231
ATOM     22  C   UNL d   1     -18.933  -2.426   2.228 -0.01 -0.01    -0.021    41.231
ATOM     23  C   UNL d   1     -17.641  -1.917   2.477 -0.04 +0.06    +0.066    41.231
ATOM     24  C   UNL d   1     -20.803  -3.467   3.708 -0.02 +0.02    +0.051    41.231
ATOM     25  N   UNL d   1     -14.845  -1.041   2.991 -0.13 -0.23    -0.248    41.231
ATOM     26  N   UNL d   1     -13.844  -1.000   5.585 -0.01 -0.08    -0.248    41.231
ATOM     27  N   UNL d   1     -16.428  -2.041   6.569 -0.07 -0.09    -0.248    41.231
ATOM     28  N   UNL d   1     -17.346  -1.978   3.781 -0.02 -0.18    -0.248    41.231
ATOM     29 FE   UNL d   1     -15.687  -1.571   4.885 -0.05 +0.00    +0.000    41.231
ATOM     30  C   UNL d   1     -14.757  -0.892  -0.781 -0.11 +0.07    +0.052    41.231
ATOM     31  C   UNL d   1     -14.813   0.520  -1.365 -0.02 +0.17    +0.115    41.231
ATOM     32  C   UNL d   1     -16.229   1.040  -1.484 +0.13 +0.22    +0.139    41.231
ATOM     33  O   UNL d   1     -16.620   1.478  -2.556 +0.01 -0.60    -0.650    41.231
ATOM     34  O   UNL d   1     -17.100   0.993  -0.450 -0.15 -1.49    -0.776    41.231
ATOM     35  H   UNL d   1     -18.061   1.053  -0.545 +0.02 +0.21    +0.167    41.231
ATOM     36  C   UNL d   1     -14.955  -3.505   4.542 -0.16 +0.10    +0.190    41.231
ATOM     37  O   UNL d   1     -13.959  -4.215   3.865 -0.17 -0.26    -0.399    41.231
ATOM     38  H   UNL d   1     -13.106  -3.943   4.305 +0.11 +0.08    +0.209    41.231
ATOM     39  C   UNL d   1     -19.628  -2.592   0.890 -0.00 +0.03    +0.052    41.231
ATOM     40  C   UNL d   1     -20.826  -1.634   0.778 +0.01 +0.07    +0.115    41.231
ATOM     41  C   UNL d   1     -20.576  -0.252   1.343 -0.03 +0.13    +0.139    41.231
ATOM     42  O   UNL d   1     -21.186   0.106   2.341 -0.15 -0.87    -0.650    41.231
ATOM     43  O   UNL d   1     -19.632   0.566   0.828 +0.01 -0.90    -0.776    41.231
ATOM     44  H   UNL d   1     -18.793   0.237   0.479 +0.03 +0.18    +0.167    41.231
ATOM     45  C   UNL d   1     -11.811  -0.469   8.667 -0.62 +0.00    +0.004    41.231
ATOM     46  C   UNL d   1     -12.170   0.365   9.639 -0.32 +0.00    +0.012    41.231
ATOM     47  C   UNL d   1     -18.944  -3.663   8.672 -0.17 +0.00    +0.004    41.231
ATOM     48  C   UNL d   1     -20.172  -3.141   8.716 -0.09 +0.00    +0.012    41.231
TER
ENDMDL
MODEL       35
USER    Run = 35
USER    Cluster Rank = 14
USER    Number of conformations in this cluster = 1
USER  
USER    RMSD from reference structure       = 43.445 A
USER  
USER    Estimated Free Energy of Binding    =   -5.82 kcal/mol  [=(1)+(2)+(3)-(4)]
USER    Estimated Inhibition Constant, Ki   =   53.76 uM (micromolar)  [Temperature = 298.15 K]
USER    
USER    (1) Final Intermolecular Energy     =   -9.40 kcal/mol
USER        vdW + Hbond + desolv Energy     =   -6.30 kcal/mol
USER        Electrostatic Energy            =   -3.11 kcal/mol
USER    (2) Final Total Internal Energy     =   -1.23 kcal/mol
USER    (3) Torsional Free Energy           =   +3.58 kcal/mol
USER    (4) Unbound System's Energy  [=(2)] =   -1.23 kcal/mol
USER    
USER    
USER  
USER    DPF = D:/Protein_go_brrr/autodock/final/AncMH_nat/heme_Co/dock.dpf
USER    NEWDPF move	heme_Co_opt.pdbqt
USER    NEWDPF about	8.781000 34.984000 -0.736000
USER    NEWDPF tran0	-17.838765 -2.515705 5.541884
USER    NEWDPF axisangle0	-0.077972 0.400754 -0.912862 137.766164
USER    NEWDPF quaternion0	-0.072736 0.373843 -0.851560 0.360272
USER    NEWDPF dihe0	35.18 133.76 -6.66 116.08 95.74 89.22 -138.82 -18.40 -98.85 149.28 -178.17 4.13 
USER  
USER                              x       y       z    vdW   Elec        q     RMS 
ATOM      1  C   UNL d   1     -16.636  -3.242   3.886 -0.08 +0.04    +0.064    43.445
ATOM      2  C   UNL d   1     -16.322  -3.886   8.587 -0.39 +0.01    +0.064    43.445
ATOM      3  C   UNL d   1     -19.926  -0.828   9.285 -0.03 +0.02    +0.064    43.445
ATOM      4  C   UNL d   1     -20.520  -0.451   4.471 +0.01 +0.08    +0.064    43.445
ATOM      5  C   UNL d   1     -16.262  -3.615   5.121 -0.11 +0.03    +0.066    43.445
ATOM      6  C   UNL d   1     -15.258  -4.579   5.339 -0.24 -0.01    -0.021    43.445
ATOM      7  C   UNL d   1     -15.187  -4.779   6.703 -0.34 -0.01    -0.025    43.445
ATOM      8  C   UNL d   1     -16.138  -3.917   7.261 -0.26 +0.02    +0.066    43.445
ATOM      9  C   UNL d   1     -14.265  -5.741   7.468 -0.53 +0.02    +0.051    43.445
ATOM     10  C   UNL d   1     -17.257  -3.013   9.252 -0.21 +0.01    +0.066    43.445
ATOM     11  C   UNL d   1     -17.398  -2.833  10.645 -0.21 -0.00    -0.021    43.445
ATOM     12  C   UNL d   1     -18.453  -1.933  10.820 -0.09 +0.00    +0.000    43.445
ATOM     13  C   UNL d   1     -18.868  -1.623   9.525 -0.05 +0.02    +0.070    43.445
ATOM     14  C   UNL d   1     -16.511  -3.416  11.715 -0.30 +0.01    +0.052    43.445
ATOM     15  C   UNL d   1     -20.521  -0.447   8.019 -0.05 +0.03    +0.066    43.445
ATOM     16  C   UNL d   1     -21.703   0.260   7.845 -0.06 -0.01    -0.021    43.445
ATOM     17  C   UNL d   1     -21.880   0.370   6.458 -0.07 +0.00    +0.000    43.445
ATOM     18  C   UNL d   1     -20.779  -0.267   5.894 -0.06 +0.07    +0.070    43.445
ATOM     19  C   UNL d   1     -22.584   0.783   8.957 -0.03 +0.02    +0.052    43.445
ATOM     20  C   UNL d   1     -19.504  -1.140   3.901 -0.06 +0.06    +0.066    43.445
ATOM     21  C   UNL d   1     -19.381  -1.277   2.520 -0.04 -0.02    -0.025    43.445
ATOM     22  C   UNL d   1     -18.254  -2.052   2.320 -0.03 -0.02    -0.021    43.445
ATOM     23  C   UNL d   1     -17.747  -2.363   3.600 -0.03 +0.04    +0.066    43.445
ATOM     24  C   UNL d   1     -20.304  -0.713   1.442 -0.03 +0.04    +0.051    43.445
ATOM     25  N   UNL d   1     -16.814  -3.179   6.304 -0.06 -0.09    -0.248    43.445
ATOM     26  N   UNL d   1     -18.108  -2.233   8.577 -0.04 -0.07    -0.248    43.445
ATOM     27  N   UNL d   1     -20.008  -0.767   6.852 -0.04 -0.15    -0.248    43.445
ATOM     28  N   UNL d   1     -18.502  -1.815   4.560 -0.02 -0.17    -0.248    43.445
ATOM     29 FE   UNL d   1     -18.505  -1.901   6.591 -0.03 +0.00    +0.000    43.445
ATOM     30  C   UNL d   1     -14.469  -5.327   4.270 -0.38 +0.03    +0.052    43.445
ATOM     31  C   UNL d   1     -15.131  -6.668   3.953 -0.32 +0.06    +0.115    43.445
ATOM     32  C   UNL d   1     -16.321  -6.520   3.029 -0.18 +0.10    +0.139    43.445
ATOM     33  O   UNL d   1     -16.158  -6.607   1.821 -0.42 -0.91    -0.650    43.445
ATOM     34  O   UNL d   1     -17.577  -6.340   3.500 +0.02 -0.38    -0.776    43.445
ATOM     35  H   UNL d   1     -17.788  -5.882   4.325 +0.03 +0.07    +0.167    43.445
ATOM     36  C   UNL d   1     -19.683  -3.635   6.539 -0.02 +0.08    +0.190    43.445
ATOM     37  O   UNL d   1     -20.095  -4.677   5.702 -0.56 -0.22    -0.399    43.445
ATOM     38  H   UNL d   1     -19.415  -4.703   4.971 +0.02 +0.11    +0.209    43.445
ATOM     39  C   UNL d   1     -17.735  -2.520   0.973 -0.08 +0.05    +0.052    43.445
ATOM     40  C   UNL d   1     -16.483  -1.724   0.568 -0.12 +0.13    +0.115    43.445
ATOM     41  C   UNL d   1     -16.512  -0.266   0.973 -0.05 +0.22    +0.139    43.445
ATOM     42  O   UNL d   1     -15.647   0.164   1.723 -0.14 -1.29    -0.650    43.445
ATOM     43  O   UNL d   1     -17.417   0.596   0.459 -0.39 -1.36    -0.776    43.445
ATOM     44  H   UNL d   1     -18.082   0.327  -0.188 +0.02 +0.20    +0.167    43.445
ATOM     45  C   UNL d   1     -19.101  -1.320  12.054 -0.04 +0.00    +0.004    43.445
ATOM     46  C   UNL d   1     -19.043  -0.082  12.539 -0.05 +0.00    +0.012    43.445
ATOM     47  C   UNL d   1     -23.006   0.972   5.685 -0.07 +0.00    +0.004    43.445
ATOM     48  C   UNL d   1     -23.203   2.288   5.572 -0.08 +0.01    +0.012    43.445
TER
ENDMDL
MODEL       59
USER    Run = 59
USER    Cluster Rank = 15
USER    Number of conformations in this cluster = 3
USER  
USER    RMSD from reference structure       = 42.047 A
USER  
USER    Estimated Free Energy of Binding    =   -5.70 kcal/mol  [=(1)+(2)+(3)-(4)]
USER    Estimated Inhibition Constant, Ki   =   66.22 uM (micromolar)  [Temperature = 298.15 K]
USER    
USER    (1) Final Intermolecular Energy     =   -9.28 kcal/mol
USER        vdW + Hbond + desolv Energy     =   -5.62 kcal/mol
USER        Electrostatic Energy            =   -3.66 kcal/mol
USER    (2) Final Total Internal Energy     =   -2.31 kcal/mol
USER    (3) Torsional Free Energy           =   +3.58 kcal/mol
USER    (4) Unbound System's Energy  [=(2)] =   -2.31 kcal/mol
USER    
USER    
USER  
USER    DPF = D:/Protein_go_brrr/autodock/final/AncMH_nat/heme_Co/dock.dpf
USER    NEWDPF move	heme_Co_opt.pdbqt
USER    NEWDPF about	8.781000 34.984000 -0.736000
USER    NEWDPF tran0	-18.401748 -0.875147 5.985130
USER    NEWDPF axisangle0	-0.254833 0.242287 -0.936139 144.501173
USER    NEWDPF quaternion0	-0.242703 0.230754 -0.891578 0.304855
USER    NEWDPF dihe0	144.29 112.13 -97.59 80.74 138.12 120.31 -117.40 138.37 98.58 -125.03 11.31 -21.35 
USER  
USER                              x       y       z    vdW   Elec        q     RMS 
ATOM      1  C   UNL d   1     -17.630  -1.588   4.085 -0.07 +0.05    +0.064    42.047
ATOM      2  C   UNL d   1     -15.672  -1.252   8.405 -0.21 +0.02    +0.064    42.047
ATOM      3  C   UNL d   1     -19.590   0.930  10.052 -0.11 +0.02    +0.064    42.047
ATOM      4  C   UNL d   1     -21.760   0.253   5.751 -0.01 +0.07    +0.064    42.047
ATOM      5  C   UNL d   1     -16.793  -1.624   5.135 -0.09 +0.04    +0.066    42.047
ATOM      6  C   UNL d   1     -15.539  -2.262   5.070 -0.14 -0.01    -0.021    42.047
ATOM      7  C   UNL d   1     -14.985  -2.182   6.332 -0.23 -0.01    -0.025    42.047
ATOM      8  C   UNL d   1     -15.916  -1.484   7.109 -0.12 +0.02    +0.066    42.047
ATOM      9  C   UNL d   1     -13.632  -2.736   6.805 -0.28 +0.01    +0.051    42.047
ATOM     10  C   UNL d   1     -16.558  -0.520   9.275 -0.20 +0.02    +0.066    42.047
ATOM     11  C   UNL d   1     -16.297  -0.122  10.604 -0.30 -0.00    -0.021    42.047
ATOM     12  C   UNL d   1     -17.454   0.515  11.059 -0.22 +0.00    +0.000    42.047
ATOM     13  C   UNL d   1     -18.329   0.471   9.973 -0.16 +0.02    +0.070    42.047
ATOM     14  C   UNL d   1     -14.988  -0.267  11.338 -0.42 -0.00    +0.052    42.047
ATOM     15  C   UNL d   1     -20.639   0.916   9.051 -0.09 +0.03    +0.066    42.047
ATOM     16  C   UNL d   1     -21.965   1.275   9.244 -0.05 -0.01    -0.021    42.047
ATOM     17  C   UNL d   1     -22.596   1.079   8.007 -0.05 +0.00    +0.000    42.047
ATOM     18  C   UNL d   1     -21.596   0.630   7.150 -0.04 +0.05    +0.070    42.047
ATOM     19  C   UNL d   1     -22.560   1.769  10.544 -0.02 +0.01    +0.052    42.047
ATOM     20  C   UNL d   1     -20.823  -0.267   4.923 -0.02 +0.08    +0.066    42.047
ATOM     21  C   UNL d   1     -21.110  -0.625   3.608 -0.02 -0.03    -0.025    42.047
ATOM     22  C   UNL d   1     -19.930  -1.132   3.093 -0.05 -0.02    -0.021    42.047
ATOM     23  C   UNL d   1     -18.978  -1.069   4.132 -0.08 +0.06    +0.066    42.047
ATOM     24  C   UNL d   1     -22.447  -0.509   2.881 -0.04 +0.04    +0.051    42.047
ATOM     25  N   UNL d   1     -17.043  -1.121   6.391 -0.06 -0.12    -0.248    42.047
ATOM     26  N   UNL d   1     -17.765  -0.105   8.878 -0.12 -0.08    -0.248    42.047
ATOM     27  N   UNL d   1     -20.451   0.517   7.813 -0.06 -0.15    -0.248    42.047
ATOM     28  N   UNL d   1     -19.515  -0.548   5.242 -0.07 -0.25    -0.248    42.047
ATOM     29 FE   UNL d   1     -18.849  -0.253   7.141 -0.03 +0.00    +0.000    42.047
ATOM     30  C   UNL d   1     -14.948  -2.985   3.864 -0.21 +0.03    +0.052    42.047
ATOM     31  C   UNL d   1     -14.027  -2.054   3.077 -0.22 +0.09    +0.115    42.047
ATOM     32  C   UNL d   1     -14.788  -1.171   2.111 -0.20 +0.15    +0.139    42.047
ATOM     33  O   UNL d   1     -14.827   0.035   2.302 -0.04 -0.97    -0.650    42.047
ATOM     34  O   UNL d   1     -15.392  -1.669   1.007 +0.03 -0.98    -0.776    42.047
ATOM     35  H   UNL d   1     -16.257  -1.381   0.684 +0.03 +0.20    +0.167    42.047
ATOM     36  C   UNL d   1     -19.430  -2.197   7.671 -0.04 +0.07    +0.190    42.047
ATOM     37  O   UNL d   1     -19.343  -3.534   7.270 -0.14 -0.14    -0.399    42.047
ATOM     38  H   UNL d   1     -18.822  -3.513   6.419 +0.04 +0.09    +0.209    42.047
ATOM     39  C   UNL d   1     -19.753  -1.705   1.699 -0.01 +0.04    +0.052    42.047
ATOM     40  C   UNL d   1     -19.583  -0.578   0.667 -0.02 +0.10    +0.115    42.047
ATOM     41  C   UNL d   1     -18.552   0.465   1.045 -0.09 +0.19    +0.139    42.047
ATOM     42  O   UNL d   1     -18.872   1.382   1.789 -0.41 -1.33    -0.650    42.047
ATOM     43  O   UNL d   1     -17.262   0.364   0.653 -0.45 -1.34    -0.776    42.047
ATOM     44  H   UNL d   1     -16.590  -0.078   1.188 +0.03 +0.29    +0.167    42.047
ATOM     45  C   UNL d   1     -17.826   1.174  12.381 -0.19 +0.00    +0.004    42.047
ATOM     46  C   UNL d   1     -17.422   2.322  12.920 -0.31 +0.00    +0.012    42.047
ATOM     47  C   UNL d   1     -24.032   1.240   7.632 -0.03 +0.00    +0.004    42.047
ATOM     48  C   UNL d   1     -24.466   2.135   6.742 -0.03 +0.01    +0.012    42.047
TER
ENDMDL
MODEL       34
USER    Run = 34
USER    Cluster Rank = 16
USER    Number of conformations in this cluster = 2
USER  
USER    RMSD from reference structure       = 26.263 A
USER  
USER    Estimated Free Energy of Binding    =   -5.60 kcal/mol  [=(1)+(2)+(3)-(4)]
USER    Estimated Inhibition Constant, Ki   =   78.82 uM (micromolar)  [Temperature = 298.15 K]
USER    
USER    (1) Final Intermolecular Energy     =   -9.18 kcal/mol
USER        vdW + Hbond + desolv Energy     =   -6.94 kcal/mol
USER        Electrostatic Energy            =   -2.24 kcal/mol
USER    (2) Final Total Internal Energy     =   -0.86 kcal/mol
USER    (3) Torsional Free Energy           =   +3.58 kcal/mol
USER    (4) Unbound System's Energy  [=(2)] =   -0.86 kcal/mol
USER    
USER    
USER  
USER    DPF = D:/Protein_go_brrr/autodock/final/AncMH_nat/heme_Co/dock.dpf
USER    NEWDPF move	heme_Co_opt.pdbqt
USER    NEWDPF about	8.781000 34.984000 -0.736000
USER    NEWDPF tran0	-3.807982 14.072596 15.299672
USER    NEWDPF axisangle0	-0.152984 -0.855335 0.494973 -155.387394
USER    NEWDPF quaternion0	-0.149469 -0.835681 0.483599 -0.213138
USER    NEWDPF dihe0	73.75 -62.29 66.69 -91.46 144.46 172.76 102.80 50.77 -61.80 -71.58 -2.84 157.37 
USER  
USER                              x       y       z    vdW   Elec        q     RMS 
ATOM      1  C   UNL d   1      -1.688  14.066  14.830 -0.06 -0.01    +0.064    26.263
ATOM      2  C   UNL d   1      -4.763  10.563  15.767 -0.16 -0.02    +0.064    26.263
ATOM      3  C   UNL d   1      -8.182  13.764  16.709 -0.11 -0.02    +0.064    26.263
ATOM      4  C   UNL d   1      -5.172  17.349  15.383 -0.11 +0.01    +0.064    26.263
ATOM      5  C   UNL d   1      -2.267  12.875  15.052 -0.09 -0.01    +0.066    26.263
ATOM      6  C   UNL d   1      -1.594  11.661  14.812 -0.17 +0.00    -0.021    26.263
ATOM      7  C   UNL d   1      -2.498  10.648  15.064 -0.24 +0.01    -0.025    26.263
ATOM      8  C   UNL d   1      -3.678  11.286  15.462 -0.17 -0.02    +0.066    26.263
ATOM      9  C   UNL d   1      -2.275   9.133  14.938 -0.35 -0.02    +0.051    26.263
ATOM     10  C   UNL d   1      -6.011  11.129  16.212 -0.18 -0.02    +0.066    26.263
ATOM     11  C   UNL d   1      -7.140  10.422  16.681 -0.20 +0.01    -0.021    26.263
ATOM     12  C   UNL d   1      -8.120  11.380  16.952 -0.16 -0.00    +0.000    26.263
ATOM     13  C   UNL d   1      -7.516  12.598  16.642 -0.15 -0.02    +0.070    26.263
ATOM     14  C   UNL d   1      -7.220   8.939  16.936 -0.24 -0.03    +0.052    26.263
ATOM     15  C   UNL d   1      -7.731  15.102  16.377 -0.12 -0.02    +0.066    26.263
ATOM     16  C   UNL d   1      -8.515  16.246  16.330 -0.16 +0.01    -0.021    26.263
ATOM     17  C   UNL d   1      -7.652  17.282  15.946 -0.19 -0.00    +0.000    26.263
ATOM     18  C   UNL d   1      -6.402  16.689  15.805 -0.19 -0.01    +0.070    26.263
ATOM     19  C   UNL d   1      -9.994  16.310  16.637 -0.15 -0.03    +0.052    26.263
ATOM     20  C   UNL d   1      -3.966  16.777  15.156 -0.12 +0.01    +0.066    26.263
ATOM     21  C   UNL d   1      -2.866  17.511  14.718 -0.07 -0.01    -0.025    26.263
ATOM     22  C   UNL d   1      -1.839  16.596  14.577 -0.08 -0.01    -0.021    26.263
ATOM     23  C   UNL d   1      -2.370  15.337  14.928 -0.06 +0.00    +0.066    26.263
ATOM     24  C   UNL d   1      -2.801  19.008  14.427 -0.09 +0.03    +0.051    26.263
ATOM     25  N   UNL d   1      -3.561  12.665  15.470 -0.05 +0.04    -0.248    26.263
ATOM     26  N   UNL d   1      -6.223  12.449  16.248 -0.09 +0.05    -0.248    26.263
ATOM     27  N   UNL d   1      -6.493  15.385  16.040 -0.12 +0.05    -0.248    26.263
ATOM     28  N   UNL d   1      -3.658  15.441  15.277 -0.05 -0.01    -0.248    26.263
ATOM     29 FE   UNL d   1      -5.112  14.108  15.772 -0.03 -0.00    +0.000    26.263
ATOM     30  C   UNL d   1      -0.172  11.498  14.285 -0.17 +0.00    +0.052    26.263
ATOM     31  C   UNL d   1       0.842  11.661  15.417 -0.09 +0.04    +0.115    26.263
ATOM     32  C   UNL d   1       1.632  10.395  15.671 -0.03 +0.11    +0.139    26.263
ATOM     33  O   UNL d   1       1.137   9.312  15.394 -0.40 -0.61    -0.650    26.263
ATOM     34  O   UNL d   1       2.896  10.422  16.155 +0.00 -0.44    -0.776    26.263
ATOM     35  H   UNL d   1       3.127  10.686  17.056 +0.01 +0.04    +0.167    26.263
ATOM     36  C   UNL d   1      -5.593  13.847  13.748 -0.34 -0.02    +0.190    26.263
ATOM     37  O   UNL d   1      -5.422  12.979  12.665 -0.30 +0.07    -0.399    26.263
ATOM     38  H   UNL d   1      -5.848  13.445  11.893 -0.43 -0.09    +0.209    26.263
ATOM     39  C   UNL d   1      -0.443  16.910  14.071 -0.05 +0.01    +0.052    26.263
ATOM     40  C   UNL d   1      -0.293  16.490  12.599 -0.09 +0.04    +0.115    26.263
ATOM     41  C   UNL d   1      -0.358  17.636  11.612 +0.10 +0.15    +0.139    26.263
ATOM     42  O   UNL d   1      -0.414  17.392  10.415 -0.48 -0.69    -0.650    26.263
ATOM     43  O   UNL d   1      -0.445  18.921  12.021 -0.13 -0.91    -0.776    26.263
ATOM     44  H   UNL d   1       0.302  19.394  12.411 +0.01 +0.10    +0.167    26.263
ATOM     45  C   UNL d   1      -9.544  11.287  17.483 -0.11 -0.00    +0.004    26.263
ATOM     46  C   UNL d   1     -10.711  11.322  16.845 -0.14 -0.00    +0.012    26.263
ATOM     47  C   UNL d   1      -7.950  18.720  15.671 -0.20 -0.00    +0.004    26.263
ATOM     48  C   UNL d   1      -7.355  19.731  16.310 -0.13 -0.00    +0.012    26.263
TER
ENDMDL
MODEL       31
USER    Run = 31
USER    Cluster Rank = 17
USER    Number of conformations in this cluster = 4
USER  
USER    RMSD from reference structure       = 41.458 A
USER  
USER    Estimated Free Energy of Binding    =   -5.52 kcal/mol  [=(1)+(2)+(3)-(4)]
USER    Estimated Inhibition Constant, Ki   =   90.54 uM (micromolar)  [Temperature = 298.15 K]
USER    
USER    (1) Final Intermolecular Energy     =   -9.10 kcal/mol
USER        vdW + Hbond + desolv Energy     =   -7.19 kcal/mol
USER        Electrostatic Energy            =   -1.90 kcal/mol
USER    (2) Final Total Internal Energy     =   -0.69 kcal/mol
USER    (3) Torsional Free Energy           =   +3.58 kcal/mol
USER    (4) Unbound System's Energy  [=(2)] =   -0.69 kcal/mol
USER    
USER    
USER  
USER    DPF = D:/Protein_go_brrr/autodock/final/AncMH_nat/heme_Co/dock.dpf
USER    NEWDPF move	heme_Co_opt.pdbqt
USER    NEWDPF about	8.781000 34.984000 -0.736000
USER    NEWDPF tran0	-19.851762 1.689207 9.477108
USER    NEWDPF axisangle0	-0.925273 0.325937 -0.193999 103.095202
USER    NEWDPF quaternion0	-0.724604 0.255250 -0.151925 0.621864
USER    NEWDPF dihe0	76.09 108.02 126.84 -4.23 62.29 137.36 -41.03 57.40 -97.23 128.83 -6.73 13.30 
USER  
USER                              x       y       z    vdW   Elec        q     RMS 
ATOM      1  C   UNL d   1     -21.641   2.823   9.001 -0.11 +0.03    +0.064    41.458
ATOM      2  C   UNL d   1     -19.481  -0.804   6.813 -0.10 +0.04    +0.064    41.458
ATOM      3  C   UNL d   1     -15.905  -0.632   9.977 -0.28 +0.01    +0.064    41.458
ATOM      4  C   UNL d   1     -18.280   2.816  12.454 -0.19 +0.01    +0.064    41.458
ATOM      5  C   UNL d   1     -21.296   1.843   8.150 -0.10 +0.04    +0.066    41.458
ATOM      6  C   UNL d   1     -22.141   1.433   7.100 -0.04 -0.02    -0.021    41.458
ATOM      7  C   UNL d   1     -21.520   0.366   6.483 -0.04 -0.02    -0.025    41.458
ATOM      8  C   UNL d   1     -20.316   0.180   7.171 -0.05 +0.05    +0.066    41.458
ATOM      9  C   UNL d   1     -22.027  -0.459   5.290 -0.06 +0.04    +0.051    41.458
ATOM     10  C   UNL d   1     -18.210  -1.054   7.445 -0.11 +0.03    +0.066    41.458
ATOM     11  C   UNL d   1     -17.228  -1.979   7.028 -0.13 -0.01    -0.021    41.458
ATOM     12  C   UNL d   1     -16.195  -1.905   7.966 -0.23 +0.00    +0.000    41.458
ATOM     13  C   UNL d   1     -16.615  -0.935   8.876 -0.20 +0.02    +0.070    41.458
ATOM     14  C   UNL d   1     -17.254  -2.798   5.763 -0.11 +0.02    +0.052    41.458
ATOM     15  C   UNL d   1     -16.214   0.300  11.043 -0.29 +0.01    +0.066    41.458
ATOM     16  C   UNL d   1     -15.508   0.460  12.227 -0.30 +0.00    -0.021    41.458
ATOM     17  C   UNL d   1     -16.191   1.452  12.946 -0.28 +0.00    +0.000    41.458
ATOM     18  C   UNL d   1     -17.253   1.832  12.133 -0.23 +0.00    +0.070    41.458
ATOM     19  C   UNL d   1     -14.263  -0.305  12.616 -0.36 -0.00    +0.052    41.458
ATOM     20  C   UNL d   1     -19.370   3.140  11.718 -0.13 +0.01    +0.066    41.458
ATOM     21  C   UNL d   1     -20.306   4.077  12.149 -0.16 -0.01    -0.025    41.458
ATOM     22  C   UNL d   1     -21.272   4.121  11.160 -0.10 -0.01    -0.021    41.458
ATOM     23  C   UNL d   1     -20.880   3.193  10.173 -0.13 +0.02    +0.066    41.458
ATOM     24  C   UNL d   1     -20.293   4.877  13.449 -0.12 +0.04    +0.051    41.458
ATOM     25  N   UNL d   1     -20.148   1.086   8.205 -0.10 -0.14    -0.248    41.458
ATOM     26  N   UNL d   1     -17.808  -0.382   8.529 -0.11 -0.09    -0.248    41.458
ATOM     27  N   UNL d   1     -17.254   1.104  11.022 -0.17 -0.02    -0.248    41.458
ATOM     28  N   UNL d   1     -19.731   2.595  10.508 -0.09 -0.04    -0.248    41.458
ATOM     29 FE   UNL d   1     -18.617   1.099   9.699 -0.04 +0.00    +0.000    41.458
ATOM     30  C   UNL d   1     -23.518   1.997   6.768 -0.07 +0.03    +0.052    41.458
ATOM     31  C   UNL d   1     -23.390   3.336   6.042 -0.08 +0.09    +0.115    41.458
ATOM     32  C   UNL d   1     -23.098   3.168   4.567 +0.02 +0.19    +0.139    41.458
ATOM     33  O   UNL d   1     -22.800   4.145   3.897 -0.29 -0.98    -0.650    41.458
ATOM     34  O   UNL d   1     -23.109   1.954   3.967 -0.20 -1.09    -0.776    41.458
ATOM     35  H   UNL d   1     -23.911   1.444   3.787 +0.01 +0.13    +0.167    41.458
ATOM     36  C   UNL d   1     -19.757  -0.334  10.719 -0.02 +0.04    +0.190    41.458
ATOM     37  O   UNL d   1     -21.039  -0.886  10.800 +0.01 -0.09    -0.399    41.458
ATOM     38  H   UNL d   1     -21.593  -0.342  10.173 +0.02 +0.05    +0.209    41.458
ATOM     39  C   UNL d   1     -22.533   4.964  11.199 -0.05 +0.01    +0.052    41.458
ATOM     40  C   UNL d   1     -22.508   6.031  10.092 -0.06 +0.03    +0.115    41.458
ATOM     41  C   UNL d   1     -21.306   6.951  10.139 -0.15 +0.04    +0.139    41.458
ATOM     42  O   UNL d   1     -21.326   7.994   9.500 -0.00 -0.14    -0.650    41.458
ATOM     43  O   UNL d   1     -20.245   6.694  10.936 -0.01 -0.23    -0.776    41.458
ATOM     44  H   UNL d   1     -19.334   6.750  10.622 -0.52 +0.00    +0.167    41.458
ATOM     45  C   UNL d   1     -14.857  -2.622   8.097 -0.34 +0.00    +0.004    41.458
ATOM     46  C   UNL d   1     -14.384  -3.693   7.466 -0.40 +0.00    +0.012    41.458
ATOM     47  C   UNL d   1     -15.927   1.991  14.314 -0.30 +0.00    +0.004    41.458
ATOM     48  C   UNL d   1     -14.702   2.243  14.783 -0.38 -0.00    +0.012    41.458
TER
ENDMDL
MODEL       65
USER    Run = 65
USER    Cluster Rank = 18
USER    Number of conformations in this cluster = 3
USER  
USER    RMSD from reference structure       = 18.615 A
USER  
USER    Estimated Free Energy of Binding    =   -5.45 kcal/mol  [=(1)+(2)+(3)-(4)]
USER    Estimated Inhibition Constant, Ki   =  101.87 uM (micromolar)  [Temperature = 298.15 K]
USER    
USER    (1) Final Intermolecular Energy     =   -9.03 kcal/mol
USER        vdW + Hbond + desolv Energy     =   -6.04 kcal/mol
USER        Electrostatic Energy            =   -2.99 kcal/mol
USER    (2) Final Total Internal Energy     =   -0.69 kcal/mol
USER    (3) Torsional Free Energy           =   +3.58 kcal/mol
USER    (4) Unbound System's Energy  [=(2)] =   -0.69 kcal/mol
USER    
USER    
USER  
USER    DPF = D:/Protein_go_brrr/autodock/final/AncMH_nat/heme_Co/dock.dpf
USER    NEWDPF move	heme_Co_opt.pdbqt
USER    NEWDPF about	8.781000 34.984000 -0.736000
USER    NEWDPF tran0	-5.117669 20.425605 5.866072
USER    NEWDPF axisangle0	-0.102271 0.994078 0.036749 154.919923
USER    NEWDPF quaternion0	-0.099832 0.970363 0.035872 0.217122
USER    NEWDPF dihe0	71.11 106.59 -9.50 77.10 167.66 139.76 -63.25 -54.18 11.58 -165.65 7.22 -24.88 
USER  
USER                              x       y       z    vdW   Elec        q     RMS 
ATOM      1  C   UNL d   1      -3.128  21.296   5.889 -0.03 +0.02    +0.064    18.615
ATOM      2  C   UNL d   1      -5.370  18.531   2.736 -0.21 +0.00    +0.064    18.615
ATOM      3  C   UNL d   1      -9.098  18.114   5.696 -0.19 -0.01    +0.064    18.615
ATOM      4  C   UNL d   1      -6.994  21.247   8.766 -0.11 +0.01    +0.064    18.615
ATOM      5  C   UNL d   1      -3.452  20.542   4.825 -0.06 +0.01    +0.066    18.615
ATOM      6  C   UNL d   1      -2.627  20.462   3.686 -0.09 -0.00    -0.021    18.615
ATOM      7  C   UNL d   1      -3.293  19.677   2.766 -0.13 -0.00    -0.025    18.615
ATOM      8  C   UNL d   1      -4.487  19.298   3.388 -0.13 +0.00    +0.066    18.615
ATOM      9  C   UNL d   1      -2.836  19.291   1.351 -0.16 +0.00    +0.051    18.615
ATOM     10  C   UNL d   1      -6.612  18.069   3.304 -0.16 -0.00    +0.066    18.615
ATOM     11  C   UNL d   1      -7.514  17.150   2.726 -0.28 +0.00    -0.021    18.615
ATOM     12  C   UNL d   1      -8.590  17.043   3.612 -0.30 -0.00    +0.000    18.615
ATOM     13  C   UNL d   1      -8.260  17.893   4.668 -0.13 -0.01    +0.070    18.615
ATOM     14  C   UNL d   1      -7.298  16.365   1.458 -0.44 +0.01    +0.052    18.615
ATOM     15  C   UNL d   1      -8.941  18.993   6.838 -0.11 -0.02    +0.066    18.615
ATOM     16  C   UNL d   1      -9.907  19.285   7.791 -0.18 +0.01    -0.021    18.615
ATOM     17  C   UNL d   1      -9.306  20.191   8.677 -0.19 -0.00    +0.000    18.615
ATOM     18  C   UNL d   1      -8.010  20.367   8.202 -0.15 -0.01    +0.070    18.615
ATOM     19  C   UNL d   1     -11.308  18.717   7.821 -0.18 -0.03    +0.052    18.615
ATOM     20  C   UNL d   1      -5.758  21.501   8.273 -0.08 +0.02    +0.066    18.615
ATOM     21  C   UNL d   1      -4.883  22.396   8.885 -0.06 -0.01    -0.025    18.615
ATOM     22  C   UNL d   1      -3.749  22.409   8.093 -0.03 -0.01    -0.021    18.615
ATOM     23  C   UNL d   1      -3.995  21.523   7.023 -0.04 +0.02    +0.066    18.615
ATOM     24  C   UNL d   1      -5.122  23.215  10.150 -0.05 +0.01    +0.051    18.615
ATOM     25  N   UNL d   1      -4.609  19.814   4.667 -0.05 -0.03    -0.248    18.615
ATOM     26  N   UNL d   1      -7.038  18.469   4.507 -0.06 +0.02    -0.248    18.615
ATOM     27  N   UNL d   1      -7.838  19.663   7.089 -0.11 +0.02    -0.248    18.615
ATOM     28  N   UNL d   1      -5.211  20.973   7.126 -0.04 -0.07    -0.248    18.615
ATOM     29 FE   UNL d   1      -6.317  19.736   5.952 -0.03 +0.00    +0.000    18.615
ATOM     30  C   UNL d   1      -1.299  21.181   3.474 -0.10 +0.01    +0.052    18.615
ATOM     31  C   UNL d   1      -0.135  20.309   3.942 -0.05 +0.05    +0.115    18.615
ATOM     32  C   UNL d   1       1.177  21.063   3.970 -0.13 +0.09    +0.139    18.615
ATOM     33  O   UNL d   1       2.140  20.573   4.541 -0.42 -0.88    -0.650    18.615
ATOM     34  O   UNL d   1       1.337  22.250   3.339 +0.00 -0.35    -0.776    18.615
ATOM     35  H   UNL d   1       0.888  23.067   3.596 +0.02 +0.05    +0.167    18.615
ATOM     36  C   UNL d   1      -7.059  21.378   4.880 -0.01 +0.01    +0.190    18.615
ATOM     37  O   UNL d   1      -6.685  22.382   3.982 +0.00 -0.03    -0.399    18.615
ATOM     38  H   UNL d   1      -5.694  22.298   3.901 +0.01 +0.02    +0.209    18.615
ATOM     39  C   UNL d   1      -2.526  23.276   8.323 -0.01 +0.01    +0.052    18.615
ATOM     40  C   UNL d   1      -1.666  22.711   9.466 -0.02 +0.05    +0.115    18.615
ATOM     41  C   UNL d   1      -2.097  21.344   9.954 +0.02 +0.15    +0.139    18.615
ATOM     42  O   UNL d   1      -1.707  20.347   9.362 +0.09 -0.90    -0.650    18.615
ATOM     43  O   UNL d   1      -2.830  21.189  11.079 -0.25 -1.37    -0.776    18.615
ATOM     44  H   UNL d   1      -3.076  21.932  11.645 +0.01 +0.15    +0.167    18.615
ATOM     45  C   UNL d   1      -9.876  16.227   3.591 -0.43 -0.00    +0.004    18.615
ATOM     46  C   UNL d   1     -10.071  14.916   3.703 -0.62 -0.00    +0.012    18.615
ATOM     47  C   UNL d   1      -9.885  20.897   9.858 -0.18 -0.00    +0.004    18.615
ATOM     48  C   UNL d   1      -9.187  21.189  10.958 -0.19 -0.01    +0.012    18.615
TER
ENDMDL
MODEL       62
USER    Run = 62
USER    Cluster Rank = 19
USER    Number of conformations in this cluster = 3
USER  
USER    RMSD from reference structure       = 34.928 A
USER  
USER    Estimated Free Energy of Binding    =   -5.41 kcal/mol  [=(1)+(2)+(3)-(4)]
USER    Estimated Inhibition Constant, Ki   =  107.67 uM (micromolar)  [Temperature = 298.15 K]
USER    
USER    (1) Final Intermolecular Energy     =   -8.99 kcal/mol
USER        vdW + Hbond + desolv Energy     =   -5.81 kcal/mol
USER        Electrostatic Energy            =   -3.18 kcal/mol
USER    (2) Final Total Internal Energy     =   -1.66 kcal/mol
USER    (3) Torsional Free Energy           =   +3.58 kcal/mol
USER    (4) Unbound System's Energy  [=(2)] =   -1.66 kcal/mol
USER    
USER    
USER  
USER    DPF = D:/Protein_go_brrr/autodock/final/AncMH_nat/heme_Co/dock.dpf
USER    NEWDPF move	heme_Co_opt.pdbqt
USER    NEWDPF about	8.781000 34.984000 -0.736000
USER    NEWDPF tran0	-19.383592 10.194815 6.757071
USER    NEWDPF axisangle0	0.614488 0.308654 -0.726043 100.207166
USER    NEWDPF quaternion0	0.471438 0.236801 -0.557024 0.641402
USER    NEWDPF dihe0	39.33 112.32 -47.27 116.59 -91.98 163.07 -169.67 -159.85 -30.81 7.93 -160.52 160.11 
USER  
USER                              x       y       z    vdW   Elec        q     RMS 
ATOM      1  C   UNL d   1     -19.441   8.058   6.375 -0.14 +0.02    +0.064    34.928
ATOM      2  C   UNL d   1     -20.894  10.685  10.063 -0.12 +0.01    +0.064    34.928
ATOM      3  C   UNL d   1     -19.050  14.604   8.046 -0.09 -0.00    +0.064    34.928
ATOM      4  C   UNL d   1     -17.898  12.012   4.094 -0.22 -0.01    +0.064    34.928
ATOM      5  C   UNL d   1     -19.942   8.482   7.548 -0.24 +0.02    +0.066    34.928
ATOM      6  C   UNL d   1     -20.643   7.622   8.415 -0.23 -0.01    -0.021    34.928
ATOM      7  C   UNL d   1     -21.082   8.394   9.473 -0.16 -0.01    -0.025    34.928
ATOM      8  C   UNL d   1     -20.616   9.688   9.213 -0.15 +0.01    +0.066    34.928
ATOM      9  C   UNL d   1     -21.910   7.947  10.687 -0.10 +0.01    +0.051    34.928
ATOM     10  C   UNL d   1     -20.436  12.041   9.893 -0.09 +0.01    +0.066    34.928
ATOM     11  C   UNL d   1     -20.574  13.100  10.816 -0.04 -0.00    -0.021    34.928
ATOM     12  C   UNL d   1     -20.024  14.230  10.204 -0.05 -0.00    +0.000    34.928
ATOM     13  C   UNL d   1     -19.581  13.775   8.962 -0.09 -0.00    +0.070    34.928
ATOM     14  C   UNL d   1     -21.111  12.995  12.221 -0.02 +0.01    +0.052    34.928
ATOM     15  C   UNL d   1     -18.591  14.316   6.701 -0.10 -0.01    +0.066    34.928
ATOM     16  C   UNL d   1     -18.187  15.244   5.752 -0.09 +0.00    -0.021    34.928
ATOM     17  C   UNL d   1     -17.856  14.502   4.610 -0.16 -0.00    +0.000    34.928
ATOM     18  C   UNL d   1     -18.069  13.172   4.959 -0.18 -0.01    +0.070    34.928
ATOM     19  C   UNL d   1     -18.134  16.742   5.958 -0.03 -0.01    +0.052    34.928
ATOM     20  C   UNL d   1     -18.181  10.719   4.383 -0.24 +0.00    +0.066    34.928
ATOM     21  C   UNL d   1     -18.008   9.695   3.455 -0.25 -0.00    -0.025    34.928
ATOM     22  C   UNL d   1     -18.417   8.539   4.094 -0.29 -0.01    -0.021    34.928
ATOM     23  C   UNL d   1     -18.835   8.920   5.387 -0.29 +0.02    +0.066    34.928
ATOM     24  C   UNL d   1     -17.497   9.813   2.021 -0.26 -0.00    +0.051    34.928
ATOM     25  N   UNL d   1     -19.901   9.770   8.031 -0.15 -0.05    -0.248    34.928
ATOM     26  N   UNL d   1     -19.780  12.440   8.798 -0.09 -0.02    -0.248    34.928
ATOM     27  N   UNL d   1     -18.535  13.102   6.201 -0.07 +0.01    -0.248    34.928
ATOM     28  N   UNL d   1     -18.695  10.240   5.565 -0.17 -0.04    -0.248    34.928
ATOM     29 FE   UNL d   1     -19.176  11.532   7.059 -0.05 +0.00    +0.000    34.928
ATOM     30  C   UNL d   1     -20.942   6.144   8.186 -0.19 +0.02    +0.052    34.928
ATOM     31  C   UNL d   1     -22.077   5.976   7.176 -0.14 +0.05    +0.115    34.928
ATOM     32  C   UNL d   1     -21.920   4.728   6.334 +0.02 +0.13    +0.139    34.928
ATOM     33  O   UNL d   1     -21.903   3.634   6.878 +0.05 -0.62    -0.650    34.928
ATOM     34  O   UNL d   1     -21.844   4.778   4.984 -0.18 -1.20    -0.776    34.928
ATOM     35  H   UNL d   1     -21.413   5.488   4.489 +0.01 +0.22    +0.167    34.928
ATOM     36  C   UNL d   1     -21.107  11.758   6.273 -0.03 +0.02    +0.190    34.928
ATOM     37  O   UNL d   1     -22.407  11.249   6.351 +0.00 -0.04    -0.399    34.928
ATOM     38  H   UNL d   1     -22.355  10.512   7.022 +0.02 +0.03    +0.209    34.928
ATOM     39  C   UNL d   1     -18.465   7.157   3.469 -0.29 +0.03    +0.052    34.928
ATOM     40  C   UNL d   1     -19.890   6.823   2.999 -0.16 +0.08    +0.115    34.928
ATOM     41  C   UNL d   1     -20.045   5.436   2.410 -0.12 +0.18    +0.139    34.928
ATOM     42  O   UNL d   1     -19.058   4.856   1.978 -0.07 -0.96    -0.650    34.928
ATOM     43  O   UNL d   1     -21.228   4.785   2.429 -0.36 -1.36    -0.776    34.928
ATOM     44  H   UNL d   1     -21.818   4.800   3.194 +0.01 +0.31    +0.167    34.928
ATOM     45  C   UNL d   1     -19.850  15.674  10.655 -0.02 -0.00    +0.004    34.928
ATOM     46  C   UNL d   1     -18.757  16.346  11.006 -0.02 -0.00    +0.012    34.928
ATOM     47  C   UNL d   1     -17.419  14.971   3.261 -0.10 -0.00    +0.004    34.928
ATOM     48  C   UNL d   1     -18.151  14.815   2.154 -0.11 -0.01    +0.012    34.928
TER
ENDMDL
MODEL       29
USER    Run = 29
USER    Cluster Rank = 20
USER    Number of conformations in this cluster = 2
USER  
USER    RMSD from reference structure       = 38.214 A
USER  
USER    Estimated Free Energy of Binding    =   -5.34 kcal/mol  [=(1)+(2)+(3)-(4)]
USER    Estimated Inhibition Constant, Ki   =  121.28 uM (micromolar)  [Temperature = 298.15 K]
USER    
USER    (1) Final Intermolecular Energy     =   -8.92 kcal/mol
USER        vdW + Hbond + desolv Energy     =   -4.84 kcal/mol
USER        Electrostatic Energy            =   -4.08 kcal/mol
USER    (2) Final Total Internal Energy     =   -2.41 kcal/mol
USER    (3) Torsional Free Energy           =   +3.58 kcal/mol
USER    (4) Unbound System's Energy  [=(2)] =   -2.41 kcal/mol
USER    
USER    
USER  
USER    DPF = D:/Protein_go_brrr/autodock/final/AncMH_nat/heme_Co/dock.dpf
USER    NEWDPF move	heme_Co_opt.pdbqt
USER    NEWDPF about	8.781000 34.984000 -0.736000
USER    NEWDPF tran0	-21.099382 5.856068 2.886154
USER    NEWDPF axisangle0	-0.787434 -0.496562 0.365203 -84.865447
USER    NEWDPF quaternion0	-0.531301 -0.335043 0.246411 -0.738070
USER    NEWDPF dihe0	-156.64 112.45 43.34 116.16 -65.19 154.37 89.88 81.44 100.10 -131.08 2.78 -29.65 
USER  
USER                              x       y       z    vdW   Elec        q     RMS 
ATOM      1  C   UNL d   1     -21.726   4.094   1.783 +0.06 +0.09    +0.064    38.214
ATOM      2  C   UNL d   1     -23.707   6.477   5.389 -0.04 +0.02    +0.064    38.214
ATOM      3  C   UNL d   1     -19.871   9.311   5.673 -0.16 +0.02    +0.064    38.214
ATOM      4  C   UNL d   1     -17.994   7.143   1.743 -0.19 +0.03    +0.064    38.214
ATOM      5  C   UNL d   1     -22.533   4.513   2.771 +0.12 +0.09    +0.066    38.214
ATOM      6  C   UNL d   1     -23.815   3.966   2.972 -0.05 -0.02    -0.021    38.214
ATOM      7  C   UNL d   1     -24.395   4.676   4.005 -0.03 -0.01    -0.025    38.214
ATOM      8  C   UNL d   1     -23.436   5.616   4.400 -0.06 +0.04    +0.066    38.214
ATOM      9  C   UNL d   1     -25.796   4.491   4.607 -0.00 +0.02    +0.051    38.214
ATOM     10  C   UNL d   1     -22.774   7.460   5.881 -0.04 +0.02    +0.066    38.214
ATOM     11  C   UNL d   1     -22.946   8.297   7.005 -0.03 -0.00    -0.021    38.214
ATOM     12  C   UNL d   1     -21.811   9.110   7.067 -0.07 +0.00    +0.000    38.214
ATOM     13  C   UNL d   1     -21.028   8.702   5.987 -0.10 +0.02    +0.070    38.214
ATOM     14  C   UNL d   1     -24.081   8.240   7.995 -0.02 +0.01    +0.052    38.214
ATOM     15  C   UNL d   1     -18.967   9.056   4.568 -0.20 +0.02    +0.066    38.214
ATOM     16  C   UNL d   1     -17.862   9.817   4.216 -0.32 -0.00    -0.021    38.214
ATOM     17  C   UNL d   1     -17.319   9.197   3.082 -0.32 +0.00    +0.000    38.214
ATOM     18  C   UNL d   1     -18.129   8.092   2.841 -0.22 +0.03    +0.070    38.214
ATOM     19  C   UNL d   1     -17.383  11.056   4.940 -0.33 +0.00    +0.052    38.214
ATOM     20  C   UNL d   1     -18.819   6.113   1.439 -0.16 +0.05    +0.066    38.214
ATOM     21  C   UNL d   1     -18.605   5.290   0.335 -0.14 -0.02    -0.025    38.214
ATOM     22  C   UNL d   1     -19.650   4.383   0.338 -0.10 -0.02    -0.021    38.214
ATOM     23  C   UNL d   1     -20.462   4.708   1.445 -0.05 +0.09    +0.066    38.214
ATOM     24  C   UNL d   1     -17.473   5.375  -0.685 -0.13 +0.05    +0.051    38.214
ATOM     25  N   UNL d   1     -22.271   5.534   3.657 -0.08 -0.26    -0.248    38.214
ATOM     26  N   UNL d   1     -21.586   7.667   5.305 -0.06 -0.10    -0.248    38.214
ATOM     27  N   UNL d   1     -19.118   8.057   3.727 -0.11 -0.10    -0.248    38.214
ATOM     28  N   UNL d   1     -19.964   5.755   2.113 -0.10 -0.26    -0.248    38.214
ATOM     29 FE   UNL d   1     -20.599   6.868   3.692 -0.03 +0.00    +0.000    38.214
ATOM     30  C   UNL d   1     -24.473   2.864   2.147 -0.02 +0.03    +0.052    38.214
ATOM     31  C   UNL d   1     -24.089   1.487   2.687 -0.03 +0.08    +0.115    38.214
ATOM     32  C   UNL d   1     -22.735   1.029   2.189 -0.03 +0.15    +0.139    38.214
ATOM     33  O   UNL d   1     -22.415   1.250   1.031 -0.00 -0.54    -0.650    38.214
ATOM     34  O   UNL d   1     -21.840   0.420   3.001 -0.41 -1.24    -0.776    38.214
ATOM     35  H   UNL d   1     -20.894   0.353   2.813 +0.00 +0.31    +0.167    38.214
ATOM     36  C   UNL d   1     -21.703   8.104   2.407 -0.02 +0.06    +0.190    38.214
ATOM     37  O   UNL d   1     -22.924   8.203   1.734 +0.00 -0.09    -0.399    38.214
ATOM     38  H   UNL d   1     -23.414   7.365   1.966 +0.01 +0.06    +0.209    38.214
ATOM     39  C   UNL d   1     -19.884   3.308  -0.707 -0.04 +0.04    +0.052    38.214
ATOM     40  C   UNL d   1     -18.843   2.184  -0.572 -0.07 +0.13    +0.115    38.214
ATOM     41  C   UNL d   1     -18.571   1.753   0.854 -0.10 +0.23    +0.139    38.214
ATOM     42  O   UNL d   1     -17.424   1.493   1.191 +0.00 -1.52    -0.650    38.214
ATOM     43  O   UNL d   1     -19.547   1.732   1.788 -0.04 -1.87    -0.776    38.214
ATOM     44  H   UNL d   1     -20.401   1.307   1.637 +0.01 +0.31    +0.167    38.214
ATOM     45  C   UNL d   1     -21.370  10.207   8.028 -0.10 +0.00    +0.004    38.214
ATOM     46  C   UNL d   1     -20.421  10.211   8.960 -0.19 +0.00    +0.012    38.214
ATOM     47  C   UNL d   1     -16.161   9.608   2.232 -0.43 -0.00    +0.004    38.214
ATOM     48  C   UNL d   1     -16.266  10.451   1.202 -0.41 -0.00    +0.012    38.214
TER
ENDMDL
MODEL       16
USER    Run = 16
USER    Cluster Rank = 21
USER    Number of conformations in this cluster = 1
USER  
USER    RMSD from reference structure       = 42.967 A
USER  
USER    Estimated Free Energy of Binding    =   -5.13 kcal/mol  [=(1)+(2)+(3)-(4)]
USER    Estimated Inhibition Constant, Ki   =  173.17 uM (micromolar)  [Temperature = 298.15 K]
USER    
USER    (1) Final Intermolecular Energy     =   -8.71 kcal/mol
USER        vdW + Hbond + desolv Energy     =   -7.46 kcal/mol
USER        Electrostatic Energy            =   -1.25 kcal/mol
USER    (2) Final Total Internal Energy     =   -0.78 kcal/mol
USER    (3) Torsional Free Energy           =   +3.58 kcal/mol
USER    (4) Unbound System's Energy  [=(2)] =   -0.78 kcal/mol
USER    
USER    
USER  
USER    DPF = D:/Protein_go_brrr/autodock/final/AncMH_nat/heme_Co/dock.dpf
USER    NEWDPF move	heme_Co_opt.pdbqt
USER    NEWDPF about	8.781000 34.984000 -0.736000
USER    NEWDPF tran0	-16.888568 -1.855660 7.702400
USER    NEWDPF axisangle0	0.078471 -0.026562 0.996562 174.306472
USER    NEWDPF quaternion0	0.078374 -0.026530 0.995333 0.049665
USER    NEWDPF dihe0	-95.25 -50.92 119.27 105.94 -89.04 171.83 101.16 160.64 -32.40 -43.16 -5.87 -170.13 
USER  
USER                              x       y       z    vdW   Elec        q     RMS 
ATOM      1  C   UNL d   1     -15.074  -2.114   6.537 -0.21 +0.02    +0.064    42.967
ATOM      2  C   UNL d   1     -15.971   0.231  10.575 -0.38 +0.01    +0.064    42.967
ATOM      3  C   UNL d   1     -20.623  -0.782  10.175 -0.01 +0.02    +0.064    42.967
ATOM      4  C   UNL d   1     -19.679  -3.508   6.258 -0.05 +0.03    +0.064    42.967
ATOM      5  C   UNL d   1     -14.983  -1.368   7.650 -0.10 +0.02    +0.066    42.967
ATOM      6  C   UNL d   1     -13.744  -0.925   8.154 -0.36 -0.00    -0.021    42.967
ATOM      7  C   UNL d   1     -14.008  -0.265   9.337 -0.38 -0.00    -0.025    42.967
ATOM      8  C   UNL d   1     -15.397  -0.318   9.498 -0.24 +0.01    +0.066    42.967
ATOM      9  C   UNL d   1     -13.002   0.396  10.293 -0.38 +0.00    +0.051    42.967
ATOM     10  C   UNL d   1     -17.393   0.248  10.812 -0.19 +0.01    +0.066    42.967
ATOM     11  C   UNL d   1     -18.068   0.929  11.849 -0.14 -0.00    -0.021    42.967
ATOM     12  C   UNL d   1     -19.423   0.619  11.706 -0.07 +0.00    +0.000    42.967
ATOM     13  C   UNL d   1     -19.477  -0.214  10.588 -0.04 +0.02    +0.070    42.967
ATOM     14  C   UNL d   1     -17.450   1.883  12.839 -0.25 +0.01    +0.052    42.967
ATOM     15  C   UNL d   1     -20.850  -1.704   9.080 -0.01 +0.02    +0.066    42.967
ATOM     16  C   UNL d   1     -22.035  -2.368   8.795 -0.01 -0.01    -0.021    42.967
ATOM     17  C   UNL d   1     -21.767  -3.158   7.667 -0.02 +0.00    +0.000    42.967
ATOM     18  C   UNL d   1     -20.440  -2.899   7.342 -0.04 +0.02    +0.070    42.967
ATOM     19  C   UNL d   1     -23.324  -2.235   9.574 +0.00 +0.01    +0.052    42.967
ATOM     20  C   UNL d   1     -18.365  -3.337   5.975 -0.08 +0.03    +0.066    42.967
ATOM     21  C   UNL d   1     -17.737  -4.007   4.927 -0.09 -0.01    -0.025    42.967
ATOM     22  C   UNL d   1     -16.415  -3.602   4.965 -0.12 -0.01    -0.021    42.967
ATOM     23  C   UNL d   1     -16.299  -2.708   6.051 -0.12 +0.03    +0.066    42.967
ATOM     24  C   UNL d   1     -18.361  -4.999   3.949 -0.07 +0.02    +0.051    42.967
ATOM     25  N   UNL d   1     -16.027  -0.991   8.464 -0.15 -0.07    -0.248    42.967
ATOM     26  N   UNL d   1     -18.256  -0.392  10.016 -0.04 -0.06    -0.248    42.967
ATOM     27  N   UNL d   1     -19.917  -2.052   8.222 -0.01 -0.08    -0.248    42.967
ATOM     28  N   UNL d   1     -17.476  -2.547   6.666 -0.05 -0.09    -0.248    42.967
ATOM     29 FE   UNL d   1     -18.087  -1.554   8.333 -0.03 +0.00    +0.000    42.967
ATOM     30  C   UNL d   1     -12.368  -1.203   7.557 -0.25 +0.01    +0.052    42.967
ATOM     31  C   UNL d   1     -12.107  -0.286   6.362 -0.40 +0.02    +0.115    42.967
ATOM     32  C   UNL d   1     -10.651   0.112   6.248 -0.42 +0.03    +0.139    42.967
ATOM     33  O   UNL d   1      -9.963   0.170   7.256 -0.03 -0.10    -0.650    42.967
ATOM     34  O   UNL d   1     -10.067   0.363   5.053 -0.22 -0.25    -0.776    42.967
ATOM     35  H   UNL d   1      -9.516  -0.271   4.573 +0.08 +0.05    +0.167    42.967
ATOM     36  C   UNL d   1     -17.594  -3.206   9.525 -0.16 +0.04    +0.190    42.967
ATOM     37  O   UNL d   1     -16.612  -3.705  10.388 -0.55 -0.09    -0.399    42.967
ATOM     38  H   UNL d   1     -16.806  -4.681  10.461 -0.47 +0.04    +0.209    42.967
ATOM     39  C   UNL d   1     -15.316  -4.101   4.047 -0.22 +0.03    +0.052    42.967
ATOM     40  C   UNL d   1     -14.992  -5.576   4.339 -0.30 +0.06    +0.115    42.967
ATOM     41  C   UNL d   1     -14.942  -6.460   3.111 -0.22 +0.11    +0.139    42.967
ATOM     42  O   UNL d   1     -15.945  -6.586   2.423 -0.49 -0.69    -0.650    42.967
ATOM     43  O   UNL d   1     -13.793  -7.045   2.704 +0.02 -0.51    -0.776    42.967
ATOM     44  H   UNL d   1     -13.719  -7.997   2.557 -0.03 +0.07    +0.167    42.967
ATOM     45  C   UNL d   1     -20.669   1.028  12.480 -0.03 +0.00    +0.004    42.967
ATOM     46  C   UNL d   1     -21.567   1.978  12.236 -0.03 +0.00    +0.012    42.967
ATOM     47  C   UNL d   1     -22.646  -4.131   6.953 -0.04 +0.00    +0.004    42.967
ATOM     48  C   UNL d   1     -22.448  -5.451   6.967 -0.08 +0.00    +0.012    42.967
TER
ENDMDL
MODEL       97
USER    Run = 97
USER    Cluster Rank = 22
USER    Number of conformations in this cluster = 3
USER  
USER    RMSD from reference structure       = 42.881 A
USER  
USER    Estimated Free Energy of Binding    =   -5.09 kcal/mol  [=(1)+(2)+(3)-(4)]
USER    Estimated Inhibition Constant, Ki   =  187.17 uM (micromolar)  [Temperature = 298.15 K]
USER    
USER    (1) Final Intermolecular Energy     =   -8.67 kcal/mol
USER        vdW + Hbond + desolv Energy     =   -5.62 kcal/mol
USER        Electrostatic Energy            =   -3.05 kcal/mol
USER    (2) Final Total Internal Energy     =   -2.67 kcal/mol
USER    (3) Torsional Free Energy           =   +3.58 kcal/mol
USER    (4) Unbound System's Energy  [=(2)] =   -2.67 kcal/mol
USER    
USER    
USER  
USER    DPF = D:/Protein_go_brrr/autodock/final/AncMH_nat/heme_Co/dock.dpf
USER    NEWDPF move	heme_Co_opt.pdbqt
USER    NEWDPF about	8.781000 34.984000 -0.736000
USER    NEWDPF tran0	-17.188013 -2.834510 6.013189
USER    NEWDPF axisangle0	-0.328787 -0.944320 0.012637 -87.638388
USER    NEWDPF quaternion0	-0.227647 -0.653833 0.008750 -0.721528
USER    NEWDPF dihe0	125.34 121.93 112.64 119.65 -154.43 85.26 175.37 -54.29 -71.51 105.42 -179.52 -169.49 
USER  
USER                              x       y       z    vdW   Elec        q     RMS 
ATOM      1  C   UNL d   1     -16.521  -3.257   3.990 -0.08 +0.04    +0.064    42.881
ATOM      2  C   UNL d   1     -20.635  -4.066   6.232 -0.06 +0.02    +0.064    42.881
ATOM      3  C   UNL d   1     -18.769  -2.449  10.322 -0.08 +0.02    +0.064    42.881
ATOM      4  C   UNL d   1     -14.682  -1.255   7.969 -0.15 +0.01    +0.064    42.881
ATOM      5  C   UNL d   1     -17.771  -3.631   4.311 -0.06 +0.03    +0.066    42.881
ATOM      6  C   UNL d   1     -18.681  -4.102   3.344 -0.05 -0.01    -0.021    42.881
ATOM      7  C   UNL d   1     -19.880  -4.313   3.996 -0.05 -0.01    -0.025    42.881
ATOM      8  C   UNL d   1     -19.646  -3.978   5.334 -0.03 +0.03    +0.066    42.881
ATOM      9  C   UNL d   1     -21.204  -4.811   3.396 -0.04 +0.02    +0.051    42.881
ATOM     10  C   UNL d   1     -20.482  -3.768   7.634 -0.08 +0.02    +0.066    42.881
ATOM     11  C   UNL d   1     -21.441  -3.974   8.650 -0.07 -0.01    -0.021    42.881
ATOM     12  C   UNL d   1     -20.868  -3.498   9.833 -0.06 +0.00    +0.000    42.881
ATOM     13  C   UNL d   1     -19.603  -3.050   9.455 -0.08 +0.02    +0.070    42.881
ATOM     14  C   UNL d   1     -22.769  -4.669   8.496 -0.04 +0.01    +0.052    42.881
ATOM     15  C   UNL d   1     -17.454  -1.882  10.092 -0.14 +0.01    +0.066    42.881
ATOM     16  C   UNL d   1     -16.705  -1.146  10.999 -0.19 -0.00    -0.021    42.881
ATOM     17  C   UNL d   1     -15.527  -0.797  10.324 -0.28 +0.00    +0.000    42.881
ATOM     18  C   UNL d   1     -15.643  -1.365   9.060 -0.19 +0.01    +0.070    42.881
ATOM     19  C   UNL d   1     -17.121  -0.814  12.414 -0.14 +0.01    +0.052    42.881
ATOM     20  C   UNL d   1     -14.812  -1.724   6.705 -0.21 +0.02    +0.066    42.881
ATOM     21  C   UNL d   1     -13.833  -1.525   5.734 -0.28 -0.01    -0.025    42.881
ATOM     22  C   UNL d   1     -14.323  -2.117   4.584 -0.23 -0.01    -0.021    42.881
ATOM     23  C   UNL d   1     -15.592  -2.641   4.910 -0.12 +0.03    +0.066    42.881
ATOM     24  C   UNL d   1     -12.505  -0.789   5.887 -0.39 +0.01    +0.051    42.881
ATOM     25  N   UNL d   1     -18.346  -3.558   5.559 -0.05 -0.11    -0.248    42.881
ATOM     26  N   UNL d   1     -19.349  -3.265   8.136 -0.07 -0.07    -0.248    42.881
ATOM     27  N   UNL d   1     -16.816  -1.977   8.947 -0.10 -0.05    -0.248    42.881
ATOM     28  N   UNL d   1     -15.892  -2.404   6.193 -0.08 -0.09    -0.248    42.881
ATOM     29 FE   UNL d   1     -17.533  -2.720   7.352 -0.03 +0.00    +0.000    42.881
ATOM     30  C   UNL d   1     -18.420  -4.258   1.850 -0.07 +0.04    +0.052    42.881
ATOM     31  C   UNL d   1     -18.906  -3.025   1.088 -0.03 +0.08    +0.115    42.881
ATOM     32  C   UNL d   1     -17.763  -2.157   0.607 -0.06 +0.13    +0.139    42.881
ATOM     33  O   UNL d   1     -16.799  -2.678   0.066 +0.02 -0.81    -0.650    42.881
ATOM     34  O   UNL d   1     -17.793  -0.808   0.713 +0.04 -0.83    -0.776    42.881
ATOM     35  H   UNL d   1     -17.139  -0.286   1.198 +0.03 +0.23    +0.167    42.881
ATOM     36  C   UNL d   1     -18.350  -0.891   6.734 -0.11 +0.11    +0.190    42.881
ATOM     37  O   UNL d   1     -18.220   0.121   5.778 -0.09 -0.38    -0.399    42.881
ATOM     38  H   UNL d   1     -17.557  -0.231   5.121 +0.05 +0.18    +0.209    42.881
ATOM     39  C   UNL d   1     -13.634  -2.116   3.232 -0.24 +0.04    +0.052    42.881
ATOM     40  C   UNL d   1     -13.601  -0.698   2.640 -0.26 +0.10    +0.115    42.881
ATOM     41  C   UNL d   1     -14.893  -0.266   1.981 -0.18 +0.20    +0.139    42.881
ATOM     42  O   UNL d   1     -15.791   0.197   2.670 -0.08 -0.97    -0.650    42.881
ATOM     43  O   UNL d   1     -15.051  -0.297   0.639 -0.21 -1.35    -0.776    42.881
ATOM     44  H   UNL d   1     -15.726  -0.837   0.207 +0.03 +0.23    +0.167    42.881
ATOM     45  C   UNL d   1     -21.362  -3.432  11.272 -0.04 +0.00    +0.004    42.881
ATOM     46  C   UNL d   1     -20.961  -4.091  12.356 -0.06 +0.00    +0.012    42.881
ATOM     47  C   UNL d   1     -14.380   0.045  10.779 -0.40 -0.00    +0.004    42.881
ATOM     48  C   UNL d   1     -13.345   0.366   9.999 -0.53 +0.00    +0.012    42.881
TER
ENDMDL
MODEL       66
USER    Run = 66
USER    Cluster Rank = 23
USER    Number of conformations in this cluster = 1
USER  
USER    RMSD from reference structure       = 24.779 A
USER  
USER    Estimated Free Energy of Binding    =   -4.90 kcal/mol  [=(1)+(2)+(3)-(4)]
USER    Estimated Inhibition Constant, Ki   =  254.22 uM (micromolar)  [Temperature = 298.15 K]
USER    
USER    (1) Final Intermolecular Energy     =   -8.48 kcal/mol
USER        vdW + Hbond + desolv Energy     =   -6.62 kcal/mol
USER        Electrostatic Energy            =   -1.86 kcal/mol
USER    (2) Final Total Internal Energy     =   -0.66 kcal/mol
USER    (3) Torsional Free Energy           =   +3.58 kcal/mol
USER    (4) Unbound System's Energy  [=(2)] =   -0.66 kcal/mol
USER    
USER    
USER  
USER    DPF = D:/Protein_go_brrr/autodock/final/AncMH_nat/heme_Co/dock.dpf
USER    NEWDPF move	heme_Co_opt.pdbqt
USER    NEWDPF about	8.781000 34.984000 -0.736000
USER    NEWDPF tran0	-2.891688 15.327757 14.903920
USER    NEWDPF axisangle0	-0.200633 0.310707 0.929090 97.082761
USER    NEWDPF quaternion0	-0.150361 0.232854 0.696292 0.662079
USER    NEWDPF dihe0	-73.05 113.31 111.11 121.80 115.60 145.55 -78.73 -27.84 71.81 174.43 50.72 0.80 
USER  
USER                              x       y       z    vdW   Elec        q     RMS 
ATOM      1  C   UNL d   1      -1.875  17.134  14.254 -0.06 +0.03    +0.064    24.779
ATOM      2  C   UNL d   1      -6.174  16.392  16.148 -0.17 -0.01    +0.064    24.779
ATOM      3  C   UNL d   1      -5.468  11.669  15.994 -0.17 -0.01    +0.064    24.779
ATOM      4  C   UNL d   1      -0.925  12.412  14.419 -0.14 -0.02    +0.064    24.779
ATOM      5  C   UNL d   1      -3.116  17.276  14.749 -0.05 +0.03    +0.066    24.779
ATOM      6  C   UNL d   1      -3.672  18.543  15.017 -0.11 -0.01    -0.021    24.779
ATOM      7  C   UNL d   1      -4.911  18.321  15.587 -0.12 -0.00    -0.025    24.779
ATOM      8  C   UNL d   1      -5.063  16.931  15.628 -0.13 +0.00    +0.066    24.779
ATOM      9  C   UNL d   1      -5.922  19.367  16.080 -0.12 -0.00    +0.051    24.779
ATOM     10  C   UNL d   1      -6.431  14.974  16.208 -0.15 -0.01    +0.066    24.779
ATOM     11  C   UNL d   1      -7.632  14.351  16.612 -0.14 +0.01    -0.021    24.779
ATOM     12  C   UNL d   1      -7.399  12.974  16.553 -0.17 -0.00    +0.000    24.779
ATOM     13  C   UNL d   1      -6.082  12.859  16.108 -0.15 -0.01    +0.070    24.779
ATOM     14  C   UNL d   1      -8.931  15.043  16.934 -0.14 -0.02    +0.052    24.779
ATOM     15  C   UNL d   1      -4.104  11.371  15.602 -0.17 -0.01    +0.066    24.779
ATOM     16  C   UNL d   1      -3.488  10.128  15.643 -0.26 +0.01    -0.021    24.779
ATOM     17  C   UNL d   1      -2.177  10.338  15.193 -0.26 -0.00    +0.000    24.779
ATOM     18  C   UNL d   1      -2.102  11.694  14.894 -0.16 -0.02    +0.070    24.779
ATOM     19  C   UNL d   1      -4.142   8.840  16.094 -0.08 -0.04    +0.052    24.779
ATOM     20  C   UNL d   1      -0.803  13.744  14.205 -0.09 -0.01    +0.066    24.779
ATOM     21  C   UNL d   1       0.391  14.322  13.782 -0.07 +0.00    -0.025    24.779
ATOM     22  C   UNL d   1       0.139  15.680  13.698 -0.04 -0.00    -0.021    24.779
ATOM     23  C   UNL d   1      -1.204  15.865  14.088 -0.07 +0.01    +0.066    24.779
ATOM     24  C   UNL d   1       1.715  13.620  13.492 -0.10 +0.00    +0.051    24.779
ATOM     25  N   UNL d   1      -3.969  16.259  15.110 -0.08 -0.04    -0.248    24.779
ATOM     26  N   UNL d   1      -5.516  14.068  15.847 -0.07 +0.04    -0.248    24.779
ATOM     27  N   UNL d   1      -3.258  12.283  15.179 -0.07 +0.05    -0.248    24.779
ATOM     28  N   UNL d   1      -1.777  14.696  14.398 -0.04 +0.01    -0.248    24.779
ATOM     29 FE   UNL d   1      -3.589  14.154  15.145 -0.03 -0.00    +0.000    24.779
ATOM     30  C   UNL d   1      -3.000  19.895  14.805 -0.10 +0.02    +0.052    24.779
ATOM     31  C   UNL d   1      -3.963  20.874  14.134 -0.10 +0.06    +0.115    24.779
ATOM     32  C   UNL d   1      -3.565  21.189  12.708 +0.06 +0.15    +0.139    24.779
ATOM     33  O   UNL d   1      -4.427  21.497  11.898 -0.20 -0.59    -0.650    24.779
ATOM     34  O   UNL d   1      -2.273  21.190  12.307 -0.54 -0.94    -0.776    24.779
ATOM     35  H   UNL d   1      -1.646  21.902  12.492 +0.01 +0.10    +0.167    24.779
ATOM     36  C   UNL d   1      -2.890  14.426  17.102 -0.01 -0.01    +0.190    24.779
ATOM     37  O   UNL d   1      -2.557  15.409  18.040 +0.00 +0.01    -0.399    24.779
ATOM     38  H   UNL d   1      -2.727  16.275  17.575 +0.01 -0.00    +0.209    24.779
ATOM     39  C   UNL d   1       1.157  16.742  13.325 -0.02 +0.01    +0.052    24.779
ATOM     40  C   UNL d   1       0.962  17.192  11.868 -0.04 +0.04    +0.115    24.779
ATOM     41  C   UNL d   1       0.018  16.322  11.066 -0.12 +0.05    +0.139    24.779
ATOM     42  O   UNL d   1      -1.071  16.769  10.733 -0.43 -0.77    -0.650    24.779
ATOM     43  O   UNL d   1       0.379  15.094  10.632 +0.05 +0.28    -0.776    24.779
ATOM     44  H   UNL d   1      -0.072  14.289  10.917 -0.46 -0.22    +0.167    24.779
ATOM     45  C   UNL d   1      -8.271  11.761  16.847 -0.19 -0.00    +0.004    24.779
ATOM     46  C   UNL d   1      -8.746  10.819  16.036 -0.28 -0.00    +0.012    24.779
ATOM     47  C   UNL d   1      -1.040   9.376  15.085 -0.37 -0.00    +0.004    24.779
ATOM     48  C   UNL d   1      -0.746   8.704  13.970 -0.46 -0.00    +0.012    24.779
TER
ENDMDL
MODEL       18
USER    Run = 18
USER    Cluster Rank = 24
USER    Number of conformations in this cluster = 1
USER  
USER    RMSD from reference structure       = 38.340 A
USER  
USER    Estimated Free Energy of Binding    =   -4.79 kcal/mol  [=(1)+(2)+(3)-(4)]
USER    Estimated Inhibition Constant, Ki   =  307.39 uM (micromolar)  [Temperature = 298.15 K]
USER    
USER    (1) Final Intermolecular Energy     =   -8.37 kcal/mol
USER        vdW + Hbond + desolv Energy     =   -4.28 kcal/mol
USER        Electrostatic Energy            =   -4.09 kcal/mol
USER    (2) Final Total Internal Energy     =   -2.83 kcal/mol
USER    (3) Torsional Free Energy           =   +3.58 kcal/mol
USER    (4) Unbound System's Energy  [=(2)] =   -2.83 kcal/mol
USER    
USER    
USER  
USER    DPF = D:/Protein_go_brrr/autodock/final/AncMH_nat/heme_Co/dock.dpf
USER    NEWDPF move	heme_Co_opt.pdbqt
USER    NEWDPF about	8.781000 34.984000 -0.736000
USER    NEWDPF tran0	-19.900940 4.363221 -0.001354
USER    NEWDPF axisangle0	-0.552618 -0.317576 -0.770558 138.661686
USER    NEWDPF quaternion0	-0.517048 -0.297135 -0.720960 0.352971
USER    NEWDPF dihe0	58.61 103.64 63.50 -112.12 -85.08 137.53 50.05 -19.94 154.50 155.22 -154.70 -162.18 
USER  
USER                              x       y       z    vdW   Elec        q     RMS 
ATOM      1  C   UNL d   1     -20.395   2.443  -0.888 -0.01 +0.05    +0.064    38.340
ATOM      2  C   UNL d   1     -16.563   5.235  -1.245 -0.09 +0.06    +0.064    38.340
ATOM      3  C   UNL d   1     -18.718   8.594   1.383 -0.08 +0.01    +0.064    38.340
ATOM      4  C   UNL d   1     -22.491   5.605   2.085 -0.05 +0.05    +0.064    38.340
ATOM      5  C   UNL d   1     -19.204   2.974  -1.209 -0.04 +0.05    +0.066    38.340
ATOM      6  C   UNL d   1     -18.234   2.252  -1.930 -0.04 -0.02    -0.021    38.340
ATOM      7  C   UNL d   1     -17.115   3.058  -2.011 -0.05 -0.03    -0.025    38.340
ATOM      8  C   UNL d   1     -17.456   4.244  -1.351 -0.08 +0.07    +0.066    38.340
ATOM      9  C   UNL d   1     -15.770   2.739  -2.680 -0.07 +0.05    +0.051    38.340
ATOM     10  C   UNL d   1     -16.832   6.500  -0.608 -0.14 +0.04    +0.066    38.340
ATOM     11  C   UNL d   1     -15.987   7.631  -0.586 -0.24 -0.01    -0.021    38.340
ATOM     12  C   UNL d   1     -16.642   8.597   0.183 -0.24 +0.00    +0.000    38.340
ATOM     13  C   UNL d   1     -17.840   7.990   0.563 -0.12 +0.02    +0.070    38.340
ATOM     14  C   UNL d   1     -14.691   7.790  -1.338 -0.26 +0.01    +0.052    38.340
ATOM     15  C   UNL d   1     -19.971   8.096   1.915 -0.05 +0.02    +0.066    38.340
ATOM     16  C   UNL d   1     -20.762   8.715   2.874 -0.04 -0.01    -0.021    38.340
ATOM     17  C   UNL d   1     -21.850   7.855   3.081 -0.04 +0.00    +0.000    38.340
ATOM     18  C   UNL d   1     -21.645   6.784   2.217 -0.05 +0.04    +0.070    38.340
ATOM     19  C   UNL d   1     -20.464  10.044   3.531 -0.05 +0.01    +0.052    38.340
ATOM     20  C   UNL d   1     -22.268   4.512   1.316 -0.05 +0.06    +0.066    38.340
ATOM     21  C   UNL d   1     -23.137   3.424   1.300 -0.04 -0.02    -0.025    38.340
ATOM     22  C   UNL d   1     -22.573   2.509   0.430 -0.03 -0.01    -0.021    38.340
ATOM     23  C   UNL d   1     -21.372   3.084  -0.037 -0.03 +0.05    +0.066    38.340
ATOM     24  C   UNL d   1     -24.431   3.254   2.091 -0.02 +0.03    +0.051    38.340
ATOM     25  N   UNL d   1     -18.747   4.222  -0.849 -0.05 -0.21    -0.248    38.340
ATOM     26  N   UNL d   1     -17.978   6.744   0.037 -0.07 -0.13    -0.248    38.340
ATOM     27  N   UNL d   1     -20.502   6.947   1.561 -0.03 -0.13    -0.248    38.340
ATOM     28  N   UNL d   1     -21.182   4.296   0.499 -0.04 -0.21    -0.248    38.340
ATOM     29 FE   UNL d   1     -19.679   5.663   0.427 -0.02 +0.00    +0.000    38.340
ATOM     30  C   UNL d   1     -18.359   0.820  -2.441 -0.01 +0.03    +0.052    38.340
ATOM     31  C   UNL d   1     -18.327  -0.170  -1.277 -0.02 +0.09    +0.115    38.340
ATOM     32  C   UNL d   1     -17.556   0.361  -0.088 -0.05 +0.20    +0.139    38.340
ATOM     33  O   UNL d   1     -16.334   0.315  -0.095 -0.40 -1.36    -0.650    38.340
ATOM     34  O   UNL d   1     -18.174   0.934   0.971 -0.12 -1.24    -0.776    38.340
ATOM     35  H   UNL d   1     -18.879   0.513   1.482 +0.03 +0.24    +0.167    38.340
ATOM     36  C   UNL d   1     -18.707   4.713   2.023 -0.09 +0.29    +0.190    38.340
ATOM     37  O   UNL d   1     -18.055   3.530   2.385 -0.23 -0.92    -0.399    38.340
ATOM     38  H   UNL d   1     -18.220   2.903   1.626 +0.03 +0.47    +0.209    38.340
ATOM     39  C   UNL d   1     -23.130   1.132   0.119 -0.00 +0.03    +0.052    38.340
ATOM     40  C   UNL d   1     -23.197   0.273   1.392 -0.01 +0.07    +0.115    38.340
ATOM     41  C   UNL d   1     -22.131   0.594   2.419 +0.05 +0.18    +0.139    38.340
ATOM     42  O   UNL d   1     -22.467   0.996   3.524 -0.47 -1.11    -0.650    38.340
ATOM     43  O   UNL d   1     -20.821   0.367   2.178 -0.08 -1.17    -0.776    38.340
ATOM     44  H   UNL d   1     -20.313   0.884   1.540 +0.01 +0.26    +0.167    38.340
ATOM     45  C   UNL d   1     -16.285  10.021   0.585 -0.36 -0.00    +0.004    38.340
ATOM     46  C   UNL d   1     -16.129  10.568   1.788 -0.37 -0.01    +0.012    38.340
ATOM     47  C   UNL d   1     -22.986   7.970   4.044 -0.02 +0.00    +0.004    38.340
ATOM     48  C   UNL d   1     -23.102   7.217   5.141 -0.05 +0.00    +0.012    38.340
TER
ENDMDL
MODEL       83
USER    Run = 83
USER    Cluster Rank = 25
USER    Number of conformations in this cluster = 1
USER  
USER    RMSD from reference structure       = 18.310 A
USER  
USER    Estimated Free Energy of Binding    =   -4.69 kcal/mol  [=(1)+(2)+(3)-(4)]
USER    Estimated Inhibition Constant, Ki   =  365.57 uM (micromolar)  [Temperature = 298.15 K]
USER    
USER    (1) Final Intermolecular Energy     =   -8.27 kcal/mol
USER        vdW + Hbond + desolv Energy     =   -5.11 kcal/mol
USER        Electrostatic Energy            =   -3.16 kcal/mol
USER    (2) Final Total Internal Energy     =   -0.78 kcal/mol
USER    (3) Torsional Free Energy           =   +3.58 kcal/mol
USER    (4) Unbound System's Energy  [=(2)] =   -0.78 kcal/mol
USER    
USER    
USER  
USER    DPF = D:/Protein_go_brrr/autodock/final/AncMH_nat/heme_Co/dock.dpf
USER    NEWDPF move	heme_Co_opt.pdbqt
USER    NEWDPF about	8.781000 34.984000 -0.736000
USER    NEWDPF tran0	3.983044 16.606103 8.525753
USER    NEWDPF axisangle0	-0.798570 0.071544 0.597635 56.971944
USER    NEWDPF quaternion0	-0.380873 0.034122 0.285038 0.878934
USER    NEWDPF dihe0	89.29 114.47 41.90 36.74 133.36 92.35 37.59 141.96 -62.65 119.12 -3.13 45.54 
USER  
USER                              x       y       z    vdW   Elec        q     RMS 
ATOM      1  C   UNL d   1       2.840  18.452   8.572 -0.04 +0.03    +0.064    18.310
ATOM      2  C   UNL d   1       1.592  13.904   9.184 -0.22 -0.03    +0.064    18.310
ATOM      3  C   UNL d   1       6.029  12.502   8.097 -0.06 +0.00    +0.064    18.310
ATOM      4  C   UNL d   1       7.423  17.155   7.844 -0.04 +0.02    +0.064    18.310
ATOM      5  C   UNL d   1       2.164  17.310   8.784 -0.07 +0.02    +0.066    18.310
ATOM      6  C   UNL d   1       0.819  17.305   9.203 -0.11 -0.01    -0.021    18.310
ATOM      7  C   UNL d   1       0.469  15.983   9.401 -0.20 -0.00    -0.025    18.310
ATOM      8  C   UNL d   1       1.609  15.239   9.079 -0.11 -0.01    +0.066    18.310
ATOM      9  C   UNL d   1      -0.882  15.427   9.876 -0.34 -0.00    +0.051    18.310
ATOM     10  C   UNL d   1       2.708  13.054   8.850 -0.21 -0.02    +0.066    18.310
ATOM     11  C   UNL d   1       2.709  11.643   8.805 -0.40 +0.00    -0.021    18.310
ATOM     12  C   UNL d   1       4.014  11.261   8.481 -0.30 +0.00    +0.000    18.310
ATOM     13  C   UNL d   1       4.707  12.463   8.341 -0.16 +0.00    +0.070    18.310
ATOM     14  C   UNL d   1       1.510  10.744   8.968 -0.03 -0.03    +0.052    18.310
ATOM     15  C   UNL d   1       6.908  13.648   7.975 -0.08 +0.00    +0.066    18.310
ATOM     16  C   UNL d   1       8.292  13.616   7.867 -0.06 -0.00    -0.021    18.310
ATOM     17  C   UNL d   1       8.699  14.955   7.796 -0.04 +0.00    +0.000    18.310
ATOM     18  C   UNL d   1       7.526  15.701   7.850 -0.05 +0.01    +0.070    18.310
ATOM     19  C   UNL d   1       9.140  12.364   7.838 -0.06 -0.00    +0.052    18.310
ATOM     20  C   UNL d   1       6.302  17.903   7.982 -0.05 +0.03    +0.066    18.310
ATOM     21  C   UNL d   1       6.335  19.296   7.996 -0.04 -0.01    -0.025    18.310
ATOM     22  C   UNL d   1       5.024  19.698   8.176 -0.05 -0.01    -0.021    18.310
ATOM     23  C   UNL d   1       4.252  18.521   8.275 -0.05 +0.03    +0.066    18.310
ATOM     24  C   UNL d   1       7.558  20.200   7.866 -0.02 +0.02    +0.051    18.310
ATOM     25  N   UNL d   1       2.672  16.035   8.687 -0.07 -0.02    -0.248    18.310
ATOM     26  N   UNL d   1       3.903  13.547   8.509 -0.10 +0.03    -0.248    18.310
ATOM     27  N   UNL d   1       6.482  14.891   7.987 -0.03 -0.03    -0.248    18.310
ATOM     28  N   UNL d   1       5.022  17.432   8.160 -0.03 -0.10    -0.248    18.310
ATOM     29 FE   UNL d   1       4.691  15.432   8.315 -0.02 +0.00    +0.000    18.310
ATOM     30  C   UNL d   1      -0.053  18.525   9.477 -0.09 +0.04    +0.052    18.310
ATOM     31  C   UNL d   1      -0.615  19.088   8.171 -0.11 +0.08    +0.115    18.310
ATOM     32  C   UNL d   1      -2.123  18.983   8.099 -0.08 +0.16    +0.139    18.310
ATOM     33  O   UNL d   1      -2.633  17.998   7.585 -0.13 -0.54    -0.650    18.310
ATOM     34  O   UNL d   1      -2.934  19.927   8.630 -0.19 -1.28    -0.776    18.310
ATOM     35  H   UNL d   1      -3.200  20.736   8.171 +0.02 +0.14    +0.167    18.310
ATOM     36  C   UNL d   1       4.981  15.522  10.390 +0.01 +0.02    +0.190    18.310
ATOM     37  O   UNL d   1       4.966  16.398  11.480 +0.01 -0.04    -0.399    18.310
ATOM     38  H   UNL d   1       4.708  17.282  11.095 +0.01 +0.03    +0.209    18.310
ATOM     39  C   UNL d   1       4.555  21.135   8.310 -0.02 +0.02    +0.052    18.310
ATOM     40  C   UNL d   1       3.154  21.307   7.700 -0.03 +0.06    +0.115    18.310
ATOM     41  C   UNL d   1       3.098  21.118   6.199 -0.02 +0.15    +0.139    18.310
ATOM     42  O   UNL d   1       3.446  22.034   5.467 -0.19 -0.66    -0.650    18.310
ATOM     43  O   UNL d   1       2.758  19.934   5.645 -0.48 -1.42    -0.776    18.310
ATOM     44  H   UNL d   1       1.982  19.432   5.926 +0.02 +0.17    +0.167    18.310
ATOM     45  C   UNL d   1       4.677   9.906   8.271 -0.30 +0.00    +0.004    18.310
ATOM     46  C   UNL d   1       4.170   8.749   7.854 -0.42 +0.00    +0.012    18.310
ATOM     47  C   UNL d   1      10.075  15.532   7.734 -0.03 +0.00    +0.004    18.310
ATOM     48  C   UNL d   1      10.566  16.154   6.660 -0.05 +0.00    +0.012    18.310
TER
ENDMDL
MODEL       40
USER    Run = 40
USER    Cluster Rank = 26
USER    Number of conformations in this cluster = 2
USER  
USER    RMSD from reference structure       = 48.555 A
USER  
USER    Estimated Free Energy of Binding    =   -4.66 kcal/mol  [=(1)+(2)+(3)-(4)]
USER    Estimated Inhibition Constant, Ki   =  384.34 uM (micromolar)  [Temperature = 298.15 K]
USER    
USER    (1) Final Intermolecular Energy     =   -8.24 kcal/mol
USER        vdW + Hbond + desolv Energy     =   -6.36 kcal/mol
USER        Electrostatic Energy            =   -1.88 kcal/mol
USER    (2) Final Total Internal Energy     =   -2.15 kcal/mol
USER    (3) Torsional Free Energy           =   +3.58 kcal/mol
USER    (4) Unbound System's Energy  [=(2)] =   -2.15 kcal/mol
USER    
USER    
USER  
USER    DPF = D:/Protein_go_brrr/autodock/final/AncMH_nat/heme_Co/dock.dpf
USER    NEWDPF move	heme_Co_opt.pdbqt
USER    NEWDPF about	8.781000 34.984000 -0.736000
USER    NEWDPF tran0	-12.152842 -8.650785 18.859878
USER    NEWDPF axisangle0	-0.907730 0.409506 -0.091274 -111.774460
USER    NEWDPF quaternion0	-0.751542 0.339045 -0.075569 -0.560824
USER    NEWDPF dihe0	-159.69 122.56 -8.46 51.83 143.04 125.96 38.17 -154.80 162.90 -63.34 -169.00 29.67 
USER  
USER                              x       y       z    vdW   Elec        q     RMS 
ATOM      1  C   UNL d   1     -14.253  -8.244  19.235 -0.11 +0.04    +0.064    48.555
ATOM      2  C   UNL d   1     -10.323  -5.660  19.935 -0.17 +0.00    +0.064    48.555
ATOM      3  C   UNL d   1      -7.609  -9.347  18.567 -0.20 +0.00    +0.064    48.555
ATOM      4  C   UNL d   1     -11.619 -11.876  17.477 -0.16 +0.01    +0.064    48.555
ATOM      5  C   UNL d   1     -13.377  -7.279  19.562 -0.09 +0.03    +0.066    48.555
ATOM      6  C   UNL d   1     -13.794  -5.992  19.952 -0.08 -0.01    -0.021    48.555
ATOM      7  C   UNL d   1     -12.650  -5.240  20.132 -0.10 -0.00    -0.025    48.555
ATOM      8  C   UNL d   1     -11.584  -6.104  19.860 -0.11 +0.01    +0.066    48.555
ATOM      9  C   UNL d   1     -12.548  -3.763  20.542 -0.12 +0.00    +0.051    48.555
ATOM     10  C   UNL d   1      -9.162  -6.482  19.699 -0.18 +0.00    +0.066    48.555
ATOM     11  C   UNL d   1      -7.814  -6.115  19.899 -0.22 +0.00    -0.021    48.555
ATOM     12  C   UNL d   1      -7.044  -7.210  19.496 -0.25 -0.00    +0.000    48.555
ATOM     13  C   UNL d   1      -7.978  -8.166  19.093 -0.20 -0.00    +0.070    48.555
ATOM     14  C   UNL d   1      -7.320  -4.836  20.524 -0.20 -0.00    +0.052    48.555
ATOM     15  C   UNL d   1      -8.435 -10.423  18.054 -0.14 +0.01    +0.066    48.555
ATOM     16  C   UNL d   1      -7.990 -11.557  17.389 -0.18 -0.01    -0.021    48.555
ATOM     17  C   UNL d   1      -9.143 -12.288  17.071 -0.21 +0.00    +0.000    48.555
ATOM     18  C   UNL d   1     -10.203 -11.548  17.583 -0.15 +0.01    +0.070    48.555
ATOM     19  C   UNL d   1      -6.544 -11.889  17.093 -0.24 +0.01    +0.052    48.555
ATOM     20  C   UNL d   1     -12.672 -11.131  17.890 -0.17 +0.01    +0.066    48.555
ATOM     21  C   UNL d   1     -13.991 -11.536  17.700 -0.17 -0.00    -0.025    48.555
ATOM     22  C   UNL d   1     -14.772 -10.522  18.223 -0.13 -0.01    -0.021    48.555
ATOM     23  C   UNL d   1     -13.884  -9.535  18.700 -0.13 +0.03    +0.066    48.555
ATOM     24  C   UNL d   1     -14.484 -12.818  17.034 -0.17 -0.02    +0.051    48.555
ATOM     25  N   UNL d   1     -12.005  -7.376  19.510 -0.04 -0.06    -0.248    48.555
ATOM     26  N   UNL d   1      -9.259  -7.745  19.270 -0.07 -0.01    -0.248    48.555
ATOM     27  N   UNL d   1      -9.747 -10.429  18.135 -0.05 -0.04    -0.248    48.555
ATOM     28  N   UNL d   1     -12.611  -9.898  18.498 -0.08 -0.07    -0.248    48.555
ATOM     29 FE   UNL d   1     -10.812  -8.995  18.781 -0.03 +0.00    +0.000    48.555
ATOM     30  C   UNL d   1     -15.232  -5.496  20.063 -0.07 +0.02    +0.052    48.555
ATOM     31  C   UNL d   1     -15.741  -5.017  18.704 -0.04 +0.11    +0.115    48.555
ATOM     32  C   UNL d   1     -14.615  -4.719  17.738 -0.19 +0.11    +0.139    48.555
ATOM     33  O   UNL d   1     -14.156  -3.588  17.680 -0.05 -0.22    -0.650    48.555
ATOM     34  O   UNL d   1     -14.061  -5.680  16.963 +0.16 -0.83    -0.776    48.555
ATOM     35  H   UNL d   1     -13.213  -5.590  16.508 -0.14 +0.11    +0.167    48.555
ATOM     36  C   UNL d   1     -10.941  -8.093  16.893 -0.30 +0.05    +0.190    48.555
ATOM     37  O   UNL d   1     -11.759  -7.282  16.100 -0.11 -0.15    -0.399    48.555
ATOM     38  H   UNL d   1     -12.473  -6.957  16.716 +0.10 +0.12    +0.209    48.555
ATOM     39  C   UNL d   1     -16.288 -10.480  18.203 -0.12 +0.03    +0.052    48.555
ATOM     40  C   UNL d   1     -16.840 -10.142  19.598 -0.07 +0.05    +0.115    48.555
ATOM     41  C   UNL d   1     -17.489  -8.777  19.699 -0.06 +0.09    +0.139    48.555
ATOM     42  O   UNL d   1     -17.271  -7.946  18.829 -0.35 -1.08    -0.650    48.555
ATOM     43  O   UNL d   1     -18.372  -8.481  20.678 +0.01 -0.26    -0.776    48.555
ATOM     44  H   UNL d   1     -18.652  -9.129  21.338 +0.00 +0.03    +0.167    48.555
ATOM     45  C   UNL d   1      -5.544  -7.469  19.462 -0.12 -0.00    +0.004    48.555
ATOM     46  C   UNL d   1      -4.599  -7.203  20.360 -0.30 -0.00    +0.012    48.555
ATOM     47  C   UNL d   1      -9.283 -13.561  16.301 -0.34 +0.00    +0.004    48.555
ATOM     48  C   UNL d   1      -9.838 -14.667  16.802 -0.28 -0.00    +0.012    48.555
TER
ENDMDL
MODEL       30
USER    Run = 30
USER    Cluster Rank = 27
USER    Number of conformations in this cluster = 1
USER  
USER    RMSD from reference structure       = 46.560 A
USER  
USER    Estimated Free Energy of Binding    =   -4.58 kcal/mol  [=(1)+(2)+(3)-(4)]
USER    Estimated Inhibition Constant, Ki   =  436.98 uM (micromolar)  [Temperature = 298.15 K]
USER    
USER    (1) Final Intermolecular Energy     =   -8.16 kcal/mol
USER        vdW + Hbond + desolv Energy     =   -6.34 kcal/mol
USER        Electrostatic Energy            =   -1.82 kcal/mol
USER    (2) Final Total Internal Energy     =   -0.89 kcal/mol
USER    (3) Torsional Free Energy           =   +3.58 kcal/mol
USER    (4) Unbound System's Energy  [=(2)] =   -0.89 kcal/mol
USER    
USER    
USER  
USER    DPF = D:/Protein_go_brrr/autodock/final/AncMH_nat/heme_Co/dock.dpf
USER    NEWDPF move	heme_Co_opt.pdbqt
USER    NEWDPF about	8.781000 34.984000 -0.736000
USER    NEWDPF tran0	-8.405965 -6.968819 19.481001
USER    NEWDPF axisangle0	0.564231 0.001786 0.825615 -101.781187
USER    NEWDPF quaternion0	0.437811 0.001386 0.640630 -0.630803
USER    NEWDPF dihe0	50.81 101.34 31.26 110.89 135.88 130.59 -4.85 179.46 -68.55 -53.21 -151.43 -177.38 
USER  
USER                              x       y       z    vdW   Elec        q     RMS 
ATOM      1  C   UNL d   1      -9.634  -8.169  18.151 -0.22 +0.01    +0.064    46.560
ATOM      2  C   UNL d   1      -5.160  -8.663  19.685 -0.18 -0.01    +0.064    46.560
ATOM      3  C   UNL d   1      -5.421  -4.450  21.922 -0.09 -0.01    +0.064    46.560
ATOM      4  C   UNL d   1     -10.115  -4.103  20.692 -0.15 -0.00    +0.064    46.560
ATOM      5  C   UNL d   1      -8.380  -8.596  18.376 -0.23 +0.00    +0.066    46.560
ATOM      6  C   UNL d   1      -7.929  -9.855  17.932 -0.23 -0.00    -0.021    46.560
ATOM      7  C   UNL d   1      -6.638 -10.003  18.399 -0.21 -0.00    -0.025    46.560
ATOM      8  C   UNL d   1      -6.351  -8.823  19.093 -0.20 -0.01    +0.066    46.560
ATOM      9  C   UNL d   1      -5.698 -11.203  18.208 -0.09 +0.00    +0.051    46.560
ATOM     10  C   UNL d   1      -4.765  -7.474  20.398 -0.23 -0.02    +0.066    46.560
ATOM     11  C   UNL d   1      -3.485  -7.189  20.919 -0.22 +0.01    -0.021    46.560
ATOM     12  C   UNL d   1      -3.588  -5.952  21.563 -0.17 -0.00    +0.000    46.560
ATOM     13  C   UNL d   1      -4.917  -5.570  21.376 -0.12 -0.02    +0.070    46.560
ATOM     14  C   UNL d   1      -2.237  -8.011  20.720 -0.15 -0.02    +0.052    46.560
ATOM     15  C   UNL d   1      -6.775  -3.933  21.876 -0.09 -0.01    +0.066    46.560
ATOM     16  C   UNL d   1      -7.265  -2.844  22.583 -0.05 +0.00    -0.021    46.560
ATOM     17  C   UNL d   1      -8.619  -2.741  22.234 -0.09 -0.00    +0.000    46.560
ATOM     18  C   UNL d   1      -8.845  -3.769  21.324 -0.13 -0.01    +0.070    46.560
ATOM     19  C   UNL d   1      -6.461  -1.978  23.528 -0.02 -0.01    +0.052    46.560
ATOM     20  C   UNL d   1     -10.379  -5.148  19.872 -0.14 +0.00    +0.066    46.560
ATOM     21  C   UNL d   1     -11.650  -5.385  19.355 -0.07 -0.00    -0.025    46.560
ATOM     22  C   UNL d   1     -11.535  -6.535  18.595 -0.16 -0.01    -0.021    46.560
ATOM     23  C   UNL d   1     -10.191  -6.952  18.697 -0.20 +0.01    +0.066    46.560
ATOM     24  C   UNL d   1     -12.918  -4.568  19.589 -0.15 +0.01    +0.051    46.560
ATOM     25  N   UNL d   1      -7.410  -7.931  19.090 -0.17 +0.02    -0.248    46.560
ATOM     26  N   UNL d   1      -5.612  -6.464  20.624 -0.12 +0.05    -0.248    46.560
ATOM     27  N   UNL d   1      -7.732  -4.476  21.158 -0.10 +0.02    -0.248    46.560
ATOM     28  N   UNL d   1      -9.488  -6.117  19.471 -0.14 -0.01    -0.248    46.560
ATOM     29 FE   UNL d   1      -7.584  -6.101  20.184 -0.05 -0.00    +0.000    46.560
ATOM     30  C   UNL d   1      -8.741 -10.893  17.165 -0.25 +0.02    +0.052    46.560
ATOM     31  C   UNL d   1      -9.855 -11.461  18.044 -0.11 +0.02    +0.115    46.560
ATOM     32  C   UNL d   1     -11.228 -11.003  17.602 -0.17 +0.03    +0.139    46.560
ATOM     33  O   UNL d   1     -12.028 -10.609  18.438 +0.03 -0.11    -0.650    46.560
ATOM     34  O   UNL d   1     -11.588 -10.969  16.298 +0.04 -0.25    -0.776    46.560
ATOM     35  H   UNL d   1     -11.432 -11.689  15.672 -0.47 +0.04    +0.167    46.560
ATOM     36  C   UNL d   1      -8.164  -7.268  21.826 -0.03 -0.01    +0.190    46.560
ATOM     37  O   UNL d   1      -8.729  -8.500  22.173 +0.00 +0.01    -0.399    46.560
ATOM     38  H   UNL d   1      -9.084  -8.870  21.317 +0.02 -0.00    +0.209    46.560
ATOM     39  C   UNL d   1     -12.673  -7.226  17.867 -0.27 +0.03    +0.052    46.560
ATOM     40  C   UNL d   1     -13.559  -8.001  18.856 -0.14 +0.06    +0.115    46.560
ATOM     41  C   UNL d   1     -15.011  -7.570  18.864 +0.11 +0.17    +0.139    46.560
ATOM     42  O   UNL d   1     -15.282  -6.378  18.824 -0.05 -0.80    -0.650    46.560
ATOM     43  O   UNL d   1     -16.019  -8.470  18.827 -0.54 -1.14    -0.776    46.560
ATOM     44  H   UNL d   1     -15.979  -9.314  19.294 +0.01 +0.12    +0.167    46.560
ATOM     45  C   UNL d   1      -2.586  -5.085  22.312 -0.10 -0.00    +0.004    46.560
ATOM     46  C   UNL d   1      -1.938  -3.986  21.932 -0.11 -0.00    +0.012    46.560
ATOM     47  C   UNL d   1      -9.664  -1.798  22.732 -0.06 -0.00    +0.004    46.560
ATOM     48  C   UNL d   1     -10.251  -0.876  21.965 -0.09 -0.00    +0.012    46.560
TER
ENDMDL
MODEL        2
USER    Run = 2
USER    Cluster Rank = 28
USER    Number of conformations in this cluster = 1
USER  
USER    RMSD from reference structure       = 26.913 A
USER  
USER    Estimated Free Energy of Binding    =   -4.57 kcal/mol  [=(1)+(2)+(3)-(4)]
USER    Estimated Inhibition Constant, Ki   =  445.22 uM (micromolar)  [Temperature = 298.15 K]
USER    
USER    (1) Final Intermolecular Energy     =   -8.15 kcal/mol
USER        vdW + Hbond + desolv Energy     =   -6.29 kcal/mol
USER        Electrostatic Energy            =   -1.86 kcal/mol
USER    (2) Final Total Internal Energy     =   -0.79 kcal/mol
USER    (3) Torsional Free Energy           =   +3.58 kcal/mol
USER    (4) Unbound System's Energy  [=(2)] =   -0.79 kcal/mol
USER    
USER    
USER  
USER    DPF = D:/Protein_go_brrr/autodock/final/AncMH_nat/heme_Co/dock.dpf
USER    NEWDPF move	heme_Co_opt.pdbqt
USER    NEWDPF about	8.781000 34.984000 -0.736000
USER    NEWDPF tran0	-1.405945 12.110258 15.593987
USER    NEWDPF axisangle0	-0.249266 0.742179 -0.622123 -175.965182
USER    NEWDPF quaternion0	-0.249111 0.741719 -0.621737 -0.035203
USER    NEWDPF dihe0	148.80 -35.10 173.38 -55.62 137.79 -151.41 75.97 -37.98 77.68 35.20 177.78 158.72 
USER  
USER                              x       y       z    vdW   Elec        q     RMS 
ATOM      1  C   UNL d   1      -0.186  13.730  14.817 -0.05 -0.00    +0.064    26.913
ATOM      2  C   UNL d   1       0.933   9.557  16.803 -0.10 +0.01    +0.064    26.913
ATOM      3  C   UNL d   1      -3.684   8.694  17.681 -0.20 -0.05    +0.064    26.913
ATOM      4  C   UNL d   1      -4.883  12.771  15.313 -0.17 -0.01    +0.064    26.913
ATOM      5  C   UNL d   1       0.462  12.670  15.328 -0.06 +0.01    +0.066    26.913
ATOM      6  C   UNL d   1       1.856  12.515  15.203 -0.06 -0.01    -0.021    26.913
ATOM      7  C   UNL d   1       2.172  11.292  15.761 -0.06 -0.01    -0.025    26.913
ATOM      8  C   UNL d   1       0.961  10.761  16.217 -0.06 +0.02    +0.066    26.913
ATOM      9  C   UNL d   1       3.557  10.635  15.868 -0.06 +0.03    +0.051    26.913
ATOM     10  C   UNL d   1      -0.261   8.942  17.327 -0.10 -0.01    +0.066    26.913
ATOM     11  C   UNL d   1      -0.336   7.748  18.076 -0.14 +0.00    -0.021    26.913
ATOM     12  C   UNL d   1      -1.693   7.522  18.322 -0.18 -0.00    +0.000    26.913
ATOM     13  C   UNL d   1      -2.343   8.598  17.717 -0.16 -0.03    +0.070    26.913
ATOM     14  C   UNL d   1       0.830   6.945  18.594 -0.14 -0.01    +0.052    26.913
ATOM     15  C   UNL d   1      -4.517   9.703  17.057 -0.20 -0.04    +0.066    26.913
ATOM     16  C   UNL d   1      -5.899   9.667  16.931 -0.22 +0.01    -0.021    26.913
ATOM     17  C   UNL d   1      -6.249  10.840  16.246 -0.20 -0.00    +0.000    26.913
ATOM     18  C   UNL d   1      -5.050  11.509  16.023 -0.16 -0.02    +0.070    26.913
ATOM     19  C   UNL d   1      -6.797   8.564  17.443 -0.21 -0.04    +0.052    26.913
ATOM     20  C   UNL d   1      -3.721  13.397  15.008 -0.12 -0.01    +0.066    26.913
ATOM     21  C   UNL d   1      -3.686  14.589  14.288 -0.18 +0.00    -0.025    26.913
ATOM     22  C   UNL d   1      -2.346  14.905  14.155 -0.12 -0.00    -0.021    26.913
ATOM     23  C   UNL d   1      -1.624  13.876  14.795 -0.07 -0.01    +0.066    26.913
ATOM     24  C   UNL d   1      -4.869  15.379  13.735 -0.20 +0.01    +0.051    26.913
ATOM     25  N   UNL d   1      -0.115  11.596  15.967 -0.03 -0.02    -0.248    26.913
ATOM     26  N   UNL d   1      -1.473   9.485  17.164 -0.05 +0.05    -0.248    26.913
ATOM     27  N   UNL d   1      -4.038  10.789  16.493 -0.09 +0.07    -0.248    26.913
ATOM     28  N   UNL d   1      -2.452  12.960  15.311 -0.03 +0.04    -0.248    26.913
ATOM     29 FE   UNL d   1      -2.193  11.172  16.244 -0.03 -0.00    +0.000    26.913
ATOM     30  C   UNL d   1       2.818  13.469  14.504 -0.04 +0.01    +0.052    26.913
ATOM     31  C   UNL d   1       3.120  12.984  13.086 -0.07 +0.06    +0.115    26.913
ATOM     32  C   UNL d   1       4.492  12.355  12.971 -0.04 +0.09    +0.139    26.913
ATOM     33  O   UNL d   1       5.473  12.978  13.349 +0.01 -0.17    -0.650    26.913
ATOM     34  O   UNL d   1       4.667  11.096  12.505 -0.28 -1.07    -0.776    26.913
ATOM     35  H   UNL d   1       5.421  10.815  11.970 +0.01 +0.12    +0.167    26.913
ATOM     36  C   UNL d   1      -2.124  10.190  14.393 -0.28 -0.06    +0.190    26.913
ATOM     37  O   UNL d   1      -1.442   9.196  13.684 -0.30 +0.15    -0.399    26.913
ATOM     38  H   UNL d   1      -1.473   9.493  12.732 -0.03 -0.23    +0.209    26.913
ATOM     39  C   UNL d   1      -1.794  16.098  13.396 -0.11 +0.02    +0.052    26.913
ATOM     40  C   UNL d   1      -1.304  15.674  12.001 -0.17 +0.03    +0.115    26.913
ATOM     41  C   UNL d   1      -0.164  16.510  11.460 -0.11 +0.06    +0.139    26.913
ATOM     42  O   UNL d   1       0.979  16.080  11.531 +0.04 -0.06    -0.650    26.913
ATOM     43  O   UNL d   1      -0.382  17.680  10.820 -0.49 -0.92    -0.776    26.913
ATOM     44  H   UNL d   1       0.337  18.224  10.472 +0.02 +0.13    +0.167    26.913
ATOM     45  C   UNL d   1      -2.445   6.430  19.071 -0.21 -0.00    +0.004    26.913
ATOM     46  C   UNL d   1      -2.549   5.126  18.826 -0.24 -0.01    +0.012    26.913
ATOM     47  C   UNL d   1      -7.587  11.305  15.775 -0.32 -0.00    +0.004    26.913
ATOM     48  C   UNL d   1      -8.185  12.410  16.228 -0.24 -0.00    +0.012    26.913
TER
ENDMDL
MODEL       52
USER    Run = 52
USER    Cluster Rank = 29
USER    Number of conformations in this cluster = 1
USER  
USER    RMSD from reference structure       = 46.543 A
USER  
USER    Estimated Free Energy of Binding    =   -4.48 kcal/mol  [=(1)+(2)+(3)-(4)]
USER    Estimated Inhibition Constant, Ki   =  523.67 uM (micromolar)  [Temperature = 298.15 K]
USER    
USER    (1) Final Intermolecular Energy     =   -8.06 kcal/mol
USER        vdW + Hbond + desolv Energy     =   -6.19 kcal/mol
USER        Electrostatic Energy            =   -1.87 kcal/mol
USER    (2) Final Total Internal Energy     =   -1.61 kcal/mol
USER    (3) Torsional Free Energy           =   +3.58 kcal/mol
USER    (4) Unbound System's Energy  [=(2)] =   -1.61 kcal/mol
USER    
USER    
USER  
USER    DPF = D:/Protein_go_brrr/autodock/final/AncMH_nat/heme_Co/dock.dpf
USER    NEWDPF move	heme_Co_opt.pdbqt
USER    NEWDPF about	8.781000 34.984000 -0.736000
USER    NEWDPF tran0	-10.304273 -6.477810 19.352276
USER    NEWDPF axisangle0	0.788614 -0.098532 0.606943 -83.372548
USER    NEWDPF quaternion0	0.524469 -0.065529 0.403648 -0.746798
USER    NEWDPF dihe0	44.72 94.62 -34.42 135.40 138.31 132.42 -136.99 -69.09 -117.33 -17.78 -168.31 -10.80 
USER  
USER                              x       y       z    vdW   Elec        q     RMS 
ATOM      1  C   UNL d   1     -12.204  -6.739  18.333 -0.19 +0.02    +0.064    46.543
ATOM      2  C   UNL d   1      -8.364  -9.519  18.694 -0.17 +0.00    +0.064    46.543
ATOM      3  C   UNL d   1      -6.043  -6.072  21.052 -0.13 -0.01    +0.064    46.543
ATOM      4  C   UNL d   1     -10.081  -3.359  21.034 -0.12 -0.01    +0.064    46.543
ATOM      5  C   UNL d   1     -11.313  -7.738  18.227 -0.19 +0.02    +0.066    46.543
ATOM      6  C   UNL d   1     -11.646  -8.978  17.648 -0.22 -0.01    -0.021    46.543
ATOM      7  C   UNL d   1     -10.535  -9.789  17.776 -0.16 -0.01    -0.025    46.543
ATOM      8  C   UNL d   1      -9.567  -9.004  18.412 -0.14 +0.01    +0.066    46.543
ATOM      9  C   UNL d   1     -10.376 -11.248  17.322 -0.22 +0.01    +0.051    46.543
ATOM     10  C   UNL d   1      -7.297  -8.781  19.323 -0.18 -0.00    +0.066    46.543
ATOM     11  C   UNL d   1      -5.969  -9.219  19.519 -0.21 +0.00    -0.021    46.543
ATOM     12  C   UNL d   1      -5.313  -8.193  20.205 -0.24 -0.00    +0.000    46.543
ATOM     13  C   UNL d   1      -6.283  -7.203  20.365 -0.19 -0.01    +0.070    46.543
ATOM     14  C   UNL d   1      -5.364 -10.495  18.993 -0.02 -0.00    +0.052    46.543
ATOM     15  C   UNL d   1      -6.938  -4.974  21.358 -0.12 -0.01    +0.066    46.543
ATOM     16  C   UNL d   1      -6.670  -3.902  22.197 -0.08 +0.00    -0.021    46.543
ATOM     17  C   UNL d   1      -7.832  -3.118  22.197 -0.09 -0.00    +0.000    46.543
ATOM     18  C   UNL d   1      -8.716  -3.767  21.341 -0.13 -0.01    +0.070    46.543
ATOM     19  C   UNL d   1      -5.371  -3.672  22.938 -0.05 -0.01    +0.052    46.543
ATOM     20  C   UNL d   1     -10.987  -4.020  20.274 -0.13 -0.00    +0.066    46.543
ATOM     21  C   UNL d   1     -12.283  -3.545  20.081 -0.13 +0.00    -0.025    46.543
ATOM     22  C   UNL d   1     -12.909  -4.484  19.283 -0.14 -0.00    -0.021    46.543
ATOM     23  C   UNL d   1     -11.961  -5.500  19.036 +0.01 +0.02    +0.066    46.543
ATOM     24  C   UNL d   1     -12.901  -2.269  20.646 -0.09 -0.00    +0.051    46.543
ATOM     25  N   UNL d   1     -10.020  -7.727  18.698 -0.10 -0.03    -0.248    46.543
ATOM     26  N   UNL d   1      -7.465  -7.536  19.782 -0.13 +0.02    -0.248    46.543
ATOM     27  N   UNL d   1      -8.161  -4.884  20.884 -0.11 +0.02    -0.248    46.543
ATOM     28  N   UNL d   1     -10.797  -5.224  19.636 -0.11 -0.02    -0.248    46.543
ATOM     29 FE   UNL d   1      -9.038  -6.219  19.855 -0.04 -0.00    +0.000    46.543
ATOM     30  C   UNL d   1     -13.001  -9.380  17.075 +0.11 +0.03    +0.052    46.543
ATOM     31  C   UNL d   1     -13.928  -9.876  18.185 -0.14 +0.06    +0.115    46.543
ATOM     32  C   UNL d   1     -14.193  -8.816  19.232 -0.11 +0.07    +0.139    46.543
ATOM     33  O   UNL d   1     -15.178  -8.100  19.126 -0.26 -0.66    -0.650    46.543
ATOM     34  O   UNL d   1     -13.398  -8.663  20.316 +0.04 -0.19    -0.776    46.543
ATOM     35  H   UNL d   1     -12.433  -8.725  20.296 +0.02 +0.03    +0.167    46.543
ATOM     36  C   UNL d   1      -9.778  -7.200  21.554 -0.02 +0.00    +0.190    46.543
ATOM     37  O   UNL d   1     -10.781  -8.073  21.988 +0.00 -0.01    -0.399    46.543
ATOM     38  H   UNL d   1     -11.478  -8.037  21.275 +0.02 +0.02    +0.209    46.543
ATOM     39  C   UNL d   1     -14.359  -4.435  18.839 -0.16 +0.02    +0.052    46.543
ATOM     40  C   UNL d   1     -14.492  -3.693  17.499 -0.21 +0.05    +0.115    46.543
ATOM     41  C   UNL d   1     -15.732  -4.051  16.707 -0.14 +0.13    +0.139    46.543
ATOM     42  O   UNL d   1     -16.828  -3.703  17.123 -0.24 -0.53    -0.650    46.543
ATOM     43  O   UNL d   1     -15.655  -4.668  15.507 -0.19 -0.91    -0.776    46.543
ATOM     44  H   UNL d   1     -14.895  -4.568  14.919 -0.48 +0.05    +0.167    46.543
ATOM     45  C   UNL d   1      -3.886  -8.027  20.708 -0.23 -0.00    +0.004    46.543
ATOM     46  C   UNL d   1      -3.006  -7.049  20.510 -0.26 -0.01    +0.012    46.543
ATOM     47  C   UNL d   1      -8.146  -1.877  22.967 -0.05 -0.00    +0.004    46.543
ATOM     48  C   UNL d   1      -8.384  -0.694  22.394 -0.07 -0.00    +0.012    46.543
TER
ENDMDL
MODEL       43
USER    Run = 43
USER    Cluster Rank = 30
USER    Number of conformations in this cluster = 1
USER  
USER    RMSD from reference structure       = 38.831 A
USER  
USER    Estimated Free Energy of Binding    =   -4.40 kcal/mol  [=(1)+(2)+(3)-(4)]
USER    Estimated Inhibition Constant, Ki   =  597.47 uM (micromolar)  [Temperature = 298.15 K]
USER    
USER    (1) Final Intermolecular Energy     =   -7.98 kcal/mol
USER        vdW + Hbond + desolv Energy     =   -4.46 kcal/mol
USER        Electrostatic Energy            =   -3.52 kcal/mol
USER    (2) Final Total Internal Energy     =   -3.51 kcal/mol
USER    (3) Torsional Free Energy           =   +3.58 kcal/mol
USER    (4) Unbound System's Energy  [=(2)] =   -3.51 kcal/mol
USER    
USER    
USER  
USER    DPF = D:/Protein_go_brrr/autodock/final/AncMH_nat/heme_Co/dock.dpf
USER    NEWDPF move	heme_Co_opt.pdbqt
USER    NEWDPF about	8.781000 34.984000 -0.736000
USER    NEWDPF tran0	-16.256561 1.114629 -3.091222
USER    NEWDPF axisangle0	-0.836870 -0.409456 -0.363310 91.724168
USER    NEWDPF quaternion0	-0.600593 -0.293853 -0.260735 0.696388
USER    NEWDPF dihe0	120.10 115.78 69.35 111.26 -71.02 102.35 25.02 -49.23 140.84 -151.70 -139.94 157.85 
USER  
USER                              x       y       z    vdW   Elec        q     RMS 
ATOM      1  C   UNL d   1     -18.213   0.381  -2.501 -0.00 +0.04    +0.064    38.831
ATOM      2  C   UNL d   1     -14.618  -1.649  -4.860 -0.11 +0.03    +0.064    38.831
ATOM      3  C   UNL d   1     -12.218   2.483  -4.833 -0.07 -0.00    +0.064    38.831
ATOM      4  C   UNL d   1     -15.706   4.476  -2.090 -0.05 +0.07    +0.064    38.831
ATOM      5  C   UNL d   1     -17.423  -0.468  -3.179 -0.01 +0.04    +0.066    38.831
ATOM      6  C   UNL d   1     -17.753  -1.827  -3.344 -0.04 -0.01    -0.021    38.831
ATOM      7  C   UNL d   1     -16.696  -2.416  -4.009 -0.09 -0.02    -0.025    38.831
ATOM      8  C   UNL d   1     -15.774  -1.389  -4.236 -0.07 +0.04    +0.066    38.831
ATOM      9  C   UNL d   1     -16.544  -3.889  -4.420 -0.10 +0.04    +0.051    38.831
ATOM     10  C   UNL d   1     -13.621  -0.652  -5.161 -0.08 +0.02    +0.066    38.831
ATOM     11  C   UNL d   1     -12.453  -0.832  -5.934 -0.14 -0.00    -0.021    38.831
ATOM     12  C   UNL d   1     -11.775   0.389  -5.913 -0.15 -0.00    +0.000    38.831
ATOM     13  C   UNL d   1     -12.582   1.226  -5.142 -0.06 +0.00    +0.070    38.831
ATOM     14  C   UNL d   1     -12.081  -2.069  -6.711 -0.17 +0.01    +0.052    38.831
ATOM     15  C   UNL d   1     -12.901   3.462  -4.010 -0.05 +0.01    +0.066    38.831
ATOM     16  C   UNL d   1     -12.402   4.694  -3.612 -0.10 -0.00    -0.021    38.831
ATOM     17  C   UNL d   1     -13.403   5.271  -2.818 -0.13 +0.00    +0.000    38.831
ATOM     18  C   UNL d   1     -14.445   4.350  -2.809 -0.08 +0.05    +0.070    38.831
ATOM     19  C   UNL d   1     -11.047   5.253  -3.984 -0.22 -0.01    +0.052    38.831
ATOM     20  C   UNL d   1     -16.697   3.557  -1.996 -0.02 +0.08    +0.066    38.831
ATOM     21  C   UNL d   1     -17.848   3.779  -1.243 -0.06 -0.03    -0.025    38.831
ATOM     22  C   UNL d   1     -18.603   2.627  -1.367 -0.05 -0.02    -0.021    38.831
ATOM     23  C   UNL d   1     -17.863   1.747  -2.185 -0.03 +0.06    +0.066    38.831
ATOM     24  C   UNL d   1     -18.204   5.021  -0.430 -0.12 +0.05    +0.051    38.831
ATOM     25  N   UNL d   1     -16.201  -0.169  -3.738 -0.01 -0.14    -0.248    38.831
ATOM     26  N   UNL d   1     -13.725   0.611  -4.735 -0.02 -0.07    -0.248    38.831
ATOM     27  N   UNL d   1     -14.099   3.272  -3.504 -0.02 -0.12    -0.248    38.831
ATOM     28  N   UNL d   1     -16.708   2.305  -2.566 -0.04 -0.24    -0.248    38.831
ATOM     29 FE   UNL d   1     -15.091   1.655  -3.613 -0.01 +0.00    +0.000    38.831
ATOM     30  C   UNL d   1     -18.995  -2.533  -2.808 -0.02 +0.03    +0.052    38.831
ATOM     31  C   UNL d   1     -19.107  -2.348  -1.295 -0.02 +0.07    +0.115    38.831
ATOM     32  C   UNL d   1     -17.770  -2.474  -0.597 -0.07 +0.13    +0.139    38.831
ATOM     33  O   UNL d   1     -17.512  -3.492   0.028 +0.04 -0.76    -0.650    38.831
ATOM     34  O   UNL d   1     -16.823  -1.511  -0.681 +0.00 -0.83    -0.776    38.831
ATOM     35  H   UNL d   1     -16.505  -0.994   0.072 +0.03 +0.21    +0.167    38.831
ATOM     36  C   UNL d   1     -14.238   0.883  -1.860 -0.07 +0.23    +0.190    38.831
ATOM     37  O   UNL d   1     -14.556   0.318  -0.621 -0.09 -0.71    -0.399    38.831
ATOM     38  H   UNL d   1     -15.552   0.249  -0.619 +0.04 +0.40    +0.209    38.831
ATOM     39  C   UNL d   1     -19.931   2.367  -0.680 -0.04 +0.04    +0.052    38.831
ATOM     40  C   UNL d   1     -19.737   1.472   0.555 -0.08 +0.14    +0.115    38.831
ATOM     41  C   UNL d   1     -18.336   1.494   1.129 -0.10 +0.25    +0.139    38.831
ATOM     42  O   UNL d   1     -18.049   2.330   1.974 -0.54 -1.54    -0.650    38.831
ATOM     43  O   UNL d   1     -17.418   0.560   0.797 -0.38 -1.37    -0.776    38.831
ATOM     44  H   UNL d   1     -16.959   0.561  -0.053 +0.02 +0.33    +0.167    38.831
ATOM     45  C   UNL d   1     -10.474   0.865  -6.545 -0.09 -0.00    +0.004    38.831
ATOM     46  C   UNL d   1     -10.258   1.625  -7.615 -0.19 -0.01    +0.012    38.831
ATOM     47  C   UNL d   1     -13.400   6.563  -2.068 -0.32 +0.00    +0.004    38.831
ATOM     48  C   UNL d   1     -13.034   6.670  -0.788 -0.47 +0.00    +0.012    38.831
TER
ENDMDL
MODEL       99
USER    Run = 99
USER    Cluster Rank = 31
USER    Number of conformations in this cluster = 1
USER  
USER    RMSD from reference structure       = 38.024 A
USER  
USER    Estimated Free Energy of Binding    =   -4.33 kcal/mol  [=(1)+(2)+(3)-(4)]
USER    Estimated Inhibition Constant, Ki   =  672.36 uM (micromolar)  [Temperature = 298.15 K]
USER    
USER    (1) Final Intermolecular Energy     =   -7.91 kcal/mol
USER        vdW + Hbond + desolv Energy     =   -4.84 kcal/mol
USER        Electrostatic Energy            =   -3.07 kcal/mol
USER    (2) Final Total Internal Energy     =   -2.45 kcal/mol
USER    (3) Torsional Free Energy           =   +3.58 kcal/mol
USER    (4) Unbound System's Energy  [=(2)] =   -2.45 kcal/mol
USER    
USER    
USER  
USER    DPF = D:/Protein_go_brrr/autodock/final/AncMH_nat/heme_Co/dock.dpf
USER    NEWDPF move	heme_Co_opt.pdbqt
USER    NEWDPF about	8.781000 34.984000 -0.736000
USER    NEWDPF tran0	-20.484619 5.767482 1.810137
USER    NEWDPF axisangle0	0.355378 0.890716 -0.283429 79.977595
USER    NEWDPF quaternion0	0.228379 0.572408 -0.182142 0.766170
USER    NEWDPF dihe0	166.99 98.50 -48.59 124.75 -100.41 152.56 -145.95 -157.38 114.26 121.91 10.08 36.85 
USER  
USER                              x       y       z    vdW   Elec        q     RMS 
ATOM      1  C   UNL d   1     -20.216   5.015  -0.209 -0.04 +0.04    +0.064    38.024
ATOM      2  C   UNL d   1     -23.405   4.018   3.174 -0.05 +0.06    +0.064    38.024
ATOM      3  C   UNL d   1     -21.087   6.849   6.246 -0.15 +0.03    +0.064    38.024
ATOM      4  C   UNL d   1     -18.040   8.183   2.697 -0.22 +0.02    +0.064    38.024
ATOM      5  C   UNL d   1     -21.237   4.506   0.500 -0.05 +0.05    +0.066    38.024
ATOM      6  C   UNL d   1     -22.207   3.668  -0.082 -0.02 -0.01    -0.021    38.024
ATOM      7  C   UNL d   1     -23.142   3.400   0.898 -0.03 -0.02    -0.025    38.024
ATOM      8  C   UNL d   1     -22.695   4.073   2.040 -0.02 +0.07    +0.066    38.024
ATOM      9  C   UNL d   1     -24.414   2.546   0.779 -0.00 +0.02    +0.051    38.024
ATOM     10  C   UNL d   1     -23.010   4.655   4.405 -0.04 +0.07    +0.066    38.024
ATOM     11  C   UNL d   1     -23.637   4.521   5.663 -0.08 -0.01    -0.021    38.024
ATOM     12  C   UNL d   1     -22.938   5.354   6.542 -0.10 +0.00    +0.000    38.024
ATOM     13  C   UNL d   1     -21.933   5.923   5.760 -0.13 +0.05    +0.070    38.024
ATOM     14  C   UNL d   1     -24.765   3.581   6.002 -0.03 +0.02    +0.052    38.024
ATOM     15  C   UNL d   1     -20.030   7.575   5.570 -0.17 +0.03    +0.066    38.024
ATOM     16  C   UNL d   1     -19.287   8.624   6.093 -0.29 -0.01    -0.021    38.024
ATOM     17  C   UNL d   1     -18.409   9.014   5.073 -0.36 +0.00    +0.000    38.024
ATOM     18  C   UNL d   1     -18.674   8.158   4.009 -0.24 +0.03    +0.070    38.024
ATOM     19  C   UNL d   1     -19.436   9.195   7.486 -0.19 +0.01    +0.052    38.024
ATOM     20  C   UNL d   1     -18.341   7.418   1.621 -0.15 +0.03    +0.066    38.024
ATOM     21  C   UNL d   1     -17.684   7.561   0.401 -0.14 -0.01    -0.025    38.024
ATOM     22  C   UNL d   1     -18.270   6.640  -0.448 -0.08 -0.01    -0.021    38.024
ATOM     23  C   UNL d   1     -19.272   5.985   0.299 -0.07 +0.04    +0.066    38.024
ATOM     24  C   UNL d   1     -16.565   8.540   0.054 -0.25 +0.01    +0.051    38.024
ATOM     25  N   UNL d   1     -21.513   4.761   1.824 -0.06 -0.31    -0.248    38.024
ATOM     26  N   UNL d   1     -21.943   5.457   4.482 -0.10 -0.29    -0.248    38.024
ATOM     27  N   UNL d   1     -19.666   7.334   4.331 -0.13 -0.14    -0.248    38.024
ATOM     28  N   UNL d   1     -19.319   6.455   1.551 -0.08 -0.17    -0.248    38.024
ATOM     29 FE   UNL d   1     -20.532   6.124   3.149 -0.03 +0.00    +0.000    38.024
ATOM     30  C   UNL d   1     -22.265   3.219  -1.539 +0.00 +0.02    +0.052    38.024
ATOM     31  C   UNL d   1     -21.583   1.862  -1.710 +0.01 +0.05    +0.115    38.024
ATOM     32  C   UNL d   1     -20.088   1.934  -1.482 -0.00 +0.09    +0.139    38.024
ATOM     33  O   UNL d   1     -19.650   1.859  -0.344 +0.01 -0.63    -0.650    38.024
ATOM     34  O   UNL d   1     -19.210   2.031  -2.507 +0.03 -0.42    -0.776    38.024
ATOM     35  H   UNL d   1     -18.290   2.314  -2.410 +0.01 +0.12    +0.167    38.024
ATOM     36  C   UNL d   1     -21.873   7.582   2.462 -0.02 +0.07    +0.190    38.024
ATOM     37  O   UNL d   1     -22.924   7.794   1.564 +0.00 -0.11    -0.399    38.024
ATOM     38  H   UNL d   1     -22.893   7.013   0.944 +0.01 +0.07    +0.209    38.024
ATOM     39  C   UNL d   1     -17.927   6.451  -1.914 -0.05 +0.02    +0.052    38.024
ATOM     40  C   UNL d   1     -17.874   4.957  -2.271 -0.04 +0.07    +0.115    38.024
ATOM     41  C   UNL d   1     -16.789   4.181  -1.553 +0.03 +0.18    +0.139    38.024
ATOM     42  O   UNL d   1     -15.849   4.786  -1.058 -0.42 -1.04    -0.650    38.024
ATOM     43  O   UNL d   1     -16.876   2.845  -1.367 -0.11 -1.42    -0.776    38.024
ATOM     44  H   UNL d   1     -17.697   2.410  -1.105 +0.01 +0.24    +0.167    38.024
ATOM     45  C   UNL d   1     -23.092   5.661   8.025 -0.07 +0.00    +0.004    38.024
ATOM     46  C   UNL d   1     -22.271   5.434   9.046 -0.12 +0.00    +0.012    38.024
ATOM     47  C   UNL d   1     -17.419  10.132   5.041 -0.43 +0.00    +0.004    38.024
ATOM     48  C   UNL d   1     -17.438  11.108   4.131 -0.38 -0.00    +0.012    38.024
TER
ENDMDL
MODEL       64
USER    Run = 64
USER    Cluster Rank = 32
USER    Number of conformations in this cluster = 1
USER  
USER    RMSD from reference structure       = 46.396 A
USER  
USER    Estimated Free Energy of Binding    =   -4.22 kcal/mol  [=(1)+(2)+(3)-(4)]
USER    Estimated Inhibition Constant, Ki   =  802.08 uM (micromolar)  [Temperature = 298.15 K]
USER    
USER    (1) Final Intermolecular Energy     =   -7.80 kcal/mol
USER        vdW + Hbond + desolv Energy     =   -6.03 kcal/mol
USER        Electrostatic Energy            =   -1.77 kcal/mol
USER    (2) Final Total Internal Energy     =   -3.01 kcal/mol
USER    (3) Torsional Free Energy           =   +3.58 kcal/mol
USER    (4) Unbound System's Energy  [=(2)] =   -3.01 kcal/mol
USER    
USER    
USER  
USER    DPF = D:/Protein_go_brrr/autodock/final/AncMH_nat/heme_Co/dock.dpf
USER    NEWDPF move	heme_Co_opt.pdbqt
USER    NEWDPF about	8.781000 34.984000 -0.736000
USER    NEWDPF tran0	6.440652 -13.312755 3.343371
USER    NEWDPF axisangle0	0.948668 -0.063985 0.309733 -133.785037
USER    NEWDPF quaternion0	0.872557 -0.058852 0.284883 -0.392457
USER    NEWDPF dihe0	96.45 108.97 -32.67 105.85 130.20 108.77 19.65 -2.15 130.67 175.69 -131.98 -178.55 
USER  
USER                              x       y       z    vdW   Elec        q     RMS 
ATOM      1  C   UNL d   1       4.287 -13.278   3.067 -0.01 +0.02    +0.064    46.396
ATOM      2  C   UNL d   1       7.885 -13.987   0.040 -0.15 -0.00    +0.064    46.396
ATOM      3  C   UNL d   1      11.036 -13.053   3.509 -0.13 -0.03    +0.064    46.396
ATOM      4  C   UNL d   1       7.390 -12.703   6.709 -0.14 -0.02    +0.064    46.396
ATOM      5  C   UNL d   1       5.038 -13.505   1.977 -0.13 +0.01    +0.066    46.396
ATOM      6  C   UNL d   1       4.471 -13.890   0.746 -0.19 -0.01    -0.021    46.396
ATOM      7  C   UNL d   1       5.521 -14.116  -0.122 -0.17 -0.01    -0.025    46.396
ATOM      8  C   UNL d   1       6.682 -13.844   0.610 -0.13 +0.00    +0.066    46.396
ATOM      9  C   UNL d   1       5.451 -14.572  -1.588 -0.16 +0.01    +0.051    46.396
ATOM     10  C   UNL d   1       9.132 -13.705   0.707 -0.16 -0.01    +0.066    46.396
ATOM     11  C   UNL d   1      10.418 -13.700   0.124 -0.16 +0.01    -0.021    46.396
ATOM     12  C   UNL d   1      11.317 -13.421   1.156 -0.16 -0.00    +0.000    46.396
ATOM     13  C   UNL d   1      10.515 -13.264   2.287 -0.15 -0.03    +0.070    46.396
ATOM     14  C   UNL d   1      10.734 -13.858  -1.342 -0.15 -0.01    +0.052    46.396
ATOM     15  C   UNL d   1      10.362 -12.921   4.786 -0.09 -0.04    +0.066    46.396
ATOM     16  C   UNL d   1      10.968 -12.849   6.032 -0.10 +0.01    -0.021    46.396
ATOM     17  C   UNL d   1       9.920 -12.750   6.959 -0.12 -0.00    +0.000    46.396
ATOM     18  C   UNL d   1       8.754 -12.753   6.200 -0.12 -0.04    +0.070    46.396
ATOM     19  C   UNL d   1      12.459 -12.876   6.286 -0.05 -0.02    +0.052    46.396
ATOM     20  C   UNL d   1       6.240 -12.791   5.998 -0.16 -0.01    +0.066    46.396
ATOM     21  C   UNL d   1       4.987 -12.767   6.605 -0.18 -0.00    -0.025    46.396
ATOM     22  C   UNL d   1       4.072 -12.902   5.576 -0.21 -0.00    -0.021    46.396
ATOM     23  C   UNL d   1       4.819 -13.014   4.385 -0.15 +0.01    +0.066    46.396
ATOM     24  C   UNL d   1       4.675 -12.642   8.094 -0.24 -0.00    +0.051    46.396
ATOM     25  N   UNL d   1       6.412 -13.457   1.912 -0.06 +0.01    -0.248    46.396
ATOM     26  N   UNL d   1       9.191 -13.381   2.003 -0.11 +0.09    -0.248    46.396
ATOM     27  N   UNL d   1       9.055 -12.886   4.913 -0.10 +0.20    -0.248    46.396
ATOM     28  N   UNL d   1       6.132 -12.950   4.636 -0.08 +0.05    -0.248    46.396
ATOM     29 FE   UNL d   1       7.809 -13.154   3.504 -0.04 -0.00    +0.000    46.396
ATOM     30  C   UNL d   1       2.990 -14.106   0.455 -0.22 +0.02    +0.052    46.396
ATOM     31  C   UNL d   1       2.351 -14.973   1.539 -0.19 +0.08    +0.115    46.396
ATOM     32  C   UNL d   1       3.124 -16.249   1.789 +0.07 +0.15    +0.139    46.396
ATOM     33  O   UNL d   1       2.644 -17.320   1.446 -0.36 -0.82    -0.650    46.396
ATOM     34  O   UNL d   1       4.360 -16.243   2.340 +0.01 -0.62    -0.776    46.396
ATOM     35  H   UNL d   1       4.533 -16.327   3.288 +0.01 +0.17    +0.167    46.396
ATOM     36  C   UNL d   1       7.772 -15.231   3.781 -0.00 -0.01    +0.190    46.396
ATOM     37  O   UNL d   1       6.909 -16.327   3.879 +0.01 -0.05    -0.399    46.396
ATOM     38  H   UNL d   1       5.992 -15.935   3.847 +0.02 +0.06    +0.209    46.396
ATOM     39  C   UNL d   1       2.566 -12.983   5.743 -0.40 +0.02    +0.052    46.396
ATOM     40  C   UNL d   1       2.149 -14.381   6.230 -0.20 +0.08    +0.115    46.396
ATOM     41  C   UNL d   1       3.261 -15.409   6.205 +0.00 +0.15    +0.139    46.396
ATOM     42  O   UNL d   1       3.403 -16.159   7.161 -0.06 -0.45    -0.650    46.396
ATOM     43  O   UNL d   1       4.046 -15.580   5.119 -0.50 -0.99    -0.776    46.396
ATOM     44  H   UNL d   1       3.750 -15.365   4.225 +0.03 +0.26    +0.167    46.396
ATOM     45  C   UNL d   1      12.832 -13.266   1.201 -0.13 -0.00    +0.004    46.396
ATOM     46  C   UNL d   1      13.592 -12.174   1.171 -0.17 -0.00    +0.012    46.396
ATOM     47  C   UNL d   1       9.967 -12.707   8.451 -0.08 -0.00    +0.004    46.396
ATOM     48  C   UNL d   1       9.703 -11.610   9.165 -0.08 -0.00    +0.012    46.396
TER
ENDMDL
MODEL       58
USER    Run = 58
USER    Cluster Rank = 33
USER    Number of conformations in this cluster = 1
USER  
USER    RMSD from reference structure       = 27.216 A
USER  
USER    Estimated Free Energy of Binding    =   -4.15 kcal/mol  [=(1)+(2)+(3)-(4)]
USER    Estimated Inhibition Constant, Ki   =  906.13 uM (micromolar)  [Temperature = 298.15 K]
USER    
USER    (1) Final Intermolecular Energy     =   -7.73 kcal/mol
USER        vdW + Hbond + desolv Energy     =   -6.25 kcal/mol
USER        Electrostatic Energy            =   -1.48 kcal/mol
USER    (2) Final Total Internal Energy     =   -2.57 kcal/mol
USER    (3) Torsional Free Energy           =   +3.58 kcal/mol
USER    (4) Unbound System's Energy  [=(2)] =   -2.57 kcal/mol
USER    
USER    
USER  
USER    DPF = D:/Protein_go_brrr/autodock/final/AncMH_nat/heme_Co/dock.dpf
USER    NEWDPF move	heme_Co_opt.pdbqt
USER    NEWDPF about	8.781000 34.984000 -0.736000
USER    NEWDPF tran0	0.344726 11.114970 15.771816
USER    NEWDPF axisangle0	-0.438984 -0.651323 0.618928 -176.459580
USER    NEWDPF quaternion0	-0.438774 -0.651012 0.618633 -0.030891
USER    NEWDPF dihe0	-104.02 -67.14 164.38 132.00 -29.63 -180.00 34.63 113.91 -95.90 94.79 159.45 180.00 
USER  
USER                              x       y       z    vdW   Elec        q     RMS 
ATOM      1  C   UNL d   1       2.293  10.522  16.527 -0.05 +0.03    +0.064    27.216
ATOM      2  C   UNL d   1      -2.075   8.782  17.240 -0.20 -0.03    +0.064    27.216
ATOM      3  C   UNL d   1      -3.955  12.353  14.681 -0.21 -0.01    +0.064    27.216
ATOM      4  C   UNL d   1       0.521  13.930  13.617 -0.08 -0.01    +0.064    27.216
ATOM      5  C   UNL d   1       1.235   9.805  16.940 -0.06 +0.01    +0.066    27.216
ATOM      6  C   UNL d   1       1.381   8.611  17.673 -0.08 -0.00    -0.021    27.216
ATOM      7  C   UNL d   1       0.112   8.099  17.858 -0.13 +0.00    -0.025    27.216
ATOM      8  C   UNL d   1      -0.755   9.009  17.244 -0.11 -0.01    +0.066    27.216
ATOM      9  C   UNL d   1      -0.285   6.803  18.581 -0.17 -0.01    +0.051    27.216
ATOM     10  C   UNL d   1      -3.046   9.675  16.656 -0.19 -0.03    +0.066    27.216
ATOM     11  C   UNL d   1      -4.451   9.565  16.741 -0.24 +0.01    -0.021    27.216
ATOM     12  C   UNL d   1      -4.974  10.621  15.989 -0.15 -0.00    +0.000    27.216
ATOM     13  C   UNL d   1      -3.853  11.302  15.514 -0.17 -0.02    +0.070    27.216
ATOM     14  C   UNL d   1      -5.219   8.568  17.569 -0.21 -0.06    +0.052    27.216
ATOM     15  C   UNL d   1      -2.908  13.136  14.055 -0.19 -0.02    +0.066    27.216
ATOM     16  C   UNL d   1      -3.080  14.118  13.089 -0.28 +0.00    -0.021    27.216
ATOM     17  C   UNL d   1      -1.791  14.574  12.777 -0.17 -0.00    +0.000    27.216
ATOM     18  C   UNL d   1      -0.933  13.844  13.593 -0.06 -0.03    +0.070    27.216
ATOM     19  C   UNL d   1      -4.408  14.566  12.521 -0.35 +0.00    +0.052    27.216
ATOM     20  C   UNL d   1       1.381  13.171  14.338 -0.08 +0.01    +0.066    27.216
ATOM     21  C   UNL d   1       2.763  13.324  14.248 -0.05 -0.01    -0.025    27.216
ATOM     22  C   UNL d   1       3.299  12.374  15.098 -0.05 -0.01    -0.021    27.216
ATOM     23  C   UNL d   1       2.209  11.675  15.660 -0.05 +0.03    +0.066    27.216
ATOM     24  C   UNL d   1       3.536  14.313  13.380 -0.02 +0.01    +0.051    27.216
ATOM     25  N   UNL d   1      -0.087  10.079  16.672 -0.03 -0.01    -0.248    27.216
ATOM     26  N   UNL d   1      -2.689  10.762  15.964 -0.08 +0.06    -0.248    27.216
ATOM     27  N   UNL d   1      -1.630  12.976  14.319 -0.09 +0.07    -0.248    27.216
ATOM     28  N   UNL d   1       1.046  12.153  15.200 -0.06 -0.08    -0.248    27.216
ATOM     29 FE   UNL d   1      -0.901  11.615  15.425 -0.03 -0.00    +0.000    27.216
ATOM     30  C   UNL d   1       2.693   7.961  18.100 -0.07 +0.00    +0.052    27.216
ATOM     31  C   UNL d   1       2.857   6.595  17.434 -0.10 -0.00    +0.115    27.216
ATOM     32  C   UNL d   1       3.397   6.702  16.024 -0.17 +0.02    +0.139    27.216
ATOM     33  O   UNL d   1       2.620   6.717  15.082 -0.52 -0.29    -0.650    27.216
ATOM     34  O   UNL d   1       4.721   6.830  15.771 +0.04 -0.08    -0.776    27.216
ATOM     35  H   UNL d   1       5.137   7.644  15.455 +0.03 +0.03    +0.167    27.216
ATOM     36  C   UNL d   1      -0.735  10.258  13.836 -0.19 -0.03    +0.190    27.216
ATOM     37  O   UNL d   1      -0.690   8.892  13.538 -0.33 +0.06    -0.399    27.216
ATOM     38  H   UNL d   1      -0.601   8.850  12.545 -0.18 -0.17    +0.209    27.216
ATOM     39  C   UNL d   1       4.779  12.114  15.305 -0.03 +0.02    +0.052    27.216
ATOM     40  C   UNL d   1       5.352  11.283  14.145 -0.05 +0.07    +0.115    27.216
ATOM     41  C   UNL d   1       5.303   9.786  14.365 -0.06 +0.10    +0.139    27.216
ATOM     42  O   UNL d   1       6.341   9.180  14.587 -0.01 -0.17    -0.650    27.216
ATOM     43  O   UNL d   1       4.132   9.113  14.409 +0.12 -1.10    -0.776    27.216
ATOM     44  H   UNL d   1       4.088   8.148  14.417 +0.02 +0.15    +0.167    27.216
ATOM     45  C   UNL d   1      -6.395  11.073  15.683 -0.26 -0.00    +0.004    27.216
ATOM     46  C   UNL d   1      -6.995  12.243  15.888 -0.28 -0.00    +0.012    27.216
ATOM     47  C   UNL d   1      -1.355  15.578  11.762 -0.23 +0.00    +0.004    27.216
ATOM     48  C   UNL d   1      -1.725  15.539  10.480 -0.37 +0.00    +0.012    27.216
TER
ENDMDL
MODEL        8
USER    Run = 8
USER    Cluster Rank = 34
USER    Number of conformations in this cluster = 1
USER  
USER    RMSD from reference structure       = 41.302 A
USER  
USER    Estimated Free Energy of Binding    =   -4.08 kcal/mol  [=(1)+(2)+(3)-(4)]
USER    Estimated Inhibition Constant, Ki   =    1.02 mM (millimolar)  [Temperature = 298.15 K]
USER    
USER    (1) Final Intermolecular Energy     =   -7.66 kcal/mol
USER        vdW + Hbond + desolv Energy     =   -5.35 kcal/mol
USER        Electrostatic Energy            =   -2.31 kcal/mol
USER    (2) Final Total Internal Energy     =   -2.32 kcal/mol
USER    (3) Torsional Free Energy           =   +3.58 kcal/mol
USER    (4) Unbound System's Energy  [=(2)] =   -2.32 kcal/mol
USER    
USER    
USER  
USER    DPF = D:/Protein_go_brrr/autodock/final/AncMH_nat/heme_Co/dock.dpf
USER    NEWDPF move	heme_Co_opt.pdbqt
USER    NEWDPF about	8.781000 34.984000 -0.736000
USER    NEWDPF tran0	-19.422911 3.434737 14.578602
USER    NEWDPF axisangle0	-0.948921 0.183957 0.256336 127.604440
USER    NEWDPF quaternion0	-0.851444 0.165060 0.230004 0.441471
USER    NEWDPF dihe0	8.07 105.51 -125.91 -99.52 -35.30 158.79 -152.53 70.20 164.89 -87.28 7.46 -6.97 
USER  
USER                              x       y       z    vdW   Elec        q     RMS 
ATOM      1  C   UNL d   1     -20.630   4.669  15.896 -0.06 +0.06    +0.064    41.302
ATOM      2  C   UNL d   1     -21.372   3.013  11.501 -0.07 +0.02    +0.064    41.302
ATOM      3  C   UNL d   1     -16.959   1.185  11.403 -0.25 +0.00    +0.064    41.302
ATOM      4  C   UNL d   1     -16.314   2.530  16.034 -0.12 +0.01    +0.064    41.302
ATOM      5  C   UNL d   1     -21.144   4.382  14.689 -0.07 +0.04    +0.066    41.302
ATOM      6  C   UNL d   1     -22.474   4.698  14.349 -0.02 -0.01    -0.021    41.302
ATOM      7  C   UNL d   1     -22.691   4.195  13.081 -0.02 -0.01    -0.025    41.302
ATOM      8  C   UNL d   1     -21.481   3.609  12.695 -0.04 +0.02    +0.066    41.302
ATOM      9  C   UNL d   1     -23.983   4.255  12.252 -0.00 +0.01    +0.051    41.302
ATOM     10  C   UNL d   1     -20.161   2.407  11.008 -0.11 +0.01    +0.066    41.302
ATOM     11  C   UNL d   1     -19.942   1.891   9.712 -0.17 -0.01    -0.021    41.302
ATOM     12  C   UNL d   1     -18.646   1.368   9.710 -0.22 +0.00    +0.000    41.302
ATOM     13  C   UNL d   1     -18.167   1.614  10.997 -0.16 +0.01    +0.070    41.302
ATOM     14  C   UNL d   1     -20.887   1.989   8.542 -0.14 +0.03    +0.052    41.302
ATOM     15  C   UNL d   1     -16.330   1.305  12.704 -0.24 +0.00    +0.066    41.302
ATOM     16  C   UNL d   1     -15.140   0.712  13.101 -0.27 +0.00    -0.021    41.302
ATOM     17  C   UNL d   1     -14.951   1.095  14.436 -0.30 +0.00    +0.000    41.302
ATOM     18  C   UNL d   1     -16.036   1.908  14.745 -0.19 +0.01    +0.070    41.302
ATOM     19  C   UNL d   1     -14.264  -0.162  12.232 -0.38 -0.00    +0.052    41.302
ATOM     20  C   UNL d   1     -17.405   3.252  16.382 -0.11 +0.03    +0.066    41.302
ATOM     21  C   UNL d   1     -17.576   3.769  17.665 -0.07 -0.01    -0.025    41.302
ATOM     22  C   UNL d   1     -18.798   4.415  17.647 -0.07 -0.01    -0.021    41.302
ATOM     23  C   UNL d   1     -19.322   4.250  16.347 -0.05 +0.06    +0.066    41.302
ATOM     24  C   UNL d   1     -16.631   3.636  18.856 -0.03 +0.01    +0.051    41.302
ATOM     25  N   UNL d   1     -20.503   3.715  13.670 -0.05 -0.12    -0.248    41.302
ATOM     26  N   UNL d   1     -19.063   2.292  11.763 -0.09 -0.04    -0.248    41.302
ATOM     27  N   UNL d   1     -16.852   1.986  13.700 -0.14 -0.03    -0.248    41.302
ATOM     28  N   UNL d   1     -18.483   3.544  15.579 -0.09 -0.15    -0.248    41.302
ATOM     29 FE   UNL d   1     -18.569   2.801  13.689 -0.03 +0.00    +0.000    41.302
ATOM     30  C   UNL d   1     -23.504   5.379  15.243 -0.01 +0.02    +0.052    41.302
ATOM     31  C   UNL d   1     -23.471   6.894  15.043 -0.01 +0.04    +0.115    41.302
ATOM     32  C   UNL d   1     -22.203   7.359  14.360 -0.05 +0.11    +0.139    41.302
ATOM     33  O   UNL d   1     -22.086   7.219  13.152 -0.01 -0.39    -0.650    41.302
ATOM     34  O   UNL d   1     -21.206   7.971  15.039 -0.25 -1.29    -0.776    41.302
ATOM     35  H   UNL d   1     -21.202   8.106  15.997 -0.00 +0.23    +0.167    41.302
ATOM     36  C   UNL d   1     -19.519   1.068  14.388 -0.01 +0.04    +0.190    41.302
ATOM     37  O   UNL d   1     -20.775   0.527  14.681 +0.00 -0.08    -0.399    41.302
ATOM     38  H   UNL d   1     -21.410   1.292  14.593 +0.01 +0.04    +0.209    41.302
ATOM     39  C   UNL d   1     -19.451   5.096  18.835 -0.03 +0.02    +0.052    41.302
ATOM     40  C   UNL d   1     -19.120   6.598  18.850 -0.05 +0.07    +0.115    41.302
ATOM     41  C   UNL d   1     -20.067   7.455  18.037 -0.02 +0.13    +0.139    41.302
ATOM     42  O   UNL d   1     -19.660   8.498  17.547 -0.05 -0.81    -0.650    41.302
ATOM     43  O   UNL d   1     -21.330   7.056  17.765 +0.00 -0.51    -0.776    41.302
ATOM     44  H   UNL d   1     -21.652   6.930  16.863 +0.00 +0.13    +0.167    41.302
ATOM     45  C   UNL d   1     -17.804   0.685   8.641 -0.31 +0.00    +0.004    41.302
ATOM     46  C   UNL d   1     -17.434  -0.586   8.511 -0.22 +0.00    +0.012    41.302
ATOM     47  C   UNL d   1     -13.875   0.706  15.397 -0.34 +0.00    +0.004    41.302
ATOM     48  C   UNL d   1     -13.598  -0.559  15.721 -0.42 +0.00    +0.012    41.302
TER
ENDMDL
MODEL       72
USER    Run = 72
USER    Cluster Rank = 35
USER    Number of conformations in this cluster = 1
USER  
USER    RMSD from reference structure       = 35.833 A
USER  
USER    Estimated Free Energy of Binding    =   -3.81 kcal/mol  [=(1)+(2)+(3)-(4)]
USER    Estimated Inhibition Constant, Ki   =    1.62 mM (millimolar)  [Temperature = 298.15 K]
USER    
USER    (1) Final Intermolecular Energy     =   -7.39 kcal/mol
USER        vdW + Hbond + desolv Energy     =   -5.90 kcal/mol
USER        Electrostatic Energy            =   -1.49 kcal/mol
USER    (2) Final Total Internal Energy     =   -2.25 kcal/mol
USER    (3) Torsional Free Energy           =   +3.58 kcal/mol
USER    (4) Unbound System's Energy  [=(2)] =   -2.25 kcal/mol
USER    
USER    
USER  
USER    DPF = D:/Protein_go_brrr/autodock/final/AncMH_nat/heme_Co/dock.dpf
USER    NEWDPF move	heme_Co_opt.pdbqt
USER    NEWDPF about	8.781000 34.984000 -0.736000
USER    NEWDPF tran0	-15.693712 9.445559 16.043542
USER    NEWDPF axisangle0	0.020191 -0.138213 -0.990197 -37.809418
USER    NEWDPF quaternion0	0.006542 -0.044780 -0.320819 -0.946059
USER    NEWDPF dihe0	34.99 142.66 135.99 118.32 -93.82 80.55 32.83 -32.76 -179.60 -159.05 4.67 162.81 
USER  
USER                              x       y       z    vdW   Elec        q     RMS 
ATOM      1  C   UNL d   1     -16.844  11.004  15.062 -0.11 +0.03    +0.064    35.833
ATOM      2  C   UNL d   1     -17.795   8.188  18.773 -0.06 +0.04    +0.064    35.833
ATOM      3  C   UNL d   1     -13.693   5.835  18.087 -0.09 +0.01    +0.064    35.833
ATOM      4  C   UNL d   1     -12.520   8.944  14.535 -0.35 -0.00    +0.064    35.833
ATOM      5  C   UNL d   1     -17.422  10.384  16.104 -0.06 +0.05    +0.066    35.833
ATOM      6  C   UNL d   1     -18.633  10.835  16.664 -0.06 -0.01    -0.021    35.833
ATOM      7  C   UNL d   1     -18.893  10.028  17.755 -0.05 -0.02    -0.025    35.833
ATOM      8  C   UNL d   1     -17.839   9.110  17.804 +0.02 +0.06    +0.066    35.833
ATOM      9  C   UNL d   1     -20.083  10.107  18.723 -0.01 +0.02    +0.051    35.833
ATOM     10  C   UNL d   1     -16.765   7.186  18.889 -0.06 +0.03    +0.066    35.833
ATOM     11  C   UNL d   1     -16.736   6.106  19.798 -0.02 -0.01    -0.021    35.833
ATOM     12  C   UNL d   1     -15.531   5.434  19.573 -0.02 +0.00    +0.000    35.833
ATOM     13  C   UNL d   1     -14.922   6.144  18.538 -0.06 +0.02    +0.070    35.833
ATOM     14  C   UNL d   1     -17.840   5.705  20.742 -0.00 +0.01    +0.052    35.833
ATOM     15  C   UNL d   1     -12.896   6.489  17.068 -0.17 +0.00    +0.066    35.833
ATOM     16  C   UNL d   1     -11.575   6.208  16.750 -0.24 +0.00    -0.021    35.833
ATOM     17  C   UNL d   1     -11.231   7.104  15.727 -0.37 -0.00    +0.000    35.833
ATOM     18  C   UNL d   1     -12.380   7.852  15.490 -0.28 -0.00    +0.070    35.833
ATOM     19  C   UNL d   1     -10.723   5.143  17.403 -0.28 -0.01    +0.052    35.833
ATOM     20  C   UNL d   1     -13.598   9.742  14.347 -0.29 +0.00    +0.066    35.833
ATOM     21  C   UNL d   1     -13.600  10.784  13.422 -0.33 +0.00    -0.025    35.833
ATOM     22  C   UNL d   1     -14.844  11.378  13.531 -0.24 +0.00    -0.021    35.833
ATOM     23  C   UNL d   1     -15.541  10.670  14.534 -0.18 +0.02    +0.066    35.833
ATOM     24  C   UNL d   1     -12.465  11.207  12.493 -0.43 -0.01    +0.051    35.833
ATOM     25  N   UNL d   1     -16.916   9.303  16.789 +0.03 -0.29    -0.248    35.833
ATOM     26  N   UNL d   1     -15.694   7.169  18.088 -0.07 -0.11    -0.248    35.833
ATOM     27  N   UNL d   1     -13.341   7.480  16.327 -0.14 -0.03    -0.248    35.833
ATOM     28  N   UNL d   1     -14.789   9.681  15.032 -0.14 -0.07    -0.248    35.833
ATOM     29 FE   UNL d   1     -15.022   8.339  16.541 -0.03 +0.00    +0.000    35.833
ATOM     30  C   UNL d   1     -19.452  12.040  16.212 -0.02 +0.02    +0.052    35.833
ATOM     31  C   UNL d   1     -20.453  11.634  15.130 -0.03 +0.04    +0.115    35.833
ATOM     32  C   UNL d   1     -20.349  10.168  14.768 +0.05 +0.14    +0.139    35.833
ATOM     33  O   UNL d   1     -19.689   9.835  13.795 -0.30 -0.76    -0.650    35.833
ATOM     34  O   UNL d   1     -20.926   9.201  15.518 -0.35 -1.02    -0.776    35.833
ATOM     35  H   UNL d   1     -21.739   9.320  16.028 +0.01 +0.12    +0.167    35.833
ATOM     36  C   UNL d   1     -14.264   9.724  17.921 -0.03 +0.02    +0.190    35.833
ATOM     37  O   UNL d   1     -13.890  11.064  18.064 +0.00 -0.01    -0.399    35.833
ATOM     38  H   UNL d   1     -14.470  11.561  17.422 +0.02 +0.01    +0.209    35.833
ATOM     39  C   UNL d   1     -15.308  12.598  12.758 -0.22 -0.01    +0.052    35.833
ATOM     40  C   UNL d   1     -15.103  13.876  13.587 -0.08 -0.02    +0.115    35.833
ATOM     41  C   UNL d   1     -14.183  13.707  14.778 -0.07 -0.03    +0.139    35.833
ATOM     42  O   UNL d   1     -13.049  14.164  14.729 +0.00 +0.24    -0.650    35.833
ATOM     43  O   UNL d   1     -14.608  13.142  15.930 +0.06 +0.06    -0.776    35.833
ATOM     44  H   UNL d   1     -14.049  12.560  16.460 +0.03 -0.01    +0.167    35.833
ATOM     45  C   UNL d   1     -14.898   4.199  20.200 -0.02 +0.00    +0.004    35.833
ATOM     46  C   UNL d   1     -14.694   2.983  19.701 -0.03 +0.00    +0.012    35.833
ATOM     47  C   UNL d   1      -9.923   7.308  15.038 -0.55 -0.00    +0.004    35.833
ATOM     48  C   UNL d   1      -9.214   8.437  15.118 -0.28 -0.00    +0.012    35.833
TER
ENDMDL
MODEL       75
USER    Run = 75
USER    Cluster Rank = 36
USER    Number of conformations in this cluster = 2
USER  
USER    RMSD from reference structure       = 47.501 A
USER  
USER    Estimated Free Energy of Binding    =   -3.73 kcal/mol  [=(1)+(2)+(3)-(4)]
USER    Estimated Inhibition Constant, Ki   =    1.84 mM (millimolar)  [Temperature = 298.15 K]
USER    
USER    (1) Final Intermolecular Energy     =   -7.31 kcal/mol
USER        vdW + Hbond + desolv Energy     =   -7.25 kcal/mol
USER        Electrostatic Energy            =   -0.06 kcal/mol
USER    (2) Final Total Internal Energy     =   -2.22 kcal/mol
USER    (3) Torsional Free Energy           =   +3.58 kcal/mol
USER    (4) Unbound System's Energy  [=(2)] =   -2.22 kcal/mol
USER    
USER    
USER  
USER    DPF = D:/Protein_go_brrr/autodock/final/AncMH_nat/heme_Co/dock.dpf
USER    NEWDPF move	heme_Co_opt.pdbqt
USER    NEWDPF about	8.781000 34.984000 -0.736000
USER    NEWDPF tran0	-7.300455 -9.326454 18.377907
USER    NEWDPF axisangle0	0.389869 -0.053283 0.919327 -101.081672
USER    NEWDPF quaternion0	0.301009 -0.041138 0.709792 -0.635528
USER    NEWDPF dihe0	-134.48 112.09 137.48 116.67 -99.53 96.27 -132.34 -31.53 -141.10 -163.67 -0.99 165.79 
USER  
USER                              x       y       z    vdW   Elec        q     RMS 
ATOM      1  C   UNL d   1      -8.060 -10.744  16.919 -0.26 +0.02    +0.064    47.501
ATOM      2  C   UNL d   1      -4.208 -10.784  19.706 -0.05 -0.00    +0.064    47.501
ATOM      3  C   UNL d   1      -5.214  -6.367  21.224 -0.14 -0.01    +0.064    47.501
ATOM      4  C   UNL d   1      -9.360  -6.451  18.681 -0.28 +0.00    +0.064    47.501
ATOM      5  C   UNL d   1      -6.914 -11.065  17.541 -0.21 +0.01    +0.066    47.501
ATOM      6  C   UNL d   1      -6.322 -12.336  17.406 -0.16 -0.00    -0.021    47.501
ATOM      7  C   UNL d   1      -5.217 -12.350  18.235 -0.12 -0.00    -0.025    47.501
ATOM      8  C   UNL d   1      -5.173 -11.082  18.826 -0.05 -0.00    +0.066    47.501
ATOM      9  C   UNL d   1      -4.231 -13.504  18.472 -0.08 -0.00    +0.051    47.501
ATOM     10  C   UNL d   1      -4.067  -9.499  20.344 -0.06 -0.01    +0.066    47.501
ATOM     11  C   UNL d   1      -2.999  -9.078  21.166 -0.10 +0.00    -0.021    47.501
ATOM     12  C   UNL d   1      -3.317  -7.785  21.592 -0.13 -0.00    +0.000    47.501
ATOM     13  C   UNL d   1      -4.544  -7.509  20.990 -0.18 -0.02    +0.070    47.501
ATOM     14  C   UNL d   1      -1.726  -9.839  21.435 -0.08 -0.01    +0.052    47.501
ATOM     15  C   UNL d   1      -6.510  -5.943  20.731 -0.15 -0.01    +0.066    47.501
ATOM     16  C   UNL d   1      -7.211  -4.812  21.127 -0.15 +0.00    -0.021    47.501
ATOM     17  C   UNL d   1      -8.409  -4.834  20.398 -0.24 -0.00    +0.000    47.501
ATOM     18  C   UNL d   1      -8.336  -5.970  19.600 -0.25 -0.00    +0.070    47.501
ATOM     19  C   UNL d   1      -6.737  -3.797  22.142 -0.09 -0.01    +0.052    47.501
ATOM     20  C   UNL d   1      -9.349  -7.598  17.960 -0.31 +0.00    +0.066    47.501
ATOM     21  C   UNL d   1     -10.411  -7.970  17.139 -0.34 -0.01    -0.025    47.501
ATOM     22  C   UNL d   1     -10.051  -9.190  16.595 -0.35 -0.01    -0.021    47.501
ATOM     23  C   UNL d   1      -8.783  -9.509  17.125 -0.28 +0.01    +0.066    47.501
ATOM     24  C   UNL d   1     -11.713  -7.211  16.898 -0.21 +0.02    +0.051    47.501
ATOM     25  N   UNL d   1      -6.209 -10.264  18.410 -0.12 -0.01    -0.248    47.501
ATOM     26  N   UNL d   1      -4.970  -8.524  20.191 -0.16 +0.04    -0.248    47.501
ATOM     27  N   UNL d   1      -7.205  -6.622  19.847 -0.14 +0.02    -0.248    47.501
ATOM     28  N   UNL d   1      -8.356  -8.550  17.954 -0.18 -0.00    -0.248    47.501
ATOM     29 FE   UNL d   1      -6.739  -8.335  19.169 -0.05 -0.00    +0.000    47.501
ATOM     30  C   UNL d   1      -6.850 -13.503  16.579 -0.25 +0.02    +0.052    47.501
ATOM     31  C   UNL d   1      -6.428 -13.359  15.117 -0.28 +0.08    +0.115    47.501
ATOM     32  C   UNL d   1      -5.036 -12.785  14.972 -0.37 +0.03    +0.139    47.501
ATOM     33  O   UNL d   1      -4.092 -13.538  14.786 -0.00 +0.04    -0.650    47.501
ATOM     34  O   UNL d   1      -4.803 -11.452  14.993 +0.08 -0.09    -0.776    47.501
ATOM     35  H   UNL d   1      -4.185 -10.999  14.403 -0.39 -0.05    +0.167    47.501
ATOM     36  C   UNL d   1      -7.737  -9.341  20.713 -0.04 -0.01    +0.190    47.501
ATOM     37  O   UNL d   1      -8.749 -10.273  20.964 +0.00 -0.00    -0.399    47.501
ATOM     38  H   UNL d   1      -9.108 -10.512  20.064 +0.03 +0.01    +0.209    47.501
ATOM     39  C   UNL d   1     -10.912 -10.027  15.668 -0.46 +0.03    +0.052    47.501
ATOM     40  C   UNL d   1     -11.740 -11.046  16.469 -0.12 +0.03    +0.115    47.501
ATOM     41  C   UNL d   1     -11.719 -10.827  17.968 -0.15 +0.02    +0.139    47.501
ATOM     42  O   UNL d   1     -12.713 -10.377  18.520 +0.01 -0.15    -0.650    47.501
ATOM     43  O   UNL d   1     -10.663 -11.198  18.725 +0.08 -0.08    -0.776    47.501
ATOM     44  H   UNL d   1     -10.366 -10.685  19.488 +0.03 +0.01    +0.167    47.501
ATOM     45  C   UNL d   1      -2.596  -6.777  22.478 -0.07 -0.00    +0.004    47.501
ATOM     46  C   UNL d   1      -1.981  -5.638  22.170 -0.09 -0.00    +0.012    47.501
ATOM     47  C   UNL d   1      -9.578  -3.906  20.456 -0.18 -0.00    +0.004    47.501
ATOM     48  C   UNL d   1     -10.818  -4.300  20.753 -0.16 -0.00    +0.012    47.501
TER
ENDMDL
MODEL       63
USER    Run = 63
USER    Cluster Rank = 37
USER    Number of conformations in this cluster = 3
USER  
USER    RMSD from reference structure       = 45.371 A
USER  
USER    Estimated Free Energy of Binding    =   -3.60 kcal/mol  [=(1)+(2)+(3)-(4)]
USER    Estimated Inhibition Constant, Ki   =    2.30 mM (millimolar)  [Temperature = 298.15 K]
USER    
USER    (1) Final Intermolecular Energy     =   -7.18 kcal/mol
USER        vdW + Hbond + desolv Energy     =   -7.57 kcal/mol
USER        Electrostatic Energy            =   +0.39 kcal/mol
USER    (2) Final Total Internal Energy     =   -2.32 kcal/mol
USER    (3) Torsional Free Energy           =   +3.58 kcal/mol
USER    (4) Unbound System's Energy  [=(2)] =   -2.32 kcal/mol
USER    
USER    
USER  
USER    DPF = D:/Protein_go_brrr/autodock/final/AncMH_nat/heme_Co/dock.dpf
USER    NEWDPF move	heme_Co_opt.pdbqt
USER    NEWDPF about	8.781000 34.984000 -0.736000
USER    NEWDPF tran0	10.410138 -12.238892 -4.516498
USER    NEWDPF axisangle0	-0.755441 -0.405079 0.514995 164.896517
USER    NEWDPF quaternion0	-0.748888 -0.401566 0.510528 0.131421
USER    NEWDPF dihe0	-155.86 96.15 -63.86 130.90 158.60 134.25 36.32 180.00 148.61 121.01 -151.81 2.22 
USER  
USER                              x       y       z    vdW   Elec        q     RMS 
ATOM      1  C   UNL d   1      11.035 -12.948  -2.561 -0.10 -0.02    +0.064    45.371
ATOM      2  C   UNL d   1       6.813 -12.916  -4.749 -0.11 +0.01    +0.064    45.371
ATOM      3  C   UNL d   1       8.685 -10.480  -8.408 -0.21 -0.02    +0.064    45.371
ATOM      4  C   UNL d   1      13.090 -10.835  -6.374 -0.23 -0.02    +0.064    45.371
ATOM      5  C   UNL d   1       9.736 -13.087  -2.874 -0.22 -0.01    +0.066    45.371
ATOM      6  C   UNL d   1       8.848 -13.822  -2.065 -0.19 +0.00    -0.021    45.371
ATOM      7  C   UNL d   1       7.630 -13.829  -2.716 -0.19 -0.00    -0.025    45.371
ATOM      8  C   UNL d   1       7.822 -13.084  -3.885 -0.22 +0.00    +0.066    45.371
ATOM      9  C   UNL d   1       6.325 -14.507  -2.268 -0.15 +0.01    +0.051    45.371
ATOM     10  C   UNL d   1       6.910 -12.145  -5.963 -0.23 -0.00    +0.066    45.371
ATOM     11  C   UNL d   1       5.854 -11.814  -6.839 -0.26 -0.00    -0.021    45.371
ATOM     12  C   UNL d   1       6.427 -11.100  -7.895 -0.24 -0.00    +0.000    45.371
ATOM     13  C   UNL d   1       7.785 -11.037  -7.580 -0.21 -0.01    +0.070    45.371
ATOM     14  C   UNL d   1       4.389 -12.088  -6.614 -0.37 +0.00    +0.052    45.371
ATOM     15  C   UNL d   1      10.124 -10.375  -8.266 -0.23 -0.03    +0.066    45.371
ATOM     16  C   UNL d   1      11.015  -9.917  -9.226 -0.21 +0.01    -0.021    45.371
ATOM     17  C   UNL d   1      12.287 -10.020  -8.645 -0.22 -0.00    +0.000    45.371
ATOM     18  C   UNL d   1      12.069 -10.519  -7.365 -0.24 -0.03    +0.070    45.371
ATOM     19  C   UNL d   1      10.640  -9.420 -10.604 -0.12 -0.03    +0.052    45.371
ATOM     20  C   UNL d   1      12.910 -11.402  -5.157 -0.24 -0.02    +0.066    45.371
ATOM     21  C   UNL d   1      13.974 -11.691  -4.306 -0.18 +0.01    -0.025    45.371
ATOM     22  C   UNL d   1      13.410 -12.274  -3.187 -0.16 +0.01    -0.021    45.371
ATOM     23  C   UNL d   1      12.018 -12.323  -3.417 -0.20 -0.02    +0.066    45.371
ATOM     24  C   UNL d   1      15.460 -11.443  -4.556 -0.14 -0.01    +0.051    45.371
ATOM     25  N   UNL d   1       9.116 -12.607  -4.005 -0.01 +0.06    -0.248    45.371
ATOM     26  N   UNL d   1       8.066 -11.620  -6.384 -0.11 +0.06    -0.248    45.371
ATOM     27  N   UNL d   1      10.773 -10.747  -7.185 -0.14 +0.11    -0.248    45.371
ATOM     28  N   UNL d   1      11.712 -11.798  -4.609 -0.14 +0.10    -0.248    45.371
ATOM     29 FE   UNL d   1       9.997 -11.622  -5.688 -0.06 -0.00    +0.000    45.371
ATOM     30  C   UNL d   1       9.188 -14.550  -0.769 -0.11 -0.01    +0.052    45.371
ATOM     31  C   UNL d   1      10.109 -15.738  -1.046 -0.03 -0.01    +0.115    45.371
ATOM     32  C   UNL d   1       9.831 -16.384  -2.386 -0.01 -0.01    +0.139    45.371
ATOM     33  O   UNL d   1       9.062 -17.333  -2.448 +0.01 +0.05    -0.650    45.371
ATOM     34  O   UNL d   1      10.370 -15.915  -3.535 +0.02 +0.09    -0.776    45.371
ATOM     35  H   UNL d   1      10.020 -16.104  -4.417 +0.01 -0.02    +0.167    45.371
ATOM     36  C   UNL d   1      10.289 -13.529  -6.509 -0.06 -0.04    +0.190    45.371
ATOM     37  O   UNL d   1      10.378 -14.884  -6.174 -0.00 +0.06    -0.399    45.371
ATOM     38  H   UNL d   1      10.538 -14.895  -5.190 +0.02 -0.03    +0.209    45.371
ATOM     39  C   UNL d   1      14.177 -12.813  -1.994 -0.10 -0.01    +0.052    45.371
ATOM     40  C   UNL d   1      14.079 -11.844  -0.804 -0.14 -0.03    +0.115    45.371
ATOM     41  C   UNL d   1      14.731 -10.497  -1.039 -0.20 -0.03    +0.139    45.371
ATOM     42  O   UNL d   1      15.813 -10.447  -1.607 +0.01 +0.08    -0.650    45.371
ATOM     43  O   UNL d   1      14.109  -9.341  -0.718 +0.01 +0.26    -0.776    45.371
ATOM     44  H   UNL d   1      13.245  -9.099  -1.077 -0.47 -0.09    +0.167    45.371
ATOM     45  C   UNL d   1       5.849 -10.458  -9.149 -0.32 -0.00    +0.004    45.371
ATOM     46  C   UNL d   1       5.896  -9.199  -9.578 -0.40 -0.00    +0.012    45.371
ATOM     47  C   UNL d   1      13.630  -9.731  -9.231 -0.21 -0.00    +0.004    45.371
ATOM     48  C   UNL d   1      14.595  -9.080  -8.577 -0.30 -0.01    +0.012    45.371
TER
ENDMDL
MODEL       25
USER    Run = 25
USER    Cluster Rank = 38
USER    Number of conformations in this cluster = 2
USER  
USER    RMSD from reference structure       = 31.207 A
USER  
USER    Estimated Free Energy of Binding    =   -3.44 kcal/mol  [=(1)+(2)+(3)-(4)]
USER    Estimated Inhibition Constant, Ki   =    3.02 mM (millimolar)  [Temperature = 298.15 K]
USER    
USER    (1) Final Intermolecular Energy     =   -7.02 kcal/mol
USER        vdW + Hbond + desolv Energy     =   -5.59 kcal/mol
USER        Electrostatic Energy            =   -1.43 kcal/mol
USER    (2) Final Total Internal Energy     =   -2.26 kcal/mol
USER    (3) Torsional Free Energy           =   +3.58 kcal/mol
USER    (4) Unbound System's Energy  [=(2)] =   -2.26 kcal/mol
USER    
USER    
USER  
USER    DPF = D:/Protein_go_brrr/autodock/final/AncMH_nat/heme_Co/dock.dpf
USER    NEWDPF move	heme_Co_opt.pdbqt
USER    NEWDPF about	8.781000 34.984000 -0.736000
USER    NEWDPF tran0	-11.210224 12.518656 15.911452
USER    NEWDPF axisangle0	-0.541587 -0.276931 -0.793721 90.035003
USER    NEWDPF quaternion0	-0.383077 -0.195879 -0.561417 0.706891
USER    NEWDPF dihe0	-149.39 111.49 1.83 118.46 142.97 123.69 55.73 -151.64 153.00 15.58 -151.16 137.05 
USER  
USER                              x       y       z    vdW   Elec        q     RMS 
ATOM      1  C   UNL d   1     -12.699  11.004  15.460 -0.14 -0.00    +0.064    31.207
ATOM      2  C   UNL d   1      -7.977  10.788  15.979 -0.28 -0.01    +0.064    31.207
ATOM      3  C   UNL d   1      -7.775  15.538  16.452 -0.14 -0.02    +0.064    31.207
ATOM      4  C   UNL d   1     -12.633  15.747  16.310 -0.09 -0.03    +0.064    31.207
ATOM      5  C   UNL d   1     -11.420  10.600  15.531 -0.18 -0.01    +0.066    31.207
ATOM      6  C   UNL d   1     -11.064   9.237  15.504 -0.24 +0.00    -0.021    31.207
ATOM      7  C   UNL d   1      -9.696   9.179  15.678 -0.29 +0.01    -0.025    31.207
ATOM      8  C   UNL d   1      -9.273  10.508  15.787 -0.20 -0.01    +0.066    31.207
ATOM      9  C   UNL d   1      -8.806   7.928  15.742 -0.24 -0.02    +0.051    31.207
ATOM     10  C   UNL d   1      -7.446  12.125  16.076 -0.22 -0.01    +0.066    31.207
ATOM     11  C   UNL d   1      -6.083  12.489  16.138 -0.18 +0.00    -0.021    31.207
ATOM     12  C   UNL d   1      -6.053  13.880  16.271 -0.15 -0.00    +0.000    31.207
ATOM     13  C   UNL d   1      -7.395  14.261  16.269 -0.15 -0.02    +0.070    31.207
ATOM     14  C   UNL d   1      -4.905  11.563  15.980 -0.19 -0.01    +0.052    31.207
ATOM     15  C   UNL d   1      -9.109  16.099  16.529 -0.09 -0.04    +0.066    31.207
ATOM     16  C   UNL d   1      -9.435  17.405  16.865 -0.15 +0.01    -0.021    31.207
ATOM     17  C   UNL d   1     -10.835  17.470  16.828 -0.12 -0.00    +0.000    31.207
ATOM     18  C   UNL d   1     -11.254  16.197  16.455 -0.14 -0.04    +0.070    31.207
ATOM     19  C   UNL d   1      -8.444  18.499  17.197 -0.11 -0.02    +0.052    31.207
ATOM     20  C   UNL d   1     -13.066  14.494  16.033 -0.07 -0.02    +0.066    31.207
ATOM     21  C   UNL d   1     -14.420  14.175  15.955 -0.03 +0.00    -0.025    31.207
ATOM     22  C   UNL d   1     -14.469  12.820  15.682 -0.04 +0.00    -0.021    31.207
ATOM     23  C   UNL d   1     -13.132  12.373  15.618 -0.08 -0.01    +0.066    31.207
ATOM     24  C   UNL d   1     -15.610  15.111  16.150 -0.01 -0.01    +0.051    31.207
ATOM     25  N   UNL d   1     -10.319  11.410  15.693 -0.16 +0.05    -0.248    31.207
ATOM     26  N   UNL d   1      -8.234  13.205  16.095 -0.09 +0.09    -0.248    31.207
ATOM     27  N   UNL d   1     -10.201  15.399  16.315 -0.04 +0.16    -0.248    31.207
ATOM     28  N   UNL d   1     -12.280  13.383  15.832 -0.07 +0.07    -0.248    31.207
ATOM     29 FE   UNL d   1     -10.260  13.523  16.022 -0.04 -0.00    +0.000    31.207
ATOM     30  C   UNL d   1     -12.016   8.050  15.398 -0.36 -0.00    +0.052    31.207
ATOM     31  C   UNL d   1     -12.876   7.938  16.657 -0.17 +0.01    +0.115    31.207
ATOM     32  C   UNL d   1     -12.176   8.480  17.885 -0.05 -0.01    +0.139    31.207
ATOM     33  O   UNL d   1     -11.269   7.837  18.392 +0.05 +0.09    -0.650    31.207
ATOM     34  O   UNL d   1     -12.490   9.684  18.416 +0.04 +0.02    -0.776    31.207
ATOM     35  H   UNL d   1     -11.877  10.228  18.931 +0.01 -0.01    +0.167    31.207
ATOM     36  C   UNL d   1     -10.399  13.095  18.069 -0.04 -0.04    +0.190    31.207
ATOM     37  O   UNL d   1     -10.926  12.175  18.982 -0.00 +0.05    -0.399    31.207
ATOM     38  H   UNL d   1     -11.419  11.513  18.423 +0.02 -0.02    +0.209    31.207
ATOM     39  C   UNL d   1     -15.736  11.994  15.556 -0.06 +0.01    +0.052    31.207
ATOM     40  C   UNL d   1     -15.738  10.845  16.577 -0.07 +0.03    +0.115    31.207
ATOM     41  C   UNL d   1     -16.841   9.828  16.372 -0.07 +0.13    +0.139    31.207
ATOM     42  O   UNL d   1     -17.768  10.095  15.619 -0.05 -0.80    -0.650    31.207
ATOM     43  O   UNL d   1     -16.786   8.598  16.929 -0.55 -1.08    -0.776    31.207
ATOM     44  H   UNL d   1     -16.110   8.349  17.572 +0.01 +0.12    +0.167    31.207
ATOM     45  C   UNL d   1      -4.917  14.888  16.381 -0.10 -0.00    +0.004    31.207
ATOM     46  C   UNL d   1      -4.489  15.807  15.520 -0.15 +0.00    +0.012    31.207
ATOM     47  C   UNL d   1     -11.747  18.605  17.162 -0.07 -0.00    +0.004    31.207
ATOM     48  C   UNL d   1     -12.621  19.126  16.297 -0.07 -0.01    +0.012    31.207
TER
ENDMDL
MODEL       51
USER    Run = 51
USER    Cluster Rank = 39
USER    Number of conformations in this cluster = 1
USER  
USER    RMSD from reference structure       = 14.305 A
USER  
USER    Estimated Free Energy of Binding    =   -3.35 kcal/mol  [=(1)+(2)+(3)-(4)]
USER    Estimated Inhibition Constant, Ki   =    3.49 mM (millimolar)  [Temperature = 298.15 K]
USER    
USER    (1) Final Intermolecular Energy     =   -6.93 kcal/mol
USER        vdW + Hbond + desolv Energy     =   -5.82 kcal/mol
USER        Electrostatic Energy            =   -1.11 kcal/mol
USER    (2) Final Total Internal Energy     =   -2.09 kcal/mol
USER    (3) Torsional Free Energy           =   +3.58 kcal/mol
USER    (4) Unbound System's Energy  [=(2)] =   -2.09 kcal/mol
USER    
USER    
USER  
USER    DPF = D:/Protein_go_brrr/autodock/final/AncMH_nat/heme_Co/dock.dpf
USER    NEWDPF move	heme_Co_opt.pdbqt
USER    NEWDPF about	8.781000 34.984000 -0.736000
USER    NEWDPF tran0	4.150328 20.895034 -2.498788
USER    NEWDPF axisangle0	0.371550 -0.927038 -0.050508 170.947429
USER    NEWDPF quaternion0	0.370391 -0.924147 -0.050350 0.078916
USER    NEWDPF dihe0	146.15 161.67 -180.00 115.08 -116.12 112.99 -129.04 -15.16 -129.41 -107.12 -174.14 -21.60 
USER  
USER                              x       y       z    vdW   Elec        q     RMS 
ATOM      1  C   UNL d   1       5.092  22.435  -1.292 -0.04 +0.01    +0.064    14.305
ATOM      2  C   UNL d   1       6.442  20.232  -5.284 -0.08 +0.01    +0.064    14.305
ATOM      3  C   UNL d   1       2.624  17.371  -5.041 -0.16 +0.00    +0.064    14.305
ATOM      4  C   UNL d   1       1.022  19.858  -1.179 -0.08 +0.01    +0.064    14.305
ATOM      5  C   UNL d   1       5.761  22.019  -2.381 -0.05 +0.01    +0.066    14.305
ATOM      6  C   UNL d   1       6.924  22.670  -2.837 -0.03 -0.00    -0.021    14.305
ATOM      7  C   UNL d   1       7.299  22.041  -4.008 -0.05 -0.00    -0.025    14.305
ATOM      8  C   UNL d   1       6.358  21.024  -4.207 -0.05 +0.01    +0.066    14.305
ATOM      9  C   UNL d   1       8.493  22.373  -4.916 -0.03 +0.00    +0.051    14.305
ATOM     10  C   UNL d   1       5.537  19.145  -5.559 -0.09 +0.01    +0.066    14.305
ATOM     11  C   UNL d   1       5.653  18.192  -6.594 -0.20 -0.00    -0.021    14.305
ATOM     12  C   UNL d   1       4.528  17.367  -6.497 -0.26 +0.00    +0.000    14.305
ATOM     13  C   UNL d   1       3.818  17.869  -5.406 -0.15 +0.01    +0.070    14.305
ATOM     14  C   UNL d   1       6.816  18.038  -7.540 -0.23 +0.00    +0.052    14.305
ATOM     15  C   UNL d   1       1.734  17.799  -3.979 -0.12 +0.00    +0.066    14.305
ATOM     16  C   UNL d   1       0.448  17.335  -3.746 -0.23 -0.00    -0.021    14.305
ATOM     17  C   UNL d   1      -0.020  18.051  -2.635 -0.22 +0.00    +0.000    14.305
ATOM     18  C   UNL d   1       1.030  18.886  -2.266 -0.12 +0.00    +0.070    14.305
ATOM     19  C   UNL d   1      -0.262  16.273  -4.556 -0.43 +0.01    +0.052    14.305
ATOM     20  C   UNL d   1       1.997  20.741  -0.856 -0.11 +0.01    +0.066    14.305
ATOM     21  C   UNL d   1       1.859  21.652   0.189 -0.10 -0.01    -0.025    14.305
ATOM     22  C   UNL d   1       3.029  22.388   0.199 -0.08 -0.01    -0.021    14.305
ATOM     23  C   UNL d   1       3.825  21.895  -0.857 -0.07 +0.01    +0.066    14.305
ATOM     24  C   UNL d   1       0.662  21.825   1.121 -0.10 +0.01    +0.051    14.305
ATOM     25  N   UNL d   1       5.397  20.984  -3.211 -0.05 -0.03    -0.248    14.305
ATOM     26  N   UNL d   1       4.457  18.908  -4.806 -0.07 -0.03    -0.248    14.305
ATOM     27  N   UNL d   1       2.046  18.731  -3.107 -0.04 -0.02    -0.248    14.305
ATOM     28  N   UNL d   1       3.203  20.899  -1.500 -0.05 -0.04    -0.248    14.305
ATOM     29 FE   UNL d   1       3.622  19.792  -3.153 -0.02 +0.00    +0.000    14.305
ATOM     30  C   UNL d   1       7.588  23.891  -2.211 -0.01 +0.00    +0.052    14.305
ATOM     31  C   UNL d   1       7.018  25.178  -2.807 +0.00 +0.00    +0.115    14.305
ATOM     32  C   UNL d   1       5.505  25.184  -2.826 +0.00 +0.00    +0.139    14.305
ATOM     33  O   UNL d   1       4.896  25.813  -1.974 +0.00 -0.02    -0.650    14.305
ATOM     34  O   UNL d   1       4.797  24.552  -3.791 +0.00 -0.02    -0.776    14.305
ATOM     35  H   UNL d   1       3.970  24.075  -3.634 +0.00 +0.00    +0.167    14.305
ATOM     36  C   UNL d   1       2.740  21.247  -4.379 -0.01 +0.01    +0.190    14.305
ATOM     37  O   UNL d   1       2.637  22.628  -4.571 +0.00 -0.01    -0.399    14.305
ATOM     38  H   UNL d   1       3.577  22.963  -4.538 +0.00 +0.00    +0.209    14.305
ATOM     39  C   UNL d   1       3.332  23.545   1.133 -0.04 +0.01    +0.052    14.305
ATOM     40  C   UNL d   1       3.777  23.028   2.511 -0.09 +0.06    +0.115    14.305
ATOM     41  C   UNL d   1       5.113  22.316   2.509 -0.01 +0.13    +0.139    14.305
ATOM     42  O   UNL d   1       6.008  22.721   3.237 -0.10 -0.48    -0.650    14.305
ATOM     43  O   UNL d   1       5.317  21.190   1.790 -0.55 -0.96    -0.776    14.305
ATOM     44  H   UNL d   1       6.132  20.676   1.849 -0.50 +0.17    +0.167    14.305
ATOM     45  C   UNL d   1       4.055  16.158  -7.294 -0.42 +0.00    +0.004    14.305
ATOM     46  C   UNL d   1       4.034  14.867  -6.977 -0.34 +0.00    +0.012    14.305
ATOM     47  C   UNL d   1      -1.358  18.019  -1.973 -0.29 +0.00    +0.004    14.305
ATOM     48  C   UNL d   1      -2.001  19.113  -1.557 -0.17 +0.00    +0.012    14.305
TER
ENDMDL
MODEL       95
USER    Run = 95
USER    Cluster Rank = 40
USER    Number of conformations in this cluster = 1
USER  
USER    RMSD from reference structure       = 19.636 A
USER  
USER    Estimated Free Energy of Binding    =   -3.31 kcal/mol  [=(1)+(2)+(3)-(4)]
USER    Estimated Inhibition Constant, Ki   =    3.72 mM (millimolar)  [Temperature = 298.15 K]
USER    
USER    (1) Final Intermolecular Energy     =   -6.89 kcal/mol
USER        vdW + Hbond + desolv Energy     =   -4.28 kcal/mol
USER        Electrostatic Energy            =   -2.61 kcal/mol
USER    (2) Final Total Internal Energy     =   -3.67 kcal/mol
USER    (3) Torsional Free Energy           =   +3.58 kcal/mol
USER    (4) Unbound System's Energy  [=(2)] =   -3.67 kcal/mol
USER    
USER    
USER  
USER    DPF = D:/Protein_go_brrr/autodock/final/AncMH_nat/heme_Co/dock.dpf
USER    NEWDPF move	heme_Co_opt.pdbqt
USER    NEWDPF about	8.781000 34.984000 -0.736000
USER    NEWDPF tran0	-6.364293 20.926144 6.484550
USER    NEWDPF axisangle0	-0.255235 0.090201 0.962662 145.628761
USER    NEWDPF quaternion0	-0.243840 0.086174 0.919682 0.295468
USER    NEWDPF dihe0	52.47 132.35 -102.89 -96.40 -30.87 87.98 40.58 114.64 148.87 135.71 -143.66 -180.00 
USER  
USER                              x       y       z    vdW   Elec        q     RMS 
ATOM      1  C   UNL d   1      -4.323  21.642   6.669 -0.03 +0.02    +0.064    19.636
ATOM      2  C   UNL d   1      -8.411  23.115   8.598 -0.02 -0.00    +0.064    19.636
ATOM      3  C   UNL d   1     -10.832  19.918   6.001 -0.04 -0.01    +0.064    19.636
ATOM      4  C   UNL d   1      -6.635  18.137   4.305 +0.13 -0.01    +0.064    19.636
ATOM      5  C   UNL d   1      -5.265  22.304   7.360 -0.02 +0.01    +0.066    19.636
ATOM      6  C   UNL d   1      -4.941  23.294   8.307 -0.02 -0.00    -0.021    19.636
ATOM      7  C   UNL d   1      -6.129  23.702   8.881 -0.01 -0.00    -0.025    19.636
ATOM      8  C   UNL d   1      -7.129  22.956   8.247 -0.02 +0.00    +0.066    19.636
ATOM      9  C   UNL d   1      -6.332  24.752   9.984 -0.01 +0.00    +0.051    19.636
ATOM     10  C   UNL d   1      -9.510  22.411   7.985 -0.02 -0.01    +0.066    19.636
ATOM     11  C   UNL d   1     -10.886  22.635   8.210 -0.01 +0.00    -0.021    19.636
ATOM     12  C   UNL d   1     -11.569  21.692   7.437 -0.01 -0.00    +0.000    19.636
ATOM     13  C   UNL d   1     -10.563  20.973   6.790 -0.02 -0.01    +0.070    19.636
ATOM     14  C   UNL d   1     -11.486  23.743   9.036 -0.00 -0.01    +0.052    19.636
ATOM     15  C   UNL d   1      -9.920  19.036   5.301 -0.09 -0.00    +0.066    19.636
ATOM     16  C   UNL d   1     -10.257  17.876   4.619 -0.18 +0.00    -0.021    19.636
ATOM     17  C   UNL d   1      -9.050  17.357   4.130 -0.27 -0.00    +0.000    19.636
ATOM     18  C   UNL d   1      -8.069  18.255   4.539 -0.15 -0.01    +0.070    19.636
ATOM     19  C   UNL d   1     -11.657  17.325   4.465 -0.24 -0.01    +0.052    19.636
ATOM     20  C   UNL d   1      -5.655  18.950   4.766 -0.04 +0.00    +0.066    19.636
ATOM     21  C   UNL d   1      -4.308  18.714   4.504 -0.17 -0.00    -0.025    19.636
ATOM     22  C   UNL d   1      -3.619  19.725   5.148 -0.11 -0.00    -0.021    19.636
ATOM     23  C   UNL d   1      -4.587  20.528   5.788 -0.06 +0.01    +0.066    19.636
ATOM     24  C   UNL d   1      -3.704  17.569   3.695 -0.32 +0.00    +0.051    19.636
ATOM     25  N   UNL d   1      -6.623  22.086   7.296 -0.01 -0.02    -0.248    19.636
ATOM     26  N   UNL d   1      -9.321  21.446   7.079 -0.01 +0.02    -0.248    19.636
ATOM     27  N   UNL d   1      -8.620  19.225   5.260 -0.07 +0.01    -0.248    19.636
ATOM     28  N   UNL d   1      -5.821  20.061   5.561 -0.05 -0.03    -0.248    19.636
ATOM     29 FE   UNL d   1      -7.677  20.570   6.216 -0.02 +0.00    +0.000    19.636
ATOM     30  C   UNL d   1      -3.541  23.759   8.693 -0.01 +0.01    +0.052    19.636
ATOM     31  C   UNL d   1      -2.717  22.592   9.237 -0.04 +0.05    +0.115    19.636
ATOM     32  C   UNL d   1      -3.566  21.587   9.986 +0.03 +0.15    +0.139    19.636
ATOM     33  O   UNL d   1      -3.754  21.734  11.184 -0.28 -0.67    -0.650    19.636
ATOM     34  O   UNL d   1      -4.168  20.548   9.361 -0.07 -1.14    -0.776    19.636
ATOM     35  H   UNL d   1      -3.722  19.955   8.741 +0.02 +0.28    +0.167    19.636
ATOM     36  C   UNL d   1      -7.438  19.356   7.908 -0.12 -0.02    +0.190    19.636
ATOM     37  O   UNL d   1      -6.476  18.693   8.677 -0.12 -0.10    -0.399    19.636
ATOM     38  H   UNL d   1      -5.612  19.132   8.441 +0.04 +0.14    +0.209    19.636
ATOM     39  C   UNL d   1      -2.109  19.868   5.198 -0.12 +0.01    +0.052    19.636
ATOM     40  C   UNL d   1      -1.506  18.905   6.234 -0.16 +0.05    +0.115    19.636
ATOM     41  C   UNL d   1      -2.170  18.956   7.594 -0.15 +0.12    +0.139    19.636
ATOM     42  O   UNL d   1      -1.579  19.478   8.529 -0.02 -0.76    -0.650    19.636
ATOM     43  O   UNL d   1      -3.434  18.518   7.785 -0.31 -0.86    -0.776    19.636
ATOM     44  H   UNL d   1      -4.196  19.112   7.782 +0.04 +0.16    +0.167    19.636
ATOM     45  C   UNL d   1     -13.048  21.401   7.221 -0.01 -0.00    +0.004    19.636
ATOM     46  C   UNL d   1     -13.813  20.417   7.686 -0.01 -0.00    +0.012    19.636
ATOM     47  C   UNL d   1      -8.789  16.093   3.378 -0.46 -0.00    +0.004    19.636
ATOM     48  C   UNL d   1      -9.200  14.892   3.790 -0.63 -0.00    +0.012    19.636
TER
ENDMDL
MODEL       46
USER    Run = 46
USER    Cluster Rank = 41
USER    Number of conformations in this cluster = 2
USER  
USER    RMSD from reference structure       = 45.148 A
USER  
USER    Estimated Free Energy of Binding    =   -3.24 kcal/mol  [=(1)+(2)+(3)-(4)]
USER    Estimated Inhibition Constant, Ki   =    4.22 mM (millimolar)  [Temperature = 298.15 K]
USER    
USER    (1) Final Intermolecular Energy     =   -6.82 kcal/mol
USER        vdW + Hbond + desolv Energy     =   -7.29 kcal/mol
USER        Electrostatic Energy            =   +0.47 kcal/mol
USER    (2) Final Total Internal Energy     =   -3.29 kcal/mol
USER    (3) Torsional Free Energy           =   +3.58 kcal/mol
USER    (4) Unbound System's Energy  [=(2)] =   -3.29 kcal/mol
USER    
USER    
USER  
USER    DPF = D:/Protein_go_brrr/autodock/final/AncMH_nat/heme_Co/dock.dpf
USER    NEWDPF move	heme_Co_opt.pdbqt
USER    NEWDPF about	8.781000 34.984000 -0.736000
USER    NEWDPF tran0	10.288028 -10.852065 -6.905525
USER    NEWDPF axisangle0	0.320350 -0.541802 0.777063 171.169349
USER    NEWDPF quaternion0	0.319399 -0.540194 0.774757 0.076986
USER    NEWDPF dihe0	-116.62 105.64 -58.47 115.30 132.64 102.90 43.05 -12.87 180.00 -175.36 -165.28 -179.94 
USER  
USER                              x       y       z    vdW   Elec        q     RMS 
ATOM      1  C   UNL d   1      11.201  -9.486  -8.325 -0.29 -0.04    +0.064    45.148
ATOM      2  C   UNL d   1      12.974 -11.937  -4.656 -0.22 -0.02    +0.064    45.148
ATOM      3  C   UNL d   1       8.593 -13.463  -3.511 -0.20 -0.01    +0.064    45.148
ATOM      4  C   UNL d   1       6.811 -11.282  -7.477 -0.22 -0.01    +0.064    45.148
ATOM      5  C   UNL d   1      12.002 -10.014  -7.385 -0.26 -0.03    +0.066    45.148
ATOM      6  C   UNL d   1      13.401  -9.851  -7.418 -0.26 +0.01    -0.021    45.148
ATOM      7  C   UNL d   1      13.912 -10.583  -6.364 -0.24 +0.01    -0.025    45.148
ATOM      8  C   UNL d   1      12.804 -11.148  -5.725 -0.24 -0.02    +0.066    45.148
ATOM      9  C   UNL d   1      15.385 -10.754  -5.963 -0.18 -0.01    +0.051    45.148
ATOM     10  C   UNL d   1      11.892 -12.540  -3.918 -0.20 -0.02    +0.066    45.148
ATOM     11  C   UNL d   1      11.996 -13.262  -2.709 -0.14 +0.01    -0.021    45.148
ATOM     12  C   UNL d   1      10.703 -13.692  -2.395 -0.17 -0.00    +0.000    45.148
ATOM     13  C   UNL d   1       9.908 -13.191  -3.426 -0.20 -0.02    +0.070    45.148
ATOM     14  C   UNL d   1      13.240 -13.434  -1.876 -0.10 -0.01    +0.052    45.148
ATOM     15  C   UNL d   1       7.637 -13.074  -4.529 -0.20 +0.00    +0.066    45.148
ATOM     16  C   UNL d   1       6.324 -13.509  -4.633 -0.10 -0.00    -0.021    45.148
ATOM     17  C   UNL d   1       5.806 -12.885  -5.777 -0.20 +0.00    +0.000    45.148
ATOM     18  C   UNL d   1       6.844 -12.102  -6.272 -0.21 -0.00    +0.070    45.148
ATOM     19  C   UNL d   1       5.638 -14.464  -3.682 -0.12 +0.00    +0.052    45.148
ATOM     20  C   UNL d   1       7.832 -10.581  -8.025 -0.21 -0.01    +0.066    45.148
ATOM     21  C   UNL d   1       7.687  -9.858  -9.207 -0.23 +0.00    -0.025    45.148
ATOM     22  C   UNL d   1       8.930  -9.306  -9.461 -0.27 +0.01    -0.021    45.148
ATOM     23  C   UNL d   1       9.780  -9.732  -8.419 -0.29 -0.03    +0.066    45.148
ATOM     24  C   UNL d   1       6.433  -9.717 -10.065 -0.31 -0.01    +0.051    45.148
ATOM     25  N   UNL d   1      11.607 -10.807  -6.332 -0.14 +0.11    -0.248    45.148
ATOM     26  N   UNL d   1      10.619 -12.448  -4.316 -0.02 +0.10    -0.248    45.148
ATOM     27  N   UNL d   1       7.928 -12.263  -5.521 -0.15 +0.04    -0.248    45.148
ATOM     28  N   UNL d   1       9.120 -10.506  -7.549 -0.14 +0.09    -0.248    45.148
ATOM     29 FE   UNL d   1       9.657 -11.576  -5.905 -0.05 -0.00    +0.000    45.148
ATOM     30  C   UNL d   1      14.204  -9.090  -8.468 -0.29 -0.04    +0.052    45.148
ATOM     31  C   UNL d   1      14.416  -9.954  -9.711 -0.12 -0.06    +0.115    45.148
ATOM     32  C   UNL d   1      13.822 -11.338  -9.561 -0.03 -0.05    +0.139    45.148
ATOM     33  O   UNL d   1      14.485 -12.223  -9.041 +0.04 +0.15    -0.650    45.148
ATOM     34  O   UNL d   1      12.555 -11.620  -9.941 +0.06 +0.24    -0.776    45.148
ATOM     35  H   UNL d   1      11.870 -11.957  -9.346 +0.03 -0.05    +0.167    45.148
ATOM     36  C   UNL d   1      10.163 -13.216  -7.109 -0.06 -0.04    +0.190    45.148
ATOM     37  O   UNL d   1      10.660 -13.561  -8.370 +0.00 +0.07    -0.399    45.148
ATOM     38  H   UNL d   1      10.700 -12.701  -8.874 +0.03 -0.04    +0.209    45.148
ATOM     39  C   UNL d   1       9.289  -8.469 -10.675 -0.28 -0.02    +0.052    45.148
ATOM     40  C   UNL d   1       9.524  -9.366 -11.902 -0.14 -0.03    +0.115    45.148
ATOM     41  C   UNL d   1       9.372 -10.848 -11.631 -0.04 -0.03    +0.139    45.148
ATOM     42  O   UNL d   1       8.596 -11.504 -12.312 +0.03 +0.09    -0.650    45.148
ATOM     43  O   UNL d   1      10.134 -11.485 -10.714 +0.06 +0.18    -0.776    45.148
ATOM     44  H   UNL d   1      11.098 -11.426 -10.709 +0.03 -0.05    +0.167    45.148
ATOM     45  C   UNL d   1      10.129 -14.497  -1.237 -0.12 -0.00    +0.004    45.148
ATOM     46  C   UNL d   1       9.384 -14.115  -0.203 -0.15 -0.00    +0.012    45.148
ATOM     47  C   UNL d   1       4.464 -13.026  -6.416 -0.31 -0.00    +0.004    45.148
ATOM     48  C   UNL d   1       3.547 -12.056  -6.429 -0.45 -0.00    +0.012    45.148
TER
ENDMDL
MODEL       38
USER    Run = 38
USER    Cluster Rank = 42
USER    Number of conformations in this cluster = 1
USER  
USER    RMSD from reference structure       = 23.262 A
USER  
USER    Estimated Free Energy of Binding    =   -3.21 kcal/mol  [=(1)+(2)+(3)-(4)]
USER    Estimated Inhibition Constant, Ki   =    4.40 mM (millimolar)  [Temperature = 298.15 K]
USER    
USER    (1) Final Intermolecular Energy     =   -6.79 kcal/mol
USER        vdW + Hbond + desolv Energy     =   -4.91 kcal/mol
USER        Electrostatic Energy            =   -1.88 kcal/mol
USER    (2) Final Total Internal Energy     =   -2.17 kcal/mol
USER    (3) Torsional Free Energy           =   +3.58 kcal/mol
USER    (4) Unbound System's Energy  [=(2)] =   -2.17 kcal/mol
USER    
USER    
USER  
USER    DPF = D:/Protein_go_brrr/autodock/final/AncMH_nat/heme_Co/dock.dpf
USER    NEWDPF move	heme_Co_opt.pdbqt
USER    NEWDPF about	8.781000 34.984000 -0.736000
USER    NEWDPF tran0	-3.028534 17.913919 14.573237
USER    NEWDPF axisangle0	-0.150552 0.210432 0.965946 118.073406
USER    NEWDPF quaternion0	-0.129098 0.180445 0.828296 0.514489
USER    NEWDPF dihe0	-167.03 117.95 43.17 51.97 -89.41 139.92 30.96 -173.91 -180.00 150.78 -173.87 29.80 
USER  
USER                              x       y       z    vdW   Elec        q     RMS 
ATOM      1  C   UNL d   1      -1.441  19.310  14.077 -0.07 +0.04    +0.064    23.262
ATOM      2  C   UNL d   1      -5.627  19.877  16.260 -0.08 +0.00    +0.064    23.262
ATOM      3  C   UNL d   1      -6.734  15.308  15.405 -0.20 -0.02    +0.064    23.262
ATOM      4  C   UNL d   1      -2.308  14.603  13.513 -0.17 -0.00    +0.064    23.262
ATOM      5  C   UNL d   1      -2.518  19.810  14.704 -0.08 +0.03    +0.066    23.262
ATOM      6  C   UNL d   1      -2.553  21.131  15.192 -0.04 -0.01    -0.021    23.262
ATOM      7  C   UNL d   1      -3.761  21.283  15.844 -0.03 -0.00    -0.025    23.262
ATOM      8  C   UNL d   1      -4.417  20.055  15.713 -0.08 +0.01    +0.066    23.262
ATOM      9  C   UNL d   1      -4.290  22.530  16.569 -0.01 +0.00    +0.051    23.262
ATOM     10  C   UNL d   1      -6.389  18.658  16.154 -0.13 -0.01    +0.066    23.262
ATOM     11  C   UNL d   1      -7.719  18.455  16.584 -0.14 +0.01    -0.021    23.262
ATOM     12  C   UNL d   1      -8.018  17.116  16.319 -0.21 -0.00    +0.000    23.262
ATOM     13  C   UNL d   1      -6.857  16.606  15.738 -0.20 -0.02    +0.070    23.262
ATOM     14  C   UNL d   1      -8.654  19.508  17.121 -0.09 -0.02    +0.052    23.262
ATOM     15  C   UNL d   1      -5.596  14.605  14.847 -0.25 -0.01    +0.066    23.262
ATOM     16  C   UNL d   1      -5.485  13.235  14.661 -0.29 +0.00    -0.021    23.262
ATOM     17  C   UNL d   1      -4.210  13.026  14.118 -0.30 -0.00    +0.000    23.262
ATOM     18  C   UNL d   1      -3.647  14.292  13.999 -0.20 -0.00    +0.070    23.262
ATOM     19  C   UNL d   1      -6.552  12.216  14.995 -0.29 -0.01    +0.052    23.262
ATOM     20  C   UNL d   1      -1.709  15.817  13.469 -0.11 +0.02    +0.066    23.262
ATOM     21  C   UNL d   1      -0.403  15.985  13.014 -0.09 -0.00    -0.025    23.262
ATOM     22  C   UNL d   1      -0.135  17.336  13.138 -0.06 -0.01    -0.021    23.262
ATOM     23  C   UNL d   1      -1.297  17.928  13.678 -0.04 +0.05    +0.066    23.262
ATOM     24  C   UNL d   1       0.552  14.908  12.505 -0.10 -0.01    +0.051    23.262
ATOM     25  N   UNL d   1      -3.674  19.125  15.006 -0.09 -0.10    -0.248    23.262
ATOM     26  N   UNL d   1      -5.893  17.553  15.587 -0.12 +0.01    -0.248    23.262
ATOM     27  N   UNL d   1      -4.489  15.206  14.470 -0.12 -0.01    -0.248    23.262
ATOM     28  N   UNL d   1      -2.251  17.012  13.882 -0.04 -0.15    -0.248    23.262
ATOM     29 FE   UNL d   1      -4.102  17.049  14.720 -0.04 +0.00    +0.000    23.262
ATOM     30  C   UNL d   1      -1.435  22.164  15.100 -0.01 +0.01    +0.052    23.262
ATOM     31  C   UNL d   1      -0.515  22.070  16.317 +0.00 +0.01    +0.115    23.262
ATOM     32  C   UNL d   1      -0.973  21.021  17.307 +0.00 +0.01    +0.139    23.262
ATOM     33  O   UNL d   1      -1.614  21.362  18.290 +0.00 -0.02    -0.650    23.262
ATOM     34  O   UNL d   1      -0.738  19.702  17.116 +0.01 -0.06    -0.776    23.262
ATOM     35  H   UNL d   1      -1.118  18.998  17.659 +0.00 +0.01    +0.167    23.262
ATOM     36  C   UNL d   1      -3.274  16.732  16.620 -0.03 +0.01    +0.190    23.262
ATOM     37  O   UNL d   1      -2.492  17.337  17.609 +0.00 -0.01    -0.399    23.262
ATOM     38  H   UNL d   1      -2.334  18.265  17.280 +0.01 +0.01    +0.209    23.262
ATOM     39  C   UNL d   1       1.188  18.004  12.815 -0.02 +0.02    +0.052    23.262
ATOM     40  C   UNL d   1       0.969  19.243  11.932 -0.03 +0.05    +0.115    23.262
ATOM     41  C   UNL d   1      -0.168  19.111  10.940 +0.11 +0.16    +0.139    23.262
ATOM     42  O   UNL d   1      -0.381  18.027  10.415 -0.43 -0.83    -0.650    23.262
ATOM     43  O   UNL d   1      -1.010  20.136  10.685 +0.11 -1.17    -0.776    23.262
ATOM     44  H   UNL d   1      -0.697  21.026  10.477 +0.01 +0.14    +0.167    23.262
ATOM     45  C   UNL d   1      -9.265  16.269  16.530 -0.15 -0.00    +0.004    23.262
ATOM     46  C   UNL d   1     -10.547  16.543  16.302 -0.19 -0.01    +0.012    23.262
ATOM     47  C   UNL d   1      -3.517  11.749  13.773 -0.37 -0.00    +0.004    23.262
ATOM     48  C   UNL d   1      -2.458  11.281  14.439 -0.30 -0.00    +0.012    23.262
TER
ENDMDL
MODEL       84
USER    Run = 84
USER    Cluster Rank = 43
USER    Number of conformations in this cluster = 1
USER  
USER    RMSD from reference structure       = 25.357 A
USER  
USER    Estimated Free Energy of Binding    =   -3.18 kcal/mol  [=(1)+(2)+(3)-(4)]
USER    Estimated Inhibition Constant, Ki   =    4.65 mM (millimolar)  [Temperature = 298.15 K]
USER    
USER    (1) Final Intermolecular Energy     =   -6.76 kcal/mol
USER        vdW + Hbond + desolv Energy     =   -5.42 kcal/mol
USER        Electrostatic Energy            =   -1.34 kcal/mol
USER    (2) Final Total Internal Energy     =   -2.25 kcal/mol
USER    (3) Torsional Free Energy           =   +3.58 kcal/mol
USER    (4) Unbound System's Energy  [=(2)] =   -2.25 kcal/mol
USER    
USER    
USER  
USER    DPF = D:/Protein_go_brrr/autodock/final/AncMH_nat/heme_Co/dock.dpf
USER    NEWDPF move	heme_Co_opt.pdbqt
USER    NEWDPF about	8.781000 34.984000 -0.736000
USER    NEWDPF tran0	-5.452537 16.803272 15.556706
USER    NEWDPF axisangle0	-0.535477 0.070752 0.841581 73.969896
USER    NEWDPF quaternion0	-0.322146 0.042565 0.506300 0.798794
USER    NEWDPF dihe0	-173.40 119.98 98.85 -6.02 -19.41 131.37 34.70 179.19 177.14 96.40 -169.80 -1.26 
USER  
USER                              x       y       z    vdW   Elec        q     RMS 
ATOM      1  C   UNL d   1      -5.663  18.962  15.664 -0.13 +0.00    +0.064    25.357
ATOM      2  C   UNL d   1      -8.605  15.404  16.802 -0.10 -0.03    +0.064    25.357
ATOM      3  C   UNL d   1      -5.483  12.222  15.082 -0.23 -0.01    +0.064    25.357
ATOM      4  C   UNL d   1      -2.299  15.808  14.265 -0.09 +0.01    +0.064    25.357
ATOM      5  C   UNL d   1      -6.712  18.226  16.068 -0.15 -0.01    +0.066    25.357
ATOM      6  C   UNL d   1      -7.827  18.802  16.708 -0.13 +0.01    -0.021    25.357
ATOM      7  C   UNL d   1      -8.667  17.762  17.057 -0.13 +0.01    -0.025    25.357
ATOM      8  C   UNL d   1      -8.037  16.599  16.600 -0.17 -0.03    +0.066    25.357
ATOM      9  C   UNL d   1     -10.013  17.845  17.792 -0.08 -0.02    +0.051    25.357
ATOM     10  C   UNL d   1      -8.045  14.156  16.345 -0.07 -0.03    +0.066    25.357
ATOM     11  C   UNL d   1      -8.658  12.885  16.401 -0.18 +0.01    -0.021    25.357
ATOM     12  C   UNL d   1      -7.727  11.977  15.890 -0.26 -0.00    +0.000    25.357
ATOM     13  C   UNL d   1      -6.624  12.760  15.549 -0.23 -0.01    +0.070    25.357
ATOM     14  C   UNL d   1     -10.074  12.596  16.828 -0.14 -0.01    +0.052    25.357
ATOM     15  C   UNL d   1      -4.236  12.872  14.732 -0.19 -0.01    +0.066    25.357
ATOM     16  C   UNL d   1      -3.046  12.243  14.393 -0.23 +0.01    -0.021    25.357
ATOM     17  C   UNL d   1      -2.124  13.273  14.159 -0.16 -0.00    +0.000    25.357
ATOM     18  C   UNL d   1      -2.831  14.454  14.357 -0.12 -0.00    +0.070    25.357
ATOM     19  C   UNL d   1      -2.838  10.747  14.311 -0.23 -0.02    +0.052    25.357
ATOM     20  C   UNL d   1      -2.944  16.968  14.537 -0.06 +0.03    +0.066    25.357
ATOM     21  C   UNL d   1      -2.315  18.207  14.446 -0.08 -0.01    -0.025    25.357
ATOM     22  C   UNL d   1      -3.269  19.138  14.816 -0.09 -0.01    -0.021    25.357
ATOM     23  C   UNL d   1      -4.439  18.413  15.128 -0.12 +0.02    +0.066    25.357
ATOM     24  C   UNL d   1      -0.870  18.491  14.046 -0.07 +0.03    +0.051    25.357
ATOM     25  N   UNL d   1      -6.827  16.857  15.978 -0.14 +0.05    -0.248    25.357
ATOM     26  N   UNL d   1      -6.839  14.084  15.772 -0.14 +0.07    -0.248    25.357
ATOM     27  N   UNL d   1      -4.077  14.177  14.726 -0.08 +0.02    -0.248    25.357
ATOM     28  N   UNL d   1      -4.246  17.099  14.962 -0.09 -0.06    -0.248    25.357
ATOM     29 FE   UNL d   1      -5.369  15.440  15.314 -0.04 -0.00    +0.000    25.357
ATOM     30  C   UNL d   1      -8.025  20.277  17.038 -0.07 -0.01    +0.052    25.357
ATOM     31  C   UNL d   1      -7.369  20.622  18.375 -0.01 -0.01    +0.115    25.357
ATOM     32  C   UNL d   1      -6.802  19.403  19.071 -0.01 -0.01    +0.139    25.357
ATOM     33  O   UNL d   1      -7.475  18.822  19.908 +0.01 +0.07    -0.650    25.357
ATOM     34  O   UNL d   1      -5.584  18.902  18.761 +0.02 +0.05    -0.776    25.357
ATOM     35  H   UNL d   1      -5.205  18.107  19.160 +0.01 -0.01    +0.167    25.357
ATOM     36  C   UNL d   1      -4.693  15.375  17.297 -0.03 -0.01    +0.190    25.357
ATOM     37  O   UNL d   1      -4.663  16.107  18.489 +0.00 +0.03    -0.399    25.357
ATOM     38  H   UNL d   1      -5.240  16.903  18.315 +0.02 -0.01    +0.209    25.357
ATOM     39  C   UNL d   1      -3.043  20.634  14.925 -0.08 +0.02    +0.052    25.357
ATOM     40  C   UNL d   1      -3.582  21.356  13.679 -0.09 +0.06    +0.115    25.357
ATOM     41  C   UNL d   1      -2.579  21.492  12.552 +0.02 +0.13    +0.139    25.357
ATOM     42  O   UNL d   1      -1.426  21.806  12.812 -0.04 -0.35    -0.650    25.357
ATOM     43  O   UNL d   1      -2.901  21.190  11.275 -0.32 -1.41    -0.776    25.357
ATOM     44  H   UNL d   1      -3.058  21.868  10.605 +0.01 +0.16    +0.167    25.357
ATOM     45  C   UNL d   1      -7.760  10.471  15.667 -0.29 -0.00    +0.004    25.357
ATOM     46  C   UNL d   1      -8.596   9.545  16.130 -0.31 -0.00    +0.012    25.357
ATOM     47  C   UNL d   1      -0.671  13.195  13.824 -0.15 -0.00    +0.004    25.357
ATOM     48  C   UNL d   1       0.172  12.329  14.394 -0.17 +0.00    +0.012    25.357
TER
ENDMDL
MODEL        4
USER    Run = 4
USER    Cluster Rank = 44
USER    Number of conformations in this cluster = 1
USER  
USER    RMSD from reference structure       = 25.289 A
USER  
USER    Estimated Free Energy of Binding    =   -2.73 kcal/mol  [=(1)+(2)+(3)-(4)]
USER    Estimated Inhibition Constant, Ki   =    9.97 mM (millimolar)  [Temperature = 298.15 K]
USER    
USER    (1) Final Intermolecular Energy     =   -6.31 kcal/mol
USER        vdW + Hbond + desolv Energy     =   -4.27 kcal/mol
USER        Electrostatic Energy            =   -2.04 kcal/mol
USER    (2) Final Total Internal Energy     =   -2.24 kcal/mol
USER    (3) Torsional Free Energy           =   +3.58 kcal/mol
USER    (4) Unbound System's Energy  [=(2)] =   -2.24 kcal/mol
USER    
USER    
USER  
USER    DPF = D:/Protein_go_brrr/autodock/final/AncMH_nat/heme_Co/dock.dpf
USER    NEWDPF move	heme_Co_opt.pdbqt
USER    NEWDPF about	8.781000 34.984000 -0.736000
USER    NEWDPF tran0	0.272661 12.343040 14.531750
USER    NEWDPF axisangle0	0.333345 -0.624985 -0.705885 -45.170233
USER    NEWDPF quaternion0	0.128023 -0.240029 -0.271099 -0.923310
USER    NEWDPF dihe0	-76.13 118.19 -83.41 -7.09 137.56 119.14 55.67 -85.62 -95.88 49.96 179.55 135.06 
USER  
USER                              x       y       z    vdW   Elec        q     RMS 
ATOM      1  C   UNL d   1      -0.500  13.930  13.267 -0.00 -0.03    +0.064    25.289
ATOM      2  C   UNL d   1      -2.654  10.644  15.945 -0.18 -0.02    +0.064    25.289
ATOM      3  C   UNL d   1       1.568   8.650  16.961 -0.11 +0.01    +0.064    25.289
ATOM      4  C   UNL d   1       3.821  12.223  14.547 -0.02 +0.04    +0.064    25.289
ATOM      5  C   UNL d   1      -1.402  13.157  13.895 -0.13 -0.03    +0.066    25.289
ATOM      6  C   UNL d   1      -2.777  13.463  13.895 -0.21 +0.00    -0.021    25.289
ATOM      7  C   UNL d   1      -3.394  12.519  14.693 -0.19 +0.00    -0.025    25.289
ATOM      8  C   UNL d   1      -2.373  11.669  15.131 -0.15 -0.01    +0.066    25.289
ATOM      9  C   UNL d   1      -4.887  12.409  15.039 -0.25 -0.01    +0.051    25.289
ATOM     10  C   UNL d   1      -1.674   9.702  16.425 -0.14 -0.01    +0.066    25.289
ATOM     11  C   UNL d   1      -1.926   8.527  17.166 -0.21 +0.01    -0.021    25.289
ATOM     12  C   UNL d   1      -0.678   7.963  17.445 -0.19 -0.00    +0.000    25.289
ATOM     13  C   UNL d   1       0.239   8.826  16.845 -0.13 +0.00    +0.070    25.289
ATOM     14  C   UNL d   1      -3.279   7.950  17.491 -0.19 -0.05    +0.052    25.289
ATOM     15  C   UNL d   1       2.651   9.468  16.453 -0.08 +0.03    +0.066    25.289
ATOM     16  C   UNL d   1       4.002   9.310  16.731 -0.05 -0.01    -0.021    25.289
ATOM     17  C   UNL d   1       4.656  10.340  16.039 -0.04 +0.00    +0.000    25.289
ATOM     18  C   UNL d   1       3.650  11.037  15.378 +0.02 +0.05    +0.070    25.289
ATOM     19  C   UNL d   1       4.596   8.231  17.609 -0.03 +0.00    +0.052    25.289
ATOM     20  C   UNL d   1       2.851  12.968  13.965 -0.06 +0.03    +0.066    25.289
ATOM     21  C   UNL d   1       3.137  14.109  13.219 -0.04 -0.00    -0.025    25.289
ATOM     22  C   UNL d   1       1.912  14.606  12.812 -0.06 +0.00    -0.021    25.289
ATOM     23  C   UNL d   1       0.931  13.744  13.345 -0.09 -0.01    +0.066    25.289
ATOM     24  C   UNL d   1       4.509  14.708  12.923 -0.00 +0.01    +0.051    25.289
ATOM     25  N   UNL d   1      -1.129  12.037  14.647 -0.10 +0.05    -0.248    25.289
ATOM     26  N   UNL d   1      -0.367   9.846  16.182 -0.06 -0.01    -0.248    25.289
ATOM     27  N   UNL d   1       2.467  10.509  15.671 -0.05 -0.21    -0.248    25.289
ATOM     28  N   UNL d   1       1.495  12.752  14.046 -0.07 -0.09    -0.248    25.289
ATOM     29 FE   UNL d   1       0.777  11.230  15.187 -0.03 +0.00    +0.000    25.289
ATOM     30  C   UNL d   1      -3.443  14.659  13.223 -0.31 +0.00    +0.052    25.289
ATOM     31  C   UNL d   1      -3.643  15.795  14.226 -0.10 +0.03    +0.115    25.289
ATOM     32  C   UNL d   1      -2.394  16.628  14.411 -0.09 +0.05    +0.139    25.289
ATOM     33  O   UNL d   1      -1.456  16.173  15.049 +0.02 -0.09    -0.650    25.289
ATOM     34  O   UNL d   1      -2.257  17.852  13.849 +0.05 -0.64    -0.776    25.289
ATOM     35  H   UNL d   1      -2.010  18.003  12.927 +0.06 +0.28    +0.167    25.289
ATOM     36  C   UNL d   1       0.709  12.488  16.863 +0.00 +0.01    +0.190    25.289
ATOM     37  O   UNL d   1       0.284  13.749  17.293 +0.01 -0.00    -0.399    25.289
ATOM     38  H   UNL d   1      -0.201  14.137  16.511 +0.01 -0.00    +0.209    25.289
ATOM     39  C   UNL d   1       1.701  15.877  12.011 -0.04 +0.00    +0.052    25.289
ATOM     40  C   UNL d   1       0.761  16.838  12.757 -0.03 +0.03    +0.115    25.289
ATOM     41  C   UNL d   1      -0.300  17.477  11.885 -0.02 +0.12    +0.139    25.289
ATOM     42  O   UNL d   1      -1.014  16.765  11.193 -0.49 -0.74    -0.650    25.289
ATOM     43  O   UNL d   1      -0.539  18.807  11.916 -0.10 -1.05    -0.776    25.289
ATOM     44  H   UNL d   1      -1.038  19.228  12.628 +0.00 +0.22    +0.167    25.289
ATOM     45  C   UNL d   1      -0.249   6.705  18.189 -0.19 -0.00    +0.004    25.289
ATOM     46  C   UNL d   1      -0.927   5.919  19.022 -0.18 -0.00    +0.012    25.289
ATOM     47  C   UNL d   1       6.104  10.705  16.017 -0.01 +0.00    +0.004    25.289
ATOM     48  C   UNL d   1       6.863  10.641  14.920 -0.02 +0.00    +0.012    25.289
TER
ENDMDL
MODEL       80
USER    Run = 80
USER    Cluster Rank = 45
USER    Number of conformations in this cluster = 1
USER  
USER    RMSD from reference structure       = 40.858 A
USER  
USER    Estimated Free Energy of Binding    =   -2.24 kcal/mol  [=(1)+(2)+(3)-(4)]
USER    Estimated Inhibition Constant, Ki   =   22.98 mM (millimolar)  [Temperature = 298.15 K]
USER    
USER    (1) Final Intermolecular Energy     =   -5.82 kcal/mol
USER        vdW + Hbond + desolv Energy     =   -6.16 kcal/mol
USER        Electrostatic Energy            =   +0.34 kcal/mol
USER    (2) Final Total Internal Energy     =   -2.75 kcal/mol
USER    (3) Torsional Free Energy           =   +3.58 kcal/mol
USER    (4) Unbound System's Energy  [=(2)] =   -2.75 kcal/mol
USER    
USER    
USER  
USER    DPF = D:/Protein_go_brrr/autodock/final/AncMH_nat/heme_Co/dock.dpf
USER    NEWDPF move	heme_Co_opt.pdbqt
USER    NEWDPF about	8.781000 34.984000 -0.736000
USER    NEWDPF tran0	17.652077 -7.403455 -2.143810
USER    NEWDPF axisangle0	0.557413 0.556501 0.616115 -142.818522
USER    NEWDPF quaternion0	0.528327 0.527462 0.583966 -0.318806
USER    NEWDPF dihe0	-129.54 106.35 -146.15 18.26 -89.14 158.66 41.14 101.75 78.27 -83.36 18.78 -17.76 
USER  
USER                              x       y       z    vdW   Elec        q     RMS 
ATOM      1  C   UNL d   1      17.395  -9.560  -2.114 -0.10 -0.01    +0.064    40.858
ATOM      2  C   UNL d   1      20.164  -6.707  -4.724 -0.09 -0.01    +0.064    40.858
ATOM      3  C   UNL d   1      18.136  -2.862  -2.740 -0.33 -0.02    +0.064    40.858
ATOM      4  C   UNL d   1      15.572  -5.754   0.213 -0.24 -0.01    +0.064    40.858
ATOM      5  C   UNL d   1      18.275  -9.062  -2.999 -0.10 -0.01    +0.066    40.858
ATOM      6  C   UNL d   1      19.134  -9.892  -3.746 -0.06 +0.00    -0.021    40.858
ATOM      7  C   UNL d   1      19.951  -9.059  -4.484 -0.06 +0.00    -0.025    40.858
ATOM      8  C   UNL d   1      19.545  -7.757  -4.169 -0.08 -0.01    +0.066    40.858
ATOM      9  C   UNL d   1      21.075  -9.457  -5.452 -0.02 -0.01    +0.051    40.858
ATOM     10  C   UNL d   1      19.798  -5.334  -4.481 -0.12 -0.01    +0.066    40.858
ATOM     11  C   UNL d   1      20.314  -4.195  -5.136 -0.14 +0.00    -0.021    40.858
ATOM     12  C   UNL d   1      19.703  -3.088  -4.541 -0.25 -0.00    +0.000    40.858
ATOM     13  C   UNL d   1      18.853  -3.632  -3.578 -0.28 -0.02    +0.070    40.858
ATOM     14  C   UNL d   1      21.254  -4.193  -6.314 -0.07 -0.01    +0.052    40.858
ATOM     15  C   UNL d   1      17.254  -3.254  -1.659 -0.29 -0.02    +0.066    40.858
ATOM     16  C   UNL d   1      16.656  -2.407  -0.737 -0.34 +0.01    -0.021    40.858
ATOM     17  C   UNL d   1      15.917  -3.236   0.119 -0.32 -0.00    +0.000    40.858
ATOM     18  C   UNL d   1      16.110  -4.527  -0.361 -0.26 -0.02    +0.070    40.858
ATOM     19  C   UNL d   1      16.805  -0.902  -0.703 -0.21 -0.01    +0.052    40.858
ATOM     20  C   UNL d   1      15.815  -7.026  -0.184 -0.20 -0.01    +0.066    40.858
ATOM     21  C   UNL d   1      15.268  -8.127   0.472 -0.20 +0.01    -0.025    40.858
ATOM     22  C   UNL d   1      15.753  -9.237  -0.195 -0.16 +0.00    -0.021    40.858
ATOM     23  C   UNL d   1      16.588  -8.755  -1.225 -0.11 -0.01    +0.066    40.858
ATOM     24  C   UNL d   1      14.344  -8.123   1.687 -0.24 -0.01    +0.051    40.858
ATOM     25  N   UNL d   1      18.504  -7.730  -3.256 -0.10 +0.03    -0.248    40.858
ATOM     26  N   UNL d   1      18.870  -4.992  -3.581 -0.13 +0.05    -0.248    40.858
ATOM     27  N   UNL d   1      16.935  -4.503  -1.402 -0.18 +0.07    -0.248    40.858
ATOM     28  N   UNL d   1      16.630  -7.417  -1.221 -0.12 +0.03    -0.248    40.858
ATOM     29 FE   UNL d   1      17.671  -6.023  -2.273 -0.05 -0.00    +0.000    40.858
ATOM     30  C   UNL d   1      19.212 -11.414  -3.681 -0.02 -0.01    +0.052    40.858
ATOM     31  C   UNL d   1      18.513 -12.040  -4.887 -0.01 -0.01    +0.115    40.858
ATOM     32  C   UNL d   1      17.154 -12.607  -4.536 -0.01 -0.02    +0.139    40.858
ATOM     33  O   UNL d   1      17.067 -13.761  -4.144 +0.01 +0.07    -0.650    40.858
ATOM     34  O   UNL d   1      16.027 -11.860  -4.597 +0.04 +0.08    -0.776    40.858
ATOM     35  H   UNL d   1      15.353 -11.835  -3.904 +0.04 -0.02    +0.167    40.858
ATOM     36  C   UNL d   1      19.268  -6.162  -0.922 -0.03 -0.03    +0.190    40.858
ATOM     37  O   UNL d   1      20.443  -6.872  -0.655 +0.00 +0.05    -0.399    40.858
ATOM     38  H   UNL d   1      20.452  -7.614  -1.323 +0.01 -0.02    +0.209    40.858
ATOM     39  C   UNL d   1      15.477 -10.681   0.183 -0.12 -0.01    +0.052    40.858
ATOM     40  C   UNL d   1      14.136 -11.149  -0.405 -0.20 -0.03    +0.115    40.858
ATOM     41  C   UNL d   1      14.241 -11.784  -1.775 -0.15 -0.03    +0.139    40.858
ATOM     42  O   UNL d   1      13.637 -11.286  -2.714 -0.05 +0.19    -0.650    40.858
ATOM     43  O   UNL d   1      15.055 -12.838  -2.009 +0.05 +0.13    -0.776    40.858
ATOM     44  H   UNL d   1      15.579 -12.920  -2.816 +0.02 -0.02    +0.167    40.858
ATOM     45  C   UNL d   1      19.810  -1.588  -4.783 -0.06 -0.00    +0.004    40.858
ATOM     46  C   UNL d   1      20.403  -0.909  -5.761 -0.25 -0.00    +0.012    40.858
ATOM     47  C   UNL d   1      15.122  -2.888   1.334 -0.36 +0.00    +0.004    40.858
ATOM     48  C   UNL d   1      15.480  -3.233   2.573 -0.22 +0.00    +0.012    40.858
TER
ENDMDL


AVSFLD: # AVS field file
AVSFLD: #
AVSFLD: # Created by AutoDock
AVSFLD: #
AVSFLD: ndim=2           # number of dimensions in the field
AVSFLD: nspace=1         # number of physical coordinates
AVSFLD: veclen=7         # vector size
AVSFLD: dim1=48          # atoms
AVSFLD: dim2=45          # conformations
AVSFLD: data=Real       # data type (byte,integer,Real,double)
AVSFLD: field=uniform    # field coordinate layout
AVSFLD: label= x y z vdW Elec q RMS
AVSFLD: variable 1 file = D:/Protein_go_brrr/autodock/final/AncMH_nat/heme_Co/dock.dlg.pdb filetype = ascii offset = 5 stride = 12
AVSFLD: variable 2 file = D:/Protein_go_brrr/autodock/final/AncMH_nat/heme_Co/dock.dlg.pdb filetype = ascii offset = 6 stride = 12
AVSFLD: variable 3 file = D:/Protein_go_brrr/autodock/final/AncMH_nat/heme_Co/dock.dlg.pdb filetype = ascii offset = 7 stride = 12
AVSFLD: variable 4 file = D:/Protein_go_brrr/autodock/final/AncMH_nat/heme_Co/dock.dlg.pdb filetype = ascii offset = 8 stride = 12
AVSFLD: variable 5 file = D:/Protein_go_brrr/autodock/final/AncMH_nat/heme_Co/dock.dlg.pdb filetype = ascii offset = 9 stride = 12
AVSFLD: variable 6 file = D:/Protein_go_brrr/autodock/final/AncMH_nat/heme_Co/dock.dlg.pdb filetype = ascii offset = 10 stride = 12
AVSFLD: variable 7 file = D:/Protein_go_brrr/autodock/final/AncMH_nat/heme_Co/dock.dlg.pdb filetype = ascii offset = 11 stride = 12
AVSFLD: # end of file

>>> Closing the docking parameter file (DPF)...
This docking finished at:			0:26 40" a.m., 01/17/2026


________________________________________________________________________________

D:/autodockScripts/autodock4.exe: Successful Completion on "ACER"

Real= 36h 52m 48.67s,  CPU= 1m 34.70s,  System= 2m 11.06s
________________________________________________________________________________

