          AutoDock 4.2 Release 4.2.6   
         (C) 1989-2012 The Scripps Research Institute
        AutoDock comes with ABSOLUTELY NO WARRANTY.
        AutoDock is free software, and you are welcome
        to redistribute it under certain conditions;
        for details type 'autodock4 -C'

                     main.cc  $Revision: 1.213 $

                   Compiled on Jul 18 2014 at 15:34:58


This file was created at:			3:35 32" p.m., 10/03/2025
                   on host:		"ACER"
Current Working Directory = "D:\Protein_go_brrr\autodock\final\mut_K82N\IHP"

      ________________________________________________________________

                   SETTING UP DEFAULT PARAMETER LIBRARY
      ________________________________________________________________


Random number generator was seeded with values 149664, 1759498532.
Docking parameter file (DPF) used for this docking:		D:/Protein_go_brrr/autodock/final/mut_K82N/IHP/dock.dpf
DPF> autodock_parameter_version 4.2       # used by autodock to validate parameter set

	Autodock parameter version 4.2.
DPF> outlev 1                             # diagnostic output level

Output Level = 1  ADT-COMPATIBLE OUTPUT DURING DOCKING.
DPF> intelec                              # calculate internal electrostatics

Electrostatic energies will be calculated for all non-bonds between moving atoms.
DPF> seed pid time                        # seeds for random generator

Random number generator was seeded with values 149664, 1759498532.
DPF> ligand_types P C HD OA               # atoms types in ligand

DPF> fld mut_K82N_m0.maps.fld             # grid_data_file

Opening Grid Map Dimensions file:		mut_K82N_m0.maps.fld
Grid Point Spacing =				0.447 Angstroms

Even Number of User-specified Grid Points =	126 x-points
						124 y-points
						126 z-points

Coordinates of Central Grid Point of Maps =	(0.575, 0.825, 0.156)
Macromolecule file used to create Grid Maps =	mut_K82N_m0.pdbqt
Grid Parameter file used to create Grid Maps =	D:/Protein_go_brrr/autodock/final/mut_K82N/IHP/grid.gpf
Minimum coordinates in grid = (-27.586, -26.889, -28.005)
Maximum coordinates in grid = (28.736, 28.539, 28.317)

DPF> map mut_K82N_m0.P.map                # atom-specific affinity map

DPF> map mut_K82N_m0.C.map                # atom-specific affinity map

DPF> map mut_K82N_m0.HD.map               # atom-specific affinity map

DPF> map mut_K82N_m0.OA.map               # atom-specific affinity map

DPF> elecmap mut_K82N_m0.e.map            # electrostatics map

DPF> desolvmap mut_K82N_m0.d.map          # desolvation map

DPF> move IHP_ideal_opt.pdbqt             # small molecule

1,4-interactions will be _ignored_ in the non-bonded internal energy calculation.

Ligand PDBQT file = "IHP_ideal_opt.pdbqt"

INPUT LIGAND PDBQT FILE:
________________________

INPUT-LIGAND-PDBQT: REMARK  24 active torsions:
INPUT-LIGAND-PDBQT: REMARK  status: ('A' for Active; 'I' for Inactive)
INPUT-LIGAND-PDBQT: REMARK    1  A    between atoms: C_1  and  O_7 
INPUT-LIGAND-PDBQT: REMARK    2  A    between atoms: C_2  and  O_12 
INPUT-LIGAND-PDBQT: REMARK    3  A    between atoms: C_3  and  O_17 
INPUT-LIGAND-PDBQT: REMARK    4  A    between atoms: C_4  and  O_22 
INPUT-LIGAND-PDBQT: REMARK    5  A    between atoms: C_5  and  O_27 
INPUT-LIGAND-PDBQT: REMARK    6  A    between atoms: C_6  and  O_32 
INPUT-LIGAND-PDBQT: REMARK    7  A    between atoms: O_7  and  P_8 
INPUT-LIGAND-PDBQT: REMARK    8  A    between atoms: P_8  and  O_10 
INPUT-LIGAND-PDBQT: REMARK    9  A    between atoms: P_8  and  O_11 
INPUT-LIGAND-PDBQT: REMARK   10  A    between atoms: O_12  and  P_13 
INPUT-LIGAND-PDBQT: REMARK   11  A    between atoms: P_13  and  O_15 
INPUT-LIGAND-PDBQT: REMARK   12  A    between atoms: P_13  and  O_16 
INPUT-LIGAND-PDBQT: REMARK   13  A    between atoms: O_17  and  P_18 
INPUT-LIGAND-PDBQT: REMARK   14  A    between atoms: P_18  and  O_20 
INPUT-LIGAND-PDBQT: REMARK   15  A    between atoms: P_18  and  O_21 
INPUT-LIGAND-PDBQT: REMARK   16  A    between atoms: O_22  and  P_23 
INPUT-LIGAND-PDBQT: REMARK   17  A    between atoms: P_23  and  O_25 
INPUT-LIGAND-PDBQT: REMARK   18  A    between atoms: P_23  and  O_26 
INPUT-LIGAND-PDBQT: REMARK   19  A    between atoms: O_27  and  P_28 
INPUT-LIGAND-PDBQT: REMARK   20  A    between atoms: P_28  and  O_30 
INPUT-LIGAND-PDBQT: REMARK   21  A    between atoms: P_28  and  O_31 
INPUT-LIGAND-PDBQT: REMARK   22  A    between atoms: O_32  and  P_33 
INPUT-LIGAND-PDBQT: REMARK   23  A    between atoms: P_33  and  O_35 
INPUT-LIGAND-PDBQT: REMARK   24  A    between atoms: P_33  and  O_36 
INPUT-LIGAND-PDBQT: ROOT
INPUT-LIGAND-PDBQT: ATOM      1  C   UNL d   1       1.288  -0.806   0.726  0.00  0.00     0.194 C 
INPUT-LIGAND-PDBQT: ATOM      2  C   UNL d   1       0.040  -1.610   0.357  0.00  0.00     0.194 C 
INPUT-LIGAND-PDBQT: ATOM      3  C   UNL d   1      -1.244  -0.840   0.673  0.00  0.00     0.194 C 
INPUT-LIGAND-PDBQT: ATOM      4  C   UNL d   1      -1.265   0.565   0.076  0.00  0.00     0.194 C 
INPUT-LIGAND-PDBQT: ATOM      5  C   UNL d   1       0.009   1.363   0.322  0.00  0.00     0.194 C 
INPUT-LIGAND-PDBQT: ATOM      6  C   UNL d   1       1.294   0.573   0.065  0.00  0.00     0.194 C 
INPUT-LIGAND-PDBQT: ENDROOT
INPUT-LIGAND-PDBQT: BRANCH   1   7
INPUT-LIGAND-PDBQT: ATOM      7  O   UNL d   1       2.433  -1.514   0.245  0.00  0.00    -0.278 OA
INPUT-LIGAND-PDBQT: BRANCH   7   8
INPUT-LIGAND-PDBQT: ATOM      8  P   UNL d   1       3.563  -1.932   1.294  0.00  0.00     0.473 P 
INPUT-LIGAND-PDBQT: ATOM      9  O   UNL d   1       3.071  -2.662   2.494  0.00  0.00    -0.228 OA
INPUT-LIGAND-PDBQT: BRANCH   8  10
INPUT-LIGAND-PDBQT: ATOM     10  O   UNL d   1       4.602  -2.777   0.427  0.00  0.00    -0.303 OA
INPUT-LIGAND-PDBQT: ATOM     11  H   UNL d   1       5.122  -3.357   1.014  0.00  0.00     0.222 HD
INPUT-LIGAND-PDBQT: ENDBRANCH   8  10
INPUT-LIGAND-PDBQT: BRANCH   8  12
INPUT-LIGAND-PDBQT: ATOM     12  O   UNL d   1       4.376  -0.597   1.579  0.00  0.00    -0.303 OA
INPUT-LIGAND-PDBQT: ATOM     13  H   UNL d   1       4.592  -0.095   0.761  0.00  0.00     0.222 HD
INPUT-LIGAND-PDBQT: ENDBRANCH   8  12
INPUT-LIGAND-PDBQT: ENDBRANCH   7   8
INPUT-LIGAND-PDBQT: ENDBRANCH   1   7
INPUT-LIGAND-PDBQT: BRANCH   2  14
INPUT-LIGAND-PDBQT: ATOM     14  O   UNL d   1       0.067  -1.896  -1.047  0.00  0.00    -0.278 OA
INPUT-LIGAND-PDBQT: BRANCH  14  15
INPUT-LIGAND-PDBQT: ATOM     15  P   UNL d   1      -0.217  -3.413  -1.474  0.00  0.00     0.473 P 
INPUT-LIGAND-PDBQT: ATOM     16  O   UNL d   1      -1.497  -4.019  -0.990  0.00  0.00    -0.228 OA
INPUT-LIGAND-PDBQT: BRANCH  15  17
INPUT-LIGAND-PDBQT: ATOM     17  O   UNL d   1      -0.104  -3.396  -3.063  0.00  0.00    -0.303 OA
INPUT-LIGAND-PDBQT: ATOM     18  H   UNL d   1      -0.983  -3.299  -3.477  0.00  0.00     0.222 HD
INPUT-LIGAND-PDBQT: ENDBRANCH  15  17
INPUT-LIGAND-PDBQT: BRANCH  15  19
INPUT-LIGAND-PDBQT: ATOM     19  O   UNL d   1       1.108  -4.194  -1.068  0.00  0.00    -0.303 OA
INPUT-LIGAND-PDBQT: ATOM     20  H   UNL d   1       1.891  -3.839  -1.528  0.00  0.00     0.222 HD
INPUT-LIGAND-PDBQT: ENDBRANCH  15  19
INPUT-LIGAND-PDBQT: ENDBRANCH  14  15
INPUT-LIGAND-PDBQT: ENDBRANCH   2  14
INPUT-LIGAND-PDBQT: BRANCH   6  21
INPUT-LIGAND-PDBQT: ATOM     21  O   UNL d   1       2.359   1.315   0.655  0.00  0.00    -0.278 OA
INPUT-LIGAND-PDBQT: BRANCH  21  22
INPUT-LIGAND-PDBQT: ATOM     22  P   UNL d   1       3.322   2.189  -0.269  0.00  0.00     0.473 P 
INPUT-LIGAND-PDBQT: ATOM     23  O   UNL d   1       2.760   2.769  -1.523  0.00  0.00    -0.228 OA
INPUT-LIGAND-PDBQT: BRANCH  22  24
INPUT-LIGAND-PDBQT: ATOM     24  O   UNL d   1       3.885   3.258   0.767  0.00  0.00    -0.303 OA
INPUT-LIGAND-PDBQT: ATOM     25  H   UNL d   1       3.131   3.831   1.059  0.00  0.00     0.222 HD
INPUT-LIGAND-PDBQT: ENDBRANCH  22  24
INPUT-LIGAND-PDBQT: BRANCH  22  26
INPUT-LIGAND-PDBQT: ATOM     26  O   UNL d   1       4.578   1.209  -0.449  0.00  0.00    -0.303 OA
INPUT-LIGAND-PDBQT: ATOM     27  H   UNL d   1       5.288   1.681  -0.930  0.00  0.00     0.222 HD
INPUT-LIGAND-PDBQT: ENDBRANCH  22  26
INPUT-LIGAND-PDBQT: ENDBRANCH  21  22
INPUT-LIGAND-PDBQT: ENDBRANCH   6  21
INPUT-LIGAND-PDBQT: BRANCH   3  28
INPUT-LIGAND-PDBQT: ATOM     28  O   UNL d   1      -2.321  -1.530   0.052  0.00  0.00    -0.278 OA
INPUT-LIGAND-PDBQT: BRANCH  28  29
INPUT-LIGAND-PDBQT: ATOM     29  P   UNL d   1      -3.402  -2.296   0.936  0.00  0.00     0.473 P 
INPUT-LIGAND-PDBQT: ATOM     30  O   UNL d   1      -2.932  -2.753   2.269  0.00  0.00    -0.228 OA
INPUT-LIGAND-PDBQT: BRANCH  29  31
INPUT-LIGAND-PDBQT: ATOM     31  O   UNL d   1      -4.591  -1.225   0.913  0.00  0.00    -0.303 OA
INPUT-LIGAND-PDBQT: ATOM     32  H   UNL d   1      -4.772  -0.977  -0.023  0.00  0.00     0.222 HD
INPUT-LIGAND-PDBQT: ENDBRANCH  29  31
INPUT-LIGAND-PDBQT: BRANCH  29  33
INPUT-LIGAND-PDBQT: ATOM     33  O   UNL d   1      -3.920  -3.418  -0.068  0.00  0.00    -0.303 OA
INPUT-LIGAND-PDBQT: ATOM     34  H   UNL d   1      -3.155  -3.980  -0.344  0.00  0.00     0.222 HD
INPUT-LIGAND-PDBQT: ENDBRANCH  29  33
INPUT-LIGAND-PDBQT: ENDBRANCH  28  29
INPUT-LIGAND-PDBQT: ENDBRANCH   3  28
INPUT-LIGAND-PDBQT: BRANCH   5  35
INPUT-LIGAND-PDBQT: ATOM     35  O   UNL d   1      -0.019   2.436  -0.617  0.00  0.00    -0.278 OA
INPUT-LIGAND-PDBQT: BRANCH  35  36
INPUT-LIGAND-PDBQT: ATOM     36  P   UNL d   1       0.242   3.934  -0.135  0.00  0.00     0.473 P 
INPUT-LIGAND-PDBQT: ATOM     37  O   UNL d   1       1.386   4.117   0.811  0.00  0.00    -0.228 OA
INPUT-LIGAND-PDBQT: BRANCH  36  38
INPUT-LIGAND-PDBQT: ATOM     38  O   UNL d   1       0.411   4.698  -1.522  0.00  0.00    -0.303 OA
INPUT-LIGAND-PDBQT: ATOM     39  H   UNL d   1       1.257   4.425  -1.938  0.00  0.00     0.222 HD
INPUT-LIGAND-PDBQT: ENDBRANCH  36  38
INPUT-LIGAND-PDBQT: BRANCH  36  40
INPUT-LIGAND-PDBQT: ATOM     40  O   UNL d   1      -1.196   4.382   0.376  0.00  0.00    -0.303 OA
INPUT-LIGAND-PDBQT: ATOM     41  H   UNL d   1      -1.909   4.073  -0.226  0.00  0.00     0.222 HD
INPUT-LIGAND-PDBQT: ENDBRANCH  36  40
INPUT-LIGAND-PDBQT: ENDBRANCH  35  36
INPUT-LIGAND-PDBQT: ENDBRANCH   5  35
INPUT-LIGAND-PDBQT: BRANCH   4  42
INPUT-LIGAND-PDBQT: ATOM     42  O   UNL d   1      -2.334   1.271   0.715  0.00  0.00    -0.278 OA
INPUT-LIGAND-PDBQT: BRANCH  42  43
INPUT-LIGAND-PDBQT: ATOM     43  P   UNL d   1      -3.625   1.654  -0.140  0.00  0.00     0.473 P 
INPUT-LIGAND-PDBQT: ATOM     44  O   UNL d   1      -4.208   0.598  -1.014  0.00  0.00    -0.228 OA
INPUT-LIGAND-PDBQT: BRANCH  43  45
INPUT-LIGAND-PDBQT: ATOM     45  O   UNL d   1      -4.625   2.208   0.967  0.00  0.00    -0.303 OA
INPUT-LIGAND-PDBQT: ATOM     46  H   UNL d   1      -4.983   1.485   1.520  0.00  0.00     0.222 HD
INPUT-LIGAND-PDBQT: ENDBRANCH  43  45
INPUT-LIGAND-PDBQT: BRANCH  43  47
INPUT-LIGAND-PDBQT: ATOM     47  O   UNL d   1      -3.184   3.003  -0.885  0.00  0.00    -0.303 OA
INPUT-LIGAND-PDBQT: ATOM     48  H   UNL d   1      -3.918   3.311  -1.456  0.00  0.00     0.222 HD
INPUT-LIGAND-PDBQT: ENDBRANCH  43  47
INPUT-LIGAND-PDBQT: ENDBRANCH  42  43
INPUT-LIGAND-PDBQT: ENDBRANCH   4  42
INPUT-LIGAND-PDBQT: TORSDOF 24
________________________________________________________________________________

Total charge on ligand                               =	-0.006 e
REMARK  24 active torsions:
REMARK  status: ('A' for Active; 'I' for Inactive)
REMARK    1  A    between atoms: C_1  and  O_7 
REMARK    2  A    between atoms: C_2  and  O_12 
REMARK    3  A    between atoms: C_3  and  O_17 
REMARK    4  A    between atoms: C_4  and  O_22 
REMARK    5  A    between atoms: C_5  and  O_27 
REMARK    6  A    between atoms: C_6  and  O_32 
REMARK    7  A    between atoms: O_7  and  P_8 
REMARK    8  A    between atoms: P_8  and  O_10 
REMARK    9  A    between atoms: P_8  and  O_11 
REMARK   10  A    between atoms: O_12  and  P_13 
REMARK   11  A    between atoms: P_13  and  O_15 
REMARK   12  A    between atoms: P_13  and  O_16 
REMARK   13  A    between atoms: O_17  and  P_18 
REMARK   14  A    between atoms: P_18  and  O_20 
REMARK   15  A    between atoms: P_18  and  O_21 
REMARK   16  A    between atoms: O_22  and  P_23 
REMARK   17  A    between atoms: P_23  and  O_25 
REMARK   18  A    between atoms: P_23  and  O_26 
REMARK   19  A    between atoms: O_27  and  P_28 
REMARK   20  A    between atoms: P_28  and  O_30 
REMARK   21  A    between atoms: P_28  and  O_31 
REMARK   22  A    between atoms: O_32  and  P_33 
REMARK   23  A    between atoms: P_33  and  O_35 
REMARK   24  A    between atoms: P_33  and  O_36 


Number of Rotatable Bonds in Small Molecule =	24 torsions
Number of atoms in ligand:  48

Number of non-hydrogen atoms in ligand:  36

Number of vibrational degrees of freedom of ligand:  138


Number of torsional degrees of freedom = 24
Estimated loss of torsional free energy upon binding = +7.1592 kcal/mol


DPF> about 0.035 0.082 -0.065            # small molecule center

Small molecule center of rotation =	(+0.035, +0.082, -0.065)

DPF> tran0 random                         # initial coordinates/A or random

Initial translation =			(5.878, 16.841, 7.945) Angstroms
DPF> quaternion0 random                   # initial orientation

Each run will begin with a new, random initial orientation.
Initial quaternion,  (x,y,z,w) =	( 0.741, 0.311, 0.580, 0.132 ),
DPF> dihe0 random                         # initial dihedrals (relative) or random

DPF> torsdof 24                            # torsional degrees of freedom

Number of torsional degrees of freedom = 24
Free energy coefficient for torsional degrees of freedom = 0.2983, the factory default value.

Estimated loss of torsional free energy upon binding = +7.1592 kcal/mol

DPF> rmstol 2.0                           # cluster_tolerance/A

Maximum RMS tolerance for conformational cluster analysis = 2.00 Angstroms
DPF> extnrg 1000.0                        # external grid energy

External grid energy (beyond grid map walls) = 1000.00

DPF> e0max 0.0 10000                      # max initial energy; max number of retries

Using user-specified maximum number of retries for simanneal initialization, 10000 retries.
If the simanneal initial energy is greater than e0max, 0.000,
then a new, random initial state will be created.

DPF> ga_pop_size 150                      # number of individuals in population

A population of 150 individuals will be used
DPF> ga_num_evals 25000000                # maximum number of energy evaluations

There will be at most 25000000 function evaluations used.
DPF> ga_num_generations 27000             # maximum number of generations

The GA will run for at most 27000 generations.
DPF> ga_elitism 1                         # number of top individuals to survive to next generation

The 1 best will be preserved each GA generation.
DPF> ga_mutation_rate 0.02                # rate of gene mutation

The mutation rate is 0.020000.
DPF> ga_crossover_rate 0.8                # rate of crossover

The crossover rate is 0.800000.
DPF> ga_window_size 10                    # 

The GA's selection window is 10 generations.
DPF> ga_cauchy_alpha 0.0                  # Alpha parameter of Cauchy distribution

The alpha parameter (for the Cauchy distribution) is being set to 0.000000.
DPF> ga_cauchy_beta 1.0                   # Beta parameter Cauchy distribution

The beta parameter (for the Cauchy distribution) is being set to 1.000000.
DPF> set_ga                               # set the above parameters for GA or LGA

DPF> sw_max_its 300                       # iterations of Solis & Wets local search

Solis & Wets algorithms will perform at most 300 iterations.
DPF> sw_max_succ 4                        # consecutive successes before changing rho

Solis & Wets algorithms expand rho every 4 in a row successes.
DPF> sw_max_fail 4                        # consecutive failures before changing rho

Solis & Wets algorithms contract rho every 4 in a row failures.
DPF> sw_rho 1.0                           # size of local search space to sample

rho is set to 1.000000.
DPF> sw_lb_rho 0.01                       # lower bound on rho

rho will never get smaller than 0.010000.
DPF> ls_search_freq 0.06                  # probability of performing local search on individual

Local search will be performed with frequency 0.060000.
DPF> set_psw1                             # set the above pseudo-Solis & Wets parameters

Creating a new Local Search object using the pseudo-Solis-Wets algorithm (pSW1) with the current settings.

DPF> unbound_model bound                  # state of unbound ligand

DPF> ga_run 100                           # do this many hybrid GA-LS runs

centering ligand on specified point: 0.035 0.082 -0.065
Furthest true ligand atom from "about" center is 6.234 Angstroms (maxrad).
Number of requested GA dockings = 100 runs
Unbound model to be used is 'same as bound' [AutoDock 4.2 default].

	BEGINNING GENETIC ALGORITHM DOCKING 1 of 100
Run: 1 Seed: 1212395836 1571320083 [ Run 1 of 100 GA/GALS ]
Beginning LAMARCKIAN GENETIC ALGORITHM (LGA), with a maximum of 25000000 energy evaluations.

Final-Value: -18.041


	FINAL GENETIC ALGORITHM DOCKED STATE
	_______________________________________________


Detailed state:  trans 4.154 -7.780 19.047 quatxyzw 0.404001 0.882064 -0.019580 0.241585 center 0.035 0.082 -0.065 ntor 24 -177.3399 12.3054 152.6068 20.8861 29.0162 109.5865 -24.3829 -151.4052 14.1097 108.1526 97.4666 -168.5411 35.1787 34.0942 -59.1290 124.6506 -3.0346 151.8217 -133.0170 -28.2991 -169.4706 -39.9908 153.6722 -13.7515
State:	  4.154  -7.780  19.047   0.416  0.909 -0.020 152.040   -177.34   12.31  152.61   20.89   29.02  109.59  -24.38 -151.41   14.11  108.15   97.47 -168.54   35.18   34.09  -59.13  124.65   -3.03  151.82 -133.02  -28.30 -169.47  -39.99  153.67  -13.75

DOCKED: MODEL        1
DOCKED: USER    Run = 1
DOCKED: USER    DPF = D:/Protein_go_brrr/autodock/final/mut_K82N/IHP/dock.dpf
DOCKED: USER  
DOCKED: USER    Estimated Free Energy of Binding    =   +2.35 kcal/mol  [=(1)+(2)+(3)-(4)]
DOCKED: USER    
DOCKED: USER    (1) Final Intermolecular Energy     =   -4.81 kcal/mol
DOCKED: USER        vdW + Hbond + desolv Energy     =   -4.65 kcal/mol
DOCKED: USER        Electrostatic Energy            =   -0.16 kcal/mol
DOCKED: USER    (2) Final Total Internal Energy     =  -13.24 kcal/mol
DOCKED: USER    (3) Torsional Free Energy           =   +7.16 kcal/mol
DOCKED: USER    (4) Unbound System's Energy  [=(2)] =  -13.24 kcal/mol
DOCKED: USER    
DOCKED: USER    
DOCKED: USER    NEWDPF move IHP_ideal_opt.pdbqt
DOCKED: USER    NEWDPF about 0.035000 0.082000 -0.065000
DOCKED: USER    NEWDPF tran0 4.153660 -7.779772 19.046528
DOCKED: USER    NEWDPF quaternion0 0.404001 0.882064 -0.019580 0.241585
DOCKED: USER    NEWDPF axisangle0 0.416333 0.908988 -0.020178 152.039792
DOCKED: USER    NEWDPF quat0 0.416333 0.908988 -0.020178 152.039792
DOCKED: USER    NEWDPF dihe0 -177.34 12.31 152.61 20.89 29.02 109.59 -24.38 -151.41 14.11 108.15 97.47 -168.54 35.18 34.09 -59.13 124.65 -3.03 151.82 -133.02 -28.30 -169.47 -39.99 153.67 -13.75 
DOCKED: USER  keepresnum = 1 
DOCKED: USER  
DOCKED: REMARK  24 active torsions:
DOCKED: REMARK  status: ('A' for Active; 'I' for Inactive)
DOCKED: REMARK    1  A    between atoms: C_1  and  O_7 
DOCKED: REMARK    2  A    between atoms: C_2  and  O_12 
DOCKED: REMARK    3  A    between atoms: C_3  and  O_17 
DOCKED: REMARK    4  A    between atoms: C_4  and  O_22 
DOCKED: REMARK    5  A    between atoms: C_5  and  O_27 
DOCKED: REMARK    6  A    between atoms: C_6  and  O_32 
DOCKED: REMARK    7  A    between atoms: O_7  and  P_8 
DOCKED: REMARK    8  A    between atoms: P_8  and  O_10 
DOCKED: REMARK    9  A    between atoms: P_8  and  O_11 
DOCKED: REMARK   10  A    between atoms: O_12  and  P_13 
DOCKED: REMARK   11  A    between atoms: P_13  and  O_15 
DOCKED: REMARK   12  A    between atoms: P_13  and  O_16 
DOCKED: REMARK   13  A    between atoms: O_17  and  P_18 
DOCKED: REMARK   14  A    between atoms: P_18  and  O_20 
DOCKED: REMARK   15  A    between atoms: P_18  and  O_21 
DOCKED: REMARK   16  A    between atoms: O_22  and  P_23 
DOCKED: REMARK   17  A    between atoms: P_23  and  O_25 
DOCKED: REMARK   18  A    between atoms: P_23  and  O_26 
DOCKED: REMARK   19  A    between atoms: O_27  and  P_28 
DOCKED: REMARK   20  A    between atoms: P_28  and  O_30 
DOCKED: REMARK   21  A    between atoms: P_28  and  O_31 
DOCKED: REMARK   22  A    between atoms: O_32  and  P_33 
DOCKED: REMARK   23  A    between atoms: P_33  and  O_35 
DOCKED: REMARK   24  A    between atoms: P_33  and  O_36 
DOCKED: USER                              x       y       z     vdW  Elec       q    Type
DOCKED: USER                           _______ _______ _______ _____ _____    ______ ____
DOCKED: ROOT
DOCKED: ATOM      1  C   UNL d   1       2.482  -7.345  19.067 -0.12 +0.01    +0.194 C 
DOCKED: ATOM      2  C   UNL d   1       2.774  -8.847  19.065 -0.10 -0.00    +0.194 C 
DOCKED: ATOM      3  C   UNL d   1       3.891  -9.205  18.082 -0.15 -0.00    +0.194 C 
DOCKED: ATOM      4  C   UNL d   1       5.155  -8.371  18.278 -0.13 -0.01    +0.194 C 
DOCKED: ATOM      5  C   UNL d   1       4.898  -6.875  18.400 -0.17 -0.01    +0.194 C 
DOCKED: ATOM      6  C   UNL d   1       3.740  -6.519  19.336 -0.11 -0.01    +0.194 C 
DOCKED: ENDROOT
DOCKED: BRANCH   1   7
DOCKED: ATOM      7  O   UNL d   1       1.559  -7.072  20.124 -0.07 -0.04    -0.278 OA
DOCKED: BRANCH   7   8
DOCKED: ATOM      8  P   UNL d   1       2.112  -6.385  21.456 -0.03 +0.07    +0.473 P 
DOCKED: ATOM      9  O   UNL d   1       2.157  -4.898  21.427 -0.16 -0.05    -0.228 OA
DOCKED: BRANCH   8  10
DOCKED: ATOM     10  O   UNL d   1       1.172  -6.963  22.608 -0.01 -0.05    -0.303 OA
DOCKED: ATOM     11  H   UNL d   1       0.802  -7.821  22.328 +0.02 +0.02    +0.222 HD
DOCKED: ENDBRANCH   8  10
DOCKED: BRANCH   8  12
DOCKED: ATOM     12  O   UNL d   1       3.491  -7.115  21.755 -0.00 -0.00    -0.303 OA
DOCKED: ATOM     13  H   UNL d   1       3.495  -8.060  21.480 +0.03 +0.00    +0.222 HD
DOCKED: ENDBRANCH   8  12
DOCKED: ENDBRANCH   7   8
DOCKED: ENDBRANCH   1   7
DOCKED: BRANCH   2  14
DOCKED: ATOM     14  O   UNL d   1       3.179  -9.245  20.381 -0.01 +0.00    -0.278 OA
DOCKED: BRANCH  14  15
DOCKED: ATOM     15  P   UNL d   1       2.086 -10.014  21.263 +0.01 -0.00    +0.473 P 
DOCKED: ATOM     16  O   UNL d   1       2.051 -11.505  21.140 -0.01 +0.01    -0.228 OA
DOCKED: BRANCH  15  17
DOCKED: ATOM     17  O   UNL d   1       2.375  -9.524  22.751 +0.00 -0.00    -0.303 OA
DOCKED: ATOM     18  H   UNL d   1       2.327  -8.551  22.817 +0.01 +0.00    +0.222 HD
DOCKED: ENDBRANCH  15  17
DOCKED: BRANCH  15  19
DOCKED: ATOM     19  O   UNL d   1       0.719  -9.267  20.941 -0.02 -0.01    -0.303 OA
DOCKED: ATOM     20  H   UNL d   1       0.845  -8.303  20.860 +0.04 +0.02    +0.222 HD
DOCKED: ENDBRANCH  15  19
DOCKED: ENDBRANCH  14  15
DOCKED: ENDBRANCH   2  14
DOCKED: BRANCH   6  21
DOCKED: ATOM     21  O   UNL d   1       3.408  -5.156  19.082 -0.20 +0.03    -0.278 OA
DOCKED: BRANCH  21  22
DOCKED: ATOM     22  P   UNL d   1       2.351  -4.798  17.942 -0.31 +0.00    +0.473 P 
DOCKED: ATOM     23  O   UNL d   1       2.227  -5.723  16.779 -0.39 +0.01    -0.228 OA
DOCKED: BRANCH  22  24
DOCKED: ATOM     24  O   UNL d   1       1.015  -4.606  18.787 -0.36 -0.22    -0.303 OA
DOCKED: ATOM     25  H   UNL d   1       1.015  -5.274  19.519 +0.07 +0.15    +0.222 HD
DOCKED: ENDBRANCH  22  24
DOCKED: BRANCH  22  26
DOCKED: ATOM     26  O   UNL d   1       2.745  -3.283  17.597 -0.43 +0.07    -0.303 OA
DOCKED: ATOM     27  H   UNL d   1       2.580  -2.721  18.381 -0.24 -0.19    +0.222 HD
DOCKED: ENDBRANCH  22  26
DOCKED: ENDBRANCH  21  22
DOCKED: ENDBRANCH   6  21
DOCKED: BRANCH   3  28
DOCKED: ATOM     28  O   UNL d   1       4.280 -10.547  18.347 -0.09 +0.01    -0.278 OA
DOCKED: BRANCH  28  29
DOCKED: ATOM     29  P   UNL d   1       3.307 -11.754  17.981 -0.17 -0.04    +0.473 P 
DOCKED: ATOM     30  O   UNL d   1       3.602 -12.449  16.701 -0.35 +0.04    -0.228 OA
DOCKED: BRANCH  29  31
DOCKED: ATOM     31  O   UNL d   1       3.421 -12.621  19.321 -0.04 +0.02    -0.303 OA
DOCKED: ATOM     32  H   UNL d   1       3.639 -12.017  20.068 +0.03 -0.01    +0.222 HD
DOCKED: ENDBRANCH  29  31
DOCKED: BRANCH  29  33
DOCKED: ATOM     33  O   UNL d   1       1.872 -11.079  18.119 -0.22 +0.03    -0.303 OA
DOCKED: ATOM     34  H   UNL d   1       1.536 -11.224  19.037 +0.05 -0.02    +0.222 HD
DOCKED: ENDBRANCH  29  33
DOCKED: ENDBRANCH  28  29
DOCKED: ENDBRANCH   3  28
DOCKED: BRANCH   5  35
DOCKED: ATOM     35  O   UNL d   1       6.083  -6.324  18.971 -0.18 +0.03    -0.278 OA
DOCKED: BRANCH  35  36
DOCKED: ATOM     36  P   UNL d   1       6.389  -6.509  20.525 -0.06 -0.02    +0.473 P 
DOCKED: ATOM     37  O   UNL d   1       6.087  -7.862  21.085 -0.02 +0.01    -0.228 OA
DOCKED: BRANCH  36  38
DOCKED: ATOM     38  O   UNL d   1       7.924  -6.094  20.607 -0.09 +0.00    -0.303 OA
DOCKED: ATOM     39  H   UNL d   1       8.441  -6.650  19.986 +0.07 +0.01    +0.222 HD
DOCKED: ENDBRANCH  36  38
DOCKED: BRANCH  36  40
DOCKED: ATOM     40  O   UNL d   1       5.623  -5.273  21.171 -0.09 +0.02    -0.303 OA
DOCKED: ATOM     41  H   UNL d   1       4.649  -5.354  21.068 +0.06 -0.02    +0.222 HD
DOCKED: ENDBRANCH  36  40
DOCKED: ENDBRANCH  35  36
DOCKED: ENDBRANCH   5  35
DOCKED: BRANCH   4  42
DOCKED: ATOM     42  O   UNL d   1       5.964  -8.565  17.113 -0.12 +0.00    -0.278 OA
DOCKED: BRANCH  42  43
DOCKED: ATOM     43  P   UNL d   1       7.465  -9.074  17.293 -0.12 +0.02    +0.473 P 
DOCKED: ATOM     44  O   UNL d   1       8.396  -8.889  16.144 -0.33 -0.02    -0.228 OA
DOCKED: BRANCH  43  45
DOCKED: ATOM     45  O   UNL d   1       7.925  -8.341  18.628 -0.21 -0.02    -0.303 OA
DOCKED: ATOM     46  H   UNL d   1       7.159  -8.110  19.191 +0.07 +0.00    +0.222 HD
DOCKED: ENDBRANCH  43  45
DOCKED: BRANCH  43  47
DOCKED: ATOM     47  O   UNL d   1       7.282 -10.585  17.798 -0.06 +0.01    -0.303 OA
DOCKED: ATOM     48  H   UNL d   1       6.342 -10.845  17.702 +0.08 -0.01    +0.222 HD
DOCKED: ENDBRANCH  43  47
DOCKED: ENDBRANCH  42  43
DOCKED: ENDBRANCH   4  42
DOCKED: TORSDOF 24
DOCKED: TER
DOCKED: ENDMDL
________________________________________________________________________________


	BEGINNING GENETIC ALGORITHM DOCKING 2 of 100
Run: 2 Seed: 1275946686 1694272945 [ Run 2 of 100 GA/GALS ]
Beginning LAMARCKIAN GENETIC ALGORITHM (LGA), with a maximum of 25000000 energy evaluations.

Final-Value: -18.933


	FINAL GENETIC ALGORITHM DOCKED STATE
	_______________________________________________


Detailed state:  trans -13.629 5.715 -3.473 quatxyzw 0.563164 -0.437211 -0.700721 -0.026122 center 0.035 0.082 -0.065 ntor 24 -130.9447 -21.4701 -137.4471 3.6223 19.7945 178.2552 -90.6654 -34.7916 102.6411 -48.2983 175.8236 87.4548 36.9687 165.3579 168.4909 -151.1306 -124.8543 178.8697 -8.4094 -8.4228 -23.7906 -24.2936 -4.6334 24.5192
State:	-13.629   5.715  -3.473   0.563 -0.437 -0.701 -177.006   -130.94  -21.47 -137.45    3.62   19.79  178.26  -90.67  -34.79  102.64  -48.30  175.82   87.45   36.97  165.36  168.49 -151.13 -124.85  178.87   -8.41   -8.42  -23.79  -24.29   -4.63   24.52

DOCKED: MODEL        2
DOCKED: USER    Run = 2
DOCKED: USER    DPF = D:/Protein_go_brrr/autodock/final/mut_K82N/IHP/dock.dpf
DOCKED: USER  
DOCKED: USER    Estimated Free Energy of Binding    =   +2.93 kcal/mol  [=(1)+(2)+(3)-(4)]
DOCKED: USER    
DOCKED: USER    (1) Final Intermolecular Energy     =   -4.23 kcal/mol
DOCKED: USER        vdW + Hbond + desolv Energy     =   -3.97 kcal/mol
DOCKED: USER        Electrostatic Energy            =   -0.25 kcal/mol
DOCKED: USER    (2) Final Total Internal Energy     =  -14.70 kcal/mol
DOCKED: USER    (3) Torsional Free Energy           =   +7.16 kcal/mol
DOCKED: USER    (4) Unbound System's Energy  [=(2)] =  -14.70 kcal/mol
DOCKED: USER    
DOCKED: USER    
DOCKED: USER    NEWDPF move IHP_ideal_opt.pdbqt
DOCKED: USER    NEWDPF about 0.035000 0.082000 -0.065000
DOCKED: USER    NEWDPF tran0 -13.629099 5.715378 -3.473054
DOCKED: USER    NEWDPF quaternion0 0.563164 -0.437211 -0.700721 -0.026122
DOCKED: USER    NEWDPF axisangle0 0.563357 -0.437360 -0.700961 -177.006298
DOCKED: USER    NEWDPF quat0 0.563357 -0.437360 -0.700961 -177.006298
DOCKED: USER    NEWDPF dihe0 -130.94 -21.47 -137.45 3.62 19.79 178.26 -90.67 -34.79 102.64 -48.30 175.82 87.45 36.97 165.36 168.49 -151.13 -124.85 178.87 -8.41 -8.42 -23.79 -24.29 -4.63 24.52 
DOCKED: USER  keepresnum = 1 
DOCKED: USER  
DOCKED: REMARK  24 active torsions:
DOCKED: REMARK  status: ('A' for Active; 'I' for Inactive)
DOCKED: REMARK    1  A    between atoms: C_1  and  O_7 
DOCKED: REMARK    2  A    between atoms: C_2  and  O_12 
DOCKED: REMARK    3  A    between atoms: C_3  and  O_17 
DOCKED: REMARK    4  A    between atoms: C_4  and  O_22 
DOCKED: REMARK    5  A    between atoms: C_5  and  O_27 
DOCKED: REMARK    6  A    between atoms: C_6  and  O_32 
DOCKED: REMARK    7  A    between atoms: O_7  and  P_8 
DOCKED: REMARK    8  A    between atoms: P_8  and  O_10 
DOCKED: REMARK    9  A    between atoms: P_8  and  O_11 
DOCKED: REMARK   10  A    between atoms: O_12  and  P_13 
DOCKED: REMARK   11  A    between atoms: P_13  and  O_15 
DOCKED: REMARK   12  A    between atoms: P_13  and  O_16 
DOCKED: REMARK   13  A    between atoms: O_17  and  P_18 
DOCKED: REMARK   14  A    between atoms: P_18  and  O_20 
DOCKED: REMARK   15  A    between atoms: P_18  and  O_21 
DOCKED: REMARK   16  A    between atoms: O_22  and  P_23 
DOCKED: REMARK   17  A    between atoms: P_23  and  O_25 
DOCKED: REMARK   18  A    between atoms: P_23  and  O_26 
DOCKED: REMARK   19  A    between atoms: O_27  and  P_28 
DOCKED: REMARK   20  A    between atoms: P_28  and  O_30 
DOCKED: REMARK   21  A    between atoms: P_28  and  O_31 
DOCKED: REMARK   22  A    between atoms: O_32  and  P_33 
DOCKED: REMARK   23  A    between atoms: P_33  and  O_35 
DOCKED: REMARK   24  A    between atoms: P_33  and  O_36 
DOCKED: USER                              x       y       z     vdW  Elec       q    Type
DOCKED: USER                           _______ _______ _______ _____ _____    ______ ____
DOCKED: ROOT
DOCKED: ATOM      1  C   UNL d   1     -14.323   6.061  -5.017 -0.07 +0.15    +0.194 C 
DOCKED: ATOM      2  C   UNL d   1     -13.202   7.002  -4.570 -0.10 +0.14    +0.194 C 
DOCKED: ATOM      3  C   UNL d   1     -13.342   7.391  -3.097 -0.10 +0.08    +0.194 C 
DOCKED: ATOM      4  C   UNL d   1     -13.490   6.188  -2.169 -0.13 +0.08    +0.194 C 
DOCKED: ATOM      5  C   UNL d   1     -14.518   5.165  -2.637 -0.09 +0.08    +0.194 C 
DOCKED: ATOM      6  C   UNL d   1     -14.417   4.823  -4.125 -0.08 +0.15    +0.194 C 
DOCKED: ENDROOT
DOCKED: BRANCH   1   7
DOCKED: ATOM      7  O   UNL d   1     -14.027   5.611  -6.341 -0.38 -0.31    -0.278 OA
DOCKED: BRANCH   7   8
DOCKED: ATOM      8  P   UNL d   1     -15.177   5.697  -7.447 -0.01 +0.22    +0.473 P 
DOCKED: ATOM      9  O   UNL d   1     -15.241   6.984  -8.191 +0.00 -0.07    -0.228 OA
DOCKED: BRANCH   8  10
DOCKED: ATOM     10  O   UNL d   1     -14.901   4.440  -8.389 -0.01 -0.15    -0.303 OA
DOCKED: ATOM     11  H   UNL d   1     -15.130   3.619  -7.915 +0.01 +0.11    +0.222 HD
DOCKED: ENDBRANCH   8  10
DOCKED: BRANCH   8  12
DOCKED: ATOM     12  O   UNL d   1     -16.507   5.263  -6.694 +0.00 -0.09    -0.303 OA
DOCKED: ATOM     13  H   UNL d   1     -16.503   4.320  -6.416 +0.01 +0.07    +0.222 HD
DOCKED: ENDBRANCH   8  12
DOCKED: ENDBRANCH   7   8
DOCKED: ENDBRANCH   1   7
DOCKED: BRANCH   2  14
DOCKED: ATOM     14  O   UNL d   1     -11.942   6.345  -4.751 -0.16 -0.43    -0.278 OA
DOCKED: BRANCH  14  15
DOCKED: ATOM     15  P   UNL d   1     -10.871   7.093  -5.678 -0.11 +0.50    +0.473 P 
DOCKED: ATOM     16  O   UNL d   1     -10.082   6.237  -6.619 -0.58 -0.34    -0.228 OA
DOCKED: BRANCH  15  17
DOCKED: ATOM     17  O   UNL d   1     -11.722   8.212  -6.428 -0.05 -0.16    -0.303 OA
DOCKED: ATOM     18  H   UNL d   1     -11.321   9.094  -6.313 +0.07 +0.09    +0.222 HD
DOCKED: ENDBRANCH  15  17
DOCKED: BRANCH  15  19
DOCKED: ATOM     19  O   UNL d   1     -10.013   7.969  -4.665 -0.70 -0.21    -0.303 OA
DOCKED: ATOM     20  H   UNL d   1     -10.576   8.569  -4.141 +0.11 +0.10    +0.222 HD
DOCKED: ENDBRANCH  15  19
DOCKED: ENDBRANCH  14  15
DOCKED: ENDBRANCH   2  14
DOCKED: BRANCH   6  21
DOCKED: ATOM     21  O   UNL d   1     -15.623   4.146  -4.474 -0.03 -0.12    -0.278 OA
DOCKED: BRANCH  21  22
DOCKED: ATOM     22  P   UNL d   1     -15.552   2.717  -5.180 -0.04 +0.21    +0.473 P 
DOCKED: ATOM     23  O   UNL d   1     -16.761   2.229  -5.905 -0.00 -0.05    -0.228 OA
DOCKED: BRANCH  22  24
DOCKED: ATOM     24  O   UNL d   1     -14.247   2.862  -6.079 -0.08 -0.34    -0.303 OA
DOCKED: ATOM     25  H   UNL d   1     -14.293   3.733  -6.550 +0.01 +0.27    +0.222 HD
DOCKED: ENDBRANCH  22  24
DOCKED: BRANCH  22  26
DOCKED: ATOM     26  O   UNL d   1     -15.028   1.788  -3.983 -0.04 -0.11    -0.303 OA
DOCKED: ATOM     27  H   UNL d   1     -14.965   2.322  -3.165 +0.02 +0.08    +0.222 HD
DOCKED: ENDBRANCH  22  26
DOCKED: ENDBRANCH  21  22
DOCKED: ENDBRANCH   6  21
DOCKED: BRANCH   3  28
DOCKED: ATOM     28  O   UNL d   1     -12.131   8.024  -2.704 -0.15 -0.09    -0.278 OA
DOCKED: BRANCH  28  29
DOCKED: ATOM     29  P   UNL d   1     -11.929   9.587  -2.933 -0.11 +0.12    +0.473 P 
DOCKED: ATOM     30  O   UNL d   1     -10.600  10.125  -2.546 -0.28 -0.05    -0.228 OA
DOCKED: BRANCH  29  31
DOCKED: ATOM     31  O   UNL d   1     -12.336   9.698  -4.477 -0.04 -0.09    -0.303 OA
DOCKED: ATOM     32  H   UNL d   1     -11.982   8.910  -4.952 +0.07 +0.09    +0.222 HD
DOCKED: ENDBRANCH  29  31
DOCKED: BRANCH  29  33
DOCKED: ATOM     33  O   UNL d   1     -13.197  10.200  -2.191 -0.06 -0.06    -0.303 OA
DOCKED: ATOM     34  H   UNL d   1     -13.507   9.560  -1.504 +0.05 +0.04    +0.222 HD
DOCKED: ENDBRANCH  29  33
DOCKED: ENDBRANCH  28  29
DOCKED: ENDBRANCH   3  28
DOCKED: BRANCH   5  35
DOCKED: ATOM     35  O   UNL d   1     -14.234   3.971  -1.911 -0.09 -0.10    -0.278 OA
DOCKED: BRANCH  35  36
DOCKED: ATOM     36  P   UNL d   1     -15.380   3.251  -1.066 -0.01 +0.07    +0.473 P 
DOCKED: ATOM     37  O   UNL d   1     -15.659   3.844   0.278 -0.02 -0.03    -0.228 OA
DOCKED: BRANCH  36  38
DOCKED: ATOM     38  O   UNL d   1     -16.612   3.307  -2.075 -0.00 -0.04    -0.303 OA
DOCKED: ATOM     39  H   UNL d   1     -16.276   3.243  -2.995 +0.01 +0.05    +0.222 HD
DOCKED: ENDBRANCH  36  38
DOCKED: BRANCH  36  40
DOCKED: ATOM     40  O   UNL d   1     -14.924   1.728  -1.103 -0.02 -0.03    -0.303 OA
DOCKED: ATOM     41  H   UNL d   1     -15.302   1.253  -1.876 +0.02 +0.02    +0.222 HD
DOCKED: ENDBRANCH  36  40
DOCKED: ENDBRANCH  35  36
DOCKED: ENDBRANCH   5  35
DOCKED: BRANCH   4  42
DOCKED: ATOM     42  O   UNL d   1     -13.941   6.691  -0.907 -0.06 -0.06    -0.278 OA
DOCKED: BRANCH  42  43
DOCKED: ATOM     43  P   UNL d   1     -12.861   7.194   0.154 -0.16 +0.08    +0.473 P 
DOCKED: ATOM     44  O   UNL d   1     -13.040   6.769   1.570 -0.19 -0.06    -0.228 OA
DOCKED: BRANCH  43  45
DOCKED: ATOM     45  O   UNL d   1     -11.487   6.725  -0.498 -0.25 -0.04    -0.303 OA
DOCKED: ATOM     46  H   UNL d   1     -11.017   7.472  -0.918 -0.10 -0.00    +0.222 HD
DOCKED: ENDBRANCH  43  45
DOCKED: BRANCH  43  47
DOCKED: ATOM     47  O   UNL d   1     -12.815   8.777  -0.093 -0.14 -0.05    -0.303 OA
DOCKED: ATOM     48  H   UNL d   1     -12.097   8.984  -0.727 +0.08 +0.04    +0.222 HD
DOCKED: ENDBRANCH  43  47
DOCKED: ENDBRANCH  42  43
DOCKED: ENDBRANCH   4  42
DOCKED: TORSDOF 24
DOCKED: TER
DOCKED: ENDMDL
________________________________________________________________________________


	BEGINNING GENETIC ALGORITHM DOCKING 3 of 100
Run: 3 Seed: 1370710158 401065326 [ Run 3 of 100 GA/GALS ]
Beginning LAMARCKIAN GENETIC ALGORITHM (LGA), with a maximum of 25000000 energy evaluations.

Final-Value: -19.244


	FINAL GENETIC ALGORITHM DOCKED STATE
	_______________________________________________


Detailed state:  trans -3.335 3.414 18.691 quatxyzw 0.633507 -0.679541 0.368679 0.031116 center 0.035 0.082 -0.065 ntor 24 -12.1901 -12.1778 153.7555 -19.0478 73.5436 126.9947 -138.4499 -97.0474 86.5437 -13.7568 11.6818 161.3277 174.5459 169.1080 -91.5739 38.7511 35.6423 147.9137 63.7257 17.5558 -16.1305 7.4069 -17.6214 -12.3271
State:	 -3.335   3.414  18.691   0.634 -0.680  0.369 176.434    -12.19  -12.18  153.76  -19.05   73.54  126.99 -138.45  -97.05   86.54  -13.76   11.68  161.33  174.55  169.11  -91.57   38.75   35.64  147.91   63.73   17.56  -16.13    7.41  -17.62  -12.33

DOCKED: MODEL        3
DOCKED: USER    Run = 3
DOCKED: USER    DPF = D:/Protein_go_brrr/autodock/final/mut_K82N/IHP/dock.dpf
DOCKED: USER  
DOCKED: USER    Estimated Free Energy of Binding    =   +2.03 kcal/mol  [=(1)+(2)+(3)-(4)]
DOCKED: USER    
DOCKED: USER    (1) Final Intermolecular Energy     =   -5.13 kcal/mol
DOCKED: USER        vdW + Hbond + desolv Energy     =   -4.67 kcal/mol
DOCKED: USER        Electrostatic Energy            =   -0.46 kcal/mol
DOCKED: USER    (2) Final Total Internal Energy     =  -14.11 kcal/mol
DOCKED: USER    (3) Torsional Free Energy           =   +7.16 kcal/mol
DOCKED: USER    (4) Unbound System's Energy  [=(2)] =  -14.11 kcal/mol
DOCKED: USER    
DOCKED: USER    
DOCKED: USER    NEWDPF move IHP_ideal_opt.pdbqt
DOCKED: USER    NEWDPF about 0.035000 0.082000 -0.065000
DOCKED: USER    NEWDPF tran0 -3.334948 3.413988 18.691060
DOCKED: USER    NEWDPF quaternion0 0.633507 -0.679541 0.368679 0.031116
DOCKED: USER    NEWDPF axisangle0 0.633814 -0.679870 0.368858 176.433801
DOCKED: USER    NEWDPF quat0 0.633814 -0.679870 0.368858 176.433801
DOCKED: USER    NEWDPF dihe0 -12.19 -12.18 153.76 -19.05 73.54 126.99 -138.45 -97.05 86.54 -13.76 11.68 161.33 174.55 169.11 -91.57 38.75 35.64 147.91 63.73 17.56 -16.13 7.41 -17.62 -12.33 
DOCKED: USER  keepresnum = 1 
DOCKED: USER  
DOCKED: REMARK  24 active torsions:
DOCKED: REMARK  status: ('A' for Active; 'I' for Inactive)
DOCKED: REMARK    1  A    between atoms: C_1  and  O_7 
DOCKED: REMARK    2  A    between atoms: C_2  and  O_12 
DOCKED: REMARK    3  A    between atoms: C_3  and  O_17 
DOCKED: REMARK    4  A    between atoms: C_4  and  O_22 
DOCKED: REMARK    5  A    between atoms: C_5  and  O_27 
DOCKED: REMARK    6  A    between atoms: C_6  and  O_32 
DOCKED: REMARK    7  A    between atoms: O_7  and  P_8 
DOCKED: REMARK    8  A    between atoms: P_8  and  O_10 
DOCKED: REMARK    9  A    between atoms: P_8  and  O_11 
DOCKED: REMARK   10  A    between atoms: O_12  and  P_13 
DOCKED: REMARK   11  A    between atoms: P_13  and  O_15 
DOCKED: REMARK   12  A    between atoms: P_13  and  O_16 
DOCKED: REMARK   13  A    between atoms: O_17  and  P_18 
DOCKED: REMARK   14  A    between atoms: P_18  and  O_20 
DOCKED: REMARK   15  A    between atoms: P_18  and  O_21 
DOCKED: REMARK   16  A    between atoms: O_22  and  P_23 
DOCKED: REMARK   17  A    between atoms: P_23  and  O_25 
DOCKED: REMARK   18  A    between atoms: P_23  and  O_26 
DOCKED: REMARK   19  A    between atoms: O_27  and  P_28 
DOCKED: REMARK   20  A    between atoms: P_28  and  O_30 
DOCKED: REMARK   21  A    between atoms: P_28  and  O_31 
DOCKED: REMARK   22  A    between atoms: O_32  and  P_33 
DOCKED: REMARK   23  A    between atoms: P_33  and  O_35 
DOCKED: REMARK   24  A    between atoms: P_33  and  O_36 
DOCKED: USER                              x       y       z     vdW  Elec       q    Type
DOCKED: USER                           _______ _______ _______ _____ _____    ______ ____
DOCKED: ROOT
DOCKED: ATOM      1  C   UNL d   1      -2.433   2.007  19.129 -0.21 -0.03    +0.194 C 
DOCKED: ATOM      2  C   UNL d   1      -1.703   3.341  19.301 -0.12 -0.05    +0.194 C 
DOCKED: ATOM      3  C   UNL d   1      -1.936   4.273  18.110 -0.14 -0.05    +0.194 C 
DOCKED: ATOM      4  C   UNL d   1      -3.414   4.462  17.775 -0.11 -0.05    +0.194 C 
DOCKED: ATOM      5  C   UNL d   1      -4.206   3.163  17.707 -0.07 -0.06    +0.194 C 
DOCKED: ATOM      6  C   UNL d   1      -3.926   2.205  18.866 -0.18 -0.03    +0.194 C 
DOCKED: ENDROOT
DOCKED: BRANCH   1   7
DOCKED: ATOM      7  O   UNL d   1      -2.308   1.270  20.347 -0.14 +0.01    -0.278 OA
DOCKED: BRANCH   7   8
DOCKED: ATOM      8  P   UNL d   1      -0.842   0.921  20.877 -0.13 -0.14    +0.473 P 
DOCKED: ATOM      9  O   UNL d   1      -0.650  -0.487  21.321 -0.60 -0.11    -0.228 OA
DOCKED: BRANCH   8  10
DOCKED: ATOM     10  O   UNL d   1       0.114   1.334  19.668 -0.24 +0.24    -0.303 OA
DOCKED: ATOM     11  H   UNL d   1       1.018   1.010  19.841 -0.32 -0.47    +0.222 HD
DOCKED: ENDBRANCH   8  10
DOCKED: BRANCH   8  12
DOCKED: ATOM     12  O   UNL d   1      -0.516   2.040  21.957 -0.06 +0.12    -0.303 OA
DOCKED: ATOM     13  H   UNL d   1      -0.572   2.953  21.595 +0.04 -0.07    +0.222 HD
DOCKED: ENDBRANCH   8  12
DOCKED: ENDBRANCH   7   8
DOCKED: ENDBRANCH   1   7
DOCKED: BRANCH   2  14
DOCKED: ATOM     14  O   UNL d   1      -2.184   3.986  20.487 -0.02 +0.05    -0.278 OA
DOCKED: BRANCH  14  15
DOCKED: ATOM     15  P   UNL d   1      -1.140   4.915  21.269 +0.01 -0.09    +0.473 P 
DOCKED: ATOM     16  O   UNL d   1      -1.097   4.771  22.758 -0.00 +0.04    -0.228 OA
DOCKED: BRANCH  15  17
DOCKED: ATOM     17  O   UNL d   1       0.258   4.596  20.577 -0.03 +0.09    -0.303 OA
DOCKED: ATOM     18  H   UNL d   1       0.226   4.779  19.618 +0.06 -0.07    +0.222 HD
DOCKED: ENDBRANCH  15  17
DOCKED: BRANCH  15  19
DOCKED: ATOM     19  O   UNL d   1      -1.435   6.383  20.731 -0.00 +0.06    -0.303 OA
DOCKED: ATOM     20  H   UNL d   1      -1.035   6.533  19.855 +0.02 -0.05    +0.222 HD
DOCKED: ENDBRANCH  15  19
DOCKED: ENDBRANCH  14  15
DOCKED: ENDBRANCH   2  14
DOCKED: BRANCH   6  21
DOCKED: ATOM     21  O   UNL d   1      -4.456   0.935  18.489 -0.10 +0.01    -0.278 OA
DOCKED: BRANCH  21  22
DOCKED: ATOM     22  P   UNL d   1      -5.617   0.272  19.358 -0.13 -0.02    +0.473 P 
DOCKED: ATOM     23  O   UNL d   1      -5.333  -0.050  20.786 -0.08 -0.00    -0.228 OA
DOCKED: BRANCH  22  24
DOCKED: ATOM     24  O   UNL d   1      -6.817   1.293  19.131 -0.06 +0.03    -0.303 OA
DOCKED: ATOM     25  H   UNL d   1      -6.538   1.949  18.442 +0.05 -0.03    +0.222 HD
DOCKED: ENDBRANCH  22  24
DOCKED: BRANCH  22  26
DOCKED: ATOM     26  O   UNL d   1      -6.053  -0.962  18.432 -0.20 +0.03    -0.303 OA
DOCKED: ATOM     27  H   UNL d   1      -6.164  -0.649  17.511 -0.22 -0.06    +0.222 HD
DOCKED: ENDBRANCH  22  26
DOCKED: ENDBRANCH  21  22
DOCKED: ENDBRANCH   6  21
DOCKED: BRANCH   3  28
DOCKED: ATOM     28  O   UNL d   1      -1.464   5.563  18.476 -0.04 +0.08    -0.278 OA
DOCKED: BRANCH  28  29
DOCKED: ATOM     29  P   UNL d   1      -0.270   6.241  17.670 -0.09 -0.17    +0.473 P 
DOCKED: ATOM     30  O   UNL d   1       0.086   5.590  16.383 -0.36 +0.08    -0.228 OA
DOCKED: BRANCH  29  31
DOCKED: ATOM     31  O   UNL d   1      -0.802   7.749  17.599 -0.04 +0.12    -0.303 OA
DOCKED: ATOM     32  H   UNL d   1      -1.382   7.839  16.808 +0.07 -0.12    +0.222 HD
DOCKED: ENDBRANCH  29  31
DOCKED: BRANCH  29  33
DOCKED: ATOM     33  O   UNL d   1       0.874   6.324  18.775 -0.08 +0.11    -0.303 OA
DOCKED: ATOM     34  H   UNL d   1       0.464   6.547  19.646 +0.04 -0.06    +0.222 HD
DOCKED: ENDBRANCH  29  33
DOCKED: ENDBRANCH  28  29
DOCKED: ENDBRANCH   3  28
DOCKED: BRANCH   5  35
DOCKED: ATOM     35  O   UNL d   1      -5.578   3.541  17.797 -0.09 +0.06    -0.278 OA
DOCKED: BRANCH  35  36
DOCKED: ATOM     36  P   UNL d   1      -6.552   3.339  16.550 -0.14 -0.12    +0.473 P 
DOCKED: ATOM     37  O   UNL d   1      -7.076   1.950  16.359 -0.22 +0.06    -0.228 OA
DOCKED: BRANCH  36  38
DOCKED: ATOM     38  O   UNL d   1      -7.678   4.429  16.835 -0.04 +0.05    -0.303 OA
DOCKED: ATOM     39  H   UNL d   1      -7.343   5.069  17.499 +0.04 -0.04    +0.222 HD
DOCKED: ENDBRANCH  36  38
DOCKED: BRANCH  36  40
DOCKED: ATOM     40  O   UNL d   1      -5.709   3.962  15.355 -0.25 +0.08    -0.303 OA
DOCKED: ATOM     41  H   UNL d   1      -5.440   4.889  15.543 +0.07 -0.05    +0.222 HD
DOCKED: ENDBRANCH  36  40
DOCKED: ENDBRANCH  35  36
DOCKED: ENDBRANCH   5  35
DOCKED: BRANCH   4  42
DOCKED: ATOM     42  O   UNL d   1      -3.471   5.059  16.476 -0.14 +0.09    -0.278 OA
DOCKED: BRANCH  42  43
DOCKED: ATOM     43  P   UNL d   1      -4.245   6.443  16.296 -0.10 -0.21    +0.473 P 
DOCKED: ATOM     44  O   UNL d   1      -4.556   6.880  14.906 -0.32 +0.16    -0.228 OA
DOCKED: BRANCH  43  45
DOCKED: ATOM     45  O   UNL d   1      -5.526   6.249  17.220 -0.05 +0.08    -0.303 OA
DOCKED: ATOM     46  H   UNL d   1      -6.077   5.501  16.915 +0.05 -0.05    +0.222 HD
DOCKED: ENDBRANCH  43  45
DOCKED: BRANCH  43  47
DOCKED: ATOM     47  O   UNL d   1      -3.369   7.467  17.164 -0.04 +0.15    -0.303 OA
DOCKED: ATOM     48  H   UNL d   1      -2.821   6.964  17.801 +0.05 -0.08    +0.222 HD
DOCKED: ENDBRANCH  43  47
DOCKED: ENDBRANCH  42  43
DOCKED: ENDBRANCH   4  42
DOCKED: TORSDOF 24
DOCKED: TER
DOCKED: ENDMDL
________________________________________________________________________________


	BEGINNING GENETIC ALGORITHM DOCKING 4 of 100
Run: 4 Seed: 760441445 460526769 [ Run 4 of 100 GA/GALS ]
Beginning LAMARCKIAN GENETIC ALGORITHM (LGA), with a maximum of 25000000 energy evaluations.

Final-Value: -17.143


	FINAL GENETIC ALGORITHM DOCKED STATE
	_______________________________________________


Detailed state:  trans 13.954 2.437 16.354 quatxyzw 0.628552 0.350319 0.331293 -0.610282 center 0.035 0.082 -0.065 ntor 24 120.4488 108.4286 131.8159 10.3751 30.2218 -24.6597 -54.6946 -0.7617 122.0682 69.2019 96.9519 69.2695 -79.9628 36.4746 -66.9360 -170.1185 151.6263 169.9267 -145.8342 -26.6516 -163.0882 -27.9044 -173.6045 32.4210
State:	 13.954   2.437  16.354   0.793  0.442  0.418 -104.780    120.45  108.43  131.82   10.38   30.22  -24.66  -54.69   -0.76  122.07   69.20   96.95   69.27  -79.96   36.47  -66.94 -170.12  151.63  169.93 -145.83  -26.65 -163.09  -27.90 -173.60   32.42

DOCKED: MODEL        4
DOCKED: USER    Run = 4
DOCKED: USER    DPF = D:/Protein_go_brrr/autodock/final/mut_K82N/IHP/dock.dpf
DOCKED: USER  
DOCKED: USER    Estimated Free Energy of Binding    =   +3.66 kcal/mol  [=(1)+(2)+(3)-(4)]
DOCKED: USER    
DOCKED: USER    (1) Final Intermolecular Energy     =   -3.50 kcal/mol
DOCKED: USER        vdW + Hbond + desolv Energy     =   -3.52 kcal/mol
DOCKED: USER        Electrostatic Energy            =   +0.02 kcal/mol
DOCKED: USER    (2) Final Total Internal Energy     =  -13.64 kcal/mol
DOCKED: USER    (3) Torsional Free Energy           =   +7.16 kcal/mol
DOCKED: USER    (4) Unbound System's Energy  [=(2)] =  -13.64 kcal/mol
DOCKED: USER    
DOCKED: USER    
DOCKED: USER    NEWDPF move IHP_ideal_opt.pdbqt
DOCKED: USER    NEWDPF about 0.035000 0.082000 -0.065000
DOCKED: USER    NEWDPF tran0 13.954170 2.436693 16.354208
DOCKED: USER    NEWDPF quaternion0 0.628552 0.350319 0.331293 -0.610282
DOCKED: USER    NEWDPF axisangle0 0.793442 0.442219 0.418202 -104.780136
DOCKED: USER    NEWDPF quat0 0.793442 0.442219 0.418202 -104.780136
DOCKED: USER    NEWDPF dihe0 120.45 108.43 131.82 10.38 30.22 -24.66 -54.69 -0.76 122.07 69.20 96.95 69.27 -79.96 36.47 -66.94 -170.12 151.63 169.93 -145.83 -26.65 -163.09 -27.90 -173.60 32.42 
DOCKED: USER  keepresnum = 1 
DOCKED: USER  
DOCKED: REMARK  24 active torsions:
DOCKED: REMARK  status: ('A' for Active; 'I' for Inactive)
DOCKED: REMARK    1  A    between atoms: C_1  and  O_7 
DOCKED: REMARK    2  A    between atoms: C_2  and  O_12 
DOCKED: REMARK    3  A    between atoms: C_3  and  O_17 
DOCKED: REMARK    4  A    between atoms: C_4  and  O_22 
DOCKED: REMARK    5  A    between atoms: C_5  and  O_27 
DOCKED: REMARK    6  A    between atoms: C_6  and  O_32 
DOCKED: REMARK    7  A    between atoms: O_7  and  P_8 
DOCKED: REMARK    8  A    between atoms: P_8  and  O_10 
DOCKED: REMARK    9  A    between atoms: P_8  and  O_11 
DOCKED: REMARK   10  A    between atoms: O_12  and  P_13 
DOCKED: REMARK   11  A    between atoms: P_13  and  O_15 
DOCKED: REMARK   12  A    between atoms: P_13  and  O_16 
DOCKED: REMARK   13  A    between atoms: O_17  and  P_18 
DOCKED: REMARK   14  A    between atoms: P_18  and  O_20 
DOCKED: REMARK   15  A    between atoms: P_18  and  O_21 
DOCKED: REMARK   16  A    between atoms: O_22  and  P_23 
DOCKED: REMARK   17  A    between atoms: P_23  and  O_25 
DOCKED: REMARK   18  A    between atoms: P_23  and  O_26 
DOCKED: REMARK   19  A    between atoms: O_27  and  P_28 
DOCKED: REMARK   20  A    between atoms: P_28  and  O_30 
DOCKED: REMARK   21  A    between atoms: P_28  and  O_31 
DOCKED: REMARK   22  A    between atoms: O_32  and  P_33 
DOCKED: REMARK   23  A    between atoms: P_33  and  O_35 
DOCKED: REMARK   24  A    between atoms: P_33  and  O_36 
DOCKED: USER                              x       y       z     vdW  Elec       q    Type
DOCKED: USER                           _______ _______ _______ _____ _____    ______ ____
DOCKED: ROOT
DOCKED: ATOM      1  C   UNL d   1      15.260   3.081  15.425 -0.01 -0.00    +0.194 C 
DOCKED: ATOM      2  C   UNL d   1      14.252   2.231  14.648 -0.03 -0.01    +0.194 C 
DOCKED: ATOM      3  C   UNL d   1      13.860   0.970  15.421 -0.08 -0.01    +0.194 C 
DOCKED: ATOM      4  C   UNL d   1      13.395   1.258  16.846 -0.10 -0.01    +0.194 C 
DOCKED: ATOM      5  C   UNL d   1      14.313   2.195  17.621 -0.03 +0.00    +0.194 C 
DOCKED: ATOM      6  C   UNL d   1      14.755   3.426  16.826 -0.01 +0.00    +0.194 C 
DOCKED: ENDROOT
DOCKED: BRANCH   1   7
DOCKED: ATOM      7  O   UNL d   1      15.441   4.312  14.722 -0.00 +0.01    -0.278 OA
DOCKED: BRANCH   7   8
DOCKED: ATOM      8  P   UNL d   1      14.513   5.552  15.111 +0.00 -0.01    +0.473 P 
DOCKED: ATOM      9  O   UNL d   1      13.173   5.193  15.650 -0.02 +0.00    -0.228 OA
DOCKED: BRANCH   8  10
DOCKED: ATOM     10  O   UNL d   1      15.399   6.390  16.140 +0.00 +0.00    -0.303 OA
DOCKED: ATOM     11  H   UNL d   1      15.905   5.780  16.709 +0.00 +0.00    +0.222 HD
DOCKED: ENDBRANCH   8  10
DOCKED: BRANCH   8  12
DOCKED: ATOM     12  O   UNL d   1      14.517   6.490  13.829 -0.00 +0.01    -0.303 OA
DOCKED: ATOM     13  H   UNL d   1      14.118   6.063  13.038 +0.01 -0.01    +0.222 HD
DOCKED: ENDBRANCH   8  12
DOCKED: ENDBRANCH   7   8
DOCKED: ENDBRANCH   1   7
DOCKED: BRANCH   2  14
DOCKED: ATOM     14  O   UNL d   1      13.071   3.008  14.412 -0.03 +0.02    -0.278 OA
DOCKED: BRANCH  14  15
DOCKED: ATOM     15  P   UNL d   1      12.866   3.564  12.925 -0.03 -0.03    +0.473 P 
DOCKED: ATOM     16  O   UNL d   1      12.073   2.705  11.990 -0.12 +0.02    -0.228 OA
DOCKED: BRANCH  15  17
DOCKED: ATOM     17  O   UNL d   1      12.221   5.006  13.135 -0.05 +0.02    -0.303 OA
DOCKED: ATOM     18  H   UNL d   1      12.591   5.444  13.925 +0.04 -0.01    +0.222 HD
DOCKED: ENDBRANCH  15  17
DOCKED: BRANCH  15  19
DOCKED: ATOM     19  O   UNL d   1      14.332   3.939  12.435 -0.01 +0.01    -0.303 OA
DOCKED: ATOM     20  H   UNL d   1      14.803   4.484  13.092 +0.01 -0.01    +0.222 HD
DOCKED: ENDBRANCH  15  19
DOCKED: ENDBRANCH  14  15
DOCKED: ENDBRANCH   2  14
DOCKED: BRANCH   6  21
DOCKED: ATOM     21  O   UNL d   1      15.850   4.003  17.535 -0.00 -0.01    -0.278 OA
DOCKED: BRANCH  21  22
DOCKED: ATOM     22  P   UNL d   1      17.345   3.620  17.130 +0.00 +0.00    +0.473 P 
DOCKED: ATOM     23  O   UNL d   1      17.623   2.217  16.707 -0.00 -0.00    -0.228 OA
DOCKED: BRANCH  22  24
DOCKED: ATOM     24  O   UNL d   1      17.679   4.726  16.036 +0.00 +0.00    -0.303 OA
DOCKED: ATOM     25  H   UNL d   1      16.855   4.905  15.517 +0.00 -0.00    +0.222 HD
DOCKED: ENDBRANCH  22  24
DOCKED: BRANCH  22  26
DOCKED: ATOM     26  O   UNL d   1      18.171   4.148  18.399 +0.00 -0.01    -0.303 OA
DOCKED: ATOM     27  H   UNL d   1      19.048   3.715  18.414 +0.00 +0.00    +0.222 HD
DOCKED: ENDBRANCH  22  26
DOCKED: ENDBRANCH  21  22
DOCKED: ENDBRANCH   6  21
DOCKED: BRANCH   3  28
DOCKED: ATOM     28  O   UNL d   1      12.734   0.399  14.765 -0.15 +0.06    -0.278 OA
DOCKED: BRANCH  28  29
DOCKED: ATOM     29  P   UNL d   1      12.934  -0.536  13.492 -0.23 -0.13    +0.473 P 
DOCKED: ATOM     30  O   UNL d   1      11.761  -1.365  13.116 -0.41 +0.12    -0.228 OA
DOCKED: BRANCH  29  31
DOCKED: ATOM     31  O   UNL d   1      13.429   0.549  12.424 -0.12 +0.07    -0.303 OA
DOCKED: ATOM     32  H   UNL d   1      13.411   1.438  12.848 +0.07 -0.03    +0.222 HD
DOCKED: ENDBRANCH  29  31
DOCKED: BRANCH  29  33
DOCKED: ATOM     33  O   UNL d   1      14.277  -1.310  13.854 -0.20 +0.03    -0.303 OA
DOCKED: ATOM     34  H   UNL d   1      14.149  -1.796  14.705 +0.08 -0.00    +0.222 HD
DOCKED: ENDBRANCH  29  33
DOCKED: ENDBRANCH  28  29
DOCKED: ENDBRANCH   3  28
DOCKED: BRANCH   5  35
DOCKED: ATOM     35  O   UNL d   1      13.544   2.664  18.727 -0.05 -0.03    -0.278 OA
DOCKED: BRANCH  35  36
DOCKED: ATOM     36  P   UNL d   1      12.024   3.102  18.522 -0.13 +0.04    +0.473 P 
DOCKED: ATOM     37  O   UNL d   1      11.432   3.912  19.631 -0.21 -0.06    -0.228 OA
DOCKED: BRANCH  36  38
DOCKED: ATOM     38  O   UNL d   1      12.088   3.856  17.121 -0.09 -0.00    -0.303 OA
DOCKED: ATOM     39  H   UNL d   1      12.527   3.275  16.463 +0.07 -0.01    +0.222 HD
DOCKED: ENDBRANCH  36  38
DOCKED: BRANCH  36  40
DOCKED: ATOM     40  O   UNL d   1      11.315   1.719  18.180 -0.15 +0.02    -0.303 OA
DOCKED: ATOM     41  H   UNL d   1      11.790   0.958  18.581 +0.07 +0.00    +0.222 HD
DOCKED: ENDBRANCH  36  40
DOCKED: ENDBRANCH  35  36
DOCKED: ENDBRANCH   5  35
DOCKED: BRANCH   4  42
DOCKED: ATOM     42  O   UNL d   1      13.388   0.007  17.541 -0.10 +0.01    -0.278 OA
DOCKED: BRANCH  42  43
DOCKED: ATOM     43  P   UNL d   1      12.172  -0.999  17.306 -0.30 -0.05    +0.473 P 
DOCKED: ATOM     44  O   UNL d   1      11.712  -1.804  18.472 -0.39 +0.01    -0.228 OA
DOCKED: BRANCH  43  45
DOCKED: ATOM     45  O   UNL d   1      11.052  -0.053  16.686 -0.30 +0.13    -0.303 OA
DOCKED: ATOM     46  H   UNL d   1      11.445   0.735  16.260 +0.05 -0.07    +0.222 HD
DOCKED: ENDBRANCH  43  45
DOCKED: BRANCH  43  47
DOCKED: ATOM     47  O   UNL d   1      12.635  -1.840  16.023 -0.20 +0.02    -0.303 OA
DOCKED: ATOM     48  H   UNL d   1      12.059  -1.614  15.264 -0.37 -0.09    +0.222 HD
DOCKED: ENDBRANCH  43  47
DOCKED: ENDBRANCH  42  43
DOCKED: ENDBRANCH   4  42
DOCKED: TORSDOF 24
DOCKED: TER
DOCKED: ENDMDL
________________________________________________________________________________


	BEGINNING GENETIC ALGORITHM DOCKING 5 of 100
Run: 5 Seed: 1961841760 96094634 [ Run 5 of 100 GA/GALS ]
Beginning LAMARCKIAN GENETIC ALGORITHM (LGA), with a maximum of 25000000 energy evaluations.

Final-Value: -19.081


	FINAL GENETIC ALGORITHM DOCKED STATE
	_______________________________________________


Detailed state:  trans -6.035 21.858 2.608 quatxyzw 0.073457 -0.590748 -0.763111 -0.251561 center 0.035 0.082 -0.065 ntor 24 148.8727 178.5465 176.9732 -33.4528 100.9658 64.1492 -112.8450 -49.4810 -3.9217 40.9594 53.6436 -120.5939 -87.6154 176.0263 -119.7839 -130.7159 157.5203 124.5727 55.9968 15.4089 -3.1887 -1.4141 -22.6991 -2.3371
State:	 -6.035  21.858   2.608   0.076 -0.610 -0.788 -150.860    148.87  178.55  176.97  -33.45  100.97   64.15 -112.85  -49.48   -3.92   40.96   53.64 -120.59  -87.62  176.03 -119.78 -130.72  157.52  124.57   56.00   15.41   -3.19   -1.41  -22.70   -2.34

DOCKED: MODEL        5
DOCKED: USER    Run = 5
DOCKED: USER    DPF = D:/Protein_go_brrr/autodock/final/mut_K82N/IHP/dock.dpf
DOCKED: USER  
DOCKED: USER    Estimated Free Energy of Binding    =   +3.18 kcal/mol  [=(1)+(2)+(3)-(4)]
DOCKED: USER    
DOCKED: USER    (1) Final Intermolecular Energy     =   -3.98 kcal/mol
DOCKED: USER        vdW + Hbond + desolv Energy     =   -3.95 kcal/mol
DOCKED: USER        Electrostatic Energy            =   -0.03 kcal/mol
DOCKED: USER    (2) Final Total Internal Energy     =  -15.10 kcal/mol
DOCKED: USER    (3) Torsional Free Energy           =   +7.16 kcal/mol
DOCKED: USER    (4) Unbound System's Energy  [=(2)] =  -15.10 kcal/mol
DOCKED: USER    
DOCKED: USER    
DOCKED: USER    NEWDPF move IHP_ideal_opt.pdbqt
DOCKED: USER    NEWDPF about 0.035000 0.082000 -0.065000
DOCKED: USER    NEWDPF tran0 -6.035221 21.857872 2.607996
DOCKED: USER    NEWDPF quaternion0 0.073457 -0.590748 -0.763111 -0.251561
DOCKED: USER    NEWDPF axisangle0 0.075897 -0.610377 -0.788467 -150.860142
DOCKED: USER    NEWDPF quat0 0.075897 -0.610377 -0.788467 -150.860142
DOCKED: USER    NEWDPF dihe0 148.87 178.55 176.97 -33.45 100.97 64.15 -112.85 -49.48 -3.92 40.96 53.64 -120.59 -87.62 176.03 -119.78 -130.72 157.52 124.57 56.00 15.41 -3.19 -1.41 -22.70 -2.34 
DOCKED: USER  keepresnum = 1 
DOCKED: USER  
DOCKED: REMARK  24 active torsions:
DOCKED: REMARK  status: ('A' for Active; 'I' for Inactive)
DOCKED: REMARK    1  A    between atoms: C_1  and  O_7 
DOCKED: REMARK    2  A    between atoms: C_2  and  O_12 
DOCKED: REMARK    3  A    between atoms: C_3  and  O_17 
DOCKED: REMARK    4  A    between atoms: C_4  and  O_22 
DOCKED: REMARK    5  A    between atoms: C_5  and  O_27 
DOCKED: REMARK    6  A    between atoms: C_6  and  O_32 
DOCKED: REMARK    7  A    between atoms: O_7  and  P_8 
DOCKED: REMARK    8  A    between atoms: P_8  and  O_10 
DOCKED: REMARK    9  A    between atoms: P_8  and  O_11 
DOCKED: REMARK   10  A    between atoms: O_12  and  P_13 
DOCKED: REMARK   11  A    between atoms: P_13  and  O_15 
DOCKED: REMARK   12  A    between atoms: P_13  and  O_16 
DOCKED: REMARK   13  A    between atoms: O_17  and  P_18 
DOCKED: REMARK   14  A    between atoms: P_18  and  O_20 
DOCKED: REMARK   15  A    between atoms: P_18  and  O_21 
DOCKED: REMARK   16  A    between atoms: O_22  and  P_23 
DOCKED: REMARK   17  A    between atoms: P_23  and  O_25 
DOCKED: REMARK   18  A    between atoms: P_23  and  O_26 
DOCKED: REMARK   19  A    between atoms: O_27  and  P_28 
DOCKED: REMARK   20  A    between atoms: P_28  and  O_30 
DOCKED: REMARK   21  A    between atoms: P_28  and  O_31 
DOCKED: REMARK   22  A    between atoms: O_32  and  P_33 
DOCKED: REMARK   23  A    between atoms: P_33  and  O_35 
DOCKED: REMARK   24  A    between atoms: P_33  and  O_36 
DOCKED: USER                              x       y       z     vdW  Elec       q    Type
DOCKED: USER                           _______ _______ _______ _____ _____    ______ ____
DOCKED: ROOT
DOCKED: ATOM      1  C   UNL d   1      -7.704  22.108   2.237 -0.12 +0.00    +0.194 C 
DOCKED: ATOM      2  C   UNL d   1      -6.715  22.517   1.144 -0.12 -0.01    +0.194 C 
DOCKED: ATOM      3  C   UNL d   1      -5.508  23.260   1.721 -0.08 -0.02    +0.194 C 
DOCKED: ATOM      4  C   UNL d   1      -4.828  22.507   2.862 -0.14 -0.01    +0.194 C 
DOCKED: ATOM      5  C   UNL d   1      -5.791  21.980   3.918 -0.11 +0.00    +0.194 C 
DOCKED: ATOM      6  C   UNL d   1      -7.029  21.291   3.340 -0.09 -0.00    +0.194 C 
DOCKED: ENDROOT
DOCKED: BRANCH   1   7
DOCKED: ATOM      7  O   UNL d   1      -8.705  21.277   1.644 -0.12 -0.03    -0.278 OA
DOCKED: BRANCH   7   8
DOCKED: ATOM      8  P   UNL d   1      -9.699  21.930   0.577 -0.05 +0.04    +0.473 P 
DOCKED: ATOM      9  O   UNL d   1     -10.091  23.337   0.859 -0.02 -0.00    -0.228 OA
DOCKED: BRANCH   8  10
DOCKED: ATOM     10  O   UNL d   1      -8.940  21.756  -0.815 -0.08 -0.03    -0.303 OA
DOCKED: ATOM     11  H   UNL d   1      -8.031  21.441  -0.655 +0.07 +0.02    +0.222 HD
DOCKED: ENDBRANCH   8  10
DOCKED: BRANCH   8  12
DOCKED: ATOM     12  O   UNL d   1     -10.893  20.891   0.436 -0.07 -0.04    -0.303 OA
DOCKED: ATOM     13  H   UNL d   1     -11.780  21.316   0.474 +0.03 +0.02    +0.222 HD
DOCKED: ENDBRANCH   8  12
DOCKED: ENDBRANCH   7   8
DOCKED: ENDBRANCH   1   7
DOCKED: BRANCH   2  14
DOCKED: ATOM     14  O   UNL d   1      -6.249  21.341   0.471 -0.23 +0.00    -0.278 OA
DOCKED: BRANCH  14  15
DOCKED: ATOM     15  P   UNL d   1      -5.917  21.492  -1.088 -0.19 -0.03    +0.473 P 
DOCKED: ATOM     16  O   UNL d   1      -6.549  20.495  -2.009 -0.32 -0.00    -0.228 OA
DOCKED: BRANCH  15  17
DOCKED: ATOM     17  O   UNL d   1      -6.328  22.993  -1.428 -0.04 +0.03    -0.303 OA
DOCKED: ATOM     18  H   UNL d   1      -5.624  23.617  -1.167 +0.07 -0.04    +0.222 HD
DOCKED: ENDBRANCH  15  17
DOCKED: BRANCH  15  19
DOCKED: ATOM     19  O   UNL d   1      -4.330  21.573  -1.150 -0.30 +0.08    -0.303 OA
DOCKED: ATOM     20  H   UNL d   1      -4.015  22.496  -1.136 +0.12 -0.07    +0.222 HD
DOCKED: ENDBRANCH  15  19
DOCKED: ENDBRANCH  14  15
DOCKED: ENDBRANCH   2  14
DOCKED: BRANCH   6  21
DOCKED: ATOM     21  O   UNL d   1      -7.968  21.170   4.405 -0.08 -0.03    -0.278 OA
DOCKED: BRANCH  21  22
DOCKED: ATOM     22  P   UNL d   1      -8.217  19.748   5.084 -0.12 +0.16    +0.473 P 
DOCKED: ATOM     23  O   UNL d   1      -9.274  18.867   4.509 -0.16 -0.07    -0.228 OA
DOCKED: BRANCH  22  24
DOCKED: ATOM     24  O   UNL d   1      -6.752  19.124   5.077 -0.66 -0.27    -0.303 OA
DOCKED: ATOM     25  H   UNL d   1      -6.104  19.859   5.224 -0.18 +0.13    +0.222 HD
DOCKED: ENDBRANCH  22  24
DOCKED: BRANCH  22  26
DOCKED: ATOM     26  O   UNL d   1      -8.398  20.150   6.625 -0.02 -0.09    -0.303 OA
DOCKED: ATOM     27  H   UNL d   1      -7.622  19.837   7.133 +0.04 +0.11    +0.222 HD
DOCKED: ENDBRANCH  22  26
DOCKED: ENDBRANCH  21  22
DOCKED: ENDBRANCH   6  21
DOCKED: BRANCH   3  28
DOCKED: ATOM     28  O   UNL d   1      -4.530  23.351   0.693 -0.08 +0.05    -0.278 OA
DOCKED: BRANCH  28  29
DOCKED: ATOM     29  P   UNL d   1      -4.211  24.753   0.008 -0.01 -0.13    +0.473 P 
DOCKED: ATOM     30  O   UNL d   1      -3.620  24.681  -1.353 -0.13 +0.13    -0.228 OA
DOCKED: BRANCH  29  31
DOCKED: ATOM     31  O   UNL d   1      -5.639  25.461   0.143 -0.00 +0.05    -0.303 OA
DOCKED: ATOM     32  H   UNL d   1      -6.302  24.929  -0.354 +0.03 -0.03    +0.222 HD
DOCKED: ENDBRANCH  29  31
DOCKED: BRANCH  29  33
DOCKED: ATOM     33  O   UNL d   1      -3.348  25.484   1.129 -0.02 +0.07    -0.303 OA
DOCKED: ATOM     34  H   UNL d   1      -3.126  24.832   1.839 +0.05 -0.05    +0.222 HD
DOCKED: ENDBRANCH  29  33
DOCKED: ENDBRANCH  28  29
DOCKED: ENDBRANCH   3  28
DOCKED: BRANCH   5  35
DOCKED: ATOM     35  O   UNL d   1      -5.063  20.993   4.647 -0.06 -0.06    -0.278 OA
DOCKED: BRANCH  35  36
DOCKED: ATOM     36  P   UNL d   1      -4.578  21.288   6.137 -0.06 +0.12    +0.473 P 
DOCKED: ATOM     37  O   UNL d   1      -3.433  20.456   6.620 -0.14 -0.08    -0.228 OA
DOCKED: BRANCH  36  38
DOCKED: ATOM     38  O   UNL d   1      -4.273  22.850   6.078 -0.02 -0.01    -0.303 OA
DOCKED: ATOM     39  H   UNL d   1      -3.440  22.995   5.581 +0.05 -0.01    +0.222 HD
DOCKED: ENDBRANCH  36  38
DOCKED: BRANCH  36  40
DOCKED: ATOM     40  O   UNL d   1      -5.936  21.194   6.961 -0.03 -0.09    -0.303 OA
DOCKED: ATOM     41  H   UNL d   1      -6.703  20.999   6.378 +0.04 +0.07    +0.222 HD
DOCKED: ENDBRANCH  36  40
DOCKED: ENDBRANCH  35  36
DOCKED: ENDBRANCH   5  35
DOCKED: BRANCH   4  42
DOCKED: ATOM     42  O   UNL d   1      -3.958  23.439   3.513 -0.06 +0.03    -0.278 OA
DOCKED: BRANCH  42  43
DOCKED: ATOM     43  P   UNL d   1      -2.381  23.208   3.431 -0.13 -0.10    +0.473 P 
DOCKED: ATOM     44  O   UNL d   1      -1.501  24.304   3.924 -0.12 +0.06    -0.228 OA
DOCKED: BRANCH  43  45
DOCKED: ATOM     45  O   UNL d   1      -2.191  21.826   4.197 -0.17 +0.05    -0.303 OA
DOCKED: ATOM     46  H   UNL d   1      -2.959  21.624   4.768 +0.08 +0.01    +0.222 HD
DOCKED: ENDBRANCH  43  45
DOCKED: BRANCH  43  47
DOCKED: ATOM     47  O   UNL d   1      -2.153  22.770   1.906 -0.25 +0.09    -0.303 OA
DOCKED: ATOM     48  H   UNL d   1      -2.484  23.477   1.315 +0.09 -0.06    +0.222 HD
DOCKED: ENDBRANCH  43  47
DOCKED: ENDBRANCH  42  43
DOCKED: ENDBRANCH   4  42
DOCKED: TORSDOF 24
DOCKED: TER
DOCKED: ENDMDL
________________________________________________________________________________


	BEGINNING GENETIC ALGORITHM DOCKING 6 of 100
Run: 6 Seed: 37733006 1149139789 [ Run 6 of 100 GA/GALS ]
Beginning LAMARCKIAN GENETIC ALGORITHM (LGA), with a maximum of 25000000 energy evaluations.

Final-Value: -17.427


	FINAL GENETIC ALGORITHM DOCKED STATE
	_______________________________________________


Detailed state:  trans 9.412 15.565 2.693 quatxyzw 0.243665 0.170172 0.765323 -0.570921 center 0.035 0.082 -0.065 ntor 24 -177.7672 -28.1391 165.5104 13.7834 -16.5822 136.1943 -92.7704 1.4606 113.0778 -57.8442 60.1841 -54.0344 68.7244 177.3713 -172.4932 1.3921 168.8856 -88.3153 38.3720 10.1017 169.8390 -10.3051 21.3488 -176.4231
State:	  9.412  15.565   2.693   0.297  0.207  0.932 -110.371   -177.77  -28.14  165.51   13.78  -16.58  136.19  -92.77    1.46  113.08  -57.84   60.18  -54.03   68.72  177.37 -172.49    1.39  168.89  -88.32   38.37   10.10  169.84  -10.31   21.35 -176.42

DOCKED: MODEL        6
DOCKED: USER    Run = 6
DOCKED: USER    DPF = D:/Protein_go_brrr/autodock/final/mut_K82N/IHP/dock.dpf
DOCKED: USER  
DOCKED: USER    Estimated Free Energy of Binding    =   +3.91 kcal/mol  [=(1)+(2)+(3)-(4)]
DOCKED: USER    
DOCKED: USER    (1) Final Intermolecular Energy     =   -3.25 kcal/mol
DOCKED: USER        vdW + Hbond + desolv Energy     =   -3.20 kcal/mol
DOCKED: USER        Electrostatic Energy            =   -0.05 kcal/mol
DOCKED: USER    (2) Final Total Internal Energy     =  -14.18 kcal/mol
DOCKED: USER    (3) Torsional Free Energy           =   +7.16 kcal/mol
DOCKED: USER    (4) Unbound System's Energy  [=(2)] =  -14.18 kcal/mol
DOCKED: USER    
DOCKED: USER    
DOCKED: USER    NEWDPF move IHP_ideal_opt.pdbqt
DOCKED: USER    NEWDPF about 0.035000 0.082000 -0.065000
DOCKED: USER    NEWDPF tran0 9.412380 15.564622 2.692508
DOCKED: USER    NEWDPF quaternion0 0.243665 0.170172 0.765323 -0.570921
DOCKED: USER    NEWDPF axisangle0 0.296789 0.207272 0.932177 -110.371108
DOCKED: USER    NEWDPF quat0 0.296789 0.207272 0.932177 -110.371108
DOCKED: USER    NEWDPF dihe0 -177.77 -28.14 165.51 13.78 -16.58 136.19 -92.77 1.46 113.08 -57.84 60.18 -54.03 68.72 177.37 -172.49 1.39 168.89 -88.32 38.37 10.10 169.84 -10.31 21.35 -176.42 
DOCKED: USER  keepresnum = 1 
DOCKED: USER  
DOCKED: REMARK  24 active torsions:
DOCKED: REMARK  status: ('A' for Active; 'I' for Inactive)
DOCKED: REMARK    1  A    between atoms: C_1  and  O_7 
DOCKED: REMARK    2  A    between atoms: C_2  and  O_12 
DOCKED: REMARK    3  A    between atoms: C_3  and  O_17 
DOCKED: REMARK    4  A    between atoms: C_4  and  O_22 
DOCKED: REMARK    5  A    between atoms: C_5  and  O_27 
DOCKED: REMARK    6  A    between atoms: C_6  and  O_32 
DOCKED: REMARK    7  A    between atoms: O_7  and  P_8 
DOCKED: REMARK    8  A    between atoms: P_8  and  O_10 
DOCKED: REMARK    9  A    between atoms: P_8  and  O_11 
DOCKED: REMARK   10  A    between atoms: O_12  and  P_13 
DOCKED: REMARK   11  A    between atoms: P_13  and  O_15 
DOCKED: REMARK   12  A    between atoms: P_13  and  O_16 
DOCKED: REMARK   13  A    between atoms: O_17  and  P_18 
DOCKED: REMARK   14  A    between atoms: P_18  and  O_20 
DOCKED: REMARK   15  A    between atoms: P_18  and  O_21 
DOCKED: REMARK   16  A    between atoms: O_22  and  P_23 
DOCKED: REMARK   17  A    between atoms: P_23  and  O_25 
DOCKED: REMARK   18  A    between atoms: P_23  and  O_26 
DOCKED: REMARK   19  A    between atoms: O_27  and  P_28 
DOCKED: REMARK   20  A    between atoms: P_28  and  O_30 
DOCKED: REMARK   21  A    between atoms: P_28  and  O_31 
DOCKED: REMARK   22  A    between atoms: O_32  and  P_33 
DOCKED: REMARK   23  A    between atoms: P_33  and  O_35 
DOCKED: REMARK   24  A    between atoms: P_33  and  O_36 
DOCKED: USER                              x       y       z     vdW  Elec       q    Type
DOCKED: USER                           _______ _______ _______ _____ _____    ______ ____
DOCKED: ROOT
DOCKED: ATOM      1  C   UNL d   1      10.276  17.007   3.089 -0.10 -0.01    +0.194 C 
DOCKED: ATOM      2  C   UNL d   1      10.989  16.053   2.129 -0.11 -0.01    +0.194 C 
DOCKED: ATOM      3  C   UNL d   1      10.854  14.595   2.575 -0.14 +0.00    +0.194 C 
DOCKED: ATOM      4  C   UNL d   1       9.408  14.178   2.837 -0.18 +0.01    +0.194 C 
DOCKED: ATOM      5  C   UNL d   1       8.625  15.161   3.697 -0.15 +0.01    +0.194 C 
DOCKED: ATOM      6  C   UNL d   1       8.809  16.624   3.289 -0.11 -0.00    +0.194 C 
DOCKED: ENDROOT
DOCKED: BRANCH   1   7
DOCKED: ATOM      7  O   UNL d   1      10.301  18.317   2.516 -0.09 +0.02    -0.278 OA
DOCKED: BRANCH   7   8
DOCKED: ATOM      8  P   UNL d   1      11.598  19.220   2.743 -0.03 -0.03    +0.473 P 
DOCKED: ATOM      9  O   UNL d   1      12.297  19.645   1.499 -0.02 +0.02    -0.228 OA
DOCKED: BRANCH   8  10
DOCKED: ATOM     10  O   UNL d   1      11.068  20.446   3.615 -0.02 +0.03    -0.303 OA
DOCKED: ATOM     11  H   UNL d   1      10.268  20.178   4.104 +0.03 -0.03    +0.222 HD
DOCKED: ENDBRANCH   8  10
DOCKED: BRANCH   8  12
DOCKED: ATOM     12  O   UNL d   1      12.480  18.420   3.795 -0.01 +0.02    -0.303 OA
DOCKED: ATOM     13  H   UNL d   1      12.114  18.451   4.708 +0.01 -0.01    +0.222 HD
DOCKED: ENDBRANCH   8  12
DOCKED: ENDBRANCH   7   8
DOCKED: ENDBRANCH   1   7
DOCKED: BRANCH   2  14
DOCKED: ATOM     14  O   UNL d   1      10.412  16.187   0.824 -0.13 +0.02    -0.278 OA
DOCKED: BRANCH  14  15
DOCKED: ATOM     15  P   UNL d   1      11.423  16.112  -0.416 -0.14 -0.07    +0.473 P 
DOCKED: ATOM     16  O   UNL d   1      11.367  17.239  -1.398 -0.11 +0.03    -0.228 OA
DOCKED: BRANCH  15  17
DOCKED: ATOM     17  O   UNL d   1      12.856  15.954   0.262 -0.04 +0.03    -0.303 OA
DOCKED: ATOM     18  H   UNL d   1      12.954  15.076   0.679 +0.04 -0.02    +0.222 HD
DOCKED: ENDBRANCH  15  17
DOCKED: BRANCH  15  19
DOCKED: ATOM     19  O   UNL d   1      11.196  14.660  -1.025 -0.26 +0.07    -0.303 OA
DOCKED: ATOM     20  H   UNL d   1      11.174  13.976  -0.330 +0.06 -0.02    +0.222 HD
DOCKED: ENDBRANCH  15  19
DOCKED: ENDBRANCH  14  15
DOCKED: ENDBRANCH   2  14
DOCKED: BRANCH   6  21
DOCKED: ATOM     21  O   UNL d   1       8.313  17.418   4.365 -0.10 +0.02    -0.278 OA
DOCKED: BRANCH  21  22
DOCKED: ATOM     22  P   UNL d   1       9.077  17.420   5.765 -0.00 -0.03    +0.473 P 
DOCKED: ATOM     23  O   UNL d   1       8.261  17.470   7.013 -0.01 +0.02    -0.228 OA
DOCKED: BRANCH  22  24
DOCKED: ATOM     24  O   UNL d   1      10.010  16.138   5.629 -0.01 -0.01    -0.303 OA
DOCKED: ATOM     25  H   UNL d   1       9.472  15.339   5.861 +0.04 +0.02    +0.222 HD
DOCKED: ENDBRANCH  22  24
DOCKED: BRANCH  22  26
DOCKED: ATOM     26  O   UNL d   1      10.125  18.616   5.562 -0.01 +0.03    -0.303 OA
DOCKED: ATOM     27  H   UNL d   1      10.457  18.600   4.642 +0.02 -0.02    +0.222 HD
DOCKED: ENDBRANCH  22  26
DOCKED: ENDBRANCH  21  22
DOCKED: ENDBRANCH   6  21
DOCKED: BRANCH   3  28
DOCKED: ATOM     28  O   UNL d   1      11.294  13.776   1.500 -0.18 +0.00    -0.278 OA
DOCKED: BRANCH  28  29
DOCKED: ATOM     29  P   UNL d   1      12.756  13.144   1.516 -0.09 -0.01    +0.473 P 
DOCKED: ATOM     30  O   UNL d   1      13.759  13.871   2.336 -0.03 +0.01    -0.228 OA
DOCKED: BRANCH  29  31
DOCKED: ATOM     31  O   UNL d   1      12.408  11.645   1.955 -0.10 -0.01    -0.303 OA
DOCKED: ATOM     32  H   UNL d   1      11.718  11.677   2.659 +0.06 +0.01    +0.222 HD
DOCKED: ENDBRANCH  29  31
DOCKED: BRANCH  29  33
DOCKED: ATOM     33  O   UNL d   1      13.071  12.991  -0.037 -0.15 +0.02    -0.303 OA
DOCKED: ATOM     34  H   UNL d   1      13.046  13.885  -0.460 +0.06 -0.02    +0.222 HD
DOCKED: ENDBRANCH  29  33
DOCKED: ENDBRANCH  28  29
DOCKED: ENDBRANCH   3  28
DOCKED: BRANCH   5  35
DOCKED: ATOM     35  O   UNL d   1       7.250  14.840   3.496 -0.21 -0.02    -0.278 OA
DOCKED: BRANCH  35  36
DOCKED: ATOM     36  P   UNL d   1       6.179  15.135   4.642 -0.19 +0.03    +0.473 P 
DOCKED: ATOM     37  O   UNL d   1       5.045  14.164   4.731 -0.32 -0.02    -0.228 OA
DOCKED: BRANCH  36  38
DOCKED: ATOM     38  O   UNL d   1       7.099  15.190   5.941 -0.08 -0.04    -0.303 OA
DOCKED: ATOM     39  H   UNL d   1       7.913  15.698   5.737 +0.06 +0.02    +0.222 HD
DOCKED: ENDBRANCH  36  38
DOCKED: BRANCH  36  40
DOCKED: ATOM     40  O   UNL d   1       5.806  16.658   4.373 -0.21 +0.02    -0.303 OA
DOCKED: ATOM     41  H   UNL d   1       6.288  17.263   4.980 +0.09 -0.03    +0.222 HD
DOCKED: ENDBRANCH  36  40
DOCKED: ENDBRANCH  35  36
DOCKED: ENDBRANCH   5  35
DOCKED: BRANCH   4  42
DOCKED: ATOM     42  O   UNL d   1       9.458  12.939   3.552 -0.12 -0.05    -0.278 OA
DOCKED: BRANCH  42  43
DOCKED: ATOM     43  P   UNL d   1       9.921  12.948   5.078 -0.08 +0.14    +0.473 P 
DOCKED: ATOM     44  O   UNL d   1      11.087  13.802   5.437 -0.03 -0.03    -0.228 OA
DOCKED: BRANCH  43  45
DOCKED: ATOM     45  O   UNL d   1       8.579  13.321   5.848 -0.10 -0.16    -0.303 OA
DOCKED: ATOM     46  H   UNL d   1       7.891  13.644   5.232 +0.07 +0.09    +0.222 HD
DOCKED: ENDBRANCH  43  45
DOCKED: BRANCH  43  47
DOCKED: ATOM     47  O   UNL d   1      10.072  11.390   5.424 -0.12 -0.17    -0.303 OA
DOCKED: ATOM     48  H   UNL d   1      10.974  11.222   5.767 +0.04 +0.08    +0.222 HD
DOCKED: ENDBRANCH  43  47
DOCKED: ENDBRANCH  42  43
DOCKED: ENDBRANCH   4  42
DOCKED: TORSDOF 24
DOCKED: TER
DOCKED: ENDMDL
________________________________________________________________________________


	BEGINNING GENETIC ALGORITHM DOCKING 7 of 100
Run: 7 Seed: 1310674759 531122310 [ Run 7 of 100 GA/GALS ]
Beginning LAMARCKIAN GENETIC ALGORITHM (LGA), with a maximum of 25000000 energy evaluations.

Final-Value: -17.257


	FINAL GENETIC ALGORITHM DOCKED STATE
	_______________________________________________


Detailed state:  trans 6.456 -12.403 -11.859 quatxyzw 0.425595 -0.763595 -0.466922 0.133325 center 0.035 0.082 -0.065 ntor 24 123.3243 42.2293 165.9451 8.8646 19.4182 179.8814 -20.9354 103.9499 177.2542 27.4681 -2.4820 179.9551 -30.5174 75.4727 160.2704 161.9220 93.3294 161.3059 24.0359 -34.4487 -30.3292 -35.6103 9.9676 -179.9476
State:	  6.456 -12.403 -11.859   0.429 -0.770 -0.471 164.676    123.32   42.23  165.95    8.86   19.42  179.88  -20.94  103.95  177.25   27.47   -2.48  179.96  -30.52   75.47  160.27  161.92   93.33  161.31   24.04  -34.45  -30.33  -35.61    9.97 -179.95

DOCKED: MODEL        7
DOCKED: USER    Run = 7
DOCKED: USER    DPF = D:/Protein_go_brrr/autodock/final/mut_K82N/IHP/dock.dpf
DOCKED: USER  
DOCKED: USER    Estimated Free Energy of Binding    =   +3.46 kcal/mol  [=(1)+(2)+(3)-(4)]
DOCKED: USER    
DOCKED: USER    (1) Final Intermolecular Energy     =   -3.70 kcal/mol
DOCKED: USER        vdW + Hbond + desolv Energy     =   -3.61 kcal/mol
DOCKED: USER        Electrostatic Energy            =   -0.09 kcal/mol
DOCKED: USER    (2) Final Total Internal Energy     =  -13.55 kcal/mol
DOCKED: USER    (3) Torsional Free Energy           =   +7.16 kcal/mol
DOCKED: USER    (4) Unbound System's Energy  [=(2)] =  -13.55 kcal/mol
DOCKED: USER    
DOCKED: USER    
DOCKED: USER    NEWDPF move IHP_ideal_opt.pdbqt
DOCKED: USER    NEWDPF about 0.035000 0.082000 -0.065000
DOCKED: USER    NEWDPF tran0 6.455653 -12.403029 -11.858536
DOCKED: USER    NEWDPF quaternion0 0.425595 -0.763595 -0.466922 0.133325
DOCKED: USER    NEWDPF axisangle0 0.429429 -0.770473 -0.471128 164.676421
DOCKED: USER    NEWDPF quat0 0.429429 -0.770473 -0.471128 164.676421
DOCKED: USER    NEWDPF dihe0 123.32 42.23 165.95 8.86 19.42 179.88 -20.94 103.95 177.25 27.47 -2.48 179.96 -30.52 75.47 160.27 161.92 93.33 161.31 24.04 -34.45 -30.33 -35.61 9.97 -179.95 
DOCKED: USER  keepresnum = 1 
DOCKED: USER  
DOCKED: REMARK  24 active torsions:
DOCKED: REMARK  status: ('A' for Active; 'I' for Inactive)
DOCKED: REMARK    1  A    between atoms: C_1  and  O_7 
DOCKED: REMARK    2  A    between atoms: C_2  and  O_12 
DOCKED: REMARK    3  A    between atoms: C_3  and  O_17 
DOCKED: REMARK    4  A    between atoms: C_4  and  O_22 
DOCKED: REMARK    5  A    between atoms: C_5  and  O_27 
DOCKED: REMARK    6  A    between atoms: C_6  and  O_32 
DOCKED: REMARK    7  A    between atoms: O_7  and  P_8 
DOCKED: REMARK    8  A    between atoms: P_8  and  O_10 
DOCKED: REMARK    9  A    between atoms: P_8  and  O_11 
DOCKED: REMARK   10  A    between atoms: O_12  and  P_13 
DOCKED: REMARK   11  A    between atoms: P_13  and  O_15 
DOCKED: REMARK   12  A    between atoms: P_13  and  O_16 
DOCKED: REMARK   13  A    between atoms: O_17  and  P_18 
DOCKED: REMARK   14  A    between atoms: P_18  and  O_20 
DOCKED: REMARK   15  A    between atoms: P_18  and  O_21 
DOCKED: REMARK   16  A    between atoms: O_22  and  P_23 
DOCKED: REMARK   17  A    between atoms: P_23  and  O_25 
DOCKED: REMARK   18  A    between atoms: P_23  and  O_26 
DOCKED: REMARK   19  A    between atoms: O_27  and  P_28 
DOCKED: REMARK   20  A    between atoms: P_28  and  O_30 
DOCKED: REMARK   21  A    between atoms: P_28  and  O_31 
DOCKED: REMARK   22  A    between atoms: O_32  and  P_33 
DOCKED: REMARK   23  A    between atoms: P_33  and  O_35 
DOCKED: REMARK   24  A    between atoms: P_33  and  O_36 
DOCKED: USER                              x       y       z     vdW  Elec       q    Type
DOCKED: USER                           _______ _______ _______ _____ _____    ______ ____
DOCKED: ROOT
DOCKED: ATOM      1  C   UNL d   1       6.236 -12.587 -13.562 -0.09 -0.02    +0.194 C 
DOCKED: ATOM      2  C   UNL d   1       7.681 -12.398 -13.099 -0.06 -0.02    +0.194 C 
DOCKED: ATOM      3  C   UNL d   1       7.797 -11.307 -12.033 -0.05 -0.01    +0.194 C 
DOCKED: ATOM      4  C   UNL d   1       6.837 -11.506 -10.862 -0.05 -0.01    +0.194 C 
DOCKED: ATOM      5  C   UNL d   1       5.404 -11.811 -11.279 -0.10 -0.01    +0.194 C 
DOCKED: ATOM      6  C   UNL d   1       5.292 -12.858 -12.390 -0.08 -0.01    +0.194 C 
DOCKED: ENDROOT
DOCKED: BRANCH   1   7
DOCKED: ATOM      7  O   UNL d   1       6.188 -13.729 -14.421 -0.06 +0.03    -0.278 OA
DOCKED: BRANCH   7   8
DOCKED: ATOM      8  P   UNL d   1       6.203 -13.492 -16.000 -0.08 -0.09    +0.473 P 
DOCKED: ATOM      9  O   UNL d   1       6.749 -12.178 -16.436 -0.15 +0.07    -0.228 OA
DOCKED: BRANCH   8  10
DOCKED: ATOM     10  O   UNL d   1       7.027 -14.734 -16.570 -0.01 +0.04    -0.303 OA
DOCKED: ATOM     11  H   UNL d   1       7.728 -14.979 -15.937 +0.01 -0.02    +0.222 HD
DOCKED: ENDBRANCH   8  10
DOCKED: BRANCH   8  12
DOCKED: ATOM     12  O   UNL d   1       4.726 -13.824 -16.482 -0.10 +0.06    -0.303 OA
DOCKED: ATOM     13  H   UNL d   1       4.144 -14.139 -15.754 +0.05 -0.04    +0.222 HD
DOCKED: ENDBRANCH   8  12
DOCKED: ENDBRANCH   7   8
DOCKED: ENDBRANCH   1   7
DOCKED: BRANCH   2  14
DOCKED: ATOM     14  O   UNL d   1       8.159 -13.631 -12.545 -0.00 +0.02    -0.278 OA
DOCKED: BRANCH  14  15
DOCKED: ATOM     15  P   UNL d   1       9.017 -14.568 -13.518 +0.01 -0.03    +0.473 P 
DOCKED: ATOM     16  O   UNL d   1      10.315 -15.085 -12.981 +0.00 +0.01    -0.228 OA
DOCKED: BRANCH  15  17
DOCKED: ATOM     17  O   UNL d   1       8.009 -15.733 -13.924 -0.00 +0.02    -0.303 OA
DOCKED: ATOM     18  H   UNL d   1       7.305 -15.400 -14.513 +0.01 -0.02    +0.222 HD
DOCKED: ENDBRANCH  15  17
DOCKED: BRANCH  15  19
DOCKED: ATOM     19  O   UNL d   1       9.116 -13.745 -14.876 -0.00 +0.03    -0.303 OA
DOCKED: ATOM     20  H   UNL d   1       8.241 -13.441 -15.178 +0.02 -0.03    +0.222 HD
DOCKED: ENDBRANCH  15  19
DOCKED: ENDBRANCH  14  15
DOCKED: ENDBRANCH   2  14
DOCKED: BRANCH   6  21
DOCKED: ATOM     21  O   UNL d   1       3.962 -12.780 -12.897 -0.14 +0.03    -0.278 OA
DOCKED: BRANCH  21  22
DOCKED: ATOM     22  P   UNL d   1       3.115 -14.116 -13.106 -0.08 -0.04    +0.473 P 
DOCKED: ATOM     23  O   UNL d   1       1.827 -14.024 -13.853 -0.16 +0.04    -0.228 OA
DOCKED: BRANCH  22  24
DOCKED: ATOM     24  O   UNL d   1       4.195 -15.088 -13.755 -0.02 +0.02    -0.303 OA
DOCKED: ATOM     25  H   UNL d   1       4.663 -14.592 -14.474 +0.04 -0.02    +0.222 HD
DOCKED: ENDBRANCH  22  24
DOCKED: BRANCH  22  26
DOCKED: ATOM     26  O   UNL d   1       3.020 -14.679 -11.608 -0.09 -0.01    -0.303 OA
DOCKED: ATOM     27  H   UNL d   1       3.409 -14.025 -10.993 +0.06 +0.01    +0.222 HD
DOCKED: ENDBRANCH  22  26
DOCKED: ENDBRANCH  21  22
DOCKED: ENDBRANCH   6  21
DOCKED: BRANCH   3  28
DOCKED: ATOM     28  O   UNL d   1       9.100 -11.393 -11.471 -0.00 +0.02    -0.278 OA
DOCKED: BRANCH  28  29
DOCKED: ATOM     29  P   UNL d   1      10.364 -10.867 -12.285 +0.01 -0.04    +0.473 P 
DOCKED: ATOM     30  O   UNL d   1      11.340 -10.065 -11.504 -0.00 +0.02    -0.228 OA
DOCKED: BRANCH  29  31
DOCKED: ATOM     31  O   UNL d   1      10.888 -12.245 -12.908 +0.00 +0.02    -0.303 OA
DOCKED: ATOM     32  H   UNL d   1      10.115 -12.838 -13.052 +0.01 -0.02    +0.222 HD
DOCKED: ENDBRANCH  29  31
DOCKED: BRANCH  29  33
DOCKED: ATOM     33  O   UNL d   1       9.682 -10.153 -13.534 -0.02 +0.03    -0.303 OA
DOCKED: ATOM     34  H   UNL d   1      10.344  -9.558 -13.965 +0.01 -0.03    +0.222 HD
DOCKED: ENDBRANCH  29  33
DOCKED: ENDBRANCH  28  29
DOCKED: ENDBRANCH   3  28
DOCKED: BRANCH   5  35
DOCKED: ATOM     35  O   UNL d   1       4.772 -12.356 -10.123 -0.06 -0.01    -0.278 OA
DOCKED: BRANCH  35  36
DOCKED: ATOM     36  P   UNL d   1       3.266 -11.967  -9.770 -0.17 +0.03    +0.473 P 
DOCKED: ATOM     37  O   UNL d   1       2.398 -13.095  -9.313 -0.60 -0.06    -0.228 OA
DOCKED: BRANCH  36  38
DOCKED: ATOM     38  O   UNL d   1       3.471 -10.818  -8.687 -0.20 -0.01    -0.303 OA
DOCKED: ATOM     39  H   UNL d   1       3.247  -9.952  -9.090 -0.17 -0.07    +0.222 HD
DOCKED: ENDBRANCH  36  38
DOCKED: BRANCH  36  40
DOCKED: ATOM     40  O   UNL d   1       2.803 -11.183 -11.075 -0.25 +0.01    -0.303 OA
DOCKED: ATOM     41  H   UNL d   1       3.567 -10.938 -11.643 +0.12 -0.02    +0.222 HD
DOCKED: ENDBRANCH  36  40
DOCKED: ENDBRANCH  35  36
DOCKED: ENDBRANCH   5  35
DOCKED: BRANCH   4  42
DOCKED: ATOM     42  O   UNL d   1       6.810 -10.274 -10.134 -0.08 +0.02    -0.278 OA
DOCKED: BRANCH  42  43
DOCKED: ATOM     43  P   UNL d   1       6.134  -8.995 -10.806 -0.14 -0.05    +0.473 P 
DOCKED: ATOM     44  O   UNL d   1       6.622  -7.655 -10.378 -0.17 +0.04    -0.228 OA
DOCKED: BRANCH  43  45
DOCKED: ATOM     45  O   UNL d   1       6.308  -9.285 -12.361 -0.60 +0.00    -0.303 OA
DOCKED: ATOM     46  H   UNL d   1       7.229  -9.130 -12.653 +0.05 -0.01    +0.222 HD
DOCKED: ENDBRANCH  43  45
DOCKED: BRANCH  43  47
DOCKED: ATOM     47  O   UNL d   1       4.566  -9.259 -10.600 -0.29 +0.04    -0.303 OA
DOCKED: ATOM     48  H   UNL d   1       4.441 -10.118 -10.145 +0.09 -0.02    +0.222 HD
DOCKED: ENDBRANCH  43  47
DOCKED: ENDBRANCH  42  43
DOCKED: ENDBRANCH   4  42
DOCKED: TORSDOF 24
DOCKED: TER
DOCKED: ENDMDL
________________________________________________________________________________


	BEGINNING GENETIC ALGORITHM DOCKING 8 of 100
Run: 8 Seed: 1073737235 621810695 [ Run 8 of 100 GA/GALS ]
Beginning LAMARCKIAN GENETIC ALGORITHM (LGA), with a maximum of 25000000 energy evaluations.

Final-Value: -18.425


	FINAL GENETIC ALGORITHM DOCKED STATE
	_______________________________________________


Detailed state:  trans -14.365 -3.485 -15.387 quatxyzw -0.835393 -0.219898 -0.497389 0.079794 center 0.035 0.082 -0.065 ntor 24 -137.5242 -0.5216 -79.9402 14.6608 8.7680 -65.1219 -111.5565 -71.1097 129.2597 149.6754 26.8143 -118.8244 87.3402 161.4773 -15.5304 -9.1818 113.2020 -46.8365 -13.4430 3.6844 155.3023 23.4141 -35.9198 169.9245
State:	-14.365  -3.485 -15.387  -0.838 -0.221 -0.499 170.847   -137.52   -0.52  -79.94   14.66    8.77  -65.12 -111.56  -71.11  129.26  149.68   26.81 -118.82   87.34  161.48  -15.53   -9.18  113.20  -46.84  -13.44    3.68  155.30   23.41  -35.92  169.92

DOCKED: MODEL        8
DOCKED: USER    Run = 8
DOCKED: USER    DPF = D:/Protein_go_brrr/autodock/final/mut_K82N/IHP/dock.dpf
DOCKED: USER  
DOCKED: USER    Estimated Free Energy of Binding    =   +3.01 kcal/mol  [=(1)+(2)+(3)-(4)]
DOCKED: USER    
DOCKED: USER    (1) Final Intermolecular Energy     =   -4.15 kcal/mol
DOCKED: USER        vdW + Hbond + desolv Energy     =   -3.71 kcal/mol
DOCKED: USER        Electrostatic Energy            =   -0.45 kcal/mol
DOCKED: USER    (2) Final Total Internal Energy     =  -14.27 kcal/mol
DOCKED: USER    (3) Torsional Free Energy           =   +7.16 kcal/mol
DOCKED: USER    (4) Unbound System's Energy  [=(2)] =  -14.27 kcal/mol
DOCKED: USER    
DOCKED: USER    
DOCKED: USER    NEWDPF move IHP_ideal_opt.pdbqt
DOCKED: USER    NEWDPF about 0.035000 0.082000 -0.065000
DOCKED: USER    NEWDPF tran0 -14.365171 -3.484975 -15.386962
DOCKED: USER    NEWDPF quaternion0 -0.835393 -0.219898 -0.497389 0.079794
DOCKED: USER    NEWDPF axisangle0 -0.838065 -0.220602 -0.498980 170.846559
DOCKED: USER    NEWDPF quat0 -0.838065 -0.220602 -0.498980 170.846559
DOCKED: USER    NEWDPF dihe0 -137.52 -0.52 -79.94 14.66 8.77 -65.12 -111.56 -71.11 129.26 149.68 26.81 -118.82 87.34 161.48 -15.53 -9.18 113.20 -46.84 -13.44 3.68 155.30 23.41 -35.92 169.92 
DOCKED: USER  keepresnum = 1 
DOCKED: USER  
DOCKED: REMARK  24 active torsions:
DOCKED: REMARK  status: ('A' for Active; 'I' for Inactive)
DOCKED: REMARK    1  A    between atoms: C_1  and  O_7 
DOCKED: REMARK    2  A    between atoms: C_2  and  O_12 
DOCKED: REMARK    3  A    between atoms: C_3  and  O_17 
DOCKED: REMARK    4  A    between atoms: C_4  and  O_22 
DOCKED: REMARK    5  A    between atoms: C_5  and  O_27 
DOCKED: REMARK    6  A    between atoms: C_6  and  O_32 
DOCKED: REMARK    7  A    between atoms: O_7  and  P_8 
DOCKED: REMARK    8  A    between atoms: P_8  and  O_10 
DOCKED: REMARK    9  A    between atoms: P_8  and  O_11 
DOCKED: REMARK   10  A    between atoms: O_12  and  P_13 
DOCKED: REMARK   11  A    between atoms: P_13  and  O_15 
DOCKED: REMARK   12  A    between atoms: P_13  and  O_16 
DOCKED: REMARK   13  A    between atoms: O_17  and  P_18 
DOCKED: REMARK   14  A    between atoms: P_18  and  O_20 
DOCKED: REMARK   15  A    between atoms: P_18  and  O_21 
DOCKED: REMARK   16  A    between atoms: O_22  and  P_23 
DOCKED: REMARK   17  A    between atoms: P_23  and  O_25 
DOCKED: REMARK   18  A    between atoms: P_23  and  O_26 
DOCKED: REMARK   19  A    between atoms: O_27  and  P_28 
DOCKED: REMARK   20  A    between atoms: P_28  and  O_30 
DOCKED: REMARK   21  A    between atoms: P_28  and  O_31 
DOCKED: REMARK   22  A    between atoms: O_32  and  P_33 
DOCKED: REMARK   23  A    between atoms: P_33  and  O_35 
DOCKED: REMARK   24  A    between atoms: P_33  and  O_36 
DOCKED: USER                              x       y       z     vdW  Elec       q    Type
DOCKED: USER                           _______ _______ _______ _____ _____    ______ ____
DOCKED: ROOT
DOCKED: ATOM      1  C   UNL d   1     -13.424  -2.067 -15.092 -0.09 +0.13    +0.194 C 
DOCKED: ATOM      2  C   UNL d   1     -14.485  -1.940 -16.187 -0.05 +0.15    +0.194 C 
DOCKED: ATOM      3  C   UNL d   1     -14.514  -3.172 -17.093 -0.03 +0.06    +0.194 C 
DOCKED: ATOM      4  C   UNL d   1     -14.635  -4.484 -16.321 -0.00 +0.00    +0.194 C 
DOCKED: ATOM      5  C   UNL d   1     -13.672  -4.604 -15.147 -0.04 -0.02    +0.194 C 
DOCKED: ATOM      6  C   UNL d   1     -13.597  -3.349 -14.276 -0.07 +0.03    +0.194 C 
DOCKED: ENDROOT
DOCKED: BRANCH   1   7
DOCKED: ATOM      7  O   UNL d   1     -13.577  -0.966 -14.193 -0.23 -0.25    -0.278 OA
DOCKED: BRANCH   7   8
DOCKED: ATOM      8  P   UNL d   1     -12.264  -0.198 -13.703 +0.01 +0.48    +0.473 P 
DOCKED: ATOM      9  O   UNL d   1     -12.387   1.284 -13.639 -0.61 -0.25    -0.228 OA
DOCKED: BRANCH   8  10
DOCKED: ATOM     10  O   UNL d   1     -11.932  -0.862 -12.291 -0.19 -0.10    -0.303 OA
DOCKED: ATOM     11  H   UNL d   1     -11.704  -1.802 -12.417 +0.09 +0.05    +0.222 HD
DOCKED: ENDBRANCH   8  10
DOCKED: BRANCH   8  12
DOCKED: ATOM     12  O   UNL d   1     -11.092  -0.758 -14.618 -0.42 -0.31    -0.303 OA
DOCKED: ATOM     13  H   UNL d   1     -11.107  -1.738 -14.706 +0.10 +0.12    +0.222 HD
DOCKED: ENDBRANCH   8  12
DOCKED: ENDBRANCH   7   8
DOCKED: ENDBRANCH   1   7
DOCKED: BRANCH   2  14
DOCKED: ATOM     14  O   UNL d   1     -15.772  -1.793 -15.574 -0.02 -0.11    -0.278 OA
DOCKED: BRANCH  14  15
DOCKED: ATOM     15  P   UNL d   1     -16.731  -0.665 -16.185 -0.01 +0.18    +0.473 P 
DOCKED: ATOM     16  O   UNL d   1     -17.581   0.093 -15.213 +0.00 -0.05    -0.228 OA
DOCKED: BRANCH  15  17
DOCKED: ATOM     17  O   UNL d   1     -15.745   0.277 -17.008 -0.11 -0.27    -0.303 OA
DOCKED: ATOM     18  H   UNL d   1     -16.219   1.049 -17.374 +0.01 +0.14    +0.222 HD
DOCKED: ENDBRANCH  15  17
DOCKED: BRANCH  15  19
DOCKED: ATOM     19  O   UNL d   1     -17.517  -1.403 -17.354 +0.00 -0.06    -0.303 OA
DOCKED: ATOM     20  H   UNL d   1     -16.922  -1.946 -17.903 +0.01 +0.05    +0.222 HD
DOCKED: ENDBRANCH  15  19
DOCKED: ENDBRANCH  14  15
DOCKED: ENDBRANCH   2  14
DOCKED: BRANCH   6  21
DOCKED: ATOM     21  O   UNL d   1     -12.437  -3.483 -13.458 -0.11 -0.00    -0.278 OA
DOCKED: BRANCH  21  22
DOCKED: ATOM     22  P   UNL d   1     -11.025  -3.795 -14.131 -0.24 -0.14    +0.473 P 
DOCKED: ATOM     23  O   UNL d   1     -10.891  -3.611 -15.605 -0.21 +0.05    -0.228 OA
DOCKED: BRANCH  22  24
DOCKED: ATOM     24  O   UNL d   1     -10.042  -2.901 -13.254 -0.28 +0.06    -0.303 OA
DOCKED: ATOM     25  H   UNL d   1     -10.351  -1.961 -13.308 +0.10 +0.02    +0.222 HD
DOCKED: ENDBRANCH  22  24
DOCKED: BRANCH  22  26
DOCKED: ATOM     26  O   UNL d   1     -10.717  -5.267 -13.576 -0.21 +0.30    -0.303 OA
DOCKED: ATOM     27  H   UNL d   1     -10.616  -5.881 -14.331 -0.48 -0.51    +0.222 HD
DOCKED: ENDBRANCH  22  26
DOCKED: ENDBRANCH  21  22
DOCKED: ENDBRANCH   6  21
DOCKED: BRANCH   3  28
DOCKED: ATOM     28  O   UNL d   1     -15.691  -3.092 -17.887 -0.00 -0.05    -0.278 OA
DOCKED: BRANCH  28  29
DOCKED: ATOM     29  P   UNL d   1     -15.625  -3.374 -19.454 +0.01 +0.05    +0.473 P 
DOCKED: ATOM     30  O   UNL d   1     -14.383  -2.924 -20.134 -0.01 -0.03    -0.228 OA
DOCKED: BRANCH  29  31
DOCKED: ATOM     31  O   UNL d   1     -15.933  -4.944 -19.468 +0.00 +0.00    -0.303 OA
DOCKED: ATOM     32  H   UNL d   1     -15.238  -5.405 -18.943 +0.00 -0.01    +0.222 HD
DOCKED: ENDBRANCH  29  31
DOCKED: BRANCH  29  33
DOCKED: ATOM     33  O   UNL d   1     -16.994  -2.742 -19.965 +0.00 -0.02    -0.303 OA
DOCKED: ATOM     34  H   UNL d   1     -17.566  -2.542 -19.184 +0.00 +0.02    +0.222 HD
DOCKED: ENDBRANCH  29  33
DOCKED: ENDBRANCH  28  29
DOCKED: ENDBRANCH   3  28
DOCKED: BRANCH   5  35
DOCKED: ATOM     35  O   UNL d   1     -14.187  -5.653 -14.329 -0.03 +0.05    -0.278 OA
DOCKED: BRANCH  35  36
DOCKED: ATOM     36  P   UNL d   1     -13.650  -7.145 -14.500 -0.04 -0.18    +0.473 P 
DOCKED: ATOM     37  O   UNL d   1     -13.834  -8.036 -13.313 -0.06 +0.07    -0.228 OA
DOCKED: BRANCH  36  38
DOCKED: ATOM     38  O   UNL d   1     -14.427  -7.624 -15.805 -0.01 +0.07    -0.303 OA
DOCKED: ATOM     39  H   UNL d   1     -14.198  -7.029 -16.552 +0.02 -0.05    +0.222 HD
DOCKED: ENDBRANCH  36  38
DOCKED: BRANCH  36  40
DOCKED: ATOM     40  O   UNL d   1     -12.160  -6.914 -15.005 -0.01 +0.34    -0.303 OA
DOCKED: ATOM     41  H   UNL d   1     -11.501  -7.134 -14.310 -0.49 -0.43    +0.222 HD
DOCKED: ENDBRANCH  36  40
DOCKED: ENDBRANCH  35  36
DOCKED: ENDBRANCH   5  35
DOCKED: BRANCH   4  42
DOCKED: ATOM     42  O   UNL d   1     -14.315  -5.536 -17.238 +0.00 +0.03    -0.278 OA
DOCKED: BRANCH  42  43
DOCKED: ATOM     43  P   UNL d   1     -12.883  -5.536 -17.942 +0.01 -0.11    +0.473 P 
DOCKED: ATOM     44  O   UNL d   1     -11.959  -4.414 -17.619 -0.05 +0.04    -0.228 OA
DOCKED: BRANCH  43  45
DOCKED: ATOM     45  O   UNL d   1     -12.314  -6.976 -17.572 -0.03 +0.15    -0.303 OA
DOCKED: ATOM     46  H   UNL d   1     -12.445  -7.180 -16.625 +0.02 -0.14    +0.222 HD
DOCKED: ENDBRANCH  43  45
DOCKED: BRANCH  43  47
DOCKED: ATOM     47  O   UNL d   1     -13.238  -5.715 -19.494 +0.00 +0.04    -0.303 OA
DOCKED: ATOM     48  H   UNL d   1     -13.798  -4.966 -19.786 +0.01 -0.01    +0.222 HD
DOCKED: ENDBRANCH  43  47
DOCKED: ENDBRANCH  42  43
DOCKED: ENDBRANCH   4  42
DOCKED: TORSDOF 24
DOCKED: TER
DOCKED: ENDMDL
________________________________________________________________________________


	BEGINNING GENETIC ALGORITHM DOCKING 9 of 100
Run: 9 Seed: 1925810919 949396507 [ Run 9 of 100 GA/GALS ]
Beginning LAMARCKIAN GENETIC ALGORITHM (LGA), with a maximum of 25000000 energy evaluations.

Final-Value: -18.996


	FINAL GENETIC ALGORITHM DOCKED STATE
	_______________________________________________


Detailed state:  trans -1.928 19.971 -13.151 quatxyzw -0.586128 0.187033 -0.756347 0.222289 center 0.035 0.082 -0.065 ntor 24 92.7115 55.9212 147.1293 6.0581 71.7695 179.8828 -74.6138 -31.1008 -41.6525 -76.6065 85.9048 -150.0296 -37.8411 77.4991 -66.5329 49.5698 -84.3132 46.7682 34.2410 -29.2975 174.4815 -33.7153 -142.5779 43.6527
State:	 -1.928  19.971 -13.151  -0.601  0.192 -0.776 154.313     92.71   55.92  147.13    6.06   71.77  179.88  -74.61  -31.10  -41.65  -76.61   85.90 -150.03  -37.84   77.50  -66.53   49.57  -84.31   46.77   34.24  -29.30  174.48  -33.72 -142.58   43.65

DOCKED: MODEL        9
DOCKED: USER    Run = 9
DOCKED: USER    DPF = D:/Protein_go_brrr/autodock/final/mut_K82N/IHP/dock.dpf
DOCKED: USER  
DOCKED: USER    Estimated Free Energy of Binding    =   +1.64 kcal/mol  [=(1)+(2)+(3)-(4)]
DOCKED: USER    
DOCKED: USER    (1) Final Intermolecular Energy     =   -5.52 kcal/mol
DOCKED: USER        vdW + Hbond + desolv Energy     =   -5.29 kcal/mol
DOCKED: USER        Electrostatic Energy            =   -0.23 kcal/mol
DOCKED: USER    (2) Final Total Internal Energy     =  -13.48 kcal/mol
DOCKED: USER    (3) Torsional Free Energy           =   +7.16 kcal/mol
DOCKED: USER    (4) Unbound System's Energy  [=(2)] =  -13.48 kcal/mol
DOCKED: USER    
DOCKED: USER    
DOCKED: USER    NEWDPF move IHP_ideal_opt.pdbqt
DOCKED: USER    NEWDPF about 0.035000 0.082000 -0.065000
DOCKED: USER    NEWDPF tran0 -1.928189 19.971287 -13.150971
DOCKED: USER    NEWDPF quaternion0 -0.586128 0.187033 -0.756347 0.222289
DOCKED: USER    NEWDPF axisangle0 -0.601168 0.191833 -0.775756 154.312989
DOCKED: USER    NEWDPF quat0 -0.601168 0.191833 -0.775756 154.312989
DOCKED: USER    NEWDPF dihe0 92.71 55.92 147.13 6.06 71.77 179.88 -74.61 -31.10 -41.65 -76.61 85.90 -150.03 -37.84 77.50 -66.53 49.57 -84.31 46.77 34.24 -29.30 174.48 -33.72 -142.58 43.65 
DOCKED: USER  keepresnum = 1 
DOCKED: USER  
DOCKED: REMARK  24 active torsions:
DOCKED: REMARK  status: ('A' for Active; 'I' for Inactive)
DOCKED: REMARK    1  A    between atoms: C_1  and  O_7 
DOCKED: REMARK    2  A    between atoms: C_2  and  O_12 
DOCKED: REMARK    3  A    between atoms: C_3  and  O_17 
DOCKED: REMARK    4  A    between atoms: C_4  and  O_22 
DOCKED: REMARK    5  A    between atoms: C_5  and  O_27 
DOCKED: REMARK    6  A    between atoms: C_6  and  O_32 
DOCKED: REMARK    7  A    between atoms: O_7  and  P_8 
DOCKED: REMARK    8  A    between atoms: P_8  and  O_10 
DOCKED: REMARK    9  A    between atoms: P_8  and  O_11 
DOCKED: REMARK   10  A    between atoms: O_12  and  P_13 
DOCKED: REMARK   11  A    between atoms: P_13  and  O_15 
DOCKED: REMARK   12  A    between atoms: P_13  and  O_16 
DOCKED: REMARK   13  A    between atoms: O_17  and  P_18 
DOCKED: REMARK   14  A    between atoms: P_18  and  O_20 
DOCKED: REMARK   15  A    between atoms: P_18  and  O_21 
DOCKED: REMARK   16  A    between atoms: O_22  and  P_23 
DOCKED: REMARK   17  A    between atoms: P_23  and  O_25 
DOCKED: REMARK   18  A    between atoms: P_23  and  O_26 
DOCKED: REMARK   19  A    between atoms: O_27  and  P_28 
DOCKED: REMARK   20  A    between atoms: P_28  and  O_30 
DOCKED: REMARK   21  A    between atoms: P_28  and  O_31 
DOCKED: REMARK   22  A    between atoms: O_32  and  P_33 
DOCKED: REMARK   23  A    between atoms: P_33  and  O_35 
DOCKED: REMARK   24  A    between atoms: P_33  and  O_36 
DOCKED: USER                              x       y       z     vdW  Elec       q    Type
DOCKED: USER                           _______ _______ _______ _____ _____    ______ ____
DOCKED: ROOT
DOCKED: ATOM      1  C   UNL d   1      -1.068  20.426 -11.724 -0.09 -0.05    +0.194 C 
DOCKED: ATOM      2  C   UNL d   1      -0.650  21.149 -13.006 -0.02 -0.05    +0.194 C 
DOCKED: ATOM      3  C   UNL d   1      -0.549  20.187 -14.191 -0.04 -0.06    +0.194 C 
DOCKED: ATOM      4  C   UNL d   1      -1.805  19.341 -14.388 -0.12 -0.09    +0.194 C 
DOCKED: ATOM      5  C   UNL d   1      -2.323  18.693 -13.111 -0.12 -0.08    +0.194 C 
DOCKED: ATOM      6  C   UNL d   1      -2.366  19.640 -11.909 -0.19 -0.06    +0.194 C 
DOCKED: ENDROOT
DOCKED: BRANCH   1   7
DOCKED: ATOM      7  O   UNL d   1      -1.306  21.410 -10.714 -0.10 +0.08    -0.278 OA
DOCKED: BRANCH   7   8
DOCKED: ATOM      8  P   UNL d   1      -0.076  21.884  -9.811 -0.14 -0.15    +0.473 P 
DOCKED: ATOM      9  O   UNL d   1       1.267  21.491 -10.317 -0.08 +0.06    -0.228 OA
DOCKED: BRANCH   8  10
DOCKED: ATOM     10  O   UNL d   1      -0.267  23.464  -9.698 -0.08 +0.10    -0.303 OA
DOCKED: ATOM     11  H   UNL d   1      -0.160  23.870 -10.579 +0.04 -0.05    +0.222 HD
DOCKED: ENDBRANCH   8  10
DOCKED: BRANCH   8  12
DOCKED: ATOM     12  O   UNL d   1      -0.433  21.400  -8.341 -0.89 +0.10    -0.303 OA
DOCKED: ATOM     13  H   UNL d   1      -1.205  20.790  -8.312 -0.41 -0.12    +0.222 HD
DOCKED: ENDBRANCH   8  12
DOCKED: ENDBRANCH   7   8
DOCKED: ENDBRANCH   1   7
DOCKED: BRANCH   2  14
DOCKED: ATOM     14  O   UNL d   1      -1.625  22.153 -13.314 -0.01 +0.05    -0.278 OA
DOCKED: BRANCH  14  15
DOCKED: ATOM     15  P   UNL d   1      -1.234  23.664 -12.957 +0.01 -0.08    +0.473 P 
DOCKED: ATOM     16  O   UNL d   1      -1.482  24.691 -14.017 -0.00 +0.03    -0.228 OA
DOCKED: BRANCH  15  17
DOCKED: ATOM     17  O   UNL d   1      -2.031  23.963 -11.610 -0.00 +0.05    -0.303 OA
DOCKED: ATOM     18  H   UNL d   1      -1.867  23.268 -10.943 +0.05 -0.05    +0.222 HD
DOCKED: ENDBRANCH  15  17
DOCKED: BRANCH  15  19
DOCKED: ATOM     19  O   UNL d   1       0.263  23.572 -12.428 +0.00 +0.05    -0.303 OA
DOCKED: ATOM     20  H   UNL d   1       0.351  22.923 -11.706 +0.03 -0.05    +0.222 HD
DOCKED: ENDBRANCH  15  19
DOCKED: ENDBRANCH  14  15
DOCKED: ENDBRANCH   2  14
DOCKED: BRANCH   6  21
DOCKED: ATOM     21  O   UNL d   1      -2.532  18.827 -10.750 -0.28 +0.12    -0.278 OA
DOCKED: BRANCH  21  22
DOCKED: ATOM     22  P   UNL d   1      -1.318  17.933 -10.229 -0.24 -0.16    +0.473 P 
DOCKED: ATOM     23  O   UNL d   1      -0.421  17.304 -11.241 -0.32 +0.07    -0.228 OA
DOCKED: BRANCH  22  24
DOCKED: ATOM     24  O   UNL d   1      -0.592  18.926  -9.219 -0.30 +0.12    -0.303 OA
DOCKED: ATOM     25  H   UNL d   1      -1.144  19.746  -9.143 -0.31 -0.12    +0.222 HD
DOCKED: ENDBRANCH  22  24
DOCKED: BRANCH  22  26
DOCKED: ATOM     26  O   UNL d   1      -2.061  16.927  -9.226 -0.43 +0.12    -0.303 OA
DOCKED: ATOM     27  H   UNL d   1      -3.028  17.072  -9.283 -0.27 -0.10    +0.222 HD
DOCKED: ENDBRANCH  22  26
DOCKED: ENDBRANCH  21  22
DOCKED: ENDBRANCH   6  21
DOCKED: BRANCH   3  28
DOCKED: ATOM     28  O   UNL d   1      -0.434  20.972 -15.371 -0.01 +0.07    -0.278 OA
DOCKED: BRANCH  28  29
DOCKED: ATOM     29  P   UNL d   1       0.950  21.665 -15.745 +0.01 -0.09    +0.473 P 
DOCKED: ATOM     30  O   UNL d   1       2.161  21.033 -15.160 -0.00 +0.05    -0.228 OA
DOCKED: BRANCH  29  31
DOCKED: ATOM     31  O   UNL d   1       0.836  21.674 -17.341 +0.00 +0.06    -0.303 OA
DOCKED: ATOM     32  H   UNL d   1       0.203  20.970 -17.615 +0.01 -0.05    +0.222 HD
DOCKED: ENDBRANCH  29  31
DOCKED: BRANCH  29  33
DOCKED: ATOM     33  O   UNL d   1       0.676  23.186 -15.364 +0.00 +0.05    -0.303 OA
DOCKED: ATOM     34  H   UNL d   1       0.004  23.220 -14.640 +0.00 -0.03    +0.222 HD
DOCKED: ENDBRANCH  29  33
DOCKED: ENDBRANCH  28  29
DOCKED: ENDBRANCH   3  28
DOCKED: BRANCH   5  35
DOCKED: ATOM     35  O   UNL d   1      -3.668  18.308 -13.390 -0.05 +0.12    -0.278 OA
DOCKED: BRANCH  35  36
DOCKED: ATOM     36  P   UNL d   1      -4.400  18.839 -14.704 -0.12 -0.19    +0.473 P 
DOCKED: ATOM     37  O   UNL d   1      -4.132  20.267 -15.059 -0.04 +0.06    -0.228 OA
DOCKED: BRANCH  36  38
DOCKED: ATOM     38  O   UNL d   1      -3.910  17.789 -15.797 -0.13 +0.28    -0.303 OA
DOCKED: ATOM     39  H   UNL d   1      -3.316  18.242 -16.433 +0.01 -0.19    +0.222 HD
DOCKED: ENDBRANCH  36  38
DOCKED: BRANCH  36  40
DOCKED: ATOM     40  O   UNL d   1      -5.915  18.434 -14.436 -0.12 +0.08    -0.303 OA
DOCKED: ATOM     41  H   UNL d   1      -6.248  17.803 -15.112 +0.05 -0.06    +0.222 HD
DOCKED: ENDBRANCH  36  40
DOCKED: ENDBRANCH  35  36
DOCKED: ENDBRANCH   5  35
DOCKED: BRANCH   4  42
DOCKED: ATOM     42  O   UNL d   1      -1.455  18.282 -15.285 -0.14 +0.24    -0.278 OA
DOCKED: BRANCH  42  43
DOCKED: ATOM     43  P   UNL d   1      -1.106  18.638 -16.801 -0.07 -0.35    +0.473 P 
DOCKED: ATOM     44  O   UNL d   1       0.325  18.879 -17.137 -0.05 +0.12    -0.228 OA
DOCKED: BRANCH  43  45
DOCKED: ATOM     45  O   UNL d   1      -1.770  17.436 -17.604 -0.08 +0.38    -0.303 OA
DOCKED: ATOM     46  H   UNL d   1      -2.374  16.916 -17.036 -0.28 -0.51    +0.222 HD
DOCKED: ENDBRANCH  43  45
DOCKED: BRANCH  43  47
DOCKED: ATOM     47  O   UNL d   1      -2.108  19.845 -17.133 -0.02 +0.12    -0.303 OA
DOCKED: ATOM     48  H   UNL d   1      -2.303  20.338 -16.310 +0.02 -0.07    +0.222 HD
DOCKED: ENDBRANCH  43  47
DOCKED: ENDBRANCH  42  43
DOCKED: ENDBRANCH   4  42
DOCKED: TORSDOF 24
DOCKED: TER
DOCKED: ENDMDL
________________________________________________________________________________


	BEGINNING GENETIC ALGORITHM DOCKING 10 of 100
Run: 10 Seed: 344801021 1825786345 [ Run 10 of 100 GA/GALS ]
Beginning LAMARCKIAN GENETIC ALGORITHM (LGA), with a maximum of 25000000 energy evaluations.

Final-Value: -17.967


	FINAL GENETIC ALGORITHM DOCKED STATE
	_______________________________________________


Detailed state:  trans -3.828 -13.126 -18.024 quatxyzw 0.495415 -0.835608 -0.077683 0.224251 center 0.035 0.082 -0.065 ntor 24 -120.4448 -21.2774 170.4960 32.7218 5.5078 -179.9267 -147.8948 12.1147 148.9771 56.9454 -131.4622 177.7763 -167.0401 -179.0134 174.0013 8.2418 82.6006 160.1937 51.1775 -0.8503 -180.0000 -21.5880 10.2012 179.8974
State:	 -3.828 -13.126 -18.024   0.508 -0.857 -0.080 154.082   -120.44  -21.28  170.50   32.72    5.51 -179.93 -147.89   12.11  148.98   56.95 -131.46  177.78 -167.04 -179.01  174.00    8.24   82.60  160.19   51.18   -0.85 -180.00  -21.59   10.20  179.90

DOCKED: MODEL       10
DOCKED: USER    Run = 10
DOCKED: USER    DPF = D:/Protein_go_brrr/autodock/final/mut_K82N/IHP/dock.dpf
DOCKED: USER  
DOCKED: USER    Estimated Free Energy of Binding    =   +3.47 kcal/mol  [=(1)+(2)+(3)-(4)]
DOCKED: USER    
DOCKED: USER    (1) Final Intermolecular Energy     =   -3.68 kcal/mol
DOCKED: USER        vdW + Hbond + desolv Energy     =   -3.51 kcal/mol
DOCKED: USER        Electrostatic Energy            =   -0.18 kcal/mol
DOCKED: USER    (2) Final Total Internal Energy     =  -14.28 kcal/mol
DOCKED: USER    (3) Torsional Free Energy           =   +7.16 kcal/mol
DOCKED: USER    (4) Unbound System's Energy  [=(2)] =  -14.28 kcal/mol
DOCKED: USER    
DOCKED: USER    
DOCKED: USER    NEWDPF move IHP_ideal_opt.pdbqt
DOCKED: USER    NEWDPF about 0.035000 0.082000 -0.065000
DOCKED: USER    NEWDPF tran0 -3.827509 -13.125685 -18.023556
DOCKED: USER    NEWDPF quaternion0 0.495415 -0.835608 -0.077683 0.224251
DOCKED: USER    NEWDPF axisangle0 0.508362 -0.857446 -0.079713 154.082309
DOCKED: USER    NEWDPF quat0 0.508362 -0.857446 -0.079713 154.082309
DOCKED: USER    NEWDPF dihe0 -120.44 -21.28 170.50 32.72 5.51 -179.93 -147.89 12.11 148.98 56.95 -131.46 177.78 -167.04 -179.01 174.00 8.24 82.60 160.19 51.18 -0.85 -180.00 -21.59 10.20 179.90 
DOCKED: USER  keepresnum = 1 
DOCKED: USER  
DOCKED: REMARK  24 active torsions:
DOCKED: REMARK  status: ('A' for Active; 'I' for Inactive)
DOCKED: REMARK    1  A    between atoms: C_1  and  O_7 
DOCKED: REMARK    2  A    between atoms: C_2  and  O_12 
DOCKED: REMARK    3  A    between atoms: C_3  and  O_17 
DOCKED: REMARK    4  A    between atoms: C_4  and  O_22 
DOCKED: REMARK    5  A    between atoms: C_5  and  O_27 
DOCKED: REMARK    6  A    between atoms: C_6  and  O_32 
DOCKED: REMARK    7  A    between atoms: O_7  and  P_8 
DOCKED: REMARK    8  A    between atoms: P_8  and  O_10 
DOCKED: REMARK    9  A    between atoms: P_8  and  O_11 
DOCKED: REMARK   10  A    between atoms: O_12  and  P_13 
DOCKED: REMARK   11  A    between atoms: P_13  and  O_15 
DOCKED: REMARK   12  A    between atoms: P_13  and  O_16 
DOCKED: REMARK   13  A    between atoms: O_17  and  P_18 
DOCKED: REMARK   14  A    between atoms: P_18  and  O_20 
DOCKED: REMARK   15  A    between atoms: P_18  and  O_21 
DOCKED: REMARK   16  A    between atoms: O_22  and  P_23 
DOCKED: REMARK   17  A    between atoms: P_23  and  O_25 
DOCKED: REMARK   18  A    between atoms: P_23  and  O_26 
DOCKED: REMARK   19  A    between atoms: O_27  and  P_28 
DOCKED: REMARK   20  A    between atoms: P_28  and  O_30 
DOCKED: REMARK   21  A    between atoms: P_28  and  O_31 
DOCKED: REMARK   22  A    between atoms: O_32  and  P_33 
DOCKED: REMARK   23  A    between atoms: P_33  and  O_35 
DOCKED: REMARK   24  A    between atoms: P_33  and  O_36 
DOCKED: USER                              x       y       z     vdW  Elec       q    Type
DOCKED: USER                           _______ _______ _______ _____ _____    ______ ____
DOCKED: ROOT
DOCKED: ATOM      1  C   UNL d   1      -3.338 -14.282 -19.209 +0.00 -0.02    +0.194 C 
DOCKED: ATOM      2  C   UNL d   1      -2.244 -13.822 -18.244 -0.03 -0.03    +0.194 C 
DOCKED: ATOM      3  C   UNL d   1      -2.290 -12.310 -18.015 -0.12 -0.06    +0.194 C 
DOCKED: ATOM      4  C   UNL d   1      -3.671 -11.805 -17.606 -0.11 +0.05    +0.194 C 
DOCKED: ATOM      5  C   UNL d   1      -4.807 -12.332 -18.474 -0.07 +0.05    +0.194 C 
DOCKED: ATOM      6  C   UNL d   1      -4.727 -13.834 -18.753 -0.02 +0.01    +0.194 C 
DOCKED: ENDROOT
DOCKED: BRANCH   1   7
DOCKED: ATOM      7  O   UNL d   1      -3.338 -15.712 -19.234 +0.00 +0.02    -0.278 OA
DOCKED: BRANCH   7   8
DOCKED: ATOM      8  P   UNL d   1      -2.123 -16.459 -19.954 +0.01 -0.06    +0.473 P 
DOCKED: ATOM      9  O   UNL d   1      -2.492 -17.246 -21.162 +0.00 +0.03    -0.228 OA
DOCKED: BRANCH   8  10
DOCKED: ATOM     10  O   UNL d   1      -1.079 -15.292 -20.261 +0.00 +0.07    -0.303 OA
DOCKED: ATOM     11  H   UNL d   1      -0.554 -15.104 -19.460 +0.02 -0.06    +0.222 HD
DOCKED: ENDBRANCH   8  10
DOCKED: BRANCH   8  12
DOCKED: ATOM     12  O   UNL d   1      -1.390 -17.265 -18.797 +0.00 +0.03    -0.303 OA
DOCKED: ATOM     13  H   UNL d   1      -0.964 -16.680 -18.131 +0.01 -0.03    +0.222 HD
DOCKED: ENDBRANCH   8  12
DOCKED: ENDBRANCH   7   8
DOCKED: ENDBRANCH   1   7
DOCKED: BRANCH   2  14
DOCKED: ATOM     14  O   UNL d   1      -2.426 -14.480 -16.984 -0.03 +0.01    -0.278 OA
DOCKED: BRANCH  14  15
DOCKED: ATOM     15  P   UNL d   1      -1.133 -15.177 -16.347 -0.02 -0.05    +0.473 P 
DOCKED: ATOM     16  O   UNL d   1      -1.243 -16.636 -16.031 -0.02 +0.01    -0.228 OA
DOCKED: BRANCH  15  17
DOCKED: ATOM     17  O   UNL d   1       0.031 -14.856 -17.385 -0.02 +0.06    -0.303 OA
DOCKED: ATOM     18  H   UNL d   1       0.317 -13.925 -17.316 +0.07 -0.07    +0.222 HD
DOCKED: ENDBRANCH  15  17
DOCKED: BRANCH  15  19
DOCKED: ATOM     19  O   UNL d   1      -0.739 -14.239 -15.124 -0.06 +0.04    -0.303 OA
DOCKED: ATOM     20  H   UNL d   1      -1.029 -13.319 -15.267 +0.07 -0.04    +0.222 HD
DOCKED: ENDBRANCH  15  19
DOCKED: ENDBRANCH  14  15
DOCKED: ENDBRANCH   2  14
DOCKED: BRANCH   6  21
DOCKED: ATOM     21  O   UNL d   1      -5.626 -14.103 -19.826 +0.00 +0.00    -0.278 OA
DOCKED: BRANCH  21  22
DOCKED: ATOM     22  P   UNL d   1      -5.203 -13.746 -21.322 +0.01 -0.06    +0.473 P 
DOCKED: ATOM     23  O   UNL d   1      -6.283 -13.511 -22.324 +0.00 +0.03    -0.228 OA
DOCKED: BRANCH  22  24
DOCKED: ATOM     24  O   UNL d   1      -4.221 -12.513 -21.098 +0.00 +0.07    -0.303 OA
DOCKED: ATOM     25  H   UNL d   1      -4.732 -11.789 -20.654 +0.02 -0.05    +0.222 HD
DOCKED: ENDBRANCH  22  24
DOCKED: BRANCH  22  26
DOCKED: ATOM     26  O   UNL d   1      -4.176 -14.929 -21.661 +0.00 +0.04    -0.303 OA
DOCKED: ATOM     27  H   UNL d   1      -4.170 -15.571 -20.922 +0.00 -0.02    +0.222 HD
DOCKED: ENDBRANCH  22  26
DOCKED: ENDBRANCH  21  22
DOCKED: ENDBRANCH   6  21
DOCKED: BRANCH   3  28
DOCKED: ATOM     28  O   UNL d   1      -1.439 -12.017 -16.914 -0.20 +0.10    -0.278 OA
DOCKED: BRANCH  28  29
DOCKED: ATOM     29  P   UNL d   1       0.106 -11.712 -17.150 -0.20 -0.36    +0.473 P 
DOCKED: ATOM     30  O   UNL d   1       0.652 -12.147 -18.461 -0.18 +0.24    -0.228 OA
DOCKED: BRANCH  29  31
DOCKED: ATOM     31  O   UNL d   1       0.131 -10.142 -16.838 -0.79 +0.26    -0.303 OA
DOCKED: ATOM     32  H   UNL d   1       0.064  -9.652 -17.689 -0.46 -0.37    +0.222 HD
DOCKED: ENDBRANCH  29  31
DOCKED: BRANCH  29  33
DOCKED: ATOM     33  O   UNL d   1       0.773 -12.340 -15.848 -0.25 +0.15    -0.303 OA
DOCKED: ATOM     34  H   UNL d   1       0.725 -13.326 -15.906 +0.08 -0.07    +0.222 HD
DOCKED: ENDBRANCH  29  33
DOCKED: ENDBRANCH  28  29
DOCKED: ENDBRANCH   3  28
DOCKED: BRANCH   5  35
DOCKED: ATOM     35  O   UNL d   1      -6.001 -12.107 -17.727 -0.45 -0.30    -0.278 OA
DOCKED: BRANCH  35  36
DOCKED: ATOM     36  P   UNL d   1      -7.332 -11.627 -18.463 -0.05 +0.14    +0.473 P 
DOCKED: ATOM     37  O   UNL d   1      -8.549 -12.455 -18.200 -0.03 -0.03    -0.228 OA
DOCKED: BRANCH  36  38
DOCKED: ATOM     38  O   UNL d   1      -7.449 -10.117 -17.972 -0.33 -0.04    -0.303 OA
DOCKED: ATOM     39  H   UNL d   1      -6.830  -9.561 -18.492 +0.05 -0.02    +0.222 HD
DOCKED: ENDBRANCH  36  38
DOCKED: BRANCH  36  40
DOCKED: ATOM     40  O   UNL d   1      -6.857 -11.502 -19.976 -0.00 +0.02    -0.303 OA
DOCKED: ATOM     41  H   UNL d   1      -6.000 -11.959 -20.128 +0.02 -0.01    +0.222 HD
DOCKED: ENDBRANCH  36  40
DOCKED: ENDBRANCH  35  36
DOCKED: ENDBRANCH   5  35
DOCKED: BRANCH   4  42
DOCKED: ATOM     42  O   UNL d   1      -3.653 -10.381 -17.755 -0.15 -0.01    -0.278 OA
DOCKED: BRANCH  42  43
DOCKED: ATOM     43  P   UNL d   1      -3.574  -9.761 -19.223 -0.09 -0.24    +0.473 P 
DOCKED: ATOM     44  O   UNL d   1      -2.978  -8.402 -19.362 -0.20 +0.21    -0.228 OA
DOCKED: BRANCH  43  45
DOCKED: ATOM     45  O   UNL d   1      -2.811 -10.893 -20.040 -0.06 +0.21    -0.303 OA
DOCKED: ATOM     46  H   UNL d   1      -3.017 -10.846 -20.995 +0.03 -0.13    +0.222 HD
DOCKED: ENDBRANCH  43  45
DOCKED: BRANCH  43  47
DOCKED: ATOM     47  O   UNL d   1      -5.073  -9.918 -19.769 -0.03 +0.08    -0.303 OA
DOCKED: ATOM     48  H   UNL d   1      -5.612 -10.388 -19.099 +0.05 -0.00    +0.222 HD
DOCKED: ENDBRANCH  43  47
DOCKED: ENDBRANCH  42  43
DOCKED: ENDBRANCH   4  42
DOCKED: TORSDOF 24
DOCKED: TER
DOCKED: ENDMDL
________________________________________________________________________________


	BEGINNING GENETIC ALGORITHM DOCKING 11 of 100
Run: 11 Seed: 1944096384 1923522222 [ Run 11 of 100 GA/GALS ]
Beginning LAMARCKIAN GENETIC ALGORITHM (LGA), with a maximum of 25000000 energy evaluations.

Final-Value: -17.741


	FINAL GENETIC ALGORITHM DOCKED STATE
	_______________________________________________


Detailed state:  trans 9.622 -12.655 -3.376 quatxyzw 0.418705 -0.572285 -0.701634 0.069900 center 0.035 0.082 -0.065 ntor 24 -100.3666 2.9319 157.5812 5.2280 39.9866 -151.3758 153.7205 -78.7675 -179.1736 -72.9126 -111.1495 -165.7691 -142.7409 73.2728 126.8033 75.8464 -163.0095 -2.5643 28.8912 -29.4839 -26.6969 -33.1272 21.5770 161.1179
State:	  9.622 -12.655  -3.376   0.420 -0.574 -0.703 171.984   -100.37    2.93  157.58    5.23   39.99 -151.38  153.72  -78.77 -179.17  -72.91 -111.15 -165.77 -142.74   73.27  126.80   75.85 -163.01   -2.56   28.89  -29.48  -26.70  -33.13   21.58  161.12

DOCKED: MODEL       11
DOCKED: USER    Run = 11
DOCKED: USER    DPF = D:/Protein_go_brrr/autodock/final/mut_K82N/IHP/dock.dpf
DOCKED: USER  
DOCKED: USER    Estimated Free Energy of Binding    =   +3.12 kcal/mol  [=(1)+(2)+(3)-(4)]
DOCKED: USER    
DOCKED: USER    (1) Final Intermolecular Energy     =   -4.04 kcal/mol
DOCKED: USER        vdW + Hbond + desolv Energy     =   -3.74 kcal/mol
DOCKED: USER        Electrostatic Energy            =   -0.31 kcal/mol
DOCKED: USER    (2) Final Total Internal Energy     =  -13.70 kcal/mol
DOCKED: USER    (3) Torsional Free Energy           =   +7.16 kcal/mol
DOCKED: USER    (4) Unbound System's Energy  [=(2)] =  -13.70 kcal/mol
DOCKED: USER    
DOCKED: USER    
DOCKED: USER    NEWDPF move IHP_ideal_opt.pdbqt
DOCKED: USER    NEWDPF about 0.035000 0.082000 -0.065000
DOCKED: USER    NEWDPF tran0 9.621553 -12.654793 -3.375879
DOCKED: USER    NEWDPF quaternion0 0.418705 -0.572285 -0.701634 0.069900
DOCKED: USER    NEWDPF axisangle0 0.419732 -0.573688 -0.703354 171.983564
DOCKED: USER    NEWDPF quat0 0.419732 -0.573688 -0.703354 171.983564
DOCKED: USER    NEWDPF dihe0 -100.37 2.93 157.58 5.23 39.99 -151.38 153.72 -78.77 -179.17 -72.91 -111.15 -165.77 -142.74 73.27 126.80 75.85 -163.01 -2.56 28.89 -29.48 -26.70 -33.13 21.58 161.12 
DOCKED: USER  keepresnum = 1 
DOCKED: USER  
DOCKED: REMARK  24 active torsions:
DOCKED: REMARK  status: ('A' for Active; 'I' for Inactive)
DOCKED: REMARK    1  A    between atoms: C_1  and  O_7 
DOCKED: REMARK    2  A    between atoms: C_2  and  O_12 
DOCKED: REMARK    3  A    between atoms: C_3  and  O_17 
DOCKED: REMARK    4  A    between atoms: C_4  and  O_22 
DOCKED: REMARK    5  A    between atoms: C_5  and  O_27 
DOCKED: REMARK    6  A    between atoms: C_6  and  O_32 
DOCKED: REMARK    7  A    between atoms: O_7  and  P_8 
DOCKED: REMARK    8  A    between atoms: P_8  and  O_10 
DOCKED: REMARK    9  A    between atoms: P_8  and  O_11 
DOCKED: REMARK   10  A    between atoms: O_12  and  P_13 
DOCKED: REMARK   11  A    between atoms: P_13  and  O_15 
DOCKED: REMARK   12  A    between atoms: P_13  and  O_16 
DOCKED: REMARK   13  A    between atoms: O_17  and  P_18 
DOCKED: REMARK   14  A    between atoms: P_18  and  O_20 
DOCKED: REMARK   15  A    between atoms: P_18  and  O_21 
DOCKED: REMARK   16  A    between atoms: O_22  and  P_23 
DOCKED: REMARK   17  A    between atoms: P_23  and  O_25 
DOCKED: REMARK   18  A    between atoms: P_23  and  O_26 
DOCKED: REMARK   19  A    between atoms: O_27  and  P_28 
DOCKED: REMARK   20  A    between atoms: P_28  and  O_30 
DOCKED: REMARK   21  A    between atoms: P_28  and  O_31 
DOCKED: REMARK   22  A    between atoms: O_32  and  P_33 
DOCKED: REMARK   23  A    between atoms: P_33  and  O_35 
DOCKED: REMARK   24  A    between atoms: P_33  and  O_36 
DOCKED: USER                              x       y       z     vdW  Elec       q    Type
DOCKED: USER                           _______ _______ _______ _____ _____    ______ ____
DOCKED: ROOT
DOCKED: ATOM      1  C   UNL d   1       8.931 -12.153  -4.878 -0.06 +0.02    +0.194 C 
DOCKED: ATOM      2  C   UNL d   1      10.381 -11.726  -4.641 -0.03 +0.01    +0.194 C 
DOCKED: ATOM      3  C   UNL d   1      10.597 -11.222  -3.213 -0.03 +0.01    +0.194 C 
DOCKED: ATOM      4  C   UNL d   1      10.103 -12.200  -2.149 -0.03 +0.02    +0.194 C 
DOCKED: ATOM      5  C   UNL d   1       8.702 -12.741  -2.407 -0.06 +0.02    +0.194 C 
DOCKED: ATOM      6  C   UNL d   1       8.467 -13.187  -3.852 -0.05 +0.03    +0.194 C 
DOCKED: ENDROOT
DOCKED: BRANCH   1   7
DOCKED: ATOM      7  O   UNL d   1       8.852 -12.767  -6.167 -0.03 -0.02    -0.278 OA
DOCKED: BRANCH   7   8
DOCKED: ATOM      8  P   UNL d   1       8.448 -11.858  -7.417 -0.04 +0.01    +0.473 P 
DOCKED: ATOM      9  O   UNL d   1       6.991 -11.801  -7.712 -0.10 -0.02    -0.228 OA
DOCKED: BRANCH   8  10
DOCKED: ATOM     10  O   UNL d   1       9.075 -10.431  -7.076 -0.16 +0.00    -0.303 OA
DOCKED: ATOM     11  H   UNL d   1       9.898 -10.306  -7.584 +0.02 -0.01    +0.222 HD
DOCKED: ENDBRANCH   8  10
DOCKED: BRANCH   8  12
DOCKED: ATOM     12  O   UNL d   1       9.378 -12.354  -8.606 -0.01 +0.00    -0.303 OA
DOCKED: ATOM     13  H   UNL d   1      10.307 -12.518  -8.326 +0.01 -0.00    +0.222 HD
DOCKED: ENDBRANCH   8  12
DOCKED: ENDBRANCH   7   8
DOCKED: ENDBRANCH   1   7
DOCKED: BRANCH   2  14
DOCKED: ATOM     14  O   UNL d   1      11.241 -12.850  -4.864 -0.00 -0.01    -0.278 OA
DOCKED: BRANCH  14  15
DOCKED: ATOM     15  P   UNL d   1      12.025 -12.886  -6.260 +0.01 -0.00    +0.473 P 
DOCKED: ATOM     16  O   UNL d   1      13.504 -13.104  -6.195 +0.00 +0.00    -0.228 OA
DOCKED: BRANCH  15  17
DOCKED: ATOM     17  O   UNL d   1      11.271 -14.010  -7.100 +0.00 -0.00    -0.303 OA
DOCKED: ATOM     18  H   UNL d   1      10.337 -13.770  -7.250 +0.01 +0.00    +0.222 HD
DOCKED: ENDBRANCH  15  17
DOCKED: BRANCH  15  19
DOCKED: ATOM     19  O   UNL d   1      11.560 -11.562  -7.010 -0.00 +0.00    -0.303 OA
DOCKED: ATOM     20  H   UNL d   1      10.589 -11.507  -7.076 +0.01 -0.00    +0.222 HD
DOCKED: ENDBRANCH  15  19
DOCKED: ENDBRANCH  14  15
DOCKED: ENDBRANCH   2  14
DOCKED: BRANCH   6  21
DOCKED: ATOM     21  O   UNL d   1       7.058 -13.334  -4.013 -0.10 -0.08    -0.278 OA
DOCKED: BRANCH  21  22
DOCKED: ATOM     22  P   UNL d   1       6.467 -14.682  -4.628 -0.06 +0.21    +0.473 P 
DOCKED: ATOM     23  O   UNL d   1       5.052 -15.037  -4.318 -0.38 -0.32    -0.228 OA
DOCKED: BRANCH  22  24
DOCKED: ATOM     24  O   UNL d   1       6.787 -14.502  -6.176 -0.01 -0.09    -0.303 OA
DOCKED: ATOM     25  H   UNL d   1       6.837 -13.531  -6.370 +0.04 +0.06    +0.222 HD
DOCKED: ENDBRANCH  22  24
DOCKED: BRANCH  22  26
DOCKED: ATOM     26  O   UNL d   1       7.574 -15.754  -4.184 -0.04 -0.07    -0.303 OA
DOCKED: ATOM     27  H   UNL d   1       7.929 -15.505  -3.307 +0.05 +0.04    +0.222 HD
DOCKED: ENDBRANCH  22  26
DOCKED: ENDBRANCH  21  22
DOCKED: ENDBRANCH   6  21
DOCKED: BRANCH   3  28
DOCKED: ATOM     28  O   UNL d   1      12.000 -11.116  -3.004 -0.00 -0.01    -0.278 OA
DOCKED: BRANCH  28  29
DOCKED: ATOM     29  P   UNL d   1      12.811  -9.884  -3.605 +0.01 +0.00    +0.473 P 
DOCKED: ATOM     30  O   UNL d   1      12.240  -8.542  -3.324 -0.02 -0.00    -0.228 OA
DOCKED: BRANCH  29  31
DOCKED: ATOM     31  O   UNL d   1      14.266 -10.192  -3.013 -0.00 -0.00    -0.303 OA
DOCKED: ATOM     32  H   UNL d   1      14.765  -9.346  -2.951 +0.00 +0.00    +0.222 HD
DOCKED: ENDBRANCH  29  31
DOCKED: BRANCH  29  33
DOCKED: ATOM     33  O   UNL d   1      12.959 -10.297  -5.136 +0.00 +0.00    -0.303 OA
DOCKED: ATOM     34  H   UNL d   1      12.819 -11.272  -5.220 +0.01 -0.00    +0.222 HD
DOCKED: ENDBRANCH  29  33
DOCKED: ENDBRANCH  28  29
DOCKED: ENDBRANCH   3  28
DOCKED: BRANCH   5  35
DOCKED: ATOM     35  O   UNL d   1       8.577 -13.899  -1.584 -0.06 -0.04    -0.278 OA
DOCKED: BRANCH  35  36
DOCKED: ATOM     36  P   UNL d   1       7.145 -14.359  -1.054 -0.15 +0.10    +0.473 P 
DOCKED: ATOM     37  O   UNL d   1       6.981 -14.373   0.433 -0.95 -0.11    -0.228 OA
DOCKED: BRANCH  36  38
DOCKED: ATOM     38  O   UNL d   1       6.177 -13.344  -1.809 -0.19 -0.07    -0.303 OA
DOCKED: ATOM     39  H   UNL d   1       5.655 -13.836  -2.479 -0.27 +0.06    +0.222 HD
DOCKED: ENDBRANCH  36  38
DOCKED: BRANCH  36  40
DOCKED: ATOM     40  O   UNL d   1       6.926 -15.737  -1.818 -0.19 -0.05    -0.303 OA
DOCKED: ATOM     41  H   UNL d   1       6.176 -15.687  -2.451 -0.44 +0.03    +0.222 HD
DOCKED: ENDBRANCH  36  40
DOCKED: ENDBRANCH  35  36
DOCKED: ENDBRANCH   5  35
DOCKED: BRANCH   4  42
DOCKED: ATOM     42  O   UNL d   1      10.054 -11.478  -0.914 -0.05 -0.02    -0.278 OA
DOCKED: BRANCH  42  43
DOCKED: ATOM     43  P   UNL d   1       9.313 -10.066  -0.873 +0.00 +0.03    +0.473 P 
DOCKED: ATOM     44  O   UNL d   1       8.008  -9.956  -1.582 -0.11 -0.02    -0.228 OA
DOCKED: BRANCH  43  45
DOCKED: ATOM     45  O   UNL d   1       9.236  -9.757   0.686 -0.24 -0.02    -0.303 OA
DOCKED: ATOM     46  H   UNL d   1       8.855  -8.873   0.857 +0.00 -0.00    +0.222 HD
DOCKED: ENDBRANCH  43  45
DOCKED: BRANCH  43  47
DOCKED: ATOM     47  O   UNL d   1      10.449  -9.042  -1.352 -0.07 -0.01    -0.303 OA
DOCKED: ATOM     48  H   UNL d   1      11.197  -9.546  -1.736 +0.04 +0.01    +0.222 HD
DOCKED: ENDBRANCH  43  47
DOCKED: ENDBRANCH  42  43
DOCKED: ENDBRANCH   4  42
DOCKED: TORSDOF 24
DOCKED: TER
DOCKED: ENDMDL
________________________________________________________________________________


	BEGINNING GENETIC ALGORITHM DOCKING 12 of 100
Run: 12 Seed: 1427545706 1492017948 [ Run 12 of 100 GA/GALS ]
Beginning LAMARCKIAN GENETIC ALGORITHM (LGA), with a maximum of 25000000 energy evaluations.

Final-Value: -18.307


	FINAL GENETIC ALGORITHM DOCKED STATE
	_______________________________________________


Detailed state:  trans 12.631 7.213 -11.911 quatxyzw -0.341303 0.107479 0.805733 0.471969 center 0.035 0.082 -0.065 ntor 24 149.2371 113.5929 84.6373 128.8251 -157.5363 -62.7694 -87.8427 69.2156 131.9984 33.4319 159.1410 147.4046 -83.3849 -67.3328 12.1851 73.5396 -128.1833 108.8052 56.9394 9.3802 -65.3829 128.5465 147.3762 -51.4885
State:	 12.631   7.213 -11.911  -0.387  0.122  0.914 123.676    149.24  113.59   84.64  128.83 -157.54  -62.77  -87.84   69.22  132.00   33.43  159.14  147.40  -83.38  -67.33   12.19   73.54 -128.18  108.81   56.94    9.38  -65.38  128.55  147.38  -51.49

DOCKED: MODEL       12
DOCKED: USER    Run = 12
DOCKED: USER    DPF = D:/Protein_go_brrr/autodock/final/mut_K82N/IHP/dock.dpf
DOCKED: USER  
DOCKED: USER    Estimated Free Energy of Binding    =   +2.10 kcal/mol  [=(1)+(2)+(3)-(4)]
DOCKED: USER    
DOCKED: USER    (1) Final Intermolecular Energy     =   -5.06 kcal/mol
DOCKED: USER        vdW + Hbond + desolv Energy     =   -4.39 kcal/mol
DOCKED: USER        Electrostatic Energy            =   -0.67 kcal/mol
DOCKED: USER    (2) Final Total Internal Energy     =  -13.25 kcal/mol
DOCKED: USER    (3) Torsional Free Energy           =   +7.16 kcal/mol
DOCKED: USER    (4) Unbound System's Energy  [=(2)] =  -13.25 kcal/mol
DOCKED: USER    
DOCKED: USER    
DOCKED: USER    NEWDPF move IHP_ideal_opt.pdbqt
DOCKED: USER    NEWDPF about 0.035000 0.082000 -0.065000
DOCKED: USER    NEWDPF tran0 12.631354 7.213362 -11.911396
DOCKED: USER    NEWDPF quaternion0 -0.341303 0.107479 0.805733 0.471969
DOCKED: USER    NEWDPF axisangle0 -0.387134 0.121912 0.913928 123.675632
DOCKED: USER    NEWDPF quat0 -0.387134 0.121912 0.913928 123.675632
DOCKED: USER    NEWDPF dihe0 149.24 113.59 84.64 128.83 -157.54 -62.77 -87.84 69.22 132.00 33.43 159.14 147.40 -83.38 -67.33 12.19 73.54 -128.18 108.81 56.94 9.38 -65.38 128.55 147.38 -51.49 
DOCKED: USER  keepresnum = 1 
DOCKED: USER  
DOCKED: REMARK  24 active torsions:
DOCKED: REMARK  status: ('A' for Active; 'I' for Inactive)
DOCKED: REMARK    1  A    between atoms: C_1  and  O_7 
DOCKED: REMARK    2  A    between atoms: C_2  and  O_12 
DOCKED: REMARK    3  A    between atoms: C_3  and  O_17 
DOCKED: REMARK    4  A    between atoms: C_4  and  O_22 
DOCKED: REMARK    5  A    between atoms: C_5  and  O_27 
DOCKED: REMARK    6  A    between atoms: C_6  and  O_32 
DOCKED: REMARK    7  A    between atoms: O_7  and  P_8 
DOCKED: REMARK    8  A    between atoms: P_8  and  O_10 
DOCKED: REMARK    9  A    between atoms: P_8  and  O_11 
DOCKED: REMARK   10  A    between atoms: O_12  and  P_13 
DOCKED: REMARK   11  A    between atoms: P_13  and  O_15 
DOCKED: REMARK   12  A    between atoms: P_13  and  O_16 
DOCKED: REMARK   13  A    between atoms: O_17  and  P_18 
DOCKED: REMARK   14  A    between atoms: P_18  and  O_20 
DOCKED: REMARK   15  A    between atoms: P_18  and  O_21 
DOCKED: REMARK   16  A    between atoms: O_22  and  P_23 
DOCKED: REMARK   17  A    between atoms: P_23  and  O_25 
DOCKED: REMARK   18  A    between atoms: P_23  and  O_26 
DOCKED: REMARK   19  A    between atoms: O_27  and  P_28 
DOCKED: REMARK   20  A    between atoms: P_28  and  O_30 
DOCKED: REMARK   21  A    between atoms: P_28  and  O_31 
DOCKED: REMARK   22  A    between atoms: O_32  and  P_33 
DOCKED: REMARK   23  A    between atoms: P_33  and  O_35 
DOCKED: REMARK   24  A    between atoms: P_33  and  O_36 
DOCKED: USER                              x       y       z     vdW  Elec       q    Type
DOCKED: USER                           _______ _______ _______ _____ _____    ______ ____
DOCKED: ROOT
DOCKED: ATOM      1  C   UNL d   1      11.103   6.522 -12.325 -0.16 -0.04    +0.194 C 
DOCKED: ATOM      2  C   UNL d   1      11.192   8.045 -12.438 -0.20 -0.01    +0.194 C 
DOCKED: ATOM      3  C   UNL d   1      11.928   8.660 -11.245 -0.08 -0.01    +0.194 C 
DOCKED: ATOM      4  C   UNL d   1      13.289   8.020 -10.984 -0.19 -0.02    +0.194 C 
DOCKED: ATOM      5  C   UNL d   1      13.268   6.497 -10.977 -0.12 -0.03    +0.194 C 
DOCKED: ATOM      6  C   UNL d   1      12.479   5.883 -12.136 -0.07 -0.04    +0.194 C 
DOCKED: ENDROOT
DOCKED: BRANCH   1   7
DOCKED: ATOM      7  O   UNL d   1      10.562   6.016 -13.547 -0.07 +0.07    -0.278 OA
DOCKED: BRANCH   7   8
DOCKED: ATOM      8  P   UNL d   1       9.056   6.392 -13.924 -0.09 +0.04    +0.473 P 
DOCKED: ATOM      9  O   UNL d   1       8.141   6.571 -12.764 -0.34 -0.05    -0.228 OA
DOCKED: BRANCH   8  10
DOCKED: ATOM     10  O   UNL d   1       9.198   7.704 -14.820 -0.45 -0.21    -0.303 OA
DOCKED: ATOM     11  H   UNL d   1      10.121   8.017 -14.797 +0.05 +0.06    +0.222 HD
DOCKED: ENDBRANCH   8  10
DOCKED: BRANCH   8  12
DOCKED: ATOM     12  O   UNL d   1       8.614   5.304 -14.995 -0.57 +0.13    -0.303 OA
DOCKED: ATOM     13  H   UNL d   1       8.528   4.401 -14.614 -0.49 -0.50    +0.222 HD
DOCKED: ENDBRANCH   8  12
DOCKED: ENDBRANCH   7   8
DOCKED: ENDBRANCH   1   7
DOCKED: BRANCH   2  14
DOCKED: ATOM     14  O   UNL d   1      11.902   8.384 -13.636 -0.05 +0.00    -0.278 OA
DOCKED: BRANCH  14  15
DOCKED: ATOM     15  P   UNL d   1      11.357   9.646 -14.458 -0.04 +0.05    +0.473 P 
DOCKED: ATOM     16  O   UNL d   1      10.017  10.180 -14.060 -0.16 -0.07    -0.228 OA
DOCKED: BRANCH  15  17
DOCKED: ATOM     17  O   UNL d   1      12.518  10.728 -14.321 -0.02 -0.01    -0.303 OA
DOCKED: ATOM     18  H   UNL d   1      13.176  10.456 -13.653 +0.03 -0.00    +0.222 HD
DOCKED: ENDBRANCH  15  17
DOCKED: BRANCH  15  19
DOCKED: ATOM     19  O   UNL d   1      11.498   9.217 -15.983 -0.01 -0.02    -0.303 OA
DOCKED: ATOM     20  H   UNL d   1      10.870   8.509 -16.218 +0.03 +0.03    +0.222 HD
DOCKED: ENDBRANCH  15  19
DOCKED: ENDBRANCH  14  15
DOCKED: ENDBRANCH   2  14
DOCKED: BRANCH   6  21
DOCKED: ATOM     21  O   UNL d   1      12.262   4.513 -11.807 -0.05 +0.09    -0.278 OA
DOCKED: BRANCH  21  22
DOCKED: ATOM     22  P   UNL d   1      11.728   3.506 -12.923 -0.03 -0.26    +0.473 P 
DOCKED: ATOM     23  O   UNL d   1      12.309   3.599 -14.294 -0.02 +0.09    -0.228 OA
DOCKED: BRANCH  22  24
DOCKED: ATOM     24  O   UNL d   1      11.922   2.097 -12.210 -0.09 +0.18    -0.303 OA
DOCKED: ATOM     25  H   UNL d   1      11.109   1.553 -12.374 +0.06 -0.18    +0.222 HD
DOCKED: ENDBRANCH  22  24
DOCKED: BRANCH  22  26
DOCKED: ATOM     26  O   UNL d   1      10.142   3.715 -12.817 -0.02 +0.37    -0.303 OA
DOCKED: ATOM     27  H   UNL d   1       9.793   3.982 -13.692 -0.42 -0.38    +0.222 HD
DOCKED: ENDBRANCH  22  26
DOCKED: ENDBRANCH  21  22
DOCKED: ENDBRANCH   6  21
DOCKED: BRANCH   3  28
DOCKED: ATOM     28  O   UNL d   1      12.205  10.017 -11.566 -0.23 -0.00    -0.278 OA
DOCKED: BRANCH  28  29
DOCKED: ATOM     29  P   UNL d   1      13.707  10.547 -11.594 -0.10 -0.01    +0.473 P 
DOCKED: ATOM     30  O   UNL d   1      14.673   9.697 -12.335 -0.03 +0.01    -0.228 OA
DOCKED: BRANCH  29  31
DOCKED: ATOM     31  O   UNL d   1      13.469  12.030 -12.148 -0.05 +0.00    -0.303 OA
DOCKED: ATOM     32  H   UNL d   1      12.737  12.005 -12.807 +0.04 +0.00    +0.222 HD
DOCKED: ENDBRANCH  29  31
DOCKED: BRANCH  29  33
DOCKED: ATOM     33  O   UNL d   1      14.002  10.793 -10.048 -0.14 +0.01    -0.303 OA
DOCKED: ATOM     34  H   UNL d   1      14.842  10.332  -9.805 +0.04 -0.01    +0.222 HD
DOCKED: ENDBRANCH  29  33
DOCKED: ENDBRANCH  28  29
DOCKED: ENDBRANCH   3  28
DOCKED: BRANCH   5  35
DOCKED: ATOM     35  O   UNL d   1      14.626   6.090 -11.132 -0.02 +0.04    -0.278 OA
DOCKED: BRANCH  35  36
DOCKED: ATOM     36  P   UNL d   1      15.291   6.039 -12.581 +0.00 -0.05    +0.473 P 
DOCKED: ATOM     37  O   UNL d   1      15.037   4.790 -13.363 -0.00 +0.03    -0.228 OA
DOCKED: BRANCH  36  38
DOCKED: ATOM     38  O   UNL d   1      14.711   7.361 -13.252 -0.01 +0.03    -0.303 OA
DOCKED: ATOM     39  H   UNL d   1      15.016   8.142 -12.741 +0.02 -0.02    +0.222 HD
DOCKED: ENDBRANCH  36  38
DOCKED: BRANCH  36  40
DOCKED: ATOM     40  O   UNL d   1      16.808   6.401 -12.271 -0.00 +0.03    -0.303 OA
DOCKED: ATOM     41  H   UNL d   1      16.932   6.685 -11.338 +0.01 -0.02    +0.222 HD
DOCKED: ENDBRANCH  36  40
DOCKED: ENDBRANCH  35  36
DOCKED: ENDBRANCH   5  35
DOCKED: BRANCH   4  42
DOCKED: ATOM     42  O   UNL d   1      13.702   8.441  -9.680 -0.18 +0.02    -0.278 OA
DOCKED: BRANCH  42  43
DOCKED: ATOM     43  P   UNL d   1      15.238   8.299  -9.273 -0.08 -0.03    +0.473 P 
DOCKED: ATOM     44  O   UNL d   1      15.759   9.219  -8.224 -0.08 +0.01    -0.228 OA
DOCKED: BRANCH  43  45
DOCKED: ATOM     45  O   UNL d   1      15.360   6.756  -8.904 -0.04 +0.03    -0.303 OA
DOCKED: ATOM     46  H   UNL d   1      15.537   6.211  -9.696 +0.03 -0.02    +0.222 HD
DOCKED: ENDBRANCH  43  45
DOCKED: BRANCH  43  47
DOCKED: ATOM     47  O   UNL d   1      15.997   8.357 -10.683 -0.02 +0.02    -0.303 OA
DOCKED: ATOM     48  H   UNL d   1      15.437   7.936 -11.369 +0.02 -0.02    +0.222 HD
DOCKED: ENDBRANCH  43  47
DOCKED: ENDBRANCH  42  43
DOCKED: ENDBRANCH   4  42
DOCKED: TORSDOF 24
DOCKED: TER
DOCKED: ENDMDL
________________________________________________________________________________


	BEGINNING GENETIC ALGORITHM DOCKING 13 of 100
Run: 13 Seed: 1767019418 1177811228 [ Run 13 of 100 GA/GALS ]
Beginning LAMARCKIAN GENETIC ALGORITHM (LGA), with a maximum of 25000000 energy evaluations.

Final-Value: -17.181


	FINAL GENETIC ALGORITHM DOCKED STATE
	_______________________________________________


Detailed state:  trans 10.266 13.964 -13.774 quatxyzw 0.202993 0.504494 -0.830233 0.122445 center 0.035 0.082 -0.065 ntor 24 -168.4830 -57.2508 101.4112 102.8008 23.7834 -151.3594 -164.5822 -127.3262 120.1718 -54.6860 -12.8068 149.4794 -125.7410 100.3016 -51.1653 65.8930 161.5434 8.5674 43.4321 -6.5505 169.1105 7.9492 24.4790 -174.1830
State:	 10.266  13.964 -13.774   0.205  0.508 -0.837 165.934   -168.48  -57.25  101.41  102.80   23.78 -151.36 -164.58 -127.33  120.17  -54.69  -12.81  149.48 -125.74  100.30  -51.17   65.89  161.54    8.57   43.43   -6.55  169.11    7.95   24.48 -174.18

DOCKED: MODEL       13
DOCKED: USER    Run = 13
DOCKED: USER    DPF = D:/Protein_go_brrr/autodock/final/mut_K82N/IHP/dock.dpf
DOCKED: USER  
DOCKED: USER    Estimated Free Energy of Binding    =   +3.48 kcal/mol  [=(1)+(2)+(3)-(4)]
DOCKED: USER    
DOCKED: USER    (1) Final Intermolecular Energy     =   -3.68 kcal/mol
DOCKED: USER        vdW + Hbond + desolv Energy     =   -3.62 kcal/mol
DOCKED: USER        Electrostatic Energy            =   -0.06 kcal/mol
DOCKED: USER    (2) Final Total Internal Energy     =  -13.50 kcal/mol
DOCKED: USER    (3) Torsional Free Energy           =   +7.16 kcal/mol
DOCKED: USER    (4) Unbound System's Energy  [=(2)] =  -13.50 kcal/mol
DOCKED: USER    
DOCKED: USER    
DOCKED: USER    NEWDPF move IHP_ideal_opt.pdbqt
DOCKED: USER    NEWDPF about 0.035000 0.082000 -0.065000
DOCKED: USER    NEWDPF tran0 10.265660 13.963921 -13.773660
DOCKED: USER    NEWDPF quaternion0 0.202993 0.504494 -0.830233 0.122445
DOCKED: USER    NEWDPF axisangle0 0.204532 0.508319 -0.836528 165.933561
DOCKED: USER    NEWDPF quat0 0.204532 0.508319 -0.836528 165.933561
DOCKED: USER    NEWDPF dihe0 -168.48 -57.25 101.41 102.80 23.78 -151.36 -164.58 -127.33 120.17 -54.69 -12.81 149.48 -125.74 100.30 -51.17 65.89 161.54 8.57 43.43 -6.55 169.11 7.95 24.48 -174.18 
DOCKED: USER  keepresnum = 1 
DOCKED: USER  
DOCKED: REMARK  24 active torsions:
DOCKED: REMARK  status: ('A' for Active; 'I' for Inactive)
DOCKED: REMARK    1  A    between atoms: C_1  and  O_7 
DOCKED: REMARK    2  A    between atoms: C_2  and  O_12 
DOCKED: REMARK    3  A    between atoms: C_3  and  O_17 
DOCKED: REMARK    4  A    between atoms: C_4  and  O_22 
DOCKED: REMARK    5  A    between atoms: C_5  and  O_27 
DOCKED: REMARK    6  A    between atoms: C_6  and  O_32 
DOCKED: REMARK    7  A    between atoms: O_7  and  P_8 
DOCKED: REMARK    8  A    between atoms: P_8  and  O_10 
DOCKED: REMARK    9  A    between atoms: P_8  and  O_11 
DOCKED: REMARK   10  A    between atoms: O_12  and  P_13 
DOCKED: REMARK   11  A    between atoms: P_13  and  O_15 
DOCKED: REMARK   12  A    between atoms: P_13  and  O_16 
DOCKED: REMARK   13  A    between atoms: O_17  and  P_18 
DOCKED: REMARK   14  A    between atoms: P_18  and  O_20 
DOCKED: REMARK   15  A    between atoms: P_18  and  O_21 
DOCKED: REMARK   16  A    between atoms: O_22  and  P_23 
DOCKED: REMARK   17  A    between atoms: P_23  and  O_25 
DOCKED: REMARK   18  A    between atoms: P_23  and  O_26 
DOCKED: REMARK   19  A    between atoms: O_27  and  P_28 
DOCKED: REMARK   20  A    between atoms: P_28  and  O_30 
DOCKED: REMARK   21  A    between atoms: P_28  and  O_31 
DOCKED: REMARK   22  A    between atoms: O_32  and  P_33 
DOCKED: REMARK   23  A    between atoms: P_33  and  O_35 
DOCKED: REMARK   24  A    between atoms: P_33  and  O_36 
DOCKED: USER                              x       y       z     vdW  Elec       q    Type
DOCKED: USER                           _______ _______ _______ _____ _____    ______ ____
DOCKED: ROOT
DOCKED: ATOM      1  C   UNL d   1       8.788  14.261 -12.930 -0.15 +0.02    +0.194 C 
DOCKED: ATOM      2  C   UNL d   1      10.064  14.413 -12.101 -0.16 +0.01    +0.194 C 
DOCKED: ATOM      3  C   UNL d   1      11.060  13.285 -12.381 -0.15 +0.01    +0.194 C 
DOCKED: ATOM      4  C   UNL d   1      11.355  13.100 -13.867 -0.06 +0.01    +0.194 C 
DOCKED: ATOM      5  C   UNL d   1      10.112  13.058 -14.747 -0.05 +0.02    +0.194 C 
DOCKED: ATOM      6  C   UNL d   1       9.089  14.149 -14.425 -0.06 +0.01    +0.194 C 
DOCKED: ENDROOT
DOCKED: BRANCH   1   7
DOCKED: ATOM      7  O   UNL d   1       7.992  15.434 -12.743 -0.09 +0.00    -0.278 OA
DOCKED: BRANCH   7   8
DOCKED: ATOM      8  P   UNL d   1       7.127  15.559 -11.405 -0.16 -0.04    +0.473 P 
DOCKED: ATOM      9  O   UNL d   1       5.914  14.698 -11.356 -0.36 +0.03    -0.228 OA
DOCKED: BRANCH   8  10
DOCKED: ATOM     10  O   UNL d   1       8.169  15.244 -10.240 -0.19 +0.01    -0.303 OA
DOCKED: ATOM     11  H   UNL d   1       9.052  15.575 -10.492 +0.08 +0.00    +0.222 HD
DOCKED: ENDBRANCH   8  10
DOCKED: BRANCH   8  12
DOCKED: ATOM     12  O   UNL d   1       6.879  17.117 -11.218 -0.08 +0.04    -0.303 OA
DOCKED: ATOM     13  H   UNL d   1       7.461  17.520 -10.535 +0.07 -0.03    +0.222 HD
DOCKED: ENDBRANCH   8  12
DOCKED: ENDBRANCH   7   8
DOCKED: ENDBRANCH   1   7
DOCKED: BRANCH   2  14
DOCKED: ATOM     14  O   UNL d   1      10.687  15.663 -12.426 -0.03 +0.00    -0.278 OA
DOCKED: BRANCH  14  15
DOCKED: ATOM     15  P   UNL d   1      10.986  16.653 -11.204 -0.03 -0.02    +0.473 P 
DOCKED: ATOM     16  O   UNL d   1      12.083  17.651 -11.401 -0.01 +0.01    -0.228 OA
DOCKED: BRANCH  15  17
DOCKED: ATOM     17  O   UNL d   1       9.578  17.335 -10.905 -0.04 +0.02    -0.303 OA
DOCKED: ATOM     18  H   UNL d   1       8.872  16.940 -11.451 +0.05 -0.01    +0.222 HD
DOCKED: ENDBRANCH  15  17
DOCKED: BRANCH  15  19
DOCKED: ATOM     19  O   UNL d   1      11.150  15.693  -9.947 -0.12 -0.00    -0.303 OA
DOCKED: ATOM     20  H   UNL d   1      11.684  14.906 -10.161 +0.06 +0.00    +0.222 HD
DOCKED: ENDBRANCH  15  19
DOCKED: ENDBRANCH  14  15
DOCKED: ENDBRANCH   2  14
DOCKED: BRANCH   6  21
DOCKED: ATOM     21  O   UNL d   1       7.873  13.777 -15.070 -0.05 -0.03    -0.278 OA
DOCKED: BRANCH  21  22
DOCKED: ATOM     22  P   UNL d   1       7.083  12.479 -14.582 -0.14 +0.19    +0.473 P 
DOCKED: ATOM     23  O   UNL d   1       7.835  11.442 -13.819 -0.36 -0.13    -0.228 OA
DOCKED: BRANCH  22  24
DOCKED: ATOM     24  O   UNL d   1       5.854  13.121 -13.802 -0.25 -0.07    -0.303 OA
DOCKED: ATOM     25  H   UNL d   1       6.193  13.878 -13.260 +0.09 +0.02    +0.222 HD
DOCKED: ENDBRANCH  22  24
DOCKED: BRANCH  22  26
DOCKED: ATOM     26  O   UNL d   1       6.392  11.988 -15.943 -0.70 -0.18    -0.303 OA
DOCKED: ATOM     27  H   UNL d   1       6.990  12.178 -16.694 +0.04 +0.08    +0.222 HD
DOCKED: ENDBRANCH  22  26
DOCKED: ENDBRANCH  21  22
DOCKED: ENDBRANCH   6  21
DOCKED: BRANCH   3  28
DOCKED: ATOM     28  O   UNL d   1      12.301  13.653 -11.792 -0.07 -0.00    -0.278 OA
DOCKED: BRANCH  28  29
DOCKED: ATOM     29  P   UNL d   1      12.944  12.756 -10.644 -0.10 +0.00    +0.473 P 
DOCKED: ATOM     30  O   UNL d   1      12.824  11.288 -10.836 -0.17 -0.00    -0.228 OA
DOCKED: BRANCH  29  31
DOCKED: ATOM     31  O   UNL d   1      14.423  13.366 -10.609 -0.03 +0.01    -0.303 OA
DOCKED: ATOM     32  H   UNL d   1      15.053  12.679 -10.926 +0.03 -0.01    +0.222 HD
DOCKED: ENDBRANCH  29  31
DOCKED: BRANCH  29  33
DOCKED: ATOM     33  O   UNL d   1      12.280  13.367  -9.332 -0.19 -0.01    -0.303 OA
DOCKED: ATOM     34  H   UNL d   1      12.630  14.281  -9.191 +0.07 +0.00    +0.222 HD
DOCKED: ENDBRANCH  29  33
DOCKED: ENDBRANCH  28  29
DOCKED: ENDBRANCH   3  28
DOCKED: BRANCH   5  35
DOCKED: ATOM     35  O   UNL d   1      10.571  13.292 -16.077 -0.01 -0.01    -0.278 OA
DOCKED: BRANCH  35  36
DOCKED: ATOM     36  P   UNL d   1       9.731  12.759 -17.323 +0.01 +0.03    +0.473 P 
DOCKED: ATOM     37  O   UNL d   1      10.517  12.504 -18.570 +0.00 -0.00    -0.228 OA
DOCKED: BRANCH  36  38
DOCKED: ATOM     38  O   UNL d   1       9.029  11.465 -16.715 -0.04 -0.08    -0.303 OA
DOCKED: ATOM     39  H   UNL d   1       8.599  11.703 -15.865 +0.04 +0.08    +0.222 HD
DOCKED: ENDBRANCH  36  38
DOCKED: BRANCH  36  40
DOCKED: ATOM     40  O   UNL d   1       8.553  13.824 -17.418 -0.00 -0.01    -0.303 OA
DOCKED: ATOM     41  H   UNL d   1       7.741  13.510 -16.962 +0.03 +0.02    +0.222 HD
DOCKED: ENDBRANCH  36  40
DOCKED: ENDBRANCH  35  36
DOCKED: ENDBRANCH   5  35
DOCKED: BRANCH   4  42
DOCKED: ATOM     42  O   UNL d   1      12.011  11.834 -14.004 -0.03 -0.01    -0.278 OA
DOCKED: BRANCH  42  43
DOCKED: ATOM     43  P   UNL d   1      11.146  10.500 -13.877 -0.08 +0.05    +0.473 P 
DOCKED: ATOM     44  O   UNL d   1       9.955  10.367 -14.761 -0.11 -0.07    -0.228 OA
DOCKED: BRANCH  43  45
DOCKED: ATOM     45  O   UNL d   1      12.236   9.358 -14.077 -0.03 -0.01    -0.303 OA
DOCKED: ATOM     46  H   UNL d   1      12.377   9.159 -15.024 +0.03 +0.00    +0.222 HD
DOCKED: ENDBRANCH  43  45
DOCKED: BRANCH  43  47
DOCKED: ATOM     47  O   UNL d   1      10.855  10.401 -12.304 -0.15 -0.04    -0.303 OA
DOCKED: ATOM     48  H   UNL d   1      11.608  10.790 -11.811 +0.06 +0.02    +0.222 HD
DOCKED: ENDBRANCH  43  47
DOCKED: ENDBRANCH  42  43
DOCKED: ENDBRANCH   4  42
DOCKED: TORSDOF 24
DOCKED: TER
DOCKED: ENDMDL
________________________________________________________________________________


	BEGINNING GENETIC ALGORITHM DOCKING 14 of 100
Run: 14 Seed: 391515573 563134510 [ Run 14 of 100 GA/GALS ]
Beginning LAMARCKIAN GENETIC ALGORITHM (LGA), with a maximum of 25000000 energy evaluations.

Final-Value: -19.513


	FINAL GENETIC ALGORITHM DOCKED STATE
	_______________________________________________


Detailed state:  trans 9.479 19.971 -5.129 quatxyzw -0.370955 -0.100655 0.605625 -0.696764 center 0.035 0.082 -0.065 ntor 24 133.5719 113.7687 56.2566 -2.9553 19.4839 -119.3429 -99.1872 -58.9386 140.5389 -98.1567 71.0793 -118.5307 -56.2715 166.0312 -60.3749 -156.6969 116.3551 -53.3742 51.8376 -5.7080 -164.0883 -18.4239 -38.1659 159.7907
State:	  9.479  19.971  -5.129  -0.517 -0.140  0.844 -91.664    133.57  113.77   56.26   -2.96   19.48 -119.34  -99.19  -58.94  140.54  -98.16   71.08 -118.53  -56.27  166.03  -60.37 -156.70  116.36  -53.37   51.84   -5.71 -164.09  -18.42  -38.17  159.79

DOCKED: MODEL       14
DOCKED: USER    Run = 14
DOCKED: USER    DPF = D:/Protein_go_brrr/autodock/final/mut_K82N/IHP/dock.dpf
DOCKED: USER  
DOCKED: USER    Estimated Free Energy of Binding    =   +1.92 kcal/mol  [=(1)+(2)+(3)-(4)]
DOCKED: USER    
DOCKED: USER    (1) Final Intermolecular Energy     =   -5.24 kcal/mol
DOCKED: USER        vdW + Hbond + desolv Energy     =   -5.21 kcal/mol
DOCKED: USER        Electrostatic Energy            =   -0.03 kcal/mol
DOCKED: USER    (2) Final Total Internal Energy     =  -14.27 kcal/mol
DOCKED: USER    (3) Torsional Free Energy           =   +7.16 kcal/mol
DOCKED: USER    (4) Unbound System's Energy  [=(2)] =  -14.27 kcal/mol
DOCKED: USER    
DOCKED: USER    
DOCKED: USER    NEWDPF move IHP_ideal_opt.pdbqt
DOCKED: USER    NEWDPF about 0.035000 0.082000 -0.065000
DOCKED: USER    NEWDPF tran0 9.478608 19.970873 -5.129278
DOCKED: USER    NEWDPF quaternion0 -0.370955 -0.100655 0.605625 -0.696764
DOCKED: USER    NEWDPF axisangle0 -0.517154 -0.140324 0.844311 -91.664166
DOCKED: USER    NEWDPF quat0 -0.517154 -0.140324 0.844311 -91.664166
DOCKED: USER    NEWDPF dihe0 133.57 113.77 56.26 -2.96 19.48 -119.34 -99.19 -58.94 140.54 -98.16 71.08 -118.53 -56.27 166.03 -60.37 -156.70 116.36 -53.37 51.84 -5.71 -164.09 -18.42 -38.17 159.79 
DOCKED: USER  keepresnum = 1 
DOCKED: USER  
DOCKED: REMARK  24 active torsions:
DOCKED: REMARK  status: ('A' for Active; 'I' for Inactive)
DOCKED: REMARK    1  A    between atoms: C_1  and  O_7 
DOCKED: REMARK    2  A    between atoms: C_2  and  O_12 
DOCKED: REMARK    3  A    between atoms: C_3  and  O_17 
DOCKED: REMARK    4  A    between atoms: C_4  and  O_22 
DOCKED: REMARK    5  A    between atoms: C_5  and  O_27 
DOCKED: REMARK    6  A    between atoms: C_6  and  O_32 
DOCKED: REMARK    7  A    between atoms: O_7  and  P_8 
DOCKED: REMARK    8  A    between atoms: P_8  and  O_10 
DOCKED: REMARK    9  A    between atoms: P_8  and  O_11 
DOCKED: REMARK   10  A    between atoms: O_12  and  P_13 
DOCKED: REMARK   11  A    between atoms: P_13  and  O_15 
DOCKED: REMARK   12  A    between atoms: P_13  and  O_16 
DOCKED: REMARK   13  A    between atoms: O_17  and  P_18 
DOCKED: REMARK   14  A    between atoms: P_18  and  O_20 
DOCKED: REMARK   15  A    between atoms: P_18  and  O_21 
DOCKED: REMARK   16  A    between atoms: O_22  and  P_23 
DOCKED: REMARK   17  A    between atoms: P_23  and  O_25 
DOCKED: REMARK   18  A    between atoms: P_23  and  O_26 
DOCKED: REMARK   19  A    between atoms: O_27  and  P_28 
DOCKED: REMARK   20  A    between atoms: P_28  and  O_30 
DOCKED: REMARK   21  A    between atoms: P_28  and  O_31 
DOCKED: REMARK   22  A    between atoms: O_32  and  P_33 
DOCKED: REMARK   23  A    between atoms: P_33  and  O_35 
DOCKED: REMARK   24  A    between atoms: P_33  and  O_36 
DOCKED: USER                              x       y       z     vdW  Elec       q    Type
DOCKED: USER                           _______ _______ _______ _____ _____    ______ ____
DOCKED: ROOT
DOCKED: ATOM      1  C   UNL d   1      10.004  21.442  -4.392 -0.05 -0.03    +0.194 C 
DOCKED: ATOM      2  C   UNL d   1      10.533  20.157  -3.753 -0.05 -0.02    +0.194 C 
DOCKED: ATOM      3  C   UNL d   1       9.438  19.096  -3.625 -0.13 -0.03    +0.194 C 
DOCKED: ATOM      4  C   UNL d   1       8.704  18.828  -4.937 -0.16 -0.03    +0.194 C 
DOCKED: ATOM      5  C   UNL d   1       8.259  20.089  -5.667 -0.13 -0.04    +0.194 C 
DOCKED: ATOM      6  C   UNL d   1       9.334  21.174  -5.740 -0.05 -0.03    +0.194 C 
DOCKED: ENDROOT
DOCKED: BRANCH   1   7
DOCKED: ATOM      7  O   UNL d   1      11.114  22.310  -4.632 -0.01 +0.03    -0.278 OA
DOCKED: BRANCH   7   8
DOCKED: ATOM      8  P   UNL d   1      11.834  22.987  -3.377 -0.00 -0.05    +0.473 P 
DOCKED: ATOM      9  O   UNL d   1      11.191  22.720  -2.062 -0.02 +0.02    -0.228 OA
DOCKED: BRANCH   8  10
DOCKED: ATOM     10  O   UNL d   1      13.337  22.458  -3.461 -0.00 +0.02    -0.303 OA
DOCKED: ATOM     11  H   UNL d   1      13.360  21.617  -3.954 +0.00 -0.02    +0.222 HD
DOCKED: ENDBRANCH   8  10
DOCKED: BRANCH   8  12
DOCKED: ATOM     12  O   UNL d   1      11.997  24.518  -3.772 -0.00 +0.03    -0.303 OA
DOCKED: ATOM     13  H   UNL d   1      11.140  24.998  -3.818 +0.01 -0.02    +0.222 HD
DOCKED: ENDBRANCH   8  12
DOCKED: ENDBRANCH   7   8
DOCKED: ENDBRANCH   1   7
DOCKED: BRANCH   2  14
DOCKED: ATOM     14  O   UNL d   1      11.587  19.630  -4.567 -0.02 +0.03    -0.278 OA
DOCKED: BRANCH  14  15
DOCKED: ATOM     15  P   UNL d   1      12.983  19.346  -3.836 -0.00 -0.04    +0.473 P 
DOCKED: ATOM     16  O   UNL d   1      14.223  19.728  -4.582 -0.00 +0.02    -0.228 OA
DOCKED: BRANCH  15  17
DOCKED: ATOM     17  O   UNL d   1      12.848  20.098  -2.438 -0.01 +0.03    -0.303 OA
DOCKED: ATOM     18  H   UNL d   1      12.393  20.955  -2.542 +0.01 -0.02    +0.222 HD
DOCKED: ENDBRANCH  15  17
DOCKED: BRANCH  15  19
DOCKED: ATOM     19  O   UNL d   1      12.894  17.822  -3.389 -0.02 +0.03    -0.303 OA
DOCKED: ATOM     20  H   UNL d   1      12.171  17.675  -2.751 +0.04 -0.03    +0.222 HD
DOCKED: ENDBRANCH  15  19
DOCKED: ENDBRANCH  14  15
DOCKED: ENDBRANCH   2  14
DOCKED: BRANCH   6  21
DOCKED: ATOM     21  O   UNL d   1       8.678  22.379  -6.128 -0.06 +0.06    -0.278 OA
DOCKED: BRANCH  21  22
DOCKED: ATOM     22  P   UNL d   1       8.168  23.398  -5.011 -0.03 -0.14    +0.473 P 
DOCKED: ATOM     23  O   UNL d   1       7.755  22.845  -3.689 -0.16 +0.08    -0.228 OA
DOCKED: BRANCH  22  24
DOCKED: ATOM     24  O   UNL d   1       9.367  24.443  -4.952 -0.02 +0.05    -0.303 OA
DOCKED: ATOM     25  H   UNL d   1      10.217  23.935  -4.916 +0.02 -0.03    +0.222 HD
DOCKED: ENDBRANCH  22  24
DOCKED: BRANCH  22  26
DOCKED: ATOM     26  O   UNL d   1       7.049  24.223  -5.809 -0.11 +0.10    -0.303 OA
DOCKED: ATOM     27  H   UNL d   1       6.303  23.627  -6.026 -0.45 -0.11    +0.222 HD
DOCKED: ENDBRANCH  22  26
DOCKED: ENDBRANCH  21  22
DOCKED: ENDBRANCH   6  21
DOCKED: BRANCH   3  28
DOCKED: ATOM     28  O   UNL d   1      10.070  17.867  -3.289 -0.13 +0.05    -0.278 OA
DOCKED: BRANCH  28  29
DOCKED: ATOM     29  P   UNL d   1      10.248  17.445  -1.763 -0.13 -0.09    +0.473 P 
DOCKED: ATOM     30  O   UNL d   1      10.866  16.114  -1.535 -0.21 +0.06    -0.228 OA
DOCKED: BRANCH  29  31
DOCKED: ATOM     31  O   UNL d   1      11.043  18.719  -1.212 -0.06 +0.03    -0.303 OA
DOCKED: ATOM     32  H   UNL d   1      11.781  18.922  -1.833 +0.04 -0.02    +0.222 HD
DOCKED: ENDBRANCH  29  31
DOCKED: BRANCH  29  33
DOCKED: ATOM     33  O   UNL d   1       8.782  17.667  -1.183 -0.15 +0.04    -0.303 OA
DOCKED: ATOM     34  H   UNL d   1       8.194  17.990  -1.909 +0.10 -0.03    +0.222 HD
DOCKED: ENDBRANCH  29  33
DOCKED: ENDBRANCH  28  29
DOCKED: ENDBRANCH   3  28
DOCKED: BRANCH   5  35
DOCKED: ATOM     35  O   UNL d   1       7.980  19.683  -7.005 -0.08 +0.05    -0.278 OA
DOCKED: BRANCH  35  36
DOCKED: ATOM     36  P   UNL d   1       6.503  19.250  -7.424 -0.18 -0.13    +0.473 P 
DOCKED: ATOM     37  O   UNL d   1       6.214  19.279  -8.891 -0.12 +0.06    -0.228 OA
DOCKED: BRANCH  36  38
DOCKED: ATOM     38  O   UNL d   1       6.386  17.806  -6.762 -0.25 +0.08    -0.303 OA
DOCKED: ATOM     39  H   UNL d   1       6.338  17.903  -5.786 +0.14 -0.03    +0.222 HD
DOCKED: ENDBRANCH  36  38
DOCKED: BRANCH  36  40
DOCKED: ATOM     40  O   UNL d   1       5.602  20.172  -6.492 -0.27 +0.12    -0.303 OA
DOCKED: ATOM     41  H   UNL d   1       4.825  19.684  -6.139 -0.28 -0.13    +0.222 HD
DOCKED: ENDBRANCH  36  40
DOCKED: ENDBRANCH  35  36
DOCKED: ENDBRANCH   5  35
DOCKED: BRANCH   4  42
DOCKED: ATOM     42  O   UNL d   1       7.521  18.092  -4.607 -0.26 +0.05    -0.278 OA
DOCKED: BRANCH  42  43
DOCKED: ATOM     43  P   UNL d   1       6.588  18.620  -3.426 -0.39 -0.10    +0.473 P 
DOCKED: ATOM     44  O   UNL d   1       7.092  19.761  -2.611 -0.29 +0.03    -0.228 OA
DOCKED: BRANCH  43  45
DOCKED: ATOM     45  O   UNL d   1       5.212  18.911  -4.171 -0.76 +0.12    -0.303 OA
DOCKED: ATOM     46  H   UNL d   1       5.280  18.734  -5.130 -0.17 -0.06    +0.222 HD
DOCKED: ENDBRANCH  43  45
DOCKED: BRANCH  43  47
DOCKED: ATOM     47  O   UNL d   1       6.241  17.286  -2.609 -0.43 +0.04    -0.303 OA
DOCKED: ATOM     48  H   UNL d   1       7.071  16.887  -2.275 +0.07 -0.03    +0.222 HD
DOCKED: ENDBRANCH  43  47
DOCKED: ENDBRANCH  42  43
DOCKED: ENDBRANCH   4  42
DOCKED: TORSDOF 24
DOCKED: TER
DOCKED: ENDMDL
________________________________________________________________________________


	BEGINNING GENETIC ALGORITHM DOCKING 15 of 100
Run: 15 Seed: 61821901 792038648 [ Run 15 of 100 GA/GALS ]
Beginning LAMARCKIAN GENETIC ALGORITHM (LGA), with a maximum of 25000000 energy evaluations.

Final-Value: -21.819


	FINAL GENETIC ALGORITHM DOCKED STATE
	_______________________________________________


Detailed state:  trans -2.103 10.437 -16.058 quatxyzw 0.244892 0.192527 0.950211 0.007802 center 0.035 0.082 -0.065 ntor 24 -148.8207 5.8745 156.3172 117.0886 96.3499 84.9467 -63.1582 21.0571 -22.2563 60.7680 92.2100 -117.9337 36.3051 24.7282 -180.0000 -179.8797 -54.0143 104.4719 -134.5644 -29.4129 16.0057 22.9036 171.4436 -2.6945
State:	 -2.103  10.437 -16.058   0.245  0.193  0.950 179.106   -148.82    5.87  156.32  117.09   96.35   84.95  -63.16   21.06  -22.26   60.77   92.21 -117.93   36.31   24.73 -180.00 -179.88  -54.01  104.47 -134.56  -29.41   16.01   22.90  171.44   -2.69

DOCKED: MODEL       15
DOCKED: USER    Run = 15
DOCKED: USER    DPF = D:/Protein_go_brrr/autodock/final/mut_K82N/IHP/dock.dpf
DOCKED: USER  
DOCKED: USER    Estimated Free Energy of Binding    =   +0.55 kcal/mol  [=(1)+(2)+(3)-(4)]
DOCKED: USER    
DOCKED: USER    (1) Final Intermolecular Energy     =   -6.61 kcal/mol
DOCKED: USER        vdW + Hbond + desolv Energy     =   -5.83 kcal/mol
DOCKED: USER        Electrostatic Energy            =   -0.78 kcal/mol
DOCKED: USER    (2) Final Total Internal Energy     =  -15.21 kcal/mol
DOCKED: USER    (3) Torsional Free Energy           =   +7.16 kcal/mol
DOCKED: USER    (4) Unbound System's Energy  [=(2)] =  -15.21 kcal/mol
DOCKED: USER    
DOCKED: USER    
DOCKED: USER    NEWDPF move IHP_ideal_opt.pdbqt
DOCKED: USER    NEWDPF about 0.035000 0.082000 -0.065000
DOCKED: USER    NEWDPF tran0 -2.103135 10.437484 -16.057676
DOCKED: USER    NEWDPF quaternion0 0.244892 0.192527 0.950211 0.007802
DOCKED: USER    NEWDPF axisangle0 0.244899 0.192532 0.950240 179.105973
DOCKED: USER    NEWDPF quat0 0.244899 0.192532 0.950240 179.105973
DOCKED: USER    NEWDPF dihe0 -148.82 5.87 156.32 117.09 96.35 84.95 -63.16 21.06 -22.26 60.77 92.21 -117.93 36.31 24.73 -180.00 -179.88 -54.01 104.47 -134.56 -29.41 16.01 22.90 171.44 -2.69 
DOCKED: USER  keepresnum = 1 
DOCKED: USER  
DOCKED: REMARK  24 active torsions:
DOCKED: REMARK  status: ('A' for Active; 'I' for Inactive)
DOCKED: REMARK    1  A    between atoms: C_1  and  O_7 
DOCKED: REMARK    2  A    between atoms: C_2  and  O_12 
DOCKED: REMARK    3  A    between atoms: C_3  and  O_17 
DOCKED: REMARK    4  A    between atoms: C_4  and  O_22 
DOCKED: REMARK    5  A    between atoms: C_5  and  O_27 
DOCKED: REMARK    6  A    between atoms: C_6  and  O_32 
DOCKED: REMARK    7  A    between atoms: O_7  and  P_8 
DOCKED: REMARK    8  A    between atoms: P_8  and  O_10 
DOCKED: REMARK    9  A    between atoms: P_8  and  O_11 
DOCKED: REMARK   10  A    between atoms: O_12  and  P_13 
DOCKED: REMARK   11  A    between atoms: P_13  and  O_15 
DOCKED: REMARK   12  A    between atoms: P_13  and  O_16 
DOCKED: REMARK   13  A    between atoms: O_17  and  P_18 
DOCKED: REMARK   14  A    between atoms: P_18  and  O_20 
DOCKED: REMARK   15  A    between atoms: P_18  and  O_21 
DOCKED: REMARK   16  A    between atoms: O_22  and  P_23 
DOCKED: REMARK   17  A    between atoms: P_23  and  O_25 
DOCKED: REMARK   18  A    between atoms: P_23  and  O_26 
DOCKED: REMARK   19  A    between atoms: O_27  and  P_28 
DOCKED: REMARK   20  A    between atoms: P_28  and  O_30 
DOCKED: REMARK   21  A    between atoms: P_28  and  O_31 
DOCKED: REMARK   22  A    between atoms: O_32  and  P_33 
DOCKED: REMARK   23  A    between atoms: P_33  and  O_35 
DOCKED: REMARK   24  A    between atoms: P_33  and  O_36 
DOCKED: USER                              x       y       z     vdW  Elec       q    Type
DOCKED: USER                           _______ _______ _______ _____ _____    ______ ____
DOCKED: ROOT
DOCKED: ATOM      1  C   UNL d   1      -2.937  11.652 -15.155 -0.27 -0.14    +0.194 C 
DOCKED: ATOM      2  C   UNL d   1      -2.097  12.160 -16.328 -0.11 -0.21    +0.194 C 
DOCKED: ATOM      3  C   UNL d   1      -0.737  11.462 -16.396 -0.18 -0.15    +0.194 C 
DOCKED: ATOM      4  C   UNL d   1      -0.841   9.939 -16.378 -0.24 -0.07    +0.194 C 
DOCKED: ATOM      5  C   UNL d   1      -1.762   9.393 -15.294 -0.32 -0.07    +0.194 C 
DOCKED: ATOM      6  C   UNL d   1      -3.097  10.131 -15.185 -0.24 -0.07    +0.194 C 
DOCKED: ENDROOT
DOCKED: BRANCH   1   7
DOCKED: ATOM      7  O   UNL d   1      -4.244  12.220 -15.262 -0.17 +0.16    -0.278 OA
DOCKED: BRANCH   7   8
DOCKED: ATOM      8  P   UNL d   1      -5.429  11.301 -15.812 -0.01 -0.14    +0.473 P 
DOCKED: ATOM      9  O   UNL d   1      -6.142  10.504 -14.777 -0.06 +0.04    -0.228 OA
DOCKED: BRANCH   8  10
DOCKED: ATOM     10  O   UNL d   1      -6.381  12.319 -16.587 -0.01 +0.08    -0.303 OA
DOCKED: ATOM     11  H   UNL d   1      -5.859  12.823 -17.239 +0.03 -0.08    +0.222 HD
DOCKED: ENDBRANCH   8  10
DOCKED: BRANCH   8  12
DOCKED: ATOM     12  O   UNL d   1      -4.788  10.471 -17.006 -0.02 +0.09    -0.303 OA
DOCKED: ATOM     13  H   UNL d   1      -4.169  11.002 -17.556 +0.04 -0.08    +0.222 HD
DOCKED: ENDBRANCH   8  12
DOCKED: ENDBRANCH   7   8
DOCKED: ENDBRANCH   1   7
DOCKED: BRANCH   2  14
DOCKED: ATOM     14  O   UNL d   1      -2.801  11.908 -17.550 -0.08 +0.19    -0.278 OA
DOCKED: BRANCH  14  15
DOCKED: ATOM     15  P   UNL d   1      -3.546  13.158 -18.218 -0.04 -0.39    +0.473 P 
DOCKED: ATOM     16  O   UNL d   1      -2.698  14.099 -19.015 -0.08 +0.20    -0.228 OA
DOCKED: BRANCH  15  17
DOCKED: ATOM     17  O   UNL d   1      -4.713  12.499 -19.079 -0.01 +0.11    -0.303 OA
DOCKED: ATOM     18  H   UNL d   1      -5.325  11.991 -18.512 +0.01 -0.07    +0.222 HD
DOCKED: ENDBRANCH  15  17
DOCKED: BRANCH  15  19
DOCKED: ATOM     19  O   UNL d   1      -4.364  13.817 -17.023 -0.03 +0.36    -0.303 OA
DOCKED: ATOM     20  H   UNL d   1      -3.782  14.069 -16.283 -0.16 -0.55    +0.222 HD
DOCKED: ENDBRANCH  15  19
DOCKED: ENDBRANCH  14  15
DOCKED: ENDBRANCH   2  14
DOCKED: BRANCH   6  21
DOCKED: ATOM     21  O   UNL d   1      -3.681   9.747 -13.942 -0.24 +0.08    -0.278 OA
DOCKED: BRANCH  21  22
DOCKED: ATOM     22  P   UNL d   1      -4.570   8.425 -13.860 -0.18 -0.09    +0.473 P 
DOCKED: ATOM     23  O   UNL d   1      -5.675   8.381 -12.860 -0.16 +0.03    -0.228 OA
DOCKED: BRANCH  22  24
DOCKED: ATOM     24  O   UNL d   1      -5.032   8.249 -15.373 -0.15 +0.06    -0.303 OA
DOCKED: ATOM     25  H   UNL d   1      -4.323   8.621 -15.957 +0.09 -0.05    +0.222 HD
DOCKED: ENDBRANCH  22  24
DOCKED: BRANCH  22  26
DOCKED: ATOM     26  O   UNL d   1      -3.450   7.287 -13.721 -0.37 +0.06    -0.303 OA
DOCKED: ATOM     27  H   UNL d   1      -3.182   6.989 -14.614 -0.28 -0.08    +0.222 HD
DOCKED: ENDBRANCH  22  26
DOCKED: ENDBRANCH  21  22
DOCKED: ENDBRANCH   6  21
DOCKED: BRANCH   3  28
DOCKED: ATOM     28  O   UNL d   1      -0.152  11.786 -17.651 -0.11 +0.17    -0.278 OA
DOCKED: BRANCH  28  29
DOCKED: ATOM     29  P   UNL d   1       1.370  12.248 -17.733 -0.10 -0.22    +0.473 P 
DOCKED: ATOM     30  O   UNL d   1       2.048  11.991 -19.029 -0.03 +0.05    -0.228 OA
DOCKED: BRANCH  29  31
DOCKED: ATOM     31  O   UNL d   1       1.222  13.777 -17.281 -0.05 +0.36    -0.303 OA
DOCKED: ATOM     32  H   UNL d   1       0.265  14.011 -17.277 -0.48 -0.49    +0.222 HD
DOCKED: ENDBRANCH  29  31
DOCKED: BRANCH  29  33
DOCKED: ATOM     33  O   UNL d   1       1.999  11.560 -16.443 -0.19 +0.05    -0.303 OA
DOCKED: ATOM     34  H   UNL d   1       2.184  10.609 -16.643 +0.08 +0.01    +0.222 HD
DOCKED: ENDBRANCH  29  33
DOCKED: ENDBRANCH  28  29
DOCKED: ENDBRANCH   3  28
DOCKED: BRANCH   5  35
DOCKED: ATOM     35  O   UNL d   1      -2.054   8.050 -15.676 -0.27 +0.10    -0.278 OA
DOCKED: BRANCH  35  36
DOCKED: ATOM     36  P   UNL d   1      -2.732   7.744 -17.087 -0.15 -0.15    +0.473 P 
DOCKED: ATOM     37  O   UNL d   1      -3.225   8.939 -17.838 -0.07 +0.06    -0.228 OA
DOCKED: BRANCH  36  38
DOCKED: ATOM     38  O   UNL d   1      -1.582   6.931 -17.831 -0.26 +0.09    -0.303 OA
DOCKED: ATOM     39  H   UNL d   1      -1.030   7.556 -18.348 +0.09 -0.05    +0.222 HD
DOCKED: ENDBRANCH  36  38
DOCKED: BRANCH  36  40
DOCKED: ATOM     40  O   UNL d   1      -3.807   6.632 -16.713 -0.15 +0.11    -0.303 OA
DOCKED: ATOM     41  H   UNL d   1      -4.008   6.629 -15.751 -0.06 -0.06    +0.222 HD
DOCKED: ENDBRANCH  36  40
DOCKED: ENDBRANCH  35  36
DOCKED: ENDBRANCH   5  35
DOCKED: BRANCH   4  42
DOCKED: ATOM     42  O   UNL d   1       0.472   9.437 -16.108 -0.28 +0.05    -0.278 OA
DOCKED: BRANCH  42  43
DOCKED: ATOM     43  P   UNL d   1       1.228   8.607 -17.241 -0.15 -0.02    +0.473 P 
DOCKED: ATOM     44  O   UNL d   1       2.716   8.676 -17.265 -0.21 -0.05    -0.228 OA
DOCKED: BRANCH  43  45
DOCKED: ATOM     45  O   UNL d   1       0.647   7.139 -17.046 -0.27 +0.05    -0.303 OA
DOCKED: ATOM     46  H   UNL d   1      -0.192   7.150 -16.544 +0.03 -0.07    +0.222 HD
DOCKED: ENDBRANCH  43  45
DOCKED: BRANCH  43  47
DOCKED: ATOM     47  O   UNL d   1       0.493   9.072 -18.588 -0.03 +0.05    -0.303 OA
DOCKED: ATOM     48  H   UNL d   1       0.612  10.037 -18.704 +0.06 -0.04    +0.222 HD
DOCKED: ENDBRANCH  43  47
DOCKED: ENDBRANCH  42  43
DOCKED: ENDBRANCH   4  42
DOCKED: TORSDOF 24
DOCKED: TER
DOCKED: ENDMDL
________________________________________________________________________________


	BEGINNING GENETIC ALGORITHM DOCKING 16 of 100
Run: 16 Seed: 1521486781 1788559315 [ Run 16 of 100 GA/GALS ]
Beginning LAMARCKIAN GENETIC ALGORITHM (LGA), with a maximum of 25000000 energy evaluations.

Final-Value: -18.073


	FINAL GENETIC ALGORITHM DOCKED STATE
	_______________________________________________


Detailed state:  trans -6.706 -14.494 8.014 quatxyzw 0.437450 -0.443621 0.280242 -0.730276 center 0.035 0.082 -0.065 ntor 24 -141.6108 -23.4367 180.0000 14.0789 89.1442 88.8351 -156.2689 -66.0891 115.1057 -28.5357 -59.6285 177.8899 40.6383 179.2821 59.9238 -118.8380 -179.7600 14.4834 -143.4959 -0.4021 180.0000 -21.0392 9.5966 170.0759
State:	 -6.706 -14.494   8.014   0.640 -0.649  0.410 -86.181   -141.61  -23.44  180.00   14.08   89.14   88.84 -156.27  -66.09  115.11  -28.54  -59.63  177.89   40.64  179.28   59.92 -118.84 -179.76   14.48 -143.50   -0.40  180.00  -21.04    9.60  170.08

DOCKED: MODEL       16
DOCKED: USER    Run = 16
DOCKED: USER    DPF = D:/Protein_go_brrr/autodock/final/mut_K82N/IHP/dock.dpf
DOCKED: USER  
DOCKED: USER    Estimated Free Energy of Binding    =   +1.94 kcal/mol  [=(1)+(2)+(3)-(4)]
DOCKED: USER    
DOCKED: USER    (1) Final Intermolecular Energy     =   -5.22 kcal/mol
DOCKED: USER        vdW + Hbond + desolv Energy     =   -4.82 kcal/mol
DOCKED: USER        Electrostatic Energy            =   -0.39 kcal/mol
DOCKED: USER    (2) Final Total Internal Energy     =  -12.86 kcal/mol
DOCKED: USER    (3) Torsional Free Energy           =   +7.16 kcal/mol
DOCKED: USER    (4) Unbound System's Energy  [=(2)] =  -12.86 kcal/mol
DOCKED: USER    
DOCKED: USER    
DOCKED: USER    NEWDPF move IHP_ideal_opt.pdbqt
DOCKED: USER    NEWDPF about 0.035000 0.082000 -0.065000
DOCKED: USER    NEWDPF tran0 -6.705818 -14.494404 8.014479
DOCKED: USER    NEWDPF quaternion0 0.437450 -0.443621 0.280242 -0.730276
DOCKED: USER    NEWDPF axisangle0 0.640340 -0.649374 0.410218 -86.180998
DOCKED: USER    NEWDPF quat0 0.640340 -0.649374 0.410218 -86.180998
DOCKED: USER    NEWDPF dihe0 -141.61 -23.44 180.00 14.08 89.14 88.84 -156.27 -66.09 115.11 -28.54 -59.63 177.89 40.64 179.28 59.92 -118.84 -179.76 14.48 -143.50 -0.40 180.00 -21.04 9.60 170.08 
DOCKED: USER  keepresnum = 1 
DOCKED: USER  
DOCKED: REMARK  24 active torsions:
DOCKED: REMARK  status: ('A' for Active; 'I' for Inactive)
DOCKED: REMARK    1  A    between atoms: C_1  and  O_7 
DOCKED: REMARK    2  A    between atoms: C_2  and  O_12 
DOCKED: REMARK    3  A    between atoms: C_3  and  O_17 
DOCKED: REMARK    4  A    between atoms: C_4  and  O_22 
DOCKED: REMARK    5  A    between atoms: C_5  and  O_27 
DOCKED: REMARK    6  A    between atoms: C_6  and  O_32 
DOCKED: REMARK    7  A    between atoms: O_7  and  P_8 
DOCKED: REMARK    8  A    between atoms: P_8  and  O_10 
DOCKED: REMARK    9  A    between atoms: P_8  and  O_11 
DOCKED: REMARK   10  A    between atoms: O_12  and  P_13 
DOCKED: REMARK   11  A    between atoms: P_13  and  O_15 
DOCKED: REMARK   12  A    between atoms: P_13  and  O_16 
DOCKED: REMARK   13  A    between atoms: O_17  and  P_18 
DOCKED: REMARK   14  A    between atoms: P_18  and  O_20 
DOCKED: REMARK   15  A    between atoms: P_18  and  O_21 
DOCKED: REMARK   16  A    between atoms: O_22  and  P_23 
DOCKED: REMARK   17  A    between atoms: P_23  and  O_25 
DOCKED: REMARK   18  A    between atoms: P_23  and  O_26 
DOCKED: REMARK   19  A    between atoms: O_27  and  P_28 
DOCKED: REMARK   20  A    between atoms: P_28  and  O_30 
DOCKED: REMARK   21  A    between atoms: P_28  and  O_31 
DOCKED: REMARK   22  A    between atoms: O_32  and  P_33 
DOCKED: REMARK   23  A    between atoms: P_33  and  O_35 
DOCKED: REMARK   24  A    between atoms: P_33  and  O_36 
DOCKED: USER                              x       y       z     vdW  Elec       q    Type
DOCKED: USER                           _______ _______ _______ _____ _____    ______ ____
DOCKED: ROOT
DOCKED: ATOM      1  C   UNL d   1      -5.753 -15.579   8.964 -0.03 -0.01    +0.194 C 
DOCKED: ATOM      2  C   UNL d   1      -5.524 -15.648   7.453 -0.09 -0.02    +0.194 C 
DOCKED: ATOM      3  C   UNL d   1      -6.843 -15.601   6.677 -0.10 -0.05    +0.194 C 
DOCKED: ATOM      4  C   UNL d   1      -7.732 -14.425   7.073 -0.04 -0.06    +0.194 C 
DOCKED: ATOM      5  C   UNL d   1      -7.895 -14.249   8.578 -0.06 -0.03    +0.194 C 
DOCKED: ATOM      6  C   UNL d   1      -6.584 -14.357   9.360 -0.05 -0.02    +0.194 C 
DOCKED: ENDROOT
DOCKED: BRANCH   1   7
DOCKED: ATOM      7  O   UNL d   1      -4.480 -15.453   9.603 -0.05 -0.02    -0.278 OA
DOCKED: BRANCH   7   8
DOCKED: ATOM      8  P   UNL d   1      -3.946 -13.988   9.950 -0.12 +0.03    +0.473 P 
DOCKED: ATOM      9  O   UNL d   1      -4.289 -13.498  11.313 -0.74 -0.04    -0.228 OA
DOCKED: BRANCH   8  10
DOCKED: ATOM     10  O   UNL d   1      -2.375 -14.078   9.692 -0.16 -0.04    -0.303 OA
DOCKED: ATOM     11  H   UNL d   1      -2.209 -14.309   8.758 +0.12 +0.05    +0.222 HD
DOCKED: ENDBRANCH   8  10
DOCKED: BRANCH   8  12
DOCKED: ATOM     12  O   UNL d   1      -4.430 -13.076   8.743 -0.15 +0.03    -0.303 OA
DOCKED: ATOM     13  H   UNL d   1      -3.971 -13.280   7.897 +0.11 -0.03    +0.222 HD
DOCKED: ENDBRANCH   8  12
DOCKED: ENDBRANCH   7   8
DOCKED: ENDBRANCH   1   7
DOCKED: BRANCH   2  14
DOCKED: ATOM     14  O   UNL d   1      -4.719 -14.532   7.051 -0.17 +0.03    -0.278 OA
DOCKED: BRANCH  14  15
DOCKED: ATOM     15  P   UNL d   1      -3.459 -14.859   6.118 -0.29 +0.03    +0.473 P 
DOCKED: ATOM     16  O   UNL d   1      -2.125 -14.377   6.597 -0.22 -0.07    -0.228 OA
DOCKED: BRANCH  15  17
DOCKED: ATOM     17  O   UNL d   1      -3.514 -16.440   5.932 -0.73 -0.02    -0.303 OA
DOCKED: ATOM     18  H   UNL d   1      -4.119 -16.688   5.207 -0.22 -0.21    +0.222 HD
DOCKED: ENDBRANCH  15  17
DOCKED: BRANCH  15  19
DOCKED: ATOM     19  O   UNL d   1      -3.893 -14.352   4.674 -0.34 -0.00    -0.303 OA
DOCKED: ATOM     20  H   UNL d   1      -4.798 -14.636   4.450 +0.10 -0.03    +0.222 HD
DOCKED: ENDBRANCH  15  19
DOCKED: ENDBRANCH  14  15
DOCKED: ENDBRANCH   2  14
DOCKED: BRANCH   6  21
DOCKED: ATOM     21  O   UNL d   1      -6.935 -14.517  10.732 -0.01 +0.01    -0.278 OA
DOCKED: BRANCH  21  22
DOCKED: ATOM     22  P   UNL d   1      -7.432 -15.937  11.262 +0.00 -0.02    +0.473 P 
DOCKED: ATOM     23  O   UNL d   1      -6.411 -16.894  11.777 -0.00 +0.01    -0.228 OA
DOCKED: BRANCH  22  24
DOCKED: ATOM     24  O   UNL d   1      -8.547 -15.518  12.319 -0.00 +0.02    -0.303 OA
DOCKED: ATOM     25  H   UNL d   1      -8.868 -14.610  12.084 +0.01 -0.01    +0.222 HD
DOCKED: ENDBRANCH  22  24
DOCKED: BRANCH  22  26
DOCKED: ATOM     26  O   UNL d   1      -8.320 -16.451  10.031 +0.00 +0.02    -0.303 OA
DOCKED: ATOM     27  H   UNL d   1      -9.227 -16.091  10.115 +0.01 -0.02    +0.222 HD
DOCKED: ENDBRANCH  22  26
DOCKED: ENDBRANCH  21  22
DOCKED: ENDBRANCH   6  21
DOCKED: BRANCH   3  28
DOCKED: ATOM     28  O   UNL d   1      -6.526 -15.390   5.307 -0.16 +0.11    -0.278 OA
DOCKED: BRANCH  28  29
DOCKED: ATOM     29  P   UNL d   1      -6.272 -16.630   4.340 -0.15 -0.23    +0.473 P 
DOCKED: ATOM     30  O   UNL d   1      -5.237 -16.425   3.294 -0.64 +0.15    -0.228 OA
DOCKED: BRANCH  29  31
DOCKED: ATOM     31  O   UNL d   1      -5.993 -17.775   5.423 -0.07 +0.17    -0.303 OA
DOCKED: ATOM     32  H   UNL d   1      -5.025 -17.960   5.442 -0.36 -0.23    +0.222 HD
DOCKED: ENDBRANCH  29  31
DOCKED: BRANCH  29  33
DOCKED: ATOM     33  O   UNL d   1      -7.744 -16.971   3.840 -0.08 +0.08    -0.303 OA
DOCKED: ATOM     34  H   UNL d   1      -8.390 -16.414   4.340 +0.06 -0.06    +0.222 HD
DOCKED: ENDBRANCH  29  33
DOCKED: ENDBRANCH  28  29
DOCKED: ENDBRANCH   3  28
DOCKED: BRANCH   5  35
DOCKED: ATOM     35  O   UNL d   1      -8.385 -12.922   8.761 -0.07 +0.04    -0.278 OA
DOCKED: BRANCH  35  36
DOCKED: ATOM     36  P   UNL d   1      -9.505 -12.623   9.857 -0.01 -0.04    +0.473 P 
DOCKED: ATOM     37  O   UNL d   1     -10.621 -11.732   9.412 -0.02 +0.02    -0.228 OA
DOCKED: BRANCH  36  38
DOCKED: ATOM     38  O   UNL d   1      -9.963 -14.092  10.265 -0.00 +0.02    -0.303 OA
DOCKED: ATOM     39  H   UNL d   1      -9.168 -14.653  10.393 +0.01 -0.02    +0.222 HD
DOCKED: ENDBRANCH  36  38
DOCKED: BRANCH  36  40
DOCKED: ATOM     40  O   UNL d   1      -8.641 -12.132  11.100 -0.02 +0.02    -0.303 OA
DOCKED: ATOM     41  H   UNL d   1      -8.127 -12.869  11.500 +0.02 -0.01    +0.222 HD
DOCKED: ENDBRANCH  36  40
DOCKED: ENDBRANCH  35  36
DOCKED: ENDBRANCH   5  35
DOCKED: BRANCH   4  42
DOCKED: ATOM     42  O   UNL d   1      -9.033 -14.690   6.537 -0.10 +0.08    -0.278 OA
DOCKED: BRANCH  42  43
DOCKED: ATOM     43  P   UNL d   1      -9.794 -16.019   6.981 -0.01 -0.07    +0.473 P 
DOCKED: ATOM     44  O   UNL d   1     -10.090 -16.190   8.431 -0.01 +0.02    -0.228 OA
DOCKED: BRANCH  43  45
DOCKED: ATOM     45  O   UNL d   1     -11.084 -16.010   6.050 -0.02 +0.04    -0.303 OA
DOCKED: ATOM     46  H   UNL d   1     -11.897 -16.190   6.563 +0.02 -0.02    +0.222 HD
DOCKED: ENDBRANCH  43  45
DOCKED: BRANCH  43  47
DOCKED: ATOM     47  O   UNL d   1      -8.918 -17.183   6.313 -0.01 +0.05    -0.303 OA
DOCKED: ATOM     48  H   UNL d   1      -8.199 -16.782   5.782 +0.05 -0.05    +0.222 HD
DOCKED: ENDBRANCH  43  47
DOCKED: ENDBRANCH  42  43
DOCKED: ENDBRANCH   4  42
DOCKED: TORSDOF 24
DOCKED: TER
DOCKED: ENDMDL
________________________________________________________________________________


	BEGINNING GENETIC ALGORITHM DOCKING 17 of 100
Run: 17 Seed: 167197924 137932364 [ Run 17 of 100 GA/GALS ]
Beginning LAMARCKIAN GENETIC ALGORITHM (LGA), with a maximum of 25000000 energy evaluations.

Final-Value: -18.638


	FINAL GENETIC ALGORITHM DOCKED STATE
	_______________________________________________


Detailed state:  trans 4.914 4.651 20.984 quatxyzw 0.747630 0.552199 -0.332621 -0.159653 center 0.035 0.082 -0.065 ntor 24 -114.3788 -19.1890 144.1863 15.1288 20.9194 134.8601 -46.3611 40.4081 147.7593 44.8991 91.0778 148.7286 -176.5033 174.7594 179.9007 127.7196 6.1495 117.7096 61.4838 10.7991 -18.2346 -6.4787 176.1115 -1.0275
State:	  4.914   4.651  20.984   0.757  0.559 -0.337 -161.626   -114.38  -19.19  144.19   15.13   20.92  134.86  -46.36   40.41  147.76   44.90   91.08  148.73 -176.50  174.76  179.90  127.72    6.15  117.71   61.48   10.80  -18.23   -6.48  176.11   -1.03

DOCKED: MODEL       17
DOCKED: USER    Run = 17
DOCKED: USER    DPF = D:/Protein_go_brrr/autodock/final/mut_K82N/IHP/dock.dpf
DOCKED: USER  
DOCKED: USER    Estimated Free Energy of Binding    =   +2.55 kcal/mol  [=(1)+(2)+(3)-(4)]
DOCKED: USER    
DOCKED: USER    (1) Final Intermolecular Energy     =   -4.61 kcal/mol
DOCKED: USER        vdW + Hbond + desolv Energy     =   -4.25 kcal/mol
DOCKED: USER        Electrostatic Energy            =   -0.35 kcal/mol
DOCKED: USER    (2) Final Total Internal Energy     =  -14.03 kcal/mol
DOCKED: USER    (3) Torsional Free Energy           =   +7.16 kcal/mol
DOCKED: USER    (4) Unbound System's Energy  [=(2)] =  -14.03 kcal/mol
DOCKED: USER    
DOCKED: USER    
DOCKED: USER    NEWDPF move IHP_ideal_opt.pdbqt
DOCKED: USER    NEWDPF about 0.035000 0.082000 -0.065000
DOCKED: USER    NEWDPF tran0 4.913822 4.651228 20.983760
DOCKED: USER    NEWDPF quaternion0 0.747630 0.552199 -0.332621 -0.159653
DOCKED: USER    NEWDPF axisangle0 0.757344 0.559374 -0.336943 -161.626451
DOCKED: USER    NEWDPF quat0 0.757344 0.559374 -0.336943 -161.626451
DOCKED: USER    NEWDPF dihe0 -114.38 -19.19 144.19 15.13 20.92 134.86 -46.36 40.41 147.76 44.90 91.08 148.73 -176.50 174.76 179.90 127.72 6.15 117.71 61.48 10.80 -18.23 -6.48 176.11 -1.03 
DOCKED: USER  keepresnum = 1 
DOCKED: USER  
DOCKED: REMARK  24 active torsions:
DOCKED: REMARK  status: ('A' for Active; 'I' for Inactive)
DOCKED: REMARK    1  A    between atoms: C_1  and  O_7 
DOCKED: REMARK    2  A    between atoms: C_2  and  O_12 
DOCKED: REMARK    3  A    between atoms: C_3  and  O_17 
DOCKED: REMARK    4  A    between atoms: C_4  and  O_22 
DOCKED: REMARK    5  A    between atoms: C_5  and  O_27 
DOCKED: REMARK    6  A    between atoms: C_6  and  O_32 
DOCKED: REMARK    7  A    between atoms: O_7  and  P_8 
DOCKED: REMARK    8  A    between atoms: P_8  and  O_10 
DOCKED: REMARK    9  A    between atoms: P_8  and  O_11 
DOCKED: REMARK   10  A    between atoms: O_12  and  P_13 
DOCKED: REMARK   11  A    between atoms: P_13  and  O_15 
DOCKED: REMARK   12  A    between atoms: P_13  and  O_16 
DOCKED: REMARK   13  A    between atoms: O_17  and  P_18 
DOCKED: REMARK   14  A    between atoms: P_18  and  O_20 
DOCKED: REMARK   15  A    between atoms: P_18  and  O_21 
DOCKED: REMARK   16  A    between atoms: O_22  and  P_23 
DOCKED: REMARK   17  A    between atoms: P_23  and  O_25 
DOCKED: REMARK   18  A    between atoms: P_23  and  O_26 
DOCKED: REMARK   19  A    between atoms: O_27  and  P_28 
DOCKED: REMARK   20  A    between atoms: P_28  and  O_30 
DOCKED: REMARK   21  A    between atoms: P_28  and  O_31 
DOCKED: REMARK   22  A    between atoms: O_32  and  P_33 
DOCKED: REMARK   23  A    between atoms: P_33  and  O_35 
DOCKED: REMARK   24  A    between atoms: P_33  and  O_36 
DOCKED: USER                              x       y       z     vdW  Elec       q    Type
DOCKED: USER                           _______ _______ _______ _____ _____    ______ ____
DOCKED: ROOT
DOCKED: ATOM      1  C   UNL d   1       4.044   5.375  19.678 -0.19 -0.07    +0.194 C 
DOCKED: ATOM      2  C   UNL d   1       3.202   4.973  20.891 -0.10 -0.06    +0.194 C 
DOCKED: ATOM      3  C   UNL d   1       3.602   3.596  21.427 -0.15 -0.08    +0.194 C 
DOCKED: ATOM      4  C   UNL d   1       5.099   3.467  21.695 -0.21 -0.03    +0.194 C 
DOCKED: ATOM      5  C   UNL d   1       5.979   3.963  20.555 -0.27 -0.01    +0.194 C 
DOCKED: ATOM      6  C   UNL d   1       5.542   5.312  19.978 -0.23 -0.03    +0.194 C 
DOCKED: ENDROOT
DOCKED: BRANCH   1   7
DOCKED: ATOM      7  O   UNL d   1       3.732   6.730  19.348 -0.10 +0.09    -0.278 OA
DOCKED: BRANCH   7   8
DOCKED: ATOM      8  P   UNL d   1       2.229   7.085  18.939 -0.04 -0.18    +0.473 P 
DOCKED: ATOM      9  O   UNL d   1       2.076   7.760  17.622 -0.16 +0.10    -0.228 OA
DOCKED: BRANCH   8  10
DOCKED: ATOM     10  O   UNL d   1       1.465   5.687  19.020 -0.10 +0.13    -0.303 OA
DOCKED: ATOM     11  H   UNL d   1       1.138   5.545  19.928 +0.05 -0.07    +0.222 HD
DOCKED: ENDBRANCH   8  10
DOCKED: BRANCH   8  12
DOCKED: ATOM     12  O   UNL d   1       1.633   7.862  20.190 -0.01 +0.07    -0.303 OA
DOCKED: ATOM     13  H   UNL d   1       1.577   7.305  20.999 +0.02 -0.04    +0.222 HD
DOCKED: ENDBRANCH   8  12
DOCKED: ENDBRANCH   7   8
DOCKED: ENDBRANCH   1   7
DOCKED: BRANCH   2  14
DOCKED: ATOM     14  O   UNL d   1       3.391   5.940  21.931 -0.01 +0.04    -0.278 OA
DOCKED: BRANCH  14  15
DOCKED: ATOM     15  P   UNL d   1       2.103   6.310  22.807 +0.01 -0.06    +0.473 P 
DOCKED: ATOM     16  O   UNL d   1       1.800   7.766  22.975 -0.00 +0.02    -0.228 OA
DOCKED: BRANCH  15  17
DOCKED: ATOM     17  O   UNL d   1       0.916   5.510  22.107 -0.00 +0.06    -0.303 OA
DOCKED: ATOM     18  H   UNL d   1       1.164   4.579  21.950 +0.03 -0.06    +0.222 HD
DOCKED: ENDBRANCH  15  17
DOCKED: BRANCH  15  19
DOCKED: ATOM     19  O   UNL d   1       2.290   5.489  24.156 +0.00 +0.03    -0.303 OA
DOCKED: ATOM     20  H   UNL d   1       2.574   4.572  23.983 +0.01 -0.03    +0.222 HD
DOCKED: ENDBRANCH  15  19
DOCKED: ENDBRANCH  14  15
DOCKED: ENDBRANCH   2  14
DOCKED: BRANCH   6  21
DOCKED: ATOM     21  O   UNL d   1       6.224   5.469  18.736 -0.21 +0.05    -0.278 OA
DOCKED: BRANCH  21  22
DOCKED: ATOM     22  P   UNL d   1       7.195   6.715  18.517 -0.12 -0.06    +0.473 P 
DOCKED: ATOM     23  O   UNL d   1       7.350   7.255  17.135 -0.19 +0.08    -0.228 OA
DOCKED: BRANCH  22  24
DOCKED: ATOM     24  O   UNL d   1       6.632   7.757  19.581 -0.03 +0.03    -0.303 OA
DOCKED: ATOM     25  H   UNL d   1       5.644   7.764  19.512 +0.06 -0.04    +0.222 HD
DOCKED: ENDBRANCH  22  24
DOCKED: BRANCH  22  26
DOCKED: ATOM     26  O   UNL d   1       8.540   6.209  19.229 -0.11 -0.03    -0.303 OA
DOCKED: ATOM     27  H   UNL d   1       8.307   5.719  20.044 +0.07 +0.04    +0.222 HD
DOCKED: ENDBRANCH  22  26
DOCKED: ENDBRANCH  21  22
DOCKED: ENDBRANCH   6  21
DOCKED: BRANCH   3  28
DOCKED: ATOM     28  O   UNL d   1       2.976   3.432  22.693 -0.05 +0.10    -0.278 OA
DOCKED: BRANCH  28  29
DOCKED: ATOM     29  P   UNL d   1       1.698   2.494  22.843 +0.01 -0.28    +0.473 P 
DOCKED: ATOM     30  O   UNL d   1       1.954   1.150  23.423 -0.09 +0.16    -0.228 OA
DOCKED: BRANCH  29  31
DOCKED: ATOM     31  O   UNL d   1       0.731   3.468  23.666 -0.01 +0.07    -0.303 OA
DOCKED: ATOM     32  H   UNL d   1       1.169   4.347  23.750 +0.01 -0.04    +0.222 HD
DOCKED: ENDBRANCH  29  31
DOCKED: BRANCH  29  33
DOCKED: ATOM     33  O   UNL d   1       1.077   2.539  21.378 -0.05 +0.27    -0.303 OA
DOCKED: ATOM     34  H   UNL d   1       1.346   1.723  20.889 -0.45 -0.46    +0.222 HD
DOCKED: ENDBRANCH  29  33
DOCKED: ENDBRANCH  28  29
DOCKED: ENDBRANCH   3  28
DOCKED: BRANCH   5  35
DOCKED: ATOM     35  O   UNL d   1       7.276   4.149  21.119 -0.79 -0.09    -0.278 OA
DOCKED: BRANCH  35  36
DOCKED: ATOM     36  P   UNL d   1       7.465   5.047  22.424 -0.11 +0.14    +0.473 P 
DOCKED: ATOM     37  O   UNL d   1       6.556   4.723  23.567 -0.07 -0.05    -0.228 OA
DOCKED: BRANCH  36  38
DOCKED: ATOM     38  O   UNL d   1       9.012   4.842  22.739 -0.07 -0.22    -0.303 OA
DOCKED: ATOM     39  H   UNL d   1       9.541   5.396  22.125 +0.03 +0.12    +0.222 HD
DOCKED: ENDBRANCH  36  38
DOCKED: BRANCH  36  40
DOCKED: ATOM     40  O   UNL d   1       7.386   6.522  21.834 -0.03 -0.04    -0.303 OA
DOCKED: ATOM     41  H   UNL d   1       7.196   6.520  20.870 +0.05 +0.01    +0.222 HD
DOCKED: ENDBRANCH  36  40
DOCKED: ENDBRANCH  35  36
DOCKED: ENDBRANCH   5  35
DOCKED: BRANCH   4  42
DOCKED: ATOM     42  O   UNL d   1       5.371   2.071  21.859 -0.28 +0.06    -0.278 OA
DOCKED: BRANCH  42  43
DOCKED: ATOM     43  P   UNL d   1       5.809   1.534  23.296 -0.15 +0.00    +0.473 P 
DOCKED: ATOM     44  O   UNL d   1       5.719   0.067  23.538 -0.17 +0.01    -0.228 OA
DOCKED: BRANCH  43  45
DOCKED: ATOM     45  O   UNL d   1       7.274   2.133  23.461 -0.11 -0.13    -0.303 OA
DOCKED: ATOM     46  H   UNL d   1       7.432   2.870  22.838 +0.05 +0.10    +0.222 HD
DOCKED: ENDBRANCH  43  45
DOCKED: BRANCH  43  47
DOCKED: ATOM     47  O   UNL d   1       4.966   2.454  24.303 -0.03 +0.01    -0.303 OA
DOCKED: ATOM     48  H   UNL d   1       4.850   3.343  23.907 +0.05 -0.01    +0.222 HD
DOCKED: ENDBRANCH  43  47
DOCKED: ENDBRANCH  42  43
DOCKED: ENDBRANCH   4  42
DOCKED: TORSDOF 24
DOCKED: TER
DOCKED: ENDMDL
________________________________________________________________________________


	BEGINNING GENETIC ALGORITHM DOCKING 18 of 100
Run: 18 Seed: 93190026 816570875 [ Run 18 of 100 GA/GALS ]
Beginning LAMARCKIAN GENETIC ALGORITHM (LGA), with a maximum of 25000000 energy evaluations.

Final-Value: -18.932


	FINAL GENETIC ALGORITHM DOCKED STATE
	_______________________________________________


Detailed state:  trans 14.250 5.843 -1.207 quatxyzw -0.380576 -0.449091 -0.394134 0.705788 center 0.035 0.082 -0.065 ntor 24 -158.7294 27.7137 -155.1142 45.2306 113.9828 118.5015 -58.8853 99.3665 163.7585 -50.4098 45.9492 180.0000 41.8851 162.2626 74.0432 161.8127 68.1022 164.9998 -2.8196 -3.5665 -29.6663 -6.6403 -32.5533 -6.4041
State:	 14.250   5.843  -1.207  -0.537 -0.634 -0.556 90.213   -158.73   27.71 -155.11   45.23  113.98  118.50  -58.89   99.37  163.76  -50.41   45.95  180.00   41.89  162.26   74.04  161.81   68.10  165.00   -2.82   -3.57  -29.67   -6.64  -32.55   -6.40

DOCKED: MODEL       18
DOCKED: USER    Run = 18
DOCKED: USER    DPF = D:/Protein_go_brrr/autodock/final/mut_K82N/IHP/dock.dpf
DOCKED: USER  
DOCKED: USER    Estimated Free Energy of Binding    =   +3.04 kcal/mol  [=(1)+(2)+(3)-(4)]
DOCKED: USER    
DOCKED: USER    (1) Final Intermolecular Energy     =   -4.11 kcal/mol
DOCKED: USER        vdW + Hbond + desolv Energy     =   -4.11 kcal/mol
DOCKED: USER        Electrostatic Energy            =   -0.01 kcal/mol
DOCKED: USER    (2) Final Total Internal Energy     =  -14.82 kcal/mol
DOCKED: USER    (3) Torsional Free Energy           =   +7.16 kcal/mol
DOCKED: USER    (4) Unbound System's Energy  [=(2)] =  -14.82 kcal/mol
DOCKED: USER    
DOCKED: USER    
DOCKED: USER    NEWDPF move IHP_ideal_opt.pdbqt
DOCKED: USER    NEWDPF about 0.035000 0.082000 -0.065000
DOCKED: USER    NEWDPF tran0 14.250168 5.843181 -1.207211
DOCKED: USER    NEWDPF quaternion0 -0.380576 -0.449091 -0.394134 0.705788
DOCKED: USER    NEWDPF axisangle0 -0.537217 -0.633930 -0.556355 90.213470
DOCKED: USER    NEWDPF quat0 -0.537217 -0.633930 -0.556355 90.213470
DOCKED: USER    NEWDPF dihe0 -158.73 27.71 -155.11 45.23 113.98 118.50 -58.89 99.37 163.76 -50.41 45.95 180.00 41.89 162.26 74.04 161.81 68.10 165.00 -2.82 -3.57 -29.67 -6.64 -32.55 -6.40 
DOCKED: USER  keepresnum = 1 
DOCKED: USER  
DOCKED: REMARK  24 active torsions:
DOCKED: REMARK  status: ('A' for Active; 'I' for Inactive)
DOCKED: REMARK    1  A    between atoms: C_1  and  O_7 
DOCKED: REMARK    2  A    between atoms: C_2  and  O_12 
DOCKED: REMARK    3  A    between atoms: C_3  and  O_17 
DOCKED: REMARK    4  A    between atoms: C_4  and  O_22 
DOCKED: REMARK    5  A    between atoms: C_5  and  O_27 
DOCKED: REMARK    6  A    between atoms: C_6  and  O_32 
DOCKED: REMARK    7  A    between atoms: O_7  and  P_8 
DOCKED: REMARK    8  A    between atoms: P_8  and  O_10 
DOCKED: REMARK    9  A    between atoms: P_8  and  O_11 
DOCKED: REMARK   10  A    between atoms: O_12  and  P_13 
DOCKED: REMARK   11  A    between atoms: P_13  and  O_15 
DOCKED: REMARK   12  A    between atoms: P_13  and  O_16 
DOCKED: REMARK   13  A    between atoms: O_17  and  P_18 
DOCKED: REMARK   14  A    between atoms: P_18  and  O_20 
DOCKED: REMARK   15  A    between atoms: P_18  and  O_21 
DOCKED: REMARK   16  A    between atoms: O_22  and  P_23 
DOCKED: REMARK   17  A    between atoms: P_23  and  O_25 
DOCKED: REMARK   18  A    between atoms: P_23  and  O_26 
DOCKED: REMARK   19  A    between atoms: O_27  and  P_28 
DOCKED: REMARK   20  A    between atoms: P_28  and  O_30 
DOCKED: REMARK   21  A    between atoms: P_28  and  O_31 
DOCKED: REMARK   22  A    between atoms: O_32  and  P_33 
DOCKED: REMARK   23  A    between atoms: P_33  and  O_35 
DOCKED: REMARK   24  A    between atoms: P_33  and  O_36 
DOCKED: USER                              x       y       z     vdW  Elec       q    Type
DOCKED: USER                           _______ _______ _______ _____ _____    ______ ____
DOCKED: ROOT
DOCKED: ATOM      1  C   UNL d   1      15.538   6.469  -2.174 -0.09 +0.01    +0.194 C 
DOCKED: ATOM      2  C   UNL d   1      15.009   5.094  -2.587 -0.10 +0.03    +0.194 C 
DOCKED: ATOM      3  C   UNL d   1      14.771   4.191  -1.375 -0.08 +0.03    +0.194 C 
DOCKED: ATOM      4  C   UNL d   1      13.906   4.843  -0.299 +0.02 +0.03    +0.194 C 
DOCKED: ATOM      5  C   UNL d   1      14.329   6.261   0.062 -0.08 +0.02    +0.194 C 
DOCKED: ATOM      6  C   UNL d   1      14.626   7.146  -1.150 -0.12 +0.02    +0.194 C 
DOCKED: ENDROOT
DOCKED: BRANCH   1   7
DOCKED: ATOM      7  O   UNL d   1      15.568   7.302  -3.335 -0.08 -0.00    -0.278 OA
DOCKED: BRANCH   7   8
DOCKED: ATOM      8  P   UNL d   1      16.945   8.013  -3.724 -0.01 -0.01    +0.473 P 
DOCKED: ATOM      9  O   UNL d   1      17.787   7.266  -4.697 -0.01 +0.01    -0.228 OA
DOCKED: BRANCH   8  10
DOCKED: ATOM     10  O   UNL d   1      16.502   9.452  -4.251 -0.02 +0.01    -0.303 OA
DOCKED: ATOM     11  H   UNL d   1      15.819   9.821  -3.661 +0.05 -0.01    +0.222 HD
DOCKED: ENDBRANCH   8  10
DOCKED: BRANCH   8  12
DOCKED: ATOM     12  O   UNL d   1      17.634   8.365  -2.336 -0.00 +0.01    -0.303 OA
DOCKED: ATOM     13  H   UNL d   1      17.007   8.346  -1.579 +0.02 -0.00    +0.222 HD
DOCKED: ENDBRANCH   8  12
DOCKED: ENDBRANCH   7   8
DOCKED: ENDBRANCH   1   7
DOCKED: BRANCH   2  14
DOCKED: ATOM     14  O   UNL d   1      13.767   5.261  -3.282 -0.26 -0.05    -0.278 OA
DOCKED: BRANCH  14  15
DOCKED: ATOM     15  P   UNL d   1      13.645   4.550  -4.712 -0.11 +0.03    +0.473 P 
DOCKED: ATOM     16  O   UNL d   1      12.902   5.299  -5.774 -0.28 +0.01    -0.228 OA
DOCKED: BRANCH  15  17
DOCKED: ATOM     17  O   UNL d   1      15.153   4.236  -5.118 -0.04 -0.01    -0.303 OA
DOCKED: ATOM     18  H   UNL d   1      15.336   3.278  -5.077 +0.05 +0.03    +0.222 HD
DOCKED: ENDBRANCH  15  17
DOCKED: BRANCH  15  19
DOCKED: ATOM     19  O   UNL d   1      13.092   3.095  -4.385 -0.29 -0.11    -0.303 OA
DOCKED: ATOM     20  H   UNL d   1      13.170   2.884  -3.436 +0.08 +0.11    +0.222 HD
DOCKED: ENDBRANCH  15  19
DOCKED: ENDBRANCH  14  15
DOCKED: ENDBRANCH   2  14
DOCKED: BRANCH   6  21
DOCKED: ATOM     21  O   UNL d   1      15.323   8.291  -0.663 -0.06 +0.00    -0.278 OA
DOCKED: BRANCH  21  22
DOCKED: ATOM     22  P   UNL d   1      14.865   9.750  -1.120 -0.09 -0.02    +0.473 P 
DOCKED: ATOM     23  O   UNL d   1      14.101  10.585  -0.148 -0.12 +0.01    -0.228 OA
DOCKED: BRANCH  22  24
DOCKED: ATOM     24  O   UNL d   1      16.239  10.384  -1.610 -0.02 +0.02    -0.303 OA
DOCKED: ATOM     25  H   UNL d   1      16.685   9.730  -2.206 +0.03 -0.01    +0.222 HD
DOCKED: ENDBRANCH  22  24
DOCKED: BRANCH  22  26
DOCKED: ATOM     26  O   UNL d   1      14.129   9.440  -2.510 -0.19 +0.02    -0.303 OA
DOCKED: ATOM     27  H   UNL d   1      14.745   8.961  -3.100 +0.06 -0.01    +0.222 HD
DOCKED: ENDBRANCH  22  26
DOCKED: ENDBRANCH  21  22
DOCKED: ENDBRANCH   6  21
DOCKED: BRANCH   3  28
DOCKED: ATOM     28  O   UNL d   1      14.032   3.061  -1.821 -0.11 -0.07    -0.278 OA
DOCKED: BRANCH  28  29
DOCKED: ATOM     29  P   UNL d   1      14.753   1.655  -2.022 -0.07 +0.19    +0.473 P 
DOCKED: ATOM     30  O   UNL d   1      14.017   0.477  -1.496 -0.66 -0.16    -0.228 OA
DOCKED: BRANCH  29  31
DOCKED: ATOM     31  O   UNL d   1      15.018   1.701  -3.600 -0.57 -0.17    -0.303 OA
DOCKED: ATOM     32  H   UNL d   1      14.567   2.494  -3.971 +0.05 +0.11    +0.222 HD
DOCKED: ENDBRANCH  29  31
DOCKED: BRANCH  29  33
DOCKED: ATOM     33  O   UNL d   1      16.198   1.932  -1.414 +0.00 -0.04    -0.303 OA
DOCKED: ATOM     34  H   UNL d   1      16.612   1.069  -1.166 +0.02 +0.03    +0.222 HD
DOCKED: ENDBRANCH  29  33
DOCKED: ENDBRANCH  28  29
DOCKED: ENDBRANCH   3  28
DOCKED: BRANCH   5  35
DOCKED: ATOM     35  O   UNL d   1      13.214   6.837   0.739 -0.13 +0.01    -0.278 OA
DOCKED: BRANCH  35  36
DOCKED: ATOM     36  P   UNL d   1      13.174   6.876   2.333 -0.07 -0.01    +0.473 P 
DOCKED: ATOM     37  O   UNL d   1      13.264   8.237   2.947 -0.06 -0.00    -0.228 OA
DOCKED: BRANCH  36  38
DOCKED: ATOM     38  O   UNL d   1      11.815   6.106   2.644 -0.12 +0.01    -0.303 OA
DOCKED: ATOM     39  H   UNL d   1      12.012   5.157   2.797 +0.04 -0.01    +0.222 HD
DOCKED: ENDBRANCH  36  38
DOCKED: BRANCH  36  40
DOCKED: ATOM     40  O   UNL d   1      14.305   5.830   2.728 -0.02 +0.00    -0.303 OA
DOCKED: ATOM     41  H   UNL d   1      13.939   4.926   2.851 +0.04 -0.00    +0.222 HD
DOCKED: ENDBRANCH  36  40
DOCKED: ENDBRANCH  35  36
DOCKED: ENDBRANCH   5  35
DOCKED: BRANCH   4  42
DOCKED: ATOM     42  O   UNL d   1      14.046   4.048   0.883 -0.05 -0.02    -0.278 OA
DOCKED: BRANCH  42  43
DOCKED: ATOM     43  P   UNL d   1      12.758   3.321   1.480 -0.11 +0.03    +0.473 P 
DOCKED: ATOM     44  O   UNL d   1      12.707   3.116   2.955 -0.13 -0.00    -0.228 OA
DOCKED: BRANCH  43  45
DOCKED: ATOM     45  O   UNL d   1      11.563   4.200   0.904 -0.23 +0.00    -0.303 OA
DOCKED: ATOM     46  H   UNL d   1      11.846   5.120   0.732 -0.17 -0.04    +0.222 HD
DOCKED: ENDBRANCH  43  45
DOCKED: BRANCH  43  47
DOCKED: ATOM     47  O   UNL d   1      12.643   1.991   0.593 -0.10 -0.05    -0.303 OA
DOCKED: ATOM     48  H   UNL d   1      13.361   1.984  -0.073 +0.07 +0.05    +0.222 HD
DOCKED: ENDBRANCH  43  47
DOCKED: ENDBRANCH  42  43
DOCKED: ENDBRANCH   4  42
DOCKED: TORSDOF 24
DOCKED: TER
DOCKED: ENDMDL
________________________________________________________________________________


	BEGINNING GENETIC ALGORITHM DOCKING 19 of 100
Run: 19 Seed: 401598574 2038402297 [ Run 19 of 100 GA/GALS ]
Beginning LAMARCKIAN GENETIC ALGORITHM (LGA), with a maximum of 25000000 energy evaluations.

Final-Value: -19.809


	FINAL GENETIC ALGORITHM DOCKED STATE
	_______________________________________________


Detailed state:  trans 0.643 20.000 -12.980 quatxyzw 0.487384 -0.480436 0.110432 0.720724 center 0.035 0.082 -0.065 ntor 24 23.7327 119.8988 -172.3459 -21.3995 104.6272 142.7451 -18.5342 -57.7339 -172.8523 -32.3086 76.9853 177.0609 -37.2848 173.6700 176.6491 -51.2208 97.0818 150.7410 -167.8952 18.5485 -9.5383 2.8109 169.1779 -2.6665
State:	  0.643  20.000 -12.980   0.703 -0.693  0.159 87.771     23.73  119.90 -172.35  -21.40  104.63  142.75  -18.53  -57.73 -172.85  -32.31   76.99  177.06  -37.28  173.67  176.65  -51.22   97.08  150.74 -167.90   18.55   -9.54    2.81  169.18   -2.67

DOCKED: MODEL       19
DOCKED: USER    Run = 19
DOCKED: USER    DPF = D:/Protein_go_brrr/autodock/final/mut_K82N/IHP/dock.dpf
DOCKED: USER  
DOCKED: USER    Estimated Free Energy of Binding    =   +2.14 kcal/mol  [=(1)+(2)+(3)-(4)]
DOCKED: USER    
DOCKED: USER    (1) Final Intermolecular Energy     =   -5.02 kcal/mol
DOCKED: USER        vdW + Hbond + desolv Energy     =   -4.79 kcal/mol
DOCKED: USER        Electrostatic Energy            =   -0.23 kcal/mol
DOCKED: USER    (2) Final Total Internal Energy     =  -14.79 kcal/mol
DOCKED: USER    (3) Torsional Free Energy           =   +7.16 kcal/mol
DOCKED: USER    (4) Unbound System's Energy  [=(2)] =  -14.79 kcal/mol
DOCKED: USER    
DOCKED: USER    
DOCKED: USER    NEWDPF move IHP_ideal_opt.pdbqt
DOCKED: USER    NEWDPF about 0.035000 0.082000 -0.065000
DOCKED: USER    NEWDPF tran0 0.643329 19.999863 -12.979954
DOCKED: USER    NEWDPF quaternion0 0.487384 -0.480436 0.110432 0.720724
DOCKED: USER    NEWDPF axisangle0 0.703071 -0.693047 0.159303 87.771453
DOCKED: USER    NEWDPF quat0 0.703071 -0.693047 0.159303 87.771453
DOCKED: USER    NEWDPF dihe0 23.73 119.90 -172.35 -21.40 104.63 142.75 -18.53 -57.73 -172.85 -32.31 76.99 177.06 -37.28 173.67 176.65 -51.22 97.08 150.74 -167.90 18.55 -9.54 2.81 169.18 -2.67 
DOCKED: USER  keepresnum = 1 
DOCKED: USER  
DOCKED: REMARK  24 active torsions:
DOCKED: REMARK  status: ('A' for Active; 'I' for Inactive)
DOCKED: REMARK    1  A    between atoms: C_1  and  O_7 
DOCKED: REMARK    2  A    between atoms: C_2  and  O_12 
DOCKED: REMARK    3  A    between atoms: C_3  and  O_17 
DOCKED: REMARK    4  A    between atoms: C_4  and  O_22 
DOCKED: REMARK    5  A    between atoms: C_5  and  O_27 
DOCKED: REMARK    6  A    between atoms: C_6  and  O_32 
DOCKED: REMARK    7  A    between atoms: O_7  and  P_8 
DOCKED: REMARK    8  A    between atoms: P_8  and  O_10 
DOCKED: REMARK    9  A    between atoms: P_8  and  O_11 
DOCKED: REMARK   10  A    between atoms: O_12  and  P_13 
DOCKED: REMARK   11  A    between atoms: P_13  and  O_15 
DOCKED: REMARK   12  A    between atoms: P_13  and  O_16 
DOCKED: REMARK   13  A    between atoms: O_17  and  P_18 
DOCKED: REMARK   14  A    between atoms: P_18  and  O_20 
DOCKED: REMARK   15  A    between atoms: P_18  and  O_21 
DOCKED: REMARK   16  A    between atoms: O_22  and  P_23 
DOCKED: REMARK   17  A    between atoms: P_23  and  O_25 
DOCKED: REMARK   18  A    between atoms: P_23  and  O_26 
DOCKED: REMARK   19  A    between atoms: O_27  and  P_28 
DOCKED: REMARK   20  A    between atoms: P_28  and  O_30 
DOCKED: REMARK   21  A    between atoms: P_28  and  O_31 
DOCKED: REMARK   22  A    between atoms: O_32  and  P_33 
DOCKED: REMARK   23  A    between atoms: P_33  and  O_35 
DOCKED: REMARK   24  A    between atoms: P_33  and  O_36 
DOCKED: USER                              x       y       z     vdW  Elec       q    Type
DOCKED: USER                           _______ _______ _______ _____ _____    ______ ____
DOCKED: ROOT
DOCKED: ATOM      1  C   UNL d   1       2.195  19.241 -12.945 -0.03 -0.05    +0.194 C 
DOCKED: ATOM      2  C   UNL d   1       1.507  19.402 -11.588 -0.06 -0.05    +0.194 C 
DOCKED: ATOM      3  C   UNL d   1       0.862  20.781 -11.440 -0.04 -0.05    +0.194 C 
DOCKED: ATOM      4  C   UNL d   1      -0.061  21.141 -12.601 -0.02 -0.05    +0.194 C 
DOCKED: ATOM      5  C   UNL d   1       0.544  20.888 -13.976 -0.01 -0.05    +0.194 C 
DOCKED: ATOM      6  C   UNL d   1       1.243  19.533 -14.105 -0.03 -0.06    +0.194 C 
DOCKED: ENDROOT
DOCKED: BRANCH   1   7
DOCKED: ATOM      7  O   UNL d   1       2.617  17.881 -13.072 -0.05 +0.08    -0.278 OA
DOCKED: BRANCH   7   8
DOCKED: ATOM      8  P   UNL d   1       1.500  16.752 -13.246 -0.16 -0.25    +0.473 P 
DOCKED: ATOM      9  O   UNL d   1       0.143  17.256 -13.591 -0.01 +0.16    -0.228 OA
DOCKED: BRANCH   8  10
DOCKED: ATOM     10  O   UNL d   1       2.107  15.775 -14.352 -0.20 +0.22    -0.303 OA
DOCKED: ATOM     11  H   UNL d   1       1.422  15.564 -15.013 -0.48 -0.38    +0.222 HD
DOCKED: ENDBRANCH   8  10
DOCKED: BRANCH   8  12
DOCKED: ATOM     12  O   UNL d   1       1.599  15.868 -11.930 -0.30 +0.11    -0.303 OA
DOCKED: ATOM     13  H   UNL d   1       1.215  16.310 -11.139 +0.13 -0.07    +0.222 HD
DOCKED: ENDBRANCH   8  12
DOCKED: ENDBRANCH   7   8
DOCKED: ENDBRANCH   1   7
DOCKED: BRANCH   2  14
DOCKED: ATOM     14  O   UNL d   1       0.485  18.404 -11.461 -0.11 +0.08    -0.278 OA
DOCKED: BRANCH  14  15
DOCKED: ATOM     15  P   UNL d   1       0.162  17.895  -9.978 -0.26 -0.14    +0.473 P 
DOCKED: ATOM     16  O   UNL d   1       0.116  16.413  -9.771 -0.48 +0.07    -0.228 OA
DOCKED: BRANCH  15  17
DOCKED: ATOM     17  O   UNL d   1       1.262  18.610  -9.074 -0.28 +0.10    -0.303 OA
DOCKED: ATOM     18  H   UNL d   1       0.934  19.463  -8.730 +0.11 -0.07    +0.222 HD
DOCKED: ENDBRANCH  15  17
DOCKED: BRANCH  15  19
DOCKED: ATOM     19  O   UNL d   1      -1.154  18.687  -9.565 -0.30 +0.13    -0.303 OA
DOCKED: ATOM     20  H   UNL d   1      -0.951  19.590  -9.260 -0.15 -0.11    +0.222 HD
DOCKED: ENDBRANCH  15  19
DOCKED: ENDBRANCH  14  15
DOCKED: ENDBRANCH   2  14
DOCKED: BRANCH   6  21
DOCKED: ATOM     21  O   UNL d   1       2.033  19.588 -15.291 -0.01 +0.08    -0.278 OA
DOCKED: BRANCH  21  22
DOCKED: ATOM     22  P   UNL d   1       1.639  18.688 -16.547 -0.03 -0.21    +0.473 P 
DOCKED: ATOM     23  O   UNL d   1       2.721  18.282 -17.491 -0.01 +0.07    -0.228 OA
DOCKED: BRANCH  22  24
DOCKED: ATOM     24  O   UNL d   1       0.871  17.479 -15.853 -0.09 +0.32    -0.303 OA
DOCKED: ATOM     25  H   UNL d   1       0.328  17.845 -15.110 +0.03 -0.20    +0.222 HD
DOCKED: ENDBRANCH  22  24
DOCKED: BRANCH  22  26
DOCKED: ATOM     26  O   UNL d   1       0.430  19.527 -17.183 -0.01 +0.12    -0.303 OA
DOCKED: ATOM     27  H   UNL d   1      -0.050  19.993 -16.468 +0.02 -0.08    +0.222 HD
DOCKED: ENDBRANCH  22  26
DOCKED: ENDBRANCH  21  22
DOCKED: ENDBRANCH   6  21
DOCKED: BRANCH   3  28
DOCKED: ATOM     28  O   UNL d   1       0.024  20.741 -10.291 -0.11 +0.08    -0.278 OA
DOCKED: BRANCH  28  29
DOCKED: ATOM     29  P   UNL d   1       0.377  21.615  -9.007 -0.23 -0.16    +0.473 P 
DOCKED: ATOM     30  O   UNL d   1       1.467  21.083  -8.149 -0.57 +0.07    -0.228 OA
DOCKED: BRANCH  29  31
DOCKED: ATOM     31  O   UNL d   1       0.627  23.037  -9.698 -0.08 +0.10    -0.303 OA
DOCKED: ATOM     32  H   UNL d   1       0.028  23.118 -10.476 +0.05 -0.06    +0.222 HD
DOCKED: ENDBRANCH  29  31
DOCKED: BRANCH  29  33
DOCKED: ATOM     33  O   UNL d   1      -1.050  21.801  -8.327 -0.58 +0.13    -0.303 OA
DOCKED: ATOM     34  H   UNL d   1      -1.726  21.318  -8.862 -0.22 -0.12    +0.222 HD
DOCKED: ENDBRANCH  29  33
DOCKED: ENDBRANCH  28  29
DOCKED: ENDBRANCH   3  28
DOCKED: BRANCH   5  35
DOCKED: ATOM     35  O   UNL d   1      -0.554  20.883 -14.887 -0.01 +0.07    -0.278 OA
DOCKED: BRANCH  35  36
DOCKED: ATOM     36  P   UNL d   1      -1.731  19.819 -14.722 -0.06 -0.18    +0.473 P 
DOCKED: ATOM     37  O   UNL d   1      -3.108  20.332 -15.002 -0.04 +0.07    -0.228 OA
DOCKED: BRANCH  36  38
DOCKED: ATOM     38  O   UNL d   1      -1.256  18.653 -15.696 -0.12 +0.23    -0.303 OA
DOCKED: ATOM     39  H   UNL d   1      -1.097  17.840 -15.170 +0.04 -0.24    +0.222 HD
DOCKED: ENDBRANCH  36  38
DOCKED: BRANCH  36  40
DOCKED: ATOM     40  O   UNL d   1      -1.461  19.236 -13.267 -0.12 +0.11    -0.303 OA
DOCKED: ATOM     41  H   UNL d   1      -0.685  18.633 -13.255 +0.06 -0.09    +0.222 HD
DOCKED: ENDBRANCH  36  40
DOCKED: ENDBRANCH  35  36
DOCKED: ENDBRANCH   5  35
DOCKED: BRANCH   4  42
DOCKED: ATOM     42  O   UNL d   1      -0.318  22.547 -12.507 -0.00 +0.05    -0.278 OA
DOCKED: BRANCH  42  43
DOCKED: ATOM     43  P   UNL d   1      -1.799  23.040 -12.178 +0.01 -0.09    +0.473 P 
DOCKED: ATOM     44  O   UNL d   1      -2.123  24.468 -12.452 -0.00 +0.03    -0.228 OA
DOCKED: BRANCH  43  45
DOCKED: ATOM     45  O   UNL d   1      -2.698  22.003 -12.983 -0.01 +0.06    -0.303 OA
DOCKED: ATOM     46  H   UNL d   1      -2.153  21.311 -13.408 +0.03 -0.05    +0.222 HD
DOCKED: ENDBRANCH  43  45
DOCKED: BRANCH  43  47
DOCKED: ATOM     47  O   UNL d   1      -2.019  22.558 -10.666 -0.07 +0.07    -0.303 OA
DOCKED: ATOM     48  H   UNL d   1      -1.236  22.047 -10.373 +0.07 -0.06    +0.222 HD
DOCKED: ENDBRANCH  43  47
DOCKED: ENDBRANCH  42  43
DOCKED: ENDBRANCH   4  42
DOCKED: TORSDOF 24
DOCKED: TER
DOCKED: ENDMDL
________________________________________________________________________________


	BEGINNING GENETIC ALGORITHM DOCKING 20 of 100
Run: 20 Seed: 619520031 953331869 [ Run 20 of 100 GA/GALS ]
Beginning LAMARCKIAN GENETIC ALGORITHM (LGA), with a maximum of 25000000 energy evaluations.

Final-Value: -18.672


	FINAL GENETIC ALGORITHM DOCKED STATE
	_______________________________________________


Detailed state:  trans -7.533 -14.477 7.540 quatxyzw -0.708060 -0.584456 -0.112538 -0.379997 center 0.035 0.082 -0.065 ntor 24 124.1460 179.7797 -159.2708 44.8874 25.8254 180.0000 -121.0604 -66.6222 28.6119 -13.0028 179.9970 77.1661 -63.2246 43.8017 3.0945 -3.5641 163.7432 71.4777 62.0571 9.6349 -18.8588 22.6819 -7.4583 -33.2204
State:	 -7.533 -14.477   7.540  -0.765 -0.632 -0.122 -135.333    124.15  179.78 -159.27   44.89   25.83  180.00 -121.06  -66.62   28.61  -13.00  180.00   77.17  -63.22   43.80    3.09   -3.56  163.74   71.48   62.06    9.63  -18.86   22.68   -7.46  -33.22

DOCKED: MODEL       20
DOCKED: USER    Run = 20
DOCKED: USER    DPF = D:/Protein_go_brrr/autodock/final/mut_K82N/IHP/dock.dpf
DOCKED: USER  
DOCKED: USER    Estimated Free Energy of Binding    =   +1.55 kcal/mol  [=(1)+(2)+(3)-(4)]
DOCKED: USER    
DOCKED: USER    (1) Final Intermolecular Energy     =   -5.61 kcal/mol
DOCKED: USER        vdW + Hbond + desolv Energy     =   -5.19 kcal/mol
DOCKED: USER        Electrostatic Energy            =   -0.42 kcal/mol
DOCKED: USER    (2) Final Total Internal Energy     =  -13.06 kcal/mol
DOCKED: USER    (3) Torsional Free Energy           =   +7.16 kcal/mol
DOCKED: USER    (4) Unbound System's Energy  [=(2)] =  -13.06 kcal/mol
DOCKED: USER    
DOCKED: USER    
DOCKED: USER    NEWDPF move IHP_ideal_opt.pdbqt
DOCKED: USER    NEWDPF about 0.035000 0.082000 -0.065000
DOCKED: USER    NEWDPF tran0 -7.532893 -14.477059 7.540428
DOCKED: USER    NEWDPF quaternion0 -0.708060 -0.584456 -0.112538 -0.379997
DOCKED: USER    NEWDPF axisangle0 -0.765480 -0.631853 -0.121664 -135.332976
DOCKED: USER    NEWDPF quat0 -0.765480 -0.631853 -0.121664 -135.332976
DOCKED: USER    NEWDPF dihe0 124.15 179.78 -159.27 44.89 25.83 180.00 -121.06 -66.62 28.61 -13.00 180.00 77.17 -63.22 43.80 3.09 -3.56 163.74 71.48 62.06 9.63 -18.86 22.68 -7.46 -33.22 
DOCKED: USER  keepresnum = 1 
DOCKED: USER  
DOCKED: REMARK  24 active torsions:
DOCKED: REMARK  status: ('A' for Active; 'I' for Inactive)
DOCKED: REMARK    1  A    between atoms: C_1  and  O_7 
DOCKED: REMARK    2  A    between atoms: C_2  and  O_12 
DOCKED: REMARK    3  A    between atoms: C_3  and  O_17 
DOCKED: REMARK    4  A    between atoms: C_4  and  O_22 
DOCKED: REMARK    5  A    between atoms: C_5  and  O_27 
DOCKED: REMARK    6  A    between atoms: C_6  and  O_32 
DOCKED: REMARK    7  A    between atoms: O_7  and  P_8 
DOCKED: REMARK    8  A    between atoms: P_8  and  O_10 
DOCKED: REMARK    9  A    between atoms: P_8  and  O_11 
DOCKED: REMARK   10  A    between atoms: O_12  and  P_13 
DOCKED: REMARK   11  A    between atoms: P_13  and  O_15 
DOCKED: REMARK   12  A    between atoms: P_13  and  O_16 
DOCKED: REMARK   13  A    between atoms: O_17  and  P_18 
DOCKED: REMARK   14  A    between atoms: P_18  and  O_20 
DOCKED: REMARK   15  A    between atoms: P_18  and  O_21 
DOCKED: REMARK   16  A    between atoms: O_22  and  P_23 
DOCKED: REMARK   17  A    between atoms: P_23  and  O_25 
DOCKED: REMARK   18  A    between atoms: P_23  and  O_26 
DOCKED: REMARK   19  A    between atoms: O_27  and  P_28 
DOCKED: REMARK   20  A    between atoms: P_28  and  O_30 
DOCKED: REMARK   21  A    between atoms: P_28  and  O_31 
DOCKED: REMARK   22  A    between atoms: O_32  and  P_33 
DOCKED: REMARK   23  A    between atoms: P_33  and  O_35 
DOCKED: REMARK   24  A    between atoms: P_33  and  O_36 
DOCKED: USER                              x       y       z     vdW  Elec       q    Type
DOCKED: USER                           _______ _______ _______ _____ _____    ______ ____
DOCKED: ROOT
DOCKED: ATOM      1  C   UNL d   1      -8.204 -12.993   8.115 -0.13 -0.03    +0.194 C 
DOCKED: ATOM      2  C   UNL d   1      -9.197 -14.143   7.942 -0.07 -0.03    +0.194 C 
DOCKED: ATOM      3  C   UNL d   1      -8.958 -14.906   6.637 -0.08 -0.05    +0.194 C 
DOCKED: ATOM      4  C   UNL d   1      -7.511 -15.361   6.463 -0.08 -0.06    +0.194 C 
DOCKED: ATOM      5  C   UNL d   1      -6.481 -14.273   6.738 +0.02 -0.06    +0.194 C 
DOCKED: ATOM      6  C   UNL d   1      -6.755 -13.469   8.012 -0.16 -0.04    +0.194 C 
DOCKED: ENDROOT
DOCKED: BRANCH   1   7
DOCKED: ATOM      7  O   UNL d   1      -8.380 -12.445   9.424 -0.05 +0.03    -0.278 OA
DOCKED: BRANCH   7   8
DOCKED: ATOM      8  P   UNL d   1      -9.805 -11.833   9.806 -0.01 -0.04    +0.473 P 
DOCKED: ATOM      9  O   UNL d   1     -10.740 -11.650   8.662 -0.04 +0.03    -0.228 OA
DOCKED: BRANCH   8  10
DOCKED: ATOM     10  O   UNL d   1     -10.366 -12.824  10.922 -0.00 +0.02    -0.303 OA
DOCKED: ATOM     11  H   UNL d   1     -10.064 -13.732  10.734 +0.01 -0.02    +0.222 HD
DOCKED: ENDBRANCH   8  10
DOCKED: BRANCH   8  12
DOCKED: ATOM     12  O   UNL d   1      -9.480 -10.528  10.652 -0.02 +0.03    -0.303 OA
DOCKED: ATOM     13  H   UNL d   1     -10.018  -9.749  10.382 +0.02 -0.02    +0.222 HD
DOCKED: ENDBRANCH   8  12
DOCKED: ENDBRANCH   7   8
DOCKED: ENDBRANCH   1   7
DOCKED: BRANCH   2  14
DOCKED: ATOM     14  O   UNL d   1      -9.050 -15.055   9.037 -0.01 +0.03    -0.278 OA
DOCKED: BRANCH  14  15
DOCKED: ATOM     15  P   UNL d   1     -10.397 -15.695   9.622 +0.00 -0.04    +0.473 P 
DOCKED: ATOM     16  O   UNL d   1     -10.740 -17.077   9.162 -0.00 +0.02    -0.228 OA
DOCKED: BRANCH  15  17
DOCKED: ATOM     17  O   UNL d   1     -10.219 -15.596  11.202 +0.00 +0.02    -0.303 OA
DOCKED: ATOM     18  H   UNL d   1     -10.770 -14.880  11.574 +0.00 -0.01    +0.222 HD
DOCKED: ENDBRANCH  15  17
DOCKED: BRANCH  15  19
DOCKED: ATOM     19  O   UNL d   1     -11.509 -14.589   9.356 -0.00 +0.03    -0.303 OA
DOCKED: ATOM     20  H   UNL d   1     -11.113 -13.725   9.134 +0.01 -0.02    +0.222 HD
DOCKED: ENDBRANCH  15  19
DOCKED: ENDBRANCH  14  15
DOCKED: ENDBRANCH   2  14
DOCKED: BRANCH   6  21
DOCKED: ATOM     21  O   UNL d   1      -5.935 -12.305   7.948 -0.22 +0.07    -0.278 OA
DOCKED: BRANCH  21  22
DOCKED: ATOM     22  P   UNL d   1      -4.868 -12.023   9.101 -0.14 -0.07    +0.473 P 
DOCKED: ATOM     23  O   UNL d   1      -4.209 -13.192   9.751 -0.27 -0.01    -0.228 OA
DOCKED: BRANCH  22  24
DOCKED: ATOM     24  O   UNL d   1      -3.873 -11.010   8.383 -0.28 +0.11    -0.303 OA
DOCKED: ATOM     25  H   UNL d   1      -3.741 -11.316   7.450 -0.29 -0.13    +0.222 HD
DOCKED: ENDBRANCH  22  24
DOCKED: BRANCH  22  26
DOCKED: ATOM     26  O   UNL d   1      -5.689 -11.049  10.073 -0.11 +0.03    -0.303 OA
DOCKED: ATOM     27  H   UNL d   1      -6.612 -10.978   9.754 +0.07 -0.02    +0.222 HD
DOCKED: ENDBRANCH  22  26
DOCKED: ENDBRANCH  21  22
DOCKED: ENDBRANCH   6  21
DOCKED: BRANCH   3  28
DOCKED: ATOM     28  O   UNL d   1      -9.725 -16.102   6.694 -0.02 +0.04    -0.278 OA
DOCKED: BRANCH  28  29
DOCKED: ATOM     29  P   UNL d   1     -10.617 -16.545   5.451 -0.01 -0.07    +0.473 P 
DOCKED: ATOM     30  O   UNL d   1     -11.140 -15.437   4.610 -0.08 +0.04    -0.228 OA
DOCKED: BRANCH  29  31
DOCKED: ATOM     31  O   UNL d   1      -9.621 -17.582   4.748 -0.01 +0.05    -0.303 OA
DOCKED: ATOM     32  H   UNL d   1      -8.862 -17.082   4.369 +0.05 -0.04    +0.222 HD
DOCKED: ENDBRANCH  29  31
DOCKED: BRANCH  29  33
DOCKED: ATOM     33  O   UNL d   1     -11.693 -17.499   6.135 -0.00 +0.03    -0.303 OA
DOCKED: ATOM     34  H   UNL d   1     -11.440 -17.643   7.079 +0.00 -0.02    +0.222 HD
DOCKED: ENDBRANCH  29  33
DOCKED: ENDBRANCH  28  29
DOCKED: ENDBRANCH   3  28
DOCKED: BRANCH   5  35
DOCKED: ATOM     35  O   UNL d   1      -5.242 -14.953   6.929 -0.13 +0.04    -0.278 OA
DOCKED: BRANCH  35  36
DOCKED: ATOM     36  P   UNL d   1      -3.980 -14.596   6.020 -0.31 -0.03    +0.473 P 
DOCKED: ATOM     37  O   UNL d   1      -3.000 -15.707   5.813 -0.75 -0.06    -0.228 OA
DOCKED: BRANCH  36  38
DOCKED: ATOM     38  O   UNL d   1      -4.676 -14.080   4.685 -0.57 +0.00    -0.303 OA
DOCKED: ATOM     39  H   UNL d   1      -5.440 -14.660   4.476 +0.01 -0.06    +0.222 HD
DOCKED: ENDBRANCH  36  38
DOCKED: BRANCH  36  40
DOCKED: ATOM     40  O   UNL d   1      -3.433 -13.269   6.704 -0.23 +0.04    -0.303 OA
DOCKED: ATOM     41  H   UNL d   1      -4.131 -12.581   6.775 -0.43 -0.10    +0.222 HD
DOCKED: ENDBRANCH  36  40
DOCKED: ENDBRANCH  35  36
DOCKED: ENDBRANCH   5  35
DOCKED: BRANCH   4  42
DOCKED: ATOM     42  O   UNL d   1      -7.360 -15.746   5.092 -0.14 +0.11    -0.278 OA
DOCKED: BRANCH  42  43
DOCKED: ATOM     43  P   UNL d   1      -6.408 -16.976   4.737 -0.08 -0.23    +0.473 P 
DOCKED: ATOM     44  O   UNL d   1      -7.035 -18.169   4.104 -0.08 +0.09    -0.228 OA
DOCKED: BRANCH  43  45
DOCKED: ATOM     45  O   UNL d   1      -5.271 -16.294   3.857 -0.45 +0.21    -0.303 OA
DOCKED: ATOM     46  H   UNL d   1      -4.430 -16.223   4.352 -0.07 -0.22    +0.222 HD
DOCKED: ENDBRANCH  43  45
DOCKED: BRANCH  43  47
DOCKED: ATOM     47  O   UNL d   1      -5.634 -17.250   6.114 -0.07 +0.11    -0.303 OA
DOCKED: ATOM     48  H   UNL d   1      -4.722 -16.899   6.047 +0.01 -0.09    +0.222 HD
DOCKED: ENDBRANCH  43  47
DOCKED: ENDBRANCH  42  43
DOCKED: ENDBRANCH   4  42
DOCKED: TORSDOF 24
DOCKED: TER
DOCKED: ENDMDL
________________________________________________________________________________


	BEGINNING GENETIC ALGORITHM DOCKING 21 of 100
Run: 21 Seed: 297508453 223342282 [ Run 21 of 100 GA/GALS ]
Beginning LAMARCKIAN GENETIC ALGORITHM (LGA), with a maximum of 25000000 energy evaluations.

Final-Value: -17.707


	FINAL GENETIC ALGORITHM DOCKED STATE
	_______________________________________________


Detailed state:  trans 8.879 12.587 -13.511 quatxyzw 0.486182 -0.817004 -0.201844 0.235350 center 0.035 0.082 -0.065 ntor 24 33.7753 111.4654 78.5623 -144.5904 69.6301 -128.8352 -112.9598 -12.4666 152.0762 2.3372 65.6783 -141.7908 14.5520 -101.1615 -2.8900 140.9226 114.0071 -43.1141 -8.5499 -2.6839 129.9464 14.1398 -42.0052 164.4034
State:	  8.879  12.587 -13.511   0.500 -0.841 -0.208 152.776     33.78  111.47   78.56 -144.59   69.63 -128.84 -112.96  -12.47  152.08    2.34   65.68 -141.79   14.55 -101.16   -2.89  140.92  114.01  -43.11   -8.55   -2.68  129.95   14.14  -42.01  164.40

DOCKED: MODEL       21
DOCKED: USER    Run = 21
DOCKED: USER    DPF = D:/Protein_go_brrr/autodock/final/mut_K82N/IHP/dock.dpf
DOCKED: USER  
DOCKED: USER    Estimated Free Energy of Binding    =   +3.14 kcal/mol  [=(1)+(2)+(3)-(4)]
DOCKED: USER    
DOCKED: USER    (1) Final Intermolecular Energy     =   -4.02 kcal/mol
DOCKED: USER        vdW + Hbond + desolv Energy     =   -3.91 kcal/mol
DOCKED: USER        Electrostatic Energy            =   -0.10 kcal/mol
DOCKED: USER    (2) Final Total Internal Energy     =  -13.69 kcal/mol
DOCKED: USER    (3) Torsional Free Energy           =   +7.16 kcal/mol
DOCKED: USER    (4) Unbound System's Energy  [=(2)] =  -13.69 kcal/mol
DOCKED: USER    
DOCKED: USER    
DOCKED: USER    NEWDPF move IHP_ideal_opt.pdbqt
DOCKED: USER    NEWDPF about 0.035000 0.082000 -0.065000
DOCKED: USER    NEWDPF tran0 8.878649 12.586748 -13.511323
DOCKED: USER    NEWDPF quaternion0 0.486182 -0.817004 -0.201844 0.235350
DOCKED: USER    NEWDPF axisangle0 0.500233 -0.840617 -0.207678 152.775522
DOCKED: USER    NEWDPF quat0 0.500233 -0.840617 -0.207678 152.775522
DOCKED: USER    NEWDPF dihe0 33.78 111.47 78.56 -144.59 69.63 -128.84 -112.96 -12.47 152.08 2.34 65.68 -141.79 14.55 -101.16 -2.89 140.92 114.01 -43.11 -8.55 -2.68 129.95 14.14 -42.01 164.40 
DOCKED: USER  keepresnum = 1 
DOCKED: USER  
DOCKED: REMARK  24 active torsions:
DOCKED: REMARK  status: ('A' for Active; 'I' for Inactive)
DOCKED: REMARK    1  A    between atoms: C_1  and  O_7 
DOCKED: REMARK    2  A    between atoms: C_2  and  O_12 
DOCKED: REMARK    3  A    between atoms: C_3  and  O_17 
DOCKED: REMARK    4  A    between atoms: C_4  and  O_22 
DOCKED: REMARK    5  A    between atoms: C_5  and  O_27 
DOCKED: REMARK    6  A    between atoms: C_6  and  O_32 
DOCKED: REMARK    7  A    between atoms: O_7  and  P_8 
DOCKED: REMARK    8  A    between atoms: P_8  and  O_10 
DOCKED: REMARK    9  A    between atoms: P_8  and  O_11 
DOCKED: REMARK   10  A    between atoms: O_12  and  P_13 
DOCKED: REMARK   11  A    between atoms: P_13  and  O_15 
DOCKED: REMARK   12  A    between atoms: P_13  and  O_16 
DOCKED: REMARK   13  A    between atoms: O_17  and  P_18 
DOCKED: REMARK   14  A    between atoms: P_18  and  O_20 
DOCKED: REMARK   15  A    between atoms: P_18  and  O_21 
DOCKED: REMARK   16  A    between atoms: O_22  and  P_23 
DOCKED: REMARK   17  A    between atoms: P_23  and  O_25 
DOCKED: REMARK   18  A    between atoms: P_23  and  O_26 
DOCKED: REMARK   19  A    between atoms: O_27  and  P_28 
DOCKED: REMARK   20  A    between atoms: P_28  and  O_30 
DOCKED: REMARK   21  A    between atoms: P_28  and  O_31 
DOCKED: REMARK   22  A    between atoms: O_32  and  P_33 
DOCKED: REMARK   23  A    between atoms: P_33  and  O_35 
DOCKED: REMARK   24  A    between atoms: P_33  and  O_36 
DOCKED: USER                              x       y       z     vdW  Elec       q    Type
DOCKED: USER                           _______ _______ _______ _____ _____    ______ ____
DOCKED: ROOT
DOCKED: ATOM      1  C   UNL d   1       9.296  11.756 -14.968 -0.12 +0.05    +0.194 C 
DOCKED: ATOM      2  C   UNL d   1      10.461  12.065 -14.026 -0.10 +0.03    +0.194 C 
DOCKED: ATOM      3  C   UNL d   1      10.370  13.483 -13.458 -0.10 +0.01    +0.194 C 
DOCKED: ATOM      4  C   UNL d   1       9.017  13.790 -12.821 -0.13 +0.02    +0.194 C 
DOCKED: ATOM      5  C   UNL d   1       7.823  13.392 -13.679 -0.19 +0.03    +0.194 C 
DOCKED: ATOM      6  C   UNL d   1       7.942  11.998 -14.298 -0.22 +0.09    +0.194 C 
DOCKED: ENDROOT
DOCKED: BRANCH   1   7
DOCKED: ATOM      7  O   UNL d   1       9.358  10.371 -15.316 -0.09 -0.13    -0.278 OA
DOCKED: BRANCH   7   8
DOCKED: ATOM      8  P   UNL d   1       9.247   9.970 -16.858 +0.01 +0.18    +0.473 P 
DOCKED: ATOM      9  O   UNL d   1      10.382  10.420 -17.710 -0.01 -0.02    -0.228 OA
DOCKED: BRANCH   8  10
DOCKED: ATOM     10  O   UNL d   1       9.070   8.385 -16.834 -0.48 -0.17    -0.303 OA
DOCKED: ATOM     11  H   UNL d   1       9.767   7.970 -17.375 +0.02 +0.05    +0.222 HD
DOCKED: ENDBRANCH   8  10
DOCKED: BRANCH   8  12
DOCKED: ATOM     12  O   UNL d   1       7.804  10.459 -17.309 -0.07 -0.15    -0.303 OA
DOCKED: ATOM     13  H   UNL d   1       7.708  11.438 -17.297 +0.03 +0.08    +0.222 HD
DOCKED: ENDBRANCH   8  12
DOCKED: ENDBRANCH   7   8
DOCKED: ENDBRANCH   1   7
DOCKED: BRANCH   2  14
DOCKED: ATOM     14  O   UNL d   1      10.440  11.134 -12.936 -0.10 -0.05    -0.278 OA
DOCKED: BRANCH  14  15
DOCKED: ATOM     15  P   UNL d   1      11.811  10.369 -12.622 -0.13 +0.02    +0.473 P 
DOCKED: ATOM     16  O   UNL d   1      12.549   9.803 -13.795 -0.04 -0.00    -0.228 OA
DOCKED: BRANCH  15  17
DOCKED: ATOM     17  O   UNL d   1      12.670  11.433 -11.806 -0.13 -0.01    -0.303 OA
DOCKED: ATOM     18  H   UNL d   1      12.314  12.335 -11.921 +0.06 +0.01    +0.222 HD
DOCKED: ENDBRANCH  15  17
DOCKED: BRANCH  15  19
DOCKED: ATOM     19  O   UNL d   1      11.430   9.325 -11.484 -0.18 -0.00    -0.303 OA
DOCKED: ATOM     20  H   UNL d   1      12.043   8.566 -11.471 +0.05 -0.01    +0.222 HD
DOCKED: ENDBRANCH  15  19
DOCKED: ENDBRANCH  14  15
DOCKED: ENDBRANCH   2  14
DOCKED: BRANCH   6  21
DOCKED: ATOM     21  O   UNL d   1       6.950  11.913 -15.318 -0.69 -0.19    -0.278 OA
DOCKED: BRANCH  21  22
DOCKED: ATOM     22  P   UNL d   1       6.462  13.239 -16.060 -0.07 +0.08    +0.473 P 
DOCKED: ATOM     23  O   UNL d   1       7.410  14.386 -16.149 -0.02 -0.01    -0.228 OA
DOCKED: BRANCH  22  24
DOCKED: ATOM     24  O   UNL d   1       5.973  12.666 -17.462 -0.06 -0.04    -0.303 OA
DOCKED: ATOM     25  H   UNL d   1       6.059  11.679 -17.439 +0.03 +0.07    +0.222 HD
DOCKED: ENDBRANCH  22  24
DOCKED: BRANCH  22  26
DOCKED: ATOM     26  O   UNL d   1       5.070  13.532 -15.320 -0.13 -0.03    -0.303 OA
DOCKED: ATOM     27  H   UNL d   1       5.229  13.616 -14.357 +0.08 +0.03    +0.222 HD
DOCKED: ENDBRANCH  22  26
DOCKED: ENDBRANCH  21  22
DOCKED: ENDBRANCH   6  21
DOCKED: BRANCH   3  28
DOCKED: ATOM     28  O   UNL d   1      11.316  13.581 -12.400 -0.09 -0.01    -0.278 OA
DOCKED: BRANCH  28  29
DOCKED: ATOM     29  P   UNL d   1      12.423  14.726 -12.415 -0.01 -0.01    +0.473 P 
DOCKED: ATOM     30  O   UNL d   1      12.320  15.731 -11.326 -0.04 +0.01    -0.228 OA
DOCKED: BRANCH  29  31
DOCKED: ATOM     31  O   UNL d   1      13.749  13.832 -12.455 -0.01 +0.01    -0.303 OA
DOCKED: ATOM     32  H   UNL d   1      13.778  13.277 -11.642 +0.04 -0.00    +0.222 HD
DOCKED: ENDBRANCH  29  31
DOCKED: BRANCH  29  33
DOCKED: ATOM     33  O   UNL d   1      12.320  15.271 -13.908 -0.00 +0.01    -0.303 OA
DOCKED: ATOM     34  H   UNL d   1      11.368  15.409 -14.135 +0.02 -0.00    +0.222 HD
DOCKED: ENDBRANCH  29  33
DOCKED: ENDBRANCH  28  29
DOCKED: ENDBRANCH   3  28
DOCKED: BRANCH   5  35
DOCKED: ATOM     35  O   UNL d   1       6.703  13.365 -12.796 -0.24 -0.05    -0.278 OA
DOCKED: BRANCH  35  36
DOCKED: ATOM     36  P   UNL d   1       5.846  14.687 -12.545 -0.23 -0.01    +0.473 P 
DOCKED: ATOM     37  O   UNL d   1       4.455  14.466 -12.039 -0.40 +0.01    -0.228 OA
DOCKED: BRANCH  36  38
DOCKED: ATOM     38  O   UNL d   1       6.784  15.499 -11.547 -0.20 +0.03    -0.303 OA
DOCKED: ATOM     39  H   UNL d   1       7.471  15.971 -12.065 +0.08 -0.01    +0.222 HD
DOCKED: ENDBRANCH  36  38
DOCKED: BRANCH  36  40
DOCKED: ATOM     40  O   UNL d   1       5.997  15.459 -13.927 -0.06 +0.02    -0.303 OA
DOCKED: ATOM     41  H   UNL d   1       6.907  15.379 -14.291 +0.06 -0.00    +0.222 HD
DOCKED: ENDBRANCH  36  40
DOCKED: ENDBRANCH  35  36
DOCKED: ENDBRANCH   5  35
DOCKED: BRANCH   4  42
DOCKED: ATOM     42  O   UNL d   1       8.955  15.209 -12.645 -0.09 -0.00    -0.278 OA
DOCKED: BRANCH  42  43
DOCKED: ATOM     43  P   UNL d   1       9.228  16.155 -13.900 -0.00 -0.01    +0.473 P 
DOCKED: ATOM     44  O   UNL d   1       9.479  15.498 -15.214 -0.01 +0.00    -0.228 OA
DOCKED: BRANCH  43  45
DOCKED: ATOM     45  O   UNL d   1       7.968  17.126 -13.888 -0.01 +0.02    -0.303 OA
DOCKED: ATOM     46  H   UNL d   1       7.306  16.845 -13.224 +0.04 -0.02    +0.222 HD
DOCKED: ENDBRANCH  43  45
DOCKED: BRANCH  43  47
DOCKED: ATOM     47  O   UNL d   1      10.393  17.126 -13.380 -0.00 +0.01    -0.303 OA
DOCKED: ATOM     48  H   UNL d   1      11.007  16.618 -12.811 +0.02 -0.01    +0.222 HD
DOCKED: ENDBRANCH  43  47
DOCKED: ENDBRANCH  42  43
DOCKED: ENDBRANCH   4  42
DOCKED: TORSDOF 24
DOCKED: TER
DOCKED: ENDMDL
________________________________________________________________________________


	BEGINNING GENETIC ALGORITHM DOCKING 22 of 100
Run: 22 Seed: 829441879 1902548279 [ Run 22 of 100 GA/GALS ]
Beginning LAMARCKIAN GENETIC ALGORITHM (LGA), with a maximum of 25000000 energy evaluations.

Final-Value: -19.346


	FINAL GENETIC ALGORITHM DOCKED STATE
	_______________________________________________


Detailed state:  trans -7.326 -20.008 3.752 quatxyzw 0.496454 -0.630408 -0.518621 -0.295215 center 0.035 0.082 -0.065 ntor 24 -140.0409 -23.6310 141.0082 -20.9449 2.9159 -138.4586 0.7608 -96.6501 13.7799 92.3083 106.1346 158.8114 68.1504 73.6196 -57.2434 -81.1147 -44.7252 -145.0408 -27.3110 -39.3644 -4.8482 25.6414 166.0997 -12.3765
State:	 -7.326 -20.008   3.752   0.520 -0.660 -0.543 -145.659   -140.04  -23.63  141.01  -20.94    2.92 -138.46    0.76  -96.65   13.78   92.31  106.13  158.81   68.15   73.62  -57.24  -81.11  -44.73 -145.04  -27.31  -39.36   -4.85   25.64  166.10  -12.38

DOCKED: MODEL       22
DOCKED: USER    Run = 22
DOCKED: USER    DPF = D:/Protein_go_brrr/autodock/final/mut_K82N/IHP/dock.dpf
DOCKED: USER  
DOCKED: USER    Estimated Free Energy of Binding    =   +3.34 kcal/mol  [=(1)+(2)+(3)-(4)]
DOCKED: USER    
DOCKED: USER    (1) Final Intermolecular Energy     =   -3.82 kcal/mol
DOCKED: USER        vdW + Hbond + desolv Energy     =   -3.58 kcal/mol
DOCKED: USER        Electrostatic Energy            =   -0.24 kcal/mol
DOCKED: USER    (2) Final Total Internal Energy     =  -15.53 kcal/mol
DOCKED: USER    (3) Torsional Free Energy           =   +7.16 kcal/mol
DOCKED: USER    (4) Unbound System's Energy  [=(2)] =  -15.53 kcal/mol
DOCKED: USER    
DOCKED: USER    
DOCKED: USER    NEWDPF move IHP_ideal_opt.pdbqt
DOCKED: USER    NEWDPF about 0.035000 0.082000 -0.065000
DOCKED: USER    NEWDPF tran0 -7.326420 -20.008290 3.751829
DOCKED: USER    NEWDPF quaternion0 0.496454 -0.630408 -0.518621 -0.295215
DOCKED: USER    NEWDPF axisangle0 0.519612 -0.659815 -0.542814 -145.659127
DOCKED: USER    NEWDPF quat0 0.519612 -0.659815 -0.542814 -145.659127
DOCKED: USER    NEWDPF dihe0 -140.04 -23.63 141.01 -20.94 2.92 -138.46 0.76 -96.65 13.78 92.31 106.13 158.81 68.15 73.62 -57.24 -81.11 -44.73 -145.04 -27.31 -39.36 -4.85 25.64 166.10 -12.38 
DOCKED: USER  keepresnum = 1 
DOCKED: USER  
DOCKED: REMARK  24 active torsions:
DOCKED: REMARK  status: ('A' for Active; 'I' for Inactive)
DOCKED: REMARK    1  A    between atoms: C_1  and  O_7 
DOCKED: REMARK    2  A    between atoms: C_2  and  O_12 
DOCKED: REMARK    3  A    between atoms: C_3  and  O_17 
DOCKED: REMARK    4  A    between atoms: C_4  and  O_22 
DOCKED: REMARK    5  A    between atoms: C_5  and  O_27 
DOCKED: REMARK    6  A    between atoms: C_6  and  O_32 
DOCKED: REMARK    7  A    between atoms: O_7  and  P_8 
DOCKED: REMARK    8  A    between atoms: P_8  and  O_10 
DOCKED: REMARK    9  A    between atoms: P_8  and  O_11 
DOCKED: REMARK   10  A    between atoms: O_12  and  P_13 
DOCKED: REMARK   11  A    between atoms: P_13  and  O_15 
DOCKED: REMARK   12  A    between atoms: P_13  and  O_16 
DOCKED: REMARK   13  A    between atoms: O_17  and  P_18 
DOCKED: REMARK   14  A    between atoms: P_18  and  O_20 
DOCKED: REMARK   15  A    between atoms: P_18  and  O_21 
DOCKED: REMARK   16  A    between atoms: O_22  and  P_23 
DOCKED: REMARK   17  A    between atoms: P_23  and  O_25 
DOCKED: REMARK   18  A    between atoms: P_23  and  O_26 
DOCKED: REMARK   19  A    between atoms: O_27  and  P_28 
DOCKED: REMARK   20  A    between atoms: P_28  and  O_30 
DOCKED: REMARK   21  A    between atoms: P_28  and  O_31 
DOCKED: REMARK   22  A    between atoms: O_32  and  P_33 
DOCKED: REMARK   23  A    between atoms: P_33  and  O_35 
DOCKED: REMARK   24  A    between atoms: P_33  and  O_36 
DOCKED: USER                              x       y       z     vdW  Elec       q    Type
DOCKED: USER                           _______ _______ _______ _____ _____    ______ ____
DOCKED: ROOT
DOCKED: ATOM      1  C   UNL d   1      -8.161 -20.863   2.504 -0.01 -0.03    +0.194 C 
DOCKED: ATOM      2  C   UNL d   1      -7.161 -19.808   2.027 -0.06 -0.04    +0.194 C 
DOCKED: ATOM      3  C   UNL d   1      -7.261 -18.521   2.849 -0.09 -0.06    +0.194 C 
DOCKED: ATOM      4  C   UNL d   1      -7.173 -18.761   4.354 -0.05 -0.07    +0.194 C 
DOCKED: ATOM      5  C   UNL d   1      -8.071 -19.884   4.857 -0.00 -0.03    +0.194 C 
DOCKED: ATOM      6  C   UNL d   1      -8.018 -21.150   4.000 -0.00 -0.03    +0.194 C 
DOCKED: ENDROOT
DOCKED: BRANCH   1   7
DOCKED: ATOM      7  O   UNL d   1      -7.889 -22.082   1.809 -0.00 +0.03    -0.278 OA
DOCKED: BRANCH   7   8
DOCKED: ATOM      8  P   UNL d   1      -9.104 -23.080   1.521 +0.00 -0.03    +0.473 P 
DOCKED: ATOM      9  O   UNL d   1      -9.363 -23.359   0.083 +0.00 +0.01    -0.228 OA
DOCKED: BRANCH   8  10
DOCKED: ATOM     10  O   UNL d   1      -8.737 -24.387   2.359 +0.00 +0.02    -0.303 OA
DOCKED: ATOM     11  H   UNL d   1      -8.699 -24.167   3.309 +0.00 -0.01    +0.222 HD
DOCKED: ENDBRANCH   8  10
DOCKED: BRANCH   8  12
DOCKED: ATOM     12  O   UNL d   1     -10.327 -22.489   2.345 +0.00 +0.02    -0.303 OA
DOCKED: ATOM     13  H   UNL d   1     -10.210 -22.567   3.319 +0.00 -0.02    +0.222 HD
DOCKED: ENDBRANCH   8  12
DOCKED: ENDBRANCH   7   8
DOCKED: ENDBRANCH   1   7
DOCKED: BRANCH   2  14
DOCKED: ATOM     14  O   UNL d   1      -5.833 -20.331   2.157 -0.09 +0.10    -0.278 OA
DOCKED: BRANCH  14  15
DOCKED: ATOM     15  P   UNL d   1      -5.228 -21.072   0.873 -0.06 -0.09    +0.473 P 
DOCKED: ATOM     16  O   UNL d   1      -3.871 -20.630   0.420 -0.15 +0.05    -0.228 OA
DOCKED: BRANCH  15  17
DOCKED: ATOM     17  O   UNL d   1      -5.278 -22.617   1.257 -0.01 +0.04    -0.303 OA
DOCKED: ATOM     18  H   UNL d   1      -6.137 -22.853   1.657 +0.01 -0.03    +0.222 HD
DOCKED: ENDBRANCH  15  17
DOCKED: BRANCH  15  19
DOCKED: ATOM     19  O   UNL d   1      -6.380 -20.977  -0.220 -0.03 +0.03    -0.303 OA
DOCKED: ATOM     20  H   UNL d   1      -7.063 -21.660  -0.084 +0.03 -0.02    +0.222 HD
DOCKED: ENDBRANCH  15  19
DOCKED: ENDBRANCH  14  15
DOCKED: ENDBRANCH   2  14
DOCKED: BRANCH   6  21
DOCKED: ATOM     21  O   UNL d   1      -9.133 -21.953   4.381 +0.00 +0.03    -0.278 OA
DOCKED: BRANCH  21  22
DOCKED: ATOM     22  P   UNL d   1      -8.899 -23.276   5.240 +0.00 -0.03    +0.473 P 
DOCKED: ATOM     23  O   UNL d   1      -7.587 -23.974   5.117 +0.00 +0.02    -0.228 OA
DOCKED: BRANCH  22  24
DOCKED: ATOM     24  O   UNL d   1      -9.253 -22.777   6.709 +0.00 +0.02    -0.303 OA
DOCKED: ATOM     25  H   UNL d   1      -8.603 -22.073   6.961 +0.00 -0.02    +0.222 HD
DOCKED: ENDBRANCH  22  24
DOCKED: BRANCH  22  26
DOCKED: ATOM     26  O   UNL d   1     -10.194 -24.142   4.864 +0.00 +0.02    -0.303 OA
DOCKED: ATOM     27  H   UNL d   1     -10.314 -24.136   3.892 +0.00 -0.01    +0.222 HD
DOCKED: ENDBRANCH  22  26
DOCKED: ENDBRANCH  21  22
DOCKED: ENDBRANCH   6  21
DOCKED: BRANCH   3  28
DOCKED: ATOM     28  O   UNL d   1      -6.131 -17.720   2.528 -0.18 +0.13    -0.278 OA
DOCKED: BRANCH  28  29
DOCKED: ATOM     29  P   UNL d   1      -6.299 -16.157   2.274 -0.27 -0.07    +0.473 P 
DOCKED: ATOM     30  O   UNL d   1      -6.176 -15.721   0.859 -0.53 -0.02    -0.228 OA
DOCKED: BRANCH  29  31
DOCKED: ATOM     31  O   UNL d   1      -7.708 -15.908   2.990 -0.23 +0.07    -0.303 OA
DOCKED: ATOM     32  H   UNL d   1      -7.664 -16.270   3.905 +0.07 -0.07    +0.222 HD
DOCKED: ENDBRANCH  29  31
DOCKED: BRANCH  29  33
DOCKED: ATOM     33  O   UNL d   1      -5.263 -15.537   3.311 -0.97 +0.07    -0.303 OA
DOCKED: ATOM     34  H   UNL d   1      -5.279 -16.073   4.141 +0.04 -0.13    +0.222 HD
DOCKED: ENDBRANCH  29  33
DOCKED: ENDBRANCH  28  29
DOCKED: ENDBRANCH   3  28
DOCKED: BRANCH   5  35
DOCKED: ATOM     35  O   UNL d   1      -7.571 -20.230   6.148 +0.00 +0.04    -0.278 OA
DOCKED: BRANCH  35  36
DOCKED: ATOM     36  P   UNL d   1      -6.099 -20.822   6.308 +0.00 -0.08    +0.473 P 
DOCKED: ATOM     37  O   UNL d   1      -5.327 -20.984   5.038 -0.05 +0.08    -0.228 OA
DOCKED: BRANCH  36  38
DOCKED: ATOM     38  O   UNL d   1      -5.449 -19.803   7.345 -0.01 +0.03    -0.303 OA
DOCKED: ATOM     39  H   UNL d   1      -5.518 -18.892   6.986 +0.03 -0.04    +0.222 HD
DOCKED: ENDBRANCH  36  38
DOCKED: BRANCH  36  40
DOCKED: ATOM     40  O   UNL d   1      -6.353 -22.135   7.170 +0.00 +0.03    -0.303 OA
DOCKED: ATOM     41  H   UNL d   1      -7.064 -22.693   6.783 +0.00 -0.02    +0.222 HD
DOCKED: ENDBRANCH  36  40
DOCKED: ENDBRANCH  35  36
DOCKED: ENDBRANCH   5  35
DOCKED: BRANCH   4  42
DOCKED: ATOM     42  O   UNL d   1      -7.610 -17.555   4.991 -0.04 +0.08    -0.278 OA
DOCKED: BRANCH  42  43
DOCKED: ATOM     43  P   UNL d   1      -6.634 -16.831   6.024 -0.03 -0.13    +0.473 P 
DOCKED: ATOM     44  O   UNL d   1      -6.871 -17.068   7.475 -0.02 +0.03    -0.228 OA
DOCKED: BRANCH  43  45
DOCKED: ATOM     45  O   UNL d   1      -5.194 -17.282   5.518 -0.07 +0.21    -0.303 OA
DOCKED: ATOM     46  H   UNL d   1      -5.174 -17.390   4.546 -0.41 -0.32    +0.222 HD
DOCKED: ENDBRANCH  43  45
DOCKED: BRANCH  43  47
DOCKED: ATOM     47  O   UNL d   1      -6.678 -15.299   5.557 -0.13 +0.12    -0.303 OA
DOCKED: ATOM     48  H   UNL d   1      -6.961 -15.255   4.620 -0.27 -0.11    +0.222 HD
DOCKED: ENDBRANCH  43  47
DOCKED: ENDBRANCH  42  43
DOCKED: ENDBRANCH   4  42
DOCKED: TORSDOF 24
DOCKED: TER
DOCKED: ENDMDL
________________________________________________________________________________


	BEGINNING GENETIC ALGORITHM DOCKING 23 of 100
Run: 23 Seed: 1752993814 986787900 [ Run 23 of 100 GA/GALS ]
Beginning LAMARCKIAN GENETIC ALGORITHM (LGA), with a maximum of 25000000 energy evaluations.

Final-Value: -18.393


	FINAL GENETIC ALGORITHM DOCKED STATE
	_______________________________________________


Detailed state:  trans 16.340 -6.059 9.739 quatxyzw -0.282155 0.108865 0.834722 0.460191 center 0.035 0.082 -0.065 ntor 24 95.7133 119.9661 144.7696 26.0311 123.4484 149.0440 -6.0392 -120.7943 29.6843 21.0004 99.2789 148.3172 -74.4366 28.7401 38.9992 -79.2913 146.9508 -141.9746 -148.4229 -20.7796 169.5387 25.2120 -8.0426 -10.4974
State:	 16.340  -6.059   9.739  -0.318  0.123  0.940 125.201     95.71  119.97  144.77   26.03  123.45  149.04   -6.04 -120.79   29.68   21.00   99.28  148.32  -74.44   28.74   39.00  -79.29  146.95 -141.97 -148.42  -20.78  169.54   25.21   -8.04  -10.50

DOCKED: MODEL       23
DOCKED: USER    Run = 23
DOCKED: USER    DPF = D:/Protein_go_brrr/autodock/final/mut_K82N/IHP/dock.dpf
DOCKED: USER  
DOCKED: USER    Estimated Free Energy of Binding    =   +4.44 kcal/mol  [=(1)+(2)+(3)-(4)]
DOCKED: USER    
DOCKED: USER    (1) Final Intermolecular Energy     =   -2.71 kcal/mol
DOCKED: USER        vdW + Hbond + desolv Energy     =   -2.75 kcal/mol
DOCKED: USER        Electrostatic Energy            =   +0.03 kcal/mol
DOCKED: USER    (2) Final Total Internal Energy     =  -15.68 kcal/mol
DOCKED: USER    (3) Torsional Free Energy           =   +7.16 kcal/mol
DOCKED: USER    (4) Unbound System's Energy  [=(2)] =  -15.68 kcal/mol
DOCKED: USER    
DOCKED: USER    
DOCKED: USER    NEWDPF move IHP_ideal_opt.pdbqt
DOCKED: USER    NEWDPF about 0.035000 0.082000 -0.065000
DOCKED: USER    NEWDPF tran0 16.340004 -6.059366 9.739150
DOCKED: USER    NEWDPF quaternion0 -0.282155 0.108865 0.834722 0.460191
DOCKED: USER    NEWDPF axisangle0 -0.317807 0.122620 0.940193 125.201102
DOCKED: USER    NEWDPF quat0 -0.317807 0.122620 0.940193 125.201102
DOCKED: USER    NEWDPF dihe0 95.71 119.97 144.77 26.03 123.45 149.04 -6.04 -120.79 29.68 21.00 99.28 148.32 -74.44 28.74 39.00 -79.29 146.95 -141.97 -148.42 -20.78 169.54 25.21 -8.04 -10.50 
DOCKED: USER  keepresnum = 1 
DOCKED: USER  
DOCKED: REMARK  24 active torsions:
DOCKED: REMARK  status: ('A' for Active; 'I' for Inactive)
DOCKED: REMARK    1  A    between atoms: C_1  and  O_7 
DOCKED: REMARK    2  A    between atoms: C_2  and  O_12 
DOCKED: REMARK    3  A    between atoms: C_3  and  O_17 
DOCKED: REMARK    4  A    between atoms: C_4  and  O_22 
DOCKED: REMARK    5  A    between atoms: C_5  and  O_27 
DOCKED: REMARK    6  A    between atoms: C_6  and  O_32 
DOCKED: REMARK    7  A    between atoms: O_7  and  P_8 
DOCKED: REMARK    8  A    between atoms: P_8  and  O_10 
DOCKED: REMARK    9  A    between atoms: P_8  and  O_11 
DOCKED: REMARK   10  A    between atoms: O_12  and  P_13 
DOCKED: REMARK   11  A    between atoms: P_13  and  O_15 
DOCKED: REMARK   12  A    between atoms: P_13  and  O_16 
DOCKED: REMARK   13  A    between atoms: O_17  and  P_18 
DOCKED: REMARK   14  A    between atoms: P_18  and  O_20 
DOCKED: REMARK   15  A    between atoms: P_18  and  O_21 
DOCKED: REMARK   16  A    between atoms: O_22  and  P_23 
DOCKED: REMARK   17  A    between atoms: P_23  and  O_25 
DOCKED: REMARK   18  A    between atoms: P_23  and  O_26 
DOCKED: REMARK   19  A    between atoms: O_27  and  P_28 
DOCKED: REMARK   20  A    between atoms: P_28  and  O_30 
DOCKED: REMARK   21  A    between atoms: P_28  and  O_31 
DOCKED: REMARK   22  A    between atoms: O_32  and  P_33 
DOCKED: REMARK   23  A    between atoms: P_33  and  O_35 
DOCKED: REMARK   24  A    between atoms: P_33  and  O_36 
DOCKED: USER                              x       y       z     vdW  Elec       q    Type
DOCKED: USER                           _______ _______ _______ _____ _____    ______ ____
DOCKED: ROOT
DOCKED: ATOM      1  C   UNL d   1      14.738  -6.670   9.529 -0.24 -0.00    +0.194 C 
DOCKED: ATOM      2  C   UNL d   1      14.901  -5.161   9.335 -0.25 -0.00    +0.194 C 
DOCKED: ATOM      3  C   UNL d   1      15.800  -4.546  10.409 -0.19 -0.00    +0.194 C 
DOCKED: ATOM      4  C   UNL d   1      17.143  -5.259  10.550 -0.08 +0.00    +0.194 C 
DOCKED: ATOM      5  C   UNL d   1      17.035  -6.776  10.630 -0.09 +0.00    +0.194 C 
DOCKED: ATOM      6  C   UNL d   1      16.088  -7.385   9.595 -0.11 +0.00    +0.194 C 
DOCKED: ENDROOT
DOCKED: BRANCH   1   7
DOCKED: ATOM      7  O   UNL d   1      14.034  -7.191   8.399 -0.10 -0.01    -0.278 OA
DOCKED: BRANCH   7   8
DOCKED: ATOM      8  P   UNL d   1      14.881  -7.663   7.129 -0.04 +0.02    +0.473 P 
DOCKED: ATOM      9  O   UNL d   1      16.233  -7.052   7.009 -0.03 -0.00    -0.228 OA
DOCKED: BRANCH   8  10
DOCKED: ATOM     10  O   UNL d   1      14.920  -9.252   7.259 -0.05 -0.01    -0.303 OA
DOCKED: ATOM     11  H   UNL d   1      15.379  -9.502   8.082 +0.04 +0.01    +0.222 HD
DOCKED: ENDBRANCH   8  10
DOCKED: BRANCH   8  12
DOCKED: ATOM     12  O   UNL d   1      13.913  -7.454   5.886 -0.11 -0.02    -0.303 OA
DOCKED: ATOM     13  H   UNL d   1      13.812  -6.510   5.631 +0.08 +0.02    +0.222 HD
DOCKED: ENDBRANCH   8  12
DOCKED: ENDBRANCH   7   8
DOCKED: ENDBRANCH   1   7
DOCKED: BRANCH   2  14
DOCKED: ATOM     14  O   UNL d   1      15.490  -4.916   8.052 -0.07 -0.00    -0.278 OA
DOCKED: BRANCH  14  15
DOCKED: ATOM     15  P   UNL d   1      14.549  -4.231   6.952 -0.13 +0.03    +0.473 P 
DOCKED: ATOM     16  O   UNL d   1      14.447  -2.739   6.989 -0.10 -0.01    -0.228 OA
DOCKED: BRANCH  15  17
DOCKED: ATOM     17  O   UNL d   1      15.112  -4.777   5.565 -0.04 -0.01    -0.303 OA
DOCKED: ATOM     18  H   UNL d   1      15.221  -5.747   5.588 +0.05 +0.01    +0.222 HD
DOCKED: ENDBRANCH  15  17
DOCKED: BRANCH  15  19
DOCKED: ATOM     19  O   UNL d   1      13.169  -5.015   7.066 -0.30 -0.04    -0.303 OA
DOCKED: ATOM     20  H   UNL d   1      13.305  -5.952   7.298 +0.10 +0.02    +0.222 HD
DOCKED: ENDBRANCH  15  19
DOCKED: ENDBRANCH  14  15
DOCKED: ENDBRANCH   2  14
DOCKED: BRANCH   6  21
DOCKED: ATOM     21  O   UNL d   1      15.831  -8.725  10.010 -0.07 -0.00    -0.278 OA
DOCKED: BRANCH  21  22
DOCKED: ATOM     22  P   UNL d   1      15.004  -8.995  11.347 -0.19 +0.00    +0.473 P 
DOCKED: ATOM     23  O   UNL d   1      13.552  -8.653  11.360 -0.25 +0.02    -0.228 OA
DOCKED: BRANCH  22  24
DOCKED: ATOM     24  O   UNL d   1      15.331 -10.527  11.628 -0.07 -0.00    -0.303 OA
DOCKED: ATOM     25  H   UNL d   1      16.315 -10.625  11.698 +0.04 +0.00    +0.222 HD
DOCKED: ENDBRANCH  22  24
DOCKED: BRANCH  22  26
DOCKED: ATOM     26  O   UNL d   1      15.910  -8.257  12.445 -0.17 -0.02    -0.303 OA
DOCKED: ATOM     27  H   UNL d   1      16.834  -8.215  12.124 +0.05 +0.01    +0.222 HD
DOCKED: ENDBRANCH  22  26
DOCKED: ENDBRANCH  21  22
DOCKED: ENDBRANCH   6  21
DOCKED: BRANCH   3  28
DOCKED: ATOM     28  O   UNL d   1      16.117  -3.223   9.997 -0.10 +0.01    -0.278 OA
DOCKED: BRANCH  28  29
DOCKED: ATOM     29  P   UNL d   1      16.061  -2.020  11.040 -0.10 -0.04    +0.473 P 
DOCKED: ATOM     30  O   UNL d   1      14.896  -1.109  10.905 -0.06 +0.06    -0.228 OA
DOCKED: BRANCH  29  31
DOCKED: ATOM     31  O   UNL d   1      16.192  -2.834  12.411 -0.12 -0.00    -0.303 OA
DOCKED: ATOM     32  H   UNL d   1      16.914  -3.496  12.315 +0.04 +0.01    +0.222 HD
DOCKED: ENDBRANCH  29  31
DOCKED: BRANCH  29  33
DOCKED: ATOM     33  O   UNL d   1      17.505  -1.370  10.877 -0.02 +0.01    -0.303 OA
DOCKED: ATOM     34  H   UNL d   1      18.189  -2.039  11.126 +0.02 -0.00    +0.222 HD
DOCKED: ENDBRANCH  29  33
DOCKED: ENDBRANCH  28  29
DOCKED: ENDBRANCH   3  28
DOCKED: BRANCH   5  35
DOCKED: ATOM     35  O   UNL d   1      18.342  -7.273  10.347 -0.01 -0.00    -0.278 OA
DOCKED: BRANCH  35  36
DOCKED: ATOM     36  P   UNL d   1      19.094  -8.205  11.400 -0.00 -0.00    +0.473 P 
DOCKED: ATOM     37  O   UNL d   1      20.543  -8.450  11.126 -0.00 +0.00    -0.228 OA
DOCKED: BRANCH  36  38
DOCKED: ATOM     38  O   UNL d   1      18.806  -7.447  12.771 -0.02 -0.00    -0.303 OA
DOCKED: ATOM     39  H   UNL d   1      18.883  -6.480  12.625 +0.02 +0.00    +0.222 HD
DOCKED: ENDBRANCH  36  38
DOCKED: BRANCH  36  40
DOCKED: ATOM     40  O   UNL d   1      18.146  -9.481  11.462 -0.01 +0.00    -0.303 OA
DOCKED: ATOM     41  H   UNL d   1      17.238  -9.276  11.146 +0.03 +0.00    +0.222 HD
DOCKED: ENDBRANCH  36  40
DOCKED: ENDBRANCH  35  36
DOCKED: ENDBRANCH   5  35
DOCKED: BRANCH   4  42
DOCKED: ATOM     42  O   UNL d   1      17.723  -4.812  11.780 -0.07 -0.01    -0.278 OA
DOCKED: BRANCH  42  43
DOCKED: ATOM     43  P   UNL d   1      19.152  -4.104  11.746 -0.02 +0.00    +0.473 P 
DOCKED: ATOM     44  O   UNL d   1      20.345  -4.952  12.025 -0.01 +0.00    -0.228 OA
DOCKED: BRANCH  43  45
DOCKED: ATOM     45  O   UNL d   1      19.166  -3.412  10.314 -0.00 +0.00    -0.303 OA
DOCKED: ATOM     46  H   UNL d   1      18.260  -3.215  10.003 +0.02 -0.00    +0.222 HD
DOCKED: ENDBRANCH  43  45
DOCKED: BRANCH  43  47
DOCKED: ATOM     47  O   UNL d   1      18.959  -2.842  12.716 -0.02 -0.00    -0.303 OA
DOCKED: ATOM     48  H   UNL d   1      18.036  -2.522  12.649 +0.03 +0.00    +0.222 HD
DOCKED: ENDBRANCH  43  47
DOCKED: ENDBRANCH  42  43
DOCKED: ENDBRANCH   4  42
DOCKED: TORSDOF 24
DOCKED: TER
DOCKED: ENDMDL
________________________________________________________________________________


	BEGINNING GENETIC ALGORITHM DOCKING 24 of 100
Run: 24 Seed: 23743846 1474058669 [ Run 24 of 100 GA/GALS ]
Beginning LAMARCKIAN GENETIC ALGORITHM (LGA), with a maximum of 25000000 energy evaluations.

Final-Value: -18.484


	FINAL GENETIC ALGORITHM DOCKED STATE
	_______________________________________________


Detailed state:  trans 12.599 5.731 -11.038 quatxyzw 0.656839 0.346089 -0.254791 -0.619570 center 0.035 0.082 -0.065 ntor 24 119.0840 90.3885 133.0297 135.4054 -3.5059 160.2286 -14.7349 -166.8580 82.6343 146.0405 106.6676 -67.5876 -63.1973 78.1315 -137.1710 139.3392 65.2615 3.3310 29.8224 -18.1270 -48.5269 -31.6857 38.2046 -78.4743
State:	 12.599   5.731 -11.038   0.837  0.441 -0.325 -103.431    119.08   90.39  133.03  135.41   -3.51  160.23  -14.73 -166.86   82.63  146.04  106.67  -67.59  -63.20   78.13 -137.17  139.34   65.26    3.33   29.82  -18.13  -48.53  -31.69   38.20  -78.47

DOCKED: MODEL       24
DOCKED: USER    Run = 24
DOCKED: USER    DPF = D:/Protein_go_brrr/autodock/final/mut_K82N/IHP/dock.dpf
DOCKED: USER  
DOCKED: USER    Estimated Free Energy of Binding    =   +2.56 kcal/mol  [=(1)+(2)+(3)-(4)]
DOCKED: USER    
DOCKED: USER    (1) Final Intermolecular Energy     =   -4.60 kcal/mol
DOCKED: USER        vdW + Hbond + desolv Energy     =   -4.09 kcal/mol
DOCKED: USER        Electrostatic Energy            =   -0.51 kcal/mol
DOCKED: USER    (2) Final Total Internal Energy     =  -13.89 kcal/mol
DOCKED: USER    (3) Torsional Free Energy           =   +7.16 kcal/mol
DOCKED: USER    (4) Unbound System's Energy  [=(2)] =  -13.89 kcal/mol
DOCKED: USER    
DOCKED: USER    
DOCKED: USER    NEWDPF move IHP_ideal_opt.pdbqt
DOCKED: USER    NEWDPF about 0.035000 0.082000 -0.065000
DOCKED: USER    NEWDPF tran0 12.598996 5.730881 -11.037583
DOCKED: USER    NEWDPF quaternion0 0.656839 0.346089 -0.254791 -0.619570
DOCKED: USER    NEWDPF axisangle0 0.836800 0.440910 -0.324599 -103.430522
DOCKED: USER    NEWDPF quat0 0.836800 0.440910 -0.324599 -103.430522
DOCKED: USER    NEWDPF dihe0 119.08 90.39 133.03 135.41 -3.51 160.23 -14.73 -166.86 82.63 146.04 106.67 -67.59 -63.20 78.13 -137.17 139.34 65.26 3.33 29.82 -18.13 -48.53 -31.69 38.20 -78.47 
DOCKED: USER  keepresnum = 1 
DOCKED: USER  
DOCKED: REMARK  24 active torsions:
DOCKED: REMARK  status: ('A' for Active; 'I' for Inactive)
DOCKED: REMARK    1  A    between atoms: C_1  and  O_7 
DOCKED: REMARK    2  A    between atoms: C_2  and  O_12 
DOCKED: REMARK    3  A    between atoms: C_3  and  O_17 
DOCKED: REMARK    4  A    between atoms: C_4  and  O_22 
DOCKED: REMARK    5  A    between atoms: C_5  and  O_27 
DOCKED: REMARK    6  A    between atoms: C_6  and  O_32 
DOCKED: REMARK    7  A    between atoms: O_7  and  P_8 
DOCKED: REMARK    8  A    between atoms: P_8  and  O_10 
DOCKED: REMARK    9  A    between atoms: P_8  and  O_11 
DOCKED: REMARK   10  A    between atoms: O_12  and  P_13 
DOCKED: REMARK   11  A    between atoms: P_13  and  O_15 
DOCKED: REMARK   12  A    between atoms: P_13  and  O_16 
DOCKED: REMARK   13  A    between atoms: O_17  and  P_18 
DOCKED: REMARK   14  A    between atoms: P_18  and  O_20 
DOCKED: REMARK   15  A    between atoms: P_18  and  O_21 
DOCKED: REMARK   16  A    between atoms: O_22  and  P_23 
DOCKED: REMARK   17  A    between atoms: P_23  and  O_25 
DOCKED: REMARK   18  A    between atoms: P_23  and  O_26 
DOCKED: REMARK   19  A    between atoms: O_27  and  P_28 
DOCKED: REMARK   20  A    between atoms: P_28  and  O_30 
DOCKED: REMARK   21  A    between atoms: P_28  and  O_31 
DOCKED: REMARK   22  A    between atoms: O_32  and  P_33 
DOCKED: REMARK   23  A    between atoms: P_33  and  O_35 
DOCKED: REMARK   24  A    between atoms: P_33  and  O_36 
DOCKED: USER                              x       y       z     vdW  Elec       q    Type
DOCKED: USER                           _______ _______ _______ _____ _____    ______ ____
DOCKED: ROOT
DOCKED: ATOM      1  C   UNL d   1      12.780   5.115 -12.642 -0.03 -0.05    +0.194 C 
DOCKED: ATOM      2  C   UNL d   1      11.338   5.301 -12.163 -0.12 -0.06    +0.194 C 
DOCKED: ATOM      3  C   UNL d   1      11.152   4.816 -10.724 -0.22 -0.07    +0.194 C 
DOCKED: ATOM      4  C   UNL d   1      12.165   5.414  -9.751 -0.21 -0.05    +0.194 C 
DOCKED: ATOM      5  C   UNL d   1      13.606   5.353 -10.241 -0.09 -0.04    +0.194 C 
DOCKED: ATOM      6  C   UNL d   1      13.783   5.781 -11.699 -0.04 -0.03    +0.194 C 
DOCKED: ENDROOT
DOCKED: BRANCH   1   7
DOCKED: ATOM      7  O   UNL d   1      12.911   5.745 -13.918 -0.01 +0.05    -0.278 OA
DOCKED: BRANCH   7   8
DOCKED: ATOM      8  P   UNL d   1      12.681   4.861 -15.228 +0.02 -0.10    +0.473 P 
DOCKED: ATOM      9  O   UNL d   1      12.612   3.393 -14.995 -0.01 +0.07    -0.228 OA
DOCKED: BRANCH   8  10
DOCKED: ATOM     10  O   UNL d   1      11.347   5.459 -15.868 -0.00 +0.06    -0.303 OA
DOCKED: ATOM     11  H   UNL d   1      10.717   5.684 -15.159 +0.04 -0.05    +0.222 HD
DOCKED: ENDBRANCH   8  10
DOCKED: BRANCH   8  12
DOCKED: ATOM     12  O   UNL d   1      13.790   5.349 -16.256 +0.00 +0.04    -0.303 OA
DOCKED: ATOM     13  H   UNL d   1      14.680   5.443 -15.847 +0.00 -0.03    +0.222 HD
DOCKED: ENDBRANCH   8  12
DOCKED: ENDBRANCH   7   8
DOCKED: ENDBRANCH   1   7
DOCKED: BRANCH   2  14
DOCKED: ATOM     14  O   UNL d   1      11.003   6.693 -12.223 -0.14 +0.05    -0.278 OA
DOCKED: BRANCH  14  15
DOCKED: ATOM     15  P   UNL d   1       9.884   7.115 -13.288 -0.15 +0.02    +0.473 P 
DOCKED: ATOM     16  O   UNL d   1       8.808   8.035 -12.803 -0.21 -0.09    -0.228 OA
DOCKED: BRANCH  15  17
DOCKED: ATOM     17  O   UNL d   1      10.716   7.724 -14.503 -0.06 -0.03    -0.303 OA
DOCKED: ATOM     18  H   UNL d   1      11.547   7.230 -14.642 +0.04 -0.01    +0.222 HD
DOCKED: ENDBRANCH  15  17
DOCKED: BRANCH  15  19
DOCKED: ATOM     19  O   UNL d   1       9.383   5.737 -13.903 -0.18 +0.10    -0.303 OA
DOCKED: ATOM     20  H   UNL d   1       8.797   5.259 -13.287 -0.10 -0.17    +0.222 HD
DOCKED: ENDBRANCH  15  19
DOCKED: ENDBRANCH  14  15
DOCKED: ENDBRANCH   2  14
DOCKED: BRANCH   6  21
DOCKED: ATOM     21  O   UNL d   1      15.082   5.350 -12.100 -0.01 +0.04    -0.278 OA
DOCKED: BRANCH  21  22
DOCKED: ATOM     22  P   UNL d   1      15.875   6.162 -13.221 +0.00 -0.05    +0.473 P 
DOCKED: ATOM     23  O   UNL d   1      16.005   5.551 -14.575 +0.00 +0.02    -0.228 OA
DOCKED: BRANCH  22  24
DOCKED: ATOM     24  O   UNL d   1      15.130   7.568 -13.192 -0.01 +0.02    -0.303 OA
DOCKED: ATOM     25  H   UNL d   1      14.219   7.442 -13.561 +0.02 -0.02    +0.222 HD
DOCKED: ENDBRANCH  22  24
DOCKED: BRANCH  22  26
DOCKED: ATOM     26  O   UNL d   1      17.249   6.500 -12.467 -0.00 +0.02    -0.303 OA
DOCKED: ATOM     27  H   UNL d   1      17.141   6.329 -11.509 +0.00 -0.02    +0.222 HD
DOCKED: ENDBRANCH  22  26
DOCKED: ENDBRANCH  21  22
DOCKED: ENDBRANCH   6  21
DOCKED: BRANCH   3  28
DOCKED: ATOM     28  O   UNL d   1       9.882   5.276 -10.278 -0.40 +0.08    -0.278 OA
DOCKED: BRANCH  28  29
DOCKED: ATOM     29  P   UNL d   1       8.552   4.518 -10.717 -0.31 -0.25    +0.473 P 
DOCKED: ATOM     30  O   UNL d   1       7.813   3.837  -9.623 -0.31 +0.11    -0.228 OA
DOCKED: BRANCH  29  31
DOCKED: ATOM     31  O   UNL d   1       7.793   5.703 -11.478 -0.57 +0.06    -0.303 OA
DOCKED: ATOM     32  H   UNL d   1       8.460   6.243 -11.962 +0.13 -0.03    +0.222 HD
DOCKED: ENDBRANCH  29  31
DOCKED: BRANCH  29  33
DOCKED: ATOM     33  O   UNL d   1       9.068   3.604 -11.914 -0.00 +0.43    -0.303 OA
DOCKED: ATOM     34  H   UNL d   1       8.726   3.969 -12.767 -0.07 -0.55    +0.222 HD
DOCKED: ENDBRANCH  29  33
DOCKED: ENDBRANCH  28  29
DOCKED: ENDBRANCH   3  28
DOCKED: BRANCH   5  35
DOCKED: ATOM     35  O   UNL d   1      14.326   6.287  -9.439 -0.08 +0.03    -0.278 OA
DOCKED: BRANCH  35  36
DOCKED: ATOM     36  P   UNL d   1      15.921   6.315  -9.474 -0.01 -0.04    +0.473 P 
DOCKED: ATOM     37  O   UNL d   1      16.530   7.509 -10.137 -0.02 +0.02    -0.228 OA
DOCKED: BRANCH  36  38
DOCKED: ATOM     38  O   UNL d   1      16.283   6.168  -7.930 -0.01 +0.02    -0.303 OA
DOCKED: ATOM     39  H   UNL d   1      15.478   5.904  -7.435 +0.04 -0.02    +0.222 HD
DOCKED: ENDBRANCH  36  38
DOCKED: BRANCH  36  40
DOCKED: ATOM     40  O   UNL d   1      16.273   4.891 -10.087 -0.00 +0.03    -0.303 OA
DOCKED: ATOM     41  H   UNL d   1      16.551   4.958 -11.028 +0.01 -0.02    +0.222 HD
DOCKED: ENDBRANCH  36  40
DOCKED: ENDBRANCH  35  36
DOCKED: ENDBRANCH   5  35
DOCKED: BRANCH   4  42
DOCKED: ATOM     42  O   UNL d   1      12.094   4.638  -8.551 -0.24 +0.09    -0.278 OA
DOCKED: BRANCH  42  43
DOCKED: ATOM     43  P   UNL d   1      13.195   4.867  -7.419 -0.17 -0.09    +0.473 P 
DOCKED: ATOM     44  O   UNL d   1      13.472   6.270  -7.004 -0.21 +0.02    -0.228 OA
DOCKED: BRANCH  43  45
DOCKED: ATOM     45  O   UNL d   1      12.684   3.928  -6.240 -0.14 +0.07    -0.303 OA
DOCKED: ATOM     46  H   UNL d   1      12.250   3.123  -6.586 -0.26 -0.15    +0.222 HD
DOCKED: ENDBRANCH  43  45
DOCKED: BRANCH  43  47
DOCKED: ATOM     47  O   UNL d   1      14.459   4.046  -7.965 -0.05 +0.06    -0.303 OA
DOCKED: ATOM     48  H   UNL d   1      15.168   4.673  -8.216 +0.04 -0.03    +0.222 HD
DOCKED: ENDBRANCH  43  47
DOCKED: ENDBRANCH  42  43
DOCKED: ENDBRANCH   4  42
DOCKED: TORSDOF 24
DOCKED: TER
DOCKED: ENDMDL
________________________________________________________________________________


	BEGINNING GENETIC ALGORITHM DOCKING 25 of 100
Run: 25 Seed: 1144469511 1235156132 [ Run 25 of 100 GA/GALS ]
Beginning LAMARCKIAN GENETIC ALGORITHM (LGA), with a maximum of 25000000 energy evaluations.

Final-Value: -17.772


	FINAL GENETIC ALGORITHM DOCKED STATE
	_______________________________________________


Detailed state:  trans -12.858 11.343 -5.025 quatxyzw -0.309077 0.558927 0.127150 -0.758884 center 0.035 0.082 -0.065 ntor 24 125.8091 110.9930 68.2775 35.2833 -2.4765 -169.7121 -146.5657 -25.5830 140.3642 2.7667 138.9762 -143.3533 -45.1252 167.1061 175.7293 66.5302 -179.8921 -8.3412 48.3783 -14.1989 176.3623 152.7666 14.7636 135.3000
State:	-12.858  11.343  -5.025  -0.475  0.858  0.195 -81.268    125.81  110.99   68.28   35.28   -2.48 -169.71 -146.57  -25.58  140.36    2.77  138.98 -143.35  -45.13  167.11  175.73   66.53 -179.89   -8.34   48.38  -14.20  176.36  152.77   14.76  135.30

DOCKED: MODEL       25
DOCKED: USER    Run = 25
DOCKED: USER    DPF = D:/Protein_go_brrr/autodock/final/mut_K82N/IHP/dock.dpf
DOCKED: USER  
DOCKED: USER    Estimated Free Energy of Binding    =   +2.84 kcal/mol  [=(1)+(2)+(3)-(4)]
DOCKED: USER    
DOCKED: USER    (1) Final Intermolecular Energy     =   -4.32 kcal/mol
DOCKED: USER        vdW + Hbond + desolv Energy     =   -4.07 kcal/mol
DOCKED: USER        Electrostatic Energy            =   -0.25 kcal/mol
DOCKED: USER    (2) Final Total Internal Energy     =  -13.46 kcal/mol
DOCKED: USER    (3) Torsional Free Energy           =   +7.16 kcal/mol
DOCKED: USER    (4) Unbound System's Energy  [=(2)] =  -13.46 kcal/mol
DOCKED: USER    
DOCKED: USER    
DOCKED: USER    NEWDPF move IHP_ideal_opt.pdbqt
DOCKED: USER    NEWDPF about 0.035000 0.082000 -0.065000
DOCKED: USER    NEWDPF tran0 -12.858476 11.342674 -5.025449
DOCKED: USER    NEWDPF quaternion0 -0.309077 0.558927 0.127150 -0.758884
DOCKED: USER    NEWDPF axisangle0 -0.474608 0.858269 0.195247 -81.268147
DOCKED: USER    NEWDPF quat0 -0.474608 0.858269 0.195247 -81.268147
DOCKED: USER    NEWDPF dihe0 125.81 110.99 68.28 35.28 -2.48 -169.71 -146.57 -25.58 140.36 2.77 138.98 -143.35 -45.13 167.11 175.73 66.53 -179.89 -8.34 48.38 -14.20 176.36 152.77 14.76 135.30 
DOCKED: USER  keepresnum = 1 
DOCKED: USER  
DOCKED: REMARK  24 active torsions:
DOCKED: REMARK  status: ('A' for Active; 'I' for Inactive)
DOCKED: REMARK    1  A    between atoms: C_1  and  O_7 
DOCKED: REMARK    2  A    between atoms: C_2  and  O_12 
DOCKED: REMARK    3  A    between atoms: C_3  and  O_17 
DOCKED: REMARK    4  A    between atoms: C_4  and  O_22 
DOCKED: REMARK    5  A    between atoms: C_5  and  O_27 
DOCKED: REMARK    6  A    between atoms: C_6  and  O_32 
DOCKED: REMARK    7  A    between atoms: O_7  and  P_8 
DOCKED: REMARK    8  A    between atoms: P_8  and  O_10 
DOCKED: REMARK    9  A    between atoms: P_8  and  O_11 
DOCKED: REMARK   10  A    between atoms: O_12  and  P_13 
DOCKED: REMARK   11  A    between atoms: P_13  and  O_15 
DOCKED: REMARK   12  A    between atoms: P_13  and  O_16 
DOCKED: REMARK   13  A    between atoms: O_17  and  P_18 
DOCKED: REMARK   14  A    between atoms: P_18  and  O_20 
DOCKED: REMARK   15  A    between atoms: P_18  and  O_21 
DOCKED: REMARK   16  A    between atoms: O_22  and  P_23 
DOCKED: REMARK   17  A    between atoms: P_23  and  O_25 
DOCKED: REMARK   18  A    between atoms: P_23  and  O_26 
DOCKED: REMARK   19  A    between atoms: O_27  and  P_28 
DOCKED: REMARK   20  A    between atoms: P_28  and  O_30 
DOCKED: REMARK   21  A    between atoms: P_28  and  O_31 
DOCKED: REMARK   22  A    between atoms: O_32  and  P_33 
DOCKED: REMARK   23  A    between atoms: P_33  and  O_35 
DOCKED: REMARK   24  A    between atoms: P_33  and  O_36 
DOCKED: USER                              x       y       z     vdW  Elec       q    Type
DOCKED: USER                           _______ _______ _______ _____ _____    ______ ____
DOCKED: ROOT
DOCKED: ATOM      1  C   UNL d   1     -11.342  10.945  -5.751 -0.11 +0.05    +0.194 C 
DOCKED: ATOM      2  C   UNL d   1     -11.621  10.286  -4.399 -0.13 +0.05    +0.194 C 
DOCKED: ATOM      3  C   UNL d   1     -12.232  11.273  -3.403 -0.13 +0.04    +0.194 C 
DOCKED: ATOM      4  C   UNL d   1     -13.456  12.002  -3.952 -0.05 +0.04    +0.194 C 
DOCKED: ATOM      5  C   UNL d   1     -13.259  12.578  -5.349 -0.05 +0.05    +0.194 C 
DOCKED: ATOM      6  C   UNL d   1     -12.591  11.611  -6.329 -0.04 +0.05    +0.194 C 
DOCKED: ENDROOT
DOCKED: BRANCH   1   7
DOCKED: ATOM      7  O   UNL d   1     -10.938   9.927  -6.669 -0.06 -0.08    -0.278 OA
DOCKED: BRANCH   7   8
DOCKED: ATOM      8  P   UNL d   1      -9.472   9.311  -6.523 -0.12 +0.16    +0.473 P 
DOCKED: ATOM      9  O   UNL d   1      -8.713   9.766  -5.326 -0.45 -0.07    -0.228 OA
DOCKED: BRANCH   8  10
DOCKED: ATOM     10  O   UNL d   1      -9.710   7.733  -6.553 -0.51 -0.20    -0.303 OA
DOCKED: ATOM     11  H   UNL d   1     -10.574   7.526  -6.151 +0.06 +0.18    +0.222 HD
DOCKED: ENDBRANCH   8  10
DOCKED: BRANCH   8  12
DOCKED: ATOM     12  O   UNL d   1      -8.774   9.568  -7.927 -0.15 -0.06    -0.303 OA
DOCKED: ATOM     13  H   UNL d   1      -8.634  10.523  -8.119 +0.10 +0.04    +0.222 HD
DOCKED: ENDBRANCH   8  12
DOCKED: ENDBRANCH   7   8
DOCKED: ENDBRANCH   1   7
DOCKED: BRANCH   2  14
DOCKED: ATOM     14  O   UNL d   1     -12.538   9.201  -4.589 -0.04 -0.09    -0.278 OA
DOCKED: BRANCH  14  15
DOCKED: ATOM     15  P   UNL d   1     -12.002   7.738  -4.224 -0.11 +0.28    +0.473 P 
DOCKED: ATOM     16  O   UNL d   1     -12.348   6.637  -5.178 -0.50 -0.30    -0.228 OA
DOCKED: BRANCH  15  17
DOCKED: ATOM     17  O   UNL d   1     -10.430   7.933  -4.052 -0.50 -0.17    -0.303 OA
DOCKED: ATOM     18  H   UNL d   1     -10.107   8.680  -4.591 +0.10 +0.11    +0.222 HD
DOCKED: ENDBRANCH  15  17
DOCKED: BRANCH  15  19
DOCKED: ATOM     19  O   UNL d   1     -12.462   7.511  -2.718 -0.12 -0.12    -0.303 OA
DOCKED: ATOM     20  H   UNL d   1     -12.591   8.356  -2.249 +0.08 +0.06    +0.222 HD
DOCKED: ENDBRANCH  15  19
DOCKED: ENDBRANCH  14  15
DOCKED: ENDBRANCH   2  14
DOCKED: BRANCH   6  21
DOCKED: ATOM     21  O   UNL d   1     -12.171  12.386  -7.450 -0.04 -0.09    -0.278 OA
DOCKED: BRANCH  21  22
DOCKED: ATOM     22  P   UNL d   1     -10.904  13.346  -7.320 -0.18 +0.26    +0.473 P 
DOCKED: ATOM     23  O   UNL d   1     -10.822  14.532  -8.220 -0.49 -0.24    -0.228 OA
DOCKED: BRANCH  22  24
DOCKED: ATOM     24  O   UNL d   1     -10.913  13.687  -5.765 -0.08 -0.19    -0.303 OA
DOCKED: ATOM     25  H   UNL d   1     -11.705  14.253  -5.578 +0.06 +0.15    +0.222 HD
DOCKED: ENDBRANCH  22  24
DOCKED: BRANCH  22  26
DOCKED: ATOM     26  O   UNL d   1      -9.692  12.301  -7.422 -0.21 -0.10    -0.303 OA
DOCKED: ATOM     27  H   UNL d   1     -10.027  11.455  -7.785 +0.09 +0.06    +0.222 HD
DOCKED: ENDBRANCH  22  26
DOCKED: ENDBRANCH  21  22
DOCKED: ENDBRANCH   6  21
DOCKED: BRANCH   3  28
DOCKED: ATOM     28  O   UNL d   1     -12.708  10.522  -2.293 -0.09 -0.05    -0.278 OA
DOCKED: BRANCH  28  29
DOCKED: ATOM     29  P   UNL d   1     -14.240  10.095  -2.208 -0.01 +0.08    +0.473 P 
DOCKED: ATOM     30  O   UNL d   1     -14.853   9.647  -3.485 -0.01 -0.04    -0.228 OA
DOCKED: BRANCH  29  31
DOCKED: ATOM     31  O   UNL d   1     -14.166   9.023  -1.022 -0.04 -0.05    -0.303 OA
DOCKED: ATOM     32  H   UNL d   1     -14.077   8.124  -1.417 +0.05 +0.04    +0.222 HD
DOCKED: ENDBRANCH  29  31
DOCKED: BRANCH  29  33
DOCKED: ATOM     33  O   UNL d   1     -14.900  11.359  -1.498 -0.02 -0.04    -0.303 OA
DOCKED: ATOM     34  H   UNL d   1     -14.420  12.175  -1.784 +0.03 +0.03    +0.222 HD
DOCKED: ENDBRANCH  29  33
DOCKED: ENDBRANCH  28  29
DOCKED: ENDBRANCH   3  28
DOCKED: BRANCH   5  35
DOCKED: ATOM     35  O   UNL d   1     -14.569  12.842  -5.847 -0.01 -0.06    -0.278 OA
DOCKED: BRANCH  35  36
DOCKED: ATOM     36  P   UNL d   1     -14.833  14.098  -6.793 -0.00 +0.11    +0.473 P 
DOCKED: ATOM     37  O   UNL d   1     -16.052  14.903  -6.473 -0.00 -0.04    -0.228 OA
DOCKED: BRANCH  36  38
DOCKED: ATOM     38  O   UNL d   1     -13.464  14.901  -6.658 -0.06 -0.15    -0.303 OA
DOCKED: ATOM     39  H   UNL d   1     -12.752  14.401  -7.114 +0.04 +0.13    +0.222 HD
DOCKED: ENDBRANCH  36  38
DOCKED: BRANCH  36  40
DOCKED: ATOM     40  O   UNL d   1     -14.756  13.452  -8.245 -0.00 -0.06    -0.303 OA
DOCKED: ATOM     41  H   UNL d   1     -14.048  12.773  -8.304 +0.02 +0.05    +0.222 HD
DOCKED: ENDBRANCH  36  40
DOCKED: ENDBRANCH  35  36
DOCKED: ENDBRANCH   5  35
DOCKED: BRANCH   4  42
DOCKED: ATOM     42  O   UNL d   1     -13.711  13.104  -3.075 -0.04 -0.05    -0.278 OA
DOCKED: BRANCH  42  43
DOCKED: ATOM     43  P   UNL d   1     -12.509  13.691  -2.204 -0.14 +0.10    +0.473 P 
DOCKED: ATOM     44  O   UNL d   1     -11.163  13.745  -2.840 -0.18 -0.08    -0.228 OA
DOCKED: BRANCH  43  45
DOCKED: ATOM     45  O   UNL d   1     -13.070  15.107  -1.745 -0.09 -0.06    -0.303 OA
DOCKED: ATOM     46  H   UNL d   1     -13.836  15.011  -1.144 +0.05 +0.03    +0.222 HD
DOCKED: ENDBRANCH  43  45
DOCKED: BRANCH  43  47
DOCKED: ATOM     47  O   UNL d   1     -12.598  12.848  -0.843 -0.06 -0.05    -0.303 OA
DOCKED: ATOM     48  H   UNL d   1     -12.876  11.932  -1.049 +0.06 +0.04    +0.222 HD
DOCKED: ENDBRANCH  43  47
DOCKED: ENDBRANCH  42  43
DOCKED: ENDBRANCH   4  42
DOCKED: TORSDOF 24
DOCKED: TER
DOCKED: ENDMDL
________________________________________________________________________________


	BEGINNING GENETIC ALGORITHM DOCKING 26 of 100
Run: 26 Seed: 190291701 266292251 [ Run 26 of 100 GA/GALS ]
Beginning LAMARCKIAN GENETIC ALGORITHM (LGA), with a maximum of 25000000 energy evaluations.

Final-Value: -17.736


	FINAL GENETIC ALGORITHM DOCKED STATE
	_______________________________________________


Detailed state:  trans 3.093 -1.545 -20.681 quatxyzw -0.089524 -0.018904 -0.815431 0.571577 center 0.035 0.082 -0.065 ntor 24 109.0190 140.5131 -30.6636 91.4063 23.8414 179.9211 47.8508 -107.3914 -9.2947 153.9975 5.9581 -167.6163 -88.1178 -9.6292 -51.1392 -98.7874 -85.0984 -148.7240 -133.2659 -21.2313 -174.3556 43.7412 61.0331 -36.5588
State:	  3.093  -1.545 -20.681  -0.109 -0.023 -0.994 110.279    109.02  140.51  -30.66   91.41   23.84  179.92   47.85 -107.39   -9.29  154.00    5.96 -167.62  -88.12   -9.63  -51.14  -98.79  -85.10 -148.72 -133.27  -21.23 -174.36   43.74   61.03  -36.56

DOCKED: MODEL       26
DOCKED: USER    Run = 26
DOCKED: USER    DPF = D:/Protein_go_brrr/autodock/final/mut_K82N/IHP/dock.dpf
DOCKED: USER  
DOCKED: USER    Estimated Free Energy of Binding    =   +1.93 kcal/mol  [=(1)+(2)+(3)-(4)]
DOCKED: USER    
DOCKED: USER    (1) Final Intermolecular Energy     =   -5.23 kcal/mol
DOCKED: USER        vdW + Hbond + desolv Energy     =   -5.15 kcal/mol
DOCKED: USER        Electrostatic Energy            =   -0.08 kcal/mol
DOCKED: USER    (2) Final Total Internal Energy     =  -12.51 kcal/mol
DOCKED: USER    (3) Torsional Free Energy           =   +7.16 kcal/mol
DOCKED: USER    (4) Unbound System's Energy  [=(2)] =  -12.51 kcal/mol
DOCKED: USER    
DOCKED: USER    
DOCKED: USER    NEWDPF move IHP_ideal_opt.pdbqt
DOCKED: USER    NEWDPF about 0.035000 0.082000 -0.065000
DOCKED: USER    NEWDPF tran0 3.092740 -1.545480 -20.680531
DOCKED: USER    NEWDPF quaternion0 -0.089524 -0.018904 -0.815431 0.571577
DOCKED: USER    NEWDPF axisangle0 -0.109103 -0.023038 -0.993763 110.279424
DOCKED: USER    NEWDPF quat0 -0.109103 -0.023038 -0.993763 110.279424
DOCKED: USER    NEWDPF dihe0 109.02 140.51 -30.66 91.41 23.84 179.92 47.85 -107.39 -9.29 154.00 5.96 -167.62 -88.12 -9.63 -51.14 -98.79 -85.10 -148.72 -133.27 -21.23 -174.36 43.74 61.03 -36.56 
DOCKED: USER  keepresnum = 1 
DOCKED: USER  
DOCKED: REMARK  24 active torsions:
DOCKED: REMARK  status: ('A' for Active; 'I' for Inactive)
DOCKED: REMARK    1  A    between atoms: C_1  and  O_7 
DOCKED: REMARK    2  A    between atoms: C_2  and  O_12 
DOCKED: REMARK    3  A    between atoms: C_3  and  O_17 
DOCKED: REMARK    4  A    between atoms: C_4  and  O_22 
DOCKED: REMARK    5  A    between atoms: C_5  and  O_27 
DOCKED: REMARK    6  A    between atoms: C_6  and  O_32 
DOCKED: REMARK    7  A    between atoms: O_7  and  P_8 
DOCKED: REMARK    8  A    between atoms: P_8  and  O_10 
DOCKED: REMARK    9  A    between atoms: P_8  and  O_11 
DOCKED: REMARK   10  A    between atoms: O_12  and  P_13 
DOCKED: REMARK   11  A    between atoms: P_13  and  O_15 
DOCKED: REMARK   12  A    between atoms: P_13  and  O_16 
DOCKED: REMARK   13  A    between atoms: O_17  and  P_18 
DOCKED: REMARK   14  A    between atoms: P_18  and  O_20 
DOCKED: REMARK   15  A    between atoms: P_18  and  O_21 
DOCKED: REMARK   16  A    between atoms: O_22  and  P_23 
DOCKED: REMARK   17  A    between atoms: P_23  and  O_25 
DOCKED: REMARK   18  A    between atoms: P_23  and  O_26 
DOCKED: REMARK   19  A    between atoms: O_27  and  P_28 
DOCKED: REMARK   20  A    between atoms: P_28  and  O_30 
DOCKED: REMARK   21  A    between atoms: P_28  and  O_31 
DOCKED: REMARK   22  A    between atoms: O_32  and  P_33 
DOCKED: REMARK   23  A    between atoms: P_33  and  O_35 
DOCKED: REMARK   24  A    between atoms: P_33  and  O_36 
DOCKED: USER                              x       y       z     vdW  Elec       q    Type
DOCKED: USER                           _______ _______ _______ _____ _____    ______ ____
DOCKED: ROOT
DOCKED: ATOM      1  C   UNL d   1       3.636  -0.123 -19.865 -0.06 -0.05    +0.194 C 
DOCKED: ATOM      2  C   UNL d   1       4.733  -0.986 -20.490 -0.03 -0.05    +0.194 C 
DOCKED: ATOM      3  C   UNL d   1       4.496  -2.476 -20.237 -0.06 -0.06    +0.194 C 
DOCKED: ATOM      4  C   UNL d   1       3.098  -2.939 -20.639 -0.09 -0.07    +0.194 C 
DOCKED: ATOM      5  C   UNL d   1       1.976  -2.041 -20.133 -0.13 -0.07    +0.194 C 
DOCKED: ATOM      6  C   UNL d   1       2.242  -0.547 -20.331 -0.09 -0.05    +0.194 C 
DOCKED: ENDROOT
DOCKED: BRANCH   1   7
DOCKED: ATOM      7  O   UNL d   1       3.834   1.228 -20.290 -0.02 +0.06    -0.278 OA
DOCKED: BRANCH   7   8
DOCKED: ATOM      8  P   UNL d   1       2.870   1.818 -21.418 -0.02 -0.09    +0.473 P 
DOCKED: ATOM      9  O   UNL d   1       2.472   0.852 -22.477 -0.02 +0.05    -0.228 OA
DOCKED: BRANCH   8  10
DOCKED: ATOM     10  O   UNL d   1       1.629   2.400 -20.601 -0.14 +0.06    -0.303 OA
DOCKED: ATOM     11  H   UNL d   1       1.315   1.731 -19.963 +0.07 -0.05    +0.222 HD
DOCKED: ENDBRANCH   8  10
DOCKED: BRANCH   8  12
DOCKED: ATOM     12  O   UNL d   1       3.587   3.144 -21.922 -0.01 +0.04    -0.303 OA
DOCKED: ATOM     13  H   UNL d   1       4.138   3.002 -22.724 +0.01 -0.03    +0.222 HD
DOCKED: ENDBRANCH   8  12
DOCKED: ENDBRANCH   7   8
DOCKED: ENDBRANCH   1   7
DOCKED: BRANCH   2  14
DOCKED: ATOM     14  O   UNL d   1       4.755  -0.761 -21.906 -0.00 +0.06    -0.278 OA
DOCKED: BRANCH  14  15
DOCKED: ATOM     15  P   UNL d   1       6.023   0.025 -22.486 +0.00 -0.08    +0.473 P 
DOCKED: ATOM     16  O   UNL d   1       7.368  -0.414 -21.996 -0.00 +0.04    -0.228 OA
DOCKED: BRANCH  15  17
DOCKED: ATOM     17  O   UNL d   1       5.870  -0.106 -24.067 +0.00 +0.05    -0.303 OA
DOCKED: ATOM     18  H   UNL d   1       6.681  -0.470 -24.470 +0.00 -0.03    +0.222 HD
DOCKED: ENDBRANCH  15  17
DOCKED: BRANCH  15  19
DOCKED: ATOM     19  O   UNL d   1       5.677   1.560 -22.258 +0.00 +0.05    -0.303 OA
DOCKED: ATOM     20  H   UNL d   1       5.132   1.692 -21.460 +0.01 -0.04    +0.222 HD
DOCKED: ENDBRANCH  15  19
DOCKED: ENDBRANCH  14  15
DOCKED: ENDBRANCH   2  14
DOCKED: BRANCH   6  21
DOCKED: ATOM     21  O   UNL d   1       1.300   0.151 -19.519 -0.24 +0.08    -0.278 OA
DOCKED: BRANCH  21  22
DOCKED: ATOM     22  P   UNL d   1       1.604   0.378 -17.970 -0.30 -0.14    +0.473 P 
DOCKED: ATOM     23  O   UNL d   1       2.593  -0.521 -17.307 -0.26 +0.08    -0.228 OA
DOCKED: BRANCH  22  24
DOCKED: ATOM     24  O   UNL d   1       1.979   1.924 -17.935 -0.23 +0.08    -0.303 OA
DOCKED: ATOM     25  H   UNL d   1       2.559   2.119 -18.715 +0.09 -0.05    +0.222 HD
DOCKED: ENDBRANCH  22  24
DOCKED: BRANCH  22  26
DOCKED: ATOM     26  O   UNL d   1       0.128   0.381 -17.345 -0.57 +0.11    -0.303 OA
DOCKED: ATOM     27  H   UNL d   1      -0.518   0.155 -18.045 -0.42 -0.12    +0.222 HD
DOCKED: ENDBRANCH  22  26
DOCKED: ENDBRANCH  21  22
DOCKED: ENDBRANCH   6  21
DOCKED: BRANCH   3  28
DOCKED: ATOM     28  O   UNL d   1       5.388  -3.200 -21.073 -0.02 +0.08    -0.278 OA
DOCKED: BRANCH  28  29
DOCKED: ATOM     29  P   UNL d   1       5.856  -4.669 -20.670 -0.03 -0.17    +0.473 P 
DOCKED: ATOM     30  O   UNL d   1       7.325  -4.875 -20.594 -0.02 +0.06    -0.228 OA
DOCKED: BRANCH  29  31
DOCKED: ATOM     31  O   UNL d   1       5.023  -4.865 -19.317 -0.07 +0.18    -0.303 OA
DOCKED: ATOM     32  H   UNL d   1       4.220  -5.399 -19.517 -0.44 -0.22    +0.222 HD
DOCKED: ENDBRANCH  29  31
DOCKED: BRANCH  29  33
DOCKED: ATOM     33  O   UNL d   1       5.055  -5.571 -21.709 -0.04 +0.14    -0.303 OA
DOCKED: ATOM     34  H   UNL d   1       4.108  -5.288 -21.718 +0.04 -0.12    +0.222 HD
DOCKED: ENDBRANCH  29  33
DOCKED: ENDBRANCH  28  29
DOCKED: ENDBRANCH   3  28
DOCKED: BRANCH   5  35
DOCKED: ATOM     35  O   UNL d   1       0.832  -2.371 -20.917 -0.07 +0.12    -0.278 OA
DOCKED: BRANCH  35  36
DOCKED: ATOM     36  P   UNL d   1      -0.469  -1.449 -20.869 -0.13 -0.22    +0.473 P 
DOCKED: ATOM     37  O   UNL d   1      -0.848  -0.938 -19.515 -0.71 +0.13    -0.228 OA
DOCKED: BRANCH  36  38
DOCKED: ATOM     38  O   UNL d   1      -0.100  -0.310 -21.919 -0.09 +0.10    -0.303 OA
DOCKED: ATOM     39  H   UNL d   1       0.500   0.339 -21.491 +0.06 -0.06    +0.222 HD
DOCKED: ENDBRANCH  36  38
DOCKED: BRANCH  36  40
DOCKED: ATOM     40  O   UNL d   1      -1.544  -2.338 -21.632 -0.10 +0.18    -0.303 OA
DOCKED: ATOM     41  H   UNL d   1      -2.254  -2.650 -21.028 +0.07 -0.20    +0.222 HD
DOCKED: ENDBRANCH  36  40
DOCKED: ENDBRANCH  35  36
DOCKED: ENDBRANCH   5  35
DOCKED: BRANCH   4  42
DOCKED: ATOM     42  O   UNL d   1       2.902  -4.229 -20.050 -0.15 +0.17    -0.278 OA
DOCKED: BRANCH  42  43
DOCKED: ATOM     43  P   UNL d   1       2.000  -5.298 -20.816 -0.11 -0.37    +0.473 P 
DOCKED: ATOM     44  O   UNL d   1       0.615  -5.515 -20.312 -0.29 +0.21    -0.228 OA
DOCKED: BRANCH  43  45
DOCKED: ATOM     45  O   UNL d   1       2.072  -4.799 -22.325 -0.03 +0.16    -0.303 OA
DOCKED: ATOM     46  H   UNL d   1       1.621  -3.938 -22.439 +0.04 -0.10    +0.222 HD
DOCKED: ENDBRANCH  43  45
DOCKED: BRANCH  43  47
DOCKED: ATOM     47  O   UNL d   1       2.933  -6.601 -20.859 -0.20 +0.35    -0.303 OA
DOCKED: ATOM     48  H   UNL d   1       3.702  -6.467 -20.267 -0.38 -0.24    +0.222 HD
DOCKED: ENDBRANCH  43  47
DOCKED: ENDBRANCH  42  43
DOCKED: ENDBRANCH   4  42
DOCKED: TORSDOF 24
DOCKED: TER
DOCKED: ENDMDL
________________________________________________________________________________


	BEGINNING GENETIC ALGORITHM DOCKING 27 of 100
Run: 27 Seed: 1608776485 1796532849 [ Run 27 of 100 GA/GALS ]
Beginning LAMARCKIAN GENETIC ALGORITHM (LGA), with a maximum of 25000000 energy evaluations.

Final-Value: -18.201


	FINAL GENETIC ALGORITHM DOCKED STATE
	_______________________________________________


Detailed state:  trans -11.132 9.256 -6.455 quatxyzw 0.395402 0.260343 0.846400 -0.243895 center 0.035 0.082 -0.065 ntor 24 90.4180 11.7963 -160.0680 94.4867 113.5589 90.9670 -86.4377 -112.5624 87.8472 122.0318 42.4385 147.7837 -62.5586 43.1629 -176.5183 58.8002 59.7248 180.0000 74.9529 16.3671 5.8339 -7.6870 180.0000 10.6000
State:	-11.132   9.256  -6.455   0.408  0.268  0.873 -151.767     90.42   11.80 -160.07   94.49  113.56   90.97  -86.44 -112.56   87.85  122.03   42.44  147.78  -62.56   43.16 -176.52   58.80   59.72  180.00   74.95   16.37    5.83   -7.69  180.00   10.60

DOCKED: MODEL       27
DOCKED: USER    Run = 27
DOCKED: USER    DPF = D:/Protein_go_brrr/autodock/final/mut_K82N/IHP/dock.dpf
DOCKED: USER  
DOCKED: USER    Estimated Free Energy of Binding    =   +3.11 kcal/mol  [=(1)+(2)+(3)-(4)]
DOCKED: USER    
DOCKED: USER    (1) Final Intermolecular Energy     =   -4.05 kcal/mol
DOCKED: USER        vdW + Hbond + desolv Energy     =   -3.72 kcal/mol
DOCKED: USER        Electrostatic Energy            =   -0.33 kcal/mol
DOCKED: USER    (2) Final Total Internal Energy     =  -14.15 kcal/mol
DOCKED: USER    (3) Torsional Free Energy           =   +7.16 kcal/mol
DOCKED: USER    (4) Unbound System's Energy  [=(2)] =  -14.15 kcal/mol
DOCKED: USER    
DOCKED: USER    
DOCKED: USER    NEWDPF move IHP_ideal_opt.pdbqt
DOCKED: USER    NEWDPF about 0.035000 0.082000 -0.065000
DOCKED: USER    NEWDPF tran0 -11.131563 9.256118 -6.455268
DOCKED: USER    NEWDPF quaternion0 0.395402 0.260343 0.846400 -0.243895
DOCKED: USER    NEWDPF axisangle0 0.407715 0.268450 0.872756 -151.766945
DOCKED: USER    NEWDPF quat0 0.407715 0.268450 0.872756 -151.766945
DOCKED: USER    NEWDPF dihe0 90.42 11.80 -160.07 94.49 113.56 90.97 -86.44 -112.56 87.85 122.03 42.44 147.78 -62.56 43.16 -176.52 58.80 59.72 180.00 74.95 16.37 5.83 -7.69 180.00 10.60 
DOCKED: USER  keepresnum = 1 
DOCKED: USER  
DOCKED: REMARK  24 active torsions:
DOCKED: REMARK  status: ('A' for Active; 'I' for Inactive)
DOCKED: REMARK    1  A    between atoms: C_1  and  O_7 
DOCKED: REMARK    2  A    between atoms: C_2  and  O_12 
DOCKED: REMARK    3  A    between atoms: C_3  and  O_17 
DOCKED: REMARK    4  A    between atoms: C_4  and  O_22 
DOCKED: REMARK    5  A    between atoms: C_5  and  O_27 
DOCKED: REMARK    6  A    between atoms: C_6  and  O_32 
DOCKED: REMARK    7  A    between atoms: O_7  and  P_8 
DOCKED: REMARK    8  A    between atoms: P_8  and  O_10 
DOCKED: REMARK    9  A    between atoms: P_8  and  O_11 
DOCKED: REMARK   10  A    between atoms: O_12  and  P_13 
DOCKED: REMARK   11  A    between atoms: P_13  and  O_15 
DOCKED: REMARK   12  A    between atoms: P_13  and  O_16 
DOCKED: REMARK   13  A    between atoms: O_17  and  P_18 
DOCKED: REMARK   14  A    between atoms: P_18  and  O_20 
DOCKED: REMARK   15  A    between atoms: P_18  and  O_21 
DOCKED: REMARK   16  A    between atoms: O_22  and  P_23 
DOCKED: REMARK   17  A    between atoms: P_23  and  O_25 
DOCKED: REMARK   18  A    between atoms: P_23  and  O_26 
DOCKED: REMARK   19  A    between atoms: O_27  and  P_28 
DOCKED: REMARK   20  A    between atoms: P_28  and  O_30 
DOCKED: REMARK   21  A    between atoms: P_28  and  O_31 
DOCKED: REMARK   22  A    between atoms: O_32  and  P_33 
DOCKED: REMARK   23  A    between atoms: P_33  and  O_35 
DOCKED: REMARK   24  A    between atoms: P_33  and  O_36 
DOCKED: USER                              x       y       z     vdW  Elec       q    Type
DOCKED: USER                           _______ _______ _______ _____ _____    ______ ____
DOCKED: ROOT
DOCKED: ATOM      1  C   UNL d   1     -11.030  10.889  -5.902 -0.13 +0.05    +0.194 C 
DOCKED: ATOM      2  C   UNL d   1     -10.448  10.625  -7.292 -0.12 +0.05    +0.194 C 
DOCKED: ATOM      3  C   UNL d   1      -9.626   9.335  -7.326 -0.17 +0.06    +0.194 C 
DOCKED: ATOM      4  C   UNL d   1     -10.380   8.127  -6.776 -0.15 +0.11    +0.194 C 
DOCKED: ATOM      5  C   UNL d   1     -11.074   8.381  -5.444 -0.16 +0.10    +0.194 C 
DOCKED: ATOM      6  C   UNL d   1     -11.845   9.701  -5.390 -0.07 +0.06    +0.194 C 
DOCKED: ENDROOT
DOCKED: BRANCH   1   7
DOCKED: ATOM      7  O   UNL d   1     -11.917  12.006  -5.995 -0.06 -0.08    -0.278 OA
DOCKED: BRANCH   7   8
DOCKED: ATOM      8  P   UNL d   1     -11.414  13.313  -6.763 -0.12 +0.24    +0.473 P 
DOCKED: ATOM      9  O   UNL d   1      -9.963  13.332  -7.094 -0.34 -0.13    -0.228 OA
DOCKED: BRANCH   8  10
DOCKED: ATOM     10  O   UNL d   1     -12.353  13.390  -8.051 -0.05 -0.13    -0.303 OA
DOCKED: ATOM     11  H   UNL d   1     -12.154  12.643  -8.646 +0.04 +0.07    +0.222 HD
DOCKED: ENDBRANCH   8  10
DOCKED: BRANCH   8  12
DOCKED: ATOM     12  O   UNL d   1     -11.943  14.533  -5.893 -0.02 -0.23    -0.303 OA
DOCKED: ATOM     13  H   UNL d   1     -12.807  14.352  -5.460 +0.05 +0.11    +0.222 HD
DOCKED: ENDBRANCH   8  12
DOCKED: ENDBRANCH   7   8
DOCKED: ENDBRANCH   1   7
DOCKED: BRANCH   2  14
DOCKED: ATOM     14  O   UNL d   1     -11.522  10.507  -8.233 -0.02 -0.07    -0.278 OA
DOCKED: BRANCH  14  15
DOCKED: ATOM     15  P   UNL d   1     -11.226  11.009  -9.724 -0.02 +0.11    +0.473 P 
DOCKED: ATOM     16  O   UNL d   1     -10.871   9.958 -10.729 -0.02 -0.04    -0.228 OA
DOCKED: BRANCH  15  17
DOCKED: ATOM     17  O   UNL d   1     -12.531  11.830 -10.124 -0.01 -0.06    -0.303 OA
DOCKED: ATOM     18  H   UNL d   1     -12.366  12.791 -10.091 +0.03 +0.06    +0.222 HD
DOCKED: ENDBRANCH  15  17
DOCKED: BRANCH  15  19
DOCKED: ATOM     19  O   UNL d   1     -10.158  12.175  -9.545 -0.22 -0.12    -0.303 OA
DOCKED: ATOM     20  H   UNL d   1      -9.547  11.994  -8.807 +0.06 +0.07    +0.222 HD
DOCKED: ENDBRANCH  15  19
DOCKED: ENDBRANCH  14  15
DOCKED: ENDBRANCH   2  14
DOCKED: BRANCH   6  21
DOCKED: ATOM     21  O   UNL d   1     -12.134   9.953  -4.016 -0.06 -0.07    -0.278 OA
DOCKED: BRANCH  21  22
DOCKED: ATOM     22  P   UNL d   1     -13.553   9.539  -3.417 -0.01 +0.11    +0.473 P 
DOCKED: ATOM     23  O   UNL d   1     -14.145  10.396  -2.349 -0.03 -0.04    -0.228 OA
DOCKED: BRANCH  22  24
DOCKED: ATOM     24  O   UNL d   1     -14.437   9.409  -4.734 -0.00 -0.07    -0.303 OA
DOCKED: ATOM     25  H   UNL d   1     -13.929   8.871  -5.394 +0.02 +0.07    +0.222 HD
DOCKED: ENDBRANCH  22  24
DOCKED: BRANCH  22  26
DOCKED: ATOM     26  O   UNL d   1     -13.308   8.003  -3.030 -0.05 -0.10    -0.303 OA
DOCKED: ATOM     27  H   UNL d   1     -13.433   7.447  -3.825 +0.04 +0.10    +0.222 HD
DOCKED: ENDBRANCH  22  26
DOCKED: ENDBRANCH  21  22
DOCKED: ENDBRANCH   6  21
DOCKED: BRANCH   3  28
DOCKED: ATOM     28  O   UNL d   1      -9.366   9.029  -8.690 -0.07 -0.06    -0.278 OA
DOCKED: BRANCH  28  29
DOCKED: ATOM     29  P   UNL d   1      -7.933   9.323  -9.321 -0.12 +0.05    +0.473 P 
DOCKED: ATOM     30  O   UNL d   1      -6.782   9.178  -8.393 -0.31 -0.01    -0.228 OA
DOCKED: BRANCH  29  31
DOCKED: ATOM     31  O   UNL d   1      -7.977   8.340 -10.583 -0.07 -0.03    -0.303 OA
DOCKED: ATOM     32  H   UNL d   1      -8.479   7.530 -10.332 +0.07 +0.03    +0.222 HD
DOCKED: ENDBRANCH  29  31
DOCKED: BRANCH  29  33
DOCKED: ATOM     33  O   UNL d   1      -8.147  10.755  -9.983 -0.22 -0.07    -0.303 OA
DOCKED: ATOM     34  H   UNL d   1      -8.933  10.717 -10.582 +0.07 +0.06    +0.222 HD
DOCKED: ENDBRANCH  29  33
DOCKED: ENDBRANCH  28  29
DOCKED: ENDBRANCH   3  28
DOCKED: BRANCH   5  35
DOCKED: ATOM     35  O   UNL d   1     -12.028   7.331  -5.298 -0.17 -0.24    -0.278 OA
DOCKED: BRANCH  35  36
DOCKED: ATOM     36  P   UNL d   1     -13.030   6.982  -6.489 -0.04 +0.41    +0.473 P 
DOCKED: ATOM     37  O   UNL d   1     -12.701   5.748  -7.267 -0.16 -0.35    -0.228 OA
DOCKED: BRANCH  36  38
DOCKED: ATOM     38  O   UNL d   1     -14.429   6.925  -5.732 -0.05 -0.17    -0.303 OA
DOCKED: ATOM     39  H   UNL d   1     -14.345   7.381  -4.866 +0.02 +0.10    +0.222 HD
DOCKED: ENDBRANCH  36  38
DOCKED: BRANCH  36  40
DOCKED: ATOM     40  O   UNL d   1     -13.087   8.351  -7.297 -0.00 -0.12    -0.303 OA
DOCKED: ATOM     41  H   UNL d   1     -12.308   8.458  -7.888 +0.02 +0.08    +0.222 HD
DOCKED: ENDBRANCH  36  40
DOCKED: ENDBRANCH  35  36
DOCKED: ENDBRANCH   5  35
DOCKED: BRANCH   4  42
DOCKED: ATOM     42  O   UNL d   1      -9.410   7.097  -6.556 -0.34 -0.22    -0.278 OA
DOCKED: BRANCH  42  43
DOCKED: ATOM     43  P   UNL d   1      -9.268   5.929  -7.633 -0.06 +0.42    +0.473 P 
DOCKED: ATOM     44  O   UNL d   1      -9.184   4.532  -7.123 -0.60 -0.37    -0.228 OA
DOCKED: BRANCH  43  45
DOCKED: ATOM     45  O   UNL d   1     -10.501   6.195  -8.602 -0.09 -0.22    -0.303 OA
DOCKED: ATOM     46  H   UNL d   1     -11.253   6.598  -8.123 +0.04 +0.18    +0.222 HD
DOCKED: ENDBRANCH  43  45
DOCKED: BRANCH  43  47
DOCKED: ATOM     47  O   UNL d   1      -8.034   6.411  -8.536 -0.12 -0.10    -0.303 OA
DOCKED: ATOM     48  H   UNL d   1      -8.037   7.389  -8.591 +0.09 +0.05    +0.222 HD
DOCKED: ENDBRANCH  43  47
DOCKED: ENDBRANCH  42  43
DOCKED: ENDBRANCH   4  42
DOCKED: TORSDOF 24
DOCKED: TER
DOCKED: ENDMDL
________________________________________________________________________________


	BEGINNING GENETIC ALGORITHM DOCKING 28 of 100
Run: 28 Seed: 556927953 1816158966 [ Run 28 of 100 GA/GALS ]
Beginning LAMARCKIAN GENETIC ALGORITHM (LGA), with a maximum of 25000000 energy evaluations.

Final-Value: -17.681


	FINAL GENETIC ALGORITHM DOCKED STATE
	_______________________________________________


Detailed state:  trans 1.821 3.448 20.812 quatxyzw -0.073837 -0.789190 0.570650 0.214676 center 0.035 0.082 -0.065 ntor 24 109.4213 29.5696 133.6365 16.5109 120.8804 114.3345 -31.8012 -84.2338 6.9183 39.5773 -18.7350 170.6867 -162.6669 76.9459 95.6995 -58.3797 -81.2180 -76.7271 34.1190 -24.0604 -38.5559 -35.9436 -172.2053 37.7329
State:	  1.821   3.448  20.812  -0.076 -0.808  0.584 155.207    109.42   29.57  133.64   16.51  120.88  114.33  -31.80  -84.23    6.92   39.58  -18.74  170.69 -162.67   76.95   95.70  -58.38  -81.22  -76.73   34.12  -24.06  -38.56  -35.94 -172.21   37.73

DOCKED: MODEL       28
DOCKED: USER    Run = 28
DOCKED: USER    DPF = D:/Protein_go_brrr/autodock/final/mut_K82N/IHP/dock.dpf
DOCKED: USER  
DOCKED: USER    Estimated Free Energy of Binding    =   +1.62 kcal/mol  [=(1)+(2)+(3)-(4)]
DOCKED: USER    
DOCKED: USER    (1) Final Intermolecular Energy     =   -5.54 kcal/mol
DOCKED: USER        vdW + Hbond + desolv Energy     =   -4.84 kcal/mol
DOCKED: USER        Electrostatic Energy            =   -0.70 kcal/mol
DOCKED: USER    (2) Final Total Internal Energy     =  -12.14 kcal/mol
DOCKED: USER    (3) Torsional Free Energy           =   +7.16 kcal/mol
DOCKED: USER    (4) Unbound System's Energy  [=(2)] =  -12.14 kcal/mol
DOCKED: USER    
DOCKED: USER    
DOCKED: USER    NEWDPF move IHP_ideal_opt.pdbqt
DOCKED: USER    NEWDPF about 0.035000 0.082000 -0.065000
DOCKED: USER    NEWDPF tran0 1.820726 3.448455 20.811510
DOCKED: USER    NEWDPF quaternion0 -0.073837 -0.789190 0.570650 0.214676
DOCKED: USER    NEWDPF axisangle0 -0.075600 -0.808029 0.584272 155.206954
DOCKED: USER    NEWDPF quat0 -0.075600 -0.808029 0.584272 155.206954
DOCKED: USER    NEWDPF dihe0 109.42 29.57 133.64 16.51 120.88 114.33 -31.80 -84.23 6.92 39.58 -18.74 170.69 -162.67 76.95 95.70 -58.38 -81.22 -76.73 34.12 -24.06 -38.56 -35.94 -172.21 37.73 
DOCKED: USER  keepresnum = 1 
DOCKED: USER  
DOCKED: REMARK  24 active torsions:
DOCKED: REMARK  status: ('A' for Active; 'I' for Inactive)
DOCKED: REMARK    1  A    between atoms: C_1  and  O_7 
DOCKED: REMARK    2  A    between atoms: C_2  and  O_12 
DOCKED: REMARK    3  A    between atoms: C_3  and  O_17 
DOCKED: REMARK    4  A    between atoms: C_4  and  O_22 
DOCKED: REMARK    5  A    between atoms: C_5  and  O_27 
DOCKED: REMARK    6  A    between atoms: C_6  and  O_32 
DOCKED: REMARK    7  A    between atoms: O_7  and  P_8 
DOCKED: REMARK    8  A    between atoms: P_8  and  O_10 
DOCKED: REMARK    9  A    between atoms: P_8  and  O_11 
DOCKED: REMARK   10  A    between atoms: O_12  and  P_13 
DOCKED: REMARK   11  A    between atoms: P_13  and  O_15 
DOCKED: REMARK   12  A    between atoms: P_13  and  O_16 
DOCKED: REMARK   13  A    between atoms: O_17  and  P_18 
DOCKED: REMARK   14  A    between atoms: P_18  and  O_20 
DOCKED: REMARK   15  A    between atoms: P_18  and  O_21 
DOCKED: REMARK   16  A    between atoms: O_22  and  P_23 
DOCKED: REMARK   17  A    between atoms: P_23  and  O_25 
DOCKED: REMARK   18  A    between atoms: P_23  and  O_26 
DOCKED: REMARK   19  A    between atoms: O_27  and  P_28 
DOCKED: REMARK   20  A    between atoms: P_28  and  O_30 
DOCKED: REMARK   21  A    between atoms: P_28  and  O_31 
DOCKED: REMARK   22  A    between atoms: O_32  and  P_33 
DOCKED: REMARK   23  A    between atoms: P_33  and  O_35 
DOCKED: REMARK   24  A    between atoms: P_33  and  O_36 
DOCKED: USER                              x       y       z     vdW  Elec       q    Type
DOCKED: USER                           _______ _______ _______ _____ _____    ______ ____
DOCKED: ROOT
DOCKED: ATOM      1  C   UNL d   1       0.577   2.250  20.850 +0.06 -0.17    +0.194 C 
DOCKED: ATOM      2  C   UNL d   1       1.312   2.483  22.171 +0.05 -0.15    +0.194 C 
DOCKED: ATOM      3  C   UNL d   1       2.822   2.613  21.965 +0.00 -0.16    +0.194 C 
DOCKED: ATOM      4  C   UNL d   1       3.197   3.647  20.906 -0.18 -0.10    +0.194 C 
DOCKED: ATOM      5  C   UNL d   1       2.406   3.524  19.610 -0.29 -0.12    +0.194 C 
DOCKED: ATOM      6  C   UNL d   1       0.902   3.331  19.819 -0.20 -0.11    +0.194 C 
DOCKED: ENDROOT
DOCKED: BRANCH   1   7
DOCKED: ATOM      7  O   UNL d   1      -0.828   2.312  21.104 -0.08 +0.10    -0.278 OA
DOCKED: BRANCH   7   8
DOCKED: ATOM      8  P   UNL d   1      -1.583   0.970  21.529 -0.12 -0.04    +0.473 P 
DOCKED: ATOM      9  O   UNL d   1      -2.528   0.430  20.514 -0.16 -0.03    -0.228 OA
DOCKED: BRANCH   8  10
DOCKED: ATOM     10  O   UNL d   1      -0.402  -0.041  21.888 -0.61 +0.05    -0.303 OA
DOCKED: ATOM     11  H   UNL d   1       0.264  -0.031  21.176 -0.51 -0.26    +0.222 HD
DOCKED: ENDBRANCH   8  10
DOCKED: BRANCH   8  12
DOCKED: ATOM     12  O   UNL d   1      -2.202   1.279  22.959 -0.02 +0.02    -0.303 OA
DOCKED: ATOM     13  H   UNL d   1      -1.814   2.077  23.383 +0.02 -0.03    +0.222 HD
DOCKED: ENDBRANCH   8  12
DOCKED: ENDBRANCH   7   8
DOCKED: ENDBRANCH   1   7
DOCKED: BRANCH   2  14
DOCKED: ATOM     14  O   UNL d   1       0.827   3.692  22.769 -0.02 +0.08    -0.278 OA
DOCKED: BRANCH  14  15
DOCKED: ATOM     15  P   UNL d   1      -0.107   3.528  24.059 +0.01 -0.08    +0.473 P 
DOCKED: ATOM     16  O   UNL d   1       0.219   4.389  25.239 +0.00 +0.02    -0.228 OA
DOCKED: BRANCH  15  17
DOCKED: ATOM     17  O   UNL d   1      -1.581   3.773  23.505 +0.00 +0.04    -0.303 OA
DOCKED: ATOM     18  H   UNL d   1      -1.691   3.385  22.616 +0.02 -0.03    +0.222 HD
DOCKED: ENDBRANCH  15  17
DOCKED: BRANCH  15  19
DOCKED: ATOM     19  O   UNL d   1      -0.128   1.962  24.338 -0.01 +0.06    -0.303 OA
DOCKED: ATOM     20  H   UNL d   1      -0.233   1.451  23.514 +0.02 -0.06    +0.222 HD
DOCKED: ENDBRANCH  15  19
DOCKED: ENDBRANCH  14  15
DOCKED: ENDBRANCH   2  14
DOCKED: BRANCH   6  21
DOCKED: ATOM     21  O   UNL d   1       0.365   2.895  18.572 -0.22 +0.13    -0.278 OA
DOCKED: BRANCH  21  22
DOCKED: ATOM     22  P   UNL d   1      -1.052   3.442  18.086 -0.11 -0.14    +0.473 P 
DOCKED: ATOM     23  O   UNL d   1      -1.139   4.074  16.737 -0.27 +0.07    -0.228 OA
DOCKED: BRANCH  22  24
DOCKED: ATOM     24  O   UNL d   1      -1.980   2.164  18.285 -0.24 +0.06    -0.303 OA
DOCKED: ATOM     25  H   UNL d   1      -1.891   1.862  19.224 +0.08 -0.04    +0.222 HD
DOCKED: ENDBRANCH  22  24
DOCKED: BRANCH  22  26
DOCKED: ATOM     26  O   UNL d   1      -1.488   4.363  19.323 -0.04 +0.08    -0.303 OA
DOCKED: ATOM     27  H   UNL d   1      -1.538   3.813  20.132 +0.05 -0.05    +0.222 HD
DOCKED: ENDBRANCH  22  26
DOCKED: ENDBRANCH  21  22
DOCKED: ENDBRANCH   6  21
DOCKED: BRANCH   3  28
DOCKED: ATOM     28  O   UNL d   1       3.381   3.097  23.179 -0.05 +0.08    -0.278 OA
DOCKED: BRANCH  28  29
DOCKED: ATOM     29  P   UNL d   1       3.531   2.132  24.437 -0.01 -0.09    +0.473 P 
DOCKED: ATOM     30  O   UNL d   1       2.323   1.999  25.291 -0.01 +0.03    -0.228 OA
DOCKED: BRANCH  29  31
DOCKED: ATOM     31  O   UNL d   1       4.056   0.806  23.710 -0.10 +0.11    -0.303 OA
DOCKED: ATOM     32  H   UNL d   1       4.425   1.055  22.831 +0.03 -0.11    +0.222 HD
DOCKED: ENDBRANCH  29  31
DOCKED: BRANCH  29  33
DOCKED: ATOM     33  O   UNL d   1       4.847   2.695  25.135 -0.01 -0.01    -0.303 OA
DOCKED: ATOM     34  H   UNL d   1       5.402   3.149  24.454 +0.04 +0.02    +0.222 HD
DOCKED: ENDBRANCH  29  33
DOCKED: ENDBRANCH  28  29
DOCKED: ENDBRANCH   3  28
DOCKED: BRANCH   5  35
DOCKED: ATOM     35  O   UNL d   1       2.580   4.765  18.930 +0.05 +0.17    -0.278 OA
DOCKED: BRANCH  35  36
DOCKED: ATOM     36  P   UNL d   1       2.529   6.139  19.739 -0.04 -0.16    +0.473 P 
DOCKED: ATOM     37  O   UNL d   1       1.537   6.193  20.857 -0.03 +0.05    -0.228 OA
DOCKED: BRANCH  36  38
DOCKED: ATOM     38  O   UNL d   1       4.044   6.303  20.200 -0.06 +0.07    -0.303 OA
DOCKED: ATOM     39  H   UNL d   1       4.280   5.560  20.797 +0.07 -0.04    +0.222 HD
DOCKED: ENDBRANCH  36  38
DOCKED: BRANCH  36  40
DOCKED: ATOM     40  O   UNL d   1       2.364   7.212  18.576 -0.10 +0.12    -0.303 OA
DOCKED: ATOM     41  H   UNL d   1       2.369   6.790  17.688 -0.44 -0.15    +0.222 HD
DOCKED: ENDBRANCH  36  40
DOCKED: ENDBRANCH  35  36
DOCKED: ENDBRANCH   5  35
DOCKED: BRANCH   4  42
DOCKED: ATOM     42  O   UNL d   1       4.574   3.427  20.581 -0.24 +0.10    -0.278 OA
DOCKED: BRANCH  42  43
DOCKED: ATOM     43  P   UNL d   1       5.693   3.862  21.631 -0.17 -0.01    +0.473 P 
DOCKED: ATOM     44  O   UNL d   1       5.400   5.034  22.501 -0.04 -0.00    -0.228 OA
DOCKED: BRANCH  43  45
DOCKED: ATOM     45  O   UNL d   1       5.967   2.512  22.427 -0.20 -0.01    -0.303 OA
DOCKED: ATOM     46  H   UNL d   1       5.400   2.444  23.222 +0.07 -0.01    +0.222 HD
DOCKED: ENDBRANCH  43  45
DOCKED: BRANCH  43  47
DOCKED: ATOM     47  O   UNL d   1       7.014   3.982  20.730 -0.82 -0.09    -0.303 OA
DOCKED: ATOM     48  H   UNL d   1       6.834   3.608  19.842 -0.03 +0.06    +0.222 HD
DOCKED: ENDBRANCH  43  47
DOCKED: ENDBRANCH  42  43
DOCKED: ENDBRANCH   4  42
DOCKED: TORSDOF 24
DOCKED: TER
DOCKED: ENDMDL
________________________________________________________________________________


	BEGINNING GENETIC ALGORITHM DOCKING 29 of 100
Run: 29 Seed: 1994477792 81300371 [ Run 29 of 100 GA/GALS ]
Beginning LAMARCKIAN GENETIC ALGORITHM (LGA), with a maximum of 25000000 energy evaluations.

Final-Value: -17.655


	FINAL GENETIC ALGORITHM DOCKED STATE
	_______________________________________________


Detailed state:  trans 4.575 6.891 19.164 quatxyzw -0.655572 -0.695150 0.261932 0.135590 center 0.035 0.082 -0.065 ntor 24 118.8577 27.2770 135.3613 25.4114 31.3454 -125.3202 -73.2204 -7.8154 62.1941 129.7693 157.2267 103.7195 180.0000 63.1729 -23.3202 176.4953 84.2875 -149.7808 41.9310 2.7169 -29.0072 11.5502 15.8674 7.3513
State:	  4.575   6.891  19.164  -0.662 -0.702  0.264 164.415    118.86   27.28  135.36   25.41   31.35 -125.32  -73.22   -7.82   62.19  129.77  157.23  103.72  180.00   63.17  -23.32  176.50   84.29 -149.78   41.93    2.72  -29.01   11.55   15.87    7.35

DOCKED: MODEL       29
DOCKED: USER    Run = 29
DOCKED: USER    DPF = D:/Protein_go_brrr/autodock/final/mut_K82N/IHP/dock.dpf
DOCKED: USER  
DOCKED: USER    Estimated Free Energy of Binding    =   +1.51 kcal/mol  [=(1)+(2)+(3)-(4)]
DOCKED: USER    
DOCKED: USER    (1) Final Intermolecular Energy     =   -5.65 kcal/mol
DOCKED: USER        vdW + Hbond + desolv Energy     =   -5.45 kcal/mol
DOCKED: USER        Electrostatic Energy            =   -0.20 kcal/mol
DOCKED: USER    (2) Final Total Internal Energy     =  -12.01 kcal/mol
DOCKED: USER    (3) Torsional Free Energy           =   +7.16 kcal/mol
DOCKED: USER    (4) Unbound System's Energy  [=(2)] =  -12.01 kcal/mol
DOCKED: USER    
DOCKED: USER    
DOCKED: USER    NEWDPF move IHP_ideal_opt.pdbqt
DOCKED: USER    NEWDPF about 0.035000 0.082000 -0.065000
DOCKED: USER    NEWDPF tran0 4.575374 6.891409 19.164111
DOCKED: USER    NEWDPF quaternion0 -0.655572 -0.695150 0.261932 0.135590
DOCKED: USER    NEWDPF axisangle0 -0.661682 -0.701629 0.264374 164.414560
DOCKED: USER    NEWDPF quat0 -0.661682 -0.701629 0.264374 164.414560
DOCKED: USER    NEWDPF dihe0 118.86 27.28 135.36 25.41 31.35 -125.32 -73.22 -7.82 62.19 129.77 157.23 103.72 180.00 63.17 -23.32 176.50 84.29 -149.78 41.93 2.72 -29.01 11.55 15.87 7.35 
DOCKED: USER  keepresnum = 1 
DOCKED: USER  
DOCKED: REMARK  24 active torsions:
DOCKED: REMARK  status: ('A' for Active; 'I' for Inactive)
DOCKED: REMARK    1  A    between atoms: C_1  and  O_7 
DOCKED: REMARK    2  A    between atoms: C_2  and  O_12 
DOCKED: REMARK    3  A    between atoms: C_3  and  O_17 
DOCKED: REMARK    4  A    between atoms: C_4  and  O_22 
DOCKED: REMARK    5  A    between atoms: C_5  and  O_27 
DOCKED: REMARK    6  A    between atoms: C_6  and  O_32 
DOCKED: REMARK    7  A    between atoms: O_7  and  P_8 
DOCKED: REMARK    8  A    between atoms: P_8  and  O_10 
DOCKED: REMARK    9  A    between atoms: P_8  and  O_11 
DOCKED: REMARK   10  A    between atoms: O_12  and  P_13 
DOCKED: REMARK   11  A    between atoms: P_13  and  O_15 
DOCKED: REMARK   12  A    between atoms: P_13  and  O_16 
DOCKED: REMARK   13  A    between atoms: O_17  and  P_18 
DOCKED: REMARK   14  A    between atoms: P_18  and  O_20 
DOCKED: REMARK   15  A    between atoms: P_18  and  O_21 
DOCKED: REMARK   16  A    between atoms: O_22  and  P_23 
DOCKED: REMARK   17  A    between atoms: P_23  and  O_25 
DOCKED: REMARK   18  A    between atoms: P_23  and  O_26 
DOCKED: REMARK   19  A    between atoms: O_27  and  P_28 
DOCKED: REMARK   20  A    between atoms: P_28  and  O_30 
DOCKED: REMARK   21  A    between atoms: P_28  and  O_31 
DOCKED: REMARK   22  A    between atoms: O_32  and  P_33 
DOCKED: REMARK   23  A    between atoms: P_33  and  O_35 
DOCKED: REMARK   24  A    between atoms: P_33  and  O_36 
DOCKED: USER                              x       y       z     vdW  Elec       q    Type
DOCKED: USER                           _______ _______ _______ _____ _____    ______ ____
DOCKED: ROOT
DOCKED: ATOM      1  C   UNL d   1       3.450   7.513  18.010 -0.09 -0.09    +0.194 C 
DOCKED: ATOM      2  C   UNL d   1       2.847   6.661  19.128 -0.06 -0.08    +0.194 C 
DOCKED: ATOM      3  C   UNL d   1       3.688   5.414  19.407 -0.12 -0.08    +0.194 C 
DOCKED: ATOM      4  C   UNL d   1       5.163   5.724  19.649 -0.22 -0.04    +0.194 C 
DOCKED: ATOM      5  C   UNL d   1       5.777   6.664  18.620 -0.24 -0.05    +0.194 C 
DOCKED: ATOM      6  C   UNL d   1       4.907   7.881  18.295 -0.17 -0.06    +0.194 C 
DOCKED: ENDROOT
DOCKED: BRANCH   1   7
DOCKED: ATOM      7  O   UNL d   1       2.711   8.734  17.930 -0.08 +0.09    -0.278 OA
DOCKED: BRANCH   7   8
DOCKED: ATOM      8  P   UNL d   1       1.318   8.727  17.148 -0.09 -0.19    +0.473 P 
DOCKED: ATOM      9  O   UNL d   1       1.172   9.784  16.110 -0.13 +0.12    -0.228 OA
DOCKED: BRANCH   8  10
DOCKED: ATOM     10  O   UNL d   1       1.212   7.249  16.557 -0.22 +0.14    -0.303 OA
DOCKED: ATOM     11  H   UNL d   1       2.091   6.957  16.249 -0.37 -0.12    +0.222 HD
DOCKED: ENDBRANCH   8  10
DOCKED: BRANCH   8  12
DOCKED: ATOM     12  O   UNL d   1       0.207   8.712  18.283 -0.02 +0.10    -0.303 OA
DOCKED: ATOM     13  H   UNL d   1       0.555   8.431  19.160 +0.03 -0.06    +0.222 HD
DOCKED: ENDBRANCH   8  12
DOCKED: ENDBRANCH   7   8
DOCKED: ENDBRANCH   1   7
DOCKED: BRANCH   2  14
DOCKED: ATOM     14  O   UNL d   1       2.781   7.444  20.327 -0.02 +0.06    -0.278 OA
DOCKED: BRANCH  14  15
DOCKED: ATOM     15  P   UNL d   1       1.408   7.379  21.149 +0.00 -0.09    +0.473 P 
DOCKED: ATOM     16  O   UNL d   1       1.487   6.847  22.546 -0.00 +0.03    -0.228 OA
DOCKED: BRANCH  15  17
DOCKED: ATOM     17  O   UNL d   1       0.848   8.869  21.087 -0.00 +0.05    -0.303 OA
DOCKED: ATOM     18  H   UNL d   1       0.996   9.263  20.206 +0.01 -0.04    +0.222 HD
DOCKED: ENDBRANCH  15  17
DOCKED: BRANCH  15  19
DOCKED: ATOM     19  O   UNL d   1       0.402   6.618  20.181 -0.01 +0.07    -0.303 OA
DOCKED: ATOM     20  H   UNL d   1       0.571   6.831  19.245 +0.04 -0.07    +0.222 HD
DOCKED: ENDBRANCH  15  19
DOCKED: ENDBRANCH  14  15
DOCKED: ENDBRANCH   2  14
DOCKED: BRANCH   6  21
DOCKED: ATOM     21  O   UNL d   1       5.434   8.458  17.103 -0.17 +0.13    -0.278 OA
DOCKED: BRANCH  21  22
DOCKED: ATOM     22  P   UNL d   1       5.710  10.028  17.039 -0.11 -0.13    +0.473 P 
DOCKED: ATOM     23  O   UNL d   1       5.551  10.824  18.291 -0.03 +0.04    -0.228 OA
DOCKED: BRANCH  22  24
DOCKED: ATOM     24  O   UNL d   1       7.166  10.077  16.398 -0.09 +0.07    -0.303 OA
DOCKED: ATOM     25  H   UNL d   1       7.676   9.295  16.732 +0.04 -0.05    +0.222 HD
DOCKED: ENDBRANCH  22  24
DOCKED: BRANCH  22  26
DOCKED: ATOM     26  O   UNL d   1       4.790  10.470  15.803 -0.13 +0.11    -0.303 OA
DOCKED: ATOM     27  H   UNL d   1       3.856  10.257  16.005 +0.07 -0.08    +0.222 HD
DOCKED: ENDBRANCH  22  26
DOCKED: ENDBRANCH  21  22
DOCKED: ENDBRANCH   6  21
DOCKED: BRANCH   3  28
DOCKED: ATOM     28  O   UNL d   1       3.218   4.843  20.621 -0.09 +0.09    -0.278 OA
DOCKED: BRANCH  28  29
DOCKED: ATOM     29  P   UNL d   1       2.689   3.341  20.652 -0.12 -0.31    +0.473 P 
DOCKED: ATOM     30  O   UNL d   1       2.866   2.626  21.943 -0.12 +0.18    -0.228 OA
DOCKED: BRANCH  29  31
DOCKED: ATOM     31  O   UNL d   1       1.188   3.562  20.144 -0.12 +0.16    -0.303 OA
DOCKED: ATOM     32  H   UNL d   1       0.938   4.502  20.303 +0.06 -0.08    +0.222 HD
DOCKED: ENDBRANCH  29  31
DOCKED: BRANCH  29  33
DOCKED: ATOM     33  O   UNL d   1       3.403   2.709  19.377 -0.33 +0.23    -0.303 OA
DOCKED: ATOM     34  H   UNL d   1       4.371   2.904  19.421 -0.10 -0.14    +0.222 HD
DOCKED: ENDBRANCH  29  33
DOCKED: ENDBRANCH  28  29
DOCKED: ENDBRANCH   3  28
DOCKED: BRANCH   5  35
DOCKED: ATOM     35  O   UNL d   1       6.979   7.153  19.210 -0.08 +0.03    -0.278 OA
DOCKED: BRANCH  35  36
DOCKED: ATOM     36  P   UNL d   1       8.251   7.471  18.301 -0.07 -0.04    +0.473 P 
DOCKED: ATOM     37  O   UNL d   1       8.856   8.825  18.490 -0.03 +0.01    -0.228 OA
DOCKED: BRANCH  36  38
DOCKED: ATOM     38  O   UNL d   1       9.222   6.263  18.665 -0.10 -0.02    -0.303 OA
DOCKED: ATOM     39  H   UNL d   1       8.838   5.755  19.411 +0.07 +0.04    +0.222 HD
DOCKED: ENDBRANCH  36  38
DOCKED: BRANCH  36  40
DOCKED: ATOM     40  O   UNL d   1       7.724   7.113  16.843 -0.16 +0.10    -0.303 OA
DOCKED: ATOM     41  H   UNL d   1       7.286   7.882  16.415 -0.43 -0.11    +0.222 HD
DOCKED: ENDBRANCH  36  40
DOCKED: ENDBRANCH  35  36
DOCKED: ENDBRANCH   5  35
DOCKED: BRANCH   4  42
DOCKED: ATOM     42  O   UNL d   1       5.868   4.482  19.558 -0.28 +0.04    -0.278 OA
DOCKED: BRANCH  42  43
DOCKED: ATOM     43  P   UNL d   1       6.357   3.772  20.901 -0.14 +0.04    +0.473 P 
DOCKED: ATOM     44  O   UNL d   1       7.805   3.864  21.238 -0.77 -0.12    -0.228 OA
DOCKED: BRANCH  43  45
DOCKED: ATOM     45  O   UNL d   1       5.392   4.401  21.999 -0.07 +0.01    -0.303 OA
DOCKED: ATOM     46  H   UNL d   1       4.540   3.923  22.043 +0.07 -0.04    +0.222 HD
DOCKED: ENDBRANCH  43  45
DOCKED: BRANCH  43  47
DOCKED: ATOM     47  O   UNL d   1       5.771   2.287  20.765 -0.53 +0.06    -0.303 OA
DOCKED: ATOM     48  H   UNL d   1       4.813   2.297  20.971 +0.04 -0.11    +0.222 HD
DOCKED: ENDBRANCH  43  47
DOCKED: ENDBRANCH  42  43
DOCKED: ENDBRANCH   4  42
DOCKED: TORSDOF 24
DOCKED: TER
DOCKED: ENDMDL
________________________________________________________________________________


	BEGINNING GENETIC ALGORITHM DOCKING 30 of 100
Run: 30 Seed: 554771193 1372589506 [ Run 30 of 100 GA/GALS ]
Beginning LAMARCKIAN GENETIC ALGORITHM (LGA), with a maximum of 25000000 energy evaluations.

Final-Value: -17.560


	FINAL GENETIC ALGORITHM DOCKED STATE
	_______________________________________________


Detailed state:  trans -13.188 -5.779 -4.067 quatxyzw -0.582655 0.515574 -0.448293 -0.440148 center 0.035 0.082 -0.065 ntor 24 102.0162 64.5830 55.8467 27.6397 151.0672 -112.3507 -151.7204 -74.2457 -27.0823 1.4334 6.8798 -178.7290 -176.4998 151.6589 129.6203 -107.0713 -153.2598 6.7189 -11.1180 -29.1528 142.5198 -17.3113 -50.9622 165.7372
State:	-13.188  -5.779  -4.067  -0.649  0.574 -0.499 -127.773    102.02   64.58   55.85   27.64  151.07 -112.35 -151.72  -74.25  -27.08    1.43    6.88 -178.73 -176.50  151.66  129.62 -107.07 -153.26    6.72  -11.12  -29.15  142.52  -17.31  -50.96  165.74

DOCKED: MODEL       30
DOCKED: USER    Run = 30
DOCKED: USER    DPF = D:/Protein_go_brrr/autodock/final/mut_K82N/IHP/dock.dpf
DOCKED: USER  
DOCKED: USER    Estimated Free Energy of Binding    =   +1.80 kcal/mol  [=(1)+(2)+(3)-(4)]
DOCKED: USER    
DOCKED: USER    (1) Final Intermolecular Energy     =   -5.36 kcal/mol
DOCKED: USER        vdW + Hbond + desolv Energy     =   -4.94 kcal/mol
DOCKED: USER        Electrostatic Energy            =   -0.42 kcal/mol
DOCKED: USER    (2) Final Total Internal Energy     =  -12.20 kcal/mol
DOCKED: USER    (3) Torsional Free Energy           =   +7.16 kcal/mol
DOCKED: USER    (4) Unbound System's Energy  [=(2)] =  -12.20 kcal/mol
DOCKED: USER    
DOCKED: USER    
DOCKED: USER    NEWDPF move IHP_ideal_opt.pdbqt
DOCKED: USER    NEWDPF about 0.035000 0.082000 -0.065000
DOCKED: USER    NEWDPF tran0 -13.187681 -5.778591 -4.066894
DOCKED: USER    NEWDPF quaternion0 -0.582655 0.515574 -0.448293 -0.440148
DOCKED: USER    NEWDPF axisangle0 -0.648890 0.574184 -0.499254 -127.773387
DOCKED: USER    NEWDPF quat0 -0.648890 0.574184 -0.499254 -127.773387
DOCKED: USER    NEWDPF dihe0 102.02 64.58 55.85 27.64 151.07 -112.35 -151.72 -74.25 -27.08 1.43 6.88 -178.73 -176.50 151.66 129.62 -107.07 -153.26 6.72 -11.12 -29.15 142.52 -17.31 -50.96 165.74 
DOCKED: USER  keepresnum = 1 
DOCKED: USER  
DOCKED: REMARK  24 active torsions:
DOCKED: REMARK  status: ('A' for Active; 'I' for Inactive)
DOCKED: REMARK    1  A    between atoms: C_1  and  O_7 
DOCKED: REMARK    2  A    between atoms: C_2  and  O_12 
DOCKED: REMARK    3  A    between atoms: C_3  and  O_17 
DOCKED: REMARK    4  A    between atoms: C_4  and  O_22 
DOCKED: REMARK    5  A    between atoms: C_5  and  O_27 
DOCKED: REMARK    6  A    between atoms: C_6  and  O_32 
DOCKED: REMARK    7  A    between atoms: O_7  and  P_8 
DOCKED: REMARK    8  A    between atoms: P_8  and  O_10 
DOCKED: REMARK    9  A    between atoms: P_8  and  O_11 
DOCKED: REMARK   10  A    between atoms: O_12  and  P_13 
DOCKED: REMARK   11  A    between atoms: P_13  and  O_15 
DOCKED: REMARK   12  A    between atoms: P_13  and  O_16 
DOCKED: REMARK   13  A    between atoms: O_17  and  P_18 
DOCKED: REMARK   14  A    between atoms: P_18  and  O_20 
DOCKED: REMARK   15  A    between atoms: P_18  and  O_21 
DOCKED: REMARK   16  A    between atoms: O_22  and  P_23 
DOCKED: REMARK   17  A    between atoms: P_23  and  O_25 
DOCKED: REMARK   18  A    between atoms: P_23  and  O_26 
DOCKED: REMARK   19  A    between atoms: O_27  and  P_28 
DOCKED: REMARK   20  A    between atoms: P_28  and  O_30 
DOCKED: REMARK   21  A    between atoms: P_28  and  O_31 
DOCKED: REMARK   22  A    between atoms: O_32  and  P_33 
DOCKED: REMARK   23  A    between atoms: P_33  and  O_35 
DOCKED: REMARK   24  A    between atoms: P_33  and  O_36 
DOCKED: USER                              x       y       z     vdW  Elec       q    Type
DOCKED: USER                           _______ _______ _______ _____ _____    ______ ____
DOCKED: ROOT
DOCKED: ATOM      1  C   UNL d   1     -12.149  -6.914  -3.282 -0.09 -0.07    +0.194 C 
DOCKED: ATOM      2  C   UNL d   1     -12.427  -5.625  -2.505 -0.09 -0.12    +0.194 C 
DOCKED: ATOM      3  C   UNL d   1     -12.362  -4.393  -3.411 -0.07 -0.07    +0.194 C 
DOCKED: ATOM      4  C   UNL d   1     -13.236  -4.516  -4.657 -0.03 -0.03    +0.194 C 
DOCKED: ATOM      5  C   UNL d   1     -13.076  -5.837  -5.399 -0.05 -0.02    +0.194 C 
DOCKED: ATOM      6  C   UNL d   1     -13.078  -7.065  -4.487 -0.03 -0.04    +0.194 C 
DOCKED: ENDROOT
DOCKED: BRANCH   1   7
DOCKED: ATOM      7  O   UNL d   1     -12.397  -8.021  -2.411 -0.06 +0.10    -0.278 OA
DOCKED: BRANCH   7   8
DOCKED: ATOM      8  P   UNL d   1     -11.318  -9.198  -2.355 -0.13 -0.14    +0.473 P 
DOCKED: ATOM      9  O   UNL d   1     -11.855 -10.559  -2.632 -0.12 +0.05    -0.228 OA
DOCKED: BRANCH   8  10
DOCKED: ATOM     10  O   UNL d   1     -10.195  -8.743  -3.392 -0.07 +0.09    -0.303 OA
DOCKED: ATOM     11  H   UNL d   1     -10.600  -8.585  -4.265 -0.21 -0.09    +0.222 HD
DOCKED: ENDBRANCH   8  10
DOCKED: BRANCH   8  12
DOCKED: ATOM     12  O   UNL d   1     -10.579  -9.014  -0.961 -0.27 +0.12    -0.303 OA
DOCKED: ATOM     13  H   UNL d   1     -11.091  -8.471  -0.321 +0.10 -0.12    +0.222 HD
DOCKED: ENDBRANCH   8  12
DOCKED: ENDBRANCH   7   8
DOCKED: ENDBRANCH   1   7
DOCKED: BRANCH   2  14
DOCKED: ATOM     14  O   UNL d   1     -13.736  -5.700  -1.929 -0.04 +0.14    -0.278 OA
DOCKED: BRANCH  14  15
DOCKED: ATOM     15  P   UNL d   1     -13.812  -6.036  -0.365 -0.04 -0.37    +0.473 P 
DOCKED: ATOM     16  O   UNL d   1     -15.054  -6.717   0.117 -0.02 +0.10    -0.228 OA
DOCKED: BRANCH  15  17
DOCKED: ATOM     17  O   UNL d   1     -12.494  -6.886  -0.087 -0.06 +0.34    -0.303 OA
DOCKED: ATOM     18  H   UNL d   1     -12.316  -7.508  -0.818 +0.07 -0.16    +0.222 HD
DOCKED: ENDBRANCH  15  17
DOCKED: BRANCH  15  19
DOCKED: ATOM     19  O   UNL d   1     -13.462  -4.660   0.353 -0.03 +0.41    -0.303 OA
DOCKED: ATOM     20  H   UNL d   1     -12.836  -4.129  -0.172 -0.48 -0.40    +0.222 HD
DOCKED: ENDBRANCH  15  19
DOCKED: ENDBRANCH  14  15
DOCKED: ENDBRANCH   2  14
DOCKED: BRANCH   6  21
DOCKED: ATOM     21  O   UNL d   1     -12.585  -8.155  -5.262 -0.05 +0.05    -0.278 OA
DOCKED: BRANCH  21  22
DOCKED: ATOM     22  P   UNL d   1     -11.365  -7.926  -6.264 -0.17 -0.11    +0.473 P 
DOCKED: ATOM     23  O   UNL d   1     -10.581  -9.116  -6.704 -0.35 +0.08    -0.228 OA
DOCKED: BRANCH  22  24
DOCKED: ATOM     24  O   UNL d   1     -12.061  -7.112  -7.442 -0.12 +0.01    -0.303 OA
DOCKED: ATOM     25  H   UNL d   1     -12.062  -6.153  -7.195 +0.07 +0.00    +0.222 HD
DOCKED: ENDBRANCH  22  24
DOCKED: BRANCH  22  26
DOCKED: ATOM     26  O   UNL d   1     -10.537  -6.777  -5.513 -0.10 +0.11    -0.303 OA
DOCKED: ATOM     27  H   UNL d   1     -10.078  -7.165  -4.740 -0.44 -0.15    +0.222 HD
DOCKED: ENDBRANCH  22  26
DOCKED: ENDBRANCH  21  22
DOCKED: ENDBRANCH   6  21
DOCKED: BRANCH   3  28
DOCKED: ATOM     28  O   UNL d   1     -12.898  -3.297  -2.681 -0.04 +0.11    -0.278 OA
DOCKED: BRANCH  28  29
DOCKED: ATOM     29  P   UNL d   1     -11.936  -2.339  -1.847 -0.08 -0.26    +0.473 P 
DOCKED: ATOM     30  O   UNL d   1     -12.380  -2.034  -0.463 -0.13 +0.17    -0.228 OA
DOCKED: BRANCH  29  31
DOCKED: ATOM     31  O   UNL d   1     -10.551  -3.124  -2.010 -0.19 +0.25    -0.303 OA
DOCKED: ATOM     32  H   UNL d   1     -10.386  -3.644  -1.190 -0.48 -0.44    +0.222 HD
DOCKED: ENDBRANCH  29  31
DOCKED: BRANCH  29  33
DOCKED: ATOM     33  O   UNL d   1     -11.758  -1.103  -2.835 -0.08 +0.02    -0.303 OA
DOCKED: ATOM     34  H   UNL d   1     -12.063  -1.366  -3.738 +0.06 +0.00    +0.222 HD
DOCKED: ENDBRANCH  29  33
DOCKED: ENDBRANCH  28  29
DOCKED: ENDBRANCH   3  28
DOCKED: BRANCH   5  35
DOCKED: ATOM     35  O   UNL d   1     -14.215  -5.943  -6.250 -0.02 +0.02    -0.278 OA
DOCKED: BRANCH  35  36
DOCKED: ATOM     36  P   UNL d   1     -14.265  -5.148  -7.632 -0.06 +0.02    +0.473 P 
DOCKED: ATOM     37  O   UNL d   1     -15.217  -3.995  -7.679 -0.03 -0.01    -0.228 OA
DOCKED: BRANCH  36  38
DOCKED: ATOM     38  O   UNL d   1     -12.738  -4.745  -7.831 -0.08 -0.03    -0.303 OA
DOCKED: ATOM     39  H   UNL d   1     -12.604  -3.826  -7.514 +0.06 +0.02    +0.222 HD
DOCKED: ENDBRANCH  36  38
DOCKED: BRANCH  36  40
DOCKED: ATOM     40  O   UNL d   1     -14.493  -6.316  -8.688 -0.41 -0.03    -0.303 OA
DOCKED: ATOM     41  H   UNL d   1     -13.962  -7.114  -8.469 +0.03 +0.04    +0.222 HD
DOCKED: ENDBRANCH  36  40
DOCKED: ENDBRANCH  35  36
DOCKED: ENDBRANCH   5  35
DOCKED: BRANCH   4  42
DOCKED: ATOM     42  O   UNL d   1     -12.829  -3.477  -5.553 -0.04 +0.01    -0.278 OA
DOCKED: BRANCH  42  43
DOCKED: ATOM     43  P   UNL d   1     -11.292  -3.374  -5.967 -0.10 +0.00    +0.473 P 
DOCKED: ATOM     44  O   UNL d   1     -10.640  -4.603  -6.500 -0.31 +0.00    -0.228 OA
DOCKED: BRANCH  43  45
DOCKED: ATOM     45  O   UNL d   1     -11.284  -2.143  -6.976 -0.15 -0.04    -0.303 OA
DOCKED: ATOM     46  H   UNL d   1     -11.781  -2.347  -7.793 +0.07 +0.03    +0.222 HD
DOCKED: ENDBRANCH  43  45
DOCKED: BRANCH  43  47
DOCKED: ATOM     47  O   UNL d   1     -10.604  -2.735  -4.668 -0.13 +0.02    -0.303 OA
DOCKED: ATOM     48  H   UNL d   1     -11.288  -2.585  -3.982 +0.08 -0.03    +0.222 HD
DOCKED: ENDBRANCH  43  47
DOCKED: ENDBRANCH  42  43
DOCKED: ENDBRANCH   4  42
DOCKED: TORSDOF 24
DOCKED: TER
DOCKED: ENDMDL
________________________________________________________________________________


	BEGINNING GENETIC ALGORITHM DOCKING 31 of 100
Run: 31 Seed: 794583666 1074837702 [ Run 31 of 100 GA/GALS ]
Beginning LAMARCKIAN GENETIC ALGORITHM (LGA), with a maximum of 25000000 energy evaluations.

Final-Value: -18.787


	FINAL GENETIC ALGORITHM DOCKED STATE
	_______________________________________________


Detailed state:  trans -11.647 -2.435 -6.713 quatxyzw -0.163659 -0.530787 0.226964 -0.799981 center 0.035 0.082 -0.065 ntor 24 89.4727 -180.0000 160.5599 -49.0925 -12.5573 -119.4826 -15.0500 179.8661 6.3352 -17.0820 13.3196 -155.9081 172.3421 -161.2151 -1.2535 121.6914 -143.1528 -17.6542 -14.4730 -11.3415 132.6238 -20.5924 -50.1503 153.3500
State:	-11.647  -2.435  -6.713  -0.273 -0.885  0.378 -73.744     89.47 -180.00  160.56  -49.09  -12.56 -119.48  -15.05  179.87    6.34  -17.08   13.32 -155.91  172.34 -161.22   -1.25  121.69 -143.15  -17.65  -14.47  -11.34  132.62  -20.59  -50.15  153.35

DOCKED: MODEL       31
DOCKED: USER    Run = 31
DOCKED: USER    DPF = D:/Protein_go_brrr/autodock/final/mut_K82N/IHP/dock.dpf
DOCKED: USER  
DOCKED: USER    Estimated Free Energy of Binding    =   +1.65 kcal/mol  [=(1)+(2)+(3)-(4)]
DOCKED: USER    
DOCKED: USER    (1) Final Intermolecular Energy     =   -5.51 kcal/mol
DOCKED: USER        vdW + Hbond + desolv Energy     =   -5.18 kcal/mol
DOCKED: USER        Electrostatic Energy            =   -0.33 kcal/mol
DOCKED: USER    (2) Final Total Internal Energy     =  -13.28 kcal/mol
DOCKED: USER    (3) Torsional Free Energy           =   +7.16 kcal/mol
DOCKED: USER    (4) Unbound System's Energy  [=(2)] =  -13.28 kcal/mol
DOCKED: USER    
DOCKED: USER    
DOCKED: USER    NEWDPF move IHP_ideal_opt.pdbqt
DOCKED: USER    NEWDPF about 0.035000 0.082000 -0.065000
DOCKED: USER    NEWDPF tran0 -11.646611 -2.434508 -6.712970
DOCKED: USER    NEWDPF quaternion0 -0.163659 -0.530787 0.226964 -0.799981
DOCKED: USER    NEWDPF axisangle0 -0.272752 -0.884606 0.378257 -73.743516
DOCKED: USER    NEWDPF quat0 -0.272752 -0.884606 0.378257 -73.743516
DOCKED: USER    NEWDPF dihe0 89.47 -180.00 160.56 -49.09 -12.56 -119.48 -15.05 179.87 6.34 -17.08 13.32 -155.91 172.34 -161.22 -1.25 121.69 -143.15 -17.65 -14.47 -11.34 132.62 -20.59 -50.15 153.35 
DOCKED: USER  keepresnum = 1 
DOCKED: USER  
DOCKED: REMARK  24 active torsions:
DOCKED: REMARK  status: ('A' for Active; 'I' for Inactive)
DOCKED: REMARK    1  A    between atoms: C_1  and  O_7 
DOCKED: REMARK    2  A    between atoms: C_2  and  O_12 
DOCKED: REMARK    3  A    between atoms: C_3  and  O_17 
DOCKED: REMARK    4  A    between atoms: C_4  and  O_22 
DOCKED: REMARK    5  A    between atoms: C_5  and  O_27 
DOCKED: REMARK    6  A    between atoms: C_6  and  O_32 
DOCKED: REMARK    7  A    between atoms: O_7  and  P_8 
DOCKED: REMARK    8  A    between atoms: P_8  and  O_10 
DOCKED: REMARK    9  A    between atoms: P_8  and  O_11 
DOCKED: REMARK   10  A    between atoms: O_12  and  P_13 
DOCKED: REMARK   11  A    between atoms: P_13  and  O_15 
DOCKED: REMARK   12  A    between atoms: P_13  and  O_16 
DOCKED: REMARK   13  A    between atoms: O_17  and  P_18 
DOCKED: REMARK   14  A    between atoms: P_18  and  O_20 
DOCKED: REMARK   15  A    between atoms: P_18  and  O_21 
DOCKED: REMARK   16  A    between atoms: O_22  and  P_23 
DOCKED: REMARK   17  A    between atoms: P_23  and  O_25 
DOCKED: REMARK   18  A    between atoms: P_23  and  O_26 
DOCKED: REMARK   19  A    between atoms: O_27  and  P_28 
DOCKED: REMARK   20  A    between atoms: P_28  and  O_30 
DOCKED: REMARK   21  A    between atoms: P_28  and  O_31 
DOCKED: REMARK   22  A    between atoms: O_32  and  P_33 
DOCKED: REMARK   23  A    between atoms: P_33  and  O_35 
DOCKED: REMARK   24  A    between atoms: P_33  and  O_36 
DOCKED: USER                              x       y       z     vdW  Elec       q    Type
DOCKED: USER                           _______ _______ _______ _____ _____    ______ ____
DOCKED: ROOT
DOCKED: ATOM      1  C   UNL d   1     -11.791  -2.494  -4.993 -0.12 -0.00    +0.194 C 
DOCKED: ATOM      2  C   UNL d   1     -11.714  -3.850  -5.697 -0.15 -0.01    +0.194 C 
DOCKED: ATOM      3  C   UNL d   1     -12.580  -3.883  -6.958 -0.14 +0.01    +0.194 C 
DOCKED: ATOM      4  C   UNL d   1     -12.302  -2.722  -7.909 -0.17 +0.02    +0.194 C 
DOCKED: ATOM      5  C   UNL d   1     -12.255  -1.360  -7.229 -0.13 +0.04    +0.194 C 
DOCKED: ATOM      6  C   UNL d   1     -11.440  -1.342  -5.934 -0.13 +0.04    +0.194 C 
DOCKED: ENDROOT
DOCKED: BRANCH   1   7
DOCKED: ATOM      7  O   UNL d   1     -10.831  -2.487  -3.933 -0.14 +0.03    -0.278 OA
DOCKED: BRANCH   7   8
DOCKED: ATOM      8  P   UNL d   1     -11.262  -1.875  -2.522 -0.12 -0.13    +0.473 P 
DOCKED: ATOM      9  O   UNL d   1     -10.254  -0.984  -1.886 -0.26 +0.05    -0.228 OA
DOCKED: BRANCH   8  10
DOCKED: ATOM     10  O   UNL d   1     -12.646  -1.141  -2.826 -0.04 +0.02    -0.303 OA
DOCKED: ATOM     11  H   UNL d   1     -12.486  -0.365  -3.395 +0.05 +0.04    +0.222 HD
DOCKED: ENDBRANCH   8  10
DOCKED: BRANCH   8  12
DOCKED: ATOM     12  O   UNL d   1     -11.730  -3.122  -1.657 -0.10 +0.30    -0.303 OA
DOCKED: ATOM     13  H   UNL d   1     -11.371  -3.112  -0.741 -0.45 -0.45    +0.222 HD
DOCKED: ENDBRANCH   8  12
DOCKED: ENDBRANCH   7   8
DOCKED: ENDBRANCH   1   7
DOCKED: BRANCH   2  14
DOCKED: ATOM     14  O   UNL d   1     -10.354  -4.106  -6.070 -0.18 +0.01    -0.278 OA
DOCKED: BRANCH  14  15
DOCKED: ATOM     15  P   UNL d   1      -9.679  -5.421  -5.453 -0.18 -0.11    +0.473 P 
DOCKED: ATOM     16  O   UNL d   1      -8.681  -5.212  -4.358 -0.33 +0.07    -0.228 OA
DOCKED: BRANCH  15  17
DOCKED: ATOM     17  O   UNL d   1     -10.916  -6.316  -5.000 -0.14 +0.09    -0.303 OA
DOCKED: ATOM     18  H   UNL d   1     -11.448  -6.596  -5.769 +0.08 -0.04    +0.222 HD
DOCKED: ENDBRANCH  15  17
DOCKED: BRANCH  15  19
DOCKED: ATOM     19  O   UNL d   1      -9.149  -6.225  -6.719 -0.69 +0.04    -0.303 OA
DOCKED: ATOM     20  H   UNL d   1      -9.678  -7.028  -6.883 -0.14 -0.05    +0.222 HD
DOCKED: ENDBRANCH  15  19
DOCKED: ENDBRANCH  14  15
DOCKED: ENDBRANCH   2  14
DOCKED: BRANCH   6  21
DOCKED: ATOM     21  O   UNL d   1     -11.770  -0.132  -5.256 -0.12 -0.13    -0.278 OA
DOCKED: BRANCH  21  22
DOCKED: ATOM     22  P   UNL d   1     -13.222   0.504  -5.433 -0.05 +0.27    +0.473 P 
DOCKED: ATOM     23  O   UNL d   1     -14.364  -0.413  -5.717 -0.02 -0.05    -0.228 OA
DOCKED: BRANCH  22  24
DOCKED: ATOM     24  O   UNL d   1     -13.369   1.358  -4.098 -0.06 -0.20    -0.303 OA
DOCKED: ATOM     25  H   UNL d   1     -13.600   0.739  -3.360 +0.03 +0.07    +0.222 HD
DOCKED: ENDBRANCH  22  24
DOCKED: BRANCH  22  26
DOCKED: ATOM     26  O   UNL d   1     -12.948   1.644  -6.527 -0.38 -0.44    -0.303 OA
DOCKED: ATOM     27  H   UNL d   1     -12.703   1.222  -7.376 +0.03 +0.22    +0.222 HD
DOCKED: ENDBRANCH  22  26
DOCKED: ENDBRANCH  21  22
DOCKED: ENDBRANCH   6  21
DOCKED: BRANCH   3  28
DOCKED: ATOM     28  O   UNL d   1     -12.235  -5.056  -7.683 +0.04 -0.03    -0.278 OA
DOCKED: BRANCH  28  29
DOCKED: ATOM     29  P   UNL d   1     -13.005  -6.425  -7.414 +0.06 +0.03    +0.473 P 
DOCKED: ATOM     30  O   UNL d   1     -14.132  -6.718  -8.336 -0.64 -0.03    -0.228 OA
DOCKED: BRANCH  29  31
DOCKED: ATOM     31  O   UNL d   1     -11.772  -7.445  -7.426 -0.15 +0.03    -0.303 OA
DOCKED: ATOM     32  H   UNL d   1     -10.996  -7.005  -7.010 +0.09 -0.03    +0.222 HD
DOCKED: ENDBRANCH  29  31
DOCKED: BRANCH  29  33
DOCKED: ATOM     33  O   UNL d   1     -13.353  -6.312  -5.864 -0.03 +0.03    -0.303 OA
DOCKED: ATOM     34  H   UNL d   1     -12.945  -7.075  -5.387 +0.06 -0.03    +0.222 HD
DOCKED: ENDBRANCH  29  33
DOCKED: ENDBRANCH  28  29
DOCKED: ENDBRANCH   3  28
DOCKED: BRANCH   5  35
DOCKED: ATOM     35  O   UNL d   1     -11.601  -0.490  -8.150 -0.14 -0.09    -0.278 OA
DOCKED: BRANCH  35  36
DOCKED: ATOM     36  P   UNL d   1     -12.408   0.145  -9.370 -0.08 +0.16    +0.473 P 
DOCKED: ATOM     37  O   UNL d   1     -12.240  -0.548 -10.685 -0.16 -0.06    -0.228 OA
DOCKED: BRANCH  36  38
DOCKED: ATOM     38  O   UNL d   1     -13.900   0.138  -8.812 -0.02 -0.09    -0.303 OA
DOCKED: ATOM     39  H   UNL d   1     -14.185  -0.790  -8.668 +0.03 +0.04    +0.222 HD
DOCKED: ENDBRANCH  36  38
DOCKED: BRANCH  36  40
DOCKED: ATOM     40  O   UNL d   1     -11.981   1.676  -9.301 -0.12 -0.18    -0.303 OA
DOCKED: ATOM     41  H   UNL d   1     -12.211   2.079  -8.435 +0.04 +0.23    +0.222 HD
DOCKED: ENDBRANCH  36  40
DOCKED: ENDBRANCH  35  36
DOCKED: ENDBRANCH   5  35
DOCKED: BRANCH   4  42
DOCKED: ATOM     42  O   UNL d   1     -13.382  -2.687  -8.848 -0.08 -0.04    -0.278 OA
DOCKED: BRANCH  42  43
DOCKED: ATOM     43  P   UNL d   1     -14.871  -2.904  -8.318 -0.02 +0.03    +0.473 P 
DOCKED: ATOM     44  O   UNL d   1     -15.166  -2.504  -6.914 -0.01 -0.01    -0.228 OA
DOCKED: BRANCH  43  45
DOCKED: ATOM     45  O   UNL d   1     -15.744  -2.141  -9.409 -0.01 -0.03    -0.303 OA
DOCKED: ATOM     46  H   UNL d   1     -15.505  -1.194  -9.461 +0.02 +0.03    +0.222 HD
DOCKED: ENDBRANCH  43  45
DOCKED: BRANCH  43  47
DOCKED: ATOM     47  O   UNL d   1     -15.168  -4.437  -8.678 -0.04 -0.01    -0.303 OA
DOCKED: ATOM     48  H   UNL d   1     -14.320  -4.919  -8.762 +0.03 +0.02    +0.222 HD
DOCKED: ENDBRANCH  43  47
DOCKED: ENDBRANCH  42  43
DOCKED: ENDBRANCH   4  42
DOCKED: TORSDOF 24
DOCKED: TER
DOCKED: ENDMDL
________________________________________________________________________________


	BEGINNING GENETIC ALGORITHM DOCKING 32 of 100
Run: 32 Seed: 333049530 351514249 [ Run 32 of 100 GA/GALS ]
Beginning LAMARCKIAN GENETIC ALGORITHM (LGA), with a maximum of 25000000 energy evaluations.

Final-Value: -19.018


	FINAL GENETIC ALGORITHM DOCKED STATE
	_______________________________________________


Detailed state:  trans -10.397 8.614 -6.191 quatxyzw 0.162160 -0.858943 -0.354806 -0.331714 center 0.035 0.082 -0.065 ntor 24 107.7074 145.7495 97.8204 62.0751 15.4579 180.0000 -128.0009 -46.7953 39.3054 15.1163 14.9963 -180.0000 -76.8881 132.1636 1.4839 -163.7719 178.2457 -52.0448 11.8954 -10.9787 -31.5061 2.2697 6.2712 -173.3304
State:	-10.397   8.614  -6.191   0.172 -0.910 -0.376 -141.254    107.71  145.75   97.82   62.08   15.46  180.00 -128.00  -46.80   39.31   15.12   15.00 -180.00  -76.89  132.16    1.48 -163.77  178.25  -52.04   11.90  -10.98  -31.51    2.27    6.27 -173.33

DOCKED: MODEL       32
DOCKED: USER    Run = 32
DOCKED: USER    DPF = D:/Protein_go_brrr/autodock/final/mut_K82N/IHP/dock.dpf
DOCKED: USER  
DOCKED: USER    Estimated Free Energy of Binding    =   +1.99 kcal/mol  [=(1)+(2)+(3)-(4)]
DOCKED: USER    
DOCKED: USER    (1) Final Intermolecular Energy     =   -5.17 kcal/mol
DOCKED: USER        vdW + Hbond + desolv Energy     =   -4.92 kcal/mol
DOCKED: USER        Electrostatic Energy            =   -0.25 kcal/mol
DOCKED: USER    (2) Final Total Internal Energy     =  -13.85 kcal/mol
DOCKED: USER    (3) Torsional Free Energy           =   +7.16 kcal/mol
DOCKED: USER    (4) Unbound System's Energy  [=(2)] =  -13.85 kcal/mol
DOCKED: USER    
DOCKED: USER    
DOCKED: USER    NEWDPF move IHP_ideal_opt.pdbqt
DOCKED: USER    NEWDPF about 0.035000 0.082000 -0.065000
DOCKED: USER    NEWDPF tran0 -10.396633 8.614130 -6.191495
DOCKED: USER    NEWDPF quaternion0 0.162160 -0.858943 -0.354806 -0.331714
DOCKED: USER    NEWDPF axisangle0 0.171892 -0.910495 -0.376101 -141.254305
DOCKED: USER    NEWDPF quat0 0.171892 -0.910495 -0.376101 -141.254305
DOCKED: USER    NEWDPF dihe0 107.71 145.75 97.82 62.08 15.46 180.00 -128.00 -46.80 39.31 15.12 15.00 -180.00 -76.89 132.16 1.48 -163.77 178.25 -52.04 11.90 -10.98 -31.51 2.27 6.27 -173.33 
DOCKED: USER  keepresnum = 1 
DOCKED: USER  
DOCKED: REMARK  24 active torsions:
DOCKED: REMARK  status: ('A' for Active; 'I' for Inactive)
DOCKED: REMARK    1  A    between atoms: C_1  and  O_7 
DOCKED: REMARK    2  A    between atoms: C_2  and  O_12 
DOCKED: REMARK    3  A    between atoms: C_3  and  O_17 
DOCKED: REMARK    4  A    between atoms: C_4  and  O_22 
DOCKED: REMARK    5  A    between atoms: C_5  and  O_27 
DOCKED: REMARK    6  A    between atoms: C_6  and  O_32 
DOCKED: REMARK    7  A    between atoms: O_7  and  P_8 
DOCKED: REMARK    8  A    between atoms: P_8  and  O_10 
DOCKED: REMARK    9  A    between atoms: P_8  and  O_11 
DOCKED: REMARK   10  A    between atoms: O_12  and  P_13 
DOCKED: REMARK   11  A    between atoms: P_13  and  O_15 
DOCKED: REMARK   12  A    between atoms: P_13  and  O_16 
DOCKED: REMARK   13  A    between atoms: O_17  and  P_18 
DOCKED: REMARK   14  A    between atoms: P_18  and  O_20 
DOCKED: REMARK   15  A    between atoms: P_18  and  O_21 
DOCKED: REMARK   16  A    between atoms: O_22  and  P_23 
DOCKED: REMARK   17  A    between atoms: P_23  and  O_25 
DOCKED: REMARK   18  A    between atoms: P_23  and  O_26 
DOCKED: REMARK   19  A    between atoms: O_27  and  P_28 
DOCKED: REMARK   20  A    between atoms: P_28  and  O_30 
DOCKED: REMARK   21  A    between atoms: P_28  and  O_31 
DOCKED: REMARK   22  A    between atoms: O_32  and  P_33 
DOCKED: REMARK   23  A    between atoms: P_33  and  O_35 
DOCKED: REMARK   24  A    between atoms: P_33  and  O_36 
DOCKED: USER                              x       y       z     vdW  Elec       q    Type
DOCKED: USER                           _______ _______ _______ _____ _____    ______ ____
DOCKED: ROOT
DOCKED: ATOM      1  C   UNL d   1     -11.811   7.749  -6.676 -0.08 +0.13    +0.194 C 
DOCKED: ATOM      2  C   UNL d   1     -10.616   7.646  -7.625 -0.10 +0.11    +0.194 C 
DOCKED: ATOM      3  C   UNL d   1      -9.932   9.001  -7.824 -0.12 +0.06    +0.194 C 
DOCKED: ATOM      4  C   UNL d   1      -9.569   9.689  -6.511 -0.22 +0.06    +0.194 C 
DOCKED: ATOM      5  C   UNL d   1     -10.698   9.713  -5.489 -0.17 +0.06    +0.194 C 
DOCKED: ATOM      6  C   UNL d   1     -11.423   8.374  -5.335 -0.14 +0.10    +0.194 C 
DOCKED: ENDROOT
DOCKED: BRANCH   1   7
DOCKED: ATOM      7  O   UNL d   1     -12.284   6.427  -6.409 -0.30 -0.43    -0.278 OA
DOCKED: BRANCH   7   8
DOCKED: ATOM      8  P   UNL d   1     -13.701   5.993  -7.005 -0.01 +0.47    +0.473 P 
DOCKED: ATOM      9  O   UNL d   1     -14.645   7.113  -7.268 -0.01 -0.09    -0.228 OA
DOCKED: BRANCH   8  10
DOCKED: ATOM     10  O   UNL d   1     -13.331   5.163  -8.317 -0.04 -0.27    -0.303 OA
DOCKED: ATOM     11  H   UNL d   1     -12.704   5.674  -8.861 +0.02 +0.16    +0.222 HD
DOCKED: ENDBRANCH   8  10
DOCKED: BRANCH   8  12
DOCKED: ATOM     12  O   UNL d   1     -14.228   4.855  -6.030 -0.35 -0.38    -0.303 OA
DOCKED: ATOM     13  H   UNL d   1     -14.894   5.180  -5.382 +0.01 +0.16    +0.222 HD
DOCKED: ENDBRANCH   8  12
DOCKED: ENDBRANCH   7   8
DOCKED: ENDBRANCH   1   7
DOCKED: BRANCH   2  14
DOCKED: ATOM     14  O   UNL d   1      -9.662   6.729  -7.077 -0.32 -0.24    -0.278 OA
DOCKED: BRANCH  14  15
DOCKED: ATOM     15  P   UNL d   1      -9.302   5.450  -7.971 -0.10 +0.43    +0.473 P 
DOCKED: ATOM     16  O   UNL d   1      -8.445   4.403  -7.332 -0.42 -0.20    -0.228 OA
DOCKED: BRANCH  15  17
DOCKED: ATOM     17  O   UNL d   1     -10.719   4.890  -8.435 -0.20 -0.39    -0.303 OA
DOCKED: ATOM     18  H   UNL d   1     -11.445   5.455  -8.106 +0.03 +0.31    +0.222 HD
DOCKED: ENDBRANCH  15  17
DOCKED: BRANCH  15  19
DOCKED: ATOM     19  O   UNL d   1      -8.740   6.062  -9.328 -0.09 -0.10    -0.303 OA
DOCKED: ATOM     20  H   UNL d   1      -8.706   7.036  -9.298 +0.07 +0.06    +0.222 HD
DOCKED: ENDBRANCH  15  19
DOCKED: ENDBRANCH  14  15
DOCKED: ENDBRANCH   2  14
DOCKED: BRANCH   6  21
DOCKED: ATOM     21  O   UNL d   1     -12.633   8.639  -4.631 -0.04 -0.11    -0.278 OA
DOCKED: BRANCH  21  22
DOCKED: ATOM     22  P   UNL d   1     -13.064   7.700  -3.415 -0.06 +0.20    +0.473 P 
DOCKED: ATOM     23  O   UNL d   1     -11.988   7.077  -2.591 -0.22 -0.10    -0.228 OA
DOCKED: BRANCH  22  24
DOCKED: ATOM     24  O   UNL d   1     -14.059   8.645  -2.610 -0.02 -0.07    -0.303 OA
DOCKED: ATOM     25  H   UNL d   1     -13.606   9.514  -2.462 +0.05 +0.04    +0.222 HD
DOCKED: ENDBRANCH  22  24
DOCKED: BRANCH  22  26
DOCKED: ATOM     26  O   UNL d   1     -14.078   6.685  -4.131 -0.08 -0.17    -0.303 OA
DOCKED: ATOM     27  H   UNL d   1     -14.076   6.855  -5.095 +0.03 +0.14    +0.222 HD
DOCKED: ENDBRANCH  22  26
DOCKED: ENDBRANCH  21  22
DOCKED: ENDBRANCH   6  21
DOCKED: BRANCH   3  28
DOCKED: ATOM     28  O   UNL d   1      -8.694   8.762  -8.481 -0.12 -0.06    -0.278 OA
DOCKED: BRANCH  28  29
DOCKED: ATOM     29  P   UNL d   1      -8.461   9.276  -9.970 -0.06 +0.06    +0.473 P 
DOCKED: ATOM     30  O   UNL d   1      -7.067   9.173 -10.473 -0.15 -0.00    -0.228 OA
DOCKED: BRANCH  29  31
DOCKED: ATOM     31  O   UNL d   1      -9.575   8.422 -10.738 -0.02 -0.05    -0.303 OA
DOCKED: ATOM     32  H   UNL d   1      -9.250   7.496 -10.833 +0.05 +0.04    +0.222 HD
DOCKED: ENDBRANCH  29  31
DOCKED: BRANCH  29  33
DOCKED: ATOM     33  O   UNL d   1      -9.104  10.732  -9.925 -0.32 -0.08    -0.303 OA
DOCKED: ATOM     34  H   UNL d   1      -9.273  10.980  -8.983 +0.08 +0.06    +0.222 HD
DOCKED: ENDBRANCH  29  33
DOCKED: ENDBRANCH  28  29
DOCKED: ENDBRANCH   3  28
DOCKED: BRANCH   5  35
DOCKED: ATOM     35  O   UNL d   1     -10.081  10.002  -4.236 -0.30 -0.08    -0.278 OA
DOCKED: BRANCH  35  36
DOCKED: ATOM     36  P   UNL d   1     -10.750  11.046  -3.232 -0.19 +0.11    +0.473 P 
DOCKED: ATOM     37  O   UNL d   1      -9.806  12.000  -2.571 -0.25 -0.04    -0.228 OA
DOCKED: BRANCH  36  38
DOCKED: ATOM     38  O   UNL d   1     -11.839  11.742  -4.163 -0.09 -0.08    -0.303 OA
DOCKED: ATOM     39  H   UNL d   1     -11.512  11.750  -5.088 +0.09 +0.06    +0.222 HD
DOCKED: ENDBRANCH  36  38
DOCKED: BRANCH  36  40
DOCKED: ATOM     40  O   UNL d   1     -11.606  10.101  -2.281 -0.09 -0.07    -0.303 OA
DOCKED: ATOM     41  H   UNL d   1     -11.867   9.269  -2.734 +0.09 +0.06    +0.222 HD
DOCKED: ENDBRANCH  36  40
DOCKED: ENDBRANCH  35  36
DOCKED: ENDBRANCH   5  35
DOCKED: BRANCH   4  42
DOCKED: ATOM     42  O   UNL d   1      -9.259  11.050  -6.828 -0.08 -0.07    -0.278 OA
DOCKED: BRANCH  42  43
DOCKED: ATOM     43  P   UNL d   1     -10.453  12.057  -7.153 -0.14 +0.15    +0.473 P 
DOCKED: ATOM     44  O   UNL d   1     -11.826  11.486  -7.249 -0.05 -0.06    -0.228 OA
DOCKED: BRANCH  43  45
DOCKED: ATOM     45  O   UNL d   1     -10.288  13.169  -6.027 -0.22 -0.16    -0.303 OA
DOCKED: ATOM     46  H   UNL d   1     -10.336  12.781  -5.131 +0.10 +0.09    +0.222 HD
DOCKED: ENDBRANCH  43  45
DOCKED: BRANCH  43  47
DOCKED: ATOM     47  O   UNL d   1      -9.934  12.833  -8.456 -0.22 -0.12    -0.303 OA
DOCKED: ATOM     48  H   UNL d   1      -9.041  12.506  -8.692 -0.15 +0.06    +0.222 HD
DOCKED: ENDBRANCH  43  47
DOCKED: ENDBRANCH  42  43
DOCKED: ENDBRANCH   4  42
DOCKED: TORSDOF 24
DOCKED: TER
DOCKED: ENDMDL
________________________________________________________________________________


	BEGINNING GENETIC ALGORITHM DOCKING 33 of 100
Run: 33 Seed: 409460858 2093707505 [ Run 33 of 100 GA/GALS ]
Beginning LAMARCKIAN GENETIC ALGORITHM (LGA), with a maximum of 25000000 energy evaluations.

Final-Value: -17.945


	FINAL GENETIC ALGORITHM DOCKED STATE
	_______________________________________________


Detailed state:  trans -11.454 -11.922 -11.422 quatxyzw 0.718484 -0.393484 0.229704 0.525535 center 0.035 0.082 -0.065 ntor 24 -118.8227 -5.6878 178.2603 -15.8293 -72.8862 173.5410 -34.6942 -179.8964 143.2386 -3.9425 -114.8079 -67.6176 91.5788 -163.8562 -127.5680 -41.7371 167.3228 30.8354 -21.5768 10.7445 142.7493 133.8077 178.5936 180.0000
State:	-11.454 -11.922 -11.422   0.845 -0.463  0.270 116.591   -118.82   -5.69  178.26  -15.83  -72.89  173.54  -34.69 -179.90  143.24   -3.94 -114.81  -67.62   91.58 -163.86 -127.57  -41.74  167.32   30.84  -21.58   10.74  142.75  133.81  178.59  180.00

DOCKED: MODEL       33
DOCKED: USER    Run = 33
DOCKED: USER    DPF = D:/Protein_go_brrr/autodock/final/mut_K82N/IHP/dock.dpf
DOCKED: USER  
DOCKED: USER    Estimated Free Energy of Binding    =   +3.07 kcal/mol  [=(1)+(2)+(3)-(4)]
DOCKED: USER    
DOCKED: USER    (1) Final Intermolecular Energy     =   -4.09 kcal/mol
DOCKED: USER        vdW + Hbond + desolv Energy     =   -3.62 kcal/mol
DOCKED: USER        Electrostatic Energy            =   -0.47 kcal/mol
DOCKED: USER    (2) Final Total Internal Energy     =  -13.86 kcal/mol
DOCKED: USER    (3) Torsional Free Energy           =   +7.16 kcal/mol
DOCKED: USER    (4) Unbound System's Energy  [=(2)] =  -13.86 kcal/mol
DOCKED: USER    
DOCKED: USER    
DOCKED: USER    NEWDPF move IHP_ideal_opt.pdbqt
DOCKED: USER    NEWDPF about 0.035000 0.082000 -0.065000
DOCKED: USER    NEWDPF tran0 -11.453619 -11.921938 -11.421844
DOCKED: USER    NEWDPF quaternion0 0.718484 -0.393484 0.229704 0.525535
DOCKED: USER    NEWDPF axisangle0 0.844508 -0.462502 0.269995 116.591467
DOCKED: USER    NEWDPF quat0 0.844508 -0.462502 0.269995 116.591467
DOCKED: USER    NEWDPF dihe0 -118.82 -5.69 178.26 -15.83 -72.89 173.54 -34.69 -179.90 143.24 -3.94 -114.81 -67.62 91.58 -163.86 -127.57 -41.74 167.32 30.84 -21.58 10.74 142.75 133.81 178.59 180.00 
DOCKED: USER  keepresnum = 1 
DOCKED: USER  
DOCKED: REMARK  24 active torsions:
DOCKED: REMARK  status: ('A' for Active; 'I' for Inactive)
DOCKED: REMARK    1  A    between atoms: C_1  and  O_7 
DOCKED: REMARK    2  A    between atoms: C_2  and  O_12 
DOCKED: REMARK    3  A    between atoms: C_3  and  O_17 
DOCKED: REMARK    4  A    between atoms: C_4  and  O_22 
DOCKED: REMARK    5  A    between atoms: C_5  and  O_27 
DOCKED: REMARK    6  A    between atoms: C_6  and  O_32 
DOCKED: REMARK    7  A    between atoms: O_7  and  P_8 
DOCKED: REMARK    8  A    between atoms: P_8  and  O_10 
DOCKED: REMARK    9  A    between atoms: P_8  and  O_11 
DOCKED: REMARK   10  A    between atoms: O_12  and  P_13 
DOCKED: REMARK   11  A    between atoms: P_13  and  O_15 
DOCKED: REMARK   12  A    between atoms: P_13  and  O_16 
DOCKED: REMARK   13  A    between atoms: O_17  and  P_18 
DOCKED: REMARK   14  A    between atoms: P_18  and  O_20 
DOCKED: REMARK   15  A    between atoms: P_18  and  O_21 
DOCKED: REMARK   16  A    between atoms: O_22  and  P_23 
DOCKED: REMARK   17  A    between atoms: P_23  and  O_25 
DOCKED: REMARK   18  A    between atoms: P_23  and  O_26 
DOCKED: REMARK   19  A    between atoms: O_27  and  P_28 
DOCKED: REMARK   20  A    between atoms: P_28  and  O_30 
DOCKED: REMARK   21  A    between atoms: P_28  and  O_31 
DOCKED: REMARK   22  A    between atoms: O_32  and  P_33 
DOCKED: REMARK   23  A    between atoms: P_33  and  O_35 
DOCKED: REMARK   24  A    between atoms: P_33  and  O_36 
DOCKED: USER                              x       y       z     vdW  Elec       q    Type
DOCKED: USER                           _______ _______ _______ _____ _____    ______ ____
DOCKED: ROOT
DOCKED: ATOM      1  C   UNL d   1      -9.845 -12.356 -10.966 -0.00 -0.01    +0.194 C 
DOCKED: ATOM      2  C   UNL d   1     -10.589 -11.450  -9.983 -0.07 -0.03    +0.194 C 
DOCKED: ATOM      3  C   UNL d   1     -11.354 -10.339 -10.705 -0.17 -0.06    +0.194 C 
DOCKED: ATOM      4  C   UNL d   1     -12.266 -10.859 -11.814 -0.06 -0.05    +0.194 C 
DOCKED: ATOM      5  C   UNL d   1     -11.596 -11.855 -12.751 -0.03 -0.04    +0.194 C 
DOCKED: ATOM      6  C   UNL d   1     -10.780 -12.931 -12.031 -0.03 -0.01    +0.194 C 
DOCKED: ENDROOT
DOCKED: BRANCH   1   7
DOCKED: ATOM      7  O   UNL d   1      -9.304 -13.459 -10.234 -0.09 +0.00    -0.278 OA
DOCKED: BRANCH   7   8
DOCKED: ATOM      8  P   UNL d   1      -7.882 -14.039 -10.677 -0.06 +0.03    +0.473 P 
DOCKED: ATOM      9  O   UNL d   1      -7.009 -14.488  -9.559 -0.17 -0.02    -0.228 OA
DOCKED: BRANCH   8  10
DOCKED: ATOM     10  O   UNL d   1      -8.244 -15.207 -11.701 -0.01 -0.02    -0.303 OA
DOCKED: ATOM     11  H   UNL d   1      -8.393 -14.830 -12.588 +0.03 +0.03    +0.222 HD
DOCKED: ENDBRANCH   8  10
DOCKED: BRANCH   8  12
DOCKED: ATOM     12  O   UNL d   1      -7.266 -12.934 -11.638 -0.13 -0.08    -0.303 OA
DOCKED: ATOM     13  H   UNL d   1      -7.883 -12.657 -12.352 +0.07 +0.08    +0.222 HD
DOCKED: ENDBRANCH   8  12
DOCKED: ENDBRANCH   7   8
DOCKED: ENDBRANCH   1   7
DOCKED: BRANCH   2  14
DOCKED: ATOM     14  O   UNL d   1     -11.524 -12.239  -9.237 -0.06 +0.04    -0.278 OA
DOCKED: BRANCH  14  15
DOCKED: ATOM     15  P   UNL d   1     -11.707 -11.862  -7.692 -0.06 -0.08    +0.473 P 
DOCKED: ATOM     16  O   UNL d   1     -11.139 -12.822  -6.694 -0.13 +0.03    -0.228 OA
DOCKED: BRANCH  15  17
DOCKED: ATOM     17  O   UNL d   1     -11.077 -10.403  -7.572 -0.18 +0.09    -0.303 OA
DOCKED: ATOM     18  H   UNL d   1     -11.719  -9.720  -7.845 +0.07 -0.05    +0.222 HD
DOCKED: ENDBRANCH  15  17
DOCKED: BRANCH  15  19
DOCKED: ATOM     19  O   UNL d   1     -13.260 -11.553  -7.539 -0.01 +0.04    -0.303 OA
DOCKED: ATOM     20  H   UNL d   1     -13.492 -10.683  -7.913 +0.03 -0.03    +0.222 HD
DOCKED: ENDBRANCH  15  19
DOCKED: ENDBRANCH  14  15
DOCKED: ENDBRANCH   2  14
DOCKED: BRANCH   6  21
DOCKED: ATOM     21  O   UNL d   1      -9.959 -13.554 -13.016 -0.02 -0.01    -0.278 OA
DOCKED: BRANCH  21  22
DOCKED: ATOM     22  P   UNL d   1      -9.259 -12.665 -14.141 -0.06 +0.12    +0.473 P 
DOCKED: ATOM     23  O   UNL d   1      -9.921 -12.566 -15.474 -0.07 -0.01    -0.228 OA
DOCKED: BRANCH  22  24
DOCKED: ATOM     24  O   UNL d   1      -9.067 -11.276 -13.386 -0.33 +0.02    -0.303 OA
DOCKED: ATOM     25  H   UNL d   1      -9.285 -10.548 -14.022 -0.38 -0.22    +0.222 HD
DOCKED: ENDBRANCH  22  24
DOCKED: BRANCH  22  26
DOCKED: ATOM     26  O   UNL d   1      -7.767 -13.251 -14.138 -0.53 -0.30    -0.303 OA
DOCKED: ATOM     27  H   UNL d   1      -7.701 -13.960 -13.466 +0.04 +0.10    +0.222 HD
DOCKED: ENDBRANCH  22  26
DOCKED: ENDBRANCH  21  22
DOCKED: ENDBRANCH   6  21
DOCKED: BRANCH   3  28
DOCKED: ATOM     28  O   UNL d   1     -12.222  -9.731  -9.756 -0.09 +0.08    -0.278 OA
DOCKED: BRANCH  28  29
DOCKED: ATOM     29  P   UNL d   1     -13.802  -9.824  -9.937 -0.03 -0.07    +0.473 P 
DOCKED: ATOM     30  O   UNL d   1     -14.359  -9.081 -11.096 -0.05 +0.03    -0.228 OA
DOCKED: BRANCH  29  31
DOCKED: ATOM     31  O   UNL d   1     -13.990 -11.414  -9.935 -0.01 +0.03    -0.303 OA
DOCKED: ATOM     32  H   UNL d   1     -13.177 -11.825  -9.561 +0.03 -0.03    +0.222 HD
DOCKED: ENDBRANCH  29  31
DOCKED: BRANCH  29  33
DOCKED: ATOM     33  O   UNL d   1     -14.328  -9.406  -8.494 -0.03 +0.02    -0.303 OA
DOCKED: ATOM     34  H   UNL d   1     -14.867 -10.146  -8.121 +0.02 -0.02    +0.222 HD
DOCKED: ENDBRANCH  29  33
DOCKED: ENDBRANCH  28  29
DOCKED: ENDBRANCH   3  28
DOCKED: BRANCH   5  35
DOCKED: ATOM     35  O   UNL d   1     -12.658 -12.520 -13.432 +0.00 +0.04    -0.278 OA
DOCKED: BRANCH  35  36
DOCKED: ATOM     36  P   UNL d   1     -13.866 -13.159 -12.609 +0.01 -0.05    +0.473 P 
DOCKED: ATOM     37  O   UNL d   1     -14.482 -14.381 -13.212 +0.00 +0.02    -0.228 OA
DOCKED: BRANCH  36  38
DOCKED: ATOM     38  O   UNL d   1     -13.198 -13.399 -11.183 +0.00 +0.03    -0.303 OA
DOCKED: ATOM     39  H   UNL d   1     -13.087 -12.535 -10.731 +0.02 -0.02    +0.222 HD
DOCKED: ENDBRANCH  36  38
DOCKED: BRANCH  36  40
DOCKED: ATOM     40  O   UNL d   1     -14.820 -11.908 -12.379 +0.00 +0.03    -0.303 OA
DOCKED: ATOM     41  H   UNL d   1     -14.318 -11.116 -12.085 +0.02 -0.03    +0.222 HD
DOCKED: ENDBRANCH  36  40
DOCKED: ENDBRANCH  35  36
DOCKED: ENDBRANCH   5  35
DOCKED: BRANCH   4  42
DOCKED: ATOM     42  O   UNL d   1     -12.644  -9.726 -12.604 -0.07 +0.11    -0.278 OA
DOCKED: BRANCH  42  43
DOCKED: ATOM     43  P   UNL d   1     -11.537  -9.004 -13.497 -0.02 -0.47    +0.473 P 
DOCKED: ATOM     44  O   UNL d   1     -11.134  -9.674 -14.765 -0.11 +0.26    -0.228 OA
DOCKED: BRANCH  43  45
DOCKED: ATOM     45  O   UNL d   1     -12.145  -7.547 -13.695 -0.14 +0.30    -0.303 OA
DOCKED: ATOM     46  H   UNL d   1     -11.505  -6.948 -14.129 -0.47 -0.40    +0.222 HD
DOCKED: ENDBRANCH  43  45
DOCKED: BRANCH  43  47
DOCKED: ATOM     47  O   UNL d   1     -10.352  -8.724 -12.455 -0.31 +0.33    -0.303 OA
DOCKED: ATOM     48  H   UNL d   1      -9.585  -9.290 -12.679 +0.03 -0.24    +0.222 HD
DOCKED: ENDBRANCH  43  47
DOCKED: ENDBRANCH  42  43
DOCKED: ENDBRANCH   4  42
DOCKED: TORSDOF 24
DOCKED: TER
DOCKED: ENDMDL
________________________________________________________________________________


	BEGINNING GENETIC ALGORITHM DOCKING 34 of 100
Run: 34 Seed: 1235172489 2119408372 [ Run 34 of 100 GA/GALS ]
Beginning LAMARCKIAN GENETIC ALGORITHM (LGA), with a maximum of 25000000 energy evaluations.

Final-Value: -16.422


	FINAL GENETIC ALGORITHM DOCKED STATE
	_______________________________________________


Detailed state:  trans 10.779 -13.554 15.812 quatxyzw -0.162561 -0.781967 -0.599043 0.056997 center 0.035 0.082 -0.065 ntor 24 75.9230 73.7496 80.2673 174.9172 124.6987 86.8574 -77.7600 -7.6510 21.4317 67.6564 53.1104 103.8745 -172.1546 -123.6963 -179.9403 36.9986 -58.9758 170.1830 -28.9335 -41.2479 11.8587 -58.2114 -173.3567 20.1232
State:	 10.779 -13.554  15.812  -0.163 -0.783 -0.600 173.465     75.92   73.75   80.27  174.92  124.70   86.86  -77.76   -7.65   21.43   67.66   53.11  103.87 -172.15 -123.70 -179.94   37.00  -58.98  170.18  -28.93  -41.25   11.86  -58.21 -173.36   20.12

DOCKED: MODEL       34
DOCKED: USER    Run = 34
DOCKED: USER    DPF = D:/Protein_go_brrr/autodock/final/mut_K82N/IHP/dock.dpf
DOCKED: USER  
DOCKED: USER    Estimated Free Energy of Binding    =   +3.39 kcal/mol  [=(1)+(2)+(3)-(4)]
DOCKED: USER    
DOCKED: USER    (1) Final Intermolecular Energy     =   -3.77 kcal/mol
DOCKED: USER        vdW + Hbond + desolv Energy     =   -3.72 kcal/mol
DOCKED: USER        Electrostatic Energy            =   -0.06 kcal/mol
DOCKED: USER    (2) Final Total Internal Energy     =  -12.65 kcal/mol
DOCKED: USER    (3) Torsional Free Energy           =   +7.16 kcal/mol
DOCKED: USER    (4) Unbound System's Energy  [=(2)] =  -12.65 kcal/mol
DOCKED: USER    
DOCKED: USER    
DOCKED: USER    NEWDPF move IHP_ideal_opt.pdbqt
DOCKED: USER    NEWDPF about 0.035000 0.082000 -0.065000
DOCKED: USER    NEWDPF tran0 10.779192 -13.554347 15.811551
DOCKED: USER    NEWDPF quaternion0 -0.162561 -0.781967 -0.599043 0.056997
DOCKED: USER    NEWDPF axisangle0 -0.162826 -0.783240 -0.600019 173.465090
DOCKED: USER    NEWDPF quat0 -0.162826 -0.783240 -0.600019 173.465090
DOCKED: USER    NEWDPF dihe0 75.92 73.75 80.27 174.92 124.70 86.86 -77.76 -7.65 21.43 67.66 53.11 103.87 -172.15 -123.70 -179.94 37.00 -58.98 170.18 -28.93 -41.25 11.86 -58.21 -173.36 20.12 
DOCKED: USER  keepresnum = 1 
DOCKED: USER  
DOCKED: REMARK  24 active torsions:
DOCKED: REMARK  status: ('A' for Active; 'I' for Inactive)
DOCKED: REMARK    1  A    between atoms: C_1  and  O_7 
DOCKED: REMARK    2  A    between atoms: C_2  and  O_12 
DOCKED: REMARK    3  A    between atoms: C_3  and  O_17 
DOCKED: REMARK    4  A    between atoms: C_4  and  O_22 
DOCKED: REMARK    5  A    between atoms: C_5  and  O_27 
DOCKED: REMARK    6  A    between atoms: C_6  and  O_32 
DOCKED: REMARK    7  A    between atoms: O_7  and  P_8 
DOCKED: REMARK    8  A    between atoms: P_8  and  O_10 
DOCKED: REMARK    9  A    between atoms: P_8  and  O_11 
DOCKED: REMARK   10  A    between atoms: O_12  and  P_13 
DOCKED: REMARK   11  A    between atoms: P_13  and  O_15 
DOCKED: REMARK   12  A    between atoms: P_13  and  O_16 
DOCKED: REMARK   13  A    between atoms: O_17  and  P_18 
DOCKED: REMARK   14  A    between atoms: P_18  and  O_20 
DOCKED: REMARK   15  A    between atoms: P_18  and  O_21 
DOCKED: REMARK   16  A    between atoms: O_22  and  P_23 
DOCKED: REMARK   17  A    between atoms: P_23  and  O_25 
DOCKED: REMARK   18  A    between atoms: P_23  and  O_26 
DOCKED: REMARK   19  A    between atoms: O_27  and  P_28 
DOCKED: REMARK   20  A    between atoms: P_28  and  O_30 
DOCKED: REMARK   21  A    between atoms: P_28  and  O_31 
DOCKED: REMARK   22  A    between atoms: O_32  and  P_33 
DOCKED: REMARK   23  A    between atoms: P_33  and  O_35 
DOCKED: REMARK   24  A    between atoms: P_33  and  O_36 
DOCKED: USER                              x       y       z     vdW  Elec       q    Type
DOCKED: USER                           _______ _______ _______ _____ _____    ______ ____
DOCKED: ROOT
DOCKED: ATOM      1  C   UNL d   1       9.660 -12.628  14.877 -0.13 -0.01    +0.194 C 
DOCKED: ATOM      2  C   UNL d   1      10.580 -13.553  14.079 -0.12 -0.03    +0.194 C 
DOCKED: ATOM      3  C   UNL d   1      12.020 -13.501  14.592 -0.08 -0.01    +0.194 C 
DOCKED: ATOM      4  C   UNL d   1      12.132 -13.733  16.097 -0.05 -0.01    +0.194 C 
DOCKED: ATOM      5  C   UNL d   1      11.152 -12.913  16.926 -0.07 -0.01    +0.194 C 
DOCKED: ATOM      6  C   UNL d   1       9.723 -12.916  16.378 -0.10 -0.01    +0.194 C 
DOCKED: ENDROOT
DOCKED: BRANCH   1   7
DOCKED: ATOM      7  O   UNL d   1       8.315 -12.862  14.455 -0.21 +0.04    -0.278 OA
DOCKED: BRANCH   7   8
DOCKED: ATOM      8  P   UNL d   1       7.266 -11.661  14.556 -0.25 -0.05    +0.473 P 
DOCKED: ATOM      9  O   UNL d   1       6.083 -11.928  15.419 -0.26 +0.03    -0.228 OA
DOCKED: BRANCH   8  10
DOCKED: ATOM     10  O   UNL d   1       8.142 -10.425  15.056 -0.25 +0.00    -0.303 OA
DOCKED: ATOM     11  H   UNL d   1       8.252 -10.472  16.024 +0.11 +0.00    +0.222 HD
DOCKED: ENDBRANCH   8  10
DOCKED: BRANCH   8  12
DOCKED: ATOM     12  O   UNL d   1       6.952 -11.260  13.051 -0.41 +0.04    -0.303 OA
DOCKED: ATOM     13  H   UNL d   1       7.047 -12.011  12.424 +0.20 -0.02    +0.222 HD
DOCKED: ENDBRANCH   8  12
DOCKED: ENDBRANCH   7   8
DOCKED: ENDBRANCH   1   7
DOCKED: BRANCH   2  14
DOCKED: ATOM     14  O   UNL d   1      10.102 -14.900  14.196 -0.08 +0.06    -0.278 OA
DOCKED: BRANCH  14  15
DOCKED: ATOM     15  P   UNL d   1       9.053 -15.386  13.088 -0.18 -0.14    +0.473 P 
DOCKED: ATOM     16  O   UNL d   1       7.699 -14.750  13.121 -0.35 +0.07    -0.228 OA
DOCKED: BRANCH  15  17
DOCKED: ATOM     17  O   UNL d   1       9.811 -15.152  11.707 -0.20 +0.13    -0.303 OA
DOCKED: ATOM     18  H   UNL d   1      10.585 -14.569  11.825 +0.08 -0.09    +0.222 HD
DOCKED: ENDBRANCH  15  17
DOCKED: BRANCH  15  19
DOCKED: ATOM     19  O   UNL d   1       9.068 -16.973  13.197 -0.82 +0.12    -0.303 OA
DOCKED: ATOM     20  H   UNL d   1       8.208 -17.322  13.495 -0.28 -0.22    +0.222 HD
DOCKED: ENDBRANCH  15  19
DOCKED: ENDBRANCH  14  15
DOCKED: ENDBRANCH   2  14
DOCKED: BRANCH   6  21
DOCKED: ATOM     21  O   UNL d   1       9.027 -11.861  17.036 -0.08 +0.01    -0.278 OA
DOCKED: BRANCH  21  22
DOCKED: ATOM     22  P   UNL d   1       8.248 -12.154  18.397 -0.01 -0.02    +0.473 P 
DOCKED: ATOM     23  O   UNL d   1       7.036 -11.341  18.705 -0.04 +0.01    -0.228 OA
DOCKED: BRANCH  22  24
DOCKED: ATOM     24  O   UNL d   1       7.992 -13.722  18.294 -0.04 +0.03    -0.303 OA
DOCKED: ATOM     25  H   UNL d   1       8.870 -14.173  18.210 +0.03 -0.02    +0.222 HD
DOCKED: ENDBRANCH  22  24
DOCKED: BRANCH  22  26
DOCKED: ATOM     26  O   UNL d   1       9.434 -12.083  19.473 -0.01 +0.01    -0.303 OA
DOCKED: ATOM     27  H   UNL d   1       9.853 -12.964  19.549 +0.01 -0.01    +0.222 HD
DOCKED: ENDBRANCH  22  26
DOCKED: ENDBRANCH  21  22
DOCKED: ENDBRANCH   6  21
DOCKED: BRANCH   3  28
DOCKED: ATOM     28  O   UNL d   1      12.729 -14.577  13.990 -0.02 +0.03    -0.278 OA
DOCKED: BRANCH  28  29
DOCKED: ATOM     29  P   UNL d   1      12.707 -14.770  12.410 +0.01 -0.06    +0.473 P 
DOCKED: ATOM     30  O   UNL d   1      12.136 -13.639  11.634 -0.08 +0.05    -0.228 OA
DOCKED: BRANCH  29  31
DOCKED: ATOM     31  O   UNL d   1      14.246 -15.125  12.150 -0.00 +0.02    -0.303 OA
DOCKED: ATOM     32  H   UNL d   1      14.786 -14.725  12.871 +0.01 -0.01    +0.222 HD
DOCKED: ENDBRANCH  29  31
DOCKED: BRANCH  29  33
DOCKED: ATOM     33  O   UNL d   1      11.989 -16.183  12.256 -0.02 +0.05    -0.303 OA
DOCKED: ATOM     34  H   UNL d   1      11.147 -16.173  12.773 +0.06 -0.05    +0.222 HD
DOCKED: ENDBRANCH  29  33
DOCKED: ENDBRANCH  28  29
DOCKED: ENDBRANCH   3  28
DOCKED: BRANCH   5  35
DOCKED: ATOM     35  O   UNL d   1      11.111 -13.539  18.207 -0.02 +0.01    -0.278 OA
DOCKED: BRANCH  35  36
DOCKED: ATOM     36  P   UNL d   1      11.054 -15.128  18.325 -0.00 -0.04    +0.473 P 
DOCKED: ATOM     37  O   UNL d   1      10.707 -15.857  17.066 -0.02 +0.03    -0.228 OA
DOCKED: BRANCH  36  38
DOCKED: ATOM     38  O   UNL d   1      12.501 -15.465  18.898 -0.00 +0.02    -0.303 OA
DOCKED: ATOM     39  H   UNL d   1      13.176 -14.992  18.364 +0.01 -0.01    +0.222 HD
DOCKED: ENDBRANCH  36  38
DOCKED: BRANCH  36  40
DOCKED: ATOM     40  O   UNL d   1      10.090 -15.342  19.572 -0.01 +0.03    -0.303 OA
DOCKED: ATOM     41  H   UNL d   1       9.474 -14.585  19.690 +0.01 -0.02    +0.222 HD
DOCKED: ENDBRANCH  36  40
DOCKED: ENDBRANCH  35  36
DOCKED: ENDBRANCH   5  35
DOCKED: BRANCH   4  42
DOCKED: ATOM     42  O   UNL d   1      13.450 -13.329  16.482 -0.04 +0.01    -0.278 OA
DOCKED: BRANCH  42  43
DOCKED: ATOM     43  P   UNL d   1      14.621 -14.413  16.478 -0.01 -0.02    +0.473 P 
DOCKED: ATOM     44  O   UNL d   1      15.656 -14.310  17.544 -0.00 +0.01    -0.228 OA
DOCKED: BRANCH  43  45
DOCKED: ATOM     45  O   UNL d   1      13.823 -15.789  16.476 -0.00 +0.02    -0.303 OA
DOCKED: ATOM     46  H   UNL d   1      12.904 -15.670  16.789 +0.01 -0.02    +0.222 HD
DOCKED: ENDBRANCH  43  45
DOCKED: BRANCH  43  47
DOCKED: ATOM     47  O   UNL d   1      15.170 -14.353  14.973 -0.01 +0.01    -0.303 OA
DOCKED: ATOM     48  H   UNL d   1      14.551 -14.833  14.384 +0.01 -0.01    +0.222 HD
DOCKED: ENDBRANCH  43  47
DOCKED: ENDBRANCH  42  43
DOCKED: ENDBRANCH   4  42
DOCKED: TORSDOF 24
DOCKED: TER
DOCKED: ENDMDL
________________________________________________________________________________


	BEGINNING GENETIC ALGORITHM DOCKING 35 of 100
Run: 35 Seed: 495379592 1912472897 [ Run 35 of 100 GA/GALS ]
Beginning LAMARCKIAN GENETIC ALGORITHM (LGA), with a maximum of 25000000 energy evaluations.

Final-Value: -17.139


	FINAL GENETIC ALGORITHM DOCKED STATE
	_______________________________________________


Detailed state:  trans 11.964 -14.697 12.667 quatxyzw -0.781114 -0.009993 0.498167 0.376287 center 0.035 0.082 -0.065 ntor 24 135.5066 114.4353 148.2050 121.8312 102.7491 157.1664 -127.9327 -14.4041 -58.1733 136.5976 53.2599 41.3313 -8.7265 131.4322 32.0670 179.5316 12.1612 -87.8966 -6.5408 -30.2620 166.5709 -11.2317 19.8316 175.4071
State:	 11.964 -14.697  12.667  -0.843 -0.011  0.538 135.792    135.51  114.44  148.21  121.83  102.75  157.17 -127.93  -14.40  -58.17  136.60   53.26   41.33   -8.73  131.43   32.07  179.53   12.16  -87.90   -6.54  -30.26  166.57  -11.23   19.83  175.41

DOCKED: MODEL       35
DOCKED: USER    Run = 35
DOCKED: USER    DPF = D:/Protein_go_brrr/autodock/final/mut_K82N/IHP/dock.dpf
DOCKED: USER  
DOCKED: USER    Estimated Free Energy of Binding    =   +1.65 kcal/mol  [=(1)+(2)+(3)-(4)]
DOCKED: USER    
DOCKED: USER    (1) Final Intermolecular Energy     =   -5.51 kcal/mol
DOCKED: USER        vdW + Hbond + desolv Energy     =   -5.16 kcal/mol
DOCKED: USER        Electrostatic Energy            =   -0.35 kcal/mol
DOCKED: USER    (2) Final Total Internal Energy     =  -11.63 kcal/mol
DOCKED: USER    (3) Torsional Free Energy           =   +7.16 kcal/mol
DOCKED: USER    (4) Unbound System's Energy  [=(2)] =  -11.63 kcal/mol
DOCKED: USER    
DOCKED: USER    
DOCKED: USER    NEWDPF move IHP_ideal_opt.pdbqt
DOCKED: USER    NEWDPF about 0.035000 0.082000 -0.065000
DOCKED: USER    NEWDPF tran0 11.963847 -14.697387 12.666944
DOCKED: USER    NEWDPF quaternion0 -0.781114 -0.009993 0.498167 0.376287
DOCKED: USER    NEWDPF axisangle0 -0.843077 -0.010786 0.537685 135.792243
DOCKED: USER    NEWDPF quat0 -0.843077 -0.010786 0.537685 135.792243
DOCKED: USER    NEWDPF dihe0 135.51 114.44 148.21 121.83 102.75 157.17 -127.93 -14.40 -58.17 136.60 53.26 41.33 -8.73 131.43 32.07 179.53 12.16 -87.90 -6.54 -30.26 166.57 -11.23 19.83 175.41 
DOCKED: USER  keepresnum = 1 
DOCKED: USER  
DOCKED: REMARK  24 active torsions:
DOCKED: REMARK  status: ('A' for Active; 'I' for Inactive)
DOCKED: REMARK    1  A    between atoms: C_1  and  O_7 
DOCKED: REMARK    2  A    between atoms: C_2  and  O_12 
DOCKED: REMARK    3  A    between atoms: C_3  and  O_17 
DOCKED: REMARK    4  A    between atoms: C_4  and  O_22 
DOCKED: REMARK    5  A    between atoms: C_5  and  O_27 
DOCKED: REMARK    6  A    between atoms: C_6  and  O_32 
DOCKED: REMARK    7  A    between atoms: O_7  and  P_8 
DOCKED: REMARK    8  A    between atoms: P_8  and  O_10 
DOCKED: REMARK    9  A    between atoms: P_8  and  O_11 
DOCKED: REMARK   10  A    between atoms: O_12  and  P_13 
DOCKED: REMARK   11  A    between atoms: P_13  and  O_15 
DOCKED: REMARK   12  A    between atoms: P_13  and  O_16 
DOCKED: REMARK   13  A    between atoms: O_17  and  P_18 
DOCKED: REMARK   14  A    between atoms: P_18  and  O_20 
DOCKED: REMARK   15  A    between atoms: P_18  and  O_21 
DOCKED: REMARK   16  A    between atoms: O_22  and  P_23 
DOCKED: REMARK   17  A    between atoms: P_23  and  O_25 
DOCKED: REMARK   18  A    between atoms: P_23  and  O_26 
DOCKED: REMARK   19  A    between atoms: O_27  and  P_28 
DOCKED: REMARK   20  A    between atoms: P_28  and  O_30 
DOCKED: REMARK   21  A    between atoms: P_28  and  O_31 
DOCKED: REMARK   22  A    between atoms: O_32  and  P_33 
DOCKED: REMARK   23  A    between atoms: P_33  and  O_35 
DOCKED: REMARK   24  A    between atoms: P_33  and  O_36 
DOCKED: USER                              x       y       z     vdW  Elec       q    Type
DOCKED: USER                           _______ _______ _______ _____ _____    ______ ____
DOCKED: ROOT
DOCKED: ATOM      1  C   UNL d   1      11.638 -14.984  10.995 -0.10 -0.05    +0.194 C 
DOCKED: ATOM      2  C   UNL d   1      10.980 -13.739  11.592 -0.14 -0.08    +0.194 C 
DOCKED: ATOM      3  C   UNL d   1      10.391 -14.018  12.976 -0.15 -0.05    +0.194 C 
DOCKED: ATOM      4  C   UNL d   1      11.389 -14.661  13.936 -0.05 -0.03    +0.194 C 
DOCKED: ATOM      5  C   UNL d   1      12.153 -15.837  13.342 -0.02 -0.03    +0.194 C 
DOCKED: ATOM      6  C   UNL d   1      12.689 -15.579  11.933 -0.02 -0.02    +0.194 C 
DOCKED: ENDROOT
DOCKED: BRANCH   1   7
DOCKED: ATOM      7  O   UNL d   1      12.309 -14.601   9.792 -0.08 +0.04    -0.278 OA
DOCKED: BRANCH   7   8
DOCKED: ATOM      8  P   UNL d   1      12.023 -15.439   8.463 -0.03 +0.12    +0.473 P 
DOCKED: ATOM      9  O   UNL d   1      10.595 -15.787   8.231 -0.32 -0.08    -0.228 OA
DOCKED: BRANCH   8  10
DOCKED: ATOM     10  O   UNL d   1      12.648 -14.545   7.299 -0.59 -0.18    -0.303 OA
DOCKED: ATOM     11  H   UNL d   1      12.710 -13.618   7.597 +0.04 +0.09    +0.222 HD
DOCKED: ENDBRANCH   8  10
DOCKED: BRANCH   8  12
DOCKED: ATOM     12  O   UNL d   1      13.035 -16.663   8.521 -0.02 -0.02    -0.303 OA
DOCKED: ATOM     13  H   UNL d   1      12.816 -17.311   9.229 +0.03 -0.00    +0.222 HD
DOCKED: ENDBRANCH   8  12
DOCKED: ENDBRANCH   7   8
DOCKED: ENDBRANCH   1   7
DOCKED: BRANCH   2  14
DOCKED: ATOM     14  O   UNL d   1      11.964 -12.704  11.715 -0.13 +0.05    -0.278 OA
DOCKED: BRANCH  14  15
DOCKED: ATOM     15  P   UNL d   1      11.946 -11.562  10.593 -0.12 -0.10    +0.473 P 
DOCKED: ATOM     16  O   UNL d   1      13.067 -10.571  10.624 -0.14 +0.01    -0.228 OA
DOCKED: BRANCH  15  17
DOCKED: ATOM     17  O   UNL d   1      11.874 -12.369   9.221 -0.17 +0.08    -0.303 OA
DOCKED: ATOM     18  H   UNL d   1      11.136 -13.009   9.228 -0.39 -0.20    +0.222 HD
DOCKED: ENDBRANCH  15  17
DOCKED: BRANCH  15  19
DOCKED: ATOM     19  O   UNL d   1      10.483 -10.945  10.679 -0.31 +0.14    -0.303 OA
DOCKED: ATOM     20  H   UNL d   1      10.312 -10.541  11.549 -0.34 -0.08    +0.222 HD
DOCKED: ENDBRANCH  15  19
DOCKED: ENDBRANCH  14  15
DOCKED: ENDBRANCH   2  14
DOCKED: BRANCH   6  21
DOCKED: ATOM     21  O   UNL d   1      13.060 -16.846  11.395 -0.00 +0.03    -0.278 OA
DOCKED: BRANCH  21  22
DOCKED: ATOM     22  P   UNL d   1      11.944 -17.958  11.144 -0.00 -0.06    +0.473 P 
DOCKED: ATOM     23  O   UNL d   1      10.857 -17.657  10.168 -0.05 +0.03    -0.228 OA
DOCKED: BRANCH  22  24
DOCKED: ATOM     24  O   UNL d   1      12.828 -19.232  10.787 -0.00 +0.02    -0.303 OA
DOCKED: ATOM     25  H   UNL d   1      13.645 -19.208  11.347 +0.01 -0.02    +0.222 HD
DOCKED: ENDBRANCH  22  24
DOCKED: BRANCH  22  26
DOCKED: ATOM     26  O   UNL d   1      11.473 -18.290  12.640 -0.02 +0.06    -0.303 OA
DOCKED: ATOM     27  H   UNL d   1      12.145 -17.958  13.270 +0.02 -0.04    +0.222 HD
DOCKED: ENDBRANCH  22  26
DOCKED: ENDBRANCH  21  22
DOCKED: ENDBRANCH   6  21
DOCKED: BRANCH   3  28
DOCKED: ATOM     28  O   UNL d   1      10.058 -12.766  13.561 -0.16 +0.04    -0.278 OA
DOCKED: BRANCH  28  29
DOCKED: ATOM     29  P   UNL d   1       8.555 -12.239  13.532 -0.22 -0.07    +0.473 P 
DOCKED: ATOM     30  O   UNL d   1       8.183 -11.305  14.626 -0.28 +0.01    -0.228 OA
DOCKED: BRANCH  29  31
DOCKED: ATOM     31  O   UNL d   1       8.487 -11.671  12.037 -0.20 +0.10    -0.303 OA
DOCKED: ATOM     32  H   UNL d   1       8.963 -10.809  12.007 -0.15 -0.10    +0.222 HD
DOCKED: ENDBRANCH  29  31
DOCKED: BRANCH  29  33
DOCKED: ATOM     33  O   UNL d   1       7.728 -13.595  13.431 -0.27 +0.07    -0.303 OA
DOCKED: ATOM     34  H   UNL d   1       8.103 -14.249  14.070 +0.11 -0.05    +0.222 HD
DOCKED: ENDBRANCH  29  33
DOCKED: ENDBRANCH  28  29
DOCKED: ENDBRANCH   3  28
DOCKED: BRANCH   5  35
DOCKED: ATOM     35  O   UNL d   1      13.281 -16.035  14.191 -0.00 +0.03    -0.278 OA
DOCKED: BRANCH  35  36
DOCKED: ATOM     36  P   UNL d   1      13.912 -17.490  14.367 +0.01 -0.04    +0.473 P 
DOCKED: ATOM     37  O   UNL d   1      14.344 -18.162  13.102 -0.00 +0.02    -0.228 OA
DOCKED: BRANCH  36  38
DOCKED: ATOM     38  O   UNL d   1      15.093 -17.211  15.397 +0.00 +0.02    -0.303 OA
DOCKED: ATOM     39  H   UNL d   1      15.928 -17.581  15.037 +0.00 -0.01    +0.222 HD
DOCKED: ENDBRANCH  36  38
DOCKED: BRANCH  36  40
DOCKED: ATOM     40  O   UNL d   1      12.810 -18.234  15.240 +0.00 +0.04    -0.303 OA
DOCKED: ATOM     41  H   UNL d   1      12.183 -18.743  14.678 +0.02 -0.04    +0.222 HD
DOCKED: ENDBRANCH  36  40
DOCKED: ENDBRANCH  35  36
DOCKED: ENDBRANCH   5  35
DOCKED: BRANCH   4  42
DOCKED: ATOM     42  O   UNL d   1      10.634 -15.165  15.044 -0.04 +0.05    -0.278 OA
DOCKED: BRANCH  42  43
DOCKED: ATOM     43  P   UNL d   1       9.581 -16.335  14.790 -0.10 -0.16    +0.473 P 
DOCKED: ATOM     44  O   UNL d   1       8.728 -16.239  13.572 -0.69 +0.09    -0.228 OA
DOCKED: BRANCH  43  45
DOCKED: ATOM     45  O   UNL d   1      10.488 -17.641  14.847 -0.05 +0.10    -0.303 OA
DOCKED: ATOM     46  H   UNL d   1      11.432 -17.427  14.703 +0.03 -0.05    +0.222 HD
DOCKED: ENDBRANCH  43  45
DOCKED: BRANCH  43  47
DOCKED: ATOM     47  O   UNL d   1       8.791 -16.425  16.182 -0.06 +0.10    -0.303 OA
DOCKED: ATOM     48  H   UNL d   1       8.632 -17.367  16.402 +0.04 -0.11    +0.222 HD
DOCKED: ENDBRANCH  43  47
DOCKED: ENDBRANCH  42  43
DOCKED: ENDBRANCH   4  42
DOCKED: TORSDOF 24
DOCKED: TER
DOCKED: ENDMDL
________________________________________________________________________________


	BEGINNING GENETIC ALGORITHM DOCKING 36 of 100
Run: 36 Seed: 1928037927 1162535935 [ Run 36 of 100 GA/GALS ]
Beginning LAMARCKIAN GENETIC ALGORITHM (LGA), with a maximum of 25000000 energy evaluations.

Final-Value: -19.962


	FINAL GENETIC ALGORITHM DOCKED STATE
	_______________________________________________


Detailed state:  trans 0.210 6.777 19.121 quatxyzw 0.784994 0.255414 0.252860 -0.504589 center 0.035 0.082 -0.065 ntor 24 -165.6124 78.5311 -92.0727 162.1427 -14.7049 -175.5777 -77.7344 -81.1616 74.1843 42.8368 -169.9150 143.2949 126.5131 77.1024 176.7194 -148.4535 120.4673 162.8917 53.0675 17.9911 170.1664 2.2249 -14.0313 173.5758
State:	  0.210   6.777  19.121   0.909  0.296  0.293 -119.392   -165.61   78.53  -92.07  162.14  -14.70 -175.58  -77.73  -81.16   74.18   42.84 -169.92  143.29  126.51   77.10  176.72 -148.45  120.47  162.89   53.07   17.99  170.17    2.22  -14.03  173.58

DOCKED: MODEL       36
DOCKED: USER    Run = 36
DOCKED: USER    DPF = D:/Protein_go_brrr/autodock/final/mut_K82N/IHP/dock.dpf
DOCKED: USER  
DOCKED: USER    Estimated Free Energy of Binding    =   +1.50 kcal/mol  [=(1)+(2)+(3)-(4)]
DOCKED: USER    
DOCKED: USER    (1) Final Intermolecular Energy     =   -5.66 kcal/mol
DOCKED: USER        vdW + Hbond + desolv Energy     =   -5.38 kcal/mol
DOCKED: USER        Electrostatic Energy            =   -0.28 kcal/mol
DOCKED: USER    (2) Final Total Internal Energy     =  -14.30 kcal/mol
DOCKED: USER    (3) Torsional Free Energy           =   +7.16 kcal/mol
DOCKED: USER    (4) Unbound System's Energy  [=(2)] =  -14.30 kcal/mol
DOCKED: USER    
DOCKED: USER    
DOCKED: USER    NEWDPF move IHP_ideal_opt.pdbqt
DOCKED: USER    NEWDPF about 0.035000 0.082000 -0.065000
DOCKED: USER    NEWDPF tran0 0.210460 6.777067 19.121095
DOCKED: USER    NEWDPF quaternion0 0.784994 0.255414 0.252860 -0.504589
DOCKED: USER    NEWDPF axisangle0 0.909231 0.295837 0.292880 -119.391876
DOCKED: USER    NEWDPF quat0 0.909231 0.295837 0.292880 -119.391876
DOCKED: USER    NEWDPF dihe0 -165.61 78.53 -92.07 162.14 -14.70 -175.58 -77.73 -81.16 74.18 42.84 -169.92 143.29 126.51 77.10 176.72 -148.45 120.47 162.89 53.07 17.99 170.17 2.22 -14.03 173.58 
DOCKED: USER  keepresnum = 1 
DOCKED: USER  
DOCKED: REMARK  24 active torsions:
DOCKED: REMARK  status: ('A' for Active; 'I' for Inactive)
DOCKED: REMARK    1  A    between atoms: C_1  and  O_7 
DOCKED: REMARK    2  A    between atoms: C_2  and  O_12 
DOCKED: REMARK    3  A    between atoms: C_3  and  O_17 
DOCKED: REMARK    4  A    between atoms: C_4  and  O_22 
DOCKED: REMARK    5  A    between atoms: C_5  and  O_27 
DOCKED: REMARK    6  A    between atoms: C_6  and  O_32 
DOCKED: REMARK    7  A    between atoms: O_7  and  P_8 
DOCKED: REMARK    8  A    between atoms: P_8  and  O_10 
DOCKED: REMARK    9  A    between atoms: P_8  and  O_11 
DOCKED: REMARK   10  A    between atoms: O_12  and  P_13 
DOCKED: REMARK   11  A    between atoms: P_13  and  O_15 
DOCKED: REMARK   12  A    between atoms: P_13  and  O_16 
DOCKED: REMARK   13  A    between atoms: O_17  and  P_18 
DOCKED: REMARK   14  A    between atoms: P_18  and  O_20 
DOCKED: REMARK   15  A    between atoms: P_18  and  O_21 
DOCKED: REMARK   16  A    between atoms: O_22  and  P_23 
DOCKED: REMARK   17  A    between atoms: P_23  and  O_25 
DOCKED: REMARK   18  A    between atoms: P_23  and  O_26 
DOCKED: REMARK   19  A    between atoms: O_27  and  P_28 
DOCKED: REMARK   20  A    between atoms: P_28  and  O_30 
DOCKED: REMARK   21  A    between atoms: P_28  and  O_31 
DOCKED: REMARK   22  A    between atoms: O_32  and  P_33 
DOCKED: REMARK   23  A    between atoms: P_33  and  O_35 
DOCKED: REMARK   24  A    between atoms: P_33  and  O_36 
DOCKED: USER                              x       y       z     vdW  Elec       q    Type
DOCKED: USER                           _______ _______ _______ _____ _____    ______ ____
DOCKED: ROOT
DOCKED: ATOM      1  C   UNL d   1       1.528   7.395  18.190 -0.11 -0.08    +0.194 C 
DOCKED: ATOM      2  C   UNL d   1       0.244   7.110  17.410 -0.16 -0.08    +0.194 C 
DOCKED: ATOM      3  C   UNL d   1      -0.389   5.781  17.826 -0.15 -0.07    +0.194 C 
DOCKED: ATOM      4  C   UNL d   1      -0.591   5.657  19.334 -0.05 -0.05    +0.194 C 
DOCKED: ATOM      5  C   UNL d   1       0.631   6.042  20.157 -0.04 -0.05    +0.194 C 
DOCKED: ATOM      6  C   UNL d   1       1.301   7.340  19.702 -0.04 -0.05    +0.194 C 
DOCKED: ENDROOT
DOCKED: BRANCH   1   7
DOCKED: ATOM      7  O   UNL d   1       1.959   8.720  17.872 -0.07 +0.09    -0.278 OA
DOCKED: BRANCH   7   8
DOCKED: ATOM      8  P   UNL d   1       2.514   9.005  16.401 -0.18 -0.20    +0.473 P 
DOCKED: ATOM      9  O   UNL d   1       2.902  10.417  16.136 -0.12 +0.09    -0.228 OA
DOCKED: BRANCH   8  10
DOCKED: ATOM     10  O   UNL d   1       3.726   7.980  16.240 -0.24 +0.16    -0.303 OA
DOCKED: ATOM     11  H   UNL d   1       3.506   7.141  16.687 -0.30 -0.14    +0.222 HD
DOCKED: ENDBRANCH   8  10
DOCKED: BRANCH   8  12
DOCKED: ATOM     12  O   UNL d   1       1.425   8.389  15.422 -0.20 +0.18    -0.303 OA
DOCKED: ATOM     13  H   UNL d   1       0.509   8.456  15.774 +0.07 -0.13    +0.222 HD
DOCKED: ENDBRANCH   8  12
DOCKED: ENDBRANCH   7   8
DOCKED: ENDBRANCH   1   7
DOCKED: BRANCH   2  14
DOCKED: ATOM     14  O   UNL d   1      -0.697   8.162  17.659 -0.04 +0.11    -0.278 OA
DOCKED: BRANCH  14  15
DOCKED: ATOM     15  P   UNL d   1      -1.722   8.501  16.477 -0.09 -0.36    +0.473 P 
DOCKED: ATOM     16  O   UNL d   1      -3.164   8.634  16.855 -0.08 +0.17    -0.228 OA
DOCKED: BRANCH  15  17
DOCKED: ATOM     17  O   UNL d   1      -1.131   9.827  15.820 -0.13 +0.34    -0.303 OA
DOCKED: ATOM     18  H   UNL d   1      -1.613  10.060  15.003 -0.44 -0.52    +0.222 HD
DOCKED: ENDBRANCH  15  17
DOCKED: BRANCH  15  19
DOCKED: ATOM     19  O   UNL d   1      -1.404   7.420  15.354 -0.66 +0.19    -0.303 OA
DOCKED: ATOM     20  H   UNL d   1      -2.066   6.704  15.345 +0.11 -0.13    +0.222 HD
DOCKED: ENDBRANCH  15  19
DOCKED: ENDBRANCH  14  15
DOCKED: ENDBRANCH   2  14
DOCKED: BRANCH   6  21
DOCKED: ATOM     21  O   UNL d   1       2.585   7.380  20.319 -0.02 +0.06    -0.278 OA
DOCKED: BRANCH  21  22
DOCKED: ATOM     22  P   UNL d   1       3.705   6.330  19.887 -0.07 -0.14    +0.473 P 
DOCKED: ATOM     23  O   UNL d   1       4.756   5.970  20.882 -0.06 +0.03    -0.228 OA
DOCKED: BRANCH  22  24
DOCKED: ATOM     24  O   UNL d   1       2.825   5.108  19.374 -0.14 +0.15    -0.303 OA
DOCKED: ATOM     25  H   UNL d   1       2.526   4.590  20.164 +0.07 -0.09    +0.222 HD
DOCKED: ENDBRANCH  22  24
DOCKED: BRANCH  22  26
DOCKED: ATOM     26  O   UNL d   1       4.229   6.962  18.509 -0.16 +0.13    -0.303 OA
DOCKED: ATOM     27  H   UNL d   1       3.857   7.862  18.406 +0.06 -0.08    +0.222 HD
DOCKED: ENDBRANCH  22  26
DOCKED: ENDBRANCH  21  22
DOCKED: ENDBRANCH   6  21
DOCKED: BRANCH   3  28
DOCKED: ATOM     28  O   UNL d   1      -1.695   5.734  17.265 -0.08 +0.09    -0.278 OA
DOCKED: BRANCH  28  29
DOCKED: ATOM     29  P   UNL d   1      -2.044   4.679  16.125 -0.21 -0.16    +0.473 P 
DOCKED: ATOM     30  O   UNL d   1      -3.397   4.808  15.525 -0.34 +0.07    -0.228 OA
DOCKED: BRANCH  29  31
DOCKED: ATOM     31  O   UNL d   1      -0.794   4.897  15.150 -0.48 +0.08    -0.303 OA
DOCKED: ATOM     32  H   UNL d   1      -0.455   5.814  15.275 +0.12 -0.04    +0.222 HD
DOCKED: ENDBRANCH  29  31
DOCKED: BRANCH  29  33
DOCKED: ATOM     33  O   UNL d   1      -1.700   3.295  16.834 -0.21 +0.10    -0.303 OA
DOCKED: ATOM     34  H   UNL d   1      -1.067   3.463  17.574 +0.11 -0.07    +0.222 HD
DOCKED: ENDBRANCH  29  33
DOCKED: ENDBRANCH  28  29
DOCKED: ENDBRANCH   3  28
DOCKED: BRANCH   5  35
DOCKED: ATOM     35  O   UNL d   1       0.152   6.259  21.483 -0.00 +0.05    -0.278 OA
DOCKED: BRANCH  35  36
DOCKED: ATOM     36  P   UNL d   1       0.649   5.331  22.681 +0.01 -0.08    +0.473 P 
DOCKED: ATOM     37  O   UNL d   1       0.374   5.850  24.056 +0.00 +0.02    -0.228 OA
DOCKED: BRANCH  36  38
DOCKED: ATOM     38  O   UNL d   1      -0.073   3.952  22.345 -0.01 +0.08    -0.303 OA
DOCKED: ATOM     39  H   UNL d   1      -0.549   4.038  21.491 +0.04 -0.06    +0.222 HD
DOCKED: ENDBRANCH  36  38
DOCKED: BRANCH  36  40
DOCKED: ATOM     40  O   UNL d   1       2.171   5.068  22.299 -0.01 +0.07    -0.303 OA
DOCKED: ATOM     41  H   UNL d   1       2.424   5.535  21.472 +0.04 -0.05    +0.222 HD
DOCKED: ENDBRANCH  36  40
DOCKED: ENDBRANCH  35  36
DOCKED: ENDBRANCH   5  35
DOCKED: BRANCH   4  42
DOCKED: ATOM     42  O   UNL d   1      -0.862   4.277  19.604 -0.05 +0.08    -0.278 OA
DOCKED: BRANCH  42  43
DOCKED: ATOM     43  P   UNL d   1       0.255   3.190  19.264 -0.15 -0.21    +0.473 P 
DOCKED: ATOM     44  O   UNL d   1      -0.205   1.816  18.923 -0.29 +0.10    -0.228 OA
DOCKED: BRANCH  43  45
DOCKED: ATOM     45  O   UNL d   1       1.094   3.900  18.114 -0.24 +0.16    -0.303 OA
DOCKED: ATOM     46  H   UNL d   1       2.019   4.058  18.391 -0.34 -0.15    +0.222 HD
DOCKED: ENDBRANCH  43  45
DOCKED: BRANCH  43  47
DOCKED: ATOM     47  O   UNL d   1       1.257   3.294  20.511 -0.11 +0.19    -0.303 OA
DOCKED: ATOM     48  H   UNL d   1       1.340   4.232  20.781 +0.06 -0.09    +0.222 HD
DOCKED: ENDBRANCH  43  47
DOCKED: ENDBRANCH  42  43
DOCKED: ENDBRANCH   4  42
DOCKED: TORSDOF 24
DOCKED: TER
DOCKED: ENDMDL
________________________________________________________________________________


	BEGINNING GENETIC ALGORITHM DOCKING 37 of 100
Run: 37 Seed: 1549167521 1312047665 [ Run 37 of 100 GA/GALS ]
Beginning LAMARCKIAN GENETIC ALGORITHM (LGA), with a maximum of 25000000 energy evaluations.

Final-Value: -20.596


	FINAL GENETIC ALGORITHM DOCKED STATE
	_______________________________________________


Detailed state:  trans 14.841 5.953 -4.127 quatxyzw 0.029305 -0.709895 -0.084036 -0.698662 center 0.035 0.082 -0.065 ntor 24 121.4871 59.1315 161.0379 -1.9685 6.7617 166.7383 -15.0680 -147.0696 16.6031 55.2290 61.2863 -117.1275 150.6636 -179.2455 175.8280 105.3208 143.2123 124.7502 53.0997 13.4069 -20.4373 3.7319 -17.4177 -1.3860
State:	 14.841   5.953  -4.127   0.041 -0.992 -0.117 -91.360    121.49   59.13  161.04   -1.97    6.76  166.74  -15.07 -147.07   16.60   55.23   61.29 -117.13  150.66 -179.25  175.83  105.32  143.21  124.75   53.10   13.41  -20.44    3.73  -17.42   -1.39

DOCKED: MODEL       37
DOCKED: USER    Run = 37
DOCKED: USER    DPF = D:/Protein_go_brrr/autodock/final/mut_K82N/IHP/dock.dpf
DOCKED: USER  
DOCKED: USER    Estimated Free Energy of Binding    =   +1.62 kcal/mol  [=(1)+(2)+(3)-(4)]
DOCKED: USER    
DOCKED: USER    (1) Final Intermolecular Energy     =   -5.54 kcal/mol
DOCKED: USER        vdW + Hbond + desolv Energy     =   -5.23 kcal/mol
DOCKED: USER        Electrostatic Energy            =   -0.31 kcal/mol
DOCKED: USER    (2) Final Total Internal Energy     =  -15.06 kcal/mol
DOCKED: USER    (3) Torsional Free Energy           =   +7.16 kcal/mol
DOCKED: USER    (4) Unbound System's Energy  [=(2)] =  -15.06 kcal/mol
DOCKED: USER    
DOCKED: USER    
DOCKED: USER    NEWDPF move IHP_ideal_opt.pdbqt
DOCKED: USER    NEWDPF about 0.035000 0.082000 -0.065000
DOCKED: USER    NEWDPF tran0 14.841407 5.953273 -4.127399
DOCKED: USER    NEWDPF quaternion0 0.029305 -0.709895 -0.084036 -0.698662
DOCKED: USER    NEWDPF axisangle0 0.040960 -0.992233 -0.117459 -91.360482
DOCKED: USER    NEWDPF quat0 0.040960 -0.992233 -0.117459 -91.360482
DOCKED: USER    NEWDPF dihe0 121.49 59.13 161.04 -1.97 6.76 166.74 -15.07 -147.07 16.60 55.23 61.29 -117.13 150.66 -179.25 175.83 105.32 143.21 124.75 53.10 13.41 -20.44 3.73 -17.42 -1.39 
DOCKED: USER  keepresnum = 1 
DOCKED: USER  
DOCKED: REMARK  24 active torsions:
DOCKED: REMARK  status: ('A' for Active; 'I' for Inactive)
DOCKED: REMARK    1  A    between atoms: C_1  and  O_7 
DOCKED: REMARK    2  A    between atoms: C_2  and  O_12 
DOCKED: REMARK    3  A    between atoms: C_3  and  O_17 
DOCKED: REMARK    4  A    between atoms: C_4  and  O_22 
DOCKED: REMARK    5  A    between atoms: C_5  and  O_27 
DOCKED: REMARK    6  A    between atoms: C_6  and  O_32 
DOCKED: REMARK    7  A    between atoms: O_7  and  P_8 
DOCKED: REMARK    8  A    between atoms: P_8  and  O_10 
DOCKED: REMARK    9  A    between atoms: P_8  and  O_11 
DOCKED: REMARK   10  A    between atoms: O_12  and  P_13 
DOCKED: REMARK   11  A    between atoms: P_13  and  O_15 
DOCKED: REMARK   12  A    between atoms: P_13  and  O_16 
DOCKED: REMARK   13  A    between atoms: O_17  and  P_18 
DOCKED: REMARK   14  A    between atoms: P_18  and  O_20 
DOCKED: REMARK   15  A    between atoms: P_18  and  O_21 
DOCKED: REMARK   16  A    between atoms: O_22  and  P_23 
DOCKED: REMARK   17  A    between atoms: P_23  and  O_25 
DOCKED: REMARK   18  A    between atoms: P_23  and  O_26 
DOCKED: REMARK   19  A    between atoms: O_27  and  P_28 
DOCKED: REMARK   20  A    between atoms: P_28  and  O_30 
DOCKED: REMARK   21  A    between atoms: P_28  and  O_31 
DOCKED: REMARK   22  A    between atoms: O_32  and  P_33 
DOCKED: REMARK   23  A    between atoms: P_33  and  O_35 
DOCKED: REMARK   24  A    between atoms: P_33  and  O_36 
DOCKED: USER                              x       y       z     vdW  Elec       q    Type
DOCKED: USER                           _______ _______ _______ _____ _____    ______ ____
DOCKED: ROOT
DOCKED: ATOM      1  C   UNL d   1      13.958   4.942  -3.041 -0.10 +0.04    +0.194 C 
DOCKED: ATOM      2  C   UNL d   1      14.292   4.320  -4.398 -0.16 +0.02    +0.194 C 
DOCKED: ATOM      3  C   UNL d   1      14.064   5.307  -5.545 -0.19 -0.00    +0.194 C 
DOCKED: ATOM      4  C   UNL d   1      14.766   6.646  -5.334 -0.16 -0.00    +0.194 C 
DOCKED: ATOM      5  C   UNL d   1      14.553   7.248  -3.951 -0.07 +0.00    +0.194 C 
DOCKED: ATOM      6  C   UNL d   1      14.721   6.246  -2.807 -0.11 +0.03    +0.194 C 
DOCKED: ENDROOT
DOCKED: BRANCH   1   7
DOCKED: ATOM      7  O   UNL d   1      14.359   4.025  -2.019 -0.14 -0.05    -0.278 OA
DOCKED: BRANCH   7   8
DOCKED: ATOM      8  P   UNL d   1      13.540   2.663  -1.858 -0.16 +0.17    +0.473 P 
DOCKED: ATOM      9  O   UNL d   1      13.642   2.020  -0.520 -0.13 -0.06    -0.228 OA
DOCKED: BRANCH   8  10
DOCKED: ATOM     10  O   UNL d   1      12.046   3.061  -2.251 -0.73 -0.11    -0.303 OA
DOCKED: ATOM     11  H   UNL d   1      11.854   3.963  -1.934 -0.37 +0.01    +0.222 HD
DOCKED: ENDBRANCH   8  10
DOCKED: BRANCH   8  12
DOCKED: ATOM     12  O   UNL d   1      13.982   1.768  -3.094 -0.57 -0.26    -0.303 OA
DOCKED: ATOM     13  H   UNL d   1      14.783   2.109  -3.551 +0.05 +0.12    +0.222 HD
DOCKED: ENDBRANCH   8  12
DOCKED: ENDBRANCH   7   8
DOCKED: ENDBRANCH   1   7
DOCKED: BRANCH   2  14
DOCKED: ATOM     14  O   UNL d   1      15.670   3.925  -4.403 -0.03 -0.02    -0.278 OA
DOCKED: BRANCH  14  15
DOCKED: ATOM     15  P   UNL d   1      16.029   2.594  -5.218 -0.01 +0.05    +0.473 P 
DOCKED: ATOM     16  O   UNL d   1      16.724   1.507  -4.459 -0.03 -0.03    -0.228 OA
DOCKED: BRANCH  15  17
DOCKED: ATOM     17  O   UNL d   1      14.634   2.125  -5.829 -0.11 -0.08    -0.303 OA
DOCKED: ATOM     18  H   UNL d   1      14.298   2.773  -6.477 +0.04 -0.02    +0.222 HD
DOCKED: ENDBRANCH  15  17
DOCKED: BRANCH  15  19
DOCKED: ATOM     19  O   UNL d   1      16.786   3.116  -6.516 +0.00 +0.01    -0.303 OA
DOCKED: ATOM     20  H   UNL d   1      16.215   3.688  -7.061 +0.03 -0.01    +0.222 HD
DOCKED: ENDBRANCH  15  19
DOCKED: ENDBRANCH  14  15
DOCKED: ENDBRANCH   2  14
DOCKED: BRANCH   6  21
DOCKED: ATOM     21  O   UNL d   1      14.166   6.854  -1.643 -0.40 -0.08    -0.278 OA
DOCKED: BRANCH  21  22
DOCKED: ATOM     22  P   UNL d   1      15.069   7.044  -0.342 -0.08 +0.02    +0.473 P 
DOCKED: ATOM     23  O   UNL d   1      14.390   7.110   0.984 -0.07 -0.00    -0.228 OA
DOCKED: BRANCH  22  24
DOCKED: ATOM     24  O   UNL d   1      16.118   5.857  -0.497 -0.02 -0.01    -0.303 OA
DOCKED: ATOM     25  H   UNL d   1      15.616   5.003  -0.522 +0.03 +0.01    +0.222 HD
DOCKED: ENDBRANCH  22  24
DOCKED: BRANCH  22  26
DOCKED: ATOM     26  O   UNL d   1      15.952   8.321  -0.743 -0.03 +0.00    -0.303 OA
DOCKED: ATOM     27  H   UNL d   1      15.786   8.545  -1.681 +0.04 -0.00    +0.222 HD
DOCKED: ENDBRANCH  22  26
DOCKED: ENDBRANCH  21  22
DOCKED: ENDBRANCH   6  21
DOCKED: BRANCH   3  28
DOCKED: ATOM     28  O   UNL d   1      14.654   4.751  -6.712 -0.06 +0.02    -0.278 OA
DOCKED: BRANCH  28  29
DOCKED: ATOM     29  P   UNL d   1      13.745   4.320  -7.947 -0.11 -0.12    +0.473 P 
DOCKED: ATOM     30  O   UNL d   1      13.301   5.426  -8.832 -0.15 +0.04    -0.228 OA
DOCKED: BRANCH  29  31
DOCKED: ATOM     31  O   UNL d   1      14.676   3.195  -8.601 -0.05 +0.08    -0.303 OA
DOCKED: ATOM     32  H   UNL d   1      15.126   2.700  -7.877 +0.04 -0.04    +0.222 HD
DOCKED: ENDBRANCH  29  31
DOCKED: BRANCH  29  33
DOCKED: ATOM     33  O   UNL d   1      12.604   3.463  -7.238 -0.22 +0.18    -0.303 OA
DOCKED: ATOM     34  H   UNL d   1      12.902   2.523  -7.174 -0.45 -0.22    +0.222 HD
DOCKED: ENDBRANCH  29  33
DOCKED: ENDBRANCH  28  29
DOCKED: ENDBRANCH   3  28
DOCKED: BRANCH   5  35
DOCKED: ATOM     35  O   UNL d   1      15.571   8.235  -3.798 -0.08 +0.01    -0.278 OA
DOCKED: BRANCH  35  36
DOCKED: ATOM     36  P   UNL d   1      15.187   9.781  -3.715 -0.10 -0.03    +0.473 P 
DOCKED: ATOM     37  O   UNL d   1      16.340  10.734  -3.733 -0.03 +0.01    -0.228 OA
DOCKED: BRANCH  36  38
DOCKED: ATOM     38  O   UNL d   1      14.191   9.936  -4.948 -0.20 +0.03    -0.303 OA
DOCKED: ATOM     39  H   UNL d   1      14.629   9.599  -5.759 +0.07 -0.01    +0.222 HD
DOCKED: ENDBRANCH  36  38
DOCKED: BRANCH  36  40
DOCKED: ATOM     40  O   UNL d   1      14.233   9.827  -2.444 -0.18 +0.03    -0.303 OA
DOCKED: ATOM     41  H   UNL d   1      14.286   8.997  -1.918 +0.06 -0.01    +0.222 HD
DOCKED: ENDBRANCH  36  40
DOCKED: ENDBRANCH  35  36
DOCKED: ENDBRANCH   5  35
DOCKED: BRANCH   4  42
DOCKED: ATOM     42  O   UNL d   1      14.206   7.561  -6.283 -0.14 +0.01    -0.278 OA
DOCKED: BRANCH  42  43
DOCKED: ATOM     43  P   UNL d   1      15.126   8.103  -7.468 -0.05 -0.03    +0.473 P 
DOCKED: ATOM     44  O   UNL d   1      14.462   8.875  -8.555 -0.13 +0.01    -0.228 OA
DOCKED: BRANCH  43  45
DOCKED: ATOM     45  O   UNL d   1      16.256   8.911  -6.692 -0.04 +0.02    -0.303 OA
DOCKED: ATOM     46  H   UNL d   1      16.022   9.038  -5.751 +0.04 -0.01    +0.222 HD
DOCKED: ENDBRANCH  43  45
DOCKED: BRANCH  43  47
DOCKED: ATOM     47  O   UNL d   1      15.925   6.795  -7.938 -0.03 +0.02    -0.303 OA
DOCKED: ATOM     48  H   UNL d   1      15.287   6.127  -8.265 +0.04 -0.02    +0.222 HD
DOCKED: ENDBRANCH  43  47
DOCKED: ENDBRANCH  42  43
DOCKED: ENDBRANCH   4  42
DOCKED: TORSDOF 24
DOCKED: TER
DOCKED: ENDMDL
________________________________________________________________________________


	BEGINNING GENETIC ALGORITHM DOCKING 38 of 100
Run: 38 Seed: 82595618 1668910953 [ Run 38 of 100 GA/GALS ]
Beginning LAMARCKIAN GENETIC ALGORITHM (LGA), with a maximum of 25000000 energy evaluations.

Final-Value: -19.492


	FINAL GENETIC ALGORITHM DOCKED STATE
	_______________________________________________


Detailed state:  trans -1.997 19.349 -12.515 quatxyzw -0.762363 -0.390774 -0.467049 -0.219003 center 0.035 0.082 -0.065 ntor 24 113.7054 81.4774 54.9361 56.2221 -9.4167 -169.9777 32.9466 -70.3398 76.5762 85.6077 18.0835 -152.1992 146.0835 157.9159 7.4498 91.5946 143.6648 -18.7290 4.2804 -18.1528 -21.6289 -22.6942 -3.3941 173.2735
State:	 -1.997  19.349 -12.515  -0.781 -0.400 -0.479 -154.699    113.71   81.48   54.94   56.22   -9.42 -169.98   32.95  -70.34   76.58   85.61   18.08 -152.20  146.08  157.92    7.45   91.59  143.66  -18.73    4.28  -18.15  -21.63  -22.69   -3.39  173.27

DOCKED: MODEL       38
DOCKED: USER    Run = 38
DOCKED: USER    DPF = D:/Protein_go_brrr/autodock/final/mut_K82N/IHP/dock.dpf
DOCKED: USER  
DOCKED: USER    Estimated Free Energy of Binding    =   +2.79 kcal/mol  [=(1)+(2)+(3)-(4)]
DOCKED: USER    
DOCKED: USER    (1) Final Intermolecular Energy     =   -4.37 kcal/mol
DOCKED: USER        vdW + Hbond + desolv Energy     =   -4.34 kcal/mol
DOCKED: USER        Electrostatic Energy            =   -0.03 kcal/mol
DOCKED: USER    (2) Final Total Internal Energy     =  -15.12 kcal/mol
DOCKED: USER    (3) Torsional Free Energy           =   +7.16 kcal/mol
DOCKED: USER    (4) Unbound System's Energy  [=(2)] =  -15.12 kcal/mol
DOCKED: USER    
DOCKED: USER    
DOCKED: USER    NEWDPF move IHP_ideal_opt.pdbqt
DOCKED: USER    NEWDPF about 0.035000 0.082000 -0.065000
DOCKED: USER    NEWDPF tran0 -1.997463 19.348986 -12.515109
DOCKED: USER    NEWDPF quaternion0 -0.762363 -0.390774 -0.467049 -0.219003
DOCKED: USER    NEWDPF axisangle0 -0.781331 -0.400497 -0.478670 -154.698983
DOCKED: USER    NEWDPF quat0 -0.781331 -0.400497 -0.478670 -154.698983
DOCKED: USER    NEWDPF dihe0 113.71 81.48 54.94 56.22 -9.42 -169.98 32.95 -70.34 76.58 85.61 18.08 -152.20 146.08 157.92 7.45 91.59 143.66 -18.73 4.28 -18.15 -21.63 -22.69 -3.39 173.27 
DOCKED: USER  keepresnum = 1 
DOCKED: USER  
DOCKED: REMARK  24 active torsions:
DOCKED: REMARK  status: ('A' for Active; 'I' for Inactive)
DOCKED: REMARK    1  A    between atoms: C_1  and  O_7 
DOCKED: REMARK    2  A    between atoms: C_2  and  O_12 
DOCKED: REMARK    3  A    between atoms: C_3  and  O_17 
DOCKED: REMARK    4  A    between atoms: C_4  and  O_22 
DOCKED: REMARK    5  A    between atoms: C_5  and  O_27 
DOCKED: REMARK    6  A    between atoms: C_6  and  O_32 
DOCKED: REMARK    7  A    between atoms: O_7  and  P_8 
DOCKED: REMARK    8  A    between atoms: P_8  and  O_10 
DOCKED: REMARK    9  A    between atoms: P_8  and  O_11 
DOCKED: REMARK   10  A    between atoms: O_12  and  P_13 
DOCKED: REMARK   11  A    between atoms: P_13  and  O_15 
DOCKED: REMARK   12  A    between atoms: P_13  and  O_16 
DOCKED: REMARK   13  A    between atoms: O_17  and  P_18 
DOCKED: REMARK   14  A    between atoms: P_18  and  O_20 
DOCKED: REMARK   15  A    between atoms: P_18  and  O_21 
DOCKED: REMARK   16  A    between atoms: O_22  and  P_23 
DOCKED: REMARK   17  A    between atoms: P_23  and  O_25 
DOCKED: REMARK   18  A    between atoms: P_23  and  O_26 
DOCKED: REMARK   19  A    between atoms: O_27  and  P_28 
DOCKED: REMARK   20  A    between atoms: P_28  and  O_30 
DOCKED: REMARK   21  A    between atoms: P_28  and  O_31 
DOCKED: REMARK   22  A    between atoms: O_32  and  P_33 
DOCKED: REMARK   23  A    between atoms: P_33  and  O_35 
DOCKED: REMARK   24  A    between atoms: P_33  and  O_36 
DOCKED: USER                              x       y       z     vdW  Elec       q    Type
DOCKED: USER                           _______ _______ _______ _____ _____    ______ ____
DOCKED: ROOT
DOCKED: ATOM      1  C   UNL d   1      -1.957  20.924 -11.806 -0.09 -0.05    +0.194 C 
DOCKED: ATOM      2  C   UNL d   1      -3.122  20.659 -12.761 -0.09 -0.05    +0.194 C 
DOCKED: ATOM      3  C   UNL d   1      -2.667  19.916 -14.019 -0.10 -0.06    +0.194 C 
DOCKED: ATOM      4  C   UNL d   1      -1.870  18.650 -13.714 -0.11 -0.09    +0.194 C 
DOCKED: ATOM      5  C   UNL d   1      -0.770  18.842 -12.679 -0.16 -0.07    +0.194 C 
DOCKED: ATOM      6  C   UNL d   1      -1.209  19.638 -11.449 -0.17 -0.06    +0.194 C 
DOCKED: ENDROOT
DOCKED: BRANCH   1   7
DOCKED: ATOM      7  O   UNL d   1      -2.488  21.459 -10.592 -0.14 +0.08    -0.278 OA
DOCKED: BRANCH   7   8
DOCKED: ATOM      8  P   UNL d   1      -2.042  22.929 -10.151 -0.09 -0.12    +0.473 P 
DOCKED: ATOM      9  O   UNL d   1      -2.285  23.260  -8.721 -0.23 +0.08    -0.228 OA
DOCKED: BRANCH   8  10
DOCKED: ATOM     10  O   UNL d   1      -0.501  23.004 -10.560 -0.03 +0.08    -0.303 OA
DOCKED: ATOM     11  H   UNL d   1      -0.053  22.179 -10.296 +0.07 -0.06    +0.222 HD
DOCKED: ENDBRANCH   8  10
DOCKED: BRANCH   8  12
DOCKED: ATOM     12  O   UNL d   1      -2.715  23.900 -11.212 -0.01 +0.05    -0.303 OA
DOCKED: ATOM     13  H   UNL d   1      -3.607  23.600 -11.498 +0.03 -0.03    +0.222 HD
DOCKED: ENDBRANCH   8  12
DOCKED: ENDBRANCH   7   8
DOCKED: ENDBRANCH   1   7
DOCKED: BRANCH   2  14
DOCKED: ATOM     14  O   UNL d   1      -4.104  19.859 -12.089 -0.13 +0.09    -0.278 OA
DOCKED: BRANCH  14  15
DOCKED: ATOM     15  P   UNL d   1      -5.515  20.556 -11.795 -0.11 -0.06    +0.473 P 
DOCKED: ATOM     16  O   UNL d   1      -6.219  20.146 -10.539 -0.23 -0.01    -0.228 OA
DOCKED: BRANCH  15  17
DOCKED: ATOM     17  O   UNL d   1      -5.195  22.116 -11.843 -0.04 +0.03    -0.303 OA
DOCKED: ATOM     18  H   UNL d   1      -4.345  22.314 -11.405 +0.05 -0.03    +0.222 HD
DOCKED: ENDBRANCH  15  17
DOCKED: BRANCH  15  19
DOCKED: ATOM     19  O   UNL d   1      -6.342  20.359 -13.140 -0.05 +0.03    -0.303 OA
DOCKED: ATOM     20  H   UNL d   1      -5.808  19.927 -13.832 +0.05 -0.04    +0.222 HD
DOCKED: ENDBRANCH  15  19
DOCKED: ENDBRANCH  14  15
DOCKED: ENDBRANCH   2  14
DOCKED: BRANCH   6  21
DOCKED: ATOM     21  O   UNL d   1      -0.021  20.023 -10.761 -0.09 +0.08    -0.278 OA
DOCKED: BRANCH  21  22
DOCKED: ATOM     22  P   UNL d   1       0.171  19.625  -9.228 -0.23 -0.15    +0.473 P 
DOCKED: ATOM     23  O   UNL d   1      -0.321  18.290  -8.780 -0.35 +0.08    -0.228 OA
DOCKED: BRANCH  22  24
DOCKED: ATOM     24  O   UNL d   1       1.731  19.865  -9.023 -0.26 +0.10    -0.303 OA
DOCKED: ATOM     25  H   UNL d   1       2.218  19.116  -9.453 +0.08 -0.08    +0.222 HD
DOCKED: ENDBRANCH  22  24
DOCKED: BRANCH  22  26
DOCKED: ATOM     26  O   UNL d   1      -0.460  20.894  -8.480 -0.78 +0.09    -0.303 OA
DOCKED: ATOM     27  H   UNL d   1      -0.997  21.409  -9.117 +0.01 -0.09    +0.222 HD
DOCKED: ENDBRANCH  22  26
DOCKED: ENDBRANCH  21  22
DOCKED: ENDBRANCH   6  21
DOCKED: BRANCH   3  28
DOCKED: ATOM     28  O   UNL d   1      -3.833  19.474 -14.701 -0.09 +0.10    -0.278 OA
DOCKED: BRANCH  28  29
DOCKED: ATOM     29  P   UNL d   1      -4.554  20.422 -15.759 -0.00 -0.11    +0.473 P 
DOCKED: ATOM     30  O   UNL d   1      -3.769  20.731 -16.981 -0.01 +0.06    -0.228 OA
DOCKED: BRANCH  29  31
DOCKED: ATOM     31  O   UNL d   1      -5.926  19.622 -15.959 -0.01 +0.06    -0.303 OA
DOCKED: ATOM     32  H   UNL d   1      -6.552  19.888 -15.246 +0.03 -0.03    +0.222 HD
DOCKED: ENDBRANCH  29  31
DOCKED: BRANCH  29  33
DOCKED: ATOM     33  O   UNL d   1      -4.995  21.656 -14.855 -0.00 +0.04    -0.303 OA
DOCKED: ATOM     34  H   UNL d   1      -4.873  21.417 -13.903 +0.03 -0.03    +0.222 HD
DOCKED: ENDBRANCH  29  33
DOCKED: ENDBRANCH  28  29
DOCKED: ENDBRANCH   3  28
DOCKED: BRANCH   5  35
DOCKED: ATOM     35  O   UNL d   1      -0.426  17.533 -12.231 -0.18 +0.10    -0.278 OA
DOCKED: BRANCH  35  36
DOCKED: ATOM     36  P   UNL d   1       1.093  17.047 -12.256 -0.19 -0.18    +0.473 P 
DOCKED: ATOM     37  O   UNL d   1       1.313  15.601 -11.943 -0.36 +0.09    -0.228 OA
DOCKED: BRANCH  36  38
DOCKED: ATOM     38  O   UNL d   1       1.549  17.476 -13.720 -0.11 +0.16    -0.303 OA
DOCKED: ATOM     39  H   UNL d   1       0.830  17.995 -14.141 +0.05 -0.13    +0.222 HD
DOCKED: ENDBRANCH  36  38
DOCKED: BRANCH  36  40
DOCKED: ATOM     40  O   UNL d   1       1.804  18.107 -11.307 -0.09 +0.09    -0.303 OA
DOCKED: ATOM     41  H   UNL d   1       1.280  18.277 -10.494 +0.12 -0.07    +0.222 HD
DOCKED: ENDBRANCH  36  40
DOCKED: ENDBRANCH  35  36
DOCKED: ENDBRANCH   5  35
DOCKED: BRANCH   4  42
DOCKED: ATOM     42  O   UNL d   1      -1.236  18.255 -14.936 -0.15 +0.23    -0.278 OA
DOCKED: BRANCH  42  43
DOCKED: ATOM     43  P   UNL d   1      -0.178  19.242 -15.608 -0.06 -0.24    +0.473 P 
DOCKED: ATOM     44  O   UNL d   1       0.554  20.179 -14.711 -0.02 +0.07    -0.228 OA
DOCKED: BRANCH  43  45
DOCKED: ATOM     45  O   UNL d   1       0.764  18.245 -16.416 -0.08 +0.21    -0.303 OA
DOCKED: ATOM     46  H   UNL d   1       1.132  17.550 -15.834 +0.01 -0.20    +0.222 HD
DOCKED: ENDBRANCH  43  45
DOCKED: BRANCH  43  47
DOCKED: ATOM     47  O   UNL d   1      -1.016  19.927 -16.790 -0.02 +0.12    -0.303 OA
DOCKED: ATOM     48  H   UNL d   1      -1.967  19.927 -16.553 +0.02 -0.09    +0.222 HD
DOCKED: ENDBRANCH  43  47
DOCKED: ENDBRANCH  42  43
DOCKED: ENDBRANCH   4  42
DOCKED: TORSDOF 24
DOCKED: TER
DOCKED: ENDMDL
________________________________________________________________________________


	BEGINNING GENETIC ALGORITHM DOCKING 39 of 100
Run: 39 Seed: 1314538829 227416768 [ Run 39 of 100 GA/GALS ]
Beginning LAMARCKIAN GENETIC ALGORITHM (LGA), with a maximum of 25000000 energy evaluations.

Final-Value: -20.220


	FINAL GENETIC ALGORITHM DOCKED STATE
	_______________________________________________


Detailed state:  trans -1.277 10.931 -17.024 quatxyzw 0.057804 0.191139 -0.035941 -0.979200 center 0.035 0.082 -0.065 ntor 24 -179.2860 -34.2190 118.5568 99.8382 115.3218 153.1075 -55.1718 35.6115 39.3089 83.2019 51.1418 177.6168 -121.2062 91.2354 179.7546 44.4464 -35.3999 170.8683 43.1419 -5.9694 -7.1099 -3.9486 169.6926 -0.0243
State:	 -1.277  10.931 -17.024   0.285  0.942 -0.177 -23.413   -179.29  -34.22  118.56   99.84  115.32  153.11  -55.17   35.61   39.31   83.20   51.14  177.62 -121.21   91.24  179.75   44.45  -35.40  170.87   43.14   -5.97   -7.11   -3.95  169.69   -0.02

DOCKED: MODEL       39
DOCKED: USER    Run = 39
DOCKED: USER    DPF = D:/Protein_go_brrr/autodock/final/mut_K82N/IHP/dock.dpf
DOCKED: USER  
DOCKED: USER    Estimated Free Energy of Binding    =   +1.35 kcal/mol  [=(1)+(2)+(3)-(4)]
DOCKED: USER    
DOCKED: USER    (1) Final Intermolecular Energy     =   -5.81 kcal/mol
DOCKED: USER        vdW + Hbond + desolv Energy     =   -5.41 kcal/mol
DOCKED: USER        Electrostatic Energy            =   -0.40 kcal/mol
DOCKED: USER    (2) Final Total Internal Energy     =  -14.41 kcal/mol
DOCKED: USER    (3) Torsional Free Energy           =   +7.16 kcal/mol
DOCKED: USER    (4) Unbound System's Energy  [=(2)] =  -14.41 kcal/mol
DOCKED: USER    
DOCKED: USER    
DOCKED: USER    NEWDPF move IHP_ideal_opt.pdbqt
DOCKED: USER    NEWDPF about 0.035000 0.082000 -0.065000
DOCKED: USER    NEWDPF tran0 -1.277352 10.930586 -17.023655
DOCKED: USER    NEWDPF quaternion0 0.057804 0.191139 -0.035941 -0.979200
DOCKED: USER    NEWDPF axisangle0 0.284895 0.942049 -0.177140 -23.412811
DOCKED: USER    NEWDPF quat0 0.284895 0.942049 -0.177140 -23.412811
DOCKED: USER    NEWDPF dihe0 -179.29 -34.22 118.56 99.84 115.32 153.11 -55.17 35.61 39.31 83.20 51.14 177.62 -121.21 91.24 179.75 44.45 -35.40 170.87 43.14 -5.97 -7.11 -3.95 169.69 -0.02 
DOCKED: USER  keepresnum = 1 
DOCKED: USER  
DOCKED: REMARK  24 active torsions:
DOCKED: REMARK  status: ('A' for Active; 'I' for Inactive)
DOCKED: REMARK    1  A    between atoms: C_1  and  O_7 
DOCKED: REMARK    2  A    between atoms: C_2  and  O_12 
DOCKED: REMARK    3  A    between atoms: C_3  and  O_17 
DOCKED: REMARK    4  A    between atoms: C_4  and  O_22 
DOCKED: REMARK    5  A    between atoms: C_5  and  O_27 
DOCKED: REMARK    6  A    between atoms: C_6  and  O_32 
DOCKED: REMARK    7  A    between atoms: O_7  and  P_8 
DOCKED: REMARK    8  A    between atoms: P_8  and  O_10 
DOCKED: REMARK    9  A    between atoms: P_8  and  O_11 
DOCKED: REMARK   10  A    between atoms: O_12  and  P_13 
DOCKED: REMARK   11  A    between atoms: P_13  and  O_15 
DOCKED: REMARK   12  A    between atoms: P_13  and  O_16 
DOCKED: REMARK   13  A    between atoms: O_17  and  P_18 
DOCKED: REMARK   14  A    between atoms: P_18  and  O_20 
DOCKED: REMARK   15  A    between atoms: P_18  and  O_21 
DOCKED: REMARK   16  A    between atoms: O_22  and  P_23 
DOCKED: REMARK   17  A    between atoms: P_23  and  O_25 
DOCKED: REMARK   18  A    between atoms: P_23  and  O_26 
DOCKED: REMARK   19  A    between atoms: O_27  and  P_28 
DOCKED: REMARK   20  A    between atoms: P_28  and  O_30 
DOCKED: REMARK   21  A    between atoms: P_28  and  O_31 
DOCKED: REMARK   22  A    between atoms: O_32  and  P_33 
DOCKED: REMARK   23  A    between atoms: P_33  and  O_35 
DOCKED: REMARK   24  A    between atoms: P_33  and  O_36 
DOCKED: USER                              x       y       z     vdW  Elec       q    Type
DOCKED: USER                           _______ _______ _______ _____ _____    ______ ____
DOCKED: ROOT
DOCKED: ATOM      1  C   UNL d   1       0.092   9.890 -16.858 -0.21 -0.05    +0.194 C 
DOCKED: ATOM      2  C   UNL d   1      -1.273   9.200 -16.805 -0.19 -0.06    +0.194 C 
DOCKED: ATOM      3  C   UNL d   1      -2.272   9.985 -15.952 -0.21 -0.08    +0.194 C 
DOCKED: ATOM      4  C   UNL d   1      -2.382  11.454 -16.354 -0.19 -0.14    +0.194 C 
DOCKED: ATOM      5  C   UNL d   1      -1.040  12.152 -16.530 -0.09 -0.22    +0.194 C 
DOCKED: ATOM      6  C   UNL d   1      -0.020  11.340 -17.332 -0.17 -0.10    +0.194 C 
DOCKED: ENDROOT
DOCKED: BRANCH   1   7
DOCKED: ATOM      7  O   UNL d   1       0.906   9.194 -17.805 -0.08 +0.03    -0.278 OA
DOCKED: BRANCH   7   8
DOCKED: ATOM      8  P   UNL d   1       1.603   7.831 -17.349 -0.18 -0.01    +0.473 P 
DOCKED: ATOM      9  O   UNL d   1       2.695   7.983 -16.349 -0.31 -0.09    -0.228 OA
DOCKED: BRANCH   8  10
DOCKED: ATOM     10  O   UNL d   1       0.392   6.934 -16.825 -0.31 +0.07    -0.303 OA
DOCKED: ATOM     11  H   UNL d   1      -0.441   7.244 -17.226 +0.08 -0.06    +0.222 HD
DOCKED: ENDBRANCH   8  10
DOCKED: BRANCH   8  12
DOCKED: ATOM     12  O   UNL d   1       1.999   7.097 -18.702 -0.08 +0.02    -0.303 OA
DOCKED: ATOM     13  H   UNL d   1       1.240   6.638 -19.128 +0.07 -0.02    +0.222 HD
DOCKED: ENDBRANCH   8  12
DOCKED: ENDBRANCH   7   8
DOCKED: ENDBRANCH   1   7
DOCKED: BRANCH   2  14
DOCKED: ATOM     14  O   UNL d   1      -1.794   9.094 -18.136 -0.05 +0.07    -0.278 OA
DOCKED: BRANCH  14  15
DOCKED: ATOM     15  P   UNL d   1      -2.218   7.629 -18.624 -0.14 -0.11    +0.473 P 
DOCKED: ATOM     16  O   UNL d   1      -3.381   7.543 -19.562 -0.13 +0.05    -0.228 OA
DOCKED: BRANCH  15  17
DOCKED: ATOM     17  O   UNL d   1      -0.880   7.024 -19.242 -0.15 +0.05    -0.303 OA
DOCKED: ATOM     18  H   UNL d   1      -0.092   7.472 -18.880 +0.08 -0.03    +0.222 HD
DOCKED: ENDBRANCH  15  17
DOCKED: BRANCH  15  19
DOCKED: ATOM     19  O   UNL d   1      -2.358   6.789 -17.280 -0.19 +0.12    -0.303 OA
DOCKED: ATOM     20  H   UNL d   1      -2.778   7.310 -16.571 -0.04 -0.09    +0.222 HD
DOCKED: ENDBRANCH  15  19
DOCKED: ENDBRANCH  14  15
DOCKED: ENDBRANCH   2  14
DOCKED: BRANCH   6  21
DOCKED: ATOM     21  O   UNL d   1       1.251  11.949 -17.118 -0.17 +0.13    -0.278 OA
DOCKED: BRANCH  21  22
DOCKED: ATOM     22  P   UNL d   1       1.958  12.744 -18.306 -0.05 -0.18    +0.473 P 
DOCKED: ATOM     23  O   UNL d   1       3.449  12.780 -18.343 -0.04 +0.03    -0.228 OA
DOCKED: BRANCH  22  24
DOCKED: ATOM     24  O   UNL d   1       1.274  12.092 -19.587 -0.01 +0.08    -0.303 OA
DOCKED: ATOM     25  H   UNL d   1       0.293  12.092 -19.446 +0.03 -0.08    +0.222 HD
DOCKED: ENDBRANCH  22  24
DOCKED: BRANCH  22  26
DOCKED: ATOM     26  O   UNL d   1       1.223  14.167 -18.228 -0.07 +0.26    -0.303 OA
DOCKED: ATOM     27  H   UNL d   1       0.371  14.063 -17.757 -0.36 -0.34    +0.222 HD
DOCKED: ENDBRANCH  22  26
DOCKED: ENDBRANCH  21  22
DOCKED: ENDBRANCH   6  21
DOCKED: BRANCH   3  28
DOCKED: ATOM     28  O   UNL d   1      -3.561   9.432 -16.185 -0.08 +0.08    -0.278 OA
DOCKED: BRANCH  28  29
DOCKED: ATOM     29  P   UNL d   1      -4.264   8.535 -15.072 -0.17 -0.11    +0.473 P 
DOCKED: ATOM     30  O   UNL d   1      -3.718   8.674 -13.698 -0.32 +0.05    -0.228 OA
DOCKED: BRANCH  29  31
DOCKED: ATOM     31  O   UNL d   1      -5.791   8.960 -15.295 -0.08 +0.05    -0.303 OA
DOCKED: ATOM     32  H   UNL d   1      -5.824   9.663 -15.984 +0.06 -0.04    +0.222 HD
DOCKED: ENDBRANCH  29  31
DOCKED: BRANCH  29  33
DOCKED: ATOM     33  O   UNL d   1      -4.204   7.084 -15.727 -0.25 +0.08    -0.303 OA
DOCKED: ATOM     34  H   UNL d   1      -3.400   6.615 -15.394 -0.34 -0.09    +0.222 HD
DOCKED: ENDBRANCH  29  33
DOCKED: ENDBRANCH  28  29
DOCKED: ENDBRANCH   3  28
DOCKED: BRANCH   5  35
DOCKED: ATOM     35  O   UNL d   1      -1.314  13.335 -17.277 +0.13 +0.51    -0.278 OA
DOCKED: BRANCH  35  36
DOCKED: ATOM     36  P   UNL d   1      -1.965  13.237 -18.730 -0.05 -0.40    +0.473 P 
DOCKED: ATOM     37  O   UNL d   1      -2.441  11.878 -19.133 -0.02 +0.10    -0.228 OA
DOCKED: BRANCH  36  38
DOCKED: ATOM     38  O   UNL d   1      -3.115  14.336 -18.647 -0.08 +0.32    -0.303 OA
DOCKED: ATOM     39  H   UNL d   1      -3.438  14.393 -17.722 -0.47 -0.40    +0.222 HD
DOCKED: ENDBRANCH  36  38
DOCKED: BRANCH  36  40
DOCKED: ATOM     40  O   UNL d   1      -0.854  13.914 -19.646 -0.04 +0.19    -0.303 OA
DOCKED: ATOM     41  H   UNL d   1       0.052  13.636 -19.386 +0.02 -0.13    +0.222 HD
DOCKED: ENDBRANCH  36  40
DOCKED: ENDBRANCH  35  36
DOCKED: ENDBRANCH   5  35
DOCKED: BRANCH   4  42
DOCKED: ATOM     42  O   UNL d   1      -3.068  12.124 -15.291 -0.26 +0.23    -0.278 OA
DOCKED: BRANCH  42  43
DOCKED: ATOM     43  P   UNL d   1      -4.543  12.675 -15.551 -0.11 -0.31    +0.473 P 
DOCKED: ATOM     44  O   UNL d   1      -4.917  13.965 -14.908 -0.18 +0.17    -0.228 OA
DOCKED: BRANCH  43  45
DOCKED: ATOM     45  O   UNL d   1      -4.635  12.689 -17.140 -0.06 +0.19    -0.303 OA
DOCKED: ATOM     46  H   UNL d   1      -3.747  12.713 -17.550 +0.03 -0.18    +0.222 HD
DOCKED: ENDBRANCH  43  45
DOCKED: BRANCH  43  47
DOCKED: ATOM     47  O   UNL d   1      -5.472  11.422 -15.182 -0.05 +0.08    -0.303 OA
DOCKED: ATOM     48  H   UNL d   1      -4.906  10.656 -14.955 +0.09 -0.06    +0.222 HD
DOCKED: ENDBRANCH  43  47
DOCKED: ENDBRANCH  42  43
DOCKED: ENDBRANCH   4  42
DOCKED: TORSDOF 24
DOCKED: TER
DOCKED: ENDMDL
________________________________________________________________________________


	BEGINNING GENETIC ALGORITHM DOCKING 40 of 100
Run: 40 Seed: 1173354064 1696732769 [ Run 40 of 100 GA/GALS ]
Beginning LAMARCKIAN GENETIC ALGORITHM (LGA), with a maximum of 25000000 energy evaluations.

Final-Value: -18.282


	FINAL GENETIC ALGORITHM DOCKED STATE
	_______________________________________________


Detailed state:  trans 8.570 16.282 -11.266 quatxyzw -0.190883 0.209370 0.166221 0.944510 center 0.035 0.082 -0.065 ntor 24 95.9056 153.3843 114.4558 97.1513 110.5870 73.7791 -42.3068 -173.1858 12.9431 11.4024 -119.4089 -132.0200 -71.5113 84.3579 -177.8258 128.8713 -178.1375 -4.7611 -145.5018 -4.0017 10.8917 -19.5267 180.0000 159.9307
State:	  8.570  16.282 -11.266  -0.581  0.637  0.506 38.354     95.91  153.38  114.46   97.15  110.59   73.78  -42.31 -173.19   12.94   11.40 -119.41 -132.02  -71.51   84.36 -177.83  128.87 -178.14   -4.76 -145.50   -4.00   10.89  -19.53  180.00  159.93

DOCKED: MODEL       40
DOCKED: USER    Run = 40
DOCKED: USER    DPF = D:/Protein_go_brrr/autodock/final/mut_K82N/IHP/dock.dpf
DOCKED: USER  
DOCKED: USER    Estimated Free Energy of Binding    =   +2.53 kcal/mol  [=(1)+(2)+(3)-(4)]
DOCKED: USER    
DOCKED: USER    (1) Final Intermolecular Energy     =   -4.63 kcal/mol
DOCKED: USER        vdW + Hbond + desolv Energy     =   -4.55 kcal/mol
DOCKED: USER        Electrostatic Energy            =   -0.08 kcal/mol
DOCKED: USER    (2) Final Total Internal Energy     =  -13.65 kcal/mol
DOCKED: USER    (3) Torsional Free Energy           =   +7.16 kcal/mol
DOCKED: USER    (4) Unbound System's Energy  [=(2)] =  -13.65 kcal/mol
DOCKED: USER    
DOCKED: USER    
DOCKED: USER    NEWDPF move IHP_ideal_opt.pdbqt
DOCKED: USER    NEWDPF about 0.035000 0.082000 -0.065000
DOCKED: USER    NEWDPF tran0 8.570129 16.281992 -11.266083
DOCKED: USER    NEWDPF quaternion0 -0.190883 0.209370 0.166221 0.944510
DOCKED: USER    NEWDPF axisangle0 -0.581103 0.637384 0.506025 38.353563
DOCKED: USER    NEWDPF quat0 -0.581103 0.637384 0.506025 38.353563
DOCKED: USER    NEWDPF dihe0 95.91 153.38 114.46 97.15 110.59 73.78 -42.31 -173.19 12.94 11.40 -119.41 -132.02 -71.51 84.36 -177.83 128.87 -178.14 -4.76 -145.50 -4.00 10.89 -19.53 180.00 159.93 
DOCKED: USER  keepresnum = 1 
DOCKED: USER  
DOCKED: REMARK  24 active torsions:
DOCKED: REMARK  status: ('A' for Active; 'I' for Inactive)
DOCKED: REMARK    1  A    between atoms: C_1  and  O_7 
DOCKED: REMARK    2  A    between atoms: C_2  and  O_12 
DOCKED: REMARK    3  A    between atoms: C_3  and  O_17 
DOCKED: REMARK    4  A    between atoms: C_4  and  O_22 
DOCKED: REMARK    5  A    between atoms: C_5  and  O_27 
DOCKED: REMARK    6  A    between atoms: C_6  and  O_32 
DOCKED: REMARK    7  A    between atoms: O_7  and  P_8 
DOCKED: REMARK    8  A    between atoms: P_8  and  O_10 
DOCKED: REMARK    9  A    between atoms: P_8  and  O_11 
DOCKED: REMARK   10  A    between atoms: O_12  and  P_13 
DOCKED: REMARK   11  A    between atoms: P_13  and  O_15 
DOCKED: REMARK   12  A    between atoms: P_13  and  O_16 
DOCKED: REMARK   13  A    between atoms: O_17  and  P_18 
DOCKED: REMARK   14  A    between atoms: P_18  and  O_20 
DOCKED: REMARK   15  A    between atoms: P_18  and  O_21 
DOCKED: REMARK   16  A    between atoms: O_22  and  P_23 
DOCKED: REMARK   17  A    between atoms: P_23  and  O_25 
DOCKED: REMARK   18  A    between atoms: P_23  and  O_26 
DOCKED: REMARK   19  A    between atoms: O_27  and  P_28 
DOCKED: REMARK   20  A    between atoms: P_28  and  O_30 
DOCKED: REMARK   21  A    between atoms: P_28  and  O_31 
DOCKED: REMARK   22  A    between atoms: O_32  and  P_33 
DOCKED: REMARK   23  A    between atoms: P_33  and  O_35 
DOCKED: REMARK   24  A    between atoms: P_33  and  O_36 
DOCKED: USER                              x       y       z     vdW  Elec       q    Type
DOCKED: USER                           _______ _______ _______ _____ _____    ______ ____
DOCKED: ROOT
DOCKED: ATOM      1  C   UNL d   1       9.073  14.784 -10.568 -0.16 +0.01    +0.194 C 
DOCKED: ATOM      2  C   UNL d   1       7.985  14.682 -11.638 -0.10 +0.01    +0.194 C 
DOCKED: ATOM      3  C   UNL d   1       6.919  15.767 -11.468 -0.23 -0.02    +0.194 C 
DOCKED: ATOM      4  C   UNL d   1       7.504  17.174 -11.372 -0.10 -0.02    +0.194 C 
DOCKED: ATOM      5  C   UNL d   1       8.670  17.296 -10.399 -0.12 -0.01    +0.194 C 
DOCKED: ATOM      6  C   UNL d   1       9.704  16.176 -10.528 -0.17 -0.00    +0.194 C 
DOCKED: ENDROOT
DOCKED: BRANCH   1   7
DOCKED: ATOM      7  O   UNL d   1      10.110  13.856 -10.896 -0.26 -0.03    -0.278 OA
DOCKED: BRANCH   7   8
DOCKED: ATOM      8  P   UNL d   1      11.333  14.368 -11.786 -0.09 +0.01    +0.473 P 
DOCKED: ATOM      9  O   UNL d   1      11.070  15.606 -12.569 -0.03 +0.00    -0.228 OA
DOCKED: BRANCH   8  10
DOCKED: ATOM     10  O   UNL d   1      12.530  14.526 -10.743 -0.06 +0.00    -0.303 OA
DOCKED: ATOM     11  H   UNL d   1      12.294  15.195 -10.074 +0.06 -0.00    +0.222 HD
DOCKED: ENDBRANCH   8  10
DOCKED: BRANCH   8  12
DOCKED: ATOM     12  O   UNL d   1      11.791  13.100 -12.627 -0.07 -0.01    -0.303 OA
DOCKED: ATOM     13  H   UNL d   1      11.557  13.165 -13.581 +0.04 +0.01    +0.222 HD
DOCKED: ENDBRANCH   8  12
DOCKED: ENDBRANCH   7   8
DOCKED: ENDBRANCH   1   7
DOCKED: BRANCH   2  14
DOCKED: ATOM     14  O   UNL d   1       8.585  14.831 -12.931 -0.10 -0.01    -0.278 OA
DOCKED: BRANCH  14  15
DOCKED: ATOM     15  P   UNL d   1       8.261  13.689 -14.006 -0.08 +0.06    +0.473 P 
DOCKED: ATOM     16  O   UNL d   1       8.020  14.140 -15.413 -0.04 -0.02    -0.228 OA
DOCKED: BRANCH  15  17
DOCKED: ATOM     17  O   UNL d   1       9.488  12.680 -13.882 -0.10 -0.05    -0.303 OA
DOCKED: ATOM     18  H   UNL d   1       9.961  12.804 -13.037 +0.07 +0.03    +0.222 HD
DOCKED: ENDBRANCH  15  17
DOCKED: BRANCH  15  19
DOCKED: ATOM     19  O   UNL d   1       7.085  12.845 -13.346 -0.25 -0.08    -0.303 OA
DOCKED: ATOM     20  H   UNL d   1       6.462  13.415 -12.859 +0.07 +0.03    +0.222 HD
DOCKED: ENDBRANCH  15  19
DOCKED: ENDBRANCH  14  15
DOCKED: ENDBRANCH   2  14
DOCKED: BRANCH   6  21
DOCKED: ATOM     21  O   UNL d   1      10.520  16.232  -9.360 -0.12 -0.00    -0.278 OA
DOCKED: BRANCH  21  22
DOCKED: ATOM     22  P   UNL d   1      11.855  17.106  -9.367 -0.05 -0.02    +0.473 P 
DOCKED: ATOM     23  O   UNL d   1      13.009  16.637  -8.546 -0.05 +0.01    -0.228 OA
DOCKED: BRANCH  22  24
DOCKED: ATOM     24  O   UNL d   1      12.152  17.234 -10.925 -0.01 +0.01    -0.303 OA
DOCKED: ATOM     25  H   UNL d   1      11.300  17.445 -11.385 +0.02 -0.01    +0.222 HD
DOCKED: ENDBRANCH  22  24
DOCKED: BRANCH  22  26
DOCKED: ATOM     26  O   UNL d   1      11.290  18.565  -9.017 -0.03 +0.02    -0.303 OA
DOCKED: ATOM     27  H   UNL d   1      11.215  19.088  -9.841 +0.01 -0.02    +0.222 HD
DOCKED: ENDBRANCH  22  26
DOCKED: ENDBRANCH  21  22
DOCKED: ENDBRANCH   6  21
DOCKED: BRANCH   3  28
DOCKED: ATOM     28  O   UNL d   1       6.120  15.771 -12.644 -0.10 +0.02    -0.278 OA
DOCKED: BRANCH  28  29
DOCKED: ATOM     29  P   UNL d   1       4.807  14.872 -12.726 -0.18 -0.03    +0.473 P 
DOCKED: ATOM     30  O   UNL d   1       3.522  15.598 -12.554 -0.25 +0.05    -0.228 OA
DOCKED: BRANCH  29  31
DOCKED: ATOM     31  O   UNL d   1       5.051  14.151 -14.134 -0.15 -0.01    -0.303 OA
DOCKED: ATOM     32  H   UNL d   1       5.968  14.351 -14.435 +0.07 +0.01    +0.222 HD
DOCKED: ENDBRANCH  29  31
DOCKED: BRANCH  29  33
DOCKED: ATOM     33  O   UNL d   1       5.127  13.717 -11.679 -0.55 -0.00    -0.303 OA
DOCKED: ATOM     34  H   UNL d   1       5.210  12.859 -12.162 -0.28 +0.01    +0.222 HD
DOCKED: ENDBRANCH  29  33
DOCKED: ENDBRANCH  28  29
DOCKED: ENDBRANCH   3  28
DOCKED: BRANCH   5  35
DOCKED: ATOM     35  O   UNL d   1       9.328  18.516 -10.735 -0.02 +0.02    -0.278 OA
DOCKED: BRANCH  35  36
DOCKED: ATOM     36  P   UNL d   1       9.718  18.830 -12.250 +0.00 -0.03    +0.473 P 
DOCKED: ATOM     37  O   UNL d   1      11.105  19.344 -12.465 -0.00 +0.02    -0.228 OA
DOCKED: BRANCH  36  38
DOCKED: ATOM     38  O   UNL d   1       9.419  17.435 -12.958 -0.01 +0.02    -0.303 OA
DOCKED: ATOM     39  H   UNL d   1       9.945  16.732 -12.519 +0.03 -0.01    +0.222 HD
DOCKED: ENDBRANCH  36  38
DOCKED: BRANCH  36  40
DOCKED: ATOM     40  O   UNL d   1       8.520  19.763 -12.722 -0.00 +0.03    -0.303 OA
DOCKED: ATOM     41  H   UNL d   1       7.684  19.549 -12.252 +0.01 -0.02    +0.222 HD
DOCKED: ENDBRANCH  36  40
DOCKED: ENDBRANCH  35  36
DOCKED: ENDBRANCH   5  35
DOCKED: BRANCH   4  42
DOCKED: ATOM     42  O   UNL d   1       6.460  18.025 -10.886 -0.06 +0.05    -0.278 OA
DOCKED: BRANCH  42  43
DOCKED: ATOM     43  P   UNL d   1       5.629  17.570  -9.603 -0.08 -0.15    +0.473 P 
DOCKED: ATOM     44  O   UNL d   1       6.384  16.946  -8.481 -0.31 +0.06    -0.228 OA
DOCKED: BRANCH  43  45
DOCKED: ATOM     45  O   UNL d   1       4.849  18.899  -9.204 -0.12 +0.12    -0.303 OA
DOCKED: ATOM     46  H   UNL d   1       4.147  18.719  -8.547 -0.43 -0.16    +0.222 HD
DOCKED: ENDBRANCH  43  45
DOCKED: BRANCH  43  47
DOCKED: ATOM     47  O   UNL d   1       4.452  16.678 -10.227 -0.24 +0.09    -0.303 OA
DOCKED: ATOM     48  H   UNL d   1       4.832  16.050 -10.875 +0.09 -0.05    +0.222 HD
DOCKED: ENDBRANCH  43  47
DOCKED: ENDBRANCH  42  43
DOCKED: ENDBRANCH   4  42
DOCKED: TORSDOF 24
DOCKED: TER
DOCKED: ENDMDL
________________________________________________________________________________


	BEGINNING GENETIC ALGORITHM DOCKING 41 of 100
Run: 41 Seed: 203481854 1910047030 [ Run 41 of 100 GA/GALS ]
Beginning LAMARCKIAN GENETIC ALGORITHM (LGA), with a maximum of 25000000 energy evaluations.

Final-Value: -17.128


	FINAL GENETIC ALGORITHM DOCKED STATE
	_______________________________________________


Detailed state:  trans -12.164 -13.883 -5.244 quatxyzw -0.431824 -0.500773 0.542283 -0.518347 center 0.035 0.082 -0.065 ntor 24 18.2113 113.6991 52.8097 74.3256 5.0832 -172.5823 -99.6935 -7.8832 17.1840 95.6997 161.3026 172.8612 -46.9784 -81.5382 177.9576 43.8302 -13.3009 34.0727 -165.2790 -1.2633 -2.3622 -14.4431 -23.3803 5.4343
State:	-12.164 -13.883  -5.244  -0.505 -0.586  0.634 -117.557     18.21  113.70   52.81   74.33    5.08 -172.58  -99.69   -7.88   17.18   95.70  161.30  172.86  -46.98  -81.54  177.96   43.83  -13.30   34.07 -165.28   -1.26   -2.36  -14.44  -23.38    5.43

DOCKED: MODEL       41
DOCKED: USER    Run = 41
DOCKED: USER    DPF = D:/Protein_go_brrr/autodock/final/mut_K82N/IHP/dock.dpf
DOCKED: USER  
DOCKED: USER    Estimated Free Energy of Binding    =   +4.18 kcal/mol  [=(1)+(2)+(3)-(4)]
DOCKED: USER    
DOCKED: USER    (1) Final Intermolecular Energy     =   -2.98 kcal/mol
DOCKED: USER        vdW + Hbond + desolv Energy     =   -2.92 kcal/mol
DOCKED: USER        Electrostatic Energy            =   -0.06 kcal/mol
DOCKED: USER    (2) Final Total Internal Energy     =  -14.15 kcal/mol
DOCKED: USER    (3) Torsional Free Energy           =   +7.16 kcal/mol
DOCKED: USER    (4) Unbound System's Energy  [=(2)] =  -14.15 kcal/mol
DOCKED: USER    
DOCKED: USER    
DOCKED: USER    NEWDPF move IHP_ideal_opt.pdbqt
DOCKED: USER    NEWDPF about 0.035000 0.082000 -0.065000
DOCKED: USER    NEWDPF tran0 -12.163884 -13.882636 -5.244452
DOCKED: USER    NEWDPF quaternion0 -0.431824 -0.500773 0.542283 -0.518347
DOCKED: USER    NEWDPF axisangle0 -0.504957 -0.585582 0.634123 -117.557160
DOCKED: USER    NEWDPF quat0 -0.504957 -0.585582 0.634123 -117.557160
DOCKED: USER    NEWDPF dihe0 18.21 113.70 52.81 74.33 5.08 -172.58 -99.69 -7.88 17.18 95.70 161.30 172.86 -46.98 -81.54 177.96 43.83 -13.30 34.07 -165.28 -1.26 -2.36 -14.44 -23.38 5.43 
DOCKED: USER  keepresnum = 1 
DOCKED: USER  
DOCKED: REMARK  24 active torsions:
DOCKED: REMARK  status: ('A' for Active; 'I' for Inactive)
DOCKED: REMARK    1  A    between atoms: C_1  and  O_7 
DOCKED: REMARK    2  A    between atoms: C_2  and  O_12 
DOCKED: REMARK    3  A    between atoms: C_3  and  O_17 
DOCKED: REMARK    4  A    between atoms: C_4  and  O_22 
DOCKED: REMARK    5  A    between atoms: C_5  and  O_27 
DOCKED: REMARK    6  A    between atoms: C_6  and  O_32 
DOCKED: REMARK    7  A    between atoms: O_7  and  P_8 
DOCKED: REMARK    8  A    between atoms: P_8  and  O_10 
DOCKED: REMARK    9  A    between atoms: P_8  and  O_11 
DOCKED: REMARK   10  A    between atoms: O_12  and  P_13 
DOCKED: REMARK   11  A    between atoms: P_13  and  O_15 
DOCKED: REMARK   12  A    between atoms: P_13  and  O_16 
DOCKED: REMARK   13  A    between atoms: O_17  and  P_18 
DOCKED: REMARK   14  A    between atoms: P_18  and  O_20 
DOCKED: REMARK   15  A    between atoms: P_18  and  O_21 
DOCKED: REMARK   16  A    between atoms: O_22  and  P_23 
DOCKED: REMARK   17  A    between atoms: P_23  and  O_25 
DOCKED: REMARK   18  A    between atoms: P_23  and  O_26 
DOCKED: REMARK   19  A    between atoms: O_27  and  P_28 
DOCKED: REMARK   20  A    between atoms: P_28  and  O_30 
DOCKED: REMARK   21  A    between atoms: P_28  and  O_31 
DOCKED: REMARK   22  A    between atoms: O_32  and  P_33 
DOCKED: REMARK   23  A    between atoms: P_33  and  O_35 
DOCKED: REMARK   24  A    between atoms: P_33  and  O_36 
DOCKED: USER                              x       y       z     vdW  Elec       q    Type
DOCKED: USER                           _______ _______ _______ _____ _____    ______ ____
DOCKED: ROOT
DOCKED: ATOM      1  C   UNL d   1     -12.942 -12.746  -4.202 -0.02 -0.02    +0.194 C 
DOCKED: ATOM      2  C   UNL d   1     -12.362 -13.984  -3.515 -0.04 -0.02    +0.194 C 
DOCKED: ATOM      3  C   UNL d   1     -12.658 -15.261  -4.303 -0.02 -0.01    +0.194 C 
DOCKED: ATOM      4  C   UNL d   1     -12.249 -15.170  -5.771 -0.03 -0.01    +0.194 C 
DOCKED: ATOM      5  C   UNL d   1     -12.710 -13.896  -6.466 -0.02 -0.01    +0.194 C 
DOCKED: ATOM      6  C   UNL d   1     -12.469 -12.624  -5.651 -0.05 -0.02    +0.194 C 
DOCKED: ENDROOT
DOCKED: BRANCH   1   7
DOCKED: ATOM      7  O   UNL d   1     -12.478 -11.589  -3.502 -0.04 +0.04    -0.278 OA
DOCKED: BRANCH   7   8
DOCKED: ATOM      8  P   UNL d   1     -10.945 -11.170  -3.661 -0.10 -0.09    +0.473 P 
DOCKED: ATOM      9  O   UNL d   1     -10.164 -11.988  -4.629 -0.22 +0.05    -0.228 OA
DOCKED: BRANCH   8  10
DOCKED: ATOM     10  O   UNL d   1     -11.004  -9.624  -4.050 -0.19 +0.07    -0.303 OA
DOCKED: ATOM     11  H   UNL d   1     -10.337  -9.434  -4.736 -0.17 -0.07    +0.222 HD
DOCKED: ENDBRANCH   8  10
DOCKED: BRANCH   8  12
DOCKED: ATOM     12  O   UNL d   1     -10.375 -11.118  -2.179 -0.28 +0.09    -0.303 OA
DOCKED: ATOM     13  H   UNL d   1     -10.318 -12.005  -1.756 +0.05 -0.06    +0.222 HD
DOCKED: ENDBRANCH   8  12
DOCKED: ENDBRANCH   7   8
DOCKED: ENDBRANCH   1   7
DOCKED: BRANCH   2  14
DOCKED: ATOM     14  O   UNL d   1     -10.941 -13.834  -3.406 -0.12 +0.02    -0.278 OA
DOCKED: BRANCH  14  15
DOCKED: ATOM     15  P   UNL d   1     -10.300 -14.104  -1.964 -0.15 -0.03    +0.473 P 
DOCKED: ATOM     16  O   UNL d   1     -11.194 -13.893  -0.782 +0.02 +0.03    -0.228 OA
DOCKED: BRANCH  15  17
DOCKED: ATOM     17  O   UNL d   1      -9.745 -15.595  -2.059 -0.68 -0.07    -0.303 OA
DOCKED: ATOM     18  H   UNL d   1     -10.385 -16.180  -2.508 +0.05 +0.03    +0.222 HD
DOCKED: ENDBRANCH  15  17
DOCKED: BRANCH  15  19
DOCKED: ATOM     19  O   UNL d   1      -8.952 -13.261  -1.963 -0.31 +0.08    -0.303 OA
DOCKED: ATOM     20  H   UNL d   1      -8.930 -12.617  -2.695 -0.37 -0.11    +0.222 HD
DOCKED: ENDBRANCH  15  19
DOCKED: ENDBRANCH  14  15
DOCKED: ENDBRANCH   2  14
DOCKED: BRANCH   6  21
DOCKED: ATOM     21  O   UNL d   1     -13.243 -11.592  -6.258 -0.01 +0.03    -0.278 OA
DOCKED: BRANCH  21  22
DOCKED: ATOM     22  P   UNL d   1     -12.523 -10.479  -7.145 -0.05 -0.08    +0.473 P 
DOCKED: ATOM     23  O   UNL d   1     -13.154  -9.130  -7.233 -0.07 +0.03    -0.228 OA
DOCKED: BRANCH  22  24
DOCKED: ATOM     24  O   UNL d   1     -11.049 -10.488  -6.544 -0.16 +0.10    -0.303 OA
DOCKED: ATOM     25  H   UNL d   1     -11.104 -10.238  -5.587 +0.04 -0.06    +0.222 HD
DOCKED: ENDBRANCH  22  24
DOCKED: BRANCH  22  26
DOCKED: ATOM     26  O   UNL d   1     -12.319 -11.252  -8.534 -0.05 +0.05    -0.303 OA
DOCKED: ATOM     27  H   UNL d   1     -12.859 -12.068  -8.531 +0.03 -0.03    +0.222 HD
DOCKED: ENDBRANCH  22  26
DOCKED: ENDBRANCH  21  22
DOCKED: ENDBRANCH   6  21
DOCKED: BRANCH   3  28
DOCKED: ATOM     28  O   UNL d   1     -11.859 -16.300  -3.752 -0.03 +0.00    -0.278 OA
DOCKED: BRANCH  28  29
DOCKED: ATOM     29  P   UNL d   1     -12.466 -17.291  -2.663 +0.00 -0.02    +0.473 P 
DOCKED: ATOM     30  O   UNL d   1     -13.950 -17.327  -2.587 +0.00 +0.01    -0.228 OA
DOCKED: BRANCH  29  31
DOCKED: ATOM     31  O   UNL d   1     -11.727 -18.648  -3.077 -0.00 +0.01    -0.303 OA
DOCKED: ATOM     32  H   UNL d   1     -11.812 -18.767  -4.051 +0.01 -0.01    +0.222 HD
DOCKED: ENDBRANCH  29  31
DOCKED: BRANCH  29  33
DOCKED: ATOM     33  O   UNL d   1     -11.688 -16.855  -1.344 -0.02 +0.01    -0.303 OA
DOCKED: ATOM     34  H   UNL d   1     -11.765 -15.875  -1.235 +0.04 -0.01    +0.222 HD
DOCKED: ENDBRANCH  29  33
DOCKED: ENDBRANCH  28  29
DOCKED: ENDBRANCH   3  28
DOCKED: BRANCH   5  35
DOCKED: ATOM     35  O   UNL d   1     -11.919 -13.792  -7.649 -0.03 +0.02    -0.278 OA
DOCKED: BRANCH  35  36
DOCKED: ATOM     36  P   UNL d   1     -12.568 -14.076  -9.078 +0.01 -0.03    +0.473 P 
DOCKED: ATOM     37  O   UNL d   1     -14.019 -13.736  -9.207 -0.00 +0.02    -0.228 OA
DOCKED: BRANCH  36  38
DOCKED: ATOM     38  O   UNL d   1     -11.612 -13.243 -10.041 -0.02 +0.03    -0.303 OA
DOCKED: ATOM     39  H   UNL d   1     -11.552 -12.320  -9.714 +0.05 -0.03    +0.222 HD
DOCKED: ENDBRANCH  36  38
DOCKED: BRANCH  36  40
DOCKED: ATOM     40  O   UNL d   1     -12.155 -15.589  -9.344 -0.00 +0.01    -0.303 OA
DOCKED: ATOM     41  H   UNL d   1     -12.429 -16.177  -8.605 +0.01 -0.01    +0.222 HD
DOCKED: ENDBRANCH  36  40
DOCKED: ENDBRANCH  35  36
DOCKED: ENDBRANCH   5  35
DOCKED: BRANCH   4  42
DOCKED: ATOM     42  O   UNL d   1     -12.876 -16.267  -6.445 -0.00 +0.01    -0.278 OA
DOCKED: BRANCH  42  43
DOCKED: ATOM     43  P   UNL d   1     -11.984 -17.516  -6.881 +0.01 -0.01    +0.473 P 
DOCKED: ATOM     44  O   UNL d   1     -11.647 -18.518  -5.833 -0.01 +0.01    -0.228 OA
DOCKED: BRANCH  43  45
DOCKED: ATOM     45  O   UNL d   1     -12.795 -18.111  -8.114 +0.00 +0.01    -0.303 OA
DOCKED: ATOM     46  H   UNL d   1     -12.527 -17.690  -8.955 +0.00 -0.01    +0.222 HD
DOCKED: ENDBRANCH  43  45
DOCKED: BRANCH  43  47
DOCKED: ATOM     47  O   UNL d   1     -10.732 -16.833  -7.614 -0.02 +0.00    -0.303 OA
DOCKED: ATOM     48  H   UNL d   1     -10.902 -15.874  -7.717 +0.03 -0.00    +0.222 HD
DOCKED: ENDBRANCH  43  47
DOCKED: ENDBRANCH  42  43
DOCKED: ENDBRANCH   4  42
DOCKED: TORSDOF 24
DOCKED: TER
DOCKED: ENDMDL
________________________________________________________________________________


	BEGINNING GENETIC ALGORITHM DOCKING 42 of 100
Run: 42 Seed: 2015627208 2082651303 [ Run 42 of 100 GA/GALS ]
Beginning LAMARCKIAN GENETIC ALGORITHM (LGA), with a maximum of 25000000 energy evaluations.

Final-Value: -16.211


	FINAL GENETIC ALGORITHM DOCKED STATE
	_______________________________________________


Detailed state:  trans -10.939 0.344 -22.632 quatxyzw -0.037865 -0.016142 0.689926 -0.722708 center 0.035 0.082 -0.065 ntor 24 -100.0003 38.1153 50.3392 4.1765 42.6297 -127.2885 -75.5345 98.8465 80.8582 1.3458 7.2924 -166.2278 -151.8760 -172.7799 -8.1324 -166.7240 180.0000 152.1345 33.4732 -33.5544 -41.3483 -29.2718 23.1890 -180.0000
State:	-10.939   0.344 -22.632  -0.055 -0.023  0.998 -87.443   -100.00   38.12   50.34    4.18   42.63 -127.29  -75.53   98.85   80.86    1.35    7.29 -166.23 -151.88 -172.78   -8.13 -166.72  180.00  152.13   33.47  -33.55  -41.35  -29.27   23.19 -180.00

DOCKED: MODEL       42
DOCKED: USER    Run = 42
DOCKED: USER    DPF = D:/Protein_go_brrr/autodock/final/mut_K82N/IHP/dock.dpf
DOCKED: USER  
DOCKED: USER    Estimated Free Energy of Binding    =   +4.52 kcal/mol  [=(1)+(2)+(3)-(4)]
DOCKED: USER    
DOCKED: USER    (1) Final Intermolecular Energy     =   -2.64 kcal/mol
DOCKED: USER        vdW + Hbond + desolv Energy     =   -2.28 kcal/mol
DOCKED: USER        Electrostatic Energy            =   -0.37 kcal/mol
DOCKED: USER    (2) Final Total Internal Energy     =  -13.57 kcal/mol
DOCKED: USER    (3) Torsional Free Energy           =   +7.16 kcal/mol
DOCKED: USER    (4) Unbound System's Energy  [=(2)] =  -13.57 kcal/mol
DOCKED: USER    
DOCKED: USER    
DOCKED: USER    NEWDPF move IHP_ideal_opt.pdbqt
DOCKED: USER    NEWDPF about 0.035000 0.082000 -0.065000
DOCKED: USER    NEWDPF tran0 -10.939260 0.343734 -22.632136
DOCKED: USER    NEWDPF quaternion0 -0.037865 -0.016142 0.689926 -0.722708
DOCKED: USER    NEWDPF axisangle0 -0.054785 -0.023355 0.998225 -87.442905
DOCKED: USER    NEWDPF quat0 -0.054785 -0.023355 0.998225 -87.442905
DOCKED: USER    NEWDPF dihe0 -100.00 38.12 50.34 4.18 42.63 -127.29 -75.53 98.85 80.86 1.35 7.29 -166.23 -151.88 -172.78 -8.13 -166.72 180.00 152.13 33.47 -33.55 -41.35 -29.27 23.19 -180.00 
DOCKED: USER  keepresnum = 1 
DOCKED: USER  
DOCKED: REMARK  24 active torsions:
DOCKED: REMARK  status: ('A' for Active; 'I' for Inactive)
DOCKED: REMARK    1  A    between atoms: C_1  and  O_7 
DOCKED: REMARK    2  A    between atoms: C_2  and  O_12 
DOCKED: REMARK    3  A    between atoms: C_3  and  O_17 
DOCKED: REMARK    4  A    between atoms: C_4  and  O_22 
DOCKED: REMARK    5  A    between atoms: C_5  and  O_27 
DOCKED: REMARK    6  A    between atoms: C_6  and  O_32 
DOCKED: REMARK    7  A    between atoms: O_7  and  P_8 
DOCKED: REMARK    8  A    between atoms: P_8  and  O_10 
DOCKED: REMARK    9  A    between atoms: P_8  and  O_11 
DOCKED: REMARK   10  A    between atoms: O_12  and  P_13 
DOCKED: REMARK   11  A    between atoms: P_13  and  O_15 
DOCKED: REMARK   12  A    between atoms: P_13  and  O_16 
DOCKED: REMARK   13  A    between atoms: O_17  and  P_18 
DOCKED: REMARK   14  A    between atoms: P_18  and  O_20 
DOCKED: REMARK   15  A    between atoms: P_18  and  O_21 
DOCKED: REMARK   16  A    between atoms: O_22  and  P_23 
DOCKED: REMARK   17  A    between atoms: P_23  and  O_25 
DOCKED: REMARK   18  A    between atoms: P_23  and  O_26 
DOCKED: REMARK   19  A    between atoms: O_27  and  P_28 
DOCKED: REMARK   20  A    between atoms: P_28  and  O_30 
DOCKED: REMARK   21  A    between atoms: P_28  and  O_31 
DOCKED: REMARK   22  A    between atoms: O_32  and  P_33 
DOCKED: REMARK   23  A    between atoms: P_33  and  O_35 
DOCKED: REMARK   24  A    between atoms: P_33  and  O_36 
DOCKED: USER                              x       y       z     vdW  Elec       q    Type
DOCKED: USER                           _______ _______ _______ _____ _____    ______ ____
DOCKED: ROOT
DOCKED: ATOM      1  C   UNL d   1     -10.055   1.580 -21.812 -0.09 +0.01    +0.194 C 
DOCKED: ATOM      2  C   UNL d   1      -9.286   0.286 -22.081 -0.09 -0.02    +0.194 C 
DOCKED: ATOM      3  C   UNL d   1     -10.137  -0.951 -21.789 -0.06 -0.01    +0.194 C 
DOCKED: ATOM      4  C   UNL d   1     -11.493  -0.928 -22.491 -0.02 +0.00    +0.194 C 
DOCKED: ATOM      5  C   UNL d   1     -12.246   0.388 -22.344 -0.02 +0.02    +0.194 C 
DOCKED: ATOM      6  C   UNL d   1     -11.378   1.627 -22.577 -0.02 +0.01    +0.194 C 
DOCKED: ENDROOT
DOCKED: BRANCH   1   7
DOCKED: ATOM      7  O   UNL d   1      -9.259   2.676 -22.270 -0.04 +0.01    -0.278 OA
DOCKED: BRANCH   7   8
DOCKED: ATOM      8  P   UNL d   1      -8.219   3.336 -21.252 -0.14 -0.05    +0.473 P 
DOCKED: ATOM      9  O   UNL d   1      -8.677   4.601 -20.615 -0.12 +0.01    -0.228 OA
DOCKED: BRANCH   8  10
DOCKED: ATOM     10  O   UNL d   1      -7.918   2.176 -20.200 -0.13 +0.06    -0.303 OA
DOCKED: ATOM     11  H   UNL d   1      -7.054   1.770 -20.400 -0.37 -0.19    +0.222 HD
DOCKED: ENDBRANCH   8  10
DOCKED: BRANCH   8  12
DOCKED: ATOM     12  O   UNL d   1      -6.851   3.420 -22.056 -0.18 +0.05    -0.303 OA
DOCKED: ATOM     13  H   UNL d   1      -6.889   2.967 -22.929 +0.05 -0.04    +0.222 HD
DOCKED: ENDBRANCH   8  12
DOCKED: ENDBRANCH   7   8
DOCKED: ENDBRANCH   1   7
DOCKED: BRANCH   2  14
DOCKED: ATOM     14  O   UNL d   1      -8.893   0.255 -23.459 -0.02 +0.04    -0.278 OA
DOCKED: BRANCH  14  15
DOCKED: ATOM     15  P   UNL d   1      -7.395   0.715 -23.788 -0.02 -0.09    +0.473 P 
DOCKED: ATOM     16  O   UNL d   1      -7.238   1.925 -24.654 -0.02 +0.03    -0.228 OA
DOCKED: BRANCH  15  17
DOCKED: ATOM     17  O   UNL d   1      -6.720   0.888 -22.355 -0.11 +0.12    -0.303 OA
DOCKED: ATOM     18  H   UNL d   1      -7.308   1.376 -21.747 -0.12 -0.08    +0.222 HD
DOCKED: ENDBRANCH  15  17
DOCKED: BRANCH  15  19
DOCKED: ATOM     19  O   UNL d   1      -6.682  -0.605 -24.318 -0.01 +0.07    -0.303 OA
DOCKED: ATOM     20  H   UNL d   1      -6.752  -1.335 -23.676 +0.04 -0.07    +0.222 HD
DOCKED: ENDBRANCH  15  19
DOCKED: ENDBRANCH  14  15
DOCKED: ENDBRANCH   2  14
DOCKED: BRANCH   6  21
DOCKED: ATOM     21  O   UNL d   1     -12.111   2.743 -22.077 -0.02 -0.03    -0.278 OA
DOCKED: BRANCH  21  22
DOCKED: ATOM     22  P   UNL d   1     -12.029   4.147 -22.831 +0.00 +0.02    +0.473 P 
DOCKED: ATOM     23  O   UNL d   1     -11.621   4.153 -24.265 -0.00 +0.00    -0.228 OA
DOCKED: BRANCH  22  24
DOCKED: ATOM     24  O   UNL d   1     -13.472   4.755 -22.545 +0.00 -0.02    -0.303 OA
DOCKED: ATOM     25  H   UNL d   1     -14.090   4.004 -22.353 +0.01 +0.02    +0.222 HD
DOCKED: ENDBRANCH  22  24
DOCKED: BRANCH  22  26
DOCKED: ATOM     26  O   UNL d   1     -11.107   4.999 -21.834 -0.01 -0.01    -0.303 OA
DOCKED: ATOM     27  H   UNL d   1     -10.247   4.545 -21.725 +0.03 +0.01    +0.222 HD
DOCKED: ENDBRANCH  22  26
DOCKED: ENDBRANCH  21  22
DOCKED: ENDBRANCH   6  21
DOCKED: BRANCH   3  28
DOCKED: ATOM     28  O   UNL d   1      -9.454  -2.078 -22.323 -0.03 +0.06    -0.278 OA
DOCKED: BRANCH  28  29
DOCKED: ATOM     29  P   UNL d   1      -8.267  -2.759 -21.510 -0.05 -0.26    +0.473 P 
DOCKED: ATOM     30  O   UNL d   1      -7.825  -4.085 -22.011 -0.10 +0.15    -0.228 OA
DOCKED: BRANCH  29  31
DOCKED: ATOM     31  O   UNL d   1      -7.191  -1.575 -21.542 -0.12 +0.15    -0.303 OA
DOCKED: ATOM     32  H   UNL d   1      -7.383  -0.997 -22.317 +0.05 -0.08    +0.222 HD
DOCKED: ENDBRANCH  29  31
DOCKED: BRANCH  29  33
DOCKED: ATOM     33  O   UNL d   1      -8.810  -2.700 -20.014 -0.13 +0.21    -0.303 OA
DOCKED: ATOM     34  H   UNL d   1      -8.346  -3.388 -19.477 -0.38 -0.37    +0.222 HD
DOCKED: ENDBRANCH  29  33
DOCKED: ENDBRANCH  28  29
DOCKED: ENDBRANCH   3  28
DOCKED: BRANCH   5  35
DOCKED: ATOM     35  O   UNL d   1     -13.245   0.378 -23.362 -0.00 -0.01    -0.278 OA
DOCKED: BRANCH  35  36
DOCKED: ATOM     36  P   UNL d   1     -14.588   1.218 -23.179 +0.01 +0.03    +0.473 P 
DOCKED: ATOM     37  O   UNL d   1     -15.849   0.509 -23.557 +0.00 -0.01    -0.228 OA
DOCKED: BRANCH  36  38
DOCKED: ATOM     38  O   UNL d   1     -14.506   1.634 -21.644 -0.00 -0.06    -0.303 OA
DOCKED: ATOM     39  H   UNL d   1     -13.611   1.422 -21.301 +0.01 +0.06    +0.222 HD
DOCKED: ENDBRANCH  36  38
DOCKED: BRANCH  36  40
DOCKED: ATOM     40  O   UNL d   1     -14.256   2.564 -23.958 +0.00 -0.01    -0.303 OA
DOCKED: ATOM     41  H   UNL d   1     -13.333   2.861 -23.796 +0.00 +0.01    +0.222 HD
DOCKED: ENDBRANCH  36  40
DOCKED: ENDBRANCH  35  36
DOCKED: ENDBRANCH   5  35
DOCKED: BRANCH   4  42
DOCKED: ATOM     42  O   UNL d   1     -12.295  -1.943 -21.878 -0.01 -0.01    -0.278 OA
DOCKED: BRANCH  42  43
DOCKED: ATOM     43  P   UNL d   1     -12.781  -1.736 -20.373 -0.03 +0.13    +0.473 P 
DOCKED: ATOM     44  O   UNL d   1     -13.249  -2.941 -19.631 -0.02 -0.04    -0.228 OA
DOCKED: BRANCH  43  45
DOCKED: ATOM     45  O   UNL d   1     -11.540  -1.000 -19.703 -0.01 -0.16    -0.303 OA
DOCKED: ATOM     46  H   UNL d   1     -10.753  -1.581 -19.672 +0.05 +0.05    +0.222 HD
DOCKED: ENDBRANCH  43  45
DOCKED: BRANCH  43  47
DOCKED: ATOM     47  O   UNL d   1     -13.843  -0.542 -20.491 -0.04 -0.12    -0.303 OA
DOCKED: ATOM     48  H   UNL d   1     -14.064  -0.399 -21.435 +0.01 +0.04    +0.222 HD
DOCKED: ENDBRANCH  43  47
DOCKED: ENDBRANCH  42  43
DOCKED: ENDBRANCH   4  42
DOCKED: TORSDOF 24
DOCKED: TER
DOCKED: ENDMDL
________________________________________________________________________________


	BEGINNING GENETIC ALGORITHM DOCKING 43 of 100
Run: 43 Seed: 952461193 1505604323 [ Run 43 of 100 GA/GALS ]
Beginning LAMARCKIAN GENETIC ALGORITHM (LGA), with a maximum of 25000000 energy evaluations.

Final-Value: -17.702


	FINAL GENETIC ALGORITHM DOCKED STATE
	_______________________________________________


Detailed state:  trans -11.533 -15.473 5.272 quatxyzw 0.377016 0.160383 -0.801385 -0.435796 center 0.035 0.082 -0.065 ntor 24 -165.2368 27.4561 95.1100 99.3573 -66.0401 -180.0000 -108.7904 8.6392 7.2214 -22.6649 6.2808 146.3273 23.6311 -49.6415 179.9240 56.0098 -120.1907 -145.0153 -129.9221 -20.5461 180.0000 162.1471 140.3395 -50.0515
State:	-11.533 -15.473   5.272   0.419  0.178 -0.890 -128.328   -165.24   27.46   95.11   99.36  -66.04 -180.00 -108.79    8.64    7.22  -22.66    6.28  146.33   23.63  -49.64  179.92   56.01 -120.19 -145.02 -129.92  -20.55  180.00  162.15  140.34  -50.05

DOCKED: MODEL       43
DOCKED: USER    Run = 43
DOCKED: USER    DPF = D:/Protein_go_brrr/autodock/final/mut_K82N/IHP/dock.dpf
DOCKED: USER  
DOCKED: USER    Estimated Free Energy of Binding    =   +4.06 kcal/mol  [=(1)+(2)+(3)-(4)]
DOCKED: USER    
DOCKED: USER    (1) Final Intermolecular Energy     =   -3.09 kcal/mol
DOCKED: USER        vdW + Hbond + desolv Energy     =   -3.05 kcal/mol
DOCKED: USER        Electrostatic Energy            =   -0.04 kcal/mol
DOCKED: USER    (2) Final Total Internal Energy     =  -14.61 kcal/mol
DOCKED: USER    (3) Torsional Free Energy           =   +7.16 kcal/mol
DOCKED: USER    (4) Unbound System's Energy  [=(2)] =  -14.61 kcal/mol
DOCKED: USER    
DOCKED: USER    
DOCKED: USER    NEWDPF move IHP_ideal_opt.pdbqt
DOCKED: USER    NEWDPF about 0.035000 0.082000 -0.065000
DOCKED: USER    NEWDPF tran0 -11.533047 -15.472726 5.272299
DOCKED: USER    NEWDPF quaternion0 0.377016 0.160383 -0.801385 -0.435796
DOCKED: USER    NEWDPF axisangle0 0.418886 0.178194 -0.890383 -128.328077
DOCKED: USER    NEWDPF quat0 0.418886 0.178194 -0.890383 -128.328077
DOCKED: USER    NEWDPF dihe0 -165.24 27.46 95.11 99.36 -66.04 -180.00 -108.79 8.64 7.22 -22.66 6.28 146.33 23.63 -49.64 179.92 56.01 -120.19 -145.02 -129.92 -20.55 180.00 162.15 140.34 -50.05 
DOCKED: USER  keepresnum = 1 
DOCKED: USER  
DOCKED: REMARK  24 active torsions:
DOCKED: REMARK  status: ('A' for Active; 'I' for Inactive)
DOCKED: REMARK    1  A    between atoms: C_1  and  O_7 
DOCKED: REMARK    2  A    between atoms: C_2  and  O_12 
DOCKED: REMARK    3  A    between atoms: C_3  and  O_17 
DOCKED: REMARK    4  A    between atoms: C_4  and  O_22 
DOCKED: REMARK    5  A    between atoms: C_5  and  O_27 
DOCKED: REMARK    6  A    between atoms: C_6  and  O_32 
DOCKED: REMARK    7  A    between atoms: O_7  and  P_8 
DOCKED: REMARK    8  A    between atoms: P_8  and  O_10 
DOCKED: REMARK    9  A    between atoms: P_8  and  O_11 
DOCKED: REMARK   10  A    between atoms: O_12  and  P_13 
DOCKED: REMARK   11  A    between atoms: P_13  and  O_15 
DOCKED: REMARK   12  A    between atoms: P_13  and  O_16 
DOCKED: REMARK   13  A    between atoms: O_17  and  P_18 
DOCKED: REMARK   14  A    between atoms: P_18  and  O_20 
DOCKED: REMARK   15  A    between atoms: P_18  and  O_21 
DOCKED: REMARK   16  A    between atoms: O_22  and  P_23 
DOCKED: REMARK   17  A    between atoms: P_23  and  O_25 
DOCKED: REMARK   18  A    between atoms: P_23  and  O_26 
DOCKED: REMARK   19  A    between atoms: O_27  and  P_28 
DOCKED: REMARK   20  A    between atoms: P_28  and  O_30 
DOCKED: REMARK   21  A    between atoms: P_28  and  O_31 
DOCKED: REMARK   22  A    between atoms: O_32  and  P_33 
DOCKED: REMARK   23  A    between atoms: P_33  and  O_35 
DOCKED: REMARK   24  A    between atoms: P_33  and  O_36 
DOCKED: USER                              x       y       z     vdW  Elec       q    Type
DOCKED: USER                           _______ _______ _______ _____ _____    ______ ____
DOCKED: ROOT
DOCKED: ATOM      1  C   UNL d   1     -13.049 -16.155   4.802 -0.02 -0.02    +0.194 C 
DOCKED: ATOM      2  C   UNL d   1     -13.117 -14.760   5.428 -0.03 -0.02    +0.194 C 
DOCKED: ATOM      3  C   UNL d   1     -12.202 -14.642   6.648 -0.02 -0.02    +0.194 C 
DOCKED: ATOM      4  C   UNL d   1     -10.766 -15.079   6.368 -0.06 -0.03    +0.194 C 
DOCKED: ATOM      5  C   UNL d   1     -10.654 -16.413   5.640 -0.03 -0.03    +0.194 C 
DOCKED: ATOM      6  C   UNL d   1     -11.614 -16.555   4.457 -0.04 -0.02    +0.194 C 
DOCKED: ENDROOT
DOCKED: BRANCH   1   7
DOCKED: ATOM      7  O   UNL d   1     -13.790 -16.132   3.580 -0.01 +0.02    -0.278 OA
DOCKED: BRANCH   7   8
DOCKED: ATOM      8  P   UNL d   1     -12.984 -16.175   2.202 -0.04 -0.03    +0.473 P 
DOCKED: ATOM      9  O   UNL d   1     -12.424 -17.505   1.839 -0.01 +0.02    -0.228 OA
DOCKED: BRANCH   8  10
DOCKED: ATOM     10  O   UNL d   1     -14.023 -15.617   1.128 -0.03 +0.02    -0.303 OA
DOCKED: ATOM     11  H   UNL d   1     -14.556 -14.905   1.528 +0.01 -0.01    +0.222 HD
DOCKED: ENDBRANCH   8  10
DOCKED: BRANCH   8  12
DOCKED: ATOM     12  O   UNL d   1     -11.935 -14.985   2.299 -0.20 +0.00    -0.303 OA
DOCKED: ATOM     13  H   UNL d   1     -12.163 -14.327   2.994 +0.03 +0.01    +0.222 HD
DOCKED: ENDBRANCH   8  12
DOCKED: ENDBRANCH   7   8
DOCKED: ENDBRANCH   1   7
DOCKED: BRANCH   2  14
DOCKED: ATOM     14  O   UNL d   1     -12.708 -13.791   4.455 -0.12 +0.03    -0.278 OA
DOCKED: BRANCH  14  15
DOCKED: ATOM     15  P   UNL d   1     -13.846 -12.809   3.901 -0.05 -0.04    +0.473 P 
DOCKED: ATOM     16  O   UNL d   1     -15.191 -12.907   4.549 -0.01 +0.02    -0.228 OA
DOCKED: BRANCH  15  17
DOCKED: ATOM     17  O   UNL d   1     -13.202 -11.358   4.031 -0.09 +0.05    -0.303 OA
DOCKED: ATOM     18  H   UNL d   1     -12.304 -11.404   4.413 +0.04 -0.04    +0.222 HD
DOCKED: ENDBRANCH  15  17
DOCKED: BRANCH  15  19
DOCKED: ATOM     19  O   UNL d   1     -13.826 -13.027   2.326 -0.52 -0.00    -0.303 OA
DOCKED: ATOM     20  H   UNL d   1     -13.698 -13.965   2.093 +0.02 +0.01    +0.222 HD
DOCKED: ENDBRANCH  15  19
DOCKED: ENDBRANCH  14  15
DOCKED: ENDBRANCH   2  14
DOCKED: BRANCH   6  21
DOCKED: ATOM     21  O   UNL d   1     -11.638 -17.938   4.110 -0.01 +0.03    -0.278 OA
DOCKED: BRANCH  21  22
DOCKED: ATOM     22  P   UNL d   1     -12.486 -18.961   4.992 +0.00 -0.03    +0.473 P 
DOCKED: ATOM     23  O   UNL d   1     -12.011 -20.372   5.086 +0.00 +0.02    -0.228 OA
DOCKED: BRANCH  22  24
DOCKED: ATOM     24  O   UNL d   1     -12.578 -18.194   6.383 +0.00 +0.02    -0.303 OA
DOCKED: ATOM     25  H   UNL d   1     -12.341 -18.832   7.103 +0.00 -0.02    +0.222 HD
DOCKED: ENDBRANCH  22  24
DOCKED: BRANCH  22  26
DOCKED: ATOM     26  O   UNL d   1     -13.962 -18.754   4.401 +0.00 +0.02    -0.303 OA
DOCKED: ATOM     27  H   UNL d   1     -13.918 -18.154   3.629 +0.00 -0.01    +0.222 HD
DOCKED: ENDBRANCH  22  26
DOCKED: ENDBRANCH  21  22
DOCKED: ENDBRANCH   6  21
DOCKED: BRANCH   3  28
DOCKED: ATOM     28  O   UNL d   1     -12.117 -13.264   6.988 -0.03 +0.04    -0.278 OA
DOCKED: BRANCH  28  29
DOCKED: ATOM     29  P   UNL d   1     -11.023 -12.332   6.301 -0.09 -0.08    +0.473 P 
DOCKED: ATOM     30  O   UNL d   1     -10.631 -12.715   4.920 -0.26 +0.07    -0.228 OA
DOCKED: BRANCH  29  31
DOCKED: ATOM     31  O   UNL d   1     -11.717 -10.902   6.488 -0.07 +0.05    -0.303 OA
DOCKED: ATOM     32  H   UNL d   1     -12.607 -10.927   6.066 +0.04 -0.04    +0.222 HD
DOCKED: ENDBRANCH  29  31
DOCKED: BRANCH  29  33
DOCKED: ATOM     33  O   UNL d   1      -9.868 -12.308   7.397 -0.11 +0.05    -0.303 OA
DOCKED: ATOM     34  H   UNL d   1      -9.467 -13.210   7.460 +0.03 -0.04    +0.222 HD
DOCKED: ENDBRANCH  29  33
DOCKED: ENDBRANCH  28  29
DOCKED: ENDBRANCH   3  28
DOCKED: BRANCH   5  35
DOCKED: ATOM     35  O   UNL d   1      -9.330 -16.457   5.114 -0.05 +0.06    -0.278 OA
DOCKED: BRANCH  35  36
DOCKED: ATOM     36  P   UNL d   1      -9.019 -15.866   3.666 -0.11 -0.11    +0.473 P 
DOCKED: ATOM     37  O   UNL d   1      -9.462 -16.713   2.515 -0.10 +0.03    -0.228 OA
DOCKED: BRANCH  36  38
DOCKED: ATOM     38  O   UNL d   1      -9.724 -14.440   3.738 -0.11 +0.11    -0.303 OA
DOCKED: ATOM     39  H   UNL d   1     -10.689 -14.565   3.863 +0.03 -0.05    +0.222 HD
DOCKED: ENDBRANCH  36  38
DOCKED: BRANCH  36  40
DOCKED: ATOM     40  O   UNL d   1      -7.467 -15.531   3.761 -0.18 +0.11    -0.303 OA
DOCKED: ATOM     41  H   UNL d   1      -7.286 -14.830   4.426 -0.46 -0.15    +0.222 HD
DOCKED: ENDBRANCH  36  40
DOCKED: ENDBRANCH  35  36
DOCKED: ENDBRANCH   5  35
DOCKED: BRANCH   4  42
DOCKED: ATOM     42  O   UNL d   1     -10.125 -15.238   7.638 -0.02 +0.04    -0.278 OA
DOCKED: BRANCH  42  43
DOCKED: ATOM     43  P   UNL d   1      -8.532 -15.242   7.703 -0.02 -0.08    +0.473 P 
DOCKED: ATOM     44  O   UNL d   1      -7.851 -16.565   7.779 -0.01 +0.03    -0.228 OA
DOCKED: BRANCH  43  45
DOCKED: ATOM     45  O   UNL d   1      -8.128 -14.375   6.431 +0.03 +0.13    -0.303 OA
DOCKED: ATOM     46  H   UNL d   1      -8.368 -14.829   5.598 -0.42 -0.11    +0.222 HD
DOCKED: ENDBRANCH  43  45
DOCKED: BRANCH  43  47
DOCKED: ATOM     47  O   UNL d   1      -8.211 -14.229   8.903 -0.02 +0.04    -0.303 OA
DOCKED: ATOM     48  H   UNL d   1      -8.876 -13.510   8.904 +0.03 -0.03    +0.222 HD
DOCKED: ENDBRANCH  43  47
DOCKED: ENDBRANCH  42  43
DOCKED: ENDBRANCH   4  42
DOCKED: TORSDOF 24
DOCKED: TER
DOCKED: ENDMDL
________________________________________________________________________________


	BEGINNING GENETIC ALGORITHM DOCKING 44 of 100
Run: 44 Seed: 1267767826 1446055520 [ Run 44 of 100 GA/GALS ]
Beginning LAMARCKIAN GENETIC ALGORITHM (LGA), with a maximum of 25000000 energy evaluations.

Final-Value: -18.036


	FINAL GENETIC ALGORITHM DOCKED STATE
	_______________________________________________


Detailed state:  trans 9.535 18.541 -5.185 quatxyzw -0.307591 0.592824 0.609064 -0.427771 center 0.035 0.082 -0.065 ntor 24 -157.0842 -2.0905 83.3173 100.9257 17.6531 -121.8152 13.1235 -111.3007 9.5353 -28.8944 75.5205 -102.7774 56.9754 122.6902 -46.0594 -46.0110 -163.6050 106.3399 -17.0632 -2.5084 -17.7573 146.0271 -29.5737 163.9513
State:	  9.535  18.541  -5.185  -0.340  0.656  0.674 -129.348   -157.08   -2.09   83.32  100.93   17.65 -121.82   13.12 -111.30    9.54  -28.89   75.52 -102.78   56.98  122.69  -46.06  -46.01 -163.60  106.34  -17.06   -2.51  -17.76  146.03  -29.57  163.95

DOCKED: MODEL       44
DOCKED: USER    Run = 44
DOCKED: USER    DPF = D:/Protein_go_brrr/autodock/final/mut_K82N/IHP/dock.dpf
DOCKED: USER  
DOCKED: USER    Estimated Free Energy of Binding    =   +2.09 kcal/mol  [=(1)+(2)+(3)-(4)]
DOCKED: USER    
DOCKED: USER    (1) Final Intermolecular Energy     =   -5.07 kcal/mol
DOCKED: USER        vdW + Hbond + desolv Energy     =   -5.08 kcal/mol
DOCKED: USER        Electrostatic Energy            =   +0.01 kcal/mol
DOCKED: USER    (2) Final Total Internal Energy     =  -12.97 kcal/mol
DOCKED: USER    (3) Torsional Free Energy           =   +7.16 kcal/mol
DOCKED: USER    (4) Unbound System's Energy  [=(2)] =  -12.97 kcal/mol
DOCKED: USER    
DOCKED: USER    
DOCKED: USER    NEWDPF move IHP_ideal_opt.pdbqt
DOCKED: USER    NEWDPF about 0.035000 0.082000 -0.065000
DOCKED: USER    NEWDPF tran0 9.535260 18.541290 -5.185461
DOCKED: USER    NEWDPF quaternion0 -0.307591 0.592824 0.609064 -0.427771
DOCKED: USER    NEWDPF axisangle0 -0.340298 0.655861 0.673828 -129.347637
DOCKED: USER    NEWDPF quat0 -0.340298 0.655861 0.673828 -129.347637
DOCKED: USER    NEWDPF dihe0 -157.08 -2.09 83.32 100.93 17.65 -121.82 13.12 -111.30 9.54 -28.89 75.52 -102.78 56.98 122.69 -46.06 -46.01 -163.60 106.34 -17.06 -2.51 -17.76 146.03 -29.57 163.95 
DOCKED: USER  keepresnum = 1 
DOCKED: USER  
DOCKED: REMARK  24 active torsions:
DOCKED: REMARK  status: ('A' for Active; 'I' for Inactive)
DOCKED: REMARK    1  A    between atoms: C_1  and  O_7 
DOCKED: REMARK    2  A    between atoms: C_2  and  O_12 
DOCKED: REMARK    3  A    between atoms: C_3  and  O_17 
DOCKED: REMARK    4  A    between atoms: C_4  and  O_22 
DOCKED: REMARK    5  A    between atoms: C_5  and  O_27 
DOCKED: REMARK    6  A    between atoms: C_6  and  O_32 
DOCKED: REMARK    7  A    between atoms: O_7  and  P_8 
DOCKED: REMARK    8  A    between atoms: P_8  and  O_10 
DOCKED: REMARK    9  A    between atoms: P_8  and  O_11 
DOCKED: REMARK   10  A    between atoms: O_12  and  P_13 
DOCKED: REMARK   11  A    between atoms: P_13  and  O_15 
DOCKED: REMARK   12  A    between atoms: P_13  and  O_16 
DOCKED: REMARK   13  A    between atoms: O_17  and  P_18 
DOCKED: REMARK   14  A    between atoms: P_18  and  O_20 
DOCKED: REMARK   15  A    between atoms: P_18  and  O_21 
DOCKED: REMARK   16  A    between atoms: O_22  and  P_23 
DOCKED: REMARK   17  A    between atoms: P_23  and  O_25 
DOCKED: REMARK   18  A    between atoms: P_23  and  O_26 
DOCKED: REMARK   19  A    between atoms: O_27  and  P_28 
DOCKED: REMARK   20  A    between atoms: P_28  and  O_30 
DOCKED: REMARK   21  A    between atoms: P_28  and  O_31 
DOCKED: REMARK   22  A    between atoms: O_32  and  P_33 
DOCKED: REMARK   23  A    between atoms: P_33  and  O_35 
DOCKED: REMARK   24  A    between atoms: P_33  and  O_36 
DOCKED: USER                              x       y       z     vdW  Elec       q    Type
DOCKED: USER                           _______ _______ _______ _____ _____    ______ ____
DOCKED: ROOT
DOCKED: ATOM      1  C   UNL d   1       9.869  19.455  -6.613 -0.06 -0.02    +0.194 C 
DOCKED: ATOM      2  C   UNL d   1      11.088  18.841  -5.921 -0.06 -0.02    +0.194 C 
DOCKED: ATOM      3  C   UNL d   1      11.019  19.005  -4.401 -0.06 -0.02    +0.194 C 
DOCKED: ATOM      4  C   UNL d   1       9.704  18.510  -3.802 -0.14 -0.03    +0.194 C 
DOCKED: ATOM      5  C   UNL d   1       8.463  19.007  -4.533 -0.18 -0.03    +0.194 C 
DOCKED: ATOM      6  C   UNL d   1       8.558  18.900  -6.056 -0.14 -0.03    +0.194 C 
DOCKED: ENDROOT
DOCKED: BRANCH   1   7
DOCKED: ATOM      7  O   UNL d   1       9.923  19.112  -7.999 -0.05 +0.03    -0.278 OA
DOCKED: BRANCH   7   8
DOCKED: ATOM      8  P   UNL d   1       9.519  20.223  -9.073 -0.00 -0.05    +0.473 P 
DOCKED: ATOM      9  O   UNL d   1      10.651  20.777  -9.865 -0.00 +0.02    -0.228 OA
DOCKED: BRANCH   8  10
DOCKED: ATOM     10  O   UNL d   1       8.413  19.507  -9.973 -0.02 +0.03    -0.303 OA
DOCKED: ATOM     11  H   UNL d   1       7.778  19.039  -9.400 +0.05 -0.03    +0.222 HD
DOCKED: ENDBRANCH   8  10
DOCKED: BRANCH   8  12
DOCKED: ATOM     12  O   UNL d   1       8.654  21.283  -8.265 -0.01 +0.04    -0.303 OA
DOCKED: ATOM     13  H   UNL d   1       7.963  20.868  -7.701 +0.05 -0.04    +0.222 HD
DOCKED: ENDBRANCH   8  12
DOCKED: ENDBRANCH   7   8
DOCKED: ENDBRANCH   1   7
DOCKED: BRANCH   2  14
DOCKED: ATOM     14  O   UNL d   1      11.143  17.443  -6.227 -0.08 +0.02    -0.278 OA
DOCKED: BRANCH  14  15
DOCKED: ATOM     15  P   UNL d   1      12.539  16.885  -6.778 -0.03 -0.02    +0.473 P 
DOCKED: ATOM     16  O   UNL d   1      12.613  15.417  -7.060 -0.10 +0.00    -0.228 OA
DOCKED: BRANCH  15  17
DOCKED: ATOM     17  O   UNL d   1      12.831  17.776  -8.067 -0.03 +0.02    -0.303 OA
DOCKED: ATOM     18  H   UNL d   1      12.041  18.287  -8.327 +0.02 -0.01    +0.222 HD
DOCKED: ENDBRANCH  15  17
DOCKED: BRANCH  15  19
DOCKED: ATOM     19  O   UNL d   1      13.621  17.442  -5.753 -0.02 +0.02    -0.303 OA
DOCKED: ATOM     20  H   UNL d   1      13.308  17.384  -4.832 +0.03 -0.02    +0.222 HD
DOCKED: ENDBRANCH  15  19
DOCKED: ENDBRANCH  14  15
DOCKED: ENDBRANCH   2  14
DOCKED: BRANCH   6  21
DOCKED: ATOM     21  O   UNL d   1       7.505  19.699  -6.591 -0.12 +0.06    -0.278 OA
DOCKED: BRANCH  21  22
DOCKED: ATOM     22  P   UNL d   1       6.389  19.026  -7.511 -0.17 -0.14    +0.473 P 
DOCKED: ATOM     23  O   UNL d   1       6.665  17.675  -8.080 -0.26 +0.06    -0.228 OA
DOCKED: BRANCH  22  24
DOCKED: ATOM     24  O   UNL d   1       5.104  19.106  -6.575 -0.51 +0.16    -0.303 OA
DOCKED: ATOM     25  H   UNL d   1       5.354  18.766  -5.679 -0.07 -0.06    +0.222 HD
DOCKED: ENDBRANCH  22  24
DOCKED: BRANCH  22  26
DOCKED: ATOM     26  O   UNL d   1       6.097  20.190  -8.574 -0.09 +0.07    -0.303 OA
DOCKED: ATOM     27  H   UNL d   1       6.906  20.353  -9.102 +0.05 -0.04    +0.222 HD
DOCKED: ENDBRANCH  22  26
DOCKED: ENDBRANCH  21  22
DOCKED: ENDBRANCH   6  21
DOCKED: BRANCH   3  28
DOCKED: ATOM     28  O   UNL d   1      12.027  18.177  -3.835 -0.03 +0.03    -0.278 OA
DOCKED: BRANCH  28  29
DOCKED: ATOM     29  P   UNL d   1      11.640  16.790  -3.155 -0.11 -0.08    +0.473 P 
DOCKED: ATOM     30  O   UNL d   1      10.940  16.890  -1.848 -0.16 +0.05    -0.228 OA
DOCKED: BRANCH  29  31
DOCKED: ATOM     31  O   UNL d   1      10.838  16.103  -4.358 -0.16 +0.05    -0.303 OA
DOCKED: ATOM     32  H   UNL d   1      11.463  15.950  -5.104 +0.07 -0.02    +0.222 HD
DOCKED: ENDBRANCH  29  31
DOCKED: BRANCH  29  33
DOCKED: ATOM     33  O   UNL d   1      13.029  16.012  -3.169 -0.06 +0.04    -0.303 OA
DOCKED: ATOM     34  H   UNL d   1      13.396  16.026  -4.087 +0.05 -0.02    +0.222 HD
DOCKED: ENDBRANCH  29  33
DOCKED: ENDBRANCH  28  29
DOCKED: ENDBRANCH   3  28
DOCKED: BRANCH   5  35
DOCKED: ATOM     35  O   UNL d   1       7.401  18.151  -4.117 -0.27 +0.05    -0.278 OA
DOCKED: BRANCH  35  36
DOCKED: ATOM     36  P   UNL d   1       6.363  18.638  -3.007 -0.42 -0.09    +0.473 P 
DOCKED: ATOM     37  O   UNL d   1       6.316  17.811  -1.762 -0.51 +0.02    -0.228 OA
DOCKED: BRANCH  36  38
DOCKED: ATOM     38  O   UNL d   1       6.818  20.146  -2.775 -0.20 +0.05    -0.303 OA
DOCKED: ATOM     39  H   UNL d   1       7.747  20.156  -2.458 +0.09 -0.02    +0.222 HD
DOCKED: ENDBRANCH  36  38
DOCKED: BRANCH  36  40
DOCKED: ATOM     40  O   UNL d   1       5.014  18.768  -3.838 -0.75 +0.12    -0.303 OA
DOCKED: ATOM     41  H   UNL d   1       5.042  19.528  -4.461 -0.38 -0.13    +0.222 HD
DOCKED: ENDBRANCH  36  40
DOCKED: ENDBRANCH  35  36
DOCKED: ENDBRANCH   5  35
DOCKED: BRANCH   4  42
DOCKED: ATOM     42  O   UNL d   1       9.639  19.021  -2.466 -0.11 +0.03    -0.278 OA
DOCKED: BRANCH  42  43
DOCKED: ATOM     43  P   UNL d   1       9.836  20.586  -2.229 -0.06 -0.04    +0.473 P 
DOCKED: ATOM     44  O   UNL d   1       9.171  21.190  -1.041 -0.04 +0.01    -0.228 OA
DOCKED: BRANCH  43  45
DOCKED: ATOM     45  O   UNL d   1      11.420  20.744  -2.238 -0.02 +0.03    -0.303 OA
DOCKED: ATOM     46  H   UNL d   1      11.863  19.891  -2.419 +0.03 -0.02    +0.222 HD
DOCKED: ENDBRANCH  43  45
DOCKED: BRANCH  43  47
DOCKED: ATOM     47  O   UNL d   1       9.437  21.225  -3.644 -0.06 +0.04    -0.303 OA
DOCKED: ATOM     48  H   UNL d   1       8.462  21.218  -3.737 +0.06 -0.05    +0.222 HD
DOCKED: ENDBRANCH  43  47
DOCKED: ENDBRANCH  42  43
DOCKED: ENDBRANCH   4  42
DOCKED: TORSDOF 24
DOCKED: TER
DOCKED: ENDMDL
________________________________________________________________________________


	BEGINNING GENETIC ALGORITHM DOCKING 45 of 100
Run: 45 Seed: 686806686 533021057 [ Run 45 of 100 GA/GALS ]
Beginning LAMARCKIAN GENETIC ALGORITHM (LGA), with a maximum of 25000000 energy evaluations.

Final-Value: -19.246


	FINAL GENETIC ALGORITHM DOCKED STATE
	_______________________________________________


Detailed state:  trans -8.257 -15.177 6.324 quatxyzw 0.134217 -0.538343 0.780791 -0.287294 center 0.035 0.082 -0.065 ntor 24 116.3415 25.4583 131.5697 108.3486 -3.4458 -117.7826 -26.3989 -175.3978 60.6866 108.7613 99.5755 -147.9532 160.8952 81.4521 -54.8039 126.9414 103.5936 165.7253 37.7716 -6.6079 -170.0168 -21.7045 3.2714 -23.4838
State:	 -8.257 -15.177   6.324   0.140 -0.562  0.815 -146.608    116.34   25.46  131.57  108.35   -3.45 -117.78  -26.40 -175.40   60.69  108.76   99.58 -147.95  160.90   81.45  -54.80  126.94  103.59  165.73   37.77   -6.61 -170.02  -21.70    3.27  -23.48

DOCKED: MODEL       45
DOCKED: USER    Run = 45
DOCKED: USER    DPF = D:/Protein_go_brrr/autodock/final/mut_K82N/IHP/dock.dpf
DOCKED: USER  
DOCKED: USER    Estimated Free Energy of Binding    =   +2.24 kcal/mol  [=(1)+(2)+(3)-(4)]
DOCKED: USER    
DOCKED: USER    (1) Final Intermolecular Energy     =   -4.92 kcal/mol
DOCKED: USER        vdW + Hbond + desolv Energy     =   -4.55 kcal/mol
DOCKED: USER        Electrostatic Energy            =   -0.36 kcal/mol
DOCKED: USER    (2) Final Total Internal Energy     =  -14.33 kcal/mol
DOCKED: USER    (3) Torsional Free Energy           =   +7.16 kcal/mol
DOCKED: USER    (4) Unbound System's Energy  [=(2)] =  -14.33 kcal/mol
DOCKED: USER    
DOCKED: USER    
DOCKED: USER    NEWDPF move IHP_ideal_opt.pdbqt
DOCKED: USER    NEWDPF about 0.035000 0.082000 -0.065000
DOCKED: USER    NEWDPF tran0 -8.256633 -15.176602 6.324206
DOCKED: USER    NEWDPF quaternion0 0.134217 -0.538343 0.780791 -0.287294
DOCKED: USER    NEWDPF axisangle0 0.140124 -0.562037 0.815156 -146.607902
DOCKED: USER    NEWDPF quat0 0.140124 -0.562037 0.815156 -146.607902
DOCKED: USER    NEWDPF dihe0 116.34 25.46 131.57 108.35 -3.45 -117.78 -26.40 -175.40 60.69 108.76 99.58 -147.95 160.90 81.45 -54.80 126.94 103.59 165.73 37.77 -6.61 -170.02 -21.70 3.27 -23.48 
DOCKED: USER  keepresnum = 1 
DOCKED: USER  
DOCKED: REMARK  24 active torsions:
DOCKED: REMARK  status: ('A' for Active; 'I' for Inactive)
DOCKED: REMARK    1  A    between atoms: C_1  and  O_7 
DOCKED: REMARK    2  A    between atoms: C_2  and  O_12 
DOCKED: REMARK    3  A    between atoms: C_3  and  O_17 
DOCKED: REMARK    4  A    between atoms: C_4  and  O_22 
DOCKED: REMARK    5  A    between atoms: C_5  and  O_27 
DOCKED: REMARK    6  A    between atoms: C_6  and  O_32 
DOCKED: REMARK    7  A    between atoms: O_7  and  P_8 
DOCKED: REMARK    8  A    between atoms: P_8  and  O_10 
DOCKED: REMARK    9  A    between atoms: P_8  and  O_11 
DOCKED: REMARK   10  A    between atoms: O_12  and  P_13 
DOCKED: REMARK   11  A    between atoms: P_13  and  O_15 
DOCKED: REMARK   12  A    between atoms: P_13  and  O_16 
DOCKED: REMARK   13  A    between atoms: O_17  and  P_18 
DOCKED: REMARK   14  A    between atoms: P_18  and  O_20 
DOCKED: REMARK   15  A    between atoms: P_18  and  O_21 
DOCKED: REMARK   16  A    between atoms: O_22  and  P_23 
DOCKED: REMARK   17  A    between atoms: P_23  and  O_25 
DOCKED: REMARK   18  A    between atoms: P_23  and  O_26 
DOCKED: REMARK   19  A    between atoms: O_27  and  P_28 
DOCKED: REMARK   20  A    between atoms: P_28  and  O_30 
DOCKED: REMARK   21  A    between atoms: P_28  and  O_31 
DOCKED: REMARK   22  A    between atoms: O_32  and  P_33 
DOCKED: REMARK   23  A    between atoms: P_33  and  O_35 
DOCKED: REMARK   24  A    between atoms: P_33  and  O_36 
DOCKED: USER                              x       y       z     vdW  Elec       q    Type
DOCKED: USER                           _______ _______ _______ _____ _____    ______ ____
DOCKED: ROOT
DOCKED: ATOM      1  C   UNL d   1      -8.810 -15.295   7.956 -0.04 -0.03    +0.194 C 
DOCKED: ATOM      2  C   UNL d   1      -7.299 -15.130   7.781 -0.07 -0.03    +0.194 C 
DOCKED: ATOM      3  C   UNL d   1      -6.762 -16.008   6.648 -0.08 -0.04    +0.194 C 
DOCKED: ATOM      4  C   UNL d   1      -7.519 -15.825   5.335 -0.09 -0.07    +0.194 C 
DOCKED: ATOM      5  C   UNL d   1      -9.034 -15.867   5.481 -0.09 -0.05    +0.194 C 
DOCKED: ATOM      6  C   UNL d   1      -9.567 -15.038   6.653 -0.08 -0.04    +0.194 C 
DOCKED: ENDROOT
DOCKED: BRANCH   1   7
DOCKED: ATOM      7  O   UNL d   1      -9.257 -14.324   8.906 -0.02 +0.03    -0.278 OA
DOCKED: BRANCH   7   8
DOCKED: ATOM      8  P   UNL d   1      -9.154 -14.680  10.460 +0.00 -0.04    +0.473 P 
DOCKED: ATOM      9  O   UNL d   1     -10.222 -14.093  11.314 -0.00 +0.02    -0.228 OA
DOCKED: BRANCH   8  10
DOCKED: ATOM     10  O   UNL d   1      -9.131 -16.275  10.491 -0.00 +0.02    -0.303 OA
DOCKED: ATOM     11  H   UNL d   1      -9.777 -16.624   9.850 +0.00 -0.02    +0.222 HD
DOCKED: ENDBRANCH   8  10
DOCKED: BRANCH   8  12
DOCKED: ATOM     12  O   UNL d   1      -7.662 -14.318  10.869 -0.01 +0.02    -0.303 OA
DOCKED: ATOM     13  H   UNL d   1      -7.053 -14.265  10.098 +0.03 -0.01    +0.222 HD
DOCKED: ENDBRANCH   8  12
DOCKED: ENDBRANCH   7   8
DOCKED: ENDBRANCH   1   7
DOCKED: BRANCH   2  14
DOCKED: ATOM     14  O   UNL d   1      -7.011 -13.761   7.474 -0.15 +0.07    -0.278 OA
DOCKED: BRANCH  14  15
DOCKED: ATOM     15  P   UNL d   1      -5.959 -13.019   8.426 -0.13 -0.07    +0.473 P 
DOCKED: ATOM     16  O   UNL d   1      -4.937 -12.156   7.756 -0.20 +0.08    -0.228 OA
DOCKED: BRANCH  15  17
DOCKED: ATOM     17  O   UNL d   1      -6.869 -12.213   9.455 -0.08 +0.03    -0.303 OA
DOCKED: ATOM     18  H   UNL d   1      -7.678 -12.713   9.677 +0.04 -0.02    +0.222 HD
DOCKED: ENDBRANCH  15  17
DOCKED: BRANCH  15  19
DOCKED: ATOM     19  O   UNL d   1      -5.379 -14.176   9.352 -0.05 +0.01    -0.303 OA
DOCKED: ATOM     20  H   UNL d   1      -5.105 -14.952   8.830 +0.07 -0.00    +0.222 HD
DOCKED: ENDBRANCH  15  19
DOCKED: ENDBRANCH  14  15
DOCKED: ENDBRANCH   2  14
DOCKED: BRANCH   6  21
DOCKED: ATOM     21  O   UNL d   1     -10.916 -15.445   6.865 -0.02 +0.04    -0.278 OA
DOCKED: BRANCH  21  22
DOCKED: ATOM     22  P   UNL d   1     -11.229 -16.681   7.825 +0.00 -0.04    +0.473 P 
DOCKED: ATOM     23  O   UNL d   1     -10.162 -17.704   8.026 -0.00 +0.02    -0.228 OA
DOCKED: BRANCH  22  24
DOCKED: ATOM     24  O   UNL d   1     -11.710 -15.949   9.153 -0.00 +0.02    -0.303 OA
DOCKED: ATOM     25  H   UNL d   1     -10.926 -15.498   9.558 +0.01 -0.02    +0.222 HD
DOCKED: ENDBRANCH  22  24
DOCKED: BRANCH  22  26
DOCKED: ATOM     26  O   UNL d   1     -12.614 -17.219   7.222 +0.00 +0.02    -0.303 OA
DOCKED: ATOM     27  H   UNL d   1     -12.453 -17.598   6.334 +0.00 -0.02    +0.222 HD
DOCKED: ENDBRANCH  22  26
DOCKED: ENDBRANCH  21  22
DOCKED: ENDBRANCH   6  21
DOCKED: BRANCH   3  28
DOCKED: ATOM     28  O   UNL d   1      -5.430 -15.589   6.377 -0.13 +0.06    -0.278 OA
DOCKED: BRANCH  28  29
DOCKED: ATOM     29  P   UNL d   1      -4.207 -16.237   7.166 -0.11 +0.06    +0.473 P 
DOCKED: ATOM     30  O   UNL d   1      -3.449 -17.279   6.427 -0.71 -0.11    -0.228 OA
DOCKED: BRANCH  29  31
DOCKED: ATOM     31  O   UNL d   1      -3.408 -14.913   7.579 -0.19 -0.06    -0.303 OA
DOCKED: ATOM     32  H   UNL d   1      -4.043 -14.161   7.613 +0.11 -0.01    +0.222 HD
DOCKED: ENDBRANCH  29  31
DOCKED: BRANCH  29  33
DOCKED: ATOM     33  O   UNL d   1      -4.889 -16.678   8.535 -0.03 -0.02    -0.303 OA
DOCKED: ATOM     34  H   UNL d   1      -4.480 -16.167   9.276 +0.06 +0.02    +0.222 HD
DOCKED: ENDBRANCH  29  33
DOCKED: ENDBRANCH  28  29
DOCKED: ENDBRANCH   3  28
DOCKED: BRANCH   5  35
DOCKED: ATOM     35  O   UNL d   1      -9.555 -15.287   4.287 -0.17 +0.08    -0.278 OA
DOCKED: BRANCH  35  36
DOCKED: ATOM     36  P   UNL d   1     -10.753 -15.993   3.506 -0.07 -0.07    +0.473 P 
DOCKED: ATOM     37  O   UNL d   1     -11.691 -15.071   2.794 -0.17 +0.02    -0.228 OA
DOCKED: BRANCH  36  38
DOCKED: ATOM     38  O   UNL d   1      -9.972 -16.998   2.549 -0.05 +0.03    -0.303 OA
DOCKED: ATOM     39  H   UNL d   1      -9.011 -16.801   2.592 +0.07 -0.03    +0.222 HD
DOCKED: ENDBRANCH  36  38
DOCKED: BRANCH  36  40
DOCKED: ATOM     40  O   UNL d   1     -11.378 -16.937   4.624 -0.01 +0.03    -0.303 OA
DOCKED: ATOM     41  H   UNL d   1     -11.796 -16.418   5.346 +0.02 -0.02    +0.222 HD
DOCKED: ENDBRANCH  36  40
DOCKED: ENDBRANCH  35  36
DOCKED: ENDBRANCH   5  35
DOCKED: BRANCH   4  42
DOCKED: ATOM     42  O   UNL d   1      -7.147 -16.916   4.487 -0.10 +0.10    -0.278 OA
DOCKED: BRANCH  42  43
DOCKED: ATOM     43  P   UNL d   1      -6.777 -16.619   2.964 -0.23 -0.14    +0.473 P 
DOCKED: ATOM     44  O   UNL d   1      -7.088 -17.676   1.962 -0.16 +0.05    -0.228 OA
DOCKED: BRANCH  43  45
DOCKED: ATOM     45  O   UNL d   1      -7.504 -15.230   2.693 -0.21 +0.05    -0.303 OA
DOCKED: ATOM     46  H   UNL d   1      -7.612 -14.715   3.518 -0.48 -0.12    +0.222 HD
DOCKED: ENDBRANCH  43  45
DOCKED: BRANCH  43  47
DOCKED: ATOM     47  O   UNL d   1      -5.239 -16.171   3.042 -0.81 +0.12    -0.303 OA
DOCKED: ATOM     48  H   UNL d   1      -4.806 -16.635   3.788 -0.24 -0.29    +0.222 HD
DOCKED: ENDBRANCH  43  47
DOCKED: ENDBRANCH  42  43
DOCKED: ENDBRANCH   4  42
DOCKED: TORSDOF 24
DOCKED: TER
DOCKED: ENDMDL
________________________________________________________________________________


	BEGINNING GENETIC ALGORITHM DOCKING 46 of 100
Run: 46 Seed: 585988621 1306050570 [ Run 46 of 100 GA/GALS ]
Beginning LAMARCKIAN GENETIC ALGORITHM (LGA), with a maximum of 25000000 energy evaluations.

Final-Value: -17.876


	FINAL GENETIC ALGORITHM DOCKED STATE
	_______________________________________________


Detailed state:  trans -10.154 20.692 -6.339 quatxyzw -0.740710 0.085349 0.260843 -0.613209 center 0.035 0.082 -0.065 ntor 24 -142.2074 -26.8666 179.7842 91.2482 15.3061 45.4744 -23.4454 -136.9991 68.7033 130.9823 131.1249 112.3308 -149.3004 -29.0793 -26.6416 147.3679 -53.0684 58.9698 42.2182 -29.1004 2.5571 -42.4548 -17.1287 -21.1507
State:	-10.154  20.692  -6.339  -0.938  0.108  0.330 -104.356   -142.21  -26.87  179.78   91.25   15.31   45.47  -23.45 -137.00   68.70  130.98  131.12  112.33 -149.30  -29.08  -26.64  147.37  -53.07   58.97   42.22  -29.10    2.56  -42.45  -17.13  -21.15

DOCKED: MODEL       46
DOCKED: USER    Run = 46
DOCKED: USER    DPF = D:/Protein_go_brrr/autodock/final/mut_K82N/IHP/dock.dpf
DOCKED: USER  
DOCKED: USER    Estimated Free Energy of Binding    =   +2.29 kcal/mol  [=(1)+(2)+(3)-(4)]
DOCKED: USER    
DOCKED: USER    (1) Final Intermolecular Energy     =   -4.87 kcal/mol
DOCKED: USER        vdW + Hbond + desolv Energy     =   -4.82 kcal/mol
DOCKED: USER        Electrostatic Energy            =   -0.06 kcal/mol
DOCKED: USER    (2) Final Total Internal Energy     =  -13.00 kcal/mol
DOCKED: USER    (3) Torsional Free Energy           =   +7.16 kcal/mol
DOCKED: USER    (4) Unbound System's Energy  [=(2)] =  -13.00 kcal/mol
DOCKED: USER    
DOCKED: USER    
DOCKED: USER    NEWDPF move IHP_ideal_opt.pdbqt
DOCKED: USER    NEWDPF about 0.035000 0.082000 -0.065000
DOCKED: USER    NEWDPF tran0 -10.154278 20.692109 -6.339101
DOCKED: USER    NEWDPF quaternion0 -0.740710 0.085349 0.260843 -0.613209
DOCKED: USER    NEWDPF axisangle0 -0.937702 0.108047 0.330214 -104.356260
DOCKED: USER    NEWDPF quat0 -0.937702 0.108047 0.330214 -104.356260
DOCKED: USER    NEWDPF dihe0 -142.21 -26.87 179.78 91.25 15.31 45.47 -23.45 -137.00 68.70 130.98 131.12 112.33 -149.30 -29.08 -26.64 147.37 -53.07 58.97 42.22 -29.10 2.56 -42.45 -17.13 -21.15 
DOCKED: USER  keepresnum = 1 
DOCKED: USER  
DOCKED: REMARK  24 active torsions:
DOCKED: REMARK  status: ('A' for Active; 'I' for Inactive)
DOCKED: REMARK    1  A    between atoms: C_1  and  O_7 
DOCKED: REMARK    2  A    between atoms: C_2  and  O_12 
DOCKED: REMARK    3  A    between atoms: C_3  and  O_17 
DOCKED: REMARK    4  A    between atoms: C_4  and  O_22 
DOCKED: REMARK    5  A    between atoms: C_5  and  O_27 
DOCKED: REMARK    6  A    between atoms: C_6  and  O_32 
DOCKED: REMARK    7  A    between atoms: O_7  and  P_8 
DOCKED: REMARK    8  A    between atoms: P_8  and  O_10 
DOCKED: REMARK    9  A    between atoms: P_8  and  O_11 
DOCKED: REMARK   10  A    between atoms: O_12  and  P_13 
DOCKED: REMARK   11  A    between atoms: P_13  and  O_15 
DOCKED: REMARK   12  A    between atoms: P_13  and  O_16 
DOCKED: REMARK   13  A    between atoms: O_17  and  P_18 
DOCKED: REMARK   14  A    between atoms: P_18  and  O_20 
DOCKED: REMARK   15  A    between atoms: P_18  and  O_21 
DOCKED: REMARK   16  A    between atoms: O_22  and  P_23 
DOCKED: REMARK   17  A    between atoms: P_23  and  O_25 
DOCKED: REMARK   18  A    between atoms: P_23  and  O_26 
DOCKED: REMARK   19  A    between atoms: O_27  and  P_28 
DOCKED: REMARK   20  A    between atoms: P_28  and  O_30 
DOCKED: REMARK   21  A    between atoms: P_28  and  O_31 
DOCKED: REMARK   22  A    between atoms: O_32  and  P_33 
DOCKED: REMARK   23  A    between atoms: P_33  and  O_35 
DOCKED: REMARK   24  A    between atoms: P_33  and  O_36 
DOCKED: USER                              x       y       z     vdW  Elec       q    Type
DOCKED: USER                           _______ _______ _______ _____ _____    ______ ____
DOCKED: ROOT
DOCKED: ATOM      1  C   UNL d   1      -8.917  21.896  -6.276 -0.09 +0.05    +0.194 C 
DOCKED: ATOM      2  C   UNL d   1      -9.514  21.490  -4.927 -0.08 +0.05    +0.194 C 
DOCKED: ATOM      3  C   UNL d   1     -11.037  21.363  -4.997 -0.05 +0.06    +0.194 C 
DOCKED: ATOM      4  C   UNL d   1     -11.514  20.462  -6.134 -0.07 +0.13    +0.194 C 
DOCKED: ATOM      5  C   UNL d   1     -10.857  20.757  -7.476 -0.07 +0.14    +0.194 C 
DOCKED: ATOM      6  C   UNL d   1      -9.341  20.945  -7.396 -0.15 +0.11    +0.194 C 
DOCKED: ENDROOT
DOCKED: BRANCH   1   7
DOCKED: ATOM      7  O   UNL d   1      -7.493  21.824  -6.173 -0.20 -0.07    -0.278 OA
DOCKED: BRANCH   7   8
DOCKED: ATOM      8  P   UNL d   1      -6.720  23.038  -5.480 -0.07 +0.05    +0.473 P 
DOCKED: ATOM      9  O   UNL d   1      -6.141  24.037  -6.419 -0.17 -0.00    -0.228 OA
DOCKED: BRANCH   8  10
DOCKED: ATOM     10  O   UNL d   1      -7.797  23.664  -4.483 -0.02 -0.01    -0.303 OA
DOCKED: ATOM     11  H   UNL d   1      -8.075  22.988  -3.836 +0.05 +0.01    +0.222 HD
DOCKED: ENDBRANCH   8  10
DOCKED: BRANCH   8  12
DOCKED: ATOM     12  O   UNL d   1      -5.695  22.356  -4.476 -0.71 -0.05    -0.303 OA
DOCKED: ATOM     13  H   UNL d   1      -6.131  21.961  -3.687 +0.10 +0.00    +0.222 HD
DOCKED: ENDBRANCH   8  12
DOCKED: ENDBRANCH   7   8
DOCKED: ENDBRANCH   1   7
DOCKED: BRANCH   2  14
DOCKED: ATOM     14  O   UNL d   1      -8.968  20.224  -4.536 -0.18 -0.11    -0.278 OA
DOCKED: BRANCH  14  15
DOCKED: ATOM     15  P   UNL d   1      -7.818  20.254  -3.422 -0.23 +0.06    +0.473 P 
DOCKED: ATOM     16  O   UNL d   1      -7.828  21.414  -2.476 -0.13 -0.02    -0.228 OA
DOCKED: BRANCH  15  17
DOCKED: ATOM     17  O   UNL d   1      -7.961  18.852  -2.680 -0.44 -0.05    -0.303 OA
DOCKED: ATOM     18  H   UNL d   1      -7.485  18.148  -3.162 -0.31 -0.01    +0.222 HD
DOCKED: ENDBRANCH  15  17
DOCKED: BRANCH  15  19
DOCKED: ATOM     19  O   UNL d   1      -6.469  20.047  -4.238 -0.22 +0.02    -0.303 OA
DOCKED: ATOM     20  H   UNL d   1      -6.527  20.428  -5.134 -0.32 +0.01    +0.222 HD
DOCKED: ENDBRANCH  15  19
DOCKED: ENDBRANCH  14  15
DOCKED: ENDBRANCH   2  14
DOCKED: BRANCH   6  21
DOCKED: ATOM     21  O   UNL d   1      -8.934  21.540  -8.626 -0.07 -0.09    -0.278 OA
DOCKED: BRANCH  21  22
DOCKED: ATOM     22  P   UNL d   1      -8.301  20.631  -9.775 -0.12 +0.15    +0.473 P 
DOCKED: ATOM     23  O   UNL d   1      -8.230  19.158  -9.549 -0.35 -0.13    -0.228 OA
DOCKED: BRANCH  22  24
DOCKED: ATOM     24  O   UNL d   1      -9.154  21.071 -11.044 -0.02 -0.05    -0.303 OA
DOCKED: ATOM     25  H   UNL d   1     -10.114  21.014 -10.806 +0.03 +0.05    +0.222 HD
DOCKED: ENDBRANCH  22  24
DOCKED: BRANCH  22  26
DOCKED: ATOM     26  O   UNL d   1      -6.904  21.370 -10.042 -0.09 -0.04    -0.303 OA
DOCKED: ATOM     27  H   UNL d   1      -6.809  21.541 -11.001 +0.05 +0.01    +0.222 HD
DOCKED: ENDBRANCH  22  26
DOCKED: ENDBRANCH  21  22
DOCKED: ENDBRANCH   6  21
DOCKED: BRANCH   3  28
DOCKED: ATOM     28  O   UNL d   1     -11.469  20.724  -3.803 -0.04 -0.08    -0.278 OA
DOCKED: BRANCH  28  29
DOCKED: ATOM     29  P   UNL d   1     -11.349  21.472  -2.402 -0.02 +0.07    +0.473 P 
DOCKED: ATOM     30  O   UNL d   1     -12.625  21.655  -1.662 -0.02 -0.02    -0.228 OA
DOCKED: BRANCH  29  31
DOCKED: ATOM     31  O   UNL d   1     -10.226  20.574  -1.700 -0.08 -0.06    -0.303 OA
DOCKED: ATOM     32  H   UNL d   1      -9.652  20.185  -2.401 +0.08 +0.05    +0.222 HD
DOCKED: ENDBRANCH  29  31
DOCKED: BRANCH  29  33
DOCKED: ATOM     33  O   UNL d   1     -10.550  22.792  -2.795 -0.01 -0.02    -0.303 OA
DOCKED: ATOM     34  H   UNL d   1      -9.593  22.569  -2.898 +0.04 +0.02    +0.222 HD
DOCKED: ENDBRANCH  29  33
DOCKED: ENDBRANCH  28  29
DOCKED: ENDBRANCH   3  28
DOCKED: BRANCH   5  35
DOCKED: ATOM     35  O   UNL d   1     -11.095  19.606  -8.284 -0.33 -0.42    -0.278 OA
DOCKED: BRANCH  35  36
DOCKED: ATOM     36  P   UNL d   1     -12.036  19.706  -9.569 -0.03 +0.29    +0.473 P 
DOCKED: ATOM     37  O   UNL d   1     -12.779  20.994  -9.726 -0.01 -0.06    -0.228 OA
DOCKED: BRANCH  36  38
DOCKED: ATOM     38  O   UNL d   1     -11.011  19.394 -10.748 -0.04 -0.14    -0.303 OA
DOCKED: ATOM     39  H   UNL d   1     -10.117  19.255 -10.368 +0.05 +0.13    +0.222 HD
DOCKED: ENDBRANCH  36  38
DOCKED: BRANCH  36  40
DOCKED: ATOM     40  O   UNL d   1     -12.906  18.379  -9.457 -0.13 -0.21    -0.303 OA
DOCKED: ATOM     41  H   UNL d   1     -13.724  18.524  -8.931 +0.02 +0.11    +0.222 HD
DOCKED: ENDBRANCH  36  40
DOCKED: ENDBRANCH  35  36
DOCKED: ENDBRANCH   5  35
DOCKED: BRANCH   4  42
DOCKED: ATOM     42  O   UNL d   1     -12.917  20.700  -6.290 -0.03 -0.11    -0.278 OA
DOCKED: BRANCH  42  43
DOCKED: ATOM     43  P   UNL d   1     -13.904  19.451  -6.393 -0.03 +0.20    +0.473 P 
DOCKED: ATOM     44  O   UNL d   1     -14.730  19.128  -5.197 -0.01 -0.06    -0.228 OA
DOCKED: BRANCH  43  45
DOCKED: ATOM     45  O   UNL d   1     -14.750  19.782  -7.699 -0.00 -0.08    -0.303 OA
DOCKED: ATOM     46  H   UNL d   1     -14.174  19.891  -8.482 +0.01 +0.07    +0.222 HD
DOCKED: ENDBRANCH  43  45
DOCKED: BRANCH  43  47
DOCKED: ATOM     47  O   UNL d   1     -12.950  18.272  -6.914 -0.31 -0.35    -0.303 OA
DOCKED: ATOM     48  H   UNL d   1     -12.680  18.459  -7.837 +0.02 +0.31    +0.222 HD
DOCKED: ENDBRANCH  43  47
DOCKED: ENDBRANCH  42  43
DOCKED: ENDBRANCH   4  42
DOCKED: TORSDOF 24
DOCKED: TER
DOCKED: ENDMDL
________________________________________________________________________________


	BEGINNING GENETIC ALGORITHM DOCKING 47 of 100
Run: 47 Seed: 1926845167 443539400 [ Run 47 of 100 GA/GALS ]
Beginning LAMARCKIAN GENETIC ALGORITHM (LGA), with a maximum of 25000000 energy evaluations.

Final-Value: -18.961


	FINAL GENETIC ALGORITHM DOCKED STATE
	_______________________________________________


Detailed state:  trans -8.500 0.629 15.307 quatxyzw 0.297612 -0.486630 -0.644173 -0.509568 center 0.035 0.082 -0.065 ntor 24 -100.4544 -10.9572 49.3767 55.1909 12.0888 -110.0554 171.7041 -94.5172 21.3638 47.9917 95.0035 114.3099 -134.6855 156.3397 -37.0298 105.0763 148.3793 37.4227 26.1211 -17.9089 172.8947 -26.4779 -11.9080 -17.5350
State:	 -8.500   0.629  15.307   0.346 -0.566 -0.749 -118.730   -100.45  -10.96   49.38   55.19   12.09 -110.06  171.70  -94.52   21.36   47.99   95.00  114.31 -134.69  156.34  -37.03  105.08  148.38   37.42   26.12  -17.91  172.89  -26.48  -11.91  -17.53

DOCKED: MODEL       47
DOCKED: USER    Run = 47
DOCKED: USER    DPF = D:/Protein_go_brrr/autodock/final/mut_K82N/IHP/dock.dpf
DOCKED: USER  
DOCKED: USER    Estimated Free Energy of Binding    =   +2.84 kcal/mol  [=(1)+(2)+(3)-(4)]
DOCKED: USER    
DOCKED: USER    (1) Final Intermolecular Energy     =   -4.32 kcal/mol
DOCKED: USER        vdW + Hbond + desolv Energy     =   -4.22 kcal/mol
DOCKED: USER        Electrostatic Energy            =   -0.10 kcal/mol
DOCKED: USER    (2) Final Total Internal Energy     =  -14.64 kcal/mol
DOCKED: USER    (3) Torsional Free Energy           =   +7.16 kcal/mol
DOCKED: USER    (4) Unbound System's Energy  [=(2)] =  -14.64 kcal/mol
DOCKED: USER    
DOCKED: USER    
DOCKED: USER    NEWDPF move IHP_ideal_opt.pdbqt
DOCKED: USER    NEWDPF about 0.035000 0.082000 -0.065000
DOCKED: USER    NEWDPF tran0 -8.500218 0.629045 15.306604
DOCKED: USER    NEWDPF quaternion0 0.297612 -0.486630 -0.644173 -0.509568
DOCKED: USER    NEWDPF axisangle0 0.345888 -0.565565 -0.748664 -118.729923
DOCKED: USER    NEWDPF quat0 0.345888 -0.565565 -0.748664 -118.729923
DOCKED: USER    NEWDPF dihe0 -100.45 -10.96 49.38 55.19 12.09 -110.06 171.70 -94.52 21.36 47.99 95.00 114.31 -134.69 156.34 -37.03 105.08 148.38 37.42 26.12 -17.91 172.89 -26.48 -11.91 -17.53 
DOCKED: USER  keepresnum = 1 
DOCKED: USER  
DOCKED: REMARK  24 active torsions:
DOCKED: REMARK  status: ('A' for Active; 'I' for Inactive)
DOCKED: REMARK    1  A    between atoms: C_1  and  O_7 
DOCKED: REMARK    2  A    between atoms: C_2  and  O_12 
DOCKED: REMARK    3  A    between atoms: C_3  and  O_17 
DOCKED: REMARK    4  A    between atoms: C_4  and  O_22 
DOCKED: REMARK    5  A    between atoms: C_5  and  O_27 
DOCKED: REMARK    6  A    between atoms: C_6  and  O_32 
DOCKED: REMARK    7  A    between atoms: O_7  and  P_8 
DOCKED: REMARK    8  A    between atoms: P_8  and  O_10 
DOCKED: REMARK    9  A    between atoms: P_8  and  O_11 
DOCKED: REMARK   10  A    between atoms: O_12  and  P_13 
DOCKED: REMARK   11  A    between atoms: P_13  and  O_15 
DOCKED: REMARK   12  A    between atoms: P_13  and  O_16 
DOCKED: REMARK   13  A    between atoms: O_17  and  P_18 
DOCKED: REMARK   14  A    between atoms: P_18  and  O_20 
DOCKED: REMARK   15  A    between atoms: P_18  and  O_21 
DOCKED: REMARK   16  A    between atoms: O_22  and  P_23 
DOCKED: REMARK   17  A    between atoms: P_23  and  O_25 
DOCKED: REMARK   18  A    between atoms: P_23  and  O_26 
DOCKED: REMARK   19  A    between atoms: O_27  and  P_28 
DOCKED: REMARK   20  A    between atoms: P_28  and  O_30 
DOCKED: REMARK   21  A    between atoms: P_28  and  O_31 
DOCKED: REMARK   22  A    between atoms: O_32  and  P_33 
DOCKED: REMARK   23  A    between atoms: P_33  and  O_35 
DOCKED: REMARK   24  A    between atoms: P_33  and  O_36 
DOCKED: USER                              x       y       z     vdW  Elec       q    Type
DOCKED: USER                           _______ _______ _______ _____ _____    ______ ____
DOCKED: ROOT
DOCKED: ATOM      1  C   UNL d   1      -9.902  -0.294  14.898 -0.07 -0.04    +0.194 C 
DOCKED: ATOM      2  C   UNL d   1      -9.494   0.773  13.881 -0.12 -0.05    +0.194 C 
DOCKED: ATOM      3  C   UNL d   1      -9.099   2.085  14.563 -0.13 -0.04    +0.194 C 
DOCKED: ATOM      4  C   UNL d   1      -8.052   1.901  15.659 -0.20 -0.05    +0.194 C 
DOCKED: ATOM      5  C   UNL d   1      -8.363   0.770  16.630 -0.14 -0.05    +0.194 C 
DOCKED: ATOM      6  C   UNL d   1      -8.817  -0.524  15.950 -0.03 -0.07    +0.194 C 
DOCKED: ENDROOT
DOCKED: BRANCH   1   7
DOCKED: ATOM      7  O   UNL d   1     -10.086  -1.528  14.200 -0.05 +0.06    -0.278 OA
DOCKED: BRANCH   7   8
DOCKED: ATOM      8  P   UNL d   1     -11.566  -1.937  13.758 +0.00 -0.06    +0.473 P 
DOCKED: ATOM      9  O   UNL d   1     -12.381  -2.594  14.816 -0.00 +0.02    -0.228 OA
DOCKED: BRANCH   8  10
DOCKED: ATOM     10  O   UNL d   1     -12.203  -0.572  13.231 -0.00 +0.03    -0.303 OA
DOCKED: ATOM     11  H   UNL d   1     -12.195  -0.563  12.256 +0.01 -0.03    +0.222 HD
DOCKED: ENDBRANCH   8  10
DOCKED: BRANCH   8  12
DOCKED: ATOM     12  O   UNL d   1     -11.382  -2.760  12.412 -0.00 +0.04    -0.303 OA
DOCKED: ATOM     13  H   UNL d   1     -10.896  -2.260  11.718 +0.03 -0.03    +0.222 HD
DOCKED: ENDBRANCH   8  12
DOCKED: ENDBRANCH   7   8
DOCKED: ENDBRANCH   1   7
DOCKED: BRANCH   2  14
DOCKED: ATOM     14  O   UNL d   1      -8.372   0.295  13.127 -0.21 +0.11    -0.278 OA
DOCKED: BRANCH  14  15
DOCKED: ATOM     15  P   UNL d   1      -8.621   0.019  11.570 -0.10 -0.15    +0.473 P 
DOCKED: ATOM     16  O   UNL d   1      -7.828  -1.087  10.948 -0.30 +0.07    -0.228 OA
DOCKED: BRANCH  15  17
DOCKED: ATOM     17  O   UNL d   1     -10.194  -0.214  11.464 -0.04 +0.05    -0.303 OA
DOCKED: ATOM     18  H   UNL d   1     -10.506  -0.823  12.160 +0.05 -0.04    +0.222 HD
DOCKED: ENDBRANCH  15  17
DOCKED: BRANCH  15  19
DOCKED: ATOM     19  O   UNL d   1      -8.463   1.446  10.884 -0.66 +0.06    -0.303 OA
DOCKED: ATOM     20  H   UNL d   1      -8.329   2.150  11.545 -0.23 -0.05    +0.222 HD
DOCKED: ENDBRANCH  15  19
DOCKED: ENDBRANCH  14  15
DOCKED: ENDBRANCH   2  14
DOCKED: BRANCH   6  21
DOCKED: ATOM     21  O   UNL d   1      -9.386  -1.346  16.967 -0.07 +0.07    -0.278 OA
DOCKED: BRANCH  21  22
DOCKED: ATOM     22  P   UNL d   1     -10.787  -0.944  17.617 -0.01 -0.06    +0.473 P 
DOCKED: ATOM     23  O   UNL d   1     -11.385   0.371  17.247 -0.01 +0.02    -0.228 OA
DOCKED: BRANCH  22  24
DOCKED: ATOM     24  O   UNL d   1     -11.685  -2.209  17.262 -0.00 +0.03    -0.303 OA
DOCKED: ATOM     25  H   UNL d   1     -11.637  -2.356  16.283 +0.01 -0.02    +0.222 HD
DOCKED: ENDBRANCH  22  24
DOCKED: BRANCH  22  26
DOCKED: ATOM     26  O   UNL d   1     -10.498  -1.171  19.177 -0.01 +0.03    -0.303 OA
DOCKED: ATOM     27  H   UNL d   1      -9.952  -0.431  19.514 +0.01 -0.02    +0.222 HD
DOCKED: ENDBRANCH  22  26
DOCKED: ENDBRANCH  21  22
DOCKED: ENDBRANCH   6  21
DOCKED: BRANCH   3  28
DOCKED: ATOM     28  O   UNL d   1      -8.479   2.907  13.583 -0.23 +0.06    -0.278 OA
DOCKED: BRANCH  28  29
DOCKED: ATOM     29  P   UNL d   1      -9.364   3.806  12.610 -0.18 -0.09    +0.473 P 
DOCKED: ATOM     30  O   UNL d   1      -9.876   5.071  13.197 -0.16 +0.05    -0.228 OA
DOCKED: BRANCH  29  31
DOCKED: ATOM     31  O   UNL d   1      -8.368   3.934  11.364 -0.17 +0.01    -0.303 OA
DOCKED: ATOM     32  H   UNL d   1      -8.377   4.867  11.050 -0.34 -0.09    +0.222 HD
DOCKED: ENDBRANCH  29  31
DOCKED: BRANCH  29  33
DOCKED: ATOM     33  O   UNL d   1     -10.449   2.764  12.088 -0.07 +0.05    -0.303 OA
DOCKED: ATOM     34  H   UNL d   1     -10.022   1.878  11.990 +0.07 -0.04    +0.222 HD
DOCKED: ENDBRANCH  29  33
DOCKED: ENDBRANCH  28  29
DOCKED: ENDBRANCH   3  28
DOCKED: BRANCH   5  35
DOCKED: ATOM     35  O   UNL d   1      -7.135   0.485  17.298 -0.20 +0.07    -0.278 OA
DOCKED: BRANCH  35  36
DOCKED: ATOM     36  P   UNL d   1      -7.019   0.660  18.879 -0.10 -0.06    +0.473 P 
DOCKED: ATOM     37  O   UNL d   1      -5.629   0.625  19.431 -0.15 +0.01    -0.228 OA
DOCKED: BRANCH  36  38
DOCKED: ATOM     38  O   UNL d   1      -7.780   2.040  19.111 -0.02 +0.04    -0.303 OA
DOCKED: ATOM     39  H   UNL d   1      -7.441   2.705  18.474 +0.04 -0.03    +0.222 HD
DOCKED: ENDBRANCH  36  38
DOCKED: BRANCH  36  40
DOCKED: ATOM     40  O   UNL d   1      -8.038  -0.435  19.418 -0.03 +0.03    -0.303 OA
DOCKED: ATOM     41  H   UNL d   1      -8.392  -0.993  18.690 +0.03 -0.03    +0.222 HD
DOCKED: ENDBRANCH  36  40
DOCKED: ENDBRANCH  35  36
DOCKED: ENDBRANCH   5  35
DOCKED: BRANCH   4  42
DOCKED: ATOM     42  O   UNL d   1      -8.031   3.115  16.419 -0.07 +0.05    -0.278 OA
DOCKED: BRANCH  42  43
DOCKED: ATOM     43  P   UNL d   1      -6.633   3.837  16.678 -0.12 -0.11    +0.473 P 
DOCKED: ATOM     44  O   UNL d   1      -6.111   4.729  15.604 -0.19 +0.04    -0.228 OA
DOCKED: BRANCH  43  45
DOCKED: ATOM     45  O   UNL d   1      -6.870   4.567  18.072 -0.02 +0.05    -0.303 OA
DOCKED: ATOM     46  H   UNL d   1      -7.598   4.150  18.575 +0.03 -0.03    +0.222 HD
DOCKED: ENDBRANCH  43  45
DOCKED: BRANCH  43  47
DOCKED: ATOM     47  O   UNL d   1      -5.669   2.629  17.102 -0.14 +0.10    -0.303 OA
DOCKED: ATOM     48  H   UNL d   1      -5.964   2.268  17.964 +0.05 -0.05    +0.222 HD
DOCKED: ENDBRANCH  43  47
DOCKED: ENDBRANCH  42  43
DOCKED: ENDBRANCH   4  42
DOCKED: TORSDOF 24
DOCKED: TER
DOCKED: ENDMDL
________________________________________________________________________________


	BEGINNING GENETIC ALGORITHM DOCKING 48 of 100
Run: 48 Seed: 1745095025 779218160 [ Run 48 of 100 GA/GALS ]
Beginning LAMARCKIAN GENETIC ALGORITHM (LGA), with a maximum of 25000000 energy evaluations.

Final-Value: -18.343


	FINAL GENETIC ALGORITHM DOCKED STATE
	_______________________________________________


Detailed state:  trans -13.089 -7.011 -3.531 quatxyzw -0.403543 0.383014 0.371997 0.743016 center 0.035 0.082 -0.065 ntor 24 179.2596 10.9408 64.2191 -95.4700 142.3913 124.0517 -26.8987 -164.6192 33.8272 69.2282 -168.8661 -180.0000 46.2201 -70.9333 77.3993 -43.4793 -132.6562 106.3623 2.0232 -2.2820 -35.6824 135.9687 147.6919 -56.8007
State:	-13.089  -7.011  -3.531  -0.603  0.572  0.556 84.022    179.26   10.94   64.22  -95.47  142.39  124.05  -26.90 -164.62   33.83   69.23 -168.87 -180.00   46.22  -70.93   77.40  -43.48 -132.66  106.36    2.02   -2.28  -35.68  135.97  147.69  -56.80

DOCKED: MODEL       48
DOCKED: USER    Run = 48
DOCKED: USER    DPF = D:/Protein_go_brrr/autodock/final/mut_K82N/IHP/dock.dpf
DOCKED: USER  
DOCKED: USER    Estimated Free Energy of Binding    =   +3.09 kcal/mol  [=(1)+(2)+(3)-(4)]
DOCKED: USER    
DOCKED: USER    (1) Final Intermolecular Energy     =   -4.07 kcal/mol
DOCKED: USER        vdW + Hbond + desolv Energy     =   -3.56 kcal/mol
DOCKED: USER        Electrostatic Energy            =   -0.51 kcal/mol
DOCKED: USER    (2) Final Total Internal Energy     =  -14.28 kcal/mol
DOCKED: USER    (3) Torsional Free Energy           =   +7.16 kcal/mol
DOCKED: USER    (4) Unbound System's Energy  [=(2)] =  -14.28 kcal/mol
DOCKED: USER    
DOCKED: USER    
DOCKED: USER    NEWDPF move IHP_ideal_opt.pdbqt
DOCKED: USER    NEWDPF about 0.035000 0.082000 -0.065000
DOCKED: USER    NEWDPF tran0 -13.089270 -7.011225 -3.530696
DOCKED: USER    NEWDPF quaternion0 -0.403543 0.383014 0.371997 0.743016
DOCKED: USER    NEWDPF axisangle0 -0.602956 0.572283 0.555821 84.022112
DOCKED: USER    NEWDPF quat0 -0.602956 0.572283 0.555821 84.022112
DOCKED: USER    NEWDPF dihe0 179.26 10.94 64.22 -95.47 142.39 124.05 -26.90 -164.62 33.83 69.23 -168.87 -180.00 46.22 -70.93 77.40 -43.48 -132.66 106.36 2.02 -2.28 -35.68 135.97 147.69 -56.80 
DOCKED: USER  keepresnum = 1 
DOCKED: USER  
DOCKED: REMARK  24 active torsions:
DOCKED: REMARK  status: ('A' for Active; 'I' for Inactive)
DOCKED: REMARK    1  A    between atoms: C_1  and  O_7 
DOCKED: REMARK    2  A    between atoms: C_2  and  O_12 
DOCKED: REMARK    3  A    between atoms: C_3  and  O_17 
DOCKED: REMARK    4  A    between atoms: C_4  and  O_22 
DOCKED: REMARK    5  A    between atoms: C_5  and  O_27 
DOCKED: REMARK    6  A    between atoms: C_6  and  O_32 
DOCKED: REMARK    7  A    between atoms: O_7  and  P_8 
DOCKED: REMARK    8  A    between atoms: P_8  and  O_10 
DOCKED: REMARK    9  A    between atoms: P_8  and  O_11 
DOCKED: REMARK   10  A    between atoms: O_12  and  P_13 
DOCKED: REMARK   11  A    between atoms: P_13  and  O_15 
DOCKED: REMARK   12  A    between atoms: P_13  and  O_16 
DOCKED: REMARK   13  A    between atoms: O_17  and  P_18 
DOCKED: REMARK   14  A    between atoms: P_18  and  O_20 
DOCKED: REMARK   15  A    between atoms: P_18  and  O_21 
DOCKED: REMARK   16  A    between atoms: O_22  and  P_23 
DOCKED: REMARK   17  A    between atoms: P_23  and  O_25 
DOCKED: REMARK   18  A    between atoms: P_23  and  O_26 
DOCKED: REMARK   19  A    between atoms: O_27  and  P_28 
DOCKED: REMARK   20  A    between atoms: P_28  and  O_30 
DOCKED: REMARK   21  A    between atoms: P_28  and  O_31 
DOCKED: REMARK   22  A    between atoms: O_32  and  P_33 
DOCKED: REMARK   23  A    between atoms: P_33  and  O_35 
DOCKED: REMARK   24  A    between atoms: P_33  and  O_36 
DOCKED: USER                              x       y       z     vdW  Elec       q    Type
DOCKED: USER                           _______ _______ _______ _____ _____    ______ ____
DOCKED: ROOT
DOCKED: ATOM      1  C   UNL d   1     -13.455  -8.693  -3.678 -0.02 -0.04    +0.194 C 
DOCKED: ATOM      2  C   UNL d   1     -13.866  -7.821  -4.865 -0.01 -0.03    +0.194 C 
DOCKED: ATOM      3  C   UNL d   1     -14.505  -6.508  -4.409 -0.00 -0.03    +0.194 C 
DOCKED: ATOM      4  C   UNL d   1     -13.653  -5.743  -3.399 -0.02 -0.05    +0.194 C 
DOCKED: ATOM      5  C   UNL d   1     -13.125  -6.601  -2.257 -0.06 -0.09    +0.194 C 
DOCKED: ATOM      6  C   UNL d   1     -12.541  -7.942  -2.708 -0.07 -0.07    +0.194 C 
DOCKED: ENDROOT
DOCKED: BRANCH   1   7
DOCKED: ATOM      7  O   UNL d   1     -12.717  -9.810  -4.180 -0.04 +0.05    -0.278 OA
DOCKED: BRANCH   7   8
DOCKED: ATOM      8  P   UNL d   1     -13.272 -11.279  -3.888 +0.01 -0.07    +0.473 P 
DOCKED: ATOM      9  O   UNL d   1     -14.055 -11.890  -4.996 -0.01 +0.02    -0.228 OA
DOCKED: BRANCH   8  10
DOCKED: ATOM     10  O   UNL d   1     -11.969 -12.116  -3.504 -0.06 +0.04    -0.303 OA
DOCKED: ATOM     11  H   UNL d   1     -11.264 -11.508  -3.213 +0.08 -0.04    +0.222 HD
DOCKED: ENDBRANCH   8  10
DOCKED: BRANCH   8  12
DOCKED: ATOM     12  O   UNL d   1     -14.019 -11.168  -2.490 -0.01 +0.04    -0.303 OA
DOCKED: ATOM     13  H   UNL d   1     -13.592 -10.531  -1.874 +0.04 -0.04    +0.222 HD
DOCKED: ENDBRANCH   8  12
DOCKED: ENDBRANCH   7   8
DOCKED: ENDBRANCH   1   7
DOCKED: BRANCH   2  14
DOCKED: ATOM     14  O   UNL d   1     -12.704  -7.516  -5.646 -0.05 +0.04    -0.278 OA
DOCKED: BRANCH  14  15
DOCKED: ATOM     15  P   UNL d   1     -12.805  -7.793  -7.220 -0.02 -0.02    +0.473 P 
DOCKED: ATOM     16  O   UNL d   1     -13.937  -8.659  -7.678 -0.07 +0.01    -0.228 OA
DOCKED: BRANCH  15  17
DOCKED: ATOM     17  O   UNL d   1     -12.839  -6.339  -7.868 -0.16 -0.06    -0.303 OA
DOCKED: ATOM     18  H   UNL d   1     -13.276  -5.699  -7.274 +0.05 +0.01    +0.222 HD
DOCKED: ENDBRANCH  15  17
DOCKED: BRANCH  15  19
DOCKED: ATOM     19  O   UNL d   1     -11.351  -8.292  -7.629 -0.24 +0.06    -0.303 OA
DOCKED: ATOM     20  H   UNL d   1     -11.166  -8.127  -8.572 -0.44 -0.10    +0.222 HD
DOCKED: ENDBRANCH  15  19
DOCKED: ENDBRANCH  14  15
DOCKED: ENDBRANCH   2  14
DOCKED: BRANCH   6  21
DOCKED: ATOM     21  O   UNL d   1     -12.416  -8.751  -1.541 -0.08 +0.10    -0.278 OA
DOCKED: BRANCH  21  22
DOCKED: ATOM     22  P   UNL d   1     -11.108  -9.639  -1.330 -0.18 -0.16    +0.473 P 
DOCKED: ATOM     23  O   UNL d   1     -10.125  -9.212  -0.292 -0.34 +0.09    -0.228 OA
DOCKED: BRANCH  22  24
DOCKED: ATOM     24  O   UNL d   1     -11.730 -11.086  -1.104 -0.16 +0.09    -0.303 OA
DOCKED: ATOM     25  H   UNL d   1     -12.017 -11.439  -1.985 +0.07 -0.05    +0.222 HD
DOCKED: ENDBRANCH  22  24
DOCKED: BRANCH  22  26
DOCKED: ATOM     26  O   UNL d   1     -10.545  -9.750  -2.827 -0.19 +0.07    -0.303 OA
DOCKED: ATOM     27  H   UNL d   1     -11.269 -10.031  -3.423 +0.08 -0.05    +0.222 HD
DOCKED: ENDBRANCH  22  26
DOCKED: ENDBRANCH  21  22
DOCKED: ENDBRANCH   6  21
DOCKED: BRANCH   3  28
DOCKED: ATOM     28  O   UNL d   1     -14.596  -5.658  -5.546 -0.01 +0.02    -0.278 OA
DOCKED: BRANCH  28  29
DOCKED: ATOM     29  P   UNL d   1     -13.733  -4.322  -5.623 -0.01 -0.03    +0.473 P 
DOCKED: ATOM     30  O   UNL d   1     -14.134  -3.245  -4.682 -0.01 +0.01    -0.228 OA
DOCKED: BRANCH  29  31
DOCKED: ATOM     31  O   UNL d   1     -12.263  -4.930  -5.448 -0.06 +0.03    -0.303 OA
DOCKED: ATOM     32  H   UNL d   1     -12.274  -5.870  -5.742 +0.07 -0.03    +0.222 HD
DOCKED: ENDBRANCH  29  31
DOCKED: BRANCH  29  33
DOCKED: ATOM     33  O   UNL d   1     -13.788  -3.978  -7.177 -0.05 -0.01    -0.303 OA
DOCKED: ATOM     34  H   UNL d   1     -12.914  -4.195  -7.585 +0.05 +0.02    +0.222 HD
DOCKED: ENDBRANCH  29  33
DOCKED: ENDBRANCH  28  29
DOCKED: ENDBRANCH   3  28
DOCKED: BRANCH   5  35
DOCKED: ATOM     35  O   UNL d   1     -12.059  -5.855  -1.673 -0.10 +0.29    -0.278 OA
DOCKED: BRANCH  35  36
DOCKED: ATOM     36  P   UNL d   1     -10.605  -5.881  -2.328 -0.04 -0.37    +0.473 P 
DOCKED: ATOM     37  O   UNL d   1      -9.705  -6.980  -1.858 -0.22 +0.12    -0.228 OA
DOCKED: BRANCH  36  38
DOCKED: ATOM     38  O   UNL d   1     -10.949  -5.937  -3.882 -0.12 +0.12    -0.303 OA
DOCKED: ATOM     39  H   UNL d   1     -11.749  -6.489  -4.015 +0.08 -0.07    +0.222 HD
DOCKED: ENDBRANCH  36  38
DOCKED: BRANCH  36  40
DOCKED: ATOM     40  O   UNL d   1     -10.103  -4.389  -2.101 -0.20 +0.30    -0.303 OA
DOCKED: ATOM     41  H   UNL d   1     -10.521  -3.981  -1.311 -0.48 -0.48    +0.222 HD
DOCKED: ENDBRANCH  36  40
DOCKED: ENDBRANCH  35  36
DOCKED: ENDBRANCH   5  35
DOCKED: BRANCH   4  42
DOCKED: ATOM     42  O   UNL d   1     -14.496  -4.742  -2.819 -0.01 +0.08    -0.278 OA
DOCKED: BRANCH  42  43
DOCKED: ATOM     43  P   UNL d   1     -13.831  -3.589  -1.940 -0.02 -0.21    +0.473 P 
DOCKED: ATOM     44  O   UNL d   1     -14.535  -2.277  -1.882 -0.01 +0.05    -0.228 OA
DOCKED: BRANCH  43  45
DOCKED: ATOM     45  O   UNL d   1     -13.648  -4.292  -0.524 -0.07 +0.29    -0.303 OA
DOCKED: ATOM     46  H   UNL d   1     -12.705  -4.343  -0.269 -0.44 -0.46    +0.222 HD
DOCKED: ENDBRANCH  43  45
DOCKED: BRANCH  43  47
DOCKED: ATOM     47  O   UNL d   1     -12.322  -3.542  -2.478 -0.07 +0.17    -0.303 OA
DOCKED: ATOM     48  H   UNL d   1     -12.205  -4.224  -3.171 +0.06 -0.10    +0.222 HD
DOCKED: ENDBRANCH  43  47
DOCKED: ENDBRANCH  42  43
DOCKED: ENDBRANCH   4  42
DOCKED: TORSDOF 24
DOCKED: TER
DOCKED: ENDMDL
________________________________________________________________________________


	BEGINNING GENETIC ALGORITHM DOCKING 49 of 100
Run: 49 Seed: 678544771 359520456 [ Run 49 of 100 GA/GALS ]
Beginning LAMARCKIAN GENETIC ALGORITHM (LGA), with a maximum of 25000000 energy evaluations.

Final-Value: -18.749


	FINAL GENETIC ALGORITHM DOCKED STATE
	_______________________________________________


Detailed state:  trans 6.215 -12.998 -9.827 quatxyzw -0.596998 0.738573 0.289689 0.119097 center 0.035 0.082 -0.065 ntor 24 97.2178 54.6917 179.7315 -7.8159 13.8351 -160.5648 -100.7527 -11.3452 55.8782 -2.8691 33.0136 63.0325 151.5762 179.7918 -62.7435 -9.4007 137.8381 -95.6817 51.8264 13.1590 176.0491 -3.5954 -2.5335 160.5299
State:	  6.215 -12.998  -9.827  -0.601  0.744  0.292 166.320     97.22   54.69  179.73   -7.82   13.84 -160.56 -100.75  -11.35   55.88   -2.87   33.01   63.03  151.58  179.79  -62.74   -9.40  137.84  -95.68   51.83   13.16  176.05   -3.60   -2.53  160.53

DOCKED: MODEL       49
DOCKED: USER    Run = 49
DOCKED: USER    DPF = D:/Protein_go_brrr/autodock/final/mut_K82N/IHP/dock.dpf
DOCKED: USER  
DOCKED: USER    Estimated Free Energy of Binding    =   +2.91 kcal/mol  [=(1)+(2)+(3)-(4)]
DOCKED: USER    
DOCKED: USER    (1) Final Intermolecular Energy     =   -4.25 kcal/mol
DOCKED: USER        vdW + Hbond + desolv Energy     =   -4.06 kcal/mol
DOCKED: USER        Electrostatic Energy            =   -0.20 kcal/mol
DOCKED: USER    (2) Final Total Internal Energy     =  -14.50 kcal/mol
DOCKED: USER    (3) Torsional Free Energy           =   +7.16 kcal/mol
DOCKED: USER    (4) Unbound System's Energy  [=(2)] =  -14.50 kcal/mol
DOCKED: USER    
DOCKED: USER    
DOCKED: USER    NEWDPF move IHP_ideal_opt.pdbqt
DOCKED: USER    NEWDPF about 0.035000 0.082000 -0.065000
DOCKED: USER    NEWDPF tran0 6.215467 -12.998029 -9.826786
DOCKED: USER    NEWDPF quaternion0 -0.596998 0.738573 0.289689 0.119097
DOCKED: USER    NEWDPF axisangle0 -0.601278 0.743867 0.291765 166.319976
DOCKED: USER    NEWDPF quat0 -0.601278 0.743867 0.291765 166.319976
DOCKED: USER    NEWDPF dihe0 97.22 54.69 179.73 -7.82 13.84 -160.56 -100.75 -11.35 55.88 -2.87 33.01 63.03 151.58 179.79 -62.74 -9.40 137.84 -95.68 51.83 13.16 176.05 -3.60 -2.53 160.53 
DOCKED: USER  keepresnum = 1 
DOCKED: USER  
DOCKED: REMARK  24 active torsions:
DOCKED: REMARK  status: ('A' for Active; 'I' for Inactive)
DOCKED: REMARK    1  A    between atoms: C_1  and  O_7 
DOCKED: REMARK    2  A    between atoms: C_2  and  O_12 
DOCKED: REMARK    3  A    between atoms: C_3  and  O_17 
DOCKED: REMARK    4  A    between atoms: C_4  and  O_22 
DOCKED: REMARK    5  A    between atoms: C_5  and  O_27 
DOCKED: REMARK    6  A    between atoms: C_6  and  O_32 
DOCKED: REMARK    7  A    between atoms: O_7  and  P_8 
DOCKED: REMARK    8  A    between atoms: P_8  and  O_10 
DOCKED: REMARK    9  A    between atoms: P_8  and  O_11 
DOCKED: REMARK   10  A    between atoms: O_12  and  P_13 
DOCKED: REMARK   11  A    between atoms: P_13  and  O_15 
DOCKED: REMARK   12  A    between atoms: P_13  and  O_16 
DOCKED: REMARK   13  A    between atoms: O_17  and  P_18 
DOCKED: REMARK   14  A    between atoms: P_18  and  O_20 
DOCKED: REMARK   15  A    between atoms: P_18  and  O_21 
DOCKED: REMARK   16  A    between atoms: O_22  and  P_23 
DOCKED: REMARK   17  A    between atoms: P_23  and  O_25 
DOCKED: REMARK   18  A    between atoms: P_23  and  O_26 
DOCKED: REMARK   19  A    between atoms: O_27  and  P_28 
DOCKED: REMARK   20  A    between atoms: P_28  and  O_30 
DOCKED: REMARK   21  A    between atoms: P_28  and  O_31 
DOCKED: REMARK   22  A    between atoms: O_32  and  P_33 
DOCKED: REMARK   23  A    between atoms: P_33  and  O_35 
DOCKED: REMARK   24  A    between atoms: P_33  and  O_36 
DOCKED: USER                              x       y       z     vdW  Elec       q    Type
DOCKED: USER                           _______ _______ _______ _____ _____    ______ ____
DOCKED: ROOT
DOCKED: ATOM      1  C   UNL d   1       6.200 -14.069 -11.182 -0.00 -0.00    +0.194 C 
DOCKED: ATOM      2  C   UNL d   1       7.369 -13.084 -11.131 -0.01 -0.01    +0.194 C 
DOCKED: ATOM      3  C   UNL d   1       6.911 -11.681 -10.728 -0.04 -0.01    +0.194 C 
DOCKED: ATOM      4  C   UNL d   1       6.086 -11.664  -9.444 -0.10 +0.01    +0.194 C 
DOCKED: ATOM      5  C   UNL d   1       4.979 -12.710  -9.403 -0.08 +0.02    +0.194 C 
DOCKED: ATOM      6  C   UNL d   1       5.423 -14.099  -9.865 -0.01 +0.02    +0.194 C 
DOCKED: ENDROOT
DOCKED: BRANCH   1   7
DOCKED: ATOM      7  O   UNL d   1       6.730 -15.380 -11.393 +0.00 +0.00    -0.278 OA
DOCKED: BRANCH   7   8
DOCKED: ATOM      8  P   UNL d   1       7.351 -15.726 -12.824 +0.01 -0.02    +0.473 P 
DOCKED: ATOM      9  O   UNL d   1       7.382 -17.175 -13.165 +0.00 +0.01    -0.228 OA
DOCKED: BRANCH   8  10
DOCKED: ATOM     10  O   UNL d   1       6.481 -14.860 -13.843 -0.01 +0.02    -0.303 OA
DOCKED: ATOM     11  H   UNL d   1       5.545 -15.128 -13.784 +0.02 -0.02    +0.222 HD
DOCKED: ENDBRANCH   8  10
DOCKED: BRANCH   8  12
DOCKED: ATOM     12  O   UNL d   1       8.750 -14.975 -12.860 +0.00 +0.02    -0.303 OA
DOCKED: ATOM     13  H   UNL d   1       9.009 -14.600 -11.988 +0.00 -0.01    +0.222 HD
DOCKED: ENDBRANCH   8  12
DOCKED: ENDBRANCH   7   8
DOCKED: ENDBRANCH   1   7
DOCKED: BRANCH   2  14
DOCKED: ATOM     14  O   UNL d   1       8.327 -13.545 -10.171 +0.00 +0.00    -0.278 OA
DOCKED: BRANCH  14  15
DOCKED: ATOM     15  P   UNL d   1       9.869 -13.278 -10.512 +0.01 -0.02    +0.473 P 
DOCKED: ATOM     16  O   UNL d   1      10.772 -14.471 -10.521 +0.00 +0.01    -0.228 OA
DOCKED: BRANCH  15  17
DOCKED: ATOM     17  O   UNL d   1       9.830 -12.522 -11.914 +0.00 +0.02    -0.303 OA
DOCKED: ATOM     18  H   UNL d   1       9.683 -11.565 -11.794 +0.01 -0.02    +0.222 HD
DOCKED: ENDBRANCH  15  17
DOCKED: BRANCH  15  19
DOCKED: ATOM     19  O   UNL d   1      10.295 -12.103  -9.528 +0.00 +0.01    -0.303 OA
DOCKED: ATOM     20  H   UNL d   1       9.846 -11.266  -9.750 +0.01 -0.01    +0.222 HD
DOCKED: ENDBRANCH  15  19
DOCKED: ENDBRANCH  14  15
DOCKED: ENDBRANCH   2  14
DOCKED: BRANCH   6  21
DOCKED: ATOM     21  O   UNL d   1       4.236 -14.855 -10.098 -0.02 -0.03    -0.278 OA
DOCKED: BRANCH  21  22
DOCKED: ATOM     22  P   UNL d   1       3.345 -14.553 -11.386 -0.05 +0.02    +0.473 P 
DOCKED: ATOM     23  O   UNL d   1       3.285 -13.150 -11.889 -0.16 +0.01    -0.228 OA
DOCKED: BRANCH  22  24
DOCKED: ATOM     24  O   UNL d   1       3.912 -15.613 -12.429 -0.02 +0.00    -0.303 OA
DOCKED: ATOM     25  H   UNL d   1       4.897 -15.512 -12.467 +0.03 -0.00    +0.222 HD
DOCKED: ENDBRANCH  22  24
DOCKED: BRANCH  22  26
DOCKED: ATOM     26  O   UNL d   1       1.943 -15.212 -10.973 -0.23 -0.05    -0.303 OA
DOCKED: ATOM     27  H   UNL d   1       1.872 -15.234  -9.997 +0.04 +0.06    +0.222 HD
DOCKED: ENDBRANCH  22  26
DOCKED: ENDBRANCH  21  22
DOCKED: ENDBRANCH   6  21
DOCKED: BRANCH   3  28
DOCKED: ATOM     28  O   UNL d   1       8.075 -10.917 -10.439 -0.02 +0.02    -0.278 OA
DOCKED: BRANCH  28  29
DOCKED: ATOM     29  P   UNL d   1       8.564  -9.784 -11.447 -0.01 -0.05    +0.473 P 
DOCKED: ATOM     30  O   UNL d   1       8.356 -10.076 -12.889 -0.09 +0.02    -0.228 OA
DOCKED: BRANCH  29  31
DOCKED: ATOM     31  O   UNL d   1       7.790  -8.520 -10.843 -0.04 +0.04    -0.303 OA
DOCKED: ATOM     32  H   UNL d   1       6.845  -8.764 -10.711 +0.07 -0.03    +0.222 HD
DOCKED: ENDBRANCH  29  31
DOCKED: BRANCH  29  33
DOCKED: ATOM     33  O   UNL d   1      10.063  -9.539 -10.971 -0.00 +0.03    -0.303 OA
DOCKED: ATOM     34  H   UNL d   1      10.515 -10.413 -10.869 +0.01 -0.02    +0.222 HD
DOCKED: ENDBRANCH  29  33
DOCKED: ENDBRANCH  28  29
DOCKED: ENDBRANCH   3  28
DOCKED: BRANCH   5  35
DOCKED: ATOM     35  O   UNL d   1       4.604 -12.823  -8.032 -0.09 -0.07    -0.278 OA
DOCKED: BRANCH  35  36
DOCKED: ATOM     36  P   UNL d   1       3.073 -12.695  -7.603 -0.17 +0.17    +0.473 P 
DOCKED: ATOM     37  O   UNL d   1       2.805 -12.779  -6.134 -0.31 -0.18    -0.228 OA
DOCKED: BRANCH  36  38
DOCKED: ATOM     38  O   UNL d   1       2.665 -11.304  -8.264 -0.34 -0.02    -0.303 OA
DOCKED: ATOM     39  H   UNL d   1       3.479 -10.825  -8.532 +0.08 +0.02    +0.222 HD
DOCKED: ENDBRANCH  36  38
DOCKED: BRANCH  36  40
DOCKED: ATOM     40  O   UNL d   1       2.369 -13.780  -8.529 -0.73 -0.15    -0.303 OA
DOCKED: ATOM     41  H   UNL d   1       2.695 -13.735  -9.455 +0.07 +0.06    +0.222 HD
DOCKED: ENDBRANCH  36  40
DOCKED: ENDBRANCH  35  36
DOCKED: ENDBRANCH   5  35
DOCKED: BRANCH   4  42
DOCKED: ATOM     42  O   UNL d   1       5.455 -10.381  -9.373 -0.19 -0.00    -0.278 OA
DOCKED: BRANCH  42  43
DOCKED: ATOM     43  P   UNL d   1       4.672  -9.835 -10.651 -0.23 -0.05    +0.473 P 
DOCKED: ATOM     44  O   UNL d   1       5.382  -9.874 -11.960 -0.60 +0.01    -0.228 OA
DOCKED: BRANCH  43  45
DOCKED: ATOM     45  O   UNL d   1       3.321 -10.675 -10.618 -0.30 +0.03    -0.303 OA
DOCKED: ATOM     46  H   UNL d   1       3.485 -11.606 -10.365 +0.11 -0.00    +0.222 HD
DOCKED: ENDBRANCH  43  45
DOCKED: BRANCH  43  47
DOCKED: ATOM     47  O   UNL d   1       4.167  -8.388 -10.181 -0.26 +0.07    -0.303 OA
DOCKED: ATOM     48  H   UNL d   1       3.188  -8.368 -10.192 -0.44 -0.11    +0.222 HD
DOCKED: ENDBRANCH  43  47
DOCKED: ENDBRANCH  42  43
DOCKED: ENDBRANCH   4  42
DOCKED: TORSDOF 24
DOCKED: TER
DOCKED: ENDMDL
________________________________________________________________________________


	BEGINNING GENETIC ALGORITHM DOCKING 50 of 100
Run: 50 Seed: 2086714804 186557379 [ Run 50 of 100 GA/GALS ]
Beginning LAMARCKIAN GENETIC ALGORITHM (LGA), with a maximum of 25000000 energy evaluations.

Final-Value: -15.843


	FINAL GENETIC ALGORITHM DOCKED STATE
	_______________________________________________


Detailed state:  trans 5.633 0.379 -18.514 quatxyzw -0.289712 -0.421059 0.558811 -0.653074 center 0.035 0.082 -0.065 ntor 24 49.5219 81.2247 -28.1934 28.0356 -8.8273 -151.6411 -88.8224 -20.8866 -61.0094 109.0128 -2.3850 35.5506 -95.8515 178.5196 2.3320 45.1950 5.2615 -62.7893 -139.0700 -7.9913 142.0260 -14.9224 152.5436 34.0969
State:	  5.633   0.379 -18.514  -0.383 -0.556  0.738 -98.452     49.52   81.22  -28.19   28.04   -8.83 -151.64  -88.82  -20.89  -61.01  109.01   -2.39   35.55  -95.85  178.52    2.33   45.20    5.26  -62.79 -139.07   -7.99  142.03  -14.92  152.54   34.10

DOCKED: MODEL       50
DOCKED: USER    Run = 50
DOCKED: USER    DPF = D:/Protein_go_brrr/autodock/final/mut_K82N/IHP/dock.dpf
DOCKED: USER  
DOCKED: USER    Estimated Free Energy of Binding    =   +2.63 kcal/mol  [=(1)+(2)+(3)-(4)]
DOCKED: USER    
DOCKED: USER    (1) Final Intermolecular Energy     =   -4.53 kcal/mol
DOCKED: USER        vdW + Hbond + desolv Energy     =   -3.88 kcal/mol
DOCKED: USER        Electrostatic Energy            =   -0.65 kcal/mol
DOCKED: USER    (2) Final Total Internal Energy     =  -11.32 kcal/mol
DOCKED: USER    (3) Torsional Free Energy           =   +7.16 kcal/mol
DOCKED: USER    (4) Unbound System's Energy  [=(2)] =  -11.32 kcal/mol
DOCKED: USER    
DOCKED: USER    
DOCKED: USER    NEWDPF move IHP_ideal_opt.pdbqt
DOCKED: USER    NEWDPF about 0.035000 0.082000 -0.065000
DOCKED: USER    NEWDPF tran0 5.632998 0.378959 -18.513705
DOCKED: USER    NEWDPF quaternion0 -0.289712 -0.421059 0.558811 -0.653074
DOCKED: USER    NEWDPF axisangle0 -0.382562 -0.556005 0.737905 -98.452398
DOCKED: USER    NEWDPF quat0 -0.382562 -0.556005 0.737905 -98.452398
DOCKED: USER    NEWDPF dihe0 49.52 81.22 -28.19 28.04 -8.83 -151.64 -88.82 -20.89 -61.01 109.01 -2.39 35.55 -95.85 178.52 2.33 45.20 5.26 -62.79 -139.07 -7.99 142.03 -14.92 152.54 34.10 
DOCKED: USER  keepresnum = 1 
DOCKED: USER  
DOCKED: REMARK  24 active torsions:
DOCKED: REMARK  status: ('A' for Active; 'I' for Inactive)
DOCKED: REMARK    1  A    between atoms: C_1  and  O_7 
DOCKED: REMARK    2  A    between atoms: C_2  and  O_12 
DOCKED: REMARK    3  A    between atoms: C_3  and  O_17 
DOCKED: REMARK    4  A    between atoms: C_4  and  O_22 
DOCKED: REMARK    5  A    between atoms: C_5  and  O_27 
DOCKED: REMARK    6  A    between atoms: C_6  and  O_32 
DOCKED: REMARK    7  A    between atoms: O_7  and  P_8 
DOCKED: REMARK    8  A    between atoms: P_8  and  O_10 
DOCKED: REMARK    9  A    between atoms: P_8  and  O_11 
DOCKED: REMARK   10  A    between atoms: O_12  and  P_13 
DOCKED: REMARK   11  A    between atoms: P_13  and  O_15 
DOCKED: REMARK   12  A    between atoms: P_13  and  O_16 
DOCKED: REMARK   13  A    between atoms: O_17  and  P_18 
DOCKED: REMARK   14  A    between atoms: P_18  and  O_20 
DOCKED: REMARK   15  A    between atoms: P_18  and  O_21 
DOCKED: REMARK   16  A    between atoms: O_22  and  P_23 
DOCKED: REMARK   17  A    between atoms: P_23  and  O_25 
DOCKED: REMARK   18  A    between atoms: P_23  and  O_26 
DOCKED: REMARK   19  A    between atoms: O_27  and  P_28 
DOCKED: REMARK   20  A    between atoms: P_28  and  O_30 
DOCKED: REMARK   21  A    between atoms: P_28  and  O_31 
DOCKED: REMARK   22  A    between atoms: O_32  and  P_33 
DOCKED: REMARK   23  A    between atoms: P_33  and  O_35 
DOCKED: REMARK   24  A    between atoms: P_33  and  O_36 
DOCKED: USER                              x       y       z     vdW  Elec       q    Type
DOCKED: USER                           _______ _______ _______ _____ _____    ______ ____
DOCKED: ROOT
DOCKED: ATOM      1  C   UNL d   1       5.400   1.342 -17.099 -0.21 -0.08    +0.194 C 
DOCKED: ATOM      2  C   UNL d   1       6.087  -0.006 -16.875 -0.20 -0.09    +0.194 C 
DOCKED: ATOM      3  C   UNL d   1       5.409  -1.126 -17.668 -0.15 -0.06    +0.194 C 
DOCKED: ATOM      4  C   UNL d   1       5.248  -0.800 -19.150 -0.05 -0.05    +0.194 C 
DOCKED: ATOM      5  C   UNL d   1       4.672   0.584 -19.422 -0.04 -0.05    +0.194 C 
DOCKED: ATOM      6  C   UNL d   1       5.307   1.695 -18.584 -0.06 -0.05    +0.194 C 
DOCKED: ENDROOT
DOCKED: BRANCH   1   7
DOCKED: ATOM      7  O   UNL d   1       6.188   2.354 -16.468 -0.17 +0.17    -0.278 OA
DOCKED: BRANCH   7   8
DOCKED: ATOM      8  P   UNL d   1       7.193   3.206 -17.372 -0.05 -0.21    +0.473 P 
DOCKED: ATOM      9  O   UNL d   1       7.992   2.414 -18.346 -0.03 +0.08    -0.228 OA
DOCKED: BRANCH   8  10
DOCKED: ATOM     10  O   UNL d   1       6.259   4.297 -18.066 -0.04 +0.04    -0.303 OA
DOCKED: ATOM     11  H   UNL d   1       6.158   4.086 -19.013 +0.04 -0.03    +0.222 HD
DOCKED: ENDBRANCH   8  10
DOCKED: BRANCH   8  12
DOCKED: ATOM     12  O   UNL d   1       8.026   4.087 -16.345 -0.08 +0.22    -0.303 OA
DOCKED: ATOM     13  H   UNL d   1       8.217   3.618 -15.501 -0.38 -0.50    +0.222 HD
DOCKED: ENDBRANCH   8  12
DOCKED: ENDBRANCH   7   8
DOCKED: ENDBRANCH   1   7
DOCKED: BRANCH   2  14
DOCKED: ATOM     14  O   UNL d   1       7.453   0.090 -17.296 -0.07 +0.13    -0.278 OA
DOCKED: BRANCH  14  15
DOCKED: ATOM     15  P   UNL d   1       8.566  -0.276 -16.205 -0.08 -0.32    +0.473 P 
DOCKED: ATOM     16  O   UNL d   1       9.624   0.752 -15.953 -0.10 +0.19    -0.228 OA
DOCKED: BRANCH  15  17
DOCKED: ATOM     17  O   UNL d   1       7.726  -0.631 -14.898 -0.20 +0.34    -0.303 OA
DOCKED: ATOM     18  H   UNL d   1       8.001  -0.077 -14.143 -0.29 -0.50    +0.222 HD
DOCKED: ENDBRANCH  15  17
DOCKED: BRANCH  15  19
DOCKED: ATOM     19  O   UNL d   1       9.095  -1.710 -16.644 -0.02 +0.12    -0.303 OA
DOCKED: ATOM     20  H   UNL d   1       8.395  -2.238 -17.070 +0.04 -0.07    +0.222 HD
DOCKED: ENDBRANCH  15  19
DOCKED: ENDBRANCH  14  15
DOCKED: ENDBRANCH   2  14
DOCKED: BRANCH   6  21
DOCKED: ATOM     21  O   UNL d   1       4.453   2.832 -18.691 -0.06 +0.06    -0.278 OA
DOCKED: BRANCH  21  22
DOCKED: ATOM     22  P   UNL d   1       2.870   2.637 -18.678 -0.11 -0.11    +0.473 P 
DOCKED: ATOM     23  O   UNL d   1       2.304   1.520 -17.868 -0.31 +0.07    -0.228 OA
DOCKED: BRANCH  22  24
DOCKED: ATOM     24  O   UNL d   1       2.367   4.087 -18.258 -0.10 +0.09    -0.303 OA
DOCKED: ATOM     25  H   UNL d   1       2.538   4.205 -17.289 -0.44 -0.13    +0.222 HD
DOCKED: ENDBRANCH  22  24
DOCKED: BRANCH  22  26
DOCKED: ATOM     26  O   UNL d   1       2.532   2.610 -20.245 -0.09 +0.06    -0.303 OA
DOCKED: ATOM     27  H   UNL d   1       3.269   2.180 -20.725 +0.04 -0.04    +0.222 HD
DOCKED: ENDBRANCH  22  26
DOCKED: ENDBRANCH  21  22
DOCKED: ENDBRANCH   6  21
DOCKED: BRANCH   3  28
DOCKED: ATOM     28  O   UNL d   1       6.265  -2.261 -17.622 -0.08 +0.09    -0.278 OA
DOCKED: BRANCH  28  29
DOCKED: ATOM     29  P   UNL d   1       6.032  -3.400 -16.534 -0.15 -0.15    +0.473 P 
DOCKED: ATOM     30  O   UNL d   1       4.681  -3.431 -15.917 -0.09 +0.06    -0.228 OA
DOCKED: BRANCH  29  31
DOCKED: ATOM     31  O   UNL d   1       6.475  -4.686 -17.377 -0.12 +0.10    -0.303 OA
DOCKED: ATOM     32  H   UNL d   1       6.178  -4.568 -18.309 +0.05 -0.08    +0.222 HD
DOCKED: ENDBRANCH  29  31
DOCKED: BRANCH  29  33
DOCKED: ATOM     33  O   UNL d   1       7.267  -3.182 -15.552 -0.11 +0.10    -0.303 OA
DOCKED: ATOM     34  H   UNL d   1       7.431  -2.212 -15.454 +0.08 -0.10    +0.222 HD
DOCKED: ENDBRANCH  29  33
DOCKED: ENDBRANCH  28  29
DOCKED: ENDBRANCH   3  28
DOCKED: BRANCH   5  35
DOCKED: ATOM     35  O   UNL d   1       4.970   0.866 -20.788 -0.01 +0.06    -0.278 OA
DOCKED: BRANCH  35  36
DOCKED: ATOM     36  P   UNL d   1       6.443   1.304 -21.216 +0.00 -0.08    +0.473 P 
DOCKED: ATOM     37  O   UNL d   1       7.548   0.435 -20.705 -0.00 +0.04    -0.228 OA
DOCKED: BRANCH  36  38
DOCKED: ATOM     38  O   UNL d   1       6.323   1.345 -22.803 +0.00 +0.04    -0.303 OA
DOCKED: ATOM     39  H   UNL d   1       7.074   0.849 -23.195 +0.00 -0.03    +0.222 HD
DOCKED: ENDBRANCH  36  38
DOCKED: BRANCH  36  40
DOCKED: ATOM     40  O   UNL d   1       6.478   2.837 -20.795 +0.00 +0.05    -0.303 OA
DOCKED: ATOM     41  H   UNL d   1       6.441   2.948 -19.819 +0.02 -0.04    +0.222 HD
DOCKED: ENDBRANCH  36  40
DOCKED: ENDBRANCH  35  36
DOCKED: ENDBRANCH   5  35
DOCKED: BRANCH   4  42
DOCKED: ATOM     42  O   UNL d   1       4.324  -1.753 -19.686 -0.04 +0.08    -0.278 OA
DOCKED: BRANCH  42  43
DOCKED: ATOM     43  P   UNL d   1       4.833  -3.235 -19.988 -0.05 -0.17    +0.473 P 
DOCKED: ATOM     44  O   UNL d   1       6.304  -3.452 -20.070 -0.03 +0.07    -0.228 OA
DOCKED: BRANCH  43  45
DOCKED: ATOM     45  O   UNL d   1       4.110  -4.089 -18.857 -0.11 +0.18    -0.303 OA
DOCKED: ATOM     46  H   UNL d   1       4.537  -3.964 -17.986 -0.07 -0.11    +0.222 HD
DOCKED: ENDBRANCH  43  45
DOCKED: BRANCH  43  47
DOCKED: ATOM     47  O   UNL d   1       3.999  -3.649 -21.293 -0.03 +0.12    -0.303 OA
DOCKED: ATOM     48  H   UNL d   1       3.794  -4.606 -21.254 +0.04 -0.11    +0.222 HD
DOCKED: ENDBRANCH  43  47
DOCKED: ENDBRANCH  42  43
DOCKED: ENDBRANCH   4  42
DOCKED: TORSDOF 24
DOCKED: TER
DOCKED: ENDMDL
________________________________________________________________________________


	BEGINNING GENETIC ALGORITHM DOCKING 51 of 100
Run: 51 Seed: 1812217907 1118828276 [ Run 51 of 100 GA/GALS ]
Beginning LAMARCKIAN GENETIC ALGORITHM (LGA), with a maximum of 25000000 energy evaluations.

Final-Value: -19.816


	FINAL GENETIC ALGORITHM DOCKED STATE
	_______________________________________________


Detailed state:  trans -0.417 18.660 -13.649 quatxyzw 0.129754 -0.680218 0.616871 -0.374082 center 0.035 0.082 -0.065 ntor 24 98.4475 1.0518 151.3720 -1.7213 130.4255 106.5722 3.6048 -125.9085 83.8088 87.9189 99.3879 -129.5985 -24.8860 78.4166 -107.9149 -72.5800 119.5965 95.9669 31.1627 -35.2388 -8.1465 14.4531 -7.6206 6.1643
State:	 -0.417  18.660 -13.649   0.140 -0.733  0.665 -136.065     98.45    1.05  151.37   -1.72  130.43  106.57    3.60 -125.91   83.81   87.92   99.39 -129.60  -24.89   78.42 -107.91  -72.58  119.60   95.97   31.16  -35.24   -8.15   14.45   -7.62    6.16

DOCKED: MODEL       51
DOCKED: USER    Run = 51
DOCKED: USER    DPF = D:/Protein_go_brrr/autodock/final/mut_K82N/IHP/dock.dpf
DOCKED: USER  
DOCKED: USER    Estimated Free Energy of Binding    =   +2.52 kcal/mol  [=(1)+(2)+(3)-(4)]
DOCKED: USER    
DOCKED: USER    (1) Final Intermolecular Energy     =   -4.64 kcal/mol
DOCKED: USER        vdW + Hbond + desolv Energy     =   -4.48 kcal/mol
DOCKED: USER        Electrostatic Energy            =   -0.16 kcal/mol
DOCKED: USER    (2) Final Total Internal Energy     =  -15.18 kcal/mol
DOCKED: USER    (3) Torsional Free Energy           =   +7.16 kcal/mol
DOCKED: USER    (4) Unbound System's Energy  [=(2)] =  -15.18 kcal/mol
DOCKED: USER    
DOCKED: USER    
DOCKED: USER    NEWDPF move IHP_ideal_opt.pdbqt
DOCKED: USER    NEWDPF about 0.035000 0.082000 -0.065000
DOCKED: USER    NEWDPF tran0 -0.417346 18.660076 -13.649320
DOCKED: USER    NEWDPF quaternion0 0.129754 -0.680218 0.616871 -0.374082
DOCKED: USER    NEWDPF axisangle0 0.139912 -0.733472 0.665165 -136.064856
DOCKED: USER    NEWDPF quat0 0.139912 -0.733472 0.665165 -136.064856
DOCKED: USER    NEWDPF dihe0 98.45 1.05 151.37 -1.72 130.43 106.57 3.60 -125.91 83.81 87.92 99.39 -129.60 -24.89 78.42 -107.91 -72.58 119.60 95.97 31.16 -35.24 -8.15 14.45 -7.62 6.16 
DOCKED: USER  keepresnum = 1 
DOCKED: USER  
DOCKED: REMARK  24 active torsions:
DOCKED: REMARK  status: ('A' for Active; 'I' for Inactive)
DOCKED: REMARK    1  A    between atoms: C_1  and  O_7 
DOCKED: REMARK    2  A    between atoms: C_2  and  O_12 
DOCKED: REMARK    3  A    between atoms: C_3  and  O_17 
DOCKED: REMARK    4  A    between atoms: C_4  and  O_22 
DOCKED: REMARK    5  A    between atoms: C_5  and  O_27 
DOCKED: REMARK    6  A    between atoms: C_6  and  O_32 
DOCKED: REMARK    7  A    between atoms: O_7  and  P_8 
DOCKED: REMARK    8  A    between atoms: P_8  and  O_10 
DOCKED: REMARK    9  A    between atoms: P_8  and  O_11 
DOCKED: REMARK   10  A    between atoms: O_12  and  P_13 
DOCKED: REMARK   11  A    between atoms: P_13  and  O_15 
DOCKED: REMARK   12  A    between atoms: P_13  and  O_16 
DOCKED: REMARK   13  A    between atoms: O_17  and  P_18 
DOCKED: REMARK   14  A    between atoms: P_18  and  O_20 
DOCKED: REMARK   15  A    between atoms: P_18  and  O_21 
DOCKED: REMARK   16  A    between atoms: O_22  and  P_23 
DOCKED: REMARK   17  A    between atoms: P_23  and  O_25 
DOCKED: REMARK   18  A    between atoms: P_23  and  O_26 
DOCKED: REMARK   19  A    between atoms: O_27  and  P_28 
DOCKED: REMARK   20  A    between atoms: P_28  and  O_30 
DOCKED: REMARK   21  A    between atoms: P_28  and  O_31 
DOCKED: REMARK   22  A    between atoms: O_32  and  P_33 
DOCKED: REMARK   23  A    between atoms: P_33  and  O_35 
DOCKED: REMARK   24  A    between atoms: P_33  and  O_36 
DOCKED: USER                              x       y       z     vdW  Elec       q    Type
DOCKED: USER                           _______ _______ _______ _____ _____    ______ ____
DOCKED: ROOT
DOCKED: ATOM      1  C   UNL d   1      -0.987  18.094 -12.120 -0.14 -0.06    +0.194 C 
DOCKED: ATOM      2  C   UNL d   1       0.512  17.919 -12.373 -0.18 -0.07    +0.194 C 
DOCKED: ATOM      3  C   UNL d   1       0.791  17.415 -13.791 -0.11 -0.13    +0.194 C 
DOCKED: ATOM      4  C   UNL d   1       0.118  18.257 -14.872 -0.11 -0.14    +0.194 C 
DOCKED: ATOM      5  C   UNL d   1      -1.352  18.553 -14.602 -0.09 -0.13    +0.194 C 
DOCKED: ATOM      6  C   UNL d   1      -1.640  18.998 -13.166 -0.16 -0.07    +0.194 C 
DOCKED: ENDROOT
DOCKED: BRANCH   1   7
DOCKED: ATOM      7  O   UNL d   1      -1.153  18.726 -10.848 -0.22 +0.09    -0.278 OA
DOCKED: BRANCH   7   8
DOCKED: ATOM      8  P   UNL d   1      -1.318  17.800  -9.557 -0.27 -0.18    +0.473 P 
DOCKED: ATOM      9  O   UNL d   1      -0.689  16.455  -9.660 -0.50 +0.08    -0.228 OA
DOCKED: BRANCH   8  10
DOCKED: ATOM     10  O   UNL d   1      -0.721  18.683  -8.369 -0.12 +0.13    -0.303 OA
DOCKED: ATOM     11  H   UNL d   1       0.211  18.898  -8.559 +0.11 -0.07    +0.222 HD
DOCKED: ENDBRANCH   8  10
DOCKED: BRANCH   8  12
DOCKED: ATOM     12  O   UNL d   1      -2.873  17.815  -9.233 -0.47 +0.15    -0.303 OA
DOCKED: ATOM     13  H   UNL d   1      -3.270  18.713  -9.292 -0.45 -0.14    +0.222 HD
DOCKED: ENDBRANCH   8  12
DOCKED: ENDBRANCH   7   8
DOCKED: ENDBRANCH   1   7
DOCKED: BRANCH   2  14
DOCKED: ATOM     14  O   UNL d   1       1.165  19.183 -12.200 -0.04 +0.08    -0.278 OA
DOCKED: BRANCH  14  15
DOCKED: ATOM     15  P   UNL d   1       1.830  19.455 -10.769 -0.04 -0.13    +0.473 P 
DOCKED: ATOM     16  O   UNL d   1       3.216  20.019 -10.768 -0.05 +0.05    -0.228 OA
DOCKED: BRANCH  15  17
DOCKED: ATOM     17  O   UNL d   1       0.780  20.395 -10.027 -0.11 +0.09    -0.303 OA
DOCKED: ATOM     18  H   UNL d   1      -0.105  19.982 -10.000 +0.11 -0.07    +0.222 HD
DOCKED: ENDBRANCH  15  17
DOCKED: BRANCH  15  19
DOCKED: ATOM     19  O   UNL d   1       1.646  18.086  -9.980 -0.20 +0.10    -0.303 OA
DOCKED: ATOM     20  H   UNL d   1       0.705  17.858  -9.868 +0.14 -0.07    +0.222 HD
DOCKED: ENDBRANCH  15  19
DOCKED: ENDBRANCH  14  15
DOCKED: ENDBRANCH   2  14
DOCKED: BRANCH   6  21
DOCKED: ATOM     21  O   UNL d   1      -3.051  18.901 -12.980 -0.18 +0.11    -0.278 OA
DOCKED: BRANCH  21  22
DOCKED: ATOM     22  P   UNL d   1      -3.922  20.229 -12.827 -0.08 -0.13    +0.473 P 
DOCKED: ATOM     23  O   UNL d   1      -3.906  20.935 -11.514 -0.15 +0.05    -0.228 OA
DOCKED: BRANCH  22  24
DOCKED: ATOM     24  O   UNL d   1      -3.410  21.098 -14.059 -0.02 +0.07    -0.303 OA
DOCKED: ATOM     25  H   UNL d   1      -3.659  20.626 -14.894 +0.03 -0.06    +0.222 HD
DOCKED: ENDBRANCH  22  24
DOCKED: BRANCH  22  26
DOCKED: ATOM     26  O   UNL d   1      -5.358  19.737 -13.344 -0.10 +0.07    -0.303 OA
DOCKED: ATOM     27  H   UNL d   1      -5.306  19.544 -14.302 +0.05 -0.05    +0.222 HD
DOCKED: ENDBRANCH  22  26
DOCKED: ENDBRANCH  21  22
DOCKED: ENDBRANCH   6  21
DOCKED: BRANCH   3  28
DOCKED: ATOM     28  O   UNL d   1       2.188  17.548 -14.024 -0.08 +0.12    -0.278 OA
DOCKED: BRANCH  28  29
DOCKED: ATOM     29  P   UNL d   1       3.050  16.290 -14.482 -0.10 -0.20    +0.473 P 
DOCKED: ATOM     30  O   UNL d   1       3.801  15.601 -13.401 -0.18 +0.05    -0.228 OA
DOCKED: BRANCH  29  31
DOCKED: ATOM     31  O   UNL d   1       1.925  15.441 -15.239 -0.07 +0.36    -0.303 OA
DOCKED: ATOM     32  H   UNL d   1       1.518  16.008 -15.934 -0.38 -0.35    +0.222 HD
DOCKED: ENDBRANCH  29  31
DOCKED: BRANCH  29  33
DOCKED: ATOM     33  O   UNL d   1       3.906  16.890 -15.683 -0.02 +0.09    -0.303 OA
DOCKED: ATOM     34  H   UNL d   1       3.298  17.115 -16.429 +0.03 -0.08    +0.222 HD
DOCKED: ENDBRANCH  29  33
DOCKED: ENDBRANCH  28  29
DOCKED: ENDBRANCH   3  28
DOCKED: BRANCH   5  35
DOCKED: ATOM     35  O   UNL d   1      -1.690  19.645 -15.455 -0.06 +0.12    -0.278 OA
DOCKED: BRANCH  35  36
DOCKED: ATOM     36  P   UNL d   1      -2.884  19.507 -16.503 -0.05 -0.22    +0.473 P 
DOCKED: ATOM     37  O   UNL d   1      -3.395  20.792 -17.072 -0.01 +0.06    -0.228 OA
DOCKED: BRANCH  36  38
DOCKED: ATOM     38  O   UNL d   1      -2.259  18.517 -17.582 -0.07 +0.21    -0.303 OA
DOCKED: ATOM     39  H   UNL d   1      -1.448  18.107 -17.210 +0.01 -0.21    +0.222 HD
DOCKED: ENDBRANCH  36  38
DOCKED: BRANCH  36  40
DOCKED: ATOM     40  O   UNL d   1      -3.927  18.602 -15.713 -0.11 +0.18    -0.303 OA
DOCKED: ATOM     41  H   UNL d   1      -4.054  18.915 -14.789 +0.05 -0.10    +0.222 HD
DOCKED: ENDBRANCH  36  40
DOCKED: ENDBRANCH  35  36
DOCKED: ENDBRANCH   5  35
DOCKED: BRANCH   4  42
DOCKED: ATOM     42  O   UNL d   1       0.178  17.499 -16.085 -0.01 +0.36    -0.278 OA
DOCKED: BRANCH  42  43
DOCKED: ATOM     43  P   UNL d   1       1.227  17.924 -17.209 -0.04 -0.30    +0.473 P 
DOCKED: ATOM     44  O   UNL d   1       1.912  16.834 -17.957 -0.05 +0.13    -0.228 OA
DOCKED: BRANCH  43  45
DOCKED: ATOM     45  O   UNL d   1       0.375  18.907 -18.126 -0.02 +0.13    -0.303 OA
DOCKED: ATOM     46  H   UNL d   1      -0.348  19.331 -17.622 +0.02 -0.10    +0.222 HD
DOCKED: ENDBRANCH  43  45
DOCKED: BRANCH  43  47
DOCKED: ATOM     47  O   UNL d   1       2.191  18.949 -16.441 -0.01 +0.11    -0.303 OA
DOCKED: ATOM     48  H   UNL d   1       2.481  18.548 -15.595 +0.02 -0.08    +0.222 HD
DOCKED: ENDBRANCH  43  47
DOCKED: ENDBRANCH  42  43
DOCKED: ENDBRANCH   4  42
DOCKED: TORSDOF 24
DOCKED: TER
DOCKED: ENDMDL
________________________________________________________________________________


	BEGINNING GENETIC ALGORITHM DOCKING 52 of 100
Run: 52 Seed: 1575355739 1103943745 [ Run 52 of 100 GA/GALS ]
Beginning LAMARCKIAN GENETIC ALGORITHM (LGA), with a maximum of 25000000 energy evaluations.

Final-Value: -16.821


	FINAL GENETIC ALGORITHM DOCKED STATE
	_______________________________________________


Detailed state:  trans 11.040 -18.516 3.200 quatxyzw -0.040930 -0.660456 -0.391838 -0.639207 center 0.035 0.082 -0.065 ntor 24 153.4801 -28.8614 159.4832 -8.0011 -1.4805 98.1396 -65.2323 10.8605 82.7929 -41.0771 -132.5829 -174.6708 71.0329 -179.0222 178.0332 145.1440 179.9099 159.5178 46.5197 10.2080 -180.0000 27.7383 20.1937 180.0000
State:	 11.040 -18.516   3.200  -0.053 -0.859 -0.510 -100.535    153.48  -28.86  159.48   -8.00   -1.48   98.14  -65.23   10.86   82.79  -41.08 -132.58 -174.67   71.03 -179.02  178.03  145.14  179.91  159.52   46.52   10.21 -180.00   27.74   20.19  180.00

DOCKED: MODEL       52
DOCKED: USER    Run = 52
DOCKED: USER    DPF = D:/Protein_go_brrr/autodock/final/mut_K82N/IHP/dock.dpf
DOCKED: USER  
DOCKED: USER    Estimated Free Energy of Binding    =   +3.99 kcal/mol  [=(1)+(2)+(3)-(4)]
DOCKED: USER    
DOCKED: USER    (1) Final Intermolecular Energy     =   -3.16 kcal/mol
DOCKED: USER        vdW + Hbond + desolv Energy     =   -3.23 kcal/mol
DOCKED: USER        Electrostatic Energy            =   +0.07 kcal/mol
DOCKED: USER    (2) Final Total Internal Energy     =  -13.66 kcal/mol
DOCKED: USER    (3) Torsional Free Energy           =   +7.16 kcal/mol
DOCKED: USER    (4) Unbound System's Energy  [=(2)] =  -13.66 kcal/mol
DOCKED: USER    
DOCKED: USER    
DOCKED: USER    NEWDPF move IHP_ideal_opt.pdbqt
DOCKED: USER    NEWDPF about 0.035000 0.082000 -0.065000
DOCKED: USER    NEWDPF tran0 11.040133 -18.515719 3.199603
DOCKED: USER    NEWDPF quaternion0 -0.040930 -0.660456 -0.391838 -0.639207
DOCKED: USER    NEWDPF axisangle0 -0.053223 -0.858812 -0.509520 -100.534553
DOCKED: USER    NEWDPF quat0 -0.053223 -0.858812 -0.509520 -100.534553
DOCKED: USER    NEWDPF dihe0 153.48 -28.86 159.48 -8.00 -1.48 98.14 -65.23 10.86 82.79 -41.08 -132.58 -174.67 71.03 -179.02 178.03 145.14 179.91 159.52 46.52 10.21 -180.00 27.74 20.19 180.00 
DOCKED: USER  keepresnum = 1 
DOCKED: USER  
DOCKED: REMARK  24 active torsions:
DOCKED: REMARK  status: ('A' for Active; 'I' for Inactive)
DOCKED: REMARK    1  A    between atoms: C_1  and  O_7 
DOCKED: REMARK    2  A    between atoms: C_2  and  O_12 
DOCKED: REMARK    3  A    between atoms: C_3  and  O_17 
DOCKED: REMARK    4  A    between atoms: C_4  and  O_22 
DOCKED: REMARK    5  A    between atoms: C_5  and  O_27 
DOCKED: REMARK    6  A    between atoms: C_6  and  O_32 
DOCKED: REMARK    7  A    between atoms: O_7  and  P_8 
DOCKED: REMARK    8  A    between atoms: P_8  and  O_10 
DOCKED: REMARK    9  A    between atoms: P_8  and  O_11 
DOCKED: REMARK   10  A    between atoms: O_12  and  P_13 
DOCKED: REMARK   11  A    between atoms: P_13  and  O_15 
DOCKED: REMARK   12  A    between atoms: P_13  and  O_16 
DOCKED: REMARK   13  A    between atoms: O_17  and  P_18 
DOCKED: REMARK   14  A    between atoms: P_18  and  O_20 
DOCKED: REMARK   15  A    between atoms: P_18  and  O_21 
DOCKED: REMARK   16  A    between atoms: O_22  and  P_23 
DOCKED: REMARK   17  A    between atoms: P_23  and  O_25 
DOCKED: REMARK   18  A    between atoms: P_23  and  O_26 
DOCKED: REMARK   19  A    between atoms: O_27  and  P_28 
DOCKED: REMARK   20  A    between atoms: P_28  and  O_30 
DOCKED: REMARK   21  A    between atoms: P_28  and  O_31 
DOCKED: REMARK   22  A    between atoms: O_32  and  P_33 
DOCKED: REMARK   23  A    between atoms: P_33  and  O_35 
DOCKED: REMARK   24  A    between atoms: P_33  and  O_36 
DOCKED: USER                              x       y       z     vdW  Elec       q    Type
DOCKED: USER                           _______ _______ _______ _____ _____    ______ ____
DOCKED: ROOT
DOCKED: ATOM      1  C   UNL d   1       9.680 -19.237   3.983 -0.09 +0.02    +0.194 C 
DOCKED: ATOM      2  C   UNL d   1       9.757 -19.444   2.469 -0.10 +0.02    +0.194 C 
DOCKED: ATOM      3  C   UNL d   1      10.159 -18.159   1.741 -0.10 +0.02    +0.194 C 
DOCKED: ATOM      4  C   UNL d   1      11.427 -17.521   2.303 -0.04 +0.03    +0.194 C 
DOCKED: ATOM      5  C   UNL d   1      11.441 -17.400   3.821 -0.05 +0.04    +0.194 C 
DOCKED: ATOM      6  C   UNL d   1      10.981 -18.666   4.548 -0.04 +0.03    +0.194 C 
DOCKED: ENDROOT
DOCKED: BRANCH   1   7
DOCKED: ATOM      7  O   UNL d   1       9.472 -20.511   4.597 -0.03 -0.01    -0.278 OA
DOCKED: BRANCH   7   8
DOCKED: ATOM      8  P   UNL d   1       8.014 -21.160   4.525 -0.05 +0.01    +0.473 P 
DOCKED: ATOM      9  O   UNL d   1       7.954 -22.508   3.897 -0.03 +0.00    -0.228 OA
DOCKED: BRANCH   8  10
DOCKED: ATOM     10  O   UNL d   1       7.511 -21.150   6.038 -0.05 +0.00    -0.303 OA
DOCKED: ATOM     11  H   UNL d   1       8.225 -20.826   6.618 +0.06 -0.00    +0.222 HD
DOCKED: ENDBRANCH   8  10
DOCKED: BRANCH   8  12
DOCKED: ATOM     12  O   UNL d   1       7.098 -20.044   3.862 -0.11 -0.03    -0.303 OA
DOCKED: ATOM     13  H   UNL d   1       6.891 -19.302   4.473 +0.08 +0.03    +0.222 HD
DOCKED: ENDBRANCH   8  12
DOCKED: ENDBRANCH   7   8
DOCKED: ENDBRANCH   1   7
DOCKED: BRANCH   2  14
DOCKED: ATOM     14  O   UNL d   1      10.734 -20.454   2.185 -0.02 -0.01    -0.278 OA
DOCKED: BRANCH  14  15
DOCKED: ATOM     15  P   UNL d   1      10.390 -21.468   0.995 -0.02 +0.00    +0.473 P 
DOCKED: ATOM     16  O   UNL d   1      10.392 -22.926   1.334 -0.01 +0.00    -0.228 OA
DOCKED: BRANCH  15  17
DOCKED: ATOM     17  O   UNL d   1       8.981 -20.963   0.451 -0.12 +0.00    -0.303 OA
DOCKED: ATOM     18  H   UNL d   1       9.051 -20.064   0.075 +0.02 +0.00    +0.222 HD
DOCKED: ENDBRANCH  15  17
DOCKED: BRANCH  15  19
DOCKED: ATOM     19  O   UNL d   1      11.363 -21.038  -0.187 -0.01 -0.00    -0.303 OA
DOCKED: ATOM     20  H   UNL d   1      11.132 -20.160  -0.542 +0.02 +0.00    +0.222 HD
DOCKED: ENDBRANCH  15  19
DOCKED: ENDBRANCH  14  15
DOCKED: ENDBRANCH   2  14
DOCKED: BRANCH   6  21
DOCKED: ATOM     21  O   UNL d   1      10.723 -18.294   5.900 -0.05 -0.05    -0.278 OA
DOCKED: BRANCH  21  22
DOCKED: ATOM     22  P   UNL d   1       9.373 -17.526   6.265 -0.21 +0.14    +0.473 P 
DOCKED: ATOM     23  O   UNL d   1       9.378 -16.613   7.445 -0.30 -0.06    -0.228 OA
DOCKED: BRANCH  22  24
DOCKED: ATOM     24  O   UNL d   1       9.011 -16.827   4.882 -0.47 -0.14    -0.303 OA
DOCKED: ATOM     25  H   UNL d   1       9.695 -16.135   4.698 +0.03 +0.21    +0.222 HD
DOCKED: ENDBRANCH  22  24
DOCKED: BRANCH  22  26
DOCKED: ATOM     26  O   UNL d   1       8.316 -18.731   6.314 -0.20 -0.01    -0.303 OA
DOCKED: ATOM     27  H   UNL d   1       8.096 -19.003   5.400 +0.09 +0.02    +0.222 HD
DOCKED: ENDBRANCH  22  26
DOCKED: ENDBRANCH  21  22
DOCKED: ENDBRANCH   6  21
DOCKED: BRANCH   3  28
DOCKED: ATOM     28  O   UNL d   1      10.473 -18.508   0.399 -0.07 -0.02    -0.278 OA
DOCKED: BRANCH  28  29
DOCKED: ATOM     29  P   UNL d   1       9.991 -17.585  -0.806 -0.06 +0.04    +0.473 P 
DOCKED: ATOM     30  O   UNL d   1      11.074 -17.006  -1.642 -0.02 -0.01    -0.228 OA
DOCKED: BRANCH  29  31
DOCKED: ATOM     31  O   UNL d   1       8.968 -18.581  -1.529 -0.05 -0.02    -0.303 OA
DOCKED: ATOM     32  H   UNL d   1       9.107 -19.488  -1.170 +0.03 +0.01    +0.222 HD
DOCKED: ENDBRANCH  29  31
DOCKED: BRANCH  29  33
DOCKED: ATOM     33  O   UNL d   1       9.022 -16.557  -0.072 -0.12 -0.05    -0.303 OA
DOCKED: ATOM     34  H   UNL d   1       9.563 -15.956   0.497 +0.06 +0.04    +0.222 HD
DOCKED: ENDBRANCH  29  33
DOCKED: ENDBRANCH  28  29
DOCKED: ENDBRANCH   3  28
DOCKED: BRANCH   5  35
DOCKED: ATOM     35  O   UNL d   1      12.805 -17.183   4.179 -0.01 -0.05    -0.278 OA
DOCKED: BRANCH  35  36
DOCKED: ATOM     36  P   UNL d   1      13.169 -16.349   5.489 -0.02 +0.12    +0.473 P 
DOCKED: ATOM     37  O   UNL d   1      14.264 -15.342   5.328 -0.01 -0.04    -0.228 OA
DOCKED: BRANCH  36  38
DOCKED: ATOM     38  O   UNL d   1      11.758 -15.724   5.881 -0.28 -0.30    -0.303 OA
DOCKED: ATOM     39  H   UNL d   1      11.054 -16.170   5.363 +0.05 +0.20    +0.222 HD
DOCKED: ENDBRANCH  36  38
DOCKED: BRANCH  36  40
DOCKED: ATOM     40  O   UNL d   1      13.394 -17.494   6.569 -0.00 -0.04    -0.303 OA
DOCKED: ATOM     41  H   UNL d   1      12.545 -17.800   6.958 +0.03 +0.03    +0.222 HD
DOCKED: ENDBRANCH  36  40
DOCKED: ENDBRANCH  35  36
DOCKED: ENDBRANCH   5  35
DOCKED: BRANCH   4  42
DOCKED: ATOM     42  O   UNL d   1      11.492 -16.193   1.773 -0.03 -0.04    -0.278 OA
DOCKED: BRANCH  42  43
DOCKED: ATOM     43  P   UNL d   1      10.423 -15.115   2.263 -0.11 +0.14    +0.473 P 
DOCKED: ATOM     44  O   UNL d   1      10.122 -13.980   1.346 -0.12 -0.05    -0.228 OA
DOCKED: BRANCH  43  45
DOCKED: ATOM     45  O   UNL d   1       9.159 -16.014   2.621 -0.22 -0.09    -0.303 OA
DOCKED: ATOM     46  H   UNL d   1       8.589 -15.581   3.288 -0.49 +0.05    +0.222 HD
DOCKED: ENDBRANCH  43  45
DOCKED: BRANCH  43  47
DOCKED: ATOM     47  O   UNL d   1      10.955 -14.706   3.719 -0.01 -0.22    -0.303 OA
DOCKED: ATOM     48  H   UNL d   1      11.807 -15.158   3.889 +0.04 +0.11    +0.222 HD
DOCKED: ENDBRANCH  43  47
DOCKED: ENDBRANCH  42  43
DOCKED: ENDBRANCH   4  42
DOCKED: TORSDOF 24
DOCKED: TER
DOCKED: ENDMDL
________________________________________________________________________________


	BEGINNING GENETIC ALGORITHM DOCKING 53 of 100
Run: 53 Seed: 307197339 1021452038 [ Run 53 of 100 GA/GALS ]
Beginning LAMARCKIAN GENETIC ALGORITHM (LGA), with a maximum of 25000000 energy evaluations.

Final-Value: -18.767


	FINAL GENETIC ALGORITHM DOCKED STATE
	_______________________________________________


Detailed state:  trans -11.260 -12.042 -5.446 quatxyzw -0.395107 0.337038 0.771799 0.366910 center 0.035 0.082 -0.065 ntor 24 171.3914 73.5885 -118.2956 28.1293 27.6948 -130.0356 -111.3541 -34.0042 105.6436 4.0025 -3.4743 -136.6642 141.7871 167.4712 -17.2523 175.1879 57.5731 -30.3306 15.6913 -2.5025 160.4497 -14.5749 -12.0114 152.6671
State:	-11.260 -12.042  -5.446  -0.425  0.362  0.830 136.950    171.39   73.59 -118.30   28.13   27.69 -130.04 -111.35  -34.00  105.64    4.00   -3.47 -136.66  141.79  167.47  -17.25  175.19   57.57  -30.33   15.69   -2.50  160.45  -14.57  -12.01  152.67

DOCKED: MODEL       53
DOCKED: USER    Run = 53
DOCKED: USER    DPF = D:/Protein_go_brrr/autodock/final/mut_K82N/IHP/dock.dpf
DOCKED: USER  
DOCKED: USER    Estimated Free Energy of Binding    =   +1.52 kcal/mol  [=(1)+(2)+(3)-(4)]
DOCKED: USER    
DOCKED: USER    (1) Final Intermolecular Energy     =   -5.64 kcal/mol
DOCKED: USER        vdW + Hbond + desolv Energy     =   -5.42 kcal/mol
DOCKED: USER        Electrostatic Energy            =   -0.22 kcal/mol
DOCKED: USER    (2) Final Total Internal Energy     =  -13.13 kcal/mol
DOCKED: USER    (3) Torsional Free Energy           =   +7.16 kcal/mol
DOCKED: USER    (4) Unbound System's Energy  [=(2)] =  -13.13 kcal/mol
DOCKED: USER    
DOCKED: USER    
DOCKED: USER    NEWDPF move IHP_ideal_opt.pdbqt
DOCKED: USER    NEWDPF about 0.035000 0.082000 -0.065000
DOCKED: USER    NEWDPF tran0 -11.260018 -12.041645 -5.446220
DOCKED: USER    NEWDPF quaternion0 -0.395107 0.337038 0.771799 0.366910
DOCKED: USER    NEWDPF axisangle0 -0.424729 0.362307 0.829662 136.949658
DOCKED: USER    NEWDPF quat0 -0.424729 0.362307 0.829662 136.949658
DOCKED: USER    NEWDPF dihe0 171.39 73.59 -118.30 28.13 27.69 -130.04 -111.35 -34.00 105.64 4.00 -3.47 -136.66 141.79 167.47 -17.25 175.19 57.57 -30.33 15.69 -2.50 160.45 -14.57 -12.01 152.67 
DOCKED: USER  keepresnum = 1 
DOCKED: USER  
DOCKED: REMARK  24 active torsions:
DOCKED: REMARK  status: ('A' for Active; 'I' for Inactive)
DOCKED: REMARK    1  A    between atoms: C_1  and  O_7 
DOCKED: REMARK    2  A    between atoms: C_2  and  O_12 
DOCKED: REMARK    3  A    between atoms: C_3  and  O_17 
DOCKED: REMARK    4  A    between atoms: C_4  and  O_22 
DOCKED: REMARK    5  A    between atoms: C_5  and  O_27 
DOCKED: REMARK    6  A    between atoms: C_6  and  O_32 
DOCKED: REMARK    7  A    between atoms: O_7  and  P_8 
DOCKED: REMARK    8  A    between atoms: P_8  and  O_10 
DOCKED: REMARK    9  A    between atoms: P_8  and  O_11 
DOCKED: REMARK   10  A    between atoms: O_12  and  P_13 
DOCKED: REMARK   11  A    between atoms: P_13  and  O_15 
DOCKED: REMARK   12  A    between atoms: P_13  and  O_16 
DOCKED: REMARK   13  A    between atoms: O_17  and  P_18 
DOCKED: REMARK   14  A    between atoms: P_18  and  O_20 
DOCKED: REMARK   15  A    between atoms: P_18  and  O_21 
DOCKED: REMARK   16  A    between atoms: O_22  and  P_23 
DOCKED: REMARK   17  A    between atoms: P_23  and  O_25 
DOCKED: REMARK   18  A    between atoms: P_23  and  O_26 
DOCKED: REMARK   19  A    between atoms: O_27  and  P_28 
DOCKED: REMARK   20  A    between atoms: P_28  and  O_30 
DOCKED: REMARK   21  A    between atoms: P_28  and  O_31 
DOCKED: REMARK   22  A    between atoms: O_32  and  P_33 
DOCKED: REMARK   23  A    between atoms: P_33  and  O_35 
DOCKED: REMARK   24  A    between atoms: P_33  and  O_36 
DOCKED: USER                              x       y       z     vdW  Elec       q    Type
DOCKED: USER                           _______ _______ _______ _____ _____    ______ ____
DOCKED: ROOT
DOCKED: ATOM      1  C   UNL d   1     -12.729 -12.456  -6.256 -0.04 -0.02    +0.194 C 
DOCKED: ATOM      2  C   UNL d   1     -12.132 -11.097  -6.625 -0.10 -0.04    +0.194 C 
DOCKED: ATOM      3  C   UNL d   1     -11.634 -10.342  -5.390 -0.16 -0.04    +0.194 C 
DOCKED: ATOM      4  C   UNL d   1     -10.692 -11.170  -4.519 -0.10 -0.04    +0.194 C 
DOCKED: ATOM      5  C   UNL d   1     -11.197 -12.576  -4.221 -0.17 -0.03    +0.194 C 
DOCKED: ATOM      6  C   UNL d   1     -11.751 -13.307  -5.445 -0.09 -0.02    +0.194 C 
DOCKED: ENDROOT
DOCKED: BRANCH   1   7
DOCKED: ATOM      7  O   UNL d   1     -13.008 -13.163  -7.466 -0.01 +0.03    -0.278 OA
DOCKED: BRANCH   7   8
DOCKED: ATOM      8  P   UNL d   1     -14.532 -13.319  -7.920 +0.01 -0.04    +0.473 P 
DOCKED: ATOM      9  O   UNL d   1     -14.770 -14.317  -8.998 +0.00 +0.01    -0.228 OA
DOCKED: BRANCH   8  10
DOCKED: ATOM     10  O   UNL d   1     -15.306 -13.660  -6.567 +0.00 +0.02    -0.303 OA
DOCKED: ATOM     11  H   UNL d   1     -14.726 -13.478  -5.804 +0.01 -0.02    +0.222 HD
DOCKED: ENDBRANCH   8  10
DOCKED: BRANCH   8  12
DOCKED: ATOM     12  O   UNL d   1     -15.026 -11.840  -8.222 +0.00 +0.03    -0.303 OA
DOCKED: ATOM     13  H   UNL d   1     -14.300 -11.242  -8.511 +0.02 -0.02    +0.222 HD
DOCKED: ENDBRANCH   8  12
DOCKED: ENDBRANCH   7   8
DOCKED: ENDBRANCH   1   7
DOCKED: BRANCH   2  14
DOCKED: ATOM     14  O   UNL d   1     -11.025 -11.298  -7.513 -0.11 +0.08    -0.278 OA
DOCKED: BRANCH  14  15
DOCKED: ATOM     15  P   UNL d   1     -11.027 -10.441  -8.865 -0.16 -0.11    +0.473 P 
DOCKED: ATOM     16  O   UNL d   1     -10.642 -11.162 -10.119 -0.14 +0.04    -0.228 OA
DOCKED: BRANCH  15  17
DOCKED: ATOM     17  O   UNL d   1     -12.496  -9.827  -8.932 -0.09 +0.06    -0.303 OA
DOCKED: ATOM     18  H   UNL d   1     -12.487  -8.939  -9.337 -0.18 -0.06    +0.222 HD
DOCKED: ENDBRANCH  15  17
DOCKED: BRANCH  15  19
DOCKED: ATOM     19  O   UNL d   1     -10.159  -9.154  -8.520 -0.76 +0.05    -0.303 OA
DOCKED: ATOM     20  H   UNL d   1     -10.244  -8.902  -7.582 +0.01 -0.06    +0.222 HD
DOCKED: ENDBRANCH  15  19
DOCKED: ENDBRANCH  14  15
DOCKED: ENDBRANCH   2  14
DOCKED: BRANCH   6  21
DOCKED: ATOM     21  O   UNL d   1     -12.480 -14.432  -4.958 -0.02 +0.02    -0.278 OA
DOCKED: BRANCH  21  22
DOCKED: ATOM     22  P   UNL d   1     -13.696 -14.211  -3.950 +0.02 -0.03    +0.473 P 
DOCKED: ATOM     23  O   UNL d   1     -14.222 -12.827  -3.772 -0.01 +0.02    -0.228 OA
DOCKED: BRANCH  22  24
DOCKED: ATOM     24  O   UNL d   1     -14.760 -15.265  -4.487 +0.00 +0.02    -0.303 OA
DOCKED: ATOM     25  H   UNL d   1     -14.717 -15.270  -5.477 +0.00 -0.01    +0.222 HD
DOCKED: ENDBRANCH  22  24
DOCKED: BRANCH  22  26
DOCKED: ATOM     26  O   UNL d   1     -13.155 -14.933  -2.624 -0.01 +0.02    -0.303 OA
DOCKED: ATOM     27  H   UNL d   1     -12.294 -14.540  -2.372 +0.05 -0.02    +0.222 HD
DOCKED: ENDBRANCH  22  26
DOCKED: ENDBRANCH  21  22
DOCKED: ENDBRANCH   6  21
DOCKED: BRANCH   3  28
DOCKED: ATOM     28  O   UNL d   1     -10.858  -9.241  -5.844 -0.22 +0.10    -0.278 OA
DOCKED: BRANCH  28  29
DOCKED: ATOM     29  P   UNL d   1     -11.516  -7.798  -5.989 -0.15 -0.11    +0.473 P 
DOCKED: ATOM     30  O   UNL d   1     -10.600  -6.651  -5.765 -0.24 +0.07    -0.228 OA
DOCKED: BRANCH  29  31
DOCKED: ATOM     31  O   UNL d   1     -12.169  -7.933  -7.444 -0.14 +0.03    -0.303 OA
DOCKED: ATOM     32  H   UNL d   1     -11.453  -8.123  -8.093 -0.31 -0.05    +0.222 HD
DOCKED: ENDBRANCH  29  31
DOCKED: BRANCH  29  33
DOCKED: ATOM     33  O   UNL d   1     -12.779  -7.909  -5.025 -0.03 +0.06    -0.303 OA
DOCKED: ATOM     34  H   UNL d   1     -12.600  -8.598  -4.339 +0.06 -0.05    +0.222 HD
DOCKED: ENDBRANCH  29  33
DOCKED: ENDBRANCH  28  29
DOCKED: ENDBRANCH   3  28
DOCKED: BRANCH   5  35
DOCKED: ATOM     35  O   UNL d   1     -10.058 -13.309  -3.774 -0.26 +0.03    -0.278 OA
DOCKED: BRANCH  35  36
DOCKED: ATOM     36  P   UNL d   1     -10.028 -13.933  -2.306 -0.19 -0.03    +0.473 P 
DOCKED: ATOM     37  O   UNL d   1     -10.297 -15.402  -2.223 -0.56 -0.03    -0.228 OA
DOCKED: BRANCH  36  38
DOCKED: ATOM     38  O   UNL d   1      -8.581 -13.502  -1.798 -0.38 +0.06    -0.303 OA
DOCKED: ATOM     39  H   UNL d   1      -8.366 -12.614  -2.157 -0.39 -0.18    +0.222 HD
DOCKED: ENDBRANCH  36  38
DOCKED: BRANCH  36  40
DOCKED: ATOM     40  O   UNL d   1     -11.014 -12.972  -1.509 -0.16 +0.06    -0.303 OA
DOCKED: ATOM     41  H   UNL d   1     -10.923 -12.037  -1.796 +0.08 -0.05    +0.222 HD
DOCKED: ENDBRANCH  36  40
DOCKED: ENDBRANCH  35  36
DOCKED: ENDBRANCH   5  35
DOCKED: BRANCH   4  42
DOCKED: ATOM     42  O   UNL d   1     -10.580 -10.488  -3.265 -0.23 +0.06    -0.278 OA
DOCKED: BRANCH  42  43
DOCKED: ATOM     43  P   UNL d   1     -11.892  -9.859  -2.610 -0.09 -0.11    +0.473 P 
DOCKED: ATOM     44  O   UNL d   1     -13.208 -10.305  -3.145 -0.03 +0.04    -0.228 OA
DOCKED: BRANCH  43  45
DOCKED: ATOM     45  O   UNL d   1     -11.684 -10.155  -1.060 -0.17 +0.10    -0.303 OA
DOCKED: ATOM     46  H   UNL d   1     -11.871 -11.091  -0.846 +0.06 -0.07    +0.222 HD
DOCKED: ENDBRANCH  43  45
DOCKED: BRANCH  43  47
DOCKED: ATOM     47  O   UNL d   1     -11.615  -8.281  -2.680 -0.11 +0.10    -0.303 OA
DOCKED: ATOM     48  H   UNL d   1     -11.224  -8.061  -3.550 +0.07 -0.08    +0.222 HD
DOCKED: ENDBRANCH  43  47
DOCKED: ENDBRANCH  42  43
DOCKED: ENDBRANCH   4  42
DOCKED: TORSDOF 24
DOCKED: TER
DOCKED: ENDMDL
________________________________________________________________________________


	BEGINNING GENETIC ALGORITHM DOCKING 54 of 100
Run: 54 Seed: 1114410275 333071175 [ Run 54 of 100 GA/GALS ]
Beginning LAMARCKIAN GENETIC ALGORITHM (LGA), with a maximum of 25000000 energy evaluations.

Final-Value: -15.155


	FINAL GENETIC ALGORITHM DOCKED STATE
	_______________________________________________


Detailed state:  trans 8.644 20.435 -6.130 quatxyzw 0.114363 0.401916 0.469591 0.777733 center 0.035 0.082 -0.065 ntor 24 95.8881 98.4452 -157.6019 -9.6462 11.6239 -90.7637 -13.3067 -16.7574 -58.3663 114.7290 -174.6379 127.8923 -155.2812 -179.8348 15.6929 144.5240 38.7105 168.2074 2.0719 21.6022 157.7666 31.8364 -171.9772 -170.8201
State:	  8.644  20.435  -6.130   0.182  0.639  0.747 77.893     95.89   98.45 -157.60   -9.65   11.62  -90.76  -13.31  -16.76  -58.37  114.73 -174.64  127.89 -155.28 -179.83   15.69  144.52   38.71  168.21    2.07   21.60  157.77   31.84 -171.98 -170.82

DOCKED: MODEL       54
DOCKED: USER    Run = 54
DOCKED: USER    DPF = D:/Protein_go_brrr/autodock/final/mut_K82N/IHP/dock.dpf
DOCKED: USER  
DOCKED: USER    Estimated Free Energy of Binding    =   +2.69 kcal/mol  [=(1)+(2)+(3)-(4)]
DOCKED: USER    
DOCKED: USER    (1) Final Intermolecular Energy     =   -4.47 kcal/mol
DOCKED: USER        vdW + Hbond + desolv Energy     =   -4.41 kcal/mol
DOCKED: USER        Electrostatic Energy            =   -0.06 kcal/mol
DOCKED: USER    (2) Final Total Internal Energy     =  -10.69 kcal/mol
DOCKED: USER    (3) Torsional Free Energy           =   +7.16 kcal/mol
DOCKED: USER    (4) Unbound System's Energy  [=(2)] =  -10.69 kcal/mol
DOCKED: USER    
DOCKED: USER    
DOCKED: USER    NEWDPF move IHP_ideal_opt.pdbqt
DOCKED: USER    NEWDPF about 0.035000 0.082000 -0.065000
DOCKED: USER    NEWDPF tran0 8.644076 20.434940 -6.129967
DOCKED: USER    NEWDPF quaternion0 0.114363 0.401916 0.469591 0.777733
DOCKED: USER    NEWDPF axisangle0 0.181934 0.639388 0.747049 77.893033
DOCKED: USER    NEWDPF quat0 0.181934 0.639388 0.747049 77.893033
DOCKED: USER    NEWDPF dihe0 95.89 98.45 -157.60 -9.65 11.62 -90.76 -13.31 -16.76 -58.37 114.73 -174.64 127.89 -155.28 -179.83 15.69 144.52 38.71 168.21 2.07 21.60 157.77 31.84 -171.98 -170.82 
DOCKED: USER  keepresnum = 1 
DOCKED: USER  
DOCKED: REMARK  24 active torsions:
DOCKED: REMARK  status: ('A' for Active; 'I' for Inactive)
DOCKED: REMARK    1  A    between atoms: C_1  and  O_7 
DOCKED: REMARK    2  A    between atoms: C_2  and  O_12 
DOCKED: REMARK    3  A    between atoms: C_3  and  O_17 
DOCKED: REMARK    4  A    between atoms: C_4  and  O_22 
DOCKED: REMARK    5  A    between atoms: C_5  and  O_27 
DOCKED: REMARK    6  A    between atoms: C_6  and  O_32 
DOCKED: REMARK    7  A    between atoms: O_7  and  P_8 
DOCKED: REMARK    8  A    between atoms: P_8  and  O_10 
DOCKED: REMARK    9  A    between atoms: P_8  and  O_11 
DOCKED: REMARK   10  A    between atoms: O_12  and  P_13 
DOCKED: REMARK   11  A    between atoms: P_13  and  O_15 
DOCKED: REMARK   12  A    between atoms: P_13  and  O_16 
DOCKED: REMARK   13  A    between atoms: O_17  and  P_18 
DOCKED: REMARK   14  A    between atoms: P_18  and  O_20 
DOCKED: REMARK   15  A    between atoms: P_18  and  O_21 
DOCKED: REMARK   16  A    between atoms: O_22  and  P_23 
DOCKED: REMARK   17  A    between atoms: P_23  and  O_25 
DOCKED: REMARK   18  A    between atoms: P_23  and  O_26 
DOCKED: REMARK   19  A    between atoms: O_27  and  P_28 
DOCKED: REMARK   20  A    between atoms: P_28  and  O_30 
DOCKED: REMARK   21  A    between atoms: P_28  and  O_31 
DOCKED: REMARK   22  A    between atoms: O_32  and  P_33 
DOCKED: REMARK   23  A    between atoms: P_33  and  O_35 
DOCKED: REMARK   24  A    between atoms: P_33  and  O_36 
DOCKED: USER                              x       y       z     vdW  Elec       q    Type
DOCKED: USER                           _______ _______ _______ _____ _____    ______ ____
DOCKED: ROOT
DOCKED: ATOM      1  C   UNL d   1       7.800  19.601  -4.875 -0.21 -0.04    +0.194 C 
DOCKED: ATOM      2  C   UNL d   1       7.035  19.765  -6.189 -0.23 -0.05    +0.194 C 
DOCKED: ATOM      3  C   UNL d   1       7.202  21.170  -6.771 -0.11 -0.06    +0.194 C 
DOCKED: ATOM      4  C   UNL d   1       8.662  21.601  -6.894 -0.06 -0.04    +0.194 C 
DOCKED: ATOM      5  C   UNL d   1       9.491  21.349  -5.641 -0.05 -0.03    +0.194 C 
DOCKED: ATOM      6  C   UNL d   1       9.278  19.965  -5.025 -0.08 -0.03    +0.194 C 
DOCKED: ENDROOT
DOCKED: BRANCH   1   7
DOCKED: ATOM      7  O   UNL d   1       7.737  18.226  -4.490 -0.22 +0.05    -0.278 OA
DOCKED: BRANCH   7   8
DOCKED: ATOM      8  P   UNL d   1       7.071  17.860  -3.085 -0.37 -0.08    +0.473 P 
DOCKED: ATOM      9  O   UNL d   1       8.032  17.516  -2.002 -0.34 +0.04    -0.228 OA
DOCKED: BRANCH   8  10
DOCKED: ATOM     10  O   UNL d   1       6.167  19.129  -2.743 -0.42 +0.06    -0.303 OA
DOCKED: ATOM     11  H   UNL d   1       6.732  19.919  -2.656 +0.10 -0.04    +0.222 HD
DOCKED: ENDBRANCH   8  10
DOCKED: BRANCH   8  12
DOCKED: ATOM     12  O   UNL d   1       5.979  16.755  -3.420 -0.39 +0.07    -0.303 OA
DOCKED: ATOM     13  H   UNL d   1       6.343  15.994  -3.926 -0.39 -0.09    +0.222 HD
DOCKED: ENDBRANCH   8  12
DOCKED: ENDBRANCH   7   8
DOCKED: ENDBRANCH   1   7
DOCKED: BRANCH   2  14
DOCKED: ATOM     14  O   UNL d   1       7.533  18.815  -7.140 -0.14 +0.05    -0.278 OA
DOCKED: BRANCH  14  15
DOCKED: ATOM     15  P   UNL d   1       6.516  18.347  -8.284 -0.15 -0.13    +0.473 P 
DOCKED: ATOM     16  O   UNL d   1       6.277  16.874  -8.409 -0.27 +0.07    -0.228 OA
DOCKED: BRANCH  15  17
DOCKED: ATOM     17  O   UNL d   1       5.183  19.164  -7.976 -0.19 +0.14    -0.303 OA
DOCKED: ATOM     18  H   UNL d   1       5.052  19.881  -8.627 +0.06 -0.07    +0.222 HD
DOCKED: ENDBRANCH  15  17
DOCKED: BRANCH  15  19
DOCKED: ATOM     19  O   UNL d   1       7.038  19.071  -9.601 -0.05 +0.05    -0.303 OA
DOCKED: ATOM     20  H   UNL d   1       6.896  20.035  -9.562 +0.04 -0.04    +0.222 HD
DOCKED: ENDBRANCH  15  19
DOCKED: ENDBRANCH  14  15
DOCKED: ENDBRANCH   2  14
DOCKED: BRANCH   6  21
DOCKED: ATOM     21  O   UNL d   1       9.833  20.008  -3.713 -0.05 +0.04    -0.278 OA
DOCKED: BRANCH  21  22
DOCKED: ATOM     22  P   UNL d   1       9.343  21.122  -2.681 -0.09 -0.05    +0.473 P 
DOCKED: ATOM     23  O   UNL d   1       7.878  21.367  -2.552 -0.23 +0.03    -0.228 OA
DOCKED: BRANCH  22  24
DOCKED: ATOM     24  O   UNL d   1      10.064  20.662  -1.339 -0.08 +0.02    -0.303 OA
DOCKED: ATOM     25  H   UNL d   1       9.820  19.718  -1.166 +0.06 -0.01    +0.222 HD
DOCKED: ENDBRANCH  22  24
DOCKED: BRANCH  22  26
DOCKED: ATOM     26  O   UNL d   1      10.231  22.383  -3.119 -0.03 +0.04    -0.303 OA
DOCKED: ATOM     27  H   UNL d   1       9.716  22.940  -3.738 +0.04 -0.03    +0.222 HD
DOCKED: ENDBRANCH  22  26
DOCKED: ENDBRANCH  21  22
DOCKED: ENDBRANCH   6  21
DOCKED: BRANCH   3  28
DOCKED: ATOM     28  O   UNL d   1       6.702  21.145  -8.102 -0.09 +0.06    -0.278 OA
DOCKED: BRANCH  28  29
DOCKED: ATOM     29  P   UNL d   1       5.904  22.394  -8.684 -0.07 -0.08    +0.473 P 
DOCKED: ATOM     30  O   UNL d   1       6.520  23.054  -9.865 -0.02 +0.03    -0.228 OA
DOCKED: BRANCH  29  31
DOCKED: ATOM     31  O   UNL d   1       4.462  21.732  -8.893 -0.12 +0.05    -0.303 OA
DOCKED: ATOM     32  H   UNL d   1       4.286  21.120  -8.141 +0.07 -0.05    +0.222 HD
DOCKED: ENDBRANCH  29  31
DOCKED: BRANCH  29  33
DOCKED: ATOM     33  O   UNL d   1       5.694  23.292  -7.386 -0.09 +0.06    -0.303 OA
DOCKED: ATOM     34  H   UNL d   1       6.531  23.297  -6.860 -0.11 -0.07    +0.222 HD
DOCKED: ENDBRANCH  29  33
DOCKED: ENDBRANCH  28  29
DOCKED: ENDBRANCH   3  28
DOCKED: BRANCH   5  35
DOCKED: ATOM     35  O   UNL d   1      10.853  21.417  -6.059 -0.01 +0.03    -0.278 OA
DOCKED: BRANCH  35  36
DOCKED: ATOM     36  P   UNL d   1      11.306  20.753  -7.437 -0.00 -0.04    +0.473 P 
DOCKED: ATOM     37  O   UNL d   1      11.084  21.587  -8.658 -0.00 +0.02    -0.228 OA
DOCKED: BRANCH  36  38
DOCKED: ATOM     38  O   UNL d   1      12.835  20.412  -7.146 -0.00 +0.02    -0.303 OA
DOCKED: ATOM     39  H   UNL d   1      13.388  20.777  -7.870 +0.00 -0.02    +0.222 HD
DOCKED: ENDBRANCH  36  38
DOCKED: BRANCH  36  40
DOCKED: ATOM     40  O   UNL d   1      10.582  19.338  -7.386 -0.03 +0.03    -0.303 OA
DOCKED: ATOM     41  H   UNL d   1       9.614  19.419  -7.534 +0.04 -0.02    +0.222 HD
DOCKED: ENDBRANCH  36  40
DOCKED: ENDBRANCH  35  36
DOCKED: ENDBRANCH   5  35
DOCKED: BRANCH   4  42
DOCKED: ATOM     42  O   UNL d   1       8.659  23.014  -7.121 -0.03 +0.05    -0.278 OA
DOCKED: BRANCH  42  43
DOCKED: ATOM     43  P   UNL d   1       8.420  23.993  -5.884 -0.05 -0.10    +0.473 P 
DOCKED: ATOM     44  O   UNL d   1       7.678  25.259  -6.143 -0.06 +0.04    -0.228 OA
DOCKED: BRANCH  43  45
DOCKED: ATOM     45  O   UNL d   1       7.727  23.040  -4.814 -0.01 +0.13    -0.303 OA
DOCKED: ATOM     46  H   UNL d   1       8.309  22.886  -4.043 -0.01 -0.06    +0.222 HD
DOCKED: ENDBRANCH  43  45
DOCKED: BRANCH  43  47
DOCKED: ATOM     47  O   UNL d   1       9.888  24.166  -5.264 -0.01 +0.04    -0.303 OA
DOCKED: ATOM     48  H   UNL d   1      10.272  23.281  -5.091 +0.02 -0.03    +0.222 HD
DOCKED: ENDBRANCH  43  47
DOCKED: ENDBRANCH  42  43
DOCKED: ENDBRANCH   4  42
DOCKED: TORSDOF 24
DOCKED: TER
DOCKED: ENDMDL
________________________________________________________________________________


	BEGINNING GENETIC ALGORITHM DOCKING 55 of 100
Run: 55 Seed: 813490564 1485611944 [ Run 55 of 100 GA/GALS ]
Beginning LAMARCKIAN GENETIC ALGORITHM (LGA), with a maximum of 25000000 energy evaluations.

Final-Value: -19.684


	FINAL GENETIC ALGORITHM DOCKED STATE
	_______________________________________________


Detailed state:  trans -9.987 10.311 -7.970 quatxyzw -0.105078 -0.588663 -0.468529 0.650319 center 0.035 0.082 -0.065 ntor 24 47.7117 98.5462 127.3906 20.8562 83.1079 175.3341 -110.1860 45.6053 83.0352 93.6813 7.0829 -78.7915 -88.0869 -116.5748 177.3240 77.0794 44.1369 -93.7606 -133.8442 -5.8465 29.3146 152.0480 -173.8957 -114.7056
State:	 -9.987  10.311  -7.970  -0.138 -0.775 -0.617 98.869     47.71   98.55  127.39   20.86   83.11  175.33 -110.19   45.61   83.04   93.68    7.08  -78.79  -88.09 -116.57  177.32   77.08   44.14  -93.76 -133.84   -5.85   29.31  152.05 -173.90 -114.71

DOCKED: MODEL       55
DOCKED: USER    Run = 55
DOCKED: USER    DPF = D:/Protein_go_brrr/autodock/final/mut_K82N/IHP/dock.dpf
DOCKED: USER  
DOCKED: USER    Estimated Free Energy of Binding    =   +1.02 kcal/mol  [=(1)+(2)+(3)-(4)]
DOCKED: USER    
DOCKED: USER    (1) Final Intermolecular Energy     =   -6.13 kcal/mol
DOCKED: USER        vdW + Hbond + desolv Energy     =   -5.70 kcal/mol
DOCKED: USER        Electrostatic Energy            =   -0.44 kcal/mol
DOCKED: USER    (2) Final Total Internal Energy     =  -13.55 kcal/mol
DOCKED: USER    (3) Torsional Free Energy           =   +7.16 kcal/mol
DOCKED: USER    (4) Unbound System's Energy  [=(2)] =  -13.55 kcal/mol
DOCKED: USER    
DOCKED: USER    
DOCKED: USER    NEWDPF move IHP_ideal_opt.pdbqt
DOCKED: USER    NEWDPF about 0.035000 0.082000 -0.065000
DOCKED: USER    NEWDPF tran0 -9.986624 10.310624 -7.970492
DOCKED: USER    NEWDPF quaternion0 -0.105078 -0.588663 -0.468529 0.650319
DOCKED: USER    NEWDPF axisangle0 -0.138322 -0.774902 -0.616761 98.868728
DOCKED: USER    NEWDPF quat0 -0.138322 -0.774902 -0.616761 98.868728
DOCKED: USER    NEWDPF dihe0 47.71 98.55 127.39 20.86 83.11 175.33 -110.19 45.61 83.04 93.68 7.08 -78.79 -88.09 -116.57 177.32 77.08 44.14 -93.76 -133.84 -5.85 29.31 152.05 -173.90 -114.71 
DOCKED: USER  keepresnum = 1 
DOCKED: USER  
DOCKED: REMARK  24 active torsions:
DOCKED: REMARK  status: ('A' for Active; 'I' for Inactive)
DOCKED: REMARK    1  A    between atoms: C_1  and  O_7 
DOCKED: REMARK    2  A    between atoms: C_2  and  O_12 
DOCKED: REMARK    3  A    between atoms: C_3  and  O_17 
DOCKED: REMARK    4  A    between atoms: C_4  and  O_22 
DOCKED: REMARK    5  A    between atoms: C_5  and  O_27 
DOCKED: REMARK    6  A    between atoms: C_6  and  O_32 
DOCKED: REMARK    7  A    between atoms: O_7  and  P_8 
DOCKED: REMARK    8  A    between atoms: P_8  and  O_10 
DOCKED: REMARK    9  A    between atoms: P_8  and  O_11 
DOCKED: REMARK   10  A    between atoms: O_12  and  P_13 
DOCKED: REMARK   11  A    between atoms: P_13  and  O_15 
DOCKED: REMARK   12  A    between atoms: P_13  and  O_16 
DOCKED: REMARK   13  A    between atoms: O_17  and  P_18 
DOCKED: REMARK   14  A    between atoms: P_18  and  O_20 
DOCKED: REMARK   15  A    between atoms: P_18  and  O_21 
DOCKED: REMARK   16  A    between atoms: O_22  and  P_23 
DOCKED: REMARK   17  A    between atoms: P_23  and  O_25 
DOCKED: REMARK   18  A    between atoms: P_23  and  O_26 
DOCKED: REMARK   19  A    between atoms: O_27  and  P_28 
DOCKED: REMARK   20  A    between atoms: P_28  and  O_30 
DOCKED: REMARK   21  A    between atoms: P_28  and  O_31 
DOCKED: REMARK   22  A    between atoms: O_32  and  P_33 
DOCKED: REMARK   23  A    between atoms: P_33  and  O_35 
DOCKED: REMARK   24  A    between atoms: P_33  and  O_36 
DOCKED: USER                              x       y       z     vdW  Elec       q    Type
DOCKED: USER                           _______ _______ _______ _____ _____    ______ ____
DOCKED: ROOT
DOCKED: ATOM      1  C   UNL d   1      -9.037  11.079  -9.192 -0.10 +0.05    +0.194 C 
DOCKED: ATOM      2  C   UNL d   1      -8.801   9.578  -9.018 -0.15 +0.03    +0.194 C 
DOCKED: ATOM      3  C   UNL d   1      -8.732   9.182  -7.542 -0.21 +0.05    +0.194 C 
DOCKED: ATOM      4  C   UNL d   1      -9.928   9.676  -6.731 -0.18 +0.06    +0.194 C 
DOCKED: ATOM      5  C   UNL d   1     -10.271  11.142  -6.961 -0.17 +0.05    +0.194 C 
DOCKED: ATOM      6  C   UNL d   1     -10.279  11.552  -8.435 -0.15 +0.05    +0.194 C 
DOCKED: ENDROOT
DOCKED: BRANCH   1   7
DOCKED: ATOM      7  O   UNL d   1      -9.260  11.337 -10.581 -0.56 -0.14    -0.278 OA
DOCKED: BRANCH   7   8
DOCKED: ATOM      8  P   UNL d   1     -10.756  11.606 -11.072 -0.03 +0.12    +0.473 P 
DOCKED: ATOM      9  O   UNL d   1     -11.802  10.804 -10.380 -0.01 -0.04    -0.228 OA
DOCKED: BRANCH   8  10
DOCKED: ATOM     10  O   UNL d   1     -10.947  13.179 -10.888 -0.09 -0.10    -0.303 OA
DOCKED: ATOM     11  H   UNL d   1     -11.569  13.350 -10.156 +0.04 +0.08    +0.222 HD
DOCKED: ENDBRANCH   8  10
DOCKED: BRANCH   8  12
DOCKED: ATOM     12  O   UNL d   1     -10.704  11.460 -12.653 -0.03 -0.04    -0.303 OA
DOCKED: ATOM     13  H   UNL d   1     -10.310  10.609 -12.949 +0.02 +0.02    +0.222 HD
DOCKED: ENDBRANCH   8  12
DOCKED: ENDBRANCH   7   8
DOCKED: ENDBRANCH   1   7
DOCKED: BRANCH   2  14
DOCKED: ATOM     14  O   UNL d   1      -9.879   8.861  -9.633 -0.03 -0.06    -0.278 OA
DOCKED: BRANCH  14  15
DOCKED: ATOM     15  P   UNL d   1      -9.476   7.755 -10.719 -0.02 +0.08    +0.473 P 
DOCKED: ATOM     16  O   UNL d   1      -8.737   8.238 -11.928 -0.07 -0.02    -0.228 OA
DOCKED: BRANCH  15  17
DOCKED: ATOM     17  O   UNL d   1      -8.654   6.674  -9.884 -0.08 -0.07    -0.303 OA
DOCKED: ATOM     18  H   UNL d   1      -8.978   6.619  -8.965 +0.07 +0.08    +0.222 HD
DOCKED: ENDBRANCH  15  17
DOCKED: BRANCH  15  19
DOCKED: ATOM     19  O   UNL d   1     -10.830   6.972 -11.009 -0.02 -0.07    -0.303 OA
DOCKED: ATOM     20  H   UNL d   1     -11.353   6.843 -10.196 +0.03 +0.07    +0.222 HD
DOCKED: ENDBRANCH  15  19
DOCKED: ENDBRANCH  14  15
DOCKED: ENDBRANCH   2  14
DOCKED: BRANCH   6  21
DOCKED: ATOM     21  O   UNL d   1     -10.270  12.978  -8.467 -0.21 -0.12    -0.278 OA
DOCKED: BRANCH  21  22
DOCKED: ATOM     22  P   UNL d   1     -11.587  13.786  -8.071 -0.13 +0.28    +0.473 P 
DOCKED: ATOM     23  O   UNL d   1     -11.792  15.137  -8.671 -0.25 -0.23    -0.228 OA
DOCKED: BRANCH  22  24
DOCKED: ATOM     24  O   UNL d   1     -12.730  12.730  -8.402 -0.02 -0.09    -0.303 OA
DOCKED: ATOM     25  H   UNL d   1     -12.310  11.835  -8.477 +0.04 +0.06    +0.222 HD
DOCKED: ENDBRANCH  22  24
DOCKED: BRANCH  22  26
DOCKED: ATOM     26  O   UNL d   1     -11.536  13.728  -6.470 -0.15 -0.18    -0.303 OA
DOCKED: ATOM     27  H   UNL d   1     -10.730  13.248  -6.191 +0.08 +0.12    +0.222 HD
DOCKED: ENDBRANCH  22  26
DOCKED: ENDBRANCH  21  22
DOCKED: ENDBRANCH   6  21
DOCKED: BRANCH   3  28
DOCKED: ATOM     28  O   UNL d   1      -8.791   7.763  -7.475 -0.18 -0.11    -0.278 OA
DOCKED: BRANCH  28  29
DOCKED: ATOM     29  P   UNL d   1     -10.174   7.029  -7.183 -0.11 +0.38    +0.473 P 
DOCKED: ATOM     30  O   UNL d   1     -11.312   7.439  -8.045 -0.05 -0.13    -0.228 OA
DOCKED: BRANCH  29  31
DOCKED: ATOM     31  O   UNL d   1      -9.704   5.502  -7.278 -0.64 -0.47    -0.303 OA
DOCKED: ATOM     32  H   UNL d   1      -9.321   5.346  -8.172 +0.07 +0.19    +0.222 HD
DOCKED: ENDBRANCH  29  31
DOCKED: BRANCH  29  33
DOCKED: ATOM     33  O   UNL d   1     -10.344   7.247  -5.615 -0.57 -0.29    -0.303 OA
DOCKED: ATOM     34  H   UNL d   1     -11.027   7.945  -5.460 +0.07 +0.15    +0.222 HD
DOCKED: ENDBRANCH  29  33
DOCKED: ENDBRANCH  28  29
DOCKED: ENDBRANCH   3  28
DOCKED: BRANCH   5  35
DOCKED: ATOM     35  O   UNL d   1     -11.600  11.311  -6.472 -0.05 -0.08    -0.278 OA
DOCKED: BRANCH  35  36
DOCKED: ATOM     36  P   UNL d   1     -12.720  10.222  -6.795 +0.02 +0.12    +0.473 P 
DOCKED: ATOM     37  O   UNL d   1     -12.821   9.091  -5.821 -0.02 -0.08    -0.228 OA
DOCKED: BRANCH  36  38
DOCKED: ATOM     38  O   UNL d   1     -14.031  11.121  -6.891 +0.00 -0.06    -0.303 OA
DOCKED: ATOM     39  H   UNL d   1     -13.769  12.066  -6.938 +0.02 +0.05    +0.222 HD
DOCKED: ENDBRANCH  36  38
DOCKED: BRANCH  36  40
DOCKED: ATOM     40  O   UNL d   1     -12.402   9.846  -8.307 -0.00 -0.07    -0.303 OA
DOCKED: ATOM     41  H   UNL d   1     -11.458   9.601  -8.431 +0.04 +0.06    +0.222 HD
DOCKED: ENDBRANCH  36  40
DOCKED: ENDBRANCH  35  36
DOCKED: ENDBRANCH   5  35
DOCKED: BRANCH   4  42
DOCKED: ATOM     42  O   UNL d   1      -9.577   9.538  -5.349 -0.49 -0.10    -0.278 OA
DOCKED: BRANCH  42  43
DOCKED: ATOM     43  P   UNL d   1      -9.877  10.748  -4.353 -0.30 +0.11    +0.473 P 
DOCKED: ATOM     44  O   UNL d   1      -9.456  12.111  -4.782 -0.40 -0.07    -0.228 OA
DOCKED: BRANCH  43  45
DOCKED: ATOM     45  O   UNL d   1     -11.439  10.602  -4.087 -0.10 -0.08    -0.303 OA
DOCKED: ATOM     46  H   UNL d   1     -11.957  10.770  -4.900 +0.08 +0.06    +0.222 HD
DOCKED: ENDBRANCH  43  45
DOCKED: BRANCH  43  47
DOCKED: ATOM     47  O   UNL d   1      -9.261  10.238  -2.964 -0.28 -0.04    -0.303 OA
DOCKED: ATOM     48  H   UNL d   1      -8.383  10.652  -2.829 -0.41 -0.02    +0.222 HD
DOCKED: ENDBRANCH  43  47
DOCKED: ENDBRANCH  42  43
DOCKED: ENDBRANCH   4  42
DOCKED: TORSDOF 24
DOCKED: TER
DOCKED: ENDMDL
________________________________________________________________________________


	BEGINNING GENETIC ALGORITHM DOCKING 56 of 100
Run: 56 Seed: 433766982 1644701781 [ Run 56 of 100 GA/GALS ]
Beginning LAMARCKIAN GENETIC ALGORITHM (LGA), with a maximum of 25000000 energy evaluations.

Final-Value: -19.287


	FINAL GENETIC ALGORITHM DOCKED STATE
	_______________________________________________


Detailed state:  trans 9.461 18.505 -5.718 quatxyzw 0.123203 0.738784 -0.661573 0.036612 center 0.035 0.082 -0.065 ntor 24 -180.0000 91.5391 173.8461 -31.6327 180.0000 -98.7636 -72.5959 -25.5157 121.1785 -18.3344 119.2390 165.7671 -100.9579 178.4513 11.4709 -147.9397 68.0204 50.6873 54.1549 13.2666 -35.9178 6.1488 -25.4194 -6.8886
State:	  9.461  18.505  -5.718   0.123  0.739 -0.662 175.804   -180.00   91.54  173.85  -31.63  180.00  -98.76  -72.60  -25.52  121.18  -18.33  119.24  165.77 -100.96  178.45   11.47 -147.94   68.02   50.69   54.15   13.27  -35.92    6.15  -25.42   -6.89

DOCKED: MODEL       56
DOCKED: USER    Run = 56
DOCKED: USER    DPF = D:/Protein_go_brrr/autodock/final/mut_K82N/IHP/dock.dpf
DOCKED: USER  
DOCKED: USER    Estimated Free Energy of Binding    =   +0.99 kcal/mol  [=(1)+(2)+(3)-(4)]
DOCKED: USER    
DOCKED: USER    (1) Final Intermolecular Energy     =   -6.17 kcal/mol
DOCKED: USER        vdW + Hbond + desolv Energy     =   -6.03 kcal/mol
DOCKED: USER        Electrostatic Energy            =   -0.13 kcal/mol
DOCKED: USER    (2) Final Total Internal Energy     =  -13.12 kcal/mol
DOCKED: USER    (3) Torsional Free Energy           =   +7.16 kcal/mol
DOCKED: USER    (4) Unbound System's Energy  [=(2)] =  -13.12 kcal/mol
DOCKED: USER    
DOCKED: USER    
DOCKED: USER    NEWDPF move IHP_ideal_opt.pdbqt
DOCKED: USER    NEWDPF about 0.035000 0.082000 -0.065000
DOCKED: USER    NEWDPF tran0 9.461491 18.504882 -5.718022
DOCKED: USER    NEWDPF quaternion0 0.123203 0.738784 -0.661573 0.036612
DOCKED: USER    NEWDPF axisangle0 0.123285 0.739280 -0.662017 175.803681
DOCKED: USER    NEWDPF quat0 0.123285 0.739280 -0.662017 175.803681
DOCKED: USER    NEWDPF dihe0 -180.00 91.54 173.85 -31.63 180.00 -98.76 -72.60 -25.52 121.18 -18.33 119.24 165.77 -100.96 178.45 11.47 -147.94 68.02 50.69 54.15 13.27 -35.92 6.15 -25.42 -6.89 
DOCKED: USER  keepresnum = 1 
DOCKED: USER  
DOCKED: REMARK  24 active torsions:
DOCKED: REMARK  status: ('A' for Active; 'I' for Inactive)
DOCKED: REMARK    1  A    between atoms: C_1  and  O_7 
DOCKED: REMARK    2  A    between atoms: C_2  and  O_12 
DOCKED: REMARK    3  A    between atoms: C_3  and  O_17 
DOCKED: REMARK    4  A    between atoms: C_4  and  O_22 
DOCKED: REMARK    5  A    between atoms: C_5  and  O_27 
DOCKED: REMARK    6  A    between atoms: C_6  and  O_32 
DOCKED: REMARK    7  A    between atoms: O_7  and  P_8 
DOCKED: REMARK    8  A    between atoms: P_8  and  O_10 
DOCKED: REMARK    9  A    between atoms: P_8  and  O_11 
DOCKED: REMARK   10  A    between atoms: O_12  and  P_13 
DOCKED: REMARK   11  A    between atoms: P_13  and  O_15 
DOCKED: REMARK   12  A    between atoms: P_13  and  O_16 
DOCKED: REMARK   13  A    between atoms: O_17  and  P_18 
DOCKED: REMARK   14  A    between atoms: P_18  and  O_20 
DOCKED: REMARK   15  A    between atoms: P_18  and  O_21 
DOCKED: REMARK   16  A    between atoms: O_22  and  P_23 
DOCKED: REMARK   17  A    between atoms: P_23  and  O_25 
DOCKED: REMARK   18  A    between atoms: P_23  and  O_26 
DOCKED: REMARK   19  A    between atoms: O_27  and  P_28 
DOCKED: REMARK   20  A    between atoms: P_28  and  O_30 
DOCKED: REMARK   21  A    between atoms: P_28  and  O_31 
DOCKED: REMARK   22  A    between atoms: O_32  and  P_33 
DOCKED: REMARK   23  A    between atoms: P_33  and  O_35 
DOCKED: REMARK   24  A    between atoms: P_33  and  O_36 
DOCKED: USER                              x       y       z     vdW  Elec       q    Type
DOCKED: USER                           _______ _______ _______ _____ _____    ______ ____
DOCKED: ROOT
DOCKED: ATOM      1  C   UNL d   1       7.960  17.944  -5.075 -0.24 -0.03    +0.194 C 
DOCKED: ATOM      2  C   UNL d   1       9.139  17.938  -4.101 -0.21 -0.03    +0.194 C 
DOCKED: ATOM      3  C   UNL d   1      10.415  17.408  -4.759 -0.14 -0.02    +0.194 C 
DOCKED: ATOM      4  C   UNL d   1      10.752  18.114  -6.070 -0.09 -0.02    +0.194 C 
DOCKED: ATOM      5  C   UNL d   1       9.574  18.245  -7.026 -0.07 -0.01    +0.194 C 
DOCKED: ATOM      6  C   UNL d   1       8.281  18.715  -6.355 -0.16 -0.03    +0.194 C 
DOCKED: ENDROOT
DOCKED: BRANCH   1   7
DOCKED: ATOM      7  O   UNL d   1       6.862  18.607  -4.442 -0.39 +0.06    -0.278 OA
DOCKED: BRANCH   7   8
DOCKED: ATOM      8  P   UNL d   1       6.161  17.894  -3.197 -0.43 -0.09    +0.473 P 
DOCKED: ATOM      9  O   UNL d   1       5.792  16.468  -3.411 -0.32 +0.05    -0.228 OA
DOCKED: BRANCH   8  10
DOCKED: ATOM     10  O   UNL d   1       7.194  18.103  -1.999 -0.37 +0.03    -0.303 OA
DOCKED: ATOM     11  H   UNL d   1       7.773  18.863  -2.196 +0.11 -0.02    +0.222 HD
DOCKED: ENDBRANCH   8  10
DOCKED: BRANCH   8  12
DOCKED: ATOM     12  O   UNL d   1       4.972  18.863  -2.782 -0.40 +0.10    -0.303 OA
DOCKED: ATOM     13  H   UNL d   1       4.440  19.172  -3.551 -0.22 -0.14    +0.222 HD
DOCKED: ENDBRANCH   8  12
DOCKED: ENDBRANCH   7   8
DOCKED: ENDBRANCH   1   7
DOCKED: BRANCH   2  14
DOCKED: ATOM     14  O   UNL d   1       9.379  19.277  -3.650 -0.08 +0.04    -0.278 OA
DOCKED: BRANCH  14  15
DOCKED: ATOM     15  P   UNL d   1       9.867  19.445  -2.134 -0.08 -0.05    +0.473 P 
DOCKED: ATOM     16  O   UNL d   1       9.070  20.373  -1.272 -0.05 +0.01    -0.228 OA
DOCKED: BRANCH  15  17
DOCKED: ATOM     17  O   UNL d   1       9.902  17.956  -1.571 -0.16 +0.04    -0.303 OA
DOCKED: ATOM     18  H   UNL d   1      10.700  17.483  -1.877 +0.07 -0.04    +0.222 HD
DOCKED: ENDBRANCH  15  17
DOCKED: BRANCH  15  19
DOCKED: ATOM     19  O   UNL d   1      11.418  19.779  -2.251 -0.02 +0.03    -0.303 OA
DOCKED: ATOM     20  H   UNL d   1      11.964  18.972  -2.220 +0.03 -0.02    +0.222 HD
DOCKED: ENDBRANCH  15  19
DOCKED: ENDBRANCH  14  15
DOCKED: ENDBRANCH   2  14
DOCKED: BRANCH   6  21
DOCKED: ATOM     21  O   UNL d   1       7.223  18.459  -7.275 -0.19 +0.05    -0.278 OA
DOCKED: BRANCH  21  22
DOCKED: ATOM     22  P   UNL d   1       6.070  19.544  -7.477 -0.19 -0.15    +0.473 P 
DOCKED: ATOM     23  O   UNL d   1       6.459  20.982  -7.546 -0.15 +0.06    -0.228 OA
DOCKED: BRANCH  22  24
DOCKED: ATOM     24  O   UNL d   1       5.327  18.991  -8.772 -0.14 +0.11    -0.303 OA
DOCKED: ATOM     25  H   UNL d   1       4.414  18.711  -8.507 -0.40 -0.15    +0.222 HD
DOCKED: ENDBRANCH  22  24
DOCKED: BRANCH  22  26
DOCKED: ATOM     26  O   UNL d   1       5.043  19.148  -6.312 -0.57 +0.16    -0.303 OA
DOCKED: ATOM     27  H   UNL d   1       5.301  19.606  -5.486 -0.21 -0.11    +0.222 HD
DOCKED: ENDBRANCH  22  26
DOCKED: ENDBRANCH  21  22
DOCKED: ENDBRANCH   6  21
DOCKED: BRANCH   3  28
DOCKED: ATOM     28  O   UNL d   1      11.499  17.697  -3.885 -0.07 +0.04    -0.278 OA
DOCKED: BRANCH  28  29
DOCKED: ATOM     29  P   UNL d   1      12.343  16.514  -3.234 -0.09 -0.07    +0.473 P 
DOCKED: ATOM     30  O   UNL d   1      13.358  16.928  -2.231 -0.03 +0.02    -0.228 OA
DOCKED: BRANCH  29  31
DOCKED: ATOM     31  O   UNL d   1      11.155  15.573  -2.719 -0.17 +0.11    -0.303 OA
DOCKED: ATOM     32  H   UNL d   1      10.337  16.116  -2.638 -0.34 -0.11    +0.222 HD
DOCKED: ENDBRANCH  29  31
DOCKED: BRANCH  29  33
DOCKED: ATOM     33  O   UNL d   1      12.876  15.737  -4.518 -0.09 +0.03    -0.303 OA
DOCKED: ATOM     34  H   UNL d   1      13.039  16.389  -5.243 +0.04 -0.02    +0.222 HD
DOCKED: ENDBRANCH  29  33
DOCKED: ENDBRANCH  28  29
DOCKED: ENDBRANCH   3  28
DOCKED: BRANCH   5  35
DOCKED: ATOM     35  O   UNL d   1       9.948  19.249  -7.967 -0.04 +0.03    -0.278 OA
DOCKED: BRANCH  35  36
DOCKED: ATOM     36  P   UNL d   1      10.375  18.843  -9.450 -0.02 -0.03    +0.473 P 
DOCKED: ATOM     37  O   UNL d   1       9.435  19.272 -10.531 -0.02 +0.02    -0.228 OA
DOCKED: BRANCH  36  38
DOCKED: ATOM     38  O   UNL d   1      11.830  19.481  -9.556 -0.01 +0.02    -0.303 OA
DOCKED: ATOM     39  H   UNL d   1      12.363  19.197  -8.782 +0.01 -0.01    +0.222 HD
DOCKED: ENDBRANCH  36  38
DOCKED: BRANCH  36  40
DOCKED: ATOM     40  O   UNL d   1      10.650  17.283  -9.309 -0.08 +0.01    -0.303 OA
DOCKED: ATOM     41  H   UNL d   1      11.361  17.096  -8.657 +0.04 -0.01    +0.222 HD
DOCKED: ENDBRANCH  36  40
DOCKED: ENDBRANCH  35  36
DOCKED: ENDBRANCH   5  35
DOCKED: BRANCH   4  42
DOCKED: ATOM     42  O   UNL d   1      11.742  17.316  -6.728 -0.08 +0.01    -0.278 OA
DOCKED: BRANCH  42  43
DOCKED: ATOM     43  P   UNL d   1      13.180  17.946  -7.009 -0.03 -0.03    +0.473 P 
DOCKED: ATOM     44  O   UNL d   1      14.262  17.651  -6.029 -0.01 +0.02    -0.228 OA
DOCKED: BRANCH  43  45
DOCKED: ATOM     45  O   UNL d   1      13.492  17.456  -8.490 -0.02 +0.02    -0.303 OA
DOCKED: ATOM     46  H   UNL d   1      12.724  17.588  -9.081 +0.02 -0.01    +0.222 HD
DOCKED: ENDBRANCH  43  45
DOCKED: BRANCH  43  47
DOCKED: ATOM     47  O   UNL d   1      12.860  19.499  -7.241 -0.01 +0.02    -0.303 OA
DOCKED: ATOM     48  H   UNL d   1      11.899  19.612  -7.394 +0.01 -0.02    +0.222 HD
DOCKED: ENDBRANCH  43  47
DOCKED: ENDBRANCH  42  43
DOCKED: ENDBRANCH   4  42
DOCKED: TORSDOF 24
DOCKED: TER
DOCKED: ENDMDL
________________________________________________________________________________


	BEGINNING GENETIC ALGORITHM DOCKING 57 of 100
Run: 57 Seed: 1948140065 1666935040 [ Run 57 of 100 GA/GALS ]
Beginning LAMARCKIAN GENETIC ALGORITHM (LGA), with a maximum of 25000000 energy evaluations.

Final-Value: -17.823


	FINAL GENETIC ALGORITHM DOCKED STATE
	_______________________________________________


Detailed state:  trans -12.451 7.548 -1.050 quatxyzw -0.377540 -0.753553 0.138212 -0.520115 center 0.035 0.082 -0.065 ntor 24 -167.4448 -70.1316 96.6442 75.3620 43.0800 -3.5663 -128.9812 -178.1884 1.1098 105.3143 3.9855 -125.9849 -128.5056 99.8168 -66.4212 -110.9316 -144.1651 -10.8904 47.7313 -6.2571 -178.0785 -19.1018 -45.8387 163.8023
State:	-12.451   7.548  -1.050  -0.442 -0.882  0.162 -117.320   -167.44  -70.13   96.64   75.36   43.08   -3.57 -128.98 -178.19    1.11  105.31    3.99 -125.98 -128.51   99.82  -66.42 -110.93 -144.17  -10.89   47.73   -6.26 -178.08  -19.10  -45.84  163.80

DOCKED: MODEL       57
DOCKED: USER    Run = 57
DOCKED: USER    DPF = D:/Protein_go_brrr/autodock/final/mut_K82N/IHP/dock.dpf
DOCKED: USER  
DOCKED: USER    Estimated Free Energy of Binding    =   +2.42 kcal/mol  [=(1)+(2)+(3)-(4)]
DOCKED: USER    
DOCKED: USER    (1) Final Intermolecular Energy     =   -4.74 kcal/mol
DOCKED: USER        vdW + Hbond + desolv Energy     =   -4.50 kcal/mol
DOCKED: USER        Electrostatic Energy            =   -0.23 kcal/mol
DOCKED: USER    (2) Final Total Internal Energy     =  -13.09 kcal/mol
DOCKED: USER    (3) Torsional Free Energy           =   +7.16 kcal/mol
DOCKED: USER    (4) Unbound System's Energy  [=(2)] =  -13.09 kcal/mol
DOCKED: USER    
DOCKED: USER    
DOCKED: USER    NEWDPF move IHP_ideal_opt.pdbqt
DOCKED: USER    NEWDPF about 0.035000 0.082000 -0.065000
DOCKED: USER    NEWDPF tran0 -12.450935 7.548189 -1.049767
DOCKED: USER    NEWDPF quaternion0 -0.377540 -0.753553 0.138212 -0.520115
DOCKED: USER    NEWDPF axisangle0 -0.442034 -0.882281 0.161822 -117.320107
DOCKED: USER    NEWDPF quat0 -0.442034 -0.882281 0.161822 -117.320107
DOCKED: USER    NEWDPF dihe0 -167.44 -70.13 96.64 75.36 43.08 -3.57 -128.98 -178.19 1.11 105.31 3.99 -125.98 -128.51 99.82 -66.42 -110.93 -144.17 -10.89 47.73 -6.26 -178.08 -19.10 -45.84 163.80 
DOCKED: USER  keepresnum = 1 
DOCKED: USER  
DOCKED: REMARK  24 active torsions:
DOCKED: REMARK  status: ('A' for Active; 'I' for Inactive)
DOCKED: REMARK    1  A    between atoms: C_1  and  O_7 
DOCKED: REMARK    2  A    between atoms: C_2  and  O_12 
DOCKED: REMARK    3  A    between atoms: C_3  and  O_17 
DOCKED: REMARK    4  A    between atoms: C_4  and  O_22 
DOCKED: REMARK    5  A    between atoms: C_5  and  O_27 
DOCKED: REMARK    6  A    between atoms: C_6  and  O_32 
DOCKED: REMARK    7  A    between atoms: O_7  and  P_8 
DOCKED: REMARK    8  A    between atoms: P_8  and  O_10 
DOCKED: REMARK    9  A    between atoms: P_8  and  O_11 
DOCKED: REMARK   10  A    between atoms: O_12  and  P_13 
DOCKED: REMARK   11  A    between atoms: P_13  and  O_15 
DOCKED: REMARK   12  A    between atoms: P_13  and  O_16 
DOCKED: REMARK   13  A    between atoms: O_17  and  P_18 
DOCKED: REMARK   14  A    between atoms: P_18  and  O_20 
DOCKED: REMARK   15  A    between atoms: P_18  and  O_21 
DOCKED: REMARK   16  A    between atoms: O_22  and  P_23 
DOCKED: REMARK   17  A    between atoms: P_23  and  O_25 
DOCKED: REMARK   18  A    between atoms: P_23  and  O_26 
DOCKED: REMARK   19  A    between atoms: O_27  and  P_28 
DOCKED: REMARK   20  A    between atoms: P_28  and  O_30 
DOCKED: REMARK   21  A    between atoms: P_28  and  O_31 
DOCKED: REMARK   22  A    between atoms: O_32  and  P_33 
DOCKED: REMARK   23  A    between atoms: P_33  and  O_35 
DOCKED: REMARK   24  A    between atoms: P_33  and  O_36 
DOCKED: USER                              x       y       z     vdW  Elec       q    Type
DOCKED: USER                           _______ _______ _______ _____ _____    ______ ____
DOCKED: ROOT
DOCKED: ATOM      1  C   UNL d   1     -13.749   7.986   0.003 -0.10 +0.03    +0.194 C 
DOCKED: ATOM      2  C   UNL d   1     -13.546   6.485  -0.207 -0.13 +0.04    +0.194 C 
DOCKED: ATOM      3  C   UNL d   1     -13.276   6.149  -1.675 -0.15 +0.07    +0.194 C 
DOCKED: ATOM      4  C   UNL d   1     -12.145   6.974  -2.283 -0.19 +0.08    +0.194 C 
DOCKED: ATOM      5  C   UNL d   1     -12.245   8.468  -2.000 -0.20 +0.05    +0.194 C 
DOCKED: ATOM      6  C   UNL d   1     -12.577   8.802  -0.544 -0.12 +0.03    +0.194 C 
DOCKED: ENDROOT
DOCKED: BRANCH   1   7
DOCKED: ATOM      7  O   UNL d   1     -13.822   8.235   1.408 -0.08 -0.06    -0.278 OA
DOCKED: BRANCH   7   8
DOCKED: ATOM      8  P   UNL d   1     -15.160   7.831   2.182 -0.03 +0.11    +0.473 P 
DOCKED: ATOM      9  O   UNL d   1     -16.306   8.761   1.990 -0.01 -0.03    -0.228 OA
DOCKED: BRANCH   8  10
DOCKED: ATOM     10  O   UNL d   1     -15.464   6.347   1.680 -0.02 -0.06    -0.303 OA
DOCKED: ATOM     11  H   UNL d   1     -14.624   5.873   1.535 +0.05 +0.05    +0.222 HD
DOCKED: ENDBRANCH   8  10
DOCKED: BRANCH   8  12
DOCKED: ATOM     12  O   UNL d   1     -14.709   7.587   3.686 -0.11 -0.17    -0.303 OA
DOCKED: ATOM     13  H   UNL d   1     -14.826   6.654   3.977 +0.03 +0.15    +0.222 HD
DOCKED: ENDBRANCH   8  12
DOCKED: ENDBRANCH   7   8
DOCKED: ENDBRANCH   1   7
DOCKED: BRANCH   2  14
DOCKED: ATOM     14  O   UNL d   1     -12.425   6.051   0.574 -0.24 -0.05    -0.278 OA
DOCKED: BRANCH  14  15
DOCKED: ATOM     15  P   UNL d   1     -12.685   4.840   1.588 -0.18 +0.10    +0.473 P 
DOCKED: ATOM     16  O   UNL d   1     -11.496   4.015   1.969 -0.37 -0.03    -0.228 OA
DOCKED: BRANCH  15  17
DOCKED: ATOM     17  O   UNL d   1     -13.387   5.527   2.842 -0.08 -0.14    -0.303 OA
DOCKED: ATOM     18  H   UNL d   1     -13.503   6.486   2.698 +0.06 +0.10    +0.222 HD
DOCKED: ENDBRANCH  15  17
DOCKED: BRANCH  15  19
DOCKED: ATOM     19  O   UNL d   1     -13.898   4.036   0.944 -0.06 -0.05    -0.303 OA
DOCKED: ATOM     20  H   UNL d   1     -14.040   4.284   0.012 +0.05 +0.04    +0.222 HD
DOCKED: ENDBRANCH  15  19
DOCKED: ENDBRANCH  14  15
DOCKED: ENDBRANCH   2  14
DOCKED: BRANCH   6  21
DOCKED: ATOM     21  O   UNL d   1     -12.970  10.172  -0.515 +0.00 -0.05    -0.278 OA
DOCKED: BRANCH  21  22
DOCKED: ATOM     22  P   UNL d   1     -14.448  10.581  -0.956 -0.02 +0.06    +0.473 P 
DOCKED: ATOM     23  O   UNL d   1     -15.082   9.829  -2.078 -0.01 -0.03    -0.228 OA
DOCKED: BRANCH  22  24
DOCKED: ATOM     24  O   UNL d   1     -15.233  10.505   0.426 -0.01 -0.03    -0.303 OA
DOCKED: ATOM     25  H   UNL d   1     -14.733   9.901   1.032 +0.03 +0.03    +0.222 HD
DOCKED: ENDBRANCH  22  24
DOCKED: BRANCH  22  26
DOCKED: ATOM     26  O   UNL d   1     -14.299  12.163  -1.166 -0.03 -0.04    -0.303 OA
DOCKED: ATOM     27  H   UNL d   1     -15.169  12.539  -1.408 +0.02 +0.02    +0.222 HD
DOCKED: ENDBRANCH  22  26
DOCKED: ENDBRANCH  21  22
DOCKED: ENDBRANCH   6  21
DOCKED: BRANCH   3  28
DOCKED: ATOM     28  O   UNL d   1     -12.831   4.800  -1.731 -0.11 -0.14    -0.278 OA
DOCKED: BRANCH  28  29
DOCKED: ATOM     29  P   UNL d   1     -13.875   3.616  -1.941 -0.08 +0.19    +0.473 P 
DOCKED: ATOM     30  O   UNL d   1     -13.666   2.418  -1.087 -0.10 -0.05    -0.228 OA
DOCKED: BRANCH  29  31
DOCKED: ATOM     31  O   UNL d   1     -15.247   4.416  -1.747 -0.03 -0.07    -0.303 OA
DOCKED: ATOM     32  H   UNL d   1     -15.389   4.567  -0.784 +0.03 +0.04    +0.222 HD
DOCKED: ENDBRANCH  29  31
DOCKED: BRANCH  29  33
DOCKED: ATOM     33  O   UNL d   1     -13.817   3.395  -3.517 -0.06 -0.26    -0.303 OA
DOCKED: ATOM     34  H   UNL d   1     -14.713   3.565  -3.899 +0.02 +0.14    +0.222 HD
DOCKED: ENDBRANCH  29  33
DOCKED: ENDBRANCH  28  29
DOCKED: ENDBRANCH   3  28
DOCKED: BRANCH   5  35
DOCKED: ATOM     35  O   UNL d   1     -10.950   9.001  -2.269 -0.25 -0.06    -0.278 OA
DOCKED: BRANCH  35  36
DOCKED: ATOM     36  P   UNL d   1     -10.541   9.409  -3.756 -0.22 +0.14    +0.473 P 
DOCKED: ATOM     37  O   UNL d   1      -9.706   8.410  -4.492 -0.75 -0.14    -0.228 OA
DOCKED: BRANCH  36  38
DOCKED: ATOM     38  O   UNL d   1     -11.961   9.691  -4.419 -0.05 -0.09    -0.303 OA
DOCKED: ATOM     39  H   UNL d   1     -12.448   8.844  -4.507 +0.06 +0.08    +0.222 HD
DOCKED: ENDBRANCH  36  38
DOCKED: BRANCH  36  40
DOCKED: ATOM     40  O   UNL d   1      -9.919  10.858  -3.551 -0.36 -0.06    -0.303 OA
DOCKED: ATOM     41  H   UNL d   1      -9.109  10.832  -2.995 -0.23 +0.01    +0.222 HD
DOCKED: ENDBRANCH  36  40
DOCKED: ENDBRANCH  35  36
DOCKED: ENDBRANCH   5  35
DOCKED: BRANCH   4  42
DOCKED: ATOM     42  O   UNL d   1     -12.226   6.808  -3.702 -0.14 -0.21    -0.278 OA
DOCKED: BRANCH  42  43
DOCKED: ATOM     43  P   UNL d   1     -13.616   7.090  -4.433 -0.06 +0.28    +0.473 P 
DOCKED: ATOM     44  O   UNL d   1     -14.469   8.183  -3.890 -0.02 -0.06    -0.228 OA
DOCKED: BRANCH  43  45
DOCKED: ATOM     45  O   UNL d   1     -13.177   7.298  -5.949 -0.12 -0.22    -0.303 OA
DOCKED: ATOM     46  H   UNL d   1     -12.674   8.129  -6.064 +0.04 +0.12    +0.222 HD
DOCKED: ENDBRANCH  43  45
DOCKED: BRANCH  43  47
DOCKED: ATOM     47  O   UNL d   1     -14.300   5.641  -4.489 -0.21 -0.24    -0.303 OA
DOCKED: ATOM     48  H   UNL d   1     -14.314   5.256  -3.588 +0.02 +0.14    +0.222 HD
DOCKED: ENDBRANCH  43  47
DOCKED: ENDBRANCH  42  43
DOCKED: ENDBRANCH   4  42
DOCKED: TORSDOF 24
DOCKED: TER
DOCKED: ENDMDL
________________________________________________________________________________


	BEGINNING GENETIC ALGORITHM DOCKING 58 of 100
Run: 58 Seed: 1672765550 983380898 [ Run 58 of 100 GA/GALS ]
Beginning LAMARCKIAN GENETIC ALGORITHM (LGA), with a maximum of 25000000 energy evaluations.

Final-Value: -17.585


	FINAL GENETIC ALGORITHM DOCKED STATE
	_______________________________________________


Detailed state:  trans -5.660 10.033 -16.489 quatxyzw 0.870870 -0.342746 0.293025 0.195570 center 0.035 0.082 -0.065 ntor 24 -86.4055 83.1833 61.6866 115.6471 45.0226 159.1990 -75.8922 -12.6768 56.9306 -123.0651 172.7800 148.6861 12.9627 -74.3415 -12.1831 43.0066 -87.9727 180.0000 -133.8141 -8.2407 160.5913 -16.2321 177.5511 28.7515
State:	 -5.660  10.033 -16.489   0.888 -0.349  0.299 157.444    -86.41   83.18   61.69  115.65   45.02  159.20  -75.89  -12.68   56.93 -123.07  172.78  148.69   12.96  -74.34  -12.18   43.01  -87.97  180.00 -133.81   -8.24  160.59  -16.23  177.55   28.75

DOCKED: MODEL       58
DOCKED: USER    Run = 58
DOCKED: USER    DPF = D:/Protein_go_brrr/autodock/final/mut_K82N/IHP/dock.dpf
DOCKED: USER  
DOCKED: USER    Estimated Free Energy of Binding    =   +1.49 kcal/mol  [=(1)+(2)+(3)-(4)]
DOCKED: USER    
DOCKED: USER    (1) Final Intermolecular Energy     =   -5.67 kcal/mol
DOCKED: USER        vdW + Hbond + desolv Energy     =   -5.38 kcal/mol
DOCKED: USER        Electrostatic Energy            =   -0.29 kcal/mol
DOCKED: USER    (2) Final Total Internal Energy     =  -11.92 kcal/mol
DOCKED: USER    (3) Torsional Free Energy           =   +7.16 kcal/mol
DOCKED: USER    (4) Unbound System's Energy  [=(2)] =  -11.92 kcal/mol
DOCKED: USER    
DOCKED: USER    
DOCKED: USER    NEWDPF move IHP_ideal_opt.pdbqt
DOCKED: USER    NEWDPF about 0.035000 0.082000 -0.065000
DOCKED: USER    NEWDPF tran0 -5.659956 10.033206 -16.489339
DOCKED: USER    NEWDPF quaternion0 0.870870 -0.342746 0.293025 0.195570
DOCKED: USER    NEWDPF axisangle0 0.888017 -0.349495 0.298795 157.444012
DOCKED: USER    NEWDPF quat0 0.888017 -0.349495 0.298795 157.444012
DOCKED: USER    NEWDPF dihe0 -86.41 83.18 61.69 115.65 45.02 159.20 -75.89 -12.68 56.93 -123.07 172.78 148.69 12.96 -74.34 -12.18 43.01 -87.97 180.00 -133.81 -8.24 160.59 -16.23 177.55 28.75 
DOCKED: USER  keepresnum = 1 
DOCKED: USER  
DOCKED: REMARK  24 active torsions:
DOCKED: REMARK  status: ('A' for Active; 'I' for Inactive)
DOCKED: REMARK    1  A    between atoms: C_1  and  O_7 
DOCKED: REMARK    2  A    between atoms: C_2  and  O_12 
DOCKED: REMARK    3  A    between atoms: C_3  and  O_17 
DOCKED: REMARK    4  A    between atoms: C_4  and  O_22 
DOCKED: REMARK    5  A    between atoms: C_5  and  O_27 
DOCKED: REMARK    6  A    between atoms: C_6  and  O_32 
DOCKED: REMARK    7  A    between atoms: O_7  and  P_8 
DOCKED: REMARK    8  A    between atoms: P_8  and  O_10 
DOCKED: REMARK    9  A    between atoms: P_8  and  O_11 
DOCKED: REMARK   10  A    between atoms: O_12  and  P_13 
DOCKED: REMARK   11  A    between atoms: P_13  and  O_15 
DOCKED: REMARK   12  A    between atoms: P_13  and  O_16 
DOCKED: REMARK   13  A    between atoms: O_17  and  P_18 
DOCKED: REMARK   14  A    between atoms: P_18  and  O_20 
DOCKED: REMARK   15  A    between atoms: P_18  and  O_21 
DOCKED: REMARK   16  A    between atoms: O_22  and  P_23 
DOCKED: REMARK   17  A    between atoms: P_23  and  O_25 
DOCKED: REMARK   18  A    between atoms: P_23  and  O_26 
DOCKED: REMARK   19  A    between atoms: O_27  and  P_28 
DOCKED: REMARK   20  A    between atoms: P_28  and  O_30 
DOCKED: REMARK   21  A    between atoms: P_28  and  O_31 
DOCKED: REMARK   22  A    between atoms: O_32  and  P_33 
DOCKED: REMARK   23  A    between atoms: P_33  and  O_35 
DOCKED: REMARK   24  A    between atoms: P_33  and  O_36 
DOCKED: USER                              x       y       z     vdW  Elec       q    Type
DOCKED: USER                           _______ _______ _______ _____ _____    ______ ____
DOCKED: ROOT
DOCKED: ATOM      1  C   UNL d   1      -3.978   9.864 -16.132 -0.10 -0.06    +0.194 C 
DOCKED: ATOM      2  C   UNL d   1      -4.569  11.254 -15.888 -0.10 -0.07    +0.194 C 
DOCKED: ATOM      3  C   UNL d   1      -5.498  11.681 -17.026 -0.03 -0.06    +0.194 C 
DOCKED: ATOM      4  C   UNL d   1      -6.573  10.645 -17.346 -0.01 -0.03    +0.194 C 
DOCKED: ATOM      5  C   UNL d   1      -6.044   9.224 -17.484 -0.05 -0.04    +0.194 C 
DOCKED: ATOM      6  C   UNL d   1      -5.066   8.817 -16.379 -0.13 -0.04    +0.194 C 
DOCKED: ENDROOT
DOCKED: BRANCH   1   7
DOCKED: ATOM      7  O   UNL d   1      -3.268   9.469 -14.956 -0.19 +0.08    -0.278 OA
DOCKED: BRANCH   7   8
DOCKED: ATOM      8  P   UNL d   1      -3.947   8.402 -13.980 -0.25 -0.10    +0.473 P 
DOCKED: ATOM      9  O   UNL d   1      -4.149   7.049 -14.566 -0.18 +0.04    -0.228 OA
DOCKED: BRANCH   8  10
DOCKED: ATOM     10  O   UNL d   1      -3.001   8.396 -12.695 -0.07 +0.07    -0.303 OA
DOCKED: ATOM     11  H   UNL d   1      -3.498   8.722 -11.922 -0.42 -0.14    +0.222 HD
DOCKED: ENDBRANCH   8  10
DOCKED: BRANCH   8  12
DOCKED: ATOM     12  O   UNL d   1      -5.252   9.121 -13.428 -0.15 +0.06    -0.303 OA
DOCKED: ATOM     13  H   UNL d   1      -5.706   9.671 -14.106 +0.09 -0.04    +0.222 HD
DOCKED: ENDBRANCH   8  12
DOCKED: ENDBRANCH   7   8
DOCKED: ENDBRANCH   1   7
DOCKED: BRANCH   2  14
DOCKED: ATOM     14  O   UNL d   1      -5.320  11.235 -14.668 -0.08 +0.07    -0.278 OA
DOCKED: BRANCH  14  15
DOCKED: ATOM     15  P   UNL d   1      -4.892  12.297 -13.548 -0.30 -0.11    +0.473 P 
DOCKED: ATOM     16  O   UNL d   1      -3.525  12.893 -13.675 -0.60 +0.09    -0.228 OA
DOCKED: BRANCH  15  17
DOCKED: ATOM     17  O   UNL d   1      -6.049  13.391 -13.589 -0.33 +0.02    -0.303 OA
DOCKED: ATOM     18  H   UNL d   1      -6.388  13.511 -14.497 +0.07 -0.04    +0.222 HD
DOCKED: ENDBRANCH  15  17
DOCKED: BRANCH  15  19
DOCKED: ATOM     19  O   UNL d   1      -5.195  11.563 -12.170 -0.41 +0.06    -0.303 OA
DOCKED: ATOM     20  H   UNL d   1      -4.733  10.706 -12.108 -0.16 -0.10    +0.222 HD
DOCKED: ENDBRANCH  15  19
DOCKED: ENDBRANCH  14  15
DOCKED: ENDBRANCH   2  14
DOCKED: BRANCH   6  21
DOCKED: ATOM     21  O   UNL d   1      -4.412   7.631 -16.824 -0.22 +0.08    -0.278 OA
DOCKED: BRANCH  21  22
DOCKED: ATOM     22  P   UNL d   1      -3.594   7.644 -18.193 -0.17 -0.13    +0.473 P 
DOCKED: ATOM     23  O   UNL d   1      -3.191   8.963 -18.762 -0.05 +0.05    -0.228 OA
DOCKED: BRANCH  22  24
DOCKED: ATOM     24  O   UNL d   1      -2.385   6.664 -17.859 -0.29 +0.10    -0.303 OA
DOCKED: ATOM     25  H   UNL d   1      -2.289   6.618 -16.874 -0.08 -0.12    +0.222 HD
DOCKED: ENDBRANCH  22  24
DOCKED: BRANCH  22  26
DOCKED: ATOM     26  O   UNL d   1      -4.514   6.725 -19.131 -0.19 +0.11    -0.303 OA
DOCKED: ATOM     27  H   UNL d   1      -5.153   6.235 -18.574 -0.43 -0.15    +0.222 HD
DOCKED: ENDBRANCH  22  26
DOCKED: ENDBRANCH  21  22
DOCKED: ENDBRANCH   6  21
DOCKED: BRANCH   3  28
DOCKED: ATOM     28  O   UNL d   1      -6.205  12.836 -16.591 -0.03 +0.09    -0.278 OA
DOCKED: BRANCH  28  29
DOCKED: ATOM     29  P   UNL d   1      -5.664  14.291 -16.947 -0.05 -0.29    +0.473 P 
DOCKED: ATOM     30  O   UNL d   1      -4.665  14.353 -18.044 -0.07 +0.19    -0.228 OA
DOCKED: BRANCH  29  31
DOCKED: ATOM     31  O   UNL d   1      -7.051  15.054 -17.184 -0.02 +0.08    -0.303 OA
DOCKED: ATOM     32  H   UNL d   1      -7.736  14.390 -17.431 +0.02 -0.04    +0.222 HD
DOCKED: ENDBRANCH  29  31
DOCKED: BRANCH  29  33
DOCKED: ATOM     33  O   UNL d   1      -5.204  14.834 -15.522 -0.14 +0.27    -0.303 OA
DOCKED: ATOM     34  H   UNL d   1      -4.676  14.133 -15.067 -0.12 -0.22    +0.222 HD
DOCKED: ENDBRANCH  29  33
DOCKED: ENDBRANCH  28  29
DOCKED: ENDBRANCH   3  28
DOCKED: BRANCH   5  35
DOCKED: ATOM     35  O   UNL d   1      -7.183   8.374 -17.369 -0.06 +0.04    -0.278 OA
DOCKED: BRANCH  35  36
DOCKED: ATOM     36  P   UNL d   1      -8.180   8.526 -16.133 -0.04 -0.03    +0.473 P 
DOCKED: ATOM     37  O   UNL d   1      -7.529   8.704 -14.798 -0.07 +0.01    -0.228 OA
DOCKED: BRANCH  36  38
DOCKED: ATOM     38  O   UNL d   1      -9.081   9.756 -16.591 -0.01 +0.01    -0.303 OA
DOCKED: ATOM     39  H   UNL d   1      -8.658  10.196 -17.360 +0.01 -0.02    +0.222 HD
DOCKED: ENDBRANCH  36  38
DOCKED: BRANCH  36  40
DOCKED: ATOM     40  O   UNL d   1      -9.135   7.266 -16.309 -0.07 -0.00    -0.303 OA
DOCKED: ATOM     41  H   UNL d   1      -9.950   7.348 -15.766 +0.04 +0.01    +0.222 HD
DOCKED: ENDBRANCH  36  40
DOCKED: ENDBRANCH  35  36
DOCKED: ENDBRANCH   5  35
DOCKED: BRANCH   4  42
DOCKED: ATOM     42  O   UNL d   1      -7.136  11.009 -18.611 -0.00 +0.04    -0.278 OA
DOCKED: BRANCH  42  43
DOCKED: ATOM     43  P   UNL d   1      -8.269  12.132 -18.657 +0.00 -0.05    +0.473 P 
DOCKED: ATOM     44  O   UNL d   1      -9.474  11.858 -19.489 -0.00 +0.02    -0.228 OA
DOCKED: BRANCH  43  45
DOCKED: ATOM     45  O   UNL d   1      -8.584  12.373 -17.116 +0.00 +0.03    -0.303 OA
DOCKED: ATOM     46  H   UNL d   1      -8.129  13.170 -16.778 +0.02 -0.03    +0.222 HD
DOCKED: ENDBRANCH  43  45
DOCKED: BRANCH  43  47
DOCKED: ATOM     47  O   UNL d   1      -7.454  13.459 -19.035 +0.00 +0.05    -0.303 OA
DOCKED: ATOM     48  H   UNL d   1      -6.555  13.406 -18.650 +0.01 -0.06    +0.222 HD
DOCKED: ENDBRANCH  43  47
DOCKED: ENDBRANCH  42  43
DOCKED: ENDBRANCH   4  42
DOCKED: TORSDOF 24
DOCKED: TER
DOCKED: ENDMDL
________________________________________________________________________________


	BEGINNING GENETIC ALGORITHM DOCKING 59 of 100
Run: 59 Seed: 1813675011 60208005 [ Run 59 of 100 GA/GALS ]
Beginning LAMARCKIAN GENETIC ALGORITHM (LGA), with a maximum of 25000000 energy evaluations.

Final-Value: -19.731


	FINAL GENETIC ALGORITHM DOCKED STATE
	_______________________________________________


Detailed state:  trans -7.059 -14.214 7.781 quatxyzw -0.346086 -0.377823 -0.120514 0.850265 center 0.035 0.082 -0.065 ntor 24 180.0000 -180.0000 128.0873 -18.8222 91.8320 141.3105 6.3488 -162.6878 100.2607 91.8781 -121.9427 150.9702 81.8013 62.1487 50.4326 -125.5750 89.4000 166.8598 57.3249 -6.4465 -176.2139 40.1969 6.9642 180.0000
State:	 -7.059 -14.214   7.781  -0.658 -0.718 -0.229 63.519    180.00 -180.00  128.09  -18.82   91.83  141.31    6.35 -162.69  100.26   91.88 -121.94  150.97   81.80   62.15   50.43 -125.58   89.40  166.86   57.32   -6.45 -176.21   40.20    6.96  180.00

DOCKED: MODEL       59
DOCKED: USER    Run = 59
DOCKED: USER    DPF = D:/Protein_go_brrr/autodock/final/mut_K82N/IHP/dock.dpf
DOCKED: USER  
DOCKED: USER    Estimated Free Energy of Binding    =   +1.57 kcal/mol  [=(1)+(2)+(3)-(4)]
DOCKED: USER    
DOCKED: USER    (1) Final Intermolecular Energy     =   -5.58 kcal/mol
DOCKED: USER        vdW + Hbond + desolv Energy     =   -5.39 kcal/mol
DOCKED: USER        Electrostatic Energy            =   -0.19 kcal/mol
DOCKED: USER    (2) Final Total Internal Energy     =  -14.15 kcal/mol
DOCKED: USER    (3) Torsional Free Energy           =   +7.16 kcal/mol
DOCKED: USER    (4) Unbound System's Energy  [=(2)] =  -14.15 kcal/mol
DOCKED: USER    
DOCKED: USER    
DOCKED: USER    NEWDPF move IHP_ideal_opt.pdbqt
DOCKED: USER    NEWDPF about 0.035000 0.082000 -0.065000
DOCKED: USER    NEWDPF tran0 -7.059071 -14.213670 7.780932
DOCKED: USER    NEWDPF quaternion0 -0.346086 -0.377823 -0.120514 0.850265
DOCKED: USER    NEWDPF axisangle0 -0.657515 -0.717810 -0.228960 63.518957
DOCKED: USER    NEWDPF quat0 -0.657515 -0.717810 -0.228960 63.518957
DOCKED: USER    NEWDPF dihe0 180.00 -180.00 128.09 -18.82 91.83 141.31 6.35 -162.69 100.26 91.88 -121.94 150.97 81.80 62.15 50.43 -125.58 89.40 166.86 57.32 -6.45 -176.21 40.20 6.96 180.00 
DOCKED: USER  keepresnum = 1 
DOCKED: USER  
DOCKED: REMARK  24 active torsions:
DOCKED: REMARK  status: ('A' for Active; 'I' for Inactive)
DOCKED: REMARK    1  A    between atoms: C_1  and  O_7 
DOCKED: REMARK    2  A    between atoms: C_2  and  O_12 
DOCKED: REMARK    3  A    between atoms: C_3  and  O_17 
DOCKED: REMARK    4  A    between atoms: C_4  and  O_22 
DOCKED: REMARK    5  A    between atoms: C_5  and  O_27 
DOCKED: REMARK    6  A    between atoms: C_6  and  O_32 
DOCKED: REMARK    7  A    between atoms: O_7  and  P_8 
DOCKED: REMARK    8  A    between atoms: P_8  and  O_10 
DOCKED: REMARK    9  A    between atoms: P_8  and  O_11 
DOCKED: REMARK   10  A    between atoms: O_12  and  P_13 
DOCKED: REMARK   11  A    between atoms: P_13  and  O_15 
DOCKED: REMARK   12  A    between atoms: P_13  and  O_16 
DOCKED: REMARK   13  A    between atoms: O_17  and  P_18 
DOCKED: REMARK   14  A    between atoms: P_18  and  O_20 
DOCKED: REMARK   15  A    between atoms: P_18  and  O_21 
DOCKED: REMARK   16  A    between atoms: O_22  and  P_23 
DOCKED: REMARK   17  A    between atoms: P_23  and  O_25 
DOCKED: REMARK   18  A    between atoms: P_23  and  O_26 
DOCKED: REMARK   19  A    between atoms: O_27  and  P_28 
DOCKED: REMARK   20  A    between atoms: P_28  and  O_30 
DOCKED: REMARK   21  A    between atoms: P_28  and  O_31 
DOCKED: REMARK   22  A    between atoms: O_32  and  P_33 
DOCKED: REMARK   23  A    between atoms: P_33  and  O_35 
DOCKED: REMARK   24  A    between atoms: P_33  and  O_36 
DOCKED: USER                              x       y       z     vdW  Elec       q    Type
DOCKED: USER                           _______ _______ _______ _____ _____    ______ ____
DOCKED: ROOT
DOCKED: ATOM      1  C   UNL d   1      -5.676 -14.672   6.853 -0.19 -0.04    +0.194 C 
DOCKED: ATOM      2  C   UNL d   1      -6.845 -15.659   6.829 -0.09 -0.04    +0.194 C 
DOCKED: ATOM      3  C   UNL d   1      -7.452 -15.852   8.220 -0.02 -0.02    +0.194 C 
DOCKED: ATOM      4  C   UNL d   1      -7.820 -14.537   8.903 -0.04 -0.02    +0.194 C 
DOCKED: ATOM      5  C   UNL d   1      -6.723 -13.481   8.850 -0.11 -0.02    +0.194 C 
DOCKED: ATOM      6  C   UNL d   1      -6.074 -13.332   7.472 -0.21 -0.05    +0.194 C 
DOCKED: ENDROOT
DOCKED: BRANCH   1   7
DOCKED: ATOM      7  O   UNL d   1      -5.281 -14.417   5.503 -0.42 +0.08    -0.278 OA
DOCKED: BRANCH   7   8
DOCKED: ATOM      8  P   UNL d   1      -4.669 -15.621   4.650 -0.20 -0.21    +0.473 P 
DOCKED: ATOM      9  O   UNL d   1      -5.226 -15.769   3.278 -1.02 +0.07    -0.228 OA
DOCKED: BRANCH   8  10
DOCKED: ATOM     10  O   UNL d   1      -3.098 -15.346   4.664 -0.34 +0.07    -0.303 OA
DOCKED: ATOM     11  H   UNL d   1      -2.872 -14.781   5.426 +0.12 +0.02    +0.222 HD
DOCKED: ENDBRANCH   8  10
DOCKED: BRANCH   8  12
DOCKED: ATOM     12  O   UNL d   1      -4.792 -16.896   5.590 -0.10 +0.20    -0.303 OA
DOCKED: ATOM     13  H   UNL d   1      -5.137 -17.689   5.120 -0.40 -0.26    +0.222 HD
DOCKED: ENDBRANCH   8  12
DOCKED: ENDBRANCH   7   8
DOCKED: ENDBRANCH   1   7
DOCKED: BRANCH   2  14
DOCKED: ATOM     14  O   UNL d   1      -7.862 -15.157   5.952 -0.04 +0.11    -0.278 OA
DOCKED: BRANCH  14  15
DOCKED: ATOM     15  P   UNL d   1      -8.339 -16.133   4.776 -0.06 -0.14    +0.473 P 
DOCKED: ATOM     16  O   UNL d   1      -9.773 -16.560   4.797 -0.05 +0.04    -0.228 OA
DOCKED: BRANCH  15  17
DOCKED: ATOM     17  O   UNL d   1      -7.946 -15.355   3.443 -0.21 +0.10    -0.303 OA
DOCKED: ATOM     18  H   UNL d   1      -7.139 -14.821   3.572 -0.45 -0.10    +0.222 HD
DOCKED: ENDBRANCH  15  17
DOCKED: BRANCH  15  19
DOCKED: ATOM     19  O   UNL d   1      -7.272 -17.313   4.783 -0.06 +0.10    -0.303 OA
DOCKED: ATOM     20  H   UNL d   1      -6.442 -17.051   4.344 +0.06 -0.11    +0.222 HD
DOCKED: ENDBRANCH  15  19
DOCKED: ENDBRANCH  14  15
DOCKED: ENDBRANCH   2  14
DOCKED: BRANCH   6  21
DOCKED: ATOM     21  O   UNL d   1      -4.874 -12.586   7.662 -0.21 +0.08    -0.278 OA
DOCKED: BRANCH  21  22
DOCKED: ATOM     22  P   UNL d   1      -3.554 -13.325   8.169 -0.21 -0.03    +0.473 P 
DOCKED: ATOM     23  O   UNL d   1      -2.737 -14.074   7.171 -0.29 -0.03    -0.228 OA
DOCKED: BRANCH  22  24
DOCKED: ATOM     24  O   UNL d   1      -2.785 -12.145   8.910 -0.27 +0.06    -0.303 OA
DOCKED: ATOM     25  H   UNL d   1      -3.456 -11.480   9.210 -0.17 -0.08    +0.222 HD
DOCKED: ENDBRANCH  22  24
DOCKED: BRANCH  22  26
DOCKED: ATOM     26  O   UNL d   1      -4.114 -14.181   9.403 -0.11 -0.01    -0.303 OA
DOCKED: ATOM     27  H   UNL d   1      -4.844 -13.689   9.831 +0.08 +0.00    +0.222 HD
DOCKED: ENDBRANCH  22  26
DOCKED: ENDBRANCH  21  22
DOCKED: ENDBRANCH   6  21
DOCKED: BRANCH   3  28
DOCKED: ATOM     28  O   UNL d   1      -8.680 -16.550   8.058 -0.01 +0.03    -0.278 OA
DOCKED: BRANCH  28  29
DOCKED: ATOM     29  P   UNL d   1      -9.223 -17.501   9.215 +0.00 -0.04    +0.473 P 
DOCKED: ATOM     30  O   UNL d   1     -10.072 -18.635   8.766 -0.00 +0.02    -0.228 OA
DOCKED: BRANCH  29  31
DOCKED: ATOM     31  O   UNL d   1      -7.847 -17.868   9.944 +0.00 +0.02    -0.303 OA
DOCKED: ATOM     32  H   UNL d   1      -7.415 -17.032  10.238 +0.01 -0.01    +0.222 HD
DOCKED: ENDBRANCH  29  31
DOCKED: BRANCH  29  33
DOCKED: ATOM     33  O   UNL d   1      -9.887 -16.459  10.220 -0.00 +0.02    -0.303 OA
DOCKED: ATOM     34  H   UNL d   1      -9.286 -16.333  10.994 +0.00 -0.01    +0.222 HD
DOCKED: ENDBRANCH  29  33
DOCKED: ENDBRANCH  28  29
DOCKED: ENDBRANCH   3  28
DOCKED: BRANCH   5  35
DOCKED: ATOM     35  O   UNL d   1      -7.364 -12.243   9.149 -0.09 +0.03    -0.278 OA
DOCKED: BRANCH  35  36
DOCKED: ATOM     36  P   UNL d   1      -6.666 -11.191  10.125 -0.07 -0.04    +0.473 P 
DOCKED: ATOM     37  O   UNL d   1      -6.664  -9.773   9.650 -0.17 +0.03    -0.228 OA
DOCKED: BRANCH  36  38
DOCKED: ATOM     38  O   UNL d   1      -7.466 -11.426  11.482 -0.05 +0.01    -0.303 OA
DOCKED: ATOM     39  H   UNL d   1      -7.760 -12.362  11.524 +0.03 -0.01    +0.222 HD
DOCKED: ENDBRANCH  36  38
DOCKED: BRANCH  36  40
DOCKED: ATOM     40  O   UNL d   1      -5.251 -11.865  10.394 -0.11 -0.01    -0.303 OA
DOCKED: ATOM     41  H   UNL d   1      -4.808 -12.129   9.557 +0.07 -0.02    +0.222 HD
DOCKED: ENDBRANCH  36  40
DOCKED: ENDBRANCH  35  36
DOCKED: ENDBRANCH   5  35
DOCKED: BRANCH   4  42
DOCKED: ATOM     42  O   UNL d   1      -8.049 -14.837  10.284 -0.01 +0.02    -0.278 OA
DOCKED: BRANCH  42  43
DOCKED: ATOM     43  P   UNL d   1      -6.812 -15.264  11.196 +0.00 -0.02    +0.473 P 
DOCKED: ATOM     44  O   UNL d   1      -7.072 -16.233  12.297 -0.00 +0.01    -0.228 OA
DOCKED: BRANCH  43  45
DOCKED: ATOM     45  O   UNL d   1      -5.747 -15.765  10.126 -0.01 +0.00    -0.303 OA
DOCKED: ATOM     46  H   UNL d   1      -4.853 -15.839  10.517 +0.05 +0.01    +0.222 HD
DOCKED: ENDBRANCH  43  45
DOCKED: BRANCH  43  47
DOCKED: ATOM     47  O   UNL d   1      -6.186 -13.858  11.645 -0.05 +0.00    -0.303 OA
DOCKED: ATOM     48  H   UNL d   1      -6.350 -13.193  10.944 +0.05 -0.00    +0.222 HD
DOCKED: ENDBRANCH  43  47
DOCKED: ENDBRANCH  42  43
DOCKED: ENDBRANCH   4  42
DOCKED: TORSDOF 24
DOCKED: TER
DOCKED: ENDMDL
________________________________________________________________________________


	BEGINNING GENETIC ALGORITHM DOCKING 60 of 100
Run: 60 Seed: 1262570247 1326346498 [ Run 60 of 100 GA/GALS ]
Beginning LAMARCKIAN GENETIC ALGORITHM (LGA), with a maximum of 25000000 energy evaluations.

Final-Value: -18.708


	FINAL GENETIC ALGORITHM DOCKED STATE
	_______________________________________________


Detailed state:  trans -4.280 -14.634 9.755 quatxyzw 0.276991 0.679559 -0.634209 0.243423 center 0.035 0.082 -0.065 ntor 24 113.2604 158.2438 153.1377 -21.3262 140.9430 -122.7878 -134.1275 -18.6121 180.0000 18.2224 19.3749 -69.1505 -76.6217 172.0267 18.7011 -172.8871 83.9922 -53.0289 59.4893 14.6298 -179.1679 5.8695 -8.6424 180.0000
State:	 -4.280 -14.634   9.755   0.286  0.701 -0.654 151.823    113.26  158.24  153.14  -21.33  140.94 -122.79 -134.13  -18.61  180.00   18.22   19.37  -69.15  -76.62  172.03   18.70 -172.89   83.99  -53.03   59.49   14.63 -179.17    5.87   -8.64  180.00

DOCKED: MODEL       60
DOCKED: USER    Run = 60
DOCKED: USER    DPF = D:/Protein_go_brrr/autodock/final/mut_K82N/IHP/dock.dpf
DOCKED: USER  
DOCKED: USER    Estimated Free Energy of Binding    =   +1.42 kcal/mol  [=(1)+(2)+(3)-(4)]
DOCKED: USER    
DOCKED: USER    (1) Final Intermolecular Energy     =   -5.74 kcal/mol
DOCKED: USER        vdW + Hbond + desolv Energy     =   -5.59 kcal/mol
DOCKED: USER        Electrostatic Energy            =   -0.15 kcal/mol
DOCKED: USER    (2) Final Total Internal Energy     =  -12.96 kcal/mol
DOCKED: USER    (3) Torsional Free Energy           =   +7.16 kcal/mol
DOCKED: USER    (4) Unbound System's Energy  [=(2)] =  -12.96 kcal/mol
DOCKED: USER    
DOCKED: USER    
DOCKED: USER    NEWDPF move IHP_ideal_opt.pdbqt
DOCKED: USER    NEWDPF about 0.035000 0.082000 -0.065000
DOCKED: USER    NEWDPF tran0 -4.279834 -14.633609 9.755246
DOCKED: USER    NEWDPF quaternion0 0.276991 0.679559 -0.634209 0.243423
DOCKED: USER    NEWDPF axisangle0 0.285582 0.700634 -0.653877 151.822697
DOCKED: USER    NEWDPF quat0 0.285582 0.700634 -0.653877 151.822697
DOCKED: USER    NEWDPF dihe0 113.26 158.24 153.14 -21.33 140.94 -122.79 -134.13 -18.61 180.00 18.22 19.37 -69.15 -76.62 172.03 18.70 -172.89 83.99 -53.03 59.49 14.63 -179.17 5.87 -8.64 180.00 
DOCKED: USER  keepresnum = 1 
DOCKED: USER  
DOCKED: REMARK  24 active torsions:
DOCKED: REMARK  status: ('A' for Active; 'I' for Inactive)
DOCKED: REMARK    1  A    between atoms: C_1  and  O_7 
DOCKED: REMARK    2  A    between atoms: C_2  and  O_12 
DOCKED: REMARK    3  A    between atoms: C_3  and  O_17 
DOCKED: REMARK    4  A    between atoms: C_4  and  O_22 
DOCKED: REMARK    5  A    between atoms: C_5  and  O_27 
DOCKED: REMARK    6  A    between atoms: C_6  and  O_32 
DOCKED: REMARK    7  A    between atoms: O_7  and  P_8 
DOCKED: REMARK    8  A    between atoms: P_8  and  O_10 
DOCKED: REMARK    9  A    between atoms: P_8  and  O_11 
DOCKED: REMARK   10  A    between atoms: O_12  and  P_13 
DOCKED: REMARK   11  A    between atoms: P_13  and  O_15 
DOCKED: REMARK   12  A    between atoms: P_13  and  O_16 
DOCKED: REMARK   13  A    between atoms: O_17  and  P_18 
DOCKED: REMARK   14  A    between atoms: P_18  and  O_20 
DOCKED: REMARK   15  A    between atoms: P_18  and  O_21 
DOCKED: REMARK   16  A    between atoms: O_22  and  P_23 
DOCKED: REMARK   17  A    between atoms: P_23  and  O_25 
DOCKED: REMARK   18  A    between atoms: P_23  and  O_26 
DOCKED: REMARK   19  A    between atoms: O_27  and  P_28 
DOCKED: REMARK   20  A    between atoms: P_28  and  O_30 
DOCKED: REMARK   21  A    between atoms: P_28  and  O_31 
DOCKED: REMARK   22  A    between atoms: O_32  and  P_33 
DOCKED: REMARK   23  A    between atoms: P_33  and  O_35 
DOCKED: REMARK   24  A    between atoms: P_33  and  O_36 
DOCKED: USER                              x       y       z     vdW  Elec       q    Type
DOCKED: USER                           _______ _______ _______ _____ _____    ______ ____
DOCKED: ROOT
DOCKED: ATOM      1  C   UNL d   1      -5.792 -14.388  10.554 -0.06 -0.00    +0.194 C 
DOCKED: ATOM      2  C   UNL d   1      -4.686 -15.008  11.409 -0.08 +0.01    +0.194 C 
DOCKED: ATOM      3  C   UNL d   1      -3.915 -16.085  10.644 -0.09 +0.02    +0.194 C 
DOCKED: ATOM      4  C   UNL d   1      -3.397 -15.607   9.290 -0.15 +0.04    +0.194 C 
DOCKED: ATOM      5  C   UNL d   1      -4.438 -14.879   8.449 -0.13 +0.01    +0.194 C 
DOCKED: ATOM      6  C   UNL d   1      -5.252 -13.845   9.230 -0.11 -0.01    +0.194 C 
DOCKED: ENDROOT
DOCKED: BRANCH   1   7
DOCKED: ATOM      7  O   UNL d   1      -6.345 -13.283  11.273 -0.07 +0.00    -0.278 OA
DOCKED: BRANCH   7   8
DOCKED: ATOM      8  P   UNL d   1      -7.074 -13.572  12.665 -0.02 -0.01    +0.473 P 
DOCKED: ATOM      9  O   UNL d   1      -7.621 -14.948  12.817 -0.01 +0.01    -0.228 OA
DOCKED: BRANCH   8  10
DOCKED: ATOM     10  O   UNL d   1      -5.974 -13.209  13.761 -0.06 -0.00    -0.303 OA
DOCKED: ATOM     11  H   UNL d   1      -5.113 -13.583  13.497 +0.05 +0.00    +0.222 HD
DOCKED: ENDBRANCH   8  10
DOCKED: BRANCH   8  12
DOCKED: ATOM     12  O   UNL d   1      -8.120 -12.388  12.837 -0.03 +0.01    -0.303 OA
DOCKED: ATOM     13  H   UNL d   1      -9.055 -12.689  12.792 +0.01 -0.01    +0.222 HD
DOCKED: ENDBRANCH   8  12
DOCKED: ENDBRANCH   7   8
DOCKED: ENDBRANCH   1   7
DOCKED: BRANCH   2  14
DOCKED: ATOM     14  O   UNL d   1      -3.767 -13.981  11.802 -0.47 -0.03    -0.278 OA
DOCKED: BRANCH  14  15
DOCKED: ATOM     15  P   UNL d   1      -3.093 -14.138  13.246 -0.20 +0.01    +0.473 P 
DOCKED: ATOM     16  O   UNL d   1      -3.094 -12.926  14.124 -0.32 -0.00    -0.228 OA
DOCKED: BRANCH  15  17
DOCKED: ATOM     17  O   UNL d   1      -3.857 -15.374  13.898 -0.05 +0.01    -0.303 OA
DOCKED: ATOM     18  H   UNL d   1      -3.776 -16.171  13.341 +0.05 -0.00    +0.222 HD
DOCKED: ENDBRANCH  15  17
DOCKED: BRANCH  15  19
DOCKED: ATOM     19  O   UNL d   1      -1.662 -14.767  12.949 -0.24 +0.00    -0.303 OA
DOCKED: ATOM     20  H   UNL d   1      -1.713 -15.732  12.816 +0.09 +0.00    +0.222 HD
DOCKED: ENDBRANCH  15  19
DOCKED: ENDBRANCH  14  15
DOCKED: ENDBRANCH   2  14
DOCKED: BRANCH   6  21
DOCKED: ATOM     21  O   UNL d   1      -6.379 -13.513   8.423 -0.10 +0.04    -0.278 OA
DOCKED: BRANCH  21  22
DOCKED: ATOM     22  P   UNL d   1      -7.629 -14.503   8.362 -0.04 -0.07    +0.473 P 
DOCKED: ATOM     23  O   UNL d   1      -8.191 -15.008   9.648 -0.01 +0.02    -0.228 OA
DOCKED: BRANCH  22  24
DOCKED: ATOM     24  O   UNL d   1      -8.653 -13.680   7.464 -0.11 +0.07    -0.303 OA
DOCKED: ATOM     25  H   UNL d   1      -8.343 -13.726   6.523 -0.43 -0.10    +0.222 HD
DOCKED: ENDBRANCH  22  24
DOCKED: BRANCH  22  26
DOCKED: ATOM     26  O   UNL d   1      -7.110 -15.619   7.335 -0.04 +0.06    -0.303 OA
DOCKED: ATOM     27  H   UNL d   1      -6.331 -16.071   7.718 +0.05 -0.03    +0.222 HD
DOCKED: ENDBRANCH  22  26
DOCKED: ENDBRANCH  21  22
DOCKED: ENDBRANCH   6  21
DOCKED: BRANCH   3  28
DOCKED: ATOM     28  O   UNL d   1      -2.754 -16.401  11.401 -0.13 -0.03    -0.278 OA
DOCKED: BRANCH  28  29
DOCKED: ATOM     29  P   UNL d   1      -2.558 -17.863  12.002 -0.07 +0.03    +0.473 P 
DOCKED: ATOM     30  O   UNL d   1      -1.167 -18.217  12.385 -0.21 -0.01    -0.228 OA
DOCKED: BRANCH  29  31
DOCKED: ATOM     31  O   UNL d   1      -3.648 -17.831  13.174 -0.01 +0.00    -0.303 OA
DOCKED: ATOM     32  H   UNL d   1      -3.253 -17.385  13.958 +0.05 -0.01    +0.222 HD
DOCKED: ENDBRANCH  29  31
DOCKED: BRANCH  29  33
DOCKED: ATOM     33  O   UNL d   1      -3.255 -18.774  10.898 -0.03 -0.03    -0.303 OA
DOCKED: ATOM     34  H   UNL d   1      -3.022 -18.427  10.002 +0.05 +0.05    +0.222 HD
DOCKED: ENDBRANCH  29  33
DOCKED: ENDBRANCH  28  29
DOCKED: ENDBRANCH   3  28
DOCKED: BRANCH   5  35
DOCKED: ATOM     35  O   UNL d   1      -3.705 -14.170   7.452 -0.21 -0.00    -0.278 OA
DOCKED: BRANCH  35  36
DOCKED: ATOM     36  P   UNL d   1      -3.986 -14.435   5.905 -0.31 -0.03    +0.473 P 
DOCKED: ATOM     37  O   UNL d   1      -4.248 -13.216   5.079 -0.79 +0.01    -0.228 OA
DOCKED: BRANCH  36  38
DOCKED: ATOM     38  O   UNL d   1      -2.690 -15.253   5.473 -0.47 -0.06    -0.303 OA
DOCKED: ATOM     39  H   UNL d   1      -2.943 -16.184   5.292 -0.04 -0.01    +0.222 HD
DOCKED: ENDBRANCH  36  38
DOCKED: BRANCH  36  40
DOCKED: ATOM     40  O   UNL d   1      -5.134 -15.535   5.952 -0.18 +0.07    -0.303 OA
DOCKED: ATOM     41  H   UNL d   1      -5.127 -16.033   6.800 +0.08 -0.03    +0.222 HD
DOCKED: ENDBRANCH  36  40
DOCKED: ENDBRANCH  35  36
DOCKED: ENDBRANCH   5  35
DOCKED: BRANCH   4  42
DOCKED: ATOM     42  O   UNL d   1      -3.007 -16.774   8.558 -0.16 -0.15    -0.278 OA
DOCKED: BRANCH  42  43
DOCKED: ATOM     43  P   UNL d   1      -4.135 -17.785   8.060 -0.07 +0.11    +0.473 P 
DOCKED: ATOM     44  O   UNL d   1      -5.529 -17.543   8.528 -0.02 +0.00    -0.228 OA
DOCKED: BRANCH  43  45
DOCKED: ATOM     45  O   UNL d   1      -3.964 -17.747   6.479 -0.46 +0.01    -0.303 OA
DOCKED: ATOM     46  H   UNL d   1      -4.001 -16.832   6.136 -0.04 -0.03    +0.222 HD
DOCKED: ENDBRANCH  43  45
DOCKED: BRANCH  43  47
DOCKED: ATOM     47  O   UNL d   1      -3.524 -19.223   8.420 -0.07 -0.09    -0.303 OA
DOCKED: ATOM     48  H   UNL d   1      -4.035 -19.615   9.158 +0.03 +0.03    +0.222 HD
DOCKED: ENDBRANCH  43  47
DOCKED: ENDBRANCH  42  43
DOCKED: ENDBRANCH   4  42
DOCKED: TORSDOF 24
DOCKED: TER
DOCKED: ENDMDL
________________________________________________________________________________


	BEGINNING GENETIC ALGORITHM DOCKING 61 of 100
Run: 61 Seed: 80002346 318653907 [ Run 61 of 100 GA/GALS ]
Beginning LAMARCKIAN GENETIC ALGORITHM (LGA), with a maximum of 25000000 energy evaluations.

Final-Value: -18.569


	FINAL GENETIC ALGORITHM DOCKED STATE
	_______________________________________________


Detailed state:  trans 6.434 -12.117 -8.484 quatxyzw 0.422395 0.705949 -0.318316 -0.471057 center 0.035 0.082 -0.065 ntor 24 -139.7618 -53.1026 46.7915 51.7156 142.2340 -96.3682 -60.5887 5.9258 100.2733 -21.8159 148.6325 117.3860 46.9583 139.5065 86.7778 163.1083 -139.0650 -144.8996 -145.4501 -16.5819 19.8481 19.8495 -15.5857 4.1020
State:	  6.434 -12.117  -8.484   0.479  0.800 -0.361 -123.794   -139.76  -53.10   46.79   51.72  142.23  -96.37  -60.59    5.93  100.27  -21.82  148.63  117.39   46.96  139.51   86.78  163.11 -139.06 -144.90 -145.45  -16.58   19.85   19.85  -15.59    4.10

DOCKED: MODEL       61
DOCKED: USER    Run = 61
DOCKED: USER    DPF = D:/Protein_go_brrr/autodock/final/mut_K82N/IHP/dock.dpf
DOCKED: USER  
DOCKED: USER    Estimated Free Energy of Binding    =   +2.72 kcal/mol  [=(1)+(2)+(3)-(4)]
DOCKED: USER    
DOCKED: USER    (1) Final Intermolecular Energy     =   -4.44 kcal/mol
DOCKED: USER        vdW + Hbond + desolv Energy     =   -4.42 kcal/mol
DOCKED: USER        Electrostatic Energy            =   -0.02 kcal/mol
DOCKED: USER    (2) Final Total Internal Energy     =  -14.13 kcal/mol
DOCKED: USER    (3) Torsional Free Energy           =   +7.16 kcal/mol
DOCKED: USER    (4) Unbound System's Energy  [=(2)] =  -14.13 kcal/mol
DOCKED: USER    
DOCKED: USER    
DOCKED: USER    NEWDPF move IHP_ideal_opt.pdbqt
DOCKED: USER    NEWDPF about 0.035000 0.082000 -0.065000
DOCKED: USER    NEWDPF tran0 6.433919 -12.117375 -8.483807
DOCKED: USER    NEWDPF quaternion0 0.422395 0.705949 -0.318316 -0.471057
DOCKED: USER    NEWDPF axisangle0 0.478850 0.800302 -0.360860 -123.794176
DOCKED: USER    NEWDPF quat0 0.478850 0.800302 -0.360860 -123.794176
DOCKED: USER    NEWDPF dihe0 -139.76 -53.10 46.79 51.72 142.23 -96.37 -60.59 5.93 100.27 -21.82 148.63 117.39 46.96 139.51 86.78 163.11 -139.06 -144.90 -145.45 -16.58 19.85 19.85 -15.59 4.10 
DOCKED: USER  keepresnum = 1 
DOCKED: USER  
DOCKED: REMARK  24 active torsions:
DOCKED: REMARK  status: ('A' for Active; 'I' for Inactive)
DOCKED: REMARK    1  A    between atoms: C_1  and  O_7 
DOCKED: REMARK    2  A    between atoms: C_2  and  O_12 
DOCKED: REMARK    3  A    between atoms: C_3  and  O_17 
DOCKED: REMARK    4  A    between atoms: C_4  and  O_22 
DOCKED: REMARK    5  A    between atoms: C_5  and  O_27 
DOCKED: REMARK    6  A    between atoms: C_6  and  O_32 
DOCKED: REMARK    7  A    between atoms: O_7  and  P_8 
DOCKED: REMARK    8  A    between atoms: P_8  and  O_10 
DOCKED: REMARK    9  A    between atoms: P_8  and  O_11 
DOCKED: REMARK   10  A    between atoms: O_12  and  P_13 
DOCKED: REMARK   11  A    between atoms: P_13  and  O_15 
DOCKED: REMARK   12  A    between atoms: P_13  and  O_16 
DOCKED: REMARK   13  A    between atoms: O_17  and  P_18 
DOCKED: REMARK   14  A    between atoms: P_18  and  O_20 
DOCKED: REMARK   15  A    between atoms: P_18  and  O_21 
DOCKED: REMARK   16  A    between atoms: O_22  and  P_23 
DOCKED: REMARK   17  A    between atoms: P_23  and  O_25 
DOCKED: REMARK   18  A    between atoms: P_23  and  O_26 
DOCKED: REMARK   19  A    between atoms: O_27  and  P_28 
DOCKED: REMARK   20  A    between atoms: P_28  and  O_30 
DOCKED: REMARK   21  A    between atoms: P_28  and  O_31 
DOCKED: REMARK   22  A    between atoms: O_32  and  P_33 
DOCKED: REMARK   23  A    between atoms: P_33  and  O_35 
DOCKED: REMARK   24  A    between atoms: P_33  and  O_36 
DOCKED: USER                              x       y       z     vdW  Elec       q    Type
DOCKED: USER                           _______ _______ _______ _____ _____    ______ ____
DOCKED: ROOT
DOCKED: ATOM      1  C   UNL d   1       5.702 -12.807  -9.888 -0.04 +0.01    +0.194 C 
DOCKED: ATOM      2  C   UNL d   1       5.084 -13.219  -8.551 -0.06 +0.04    +0.194 C 
DOCKED: ATOM      3  C   UNL d   1       6.155 -13.528  -7.503 -0.05 +0.04    +0.194 C 
DOCKED: ATOM      4  C   UNL d   1       7.182 -12.410  -7.344 -0.07 +0.02    +0.194 C 
DOCKED: ATOM      5  C   UNL d   1       7.741 -11.889  -8.662 -0.07 +0.00    +0.194 C 
DOCKED: ATOM      6  C   UNL d   1       6.674 -11.638  -9.731 -0.07 -0.00    +0.194 C 
DOCKED: ENDROOT
DOCKED: BRANCH   1   7
DOCKED: ATOM      7  O   UNL d   1       4.648 -12.372 -10.751 -0.07 -0.00    -0.278 OA
DOCKED: BRANCH   7   8
DOCKED: ATOM      8  P   UNL d   1       4.275 -10.819 -10.770 -0.19 -0.03    +0.473 P 
DOCKED: ATOM      9  O   UNL d   1       4.868 -10.041 -11.892 -0.46 +0.02    -0.228 OA
DOCKED: BRANCH   8  10
DOCKED: ATOM     10  O   UNL d   1       2.680 -10.804 -10.770 -0.20 +0.01    -0.303 OA
DOCKED: ATOM     11  H   UNL d   1       2.349 -11.217  -9.950 +0.09 -0.00    +0.222 HD
DOCKED: ENDBRANCH   8  10
DOCKED: BRANCH   8  12
DOCKED: ATOM     12  O   UNL d   1       4.612 -10.295  -9.308 -0.22 -0.00    -0.303 OA
DOCKED: ATOM     13  H   UNL d   1       3.822 -10.246  -8.724 -0.05 +0.01    +0.222 HD
DOCKED: ENDBRANCH   8  12
DOCKED: ENDBRANCH   7   8
DOCKED: ENDBRANCH   1   7
DOCKED: BRANCH   2  14
DOCKED: ATOM     14  O   UNL d   1       4.266 -12.147  -8.065 -0.16 -0.07    -0.278 OA
DOCKED: BRANCH  14  15
DOCKED: ATOM     15  P   UNL d   1       2.694 -12.437  -7.959 -0.17 +0.13    +0.473 P 
DOCKED: ATOM     16  O   UNL d   1       1.801 -11.248  -7.791 -0.39 +0.01    -0.228 OA
DOCKED: BRANCH  15  17
DOCKED: ATOM     17  O   UNL d   1       2.366 -13.276  -9.272 -0.62 -0.09    -0.303 OA
DOCKED: ATOM     18  H   UNL d   1       2.736 -12.846 -10.067 +0.09 +0.03    +0.222 HD
DOCKED: ENDBRANCH  15  17
DOCKED: BRANCH  15  19
DOCKED: ATOM     19  O   UNL d   1       2.572 -13.551  -6.830 -0.31 -0.24    -0.303 OA
DOCKED: ATOM     20  H   UNL d   1       3.446 -13.888  -6.559 +0.09 +0.21    +0.222 HD
DOCKED: ENDBRANCH  15  19
DOCKED: ENDBRANCH  14  15
DOCKED: ENDBRANCH   2  14
DOCKED: BRANCH   6  21
DOCKED: ATOM     21  O   UNL d   1       7.361 -11.495 -10.972 -0.02 +0.01    -0.278 OA
DOCKED: BRANCH  21  22
DOCKED: ATOM     22  P   UNL d   1       8.004 -10.089 -11.365 -0.02 -0.04    +0.473 P 
DOCKED: ATOM     23  O   UNL d   1       9.484 -10.013 -11.533 -0.01 +0.02    -0.228 OA
DOCKED: BRANCH  22  24
DOCKED: ATOM     24  O   UNL d   1       7.164  -9.696 -12.658 -0.45 +0.01    -0.303 OA
DOCKED: ATOM     25  H   UNL d   1       6.271  -9.385 -12.363 +0.07 +0.00    +0.222 HD
DOCKED: ENDBRANCH  22  24
DOCKED: BRANCH  22  26
DOCKED: ATOM     26  O   UNL d   1       7.373  -9.121 -10.253 -0.08 +0.04    -0.303 OA
DOCKED: ATOM     27  H   UNL d   1       7.959  -9.105  -9.470 +0.04 -0.04    +0.222 HD
DOCKED: ENDBRANCH  22  26
DOCKED: ENDBRANCH  21  22
DOCKED: ENDBRANCH   6  21
DOCKED: BRANCH   3  28
DOCKED: ATOM     28  O   UNL d   1       5.505 -13.625  -6.242 -0.08 -0.14    -0.278 OA
DOCKED: BRANCH  28  29
DOCKED: ATOM     29  P   UNL d   1       5.776 -14.874  -5.291 -0.06 +0.32    +0.473 P 
DOCKED: ATOM     30  O   UNL d   1       5.959 -14.556  -3.852 -0.18 -0.13    -0.228 OA
DOCKED: BRANCH  29  31
DOCKED: ATOM     31  O   UNL d   1       4.527 -15.796  -5.678 -0.45 -0.42    -0.303 OA
DOCKED: ATOM     32  H   UNL d   1       3.916 -15.274  -6.248 +0.06 +0.29    +0.222 HD
DOCKED: ENDBRANCH  29  31
DOCKED: BRANCH  29  33
DOCKED: ATOM     33  O   UNL d   1       6.989 -15.597  -6.027 -0.01 -0.08    -0.303 OA
DOCKED: ATOM     34  H   UNL d   1       7.778 -15.003  -6.006 +0.02 +0.04    +0.222 HD
DOCKED: ENDBRANCH  29  33
DOCKED: ENDBRANCH  28  29
DOCKED: ENDBRANCH   3  28
DOCKED: BRANCH   5  35
DOCKED: ATOM     35  O   UNL d   1       8.336 -10.629  -8.359 -0.09 +0.02    -0.278 OA
DOCKED: BRANCH  35  36
DOCKED: ATOM     36  P   UNL d   1       9.911 -10.425  -8.512 -0.04 -0.03    +0.473 P 
DOCKED: ATOM     37  O   UNL d   1      10.710 -10.627  -7.264 -0.03 +0.01    -0.228 OA
DOCKED: BRANCH  36  38
DOCKED: ATOM     38  O   UNL d   1      10.259 -11.445  -9.684 -0.00 +0.02    -0.303 OA
DOCKED: ATOM     39  H   UNL d   1       9.484 -11.525 -10.281 +0.01 -0.01    +0.222 HD
DOCKED: ENDBRANCH  36  38
DOCKED: BRANCH  36  40
DOCKED: ATOM     40  O   UNL d   1      10.003  -8.997  -9.205 -0.02 +0.03    -0.303 OA
DOCKED: ATOM     41  H   UNL d   1       9.593  -8.999 -10.098 +0.02 -0.03    +0.222 HD
DOCKED: ENDBRANCH  36  40
DOCKED: ENDBRANCH  35  36
DOCKED: ENDBRANCH   5  35
DOCKED: BRANCH   4  42
DOCKED: ATOM     42  O   UNL d   1       8.281 -12.957  -6.608 -0.04 -0.03    -0.278 OA
DOCKED: BRANCH  42  43
DOCKED: ATOM     43  P   UNL d   1       8.484 -12.521  -5.087 -0.01 +0.07    +0.473 P 
DOCKED: ATOM     44  O   UNL d   1       9.495 -11.463  -4.806 -0.12 -0.02    -0.228 OA
DOCKED: BRANCH  43  45
DOCKED: ATOM     45  O   UNL d   1       7.006 -12.147  -4.631 -0.13 -0.12    -0.303 OA
DOCKED: ATOM     46  H   UNL d   1       6.465 -12.947  -4.479 +0.07 +0.09    +0.222 HD
DOCKED: ENDBRANCH  43  45
DOCKED: BRANCH  43  47
DOCKED: ATOM     47  O   UNL d   1       8.715 -13.916  -4.334 -0.01 -0.04    -0.303 OA
DOCKED: ATOM     48  H   UNL d   1       7.905 -14.462  -4.411 +0.05 +0.04    +0.222 HD
DOCKED: ENDBRANCH  43  47
DOCKED: ENDBRANCH  42  43
DOCKED: ENDBRANCH   4  42
DOCKED: TORSDOF 24
DOCKED: TER
DOCKED: ENDMDL
________________________________________________________________________________


	BEGINNING GENETIC ALGORITHM DOCKING 62 of 100
Run: 62 Seed: 355777852 1227747473 [ Run 62 of 100 GA/GALS ]
Beginning LAMARCKIAN GENETIC ALGORITHM (LGA), with a maximum of 25000000 energy evaluations.

Final-Value: -18.389


	FINAL GENETIC ALGORITHM DOCKED STATE
	_______________________________________________


Detailed state:  trans 10.305 -14.153 -2.125 quatxyzw -0.824755 -0.459192 -0.210383 -0.254283 center 0.035 0.082 -0.065 ntor 24 94.3306 -132.5125 -162.0149 -33.6071 19.0783 -152.4837 -105.6915 -40.0266 103.4026 13.3871 -7.0296 -158.3460 -81.0037 180.0000 -54.3966 -14.3097 124.1661 -12.9107 63.6727 19.9772 -180.0000 16.0349 -5.6323 -179.5348
State:	 10.305 -14.153  -2.125  -0.853 -0.475 -0.218 -150.538     94.33 -132.51 -162.01  -33.61   19.08 -152.48 -105.69  -40.03  103.40   13.39   -7.03 -158.35  -81.00  180.00  -54.40  -14.31  124.17  -12.91   63.67   19.98 -180.00   16.03   -5.63 -179.53

DOCKED: MODEL       62
DOCKED: USER    Run = 62
DOCKED: USER    DPF = D:/Protein_go_brrr/autodock/final/mut_K82N/IHP/dock.dpf
DOCKED: USER  
DOCKED: USER    Estimated Free Energy of Binding    =   +2.83 kcal/mol  [=(1)+(2)+(3)-(4)]
DOCKED: USER    
DOCKED: USER    (1) Final Intermolecular Energy     =   -4.33 kcal/mol
DOCKED: USER        vdW + Hbond + desolv Energy     =   -4.11 kcal/mol
DOCKED: USER        Electrostatic Energy            =   -0.22 kcal/mol
DOCKED: USER    (2) Final Total Internal Energy     =  -14.06 kcal/mol
DOCKED: USER    (3) Torsional Free Energy           =   +7.16 kcal/mol
DOCKED: USER    (4) Unbound System's Energy  [=(2)] =  -14.06 kcal/mol
DOCKED: USER    
DOCKED: USER    
DOCKED: USER    NEWDPF move IHP_ideal_opt.pdbqt
DOCKED: USER    NEWDPF about 0.035000 0.082000 -0.065000
DOCKED: USER    NEWDPF tran0 10.305332 -14.152621 -2.124975
DOCKED: USER    NEWDPF quaternion0 -0.824755 -0.459192 -0.210383 -0.254283
DOCKED: USER    NEWDPF axisangle0 -0.852787 -0.474799 -0.217533 -150.537742
DOCKED: USER    NEWDPF quat0 -0.852787 -0.474799 -0.217533 -150.537742
DOCKED: USER    NEWDPF dihe0 94.33 -132.51 -162.01 -33.61 19.08 -152.48 -105.69 -40.03 103.40 13.39 -7.03 -158.35 -81.00 180.00 -54.40 -14.31 124.17 -12.91 63.67 19.98 -180.00 16.03 -5.63 -179.53 
DOCKED: USER  keepresnum = 1 
DOCKED: USER  
DOCKED: REMARK  24 active torsions:
DOCKED: REMARK  status: ('A' for Active; 'I' for Inactive)
DOCKED: REMARK    1  A    between atoms: C_1  and  O_7 
DOCKED: REMARK    2  A    between atoms: C_2  and  O_12 
DOCKED: REMARK    3  A    between atoms: C_3  and  O_17 
DOCKED: REMARK    4  A    between atoms: C_4  and  O_22 
DOCKED: REMARK    5  A    between atoms: C_5  and  O_27 
DOCKED: REMARK    6  A    between atoms: C_6  and  O_32 
DOCKED: REMARK    7  A    between atoms: O_7  and  P_8 
DOCKED: REMARK    8  A    between atoms: P_8  and  O_10 
DOCKED: REMARK    9  A    between atoms: P_8  and  O_11 
DOCKED: REMARK   10  A    between atoms: O_12  and  P_13 
DOCKED: REMARK   11  A    between atoms: P_13  and  O_15 
DOCKED: REMARK   12  A    between atoms: P_13  and  O_16 
DOCKED: REMARK   13  A    between atoms: O_17  and  P_18 
DOCKED: REMARK   14  A    between atoms: P_18  and  O_20 
DOCKED: REMARK   15  A    between atoms: P_18  and  O_21 
DOCKED: REMARK   16  A    between atoms: O_22  and  P_23 
DOCKED: REMARK   17  A    between atoms: P_23  and  O_25 
DOCKED: REMARK   18  A    between atoms: P_23  and  O_26 
DOCKED: REMARK   19  A    between atoms: O_27  and  P_28 
DOCKED: REMARK   20  A    between atoms: P_28  and  O_30 
DOCKED: REMARK   21  A    between atoms: P_28  and  O_31 
DOCKED: REMARK   22  A    between atoms: O_32  and  P_33 
DOCKED: REMARK   23  A    between atoms: P_33  and  O_35 
DOCKED: REMARK   24  A    between atoms: P_33  and  O_36 
DOCKED: USER                              x       y       z     vdW  Elec       q    Type
DOCKED: USER                           _______ _______ _______ _____ _____    ______ ____
DOCKED: ROOT
DOCKED: ATOM      1  C   UNL d   1      10.241 -12.454  -1.815 -0.03 +0.02    +0.194 C 
DOCKED: ATOM      2  C   UNL d   1       8.893 -13.131  -2.069 -0.05 +0.02    +0.194 C 
DOCKED: ATOM      3  C   UNL d   1       8.966 -14.118  -3.236 -0.02 +0.02    +0.194 C 
DOCKED: ATOM      4  C   UNL d   1      10.102 -15.129  -3.099 -0.00 +0.02    +0.194 C 
DOCKED: ATOM      5  C   UNL d   1      11.444 -14.508  -2.733 +0.00 +0.01    +0.194 C 
DOCKED: ATOM      6  C   UNL d   1      11.361 -13.475  -1.607 -0.01 +0.01    +0.194 C 
DOCKED: ENDROOT
DOCKED: BRANCH   1   7
DOCKED: ATOM      7  O   UNL d   1      10.135 -11.686  -0.614 -0.05 -0.03    -0.278 OA
DOCKED: BRANCH   7   8
DOCKED: ATOM      8  P   UNL d   1       9.030 -10.536  -0.544 -0.14 +0.04    +0.473 P 
DOCKED: ATOM      9  O   UNL d   1       8.690  -9.907  -1.849 -0.14 -0.02    -0.228 OA
DOCKED: BRANCH   8  10
DOCKED: ATOM     10  O   UNL d   1       7.782 -11.240   0.158 -0.27 -0.03    -0.303 OA
DOCKED: ATOM     11  H   UNL d   1       7.454 -11.963  -0.409 +0.13 +0.03    +0.222 HD
DOCKED: ENDBRANCH   8  10
DOCKED: BRANCH   8  12
DOCKED: ATOM     12  O   UNL d   1       9.535  -9.546   0.592 -0.27 -0.02    -0.303 OA
DOCKED: ATOM     13  H   UNL d   1       8.914  -8.802   0.760 +0.01 -0.01    +0.222 HD
DOCKED: ENDBRANCH   8  12
DOCKED: ENDBRANCH   7   8
DOCKED: ENDBRANCH   1   7
DOCKED: BRANCH   2  14
DOCKED: ATOM     14  O   UNL d   1       8.500 -13.845  -0.891 -0.09 -0.05    -0.278 OA
DOCKED: BRANCH  14  15
DOCKED: ATOM     15  P   UNL d   1       6.926 -14.019  -0.651 -0.20 +0.12    +0.473 P 
DOCKED: ATOM     16  O   UNL d   1       6.387 -13.528   0.656 -0.77 -0.10    -0.228 OA
DOCKED: BRANCH  15  17
DOCKED: ATOM     17  O   UNL d   1       6.261 -13.295  -1.905 -0.20 -0.07    -0.303 OA
DOCKED: ATOM     18  H   UNL d   1       5.955 -13.946  -2.565 -0.29 +0.06    +0.222 HD
DOCKED: ENDBRANCH  15  17
DOCKED: BRANCH  15  19
DOCKED: ATOM     19  O   UNL d   1       6.642 -15.550  -0.979 -0.20 -0.06    -0.303 OA
DOCKED: ATOM     20  H   UNL d   1       6.371 -15.676  -1.907 -0.46 +0.02    +0.222 HD
DOCKED: ENDBRANCH  15  19
DOCKED: ENDBRANCH  14  15
DOCKED: ENDBRANCH   2  14
DOCKED: BRANCH   6  21
DOCKED: ATOM     21  O   UNL d   1      12.591 -12.753  -1.618 -0.00 -0.01    -0.278 OA
DOCKED: BRANCH  21  22
DOCKED: ATOM     22  P   UNL d   1      12.835 -11.620  -2.714 +0.00 +0.01    +0.473 P 
DOCKED: ATOM     23  O   UNL d   1      12.069 -11.699  -3.992 -0.00 -0.00    -0.228 OA
DOCKED: BRANCH  22  24
DOCKED: ATOM     24  O   UNL d   1      12.591 -10.293  -1.870 -0.00 -0.01    -0.303 OA
DOCKED: ATOM     25  H   UNL d   1      11.754 -10.407  -1.352 +0.03 +0.01    +0.222 HD
DOCKED: ENDBRANCH  22  24
DOCKED: BRANCH  22  26
DOCKED: ATOM     26  O   UNL d   1      14.432 -11.637  -2.850 +0.00 -0.00    -0.303 OA
DOCKED: ATOM     27  H   UNL d   1      14.757 -12.552  -2.719 +0.00 +0.00    +0.222 HD
DOCKED: ENDBRANCH  22  26
DOCKED: ENDBRANCH  21  22
DOCKED: ENDBRANCH   6  21
DOCKED: BRANCH   3  28
DOCKED: ATOM     28  O   UNL d   1       7.771 -14.890  -3.220 -0.06 -0.05    -0.278 OA
DOCKED: BRANCH  28  29
DOCKED: ATOM     29  P   UNL d   1       6.867 -15.001  -4.526 -0.05 +0.17    +0.473 P 
DOCKED: ATOM     30  O   UNL d   1       6.712 -13.746  -5.306 -0.08 -0.08    -0.228 OA
DOCKED: BRANCH  29  31
DOCKED: ATOM     31  O   UNL d   1       7.587 -16.228  -5.260 -0.01 -0.07    -0.303 OA
DOCKED: ATOM     32  H   UNL d   1       8.546 -16.021  -5.350 +0.02 +0.03    +0.222 HD
DOCKED: ENDBRANCH  29  31
DOCKED: BRANCH  29  33
DOCKED: ATOM     33  O   UNL d   1       5.536 -15.663  -3.956 -0.43 -0.26    -0.303 OA
DOCKED: ATOM     34  H   UNL d   1       5.508 -15.535  -2.976 -0.52 +0.07    +0.222 HD
DOCKED: ENDBRANCH  29  33
DOCKED: ENDBRANCH  28  29
DOCKED: ENDBRANCH   3  28
DOCKED: BRANCH   5  35
DOCKED: ATOM     35  O   UNL d   1      12.251 -15.583  -2.257 -0.00 -0.01    -0.278 OA
DOCKED: BRANCH  35  36
DOCKED: ATOM     36  P   UNL d   1      13.675 -15.872  -2.915 -0.00 +0.01    +0.473 P 
DOCKED: ATOM     37  O   UNL d   1      14.543 -16.839  -2.175 +0.00 -0.00    -0.228 OA
DOCKED: BRANCH  36  38
DOCKED: ATOM     38  O   UNL d   1      13.267 -16.347  -4.379 +0.00 -0.00    -0.303 OA
DOCKED: ATOM     39  H   UNL d   1      12.459 -15.866  -4.660 +0.00 +0.00    +0.222 HD
DOCKED: ENDBRANCH  36  38
DOCKED: BRANCH  36  40
DOCKED: ATOM     40  O   UNL d   1      14.252 -14.406  -3.136 +0.00 -0.00    -0.303 OA
DOCKED: ATOM     41  H   UNL d   1      13.533 -13.748  -3.264 +0.00 +0.00    +0.222 HD
DOCKED: ENDBRANCH  36  40
DOCKED: ENDBRANCH  35  36
DOCKED: ENDBRANCH   5  35
DOCKED: BRANCH   4  42
DOCKED: ATOM     42  O   UNL d   1      10.261 -15.749  -4.379 +0.00 -0.02    -0.278 OA
DOCKED: BRANCH  42  43
DOCKED: ATOM     43  P   UNL d   1      10.842 -14.886  -5.588 +0.01 +0.02    +0.473 P 
DOCKED: ATOM     44  O   UNL d   1      11.839 -13.829  -5.261 +0.00 -0.00    -0.228 OA
DOCKED: BRANCH  43  45
DOCKED: ATOM     45  O   UNL d   1      11.380 -16.002  -6.587 +0.00 -0.00    -0.303 OA
DOCKED: ATOM     46  H   UNL d   1      12.255 -16.339  -6.310 +0.00 +0.00    +0.222 HD
DOCKED: ENDBRANCH  43  45
DOCKED: BRANCH  43  47
DOCKED: ATOM     47  O   UNL d   1       9.522 -14.381  -6.345 +0.00 -0.02    -0.303 OA
DOCKED: ATOM     48  H   UNL d   1       8.760 -14.431  -5.731 +0.02 +0.03    +0.222 HD
DOCKED: ENDBRANCH  43  47
DOCKED: ENDBRANCH  42  43
DOCKED: ENDBRANCH   4  42
DOCKED: TORSDOF 24
DOCKED: TER
DOCKED: ENDMDL
________________________________________________________________________________


	BEGINNING GENETIC ALGORITHM DOCKING 63 of 100
Run: 63 Seed: 1481658809 1525953838 [ Run 63 of 100 GA/GALS ]
Beginning LAMARCKIAN GENETIC ALGORITHM (LGA), with a maximum of 25000000 energy evaluations.

Final-Value: -18.607


	FINAL GENETIC ALGORITHM DOCKED STATE
	_______________________________________________


Detailed state:  trans 10.139 -12.197 -1.905 quatxyzw 0.680378 0.162667 -0.373894 0.608957 center 0.035 0.082 -0.065 ntor 24 78.4028 45.3821 40.4837 19.5104 -12.3137 150.0464 7.1704 -129.5341 73.5566 -39.1022 106.9070 -40.7875 172.5081 -179.6133 -179.5177 -102.6640 -179.8965 32.5161 42.8651 -2.2617 173.3675 31.7509 21.5934 -167.7293
State:	 10.139 -12.197  -1.905   0.858  0.205 -0.471 104.972     78.40   45.38   40.48   19.51  -12.31  150.05    7.17 -129.53   73.56  -39.10  106.91  -40.79  172.51 -179.61 -179.52 -102.66 -179.90   32.52   42.87   -2.26  173.37   31.75   21.59 -167.73

DOCKED: MODEL       63
DOCKED: USER    Run = 63
DOCKED: USER    DPF = D:/Protein_go_brrr/autodock/final/mut_K82N/IHP/dock.dpf
DOCKED: USER  
DOCKED: USER    Estimated Free Energy of Binding    =   +2.11 kcal/mol  [=(1)+(2)+(3)-(4)]
DOCKED: USER    
DOCKED: USER    (1) Final Intermolecular Energy     =   -5.05 kcal/mol
DOCKED: USER        vdW + Hbond + desolv Energy     =   -4.96 kcal/mol
DOCKED: USER        Electrostatic Energy            =   -0.10 kcal/mol
DOCKED: USER    (2) Final Total Internal Energy     =  -13.56 kcal/mol
DOCKED: USER    (3) Torsional Free Energy           =   +7.16 kcal/mol
DOCKED: USER    (4) Unbound System's Energy  [=(2)] =  -13.56 kcal/mol
DOCKED: USER    
DOCKED: USER    
DOCKED: USER    NEWDPF move IHP_ideal_opt.pdbqt
DOCKED: USER    NEWDPF about 0.035000 0.082000 -0.065000
DOCKED: USER    NEWDPF tran0 10.138756 -12.197387 -1.904639
DOCKED: USER    NEWDPF quaternion0 0.680378 0.162667 -0.373894 0.608957
DOCKED: USER    NEWDPF axisangle0 0.857760 0.205076 -0.471372 104.971787
DOCKED: USER    NEWDPF quat0 0.857760 0.205076 -0.471372 104.971787
DOCKED: USER    NEWDPF dihe0 78.40 45.38 40.48 19.51 -12.31 150.05 7.17 -129.53 73.56 -39.10 106.91 -40.79 172.51 -179.61 -179.52 -102.66 -179.90 32.52 42.87 -2.26 173.37 31.75 21.59 -167.73 
DOCKED: USER  keepresnum = 1 
DOCKED: USER  
DOCKED: REMARK  24 active torsions:
DOCKED: REMARK  status: ('A' for Active; 'I' for Inactive)
DOCKED: REMARK    1  A    between atoms: C_1  and  O_7 
DOCKED: REMARK    2  A    between atoms: C_2  and  O_12 
DOCKED: REMARK    3  A    between atoms: C_3  and  O_17 
DOCKED: REMARK    4  A    between atoms: C_4  and  O_22 
DOCKED: REMARK    5  A    between atoms: C_5  and  O_27 
DOCKED: REMARK    6  A    between atoms: C_6  and  O_32 
DOCKED: REMARK    7  A    between atoms: O_7  and  P_8 
DOCKED: REMARK    8  A    between atoms: P_8  and  O_10 
DOCKED: REMARK    9  A    between atoms: P_8  and  O_11 
DOCKED: REMARK   10  A    between atoms: O_12  and  P_13 
DOCKED: REMARK   11  A    between atoms: P_13  and  O_15 
DOCKED: REMARK   12  A    between atoms: P_13  and  O_16 
DOCKED: REMARK   13  A    between atoms: O_17  and  P_18 
DOCKED: REMARK   14  A    between atoms: P_18  and  O_20 
DOCKED: REMARK   15  A    between atoms: P_18  and  O_21 
DOCKED: REMARK   16  A    between atoms: O_22  and  P_23 
DOCKED: REMARK   17  A    between atoms: P_23  and  O_25 
DOCKED: REMARK   18  A    between atoms: P_23  and  O_26 
DOCKED: REMARK   19  A    between atoms: O_27  and  P_28 
DOCKED: REMARK   20  A    between atoms: P_28  and  O_30 
DOCKED: REMARK   21  A    between atoms: P_28  and  O_31 
DOCKED: REMARK   22  A    between atoms: O_32  and  P_33 
DOCKED: REMARK   23  A    between atoms: P_33  and  O_35 
DOCKED: REMARK   24  A    between atoms: P_33  and  O_36 
DOCKED: USER                              x       y       z     vdW  Elec       q    Type
DOCKED: USER                           _______ _______ _______ _____ _____    ______ ____
DOCKED: ROOT
DOCKED: ATOM      1  C   UNL d   1      10.624 -10.608  -1.433 -0.06 +0.01    +0.194 C 
DOCKED: ATOM      2  C   UNL d   1      10.240 -11.548  -0.289 -0.10 +0.02    +0.194 C 
DOCKED: ATOM      3  C   UNL d   1       8.979 -12.352  -0.615 -0.12 +0.03    +0.194 C 
DOCKED: ATOM      4  C   UNL d   1       9.058 -13.077  -1.957 -0.05 +0.02    +0.194 C 
DOCKED: ATOM      5  C   UNL d   1       9.548 -12.205  -3.106 -0.04 +0.02    +0.194 C 
DOCKED: ATOM      6  C   UNL d   1      10.772 -11.354  -2.760 -0.02 +0.01    +0.194 C 
DOCKED: ENDROOT
DOCKED: BRANCH   1   7
DOCKED: ATOM      7  O   UNL d   1      11.894 -10.028  -1.126 -0.02 -0.01    -0.278 OA
DOCKED: BRANCH   7   8
DOCKED: ATOM      8  P   UNL d   1      11.941  -8.804  -0.101 -0.03 +0.01    +0.473 P 
DOCKED: ATOM      9  O   UNL d   1      12.819  -7.673  -0.509 -0.03 -0.00    -0.228 OA
DOCKED: BRANCH   8  10
DOCKED: ATOM     10  O   UNL d   1      10.412  -8.382   0.069 -0.16 -0.00    -0.303 OA
DOCKED: ATOM     11  H   UNL d   1      10.135  -7.842  -0.694 +0.10 +0.01    +0.222 HD
DOCKED: ENDBRANCH   8  10
DOCKED: BRANCH   8  12
DOCKED: ATOM     12  O   UNL d   1      12.265  -9.459   1.310 -0.05 -0.02    -0.303 OA
DOCKED: ATOM     13  H   UNL d   1      12.368 -10.436   1.266 +0.05 +0.02    +0.222 HD
DOCKED: ENDBRANCH   8  12
DOCKED: ENDBRANCH   7   8
DOCKED: ENDBRANCH   1   7
DOCKED: BRANCH   2  14
DOCKED: ATOM     14  O   UNL d   1      11.317 -12.464  -0.056 -0.02 -0.03    -0.278 OA
DOCKED: BRANCH  14  15
DOCKED: ATOM     15  P   UNL d   1      11.822 -12.604   1.457 -0.05 +0.08    +0.473 P 
DOCKED: ATOM     16  O   UNL d   1      13.275 -12.350   1.708 -0.02 -0.02    -0.228 OA
DOCKED: BRANCH  15  17
DOCKED: ATOM     17  O   UNL d   1      10.873 -11.619   2.275 -0.09 -0.08    -0.303 OA
DOCKED: ATOM     18  H   UNL d   1      10.904 -10.716   1.907 +0.07 +0.04    +0.222 HD
DOCKED: ENDBRANCH  15  17
DOCKED: BRANCH  15  19
DOCKED: ATOM     19  O   UNL d   1      11.284 -14.027   1.924 -0.07 -0.08    -0.303 OA
DOCKED: ATOM     20  H   UNL d   1      10.382 -14.197   1.595 +0.07 +0.06    +0.222 HD
DOCKED: ENDBRANCH  15  19
DOCKED: ENDBRANCH  14  15
DOCKED: ENDBRANCH   2  14
DOCKED: BRANCH   6  21
DOCKED: ATOM     21  O   UNL d   1      10.892 -10.369  -3.783 -0.03 -0.01    -0.278 OA
DOCKED: BRANCH  21  22
DOCKED: ATOM     22  P   UNL d   1       9.835  -9.177  -3.863 -0.08 +0.04    +0.473 P 
DOCKED: ATOM     23  O   UNL d   1       9.519  -8.604  -5.203 -0.67 -0.01    -0.228 OA
DOCKED: BRANCH  22  24
DOCKED: ATOM     24  O   UNL d   1       8.588  -9.797  -3.092 -0.24 -0.04    -0.303 OA
DOCKED: ATOM     25  H   UNL d   1       8.121 -10.416  -3.708 +0.07 +0.05    +0.222 HD
DOCKED: ENDBRANCH  22  24
DOCKED: BRANCH  22  26
DOCKED: ATOM     26  O   UNL d   1      10.418  -8.151  -2.779 -0.07 -0.01    -0.303 OA
DOCKED: ATOM     27  H   UNL d   1      10.964  -8.642  -2.132 +0.05 +0.01    +0.222 HD
DOCKED: ENDBRANCH  22  26
DOCKED: ENDBRANCH  21  22
DOCKED: ENDBRANCH   6  21
DOCKED: BRANCH   3  28
DOCKED: ATOM     28  O   UNL d   1       8.861 -13.378   0.362 -0.13 -0.05    -0.278 OA
DOCKED: BRANCH  28  29
DOCKED: ATOM     29  P   UNL d   1       7.429 -13.796   0.919 -0.18 +0.16    +0.473 P 
DOCKED: ATOM     30  O   UNL d   1       7.300 -13.821   2.399 -0.56 -0.06    -0.228 OA
DOCKED: BRANCH  29  31
DOCKED: ATOM     31  O   UNL d   1       6.506 -12.756   0.127 -0.40 -0.08    -0.303 OA
DOCKED: ATOM     32  H   UNL d   1       6.638 -12.892  -0.839 +0.12 +0.05    +0.222 HD
DOCKED: ENDBRANCH  29  31
DOCKED: BRANCH  29  33
DOCKED: ATOM     33  O   UNL d   1       7.157 -15.164   0.150 -0.81 -0.14    -0.303 OA
DOCKED: ATOM     34  H   UNL d   1       6.993 -14.968  -0.805 +0.01 +0.05    +0.222 HD
DOCKED: ENDBRANCH  29  33
DOCKED: ENDBRANCH  28  29
DOCKED: ENDBRANCH   3  28
DOCKED: BRANCH   5  35
DOCKED: ATOM     35  O   UNL d   1       9.942 -13.108  -4.137 -0.01 -0.02    -0.278 OA
DOCKED: BRANCH  35  36
DOCKED: ATOM     36  P   UNL d   1       9.881 -12.659  -5.666 -0.02 +0.03    +0.473 P 
DOCKED: ATOM     37  O   UNL d   1       9.298 -13.663  -6.610 -0.01 -0.01    -0.228 OA
DOCKED: BRANCH  36  38
DOCKED: ATOM     38  O   UNL d   1       9.063 -11.296  -5.573 -0.19 -0.04    -0.303 OA
DOCKED: ATOM     39  H   UNL d   1       8.883 -11.093  -4.630 +0.03 +0.04    +0.222 HD
DOCKED: ENDBRANCH  36  38
DOCKED: BRANCH  36  40
DOCKED: ATOM     40  O   UNL d   1      11.376 -12.191  -5.943 -0.00 -0.00    -0.303 OA
DOCKED: ATOM     41  H   UNL d   1      11.538 -11.279  -5.613 +0.01 +0.00    +0.222 HD
DOCKED: ENDBRANCH  36  40
DOCKED: ENDBRANCH  35  36
DOCKED: ENDBRANCH   5  35
DOCKED: BRANCH   4  42
DOCKED: ATOM     42  O   UNL d   1       7.728 -13.493  -2.282 -0.08 -0.05    -0.278 OA
DOCKED: BRANCH  42  43
DOCKED: ATOM     43  P   UNL d   1       6.726 -12.436  -2.933 -0.14 +0.13    +0.473 P 
DOCKED: ATOM     44  O   UNL d   1       6.885 -12.143  -4.385 -0.27 -0.09    -0.228 OA
DOCKED: BRANCH  43  45
DOCKED: ATOM     45  O   UNL d   1       5.299 -13.020  -2.540 -0.22 -0.13    -0.303 OA
DOCKED: ATOM     46  H   UNL d   1       5.319 -13.456  -1.664 -0.31 +0.05    +0.222 HD
DOCKED: ENDBRANCH  43  45
DOCKED: BRANCH  43  47
DOCKED: ATOM     47  O   UNL d   1       6.842 -11.172  -1.955 -0.26 -0.05    -0.303 OA
DOCKED: ATOM     48  H   UNL d   1       6.869 -10.352  -2.490 +0.10 +0.03    +0.222 HD
DOCKED: ENDBRANCH  43  47
DOCKED: ENDBRANCH  42  43
DOCKED: ENDBRANCH   4  42
DOCKED: TORSDOF 24
DOCKED: TER
DOCKED: ENDMDL
________________________________________________________________________________


	BEGINNING GENETIC ALGORITHM DOCKING 64 of 100
Run: 64 Seed: 836709005 1188939018 [ Run 64 of 100 GA/GALS ]
Beginning LAMARCKIAN GENETIC ALGORITHM (LGA), with a maximum of 25000000 energy evaluations.

Final-Value: -17.150


	FINAL GENETIC ALGORITHM DOCKED STATE
	_______________________________________________


Detailed state:  trans -13.427 -6.563 -4.113 quatxyzw 0.784226 -0.370773 -0.472817 0.154793 center 0.035 0.082 -0.065 ntor 24 136.4528 124.5491 151.7871 71.9483 57.3222 -62.7588 -49.8341 -140.9351 143.6330 -38.4094 17.0683 -24.6694 -94.2713 162.8157 -67.9596 95.1489 115.7063 -70.5718 -137.0062 -7.7715 -176.7395 -21.1518 147.6692 11.7005
State:	-13.427  -6.563  -4.113   0.794 -0.375 -0.479 162.190    136.45  124.55  151.79   71.95   57.32  -62.76  -49.83 -140.94  143.63  -38.41   17.07  -24.67  -94.27  162.82  -67.96   95.15  115.71  -70.57 -137.01   -7.77 -176.74  -21.15  147.67   11.70

DOCKED: MODEL       64
DOCKED: USER    Run = 64
DOCKED: USER    DPF = D:/Protein_go_brrr/autodock/final/mut_K82N/IHP/dock.dpf
DOCKED: USER  
DOCKED: USER    Estimated Free Energy of Binding    =   +2.52 kcal/mol  [=(1)+(2)+(3)-(4)]
DOCKED: USER    
DOCKED: USER    (1) Final Intermolecular Energy     =   -4.63 kcal/mol
DOCKED: USER        vdW + Hbond + desolv Energy     =   -4.17 kcal/mol
DOCKED: USER        Electrostatic Energy            =   -0.47 kcal/mol
DOCKED: USER    (2) Final Total Internal Energy     =  -12.52 kcal/mol
DOCKED: USER    (3) Torsional Free Energy           =   +7.16 kcal/mol
DOCKED: USER    (4) Unbound System's Energy  [=(2)] =  -12.52 kcal/mol
DOCKED: USER    
DOCKED: USER    
DOCKED: USER    NEWDPF move IHP_ideal_opt.pdbqt
DOCKED: USER    NEWDPF about 0.035000 0.082000 -0.065000
DOCKED: USER    NEWDPF tran0 -13.427267 -6.562818 -4.112892
DOCKED: USER    NEWDPF quaternion0 0.784226 -0.370773 -0.472817 0.154793
DOCKED: USER    NEWDPF axisangle0 0.793794 -0.375296 -0.478585 162.190399
DOCKED: USER    NEWDPF quat0 0.793794 -0.375296 -0.478585 162.190399
DOCKED: USER    NEWDPF dihe0 136.45 124.55 151.79 71.95 57.32 -62.76 -49.83 -140.94 143.63 -38.41 17.07 -24.67 -94.27 162.82 -67.96 95.15 115.71 -70.57 -137.01 -7.77 -176.74 -21.15 147.67 11.70 
DOCKED: USER  keepresnum = 1 
DOCKED: USER  
DOCKED: REMARK  24 active torsions:
DOCKED: REMARK  status: ('A' for Active; 'I' for Inactive)
DOCKED: REMARK    1  A    between atoms: C_1  and  O_7 
DOCKED: REMARK    2  A    between atoms: C_2  and  O_12 
DOCKED: REMARK    3  A    between atoms: C_3  and  O_17 
DOCKED: REMARK    4  A    between atoms: C_4  and  O_22 
DOCKED: REMARK    5  A    between atoms: C_5  and  O_27 
DOCKED: REMARK    6  A    between atoms: C_6  and  O_32 
DOCKED: REMARK    7  A    between atoms: O_7  and  P_8 
DOCKED: REMARK    8  A    between atoms: P_8  and  O_10 
DOCKED: REMARK    9  A    between atoms: P_8  and  O_11 
DOCKED: REMARK   10  A    between atoms: O_12  and  P_13 
DOCKED: REMARK   11  A    between atoms: P_13  and  O_15 
DOCKED: REMARK   12  A    between atoms: P_13  and  O_16 
DOCKED: REMARK   13  A    between atoms: O_17  and  P_18 
DOCKED: REMARK   14  A    between atoms: P_18  and  O_20 
DOCKED: REMARK   15  A    between atoms: P_18  and  O_21 
DOCKED: REMARK   16  A    between atoms: O_22  and  P_23 
DOCKED: REMARK   17  A    between atoms: P_23  and  O_25 
DOCKED: REMARK   18  A    between atoms: P_23  and  O_26 
DOCKED: REMARK   19  A    between atoms: O_27  and  P_28 
DOCKED: REMARK   20  A    between atoms: P_28  and  O_30 
DOCKED: REMARK   21  A    between atoms: P_28  and  O_31 
DOCKED: REMARK   22  A    between atoms: O_32  and  P_33 
DOCKED: REMARK   23  A    between atoms: P_33  and  O_35 
DOCKED: REMARK   24  A    between atoms: P_33  and  O_36 
DOCKED: USER                              x       y       z     vdW  Elec       q    Type
DOCKED: USER                           _______ _______ _______ _____ _____    ______ ____
DOCKED: ROOT
DOCKED: ATOM      1  C   UNL d   1     -12.928  -6.037  -5.681 -0.07 -0.02    +0.194 C 
DOCKED: ATOM      2  C   UNL d   1     -12.459  -5.169  -4.513 -0.06 -0.04    +0.194 C 
DOCKED: ATOM      3  C   UNL d   1     -13.574  -4.944  -3.490 -0.02 -0.05    +0.194 C 
DOCKED: ATOM      4  C   UNL d   1     -14.229  -6.240  -3.019 -0.01 -0.05    +0.194 C 
DOCKED: ATOM      5  C   UNL d   1     -14.610  -7.189  -4.148 -0.00 -0.03    +0.194 C 
DOCKED: ATOM      6  C   UNL d   1     -13.516  -7.366  -5.204 -0.03 -0.03    +0.194 C 
DOCKED: ENDROOT
DOCKED: BRANCH   1   7
DOCKED: ATOM      7  O   UNL d   1     -11.793  -6.342  -6.495 -0.16 +0.03    -0.278 OA
DOCKED: BRANCH   7   8
DOCKED: ATOM      8  P   UNL d   1     -11.106  -7.774  -6.334 -0.17 -0.12    +0.473 P 
DOCKED: ATOM      9  O   UNL d   1     -10.946  -8.243  -4.930 -0.12 +0.09    -0.228 OA
DOCKED: BRANCH   8  10
DOCKED: ATOM     10  O   UNL d   1     -12.014  -8.742  -7.219 -0.14 +0.05    -0.303 OA
DOCKED: ATOM     11  H   UNL d   1     -12.895  -8.341  -7.342 +0.06 -0.02    +0.222 HD
DOCKED: ENDBRANCH   8  10
DOCKED: BRANCH   8  12
DOCKED: ATOM     12  O   UNL d   1      -9.772  -7.692  -7.193 -0.74 +0.06    -0.303 OA
DOCKED: ATOM     13  H   UNL d   1      -9.043  -7.221  -6.730 -0.34 -0.10    +0.222 HD
DOCKED: ENDBRANCH   8  12
DOCKED: ENDBRANCH   7   8
DOCKED: ENDBRANCH   1   7
DOCKED: BRANCH   2  14
DOCKED: ATOM     14  O   UNL d   1     -11.363  -5.820  -3.858 -0.10 +0.10    -0.278 OA
DOCKED: BRANCH  14  15
DOCKED: ATOM     15  P   UNL d   1     -10.003  -4.983  -3.734 -0.19 -0.18    +0.473 P 
DOCKED: ATOM     16  O   UNL d   1      -8.727  -5.744  -3.915 -0.34 +0.09    -0.228 OA
DOCKED: BRANCH  15  17
DOCKED: ATOM     17  O   UNL d   1     -10.175  -3.806  -4.794 -0.13 +0.04    -0.303 OA
DOCKED: ATOM     18  H   UNL d   1     -10.988  -3.293  -4.621 +0.08 -0.03    +0.222 HD
DOCKED: ENDBRANCH  15  17
DOCKED: BRANCH  15  19
DOCKED: ATOM     19  O   UNL d   1     -10.145  -4.197  -2.359 -0.21 +0.25    -0.303 OA
DOCKED: ATOM     20  H   UNL d   1     -10.891  -4.531  -1.828 -0.33 -0.33    +0.222 HD
DOCKED: ENDBRANCH  15  19
DOCKED: ENDBRANCH  14  15
DOCKED: ENDBRANCH   2  14
DOCKED: BRANCH   6  21
DOCKED: ATOM     21  O   UNL d   1     -14.130  -7.982  -6.334 -0.02 +0.02    -0.278 OA
DOCKED: BRANCH  21  22
DOCKED: ATOM     22  P   UNL d   1     -14.958  -7.093  -7.368 -0.03 -0.01    +0.473 P 
DOCKED: ATOM     23  O   UNL d   1     -15.786  -5.975  -6.830 -0.01 +0.01    -0.228 OA
DOCKED: BRANCH  22  24
DOCKED: ATOM     24  O   UNL d   1     -13.826  -6.650  -8.396 -0.60 -0.07    -0.303 OA
DOCKED: ATOM     25  H   UNL d   1     -12.949  -6.924  -8.025 +0.06 +0.06    +0.222 HD
DOCKED: ENDBRANCH  22  24
DOCKED: BRANCH  22  26
DOCKED: ATOM     26  O   UNL d   1     -15.745  -8.212  -8.203 -0.01 +0.01    -0.303 OA
DOCKED: ATOM     27  H   UNL d   1     -16.707  -8.038  -8.148 +0.01 -0.01    +0.222 HD
DOCKED: ENDBRANCH  22  26
DOCKED: ENDBRANCH  21  22
DOCKED: ENDBRANCH   6  21
DOCKED: BRANCH   3  28
DOCKED: ATOM     28  O   UNL d   1     -12.982  -4.377  -2.328 -0.06 +0.16    -0.278 OA
DOCKED: BRANCH  28  29
DOCKED: ATOM     29  P   UNL d   1     -12.847  -2.796  -2.184 -0.03 -0.21    +0.473 P 
DOCKED: ATOM     30  O   UNL d   1     -14.124  -2.059  -2.001 -0.02 +0.05    -0.228 OA
DOCKED: BRANCH  29  31
DOCKED: ATOM     31  O   UNL d   1     -11.783  -2.714  -0.991 -0.04 +0.35    -0.303 OA
DOCKED: ATOM     32  H   UNL d   1     -11.523  -3.630  -0.740 -0.44 -0.62    +0.222 HD
DOCKED: ENDBRANCH  29  31
DOCKED: BRANCH  29  33
DOCKED: ATOM     33  O   UNL d   1     -11.974  -2.418  -3.461 -0.05 +0.05    -0.303 OA
DOCKED: ATOM     34  H   UNL d   1     -11.021  -2.580  -3.257 +0.08 -0.06    +0.222 HD
DOCKED: ENDBRANCH  29  33
DOCKED: ENDBRANCH  28  29
DOCKED: ENDBRANCH   3  28
DOCKED: BRANCH   5  35
DOCKED: ATOM     35  O   UNL d   1     -14.810  -8.461  -3.534 -0.00 +0.05    -0.278 OA
DOCKED: BRANCH  35  36
DOCKED: ATOM     36  P   UNL d   1     -13.563  -9.400  -3.203 +0.02 -0.09    +0.473 P 
DOCKED: ATOM     37  O   UNL d   1     -13.809 -10.459  -2.176 -0.02 +0.04    -0.228 OA
DOCKED: BRANCH  36  38
DOCKED: ATOM     38  O   UNL d   1     -13.187  -9.962  -4.645 -0.01 +0.05    -0.303 OA
DOCKED: ATOM     39  H   UNL d   1     -12.757  -9.249  -5.165 +0.05 -0.04    +0.222 HD
DOCKED: ENDBRANCH  36  38
DOCKED: BRANCH  36  40
DOCKED: ATOM     40  O   UNL d   1     -12.416  -8.344  -2.892 -0.04 +0.09    -0.303 OA
DOCKED: ATOM     41  H   UNL d   1     -12.021  -7.981  -3.716 +0.07 -0.06    +0.222 HD
DOCKED: ENDBRANCH  36  40
DOCKED: ENDBRANCH  35  36
DOCKED: ENDBRANCH   5  35
DOCKED: BRANCH   4  42
DOCKED: ATOM     42  O   UNL d   1     -15.440  -5.874  -2.350 -0.00 +0.06    -0.278 OA
DOCKED: BRANCH  42  43
DOCKED: ATOM     43  P   UNL d   1     -15.452  -5.809  -0.756 -0.00 -0.16    +0.473 P 
DOCKED: ATOM     44  O   UNL d   1     -14.452  -6.639  -0.028 -0.05 +0.12    -0.228 OA
DOCKED: BRANCH  43  45
DOCKED: ATOM     45  O   UNL d   1     -15.335  -4.249  -0.469 -0.01 +0.11    -0.303 OA
DOCKED: ATOM     46  H   UNL d   1     -14.544  -3.864  -0.898 +0.02 -0.11    +0.222 HD
DOCKED: ENDBRANCH  43  45
DOCKED: BRANCH  43  47
DOCKED: ATOM     47  O   UNL d   1     -16.986  -6.094  -0.389 +0.00 +0.06    -0.303 OA
DOCKED: ATOM     48  H   UNL d   1     -17.037  -6.475   0.512 +0.01 -0.04    +0.222 HD
DOCKED: ENDBRANCH  43  47
DOCKED: ENDBRANCH  42  43
DOCKED: ENDBRANCH   4  42
DOCKED: TORSDOF 24
DOCKED: TER
DOCKED: ENDMDL
________________________________________________________________________________


	BEGINNING GENETIC ALGORITHM DOCKING 65 of 100
Run: 65 Seed: 1575587624 66448377 [ Run 65 of 100 GA/GALS ]
Beginning LAMARCKIAN GENETIC ALGORITHM (LGA), with a maximum of 25000000 energy evaluations.

Final-Value: -19.651


	FINAL GENETIC ALGORITHM DOCKED STATE
	_______________________________________________


Detailed state:  trans 14.220 -1.066 14.813 quatxyzw 0.105409 -0.639560 -0.687868 0.326633 center 0.035 0.082 -0.065 ntor 24 -113.2874 43.2979 36.3453 31.0146 26.4247 -146.8270 38.4953 180.0000 -106.8784 23.6412 -8.3220 -179.0584 -161.6220 170.5587 -56.8698 -66.7186 20.4000 157.4199 39.2341 -16.0266 172.7655 26.8121 -6.3759 -21.7837
State:	 14.220  -1.066  14.813   0.112 -0.677 -0.728 141.871   -113.29   43.30   36.35   31.01   26.42 -146.83   38.50  180.00 -106.88   23.64   -8.32 -179.06 -161.62  170.56  -56.87  -66.72   20.40  157.42   39.23  -16.03  172.77   26.81   -6.38  -21.78

DOCKED: MODEL       65
DOCKED: USER    Run = 65
DOCKED: USER    DPF = D:/Protein_go_brrr/autodock/final/mut_K82N/IHP/dock.dpf
DOCKED: USER  
DOCKED: USER    Estimated Free Energy of Binding    =   +1.67 kcal/mol  [=(1)+(2)+(3)-(4)]
DOCKED: USER    
DOCKED: USER    (1) Final Intermolecular Energy     =   -5.49 kcal/mol
DOCKED: USER        vdW + Hbond + desolv Energy     =   -5.35 kcal/mol
DOCKED: USER        Electrostatic Energy            =   -0.14 kcal/mol
DOCKED: USER    (2) Final Total Internal Energy     =  -14.16 kcal/mol
DOCKED: USER    (3) Torsional Free Energy           =   +7.16 kcal/mol
DOCKED: USER    (4) Unbound System's Energy  [=(2)] =  -14.16 kcal/mol
DOCKED: USER    
DOCKED: USER    
DOCKED: USER    NEWDPF move IHP_ideal_opt.pdbqt
DOCKED: USER    NEWDPF about 0.035000 0.082000 -0.065000
DOCKED: USER    NEWDPF tran0 14.219561 -1.065682 14.813008
DOCKED: USER    NEWDPF quaternion0 0.105409 -0.639560 -0.687868 0.326633
DOCKED: USER    NEWDPF axisangle0 0.111527 -0.676675 -0.727786 141.870911
DOCKED: USER    NEWDPF quat0 0.111527 -0.676675 -0.727786 141.870911
DOCKED: USER    NEWDPF dihe0 -113.29 43.30 36.35 31.01 26.42 -146.83 38.50 180.00 -106.88 23.64 -8.32 -179.06 -161.62 170.56 -56.87 -66.72 20.40 157.42 39.23 -16.03 172.77 26.81 -6.38 -21.78 
DOCKED: USER  keepresnum = 1 
DOCKED: USER  
DOCKED: REMARK  24 active torsions:
DOCKED: REMARK  status: ('A' for Active; 'I' for Inactive)
DOCKED: REMARK    1  A    between atoms: C_1  and  O_7 
DOCKED: REMARK    2  A    between atoms: C_2  and  O_12 
DOCKED: REMARK    3  A    between atoms: C_3  and  O_17 
DOCKED: REMARK    4  A    between atoms: C_4  and  O_22 
DOCKED: REMARK    5  A    between atoms: C_5  and  O_27 
DOCKED: REMARK    6  A    between atoms: C_6  and  O_32 
DOCKED: REMARK    7  A    between atoms: O_7  and  P_8 
DOCKED: REMARK    8  A    between atoms: P_8  and  O_10 
DOCKED: REMARK    9  A    between atoms: P_8  and  O_11 
DOCKED: REMARK   10  A    between atoms: O_12  and  P_13 
DOCKED: REMARK   11  A    between atoms: P_13  and  O_15 
DOCKED: REMARK   12  A    between atoms: P_13  and  O_16 
DOCKED: REMARK   13  A    between atoms: O_17  and  P_18 
DOCKED: REMARK   14  A    between atoms: P_18  and  O_20 
DOCKED: REMARK   15  A    between atoms: P_18  and  O_21 
DOCKED: REMARK   16  A    between atoms: O_22  and  P_23 
DOCKED: REMARK   17  A    between atoms: P_23  and  O_25 
DOCKED: REMARK   18  A    between atoms: P_23  and  O_26 
DOCKED: REMARK   19  A    between atoms: O_27  and  P_28 
DOCKED: REMARK   20  A    between atoms: P_28  and  O_30 
DOCKED: REMARK   21  A    between atoms: P_28  and  O_31 
DOCKED: REMARK   22  A    between atoms: O_32  and  P_33 
DOCKED: REMARK   23  A    between atoms: P_33  and  O_35 
DOCKED: REMARK   24  A    between atoms: P_33  and  O_36 
DOCKED: USER                              x       y       z     vdW  Elec       q    Type
DOCKED: USER                           _______ _______ _______ _____ _____    ______ ____
DOCKED: ROOT
DOCKED: ATOM      1  C   UNL d   1      13.996   0.051  13.514 -0.16 -0.03    +0.194 C 
DOCKED: ATOM      2  C   UNL d   1      15.319  -0.717  13.505 -0.13 -0.01    +0.194 C 
DOCKED: ATOM      3  C   UNL d   1      15.937  -0.797  14.903 -0.09 -0.00    +0.194 C 
DOCKED: ATOM      4  C   UNL d   1      14.970  -1.326  15.959 -0.11 +0.01    +0.194 C 
DOCKED: ATOM      5  C   UNL d   1      13.597  -0.666  15.928 -0.22 -0.01    +0.194 C 
DOCKED: ATOM      6  C   UNL d   1      13.006  -0.531  14.523 -0.28 -0.04    +0.194 C 
DOCKED: ENDROOT
DOCKED: BRANCH   1   7
DOCKED: ATOM      7  O   UNL d   1      13.403  -0.068  12.219 -0.13 +0.09    -0.278 OA
DOCKED: BRANCH   7   8
DOCKED: ATOM      8  P   UNL d   1      13.883   0.934  11.070 -0.01 -0.08    +0.473 P 
DOCKED: ATOM      9  O   UNL d   1      12.877   1.951  10.659 -0.15 +0.02    -0.228 OA
DOCKED: BRANCH   8  10
DOCKED: ATOM     10  O   UNL d   1      15.224   1.575  11.650 -0.03 +0.02    -0.303 OA
DOCKED: ATOM     11  H   UNL d   1      15.986   1.020  11.400 +0.02 -0.01    +0.222 HD
DOCKED: ENDBRANCH   8  10
DOCKED: BRANCH   8  12
DOCKED: ATOM     12  O   UNL d   1      14.437  -0.002   9.911 -0.31 +0.04    -0.303 OA
DOCKED: ATOM     13  H   UNL d   1      14.402  -0.959  10.138 -0.49 -0.09    +0.222 HD
DOCKED: ENDBRANCH   8  12
DOCKED: ENDBRANCH   7   8
DOCKED: ENDBRANCH   1   7
DOCKED: BRANCH   2  14
DOCKED: ATOM     14  O   UNL d   1      15.083  -2.049  13.034 -0.17 +0.01    -0.278 OA
DOCKED: BRANCH  14  15
DOCKED: ATOM     15  P   UNL d   1      15.784  -2.455  11.652 -0.13 -0.03    +0.473 P 
DOCKED: ATOM     16  O   UNL d   1      14.930  -3.164  10.649 -0.25 +0.03    -0.228 OA
DOCKED: BRANCH  15  17
DOCKED: ATOM     17  O   UNL d   1      16.375  -1.082  11.100 -0.06 +0.02    -0.303 OA
DOCKED: ATOM     18  H   UNL d   1      15.667  -0.422  10.970 +0.02 -0.03    +0.222 HD
DOCKED: ENDBRANCH  15  17
DOCKED: BRANCH  15  19
DOCKED: ATOM     19  O   UNL d   1      17.108  -3.220  12.089 -0.08 -0.00    -0.303 OA
DOCKED: ATOM     20  H   UNL d   1      17.437  -2.908  12.952 +0.03 +0.00    +0.222 HD
DOCKED: ENDBRANCH  15  19
DOCKED: ENDBRANCH  14  15
DOCKED: ENDBRANCH   2  14
DOCKED: BRANCH   6  21
DOCKED: ATOM     21  O   UNL d   1      11.919   0.387  14.620 -0.22 +0.09    -0.278 OA
DOCKED: BRANCH  21  22
DOCKED: ATOM     22  P   UNL d   1      12.210   1.934  14.882 -0.11 -0.07    +0.473 P 
DOCKED: ATOM     23  O   UNL d   1      13.465   2.303  15.599 -0.05 +0.01    -0.228 OA
DOCKED: BRANCH  22  24
DOCKED: ATOM     24  O   UNL d   1      12.074   2.543  13.418 -0.10 +0.03    -0.303 OA
DOCKED: ATOM     25  H   UNL d   1      12.486   1.906  12.779 +0.09 -0.03    +0.222 HD
DOCKED: ENDBRANCH  22  24
DOCKED: BRANCH  22  26
DOCKED: ATOM     26  O   UNL d   1      10.842   2.411  15.568 -0.24 +0.07    -0.303 OA
DOCKED: ATOM     27  H   UNL d   1      10.525   1.711  16.174 -0.18 -0.11    +0.222 HD
DOCKED: ENDBRANCH  22  26
DOCKED: ENDBRANCH  21  22
DOCKED: ENDBRANCH   6  21
DOCKED: BRANCH   3  28
DOCKED: ATOM     28  O   UNL d   1      16.994  -1.746  14.850 -0.07 -0.01    -0.278 OA
DOCKED: BRANCH  28  29
DOCKED: ATOM     29  P   UNL d   1      18.380  -1.449  15.577 -0.02 +0.00    +0.473 P 
DOCKED: ATOM     30  O   UNL d   1      19.421  -0.808  14.734 -0.01 +0.00    -0.228 OA
DOCKED: BRANCH  29  31
DOCKED: ATOM     31  O   UNL d   1      17.859  -0.619  16.843 -0.01 -0.00    -0.303 OA
DOCKED: ATOM     32  H   UNL d   1      17.674  -1.250  17.577 +0.01 +0.01    +0.222 HD
DOCKED: ENDBRANCH  29  31
DOCKED: BRANCH  29  33
DOCKED: ATOM     33  O   UNL d   1      18.737  -2.866  16.209 -0.03 -0.01    -0.303 OA
DOCKED: ATOM     34  H   UNL d   1      18.819  -2.770  17.189 +0.01 +0.00    +0.222 HD
DOCKED: ENDBRANCH  29  33
DOCKED: ENDBRANCH  28  29
DOCKED: ENDBRANCH   3  28
DOCKED: BRANCH   5  35
DOCKED: ATOM     35  O   UNL d   1      12.735  -1.532  16.664 -0.30 +0.01    -0.278 OA
DOCKED: BRANCH  35  36
DOCKED: ATOM     36  P   UNL d   1      11.906  -0.975  17.908 -0.32 -0.04    +0.473 P 
DOCKED: ATOM     37  O   UNL d   1      10.874   0.058  17.584 -0.20 +0.08    -0.228 OA
DOCKED: BRANCH  36  38
DOCKED: ATOM     38  O   UNL d   1      11.315  -2.316  18.533 -0.26 +0.02    -0.303 OA
DOCKED: ATOM     39  H   UNL d   1      10.736  -2.088  19.292 -0.41 -0.09    +0.222 HD
DOCKED: ENDBRANCH  36  38
DOCKED: BRANCH  36  40
DOCKED: ATOM     40  O   UNL d   1      13.056  -0.554  18.922 -0.12 -0.01    -0.303 OA
DOCKED: ATOM     41  H   UNL d   1      13.914  -0.976  18.696 +0.07 +0.01    +0.222 HD
DOCKED: ENDBRANCH  36  40
DOCKED: ENDBRANCH  35  36
DOCKED: ENDBRANCH   5  35
DOCKED: BRANCH   4  42
DOCKED: ATOM     42  O   UNL d   1      15.549  -1.033  17.235 -0.06 -0.01    -0.278 OA
DOCKED: BRANCH  42  43
DOCKED: ATOM     43  P   UNL d   1      15.596  -2.181  18.342 -0.05 +0.03    +0.473 P 
DOCKED: ATOM     44  O   UNL d   1      15.693  -1.758  19.767 -0.03 -0.01    -0.228 OA
DOCKED: BRANCH  43  45
DOCKED: ATOM     45  O   UNL d   1      14.302  -3.044  18.005 -0.09 -0.04    -0.303 OA
DOCKED: ATOM     46  H   UNL d   1      13.494  -2.639  18.381 +0.08 +0.02    +0.222 HD
DOCKED: ENDBRANCH  43  45
DOCKED: BRANCH  43  47
DOCKED: ATOM     47  O   UNL d   1      16.770  -3.141  17.824 -0.06 -0.02    -0.303 OA
DOCKED: ATOM     48  H   UNL d   1      17.137  -2.781  16.989 +0.03 +0.01    +0.222 HD
DOCKED: ENDBRANCH  43  47
DOCKED: ENDBRANCH  42  43
DOCKED: ENDBRANCH   4  42
DOCKED: TORSDOF 24
DOCKED: TER
DOCKED: ENDMDL
________________________________________________________________________________


	BEGINNING GENETIC ALGORITHM DOCKING 66 of 100
Run: 66 Seed: 800062377 1294833737 [ Run 66 of 100 GA/GALS ]
Beginning LAMARCKIAN GENETIC ALGORITHM (LGA), with a maximum of 25000000 energy evaluations.

Final-Value: -19.825


	FINAL GENETIC ALGORITHM DOCKED STATE
	_______________________________________________


Detailed state:  trans -3.951 -15.954 8.667 quatxyzw -0.363479 -0.509857 0.538743 -0.563636 center 0.035 0.082 -0.065 ntor 24 121.2236 125.5719 141.4512 137.6083 -6.7051 -172.4157 -29.5726 1.1412 136.2410 -16.4914 54.5057 -112.1387 -26.5345 97.3654 178.4039 144.2380 -173.1333 -75.7785 51.1180 5.0295 174.5961 32.4478 8.7361 -177.5613
State:	 -3.951 -15.954   8.667  -0.440 -0.617  0.652 -111.385    121.22  125.57  141.45  137.61   -6.71 -172.42  -29.57    1.14  136.24  -16.49   54.51 -112.14  -26.53   97.37  178.40  144.24 -173.13  -75.78   51.12    5.03  174.60   32.45    8.74 -177.56

DOCKED: MODEL       66
DOCKED: USER    Run = 66
DOCKED: USER    DPF = D:/Protein_go_brrr/autodock/final/mut_K82N/IHP/dock.dpf
DOCKED: USER  
DOCKED: USER    Estimated Free Energy of Binding    =   +1.68 kcal/mol  [=(1)+(2)+(3)-(4)]
DOCKED: USER    
DOCKED: USER    (1) Final Intermolecular Energy     =   -5.48 kcal/mol
DOCKED: USER        vdW + Hbond + desolv Energy     =   -5.42 kcal/mol
DOCKED: USER        Electrostatic Energy            =   -0.07 kcal/mol
DOCKED: USER    (2) Final Total Internal Energy     =  -14.34 kcal/mol
DOCKED: USER    (3) Torsional Free Energy           =   +7.16 kcal/mol
DOCKED: USER    (4) Unbound System's Energy  [=(2)] =  -14.34 kcal/mol
DOCKED: USER    
DOCKED: USER    
DOCKED: USER    NEWDPF move IHP_ideal_opt.pdbqt
DOCKED: USER    NEWDPF about 0.035000 0.082000 -0.065000
DOCKED: USER    NEWDPF tran0 -3.951098 -15.953571 8.666657
DOCKED: USER    NEWDPF quaternion0 -0.363479 -0.509857 0.538743 -0.563636
DOCKED: USER    NEWDPF axisangle0 -0.440035 -0.617242 0.652213 -111.384762
DOCKED: USER    NEWDPF quat0 -0.440035 -0.617242 0.652213 -111.384762
DOCKED: USER    NEWDPF dihe0 121.22 125.57 141.45 137.61 -6.71 -172.42 -29.57 1.14 136.24 -16.49 54.51 -112.14 -26.53 97.37 178.40 144.24 -173.13 -75.78 51.12 5.03 174.60 32.45 8.74 -177.56 
DOCKED: USER  keepresnum = 1 
DOCKED: USER  
DOCKED: REMARK  24 active torsions:
DOCKED: REMARK  status: ('A' for Active; 'I' for Inactive)
DOCKED: REMARK    1  A    between atoms: C_1  and  O_7 
DOCKED: REMARK    2  A    between atoms: C_2  and  O_12 
DOCKED: REMARK    3  A    between atoms: C_3  and  O_17 
DOCKED: REMARK    4  A    between atoms: C_4  and  O_22 
DOCKED: REMARK    5  A    between atoms: C_5  and  O_27 
DOCKED: REMARK    6  A    between atoms: C_6  and  O_32 
DOCKED: REMARK    7  A    between atoms: O_7  and  P_8 
DOCKED: REMARK    8  A    between atoms: P_8  and  O_10 
DOCKED: REMARK    9  A    between atoms: P_8  and  O_11 
DOCKED: REMARK   10  A    between atoms: O_12  and  P_13 
DOCKED: REMARK   11  A    between atoms: P_13  and  O_15 
DOCKED: REMARK   12  A    between atoms: P_13  and  O_16 
DOCKED: REMARK   13  A    between atoms: O_17  and  P_18 
DOCKED: REMARK   14  A    between atoms: P_18  and  O_20 
DOCKED: REMARK   15  A    between atoms: P_18  and  O_21 
DOCKED: REMARK   16  A    between atoms: O_22  and  P_23 
DOCKED: REMARK   17  A    between atoms: P_23  and  O_25 
DOCKED: REMARK   18  A    between atoms: P_23  and  O_26 
DOCKED: REMARK   19  A    between atoms: O_27  and  P_28 
DOCKED: REMARK   20  A    between atoms: P_28  and  O_30 
DOCKED: REMARK   21  A    between atoms: P_28  and  O_31 
DOCKED: REMARK   22  A    between atoms: O_32  and  P_33 
DOCKED: REMARK   23  A    between atoms: P_33  and  O_35 
DOCKED: REMARK   24  A    between atoms: P_33  and  O_36 
DOCKED: USER                              x       y       z     vdW  Elec       q    Type
DOCKED: USER                           _______ _______ _______ _____ _____    ______ ____
DOCKED: ROOT
DOCKED: ATOM      1  C   UNL d   1      -4.631 -14.977   9.919 -0.08 +0.01    +0.194 C 
DOCKED: ATOM      2  C   UNL d   1      -3.959 -16.270  10.381 -0.08 +0.02    +0.194 C 
DOCKED: ATOM      3  C   UNL d   1      -4.318 -17.451   9.476 -0.05 +0.02    +0.194 C 
DOCKED: ATOM      4  C   UNL d   1      -4.071 -17.170   7.996 -0.11 +0.05    +0.194 C 
DOCKED: ATOM      5  C   UNL d   1      -4.626 -15.834   7.517 -0.13 +0.01    +0.194 C 
DOCKED: ATOM      6  C   UNL d   1      -4.319 -14.664   8.454 -0.14 +0.00    +0.194 C 
DOCKED: ENDROOT
DOCKED: BRANCH   1   7
DOCKED: ATOM      7  O   UNL d   1      -4.114 -13.900  10.703 -0.37 -0.03    -0.278 OA
DOCKED: BRANCH   7   8
DOCKED: ATOM      8  P   UNL d   1      -4.550 -13.800  12.237 -0.07 +0.04    +0.473 P 
DOCKED: ATOM      9  O   UNL d   1      -4.956 -15.088  12.862 -0.04 +0.00    -0.228 OA
DOCKED: BRANCH   8  10
DOCKED: ATOM     10  O   UNL d   1      -3.295 -13.123  12.953 -0.33 -0.03    -0.303 OA
DOCKED: ATOM     11  H   UNL d   1      -2.471 -13.449  12.545 +0.08 +0.01    +0.222 HD
DOCKED: ENDBRANCH   8  10
DOCKED: BRANCH   8  12
DOCKED: ATOM     12  O   UNL d   1      -5.629 -12.635  12.285 -0.10 -0.02    -0.303 OA
DOCKED: ATOM     13  H   UNL d   1      -6.524 -12.927  12.002 +0.04 -0.00    +0.222 HD
DOCKED: ENDBRANCH   8  12
DOCKED: ENDBRANCH   7   8
DOCKED: ENDBRANCH   1   7
DOCKED: BRANCH   2  14
DOCKED: ATOM     14  O   UNL d   1      -2.537 -16.092  10.358 -0.15 -0.06    -0.278 OA
DOCKED: BRANCH  14  15
DOCKED: ATOM     15  P   UNL d   1      -1.724 -16.659  11.615 -0.10 +0.05    +0.473 P 
DOCKED: ATOM     16  O   UNL d   1      -0.302 -17.058  11.371 -0.28 -0.03    -0.228 OA
DOCKED: BRANCH  15  17
DOCKED: ATOM     17  O   UNL d   1      -1.864 -15.515  12.715 -0.25 -0.00    -0.303 OA
DOCKED: ATOM     18  H   UNL d   1      -2.785 -15.198  12.777 +0.09 +0.00    +0.222 HD
DOCKED: ENDBRANCH  15  17
DOCKED: BRANCH  15  19
DOCKED: ATOM     19  O   UNL d   1      -2.662 -17.795  12.215 -0.06 -0.01    -0.303 OA
DOCKED: ATOM     20  H   UNL d   1      -2.612 -18.617  11.693 +0.05 +0.02    +0.222 HD
DOCKED: ENDBRANCH  15  19
DOCKED: ENDBRANCH  14  15
DOCKED: ENDBRANCH   2  14
DOCKED: BRANCH   6  21
DOCKED: ATOM     21  O   UNL d   1      -5.172 -13.590   8.065 -0.14 +0.04    -0.278 OA
DOCKED: BRANCH  21  22
DOCKED: ATOM     22  P   UNL d   1      -6.734 -13.664   8.381 -0.08 -0.07    +0.473 P 
DOCKED: ATOM     23  O   UNL d   1      -7.672 -12.943   7.473 -0.18 +0.05    -0.228 OA
DOCKED: BRANCH  22  24
DOCKED: ATOM     24  O   UNL d   1      -6.972 -15.235   8.478 -0.02 +0.03    -0.303 OA
DOCKED: ATOM     25  H   UNL d   1      -6.926 -15.610   7.562 +0.06 -0.04    +0.222 HD
DOCKED: ENDBRANCH  22  24
DOCKED: BRANCH  22  26
DOCKED: ATOM     26  O   UNL d   1      -6.775 -13.228   9.924 -0.04 +0.02    -0.303 OA
DOCKED: ATOM     27  H   UNL d   1      -5.911 -12.841  10.171 +0.06 -0.01    +0.222 HD
DOCKED: ENDBRANCH  22  26
DOCKED: ENDBRANCH  21  22
DOCKED: ENDBRANCH   6  21
DOCKED: BRANCH   3  28
DOCKED: ATOM     28  O   UNL d   1      -3.446 -18.524   9.807 -0.05 -0.06    -0.278 OA
DOCKED: BRANCH  28  29
DOCKED: ATOM     29  P   UNL d   1      -3.978 -20.025   9.794 +0.00 +0.04    +0.473 P 
DOCKED: ATOM     30  O   UNL d   1      -3.309 -20.934   8.827 -0.02 -0.03    -0.228 OA
DOCKED: BRANCH  29  31
DOCKED: ATOM     31  O   UNL d   1      -3.837 -20.385  11.347 -0.00 -0.01    -0.303 OA
DOCKED: ATOM     32  H   UNL d   1      -3.828 -19.547  11.864 +0.02 +0.00    +0.222 HD
DOCKED: ENDBRANCH  29  31
DOCKED: BRANCH  29  33
DOCKED: ATOM     33  O   UNL d   1      -5.548 -19.822   9.622 +0.00 +0.00    -0.303 OA
DOCKED: ATOM     34  H   UNL d   1      -5.719 -19.344   8.773 +0.02 -0.01    +0.222 HD
DOCKED: ENDBRANCH  29  33
DOCKED: ENDBRANCH  28  29
DOCKED: ENDBRANCH   3  28
DOCKED: BRANCH   5  35
DOCKED: ATOM     35  O   UNL d   1      -3.969 -15.564   6.280 -0.30 -0.00    -0.278 OA
DOCKED: BRANCH  35  36
DOCKED: ATOM     36  P   UNL d   1      -4.783 -14.945   5.056 -0.31 -0.11    +0.473 P 
DOCKED: ATOM     37  O   UNL d   1      -4.643 -15.671   3.755 -0.89 +0.10    -0.228 OA
DOCKED: BRANCH  36  38
DOCKED: ATOM     38  O   UNL d   1      -6.268 -14.916   5.632 -0.11 +0.12    -0.303 OA
DOCKED: ATOM     39  H   UNL d   1      -6.311 -14.277   6.376 -0.02 -0.08    +0.222 HD
DOCKED: ENDBRANCH  36  38
DOCKED: BRANCH  36  40
DOCKED: ATOM     40  O   UNL d   1      -4.332 -13.420   5.084 -0.87 +0.01    -0.303 OA
DOCKED: ATOM     41  H   UNL d   1      -4.537 -12.996   5.946 -0.37 -0.09    +0.222 HD
DOCKED: ENDBRANCH  36  40
DOCKED: ENDBRANCH  35  36
DOCKED: ENDBRANCH   5  35
DOCKED: BRANCH   4  42
DOCKED: ATOM     42  O   UNL d   1      -4.748 -18.195   7.261 -0.08 +0.01    -0.278 OA
DOCKED: BRANCH  42  43
DOCKED: ATOM     43  P   UNL d   1      -6.343 -18.181   7.209 +0.01 -0.07    +0.473 P 
DOCKED: ATOM     44  O   UNL d   1      -7.063 -17.610   8.381 -0.00 +0.02    -0.228 OA
DOCKED: BRANCH  43  45
DOCKED: ATOM     45  O   UNL d   1      -6.641 -17.435   5.835 -0.04 +0.10    -0.303 OA
DOCKED: ATOM     46  H   UNL d   1      -5.862 -16.930   5.526 +0.05 -0.10    +0.222 HD
DOCKED: ENDBRANCH  43  45
DOCKED: BRANCH  43  47
DOCKED: ATOM     47  O   UNL d   1      -6.710 -19.698   6.842 -0.00 +0.05    -0.303 OA
DOCKED: ATOM     48  H   UNL d   1      -6.459 -20.280   7.589 +0.01 -0.02    +0.222 HD
DOCKED: ENDBRANCH  43  47
DOCKED: ENDBRANCH  42  43
DOCKED: ENDBRANCH   4  42
DOCKED: TORSDOF 24
DOCKED: TER
DOCKED: ENDMDL
________________________________________________________________________________


	BEGINNING GENETIC ALGORITHM DOCKING 67 of 100
Run: 67 Seed: 1443233346 683395714 [ Run 67 of 100 GA/GALS ]
Beginning LAMARCKIAN GENETIC ALGORITHM (LGA), with a maximum of 25000000 energy evaluations.

Final-Value: -20.649


	FINAL GENETIC ALGORITHM DOCKED STATE
	_______________________________________________


Detailed state:  trans 8.750 20.431 -4.898 quatxyzw -0.890015 0.135782 -0.433905 -0.034089 center 0.035 0.082 -0.065 ntor 24 -162.3465 -41.4735 167.2923 23.9530 128.8322 66.1979 -95.6260 -32.6869 160.1720 23.8868 -161.6018 -126.5986 83.8991 169.7674 175.7197 18.7621 170.7615 96.9634 -31.4292 8.9886 11.8007 -0.0903 173.6495 10.2617
State:	  8.750  20.431  -4.898  -0.891  0.136 -0.434 -176.093   -162.35  -41.47  167.29   23.95  128.83   66.20  -95.63  -32.69  160.17   23.89 -161.60 -126.60   83.90  169.77  175.72   18.76  170.76   96.96  -31.43    8.99   11.80   -0.09  173.65   10.26

DOCKED: MODEL       67
DOCKED: USER    Run = 67
DOCKED: USER    DPF = D:/Protein_go_brrr/autodock/final/mut_K82N/IHP/dock.dpf
DOCKED: USER  
DOCKED: USER    Estimated Free Energy of Binding    =   +1.23 kcal/mol  [=(1)+(2)+(3)-(4)]
DOCKED: USER    
DOCKED: USER    (1) Final Intermolecular Energy     =   -5.93 kcal/mol
DOCKED: USER        vdW + Hbond + desolv Energy     =   -5.80 kcal/mol
DOCKED: USER        Electrostatic Energy            =   -0.13 kcal/mol
DOCKED: USER    (2) Final Total Internal Energy     =  -14.72 kcal/mol
DOCKED: USER    (3) Torsional Free Energy           =   +7.16 kcal/mol
DOCKED: USER    (4) Unbound System's Energy  [=(2)] =  -14.72 kcal/mol
DOCKED: USER    
DOCKED: USER    
DOCKED: USER    NEWDPF move IHP_ideal_opt.pdbqt
DOCKED: USER    NEWDPF about 0.035000 0.082000 -0.065000
DOCKED: USER    NEWDPF tran0 8.750039 20.431276 -4.897630
DOCKED: USER    NEWDPF quaternion0 -0.890015 0.135782 -0.433905 -0.034089
DOCKED: USER    NEWDPF axisangle0 -0.890533 0.135861 -0.434158 -176.092948
DOCKED: USER    NEWDPF quat0 -0.890533 0.135861 -0.434158 -176.092948
DOCKED: USER    NEWDPF dihe0 -162.35 -41.47 167.29 23.95 128.83 66.20 -95.63 -32.69 160.17 23.89 -161.60 -126.60 83.90 169.77 175.72 18.76 170.76 96.96 -31.43 8.99 11.80 -0.09 173.65 10.26 
DOCKED: USER  keepresnum = 1 
DOCKED: USER  
DOCKED: REMARK  24 active torsions:
DOCKED: REMARK  status: ('A' for Active; 'I' for Inactive)
DOCKED: REMARK    1  A    between atoms: C_1  and  O_7 
DOCKED: REMARK    2  A    between atoms: C_2  and  O_12 
DOCKED: REMARK    3  A    between atoms: C_3  and  O_17 
DOCKED: REMARK    4  A    between atoms: C_4  and  O_22 
DOCKED: REMARK    5  A    between atoms: C_5  and  O_27 
DOCKED: REMARK    6  A    between atoms: C_6  and  O_32 
DOCKED: REMARK    7  A    between atoms: O_7  and  P_8 
DOCKED: REMARK    8  A    between atoms: P_8  and  O_10 
DOCKED: REMARK    9  A    between atoms: P_8  and  O_11 
DOCKED: REMARK   10  A    between atoms: O_12  and  P_13 
DOCKED: REMARK   11  A    between atoms: P_13  and  O_15 
DOCKED: REMARK   12  A    between atoms: P_13  and  O_16 
DOCKED: REMARK   13  A    between atoms: O_17  and  P_18 
DOCKED: REMARK   14  A    between atoms: P_18  and  O_20 
DOCKED: REMARK   15  A    between atoms: P_18  and  O_21 
DOCKED: REMARK   16  A    between atoms: O_22  and  P_23 
DOCKED: REMARK   17  A    between atoms: P_23  and  O_25 
DOCKED: REMARK   18  A    between atoms: P_23  and  O_26 
DOCKED: REMARK   19  A    between atoms: O_27  and  P_28 
DOCKED: REMARK   20  A    between atoms: P_28  and  O_30 
DOCKED: REMARK   21  A    between atoms: P_28  and  O_31 
DOCKED: REMARK   22  A    between atoms: O_32  and  P_33 
DOCKED: REMARK   23  A    between atoms: P_33  and  O_35 
DOCKED: REMARK   24  A    between atoms: P_33  and  O_36 
DOCKED: USER                              x       y       z     vdW  Elec       q    Type
DOCKED: USER                           _______ _______ _______ _____ _____    ______ ____
DOCKED: ROOT
DOCKED: ATOM      1  C   UNL d   1      10.292  20.899  -4.274 -0.04 -0.02    +0.194 C 
DOCKED: ATOM      2  C   UNL d   1       9.442  22.031  -4.854 -0.06 -0.03    +0.194 C 
DOCKED: ATOM      3  C   UNL d   1       8.772  21.622  -6.167 -0.07 -0.04    +0.194 C 
DOCKED: ATOM      4  C   UNL d   1       7.995  20.312  -6.063 -0.13 -0.04    +0.194 C 
DOCKED: ATOM      5  C   UNL d   1       8.766  19.185  -5.387 -0.13 -0.03    +0.194 C 
DOCKED: ATOM      6  C   UNL d   1       9.486  19.611  -4.105 -0.10 -0.03    +0.194 C 
DOCKED: ENDROOT
DOCKED: BRANCH   1   7
DOCKED: ATOM      7  O   UNL d   1      10.737  21.296  -2.975 -0.03 +0.03    -0.278 OA
DOCKED: BRANCH   7   8
DOCKED: ATOM      8  P   UNL d   1      12.088  20.659  -2.409 -0.01 -0.04    +0.473 P 
DOCKED: ATOM      9  O   UNL d   1      13.018  21.624  -1.761 -0.00 +0.02    -0.228 OA
DOCKED: BRANCH   8  10
DOCKED: ATOM     10  O   UNL d   1      11.589  19.509  -1.422 -0.03 +0.03    -0.303 OA
DOCKED: ATOM     11  H   UNL d   1      10.822  19.053  -1.814 +0.05 -0.02    +0.222 HD
DOCKED: ENDBRANCH   8  10
DOCKED: BRANCH   8  12
DOCKED: ATOM     12  O   UNL d   1      12.689  19.822  -3.618 -0.01 +0.03    -0.303 OA
DOCKED: ATOM     13  H   UNL d   1      12.335  18.905  -3.666 +0.03 -0.02    +0.222 HD
DOCKED: ENDBRANCH   8  12
DOCKED: ENDBRANCH   7   8
DOCKED: ENDBRANCH   1   7
DOCKED: BRANCH   2  14
DOCKED: ATOM     14  O   UNL d   1       8.421  22.379  -3.910 -0.13 +0.07    -0.278 OA
DOCKED: BRANCH  14  15
DOCKED: ATOM     15  P   UNL d   1       8.090  23.938  -3.756 -0.10 -0.11    +0.473 P 
DOCKED: ATOM     16  O   UNL d   1       7.955  24.462  -2.360 -0.16 +0.03    -0.228 OA
DOCKED: BRANCH  15  17
DOCKED: ATOM     17  O   UNL d   1       9.246  24.663  -4.577 -0.03 +0.05    -0.303 OA
DOCKED: ATOM     18  H   UNL d   1       9.129  24.534  -5.538 +0.03 -0.03    +0.222 HD
DOCKED: ENDBRANCH  15  17
DOCKED: BRANCH  15  19
DOCKED: ATOM     19  O   UNL d   1       6.832  24.172  -4.701 +0.13 +0.14    -0.303 OA
DOCKED: ATOM     20  H   UNL d   1       6.878  23.623  -5.505 -0.43 -0.12    +0.222 HD
DOCKED: ENDBRANCH  15  19
DOCKED: ENDBRANCH  14  15
DOCKED: ENDBRANCH   2  14
DOCKED: BRANCH   6  21
DOCKED: ATOM     21  O   UNL d   1      10.414  18.575  -3.791 -0.06 +0.04    -0.278 OA
DOCKED: BRANCH  21  22
DOCKED: ATOM     22  P   UNL d   1       9.966  17.368  -2.850 -0.13 -0.11    +0.473 P 
DOCKED: ATOM     23  O   UNL d   1      11.018  16.652  -2.072 -0.17 +0.05    -0.228 OA
DOCKED: BRANCH  22  24
DOCKED: ATOM     24  O   UNL d   1       8.831  18.049  -1.966 -0.23 +0.05    -0.303 OA
DOCKED: ATOM     25  H   UNL d   1       8.095  18.326  -2.570 +0.12 -0.03    +0.222 HD
DOCKED: ENDBRANCH  22  24
DOCKED: BRANCH  22  26
DOCKED: ATOM     26  O   UNL d   1       9.105  16.469  -3.861 -0.15 +0.11    -0.303 OA
DOCKED: ATOM     27  H   UNL d   1       8.156  16.547  -3.631 -0.26 -0.08    +0.222 HD
DOCKED: ENDBRANCH  22  26
DOCKED: ENDBRANCH  21  22
DOCKED: ENDBRANCH   6  21
DOCKED: BRANCH   3  28
DOCKED: ATOM     28  O   UNL d   1       7.801  22.613  -6.480 -0.09 +0.08    -0.278 OA
DOCKED: BRANCH  28  29
DOCKED: ATOM     29  P   UNL d   1       8.022  23.593  -7.716 -0.03 -0.08    +0.473 P 
DOCKED: ATOM     30  O   UNL d   1       9.349  23.501  -8.378 -0.01 +0.03    -0.228 OA
DOCKED: BRANCH  29  31
DOCKED: ATOM     31  O   UNL d   1       6.742  23.218  -8.601 -0.05 +0.05    -0.303 OA
DOCKED: ATOM     32  H   UNL d   1       6.645  22.238  -8.614 +0.04 -0.04    +0.222 HD
DOCKED: ENDBRANCH  29  31
DOCKED: BRANCH  29  33
DOCKED: ATOM     33  O   UNL d   1       7.621  25.004  -7.099 -0.04 +0.05    -0.303 OA
DOCKED: ATOM     34  H   UNL d   1       7.771  24.982  -6.122 +0.03 -0.04    +0.222 HD
DOCKED: ENDBRANCH  29  33
DOCKED: ENDBRANCH  28  29
DOCKED: ENDBRANCH   3  28
DOCKED: BRANCH   5  35
DOCKED: ATOM     35  O   UNL d   1       7.788  18.216  -5.016 -0.21 +0.05    -0.278 OA
DOCKED: BRANCH  35  36
DOCKED: ATOM     36  P   UNL d   1       6.549  18.631  -4.102 -0.32 -0.10    +0.473 P 
DOCKED: ATOM     37  O   UNL d   1       6.083  17.590  -3.134 -0.56 +0.04    -0.228 OA
DOCKED: BRANCH  36  38
DOCKED: ATOM     38  O   UNL d   1       7.081  19.968  -3.419 -0.29 +0.07    -0.303 OA
DOCKED: ATOM     39  H   UNL d   1       6.837  20.735  -3.981 -0.21 -0.11    +0.222 HD
DOCKED: ENDBRANCH  36  38
DOCKED: BRANCH  36  40
DOCKED: ATOM     40  O   UNL d   1       5.491  19.144  -5.174 -0.93 +0.11    -0.303 OA
DOCKED: ATOM     41  H   UNL d   1       5.917  19.348  -6.036 +0.09 -0.08    +0.222 HD
DOCKED: ENDBRANCH  36  40
DOCKED: ENDBRANCH  35  36
DOCKED: ENDBRANCH   5  35
DOCKED: BRANCH   4  42
DOCKED: ATOM     42  O   UNL d   1       7.718  19.887  -7.402 -0.07 +0.05    -0.278 OA
DOCKED: BRANCH  42  43
DOCKED: ATOM     43  P   UNL d   1       6.266  20.147  -8.009 -0.14 -0.12    +0.473 P 
DOCKED: ATOM     44  O   UNL d   1       6.179  20.519  -9.448 -0.05 +0.04    -0.228 OA
DOCKED: BRANCH  43  45
DOCKED: ATOM     45  O   UNL d   1       5.487  18.811  -7.634 -0.18 +0.14    -0.303 OA
DOCKED: ATOM     46  H   UNL d   1       4.664  19.002  -7.140 -0.37 -0.15    +0.222 HD
DOCKED: ENDBRANCH  43  45
DOCKED: BRANCH  43  47
DOCKED: ATOM     47  O   UNL d   1       5.623  21.197  -6.982 -0.09 +0.09    -0.303 OA
DOCKED: ATOM     48  H   UNL d   1       6.234  21.954  -6.870 -0.24 -0.08    +0.222 HD
DOCKED: ENDBRANCH  43  47
DOCKED: ENDBRANCH  42  43
DOCKED: ENDBRANCH   4  42
DOCKED: TORSDOF 24
DOCKED: TER
DOCKED: ENDMDL
________________________________________________________________________________


	BEGINNING GENETIC ALGORITHM DOCKING 68 of 100
Run: 68 Seed: 2010975637 386201424 [ Run 68 of 100 GA/GALS ]
Beginning LAMARCKIAN GENETIC ALGORITHM (LGA), with a maximum of 25000000 energy evaluations.

Final-Value: -18.473


	FINAL GENETIC ALGORITHM DOCKED STATE
	_______________________________________________


Detailed state:  trans 9.427 19.737 -6.222 quatxyzw 0.558868 -0.558937 0.214825 -0.573678 center 0.035 0.082 -0.065 ntor 24 -116.3427 -60.0877 140.9929 22.1194 5.6297 -134.3093 -7.2530 -176.5651 66.5144 95.5483 -28.1899 179.8321 92.2726 -177.9100 5.9585 118.2415 -13.7196 -168.3175 -35.6840 5.1274 124.2935 -14.4621 130.9603 -41.9725
State:	  9.427  19.737  -6.222   0.682 -0.682  0.262 -109.986   -116.34  -60.09  140.99   22.12    5.63 -134.31   -7.25 -176.57   66.51   95.55  -28.19  179.83   92.27 -177.91    5.96  118.24  -13.72 -168.32  -35.68    5.13  124.29  -14.46  130.96  -41.97

DOCKED: MODEL       68
DOCKED: USER    Run = 68
DOCKED: USER    DPF = D:/Protein_go_brrr/autodock/final/mut_K82N/IHP/dock.dpf
DOCKED: USER  
DOCKED: USER    Estimated Free Energy of Binding    =   +1.88 kcal/mol  [=(1)+(2)+(3)-(4)]
DOCKED: USER    
DOCKED: USER    (1) Final Intermolecular Energy     =   -5.27 kcal/mol
DOCKED: USER        vdW + Hbond + desolv Energy     =   -5.04 kcal/mol
DOCKED: USER        Electrostatic Energy            =   -0.24 kcal/mol
DOCKED: USER    (2) Final Total Internal Energy     =  -13.20 kcal/mol
DOCKED: USER    (3) Torsional Free Energy           =   +7.16 kcal/mol
DOCKED: USER    (4) Unbound System's Energy  [=(2)] =  -13.20 kcal/mol
DOCKED: USER    
DOCKED: USER    
DOCKED: USER    NEWDPF move IHP_ideal_opt.pdbqt
DOCKED: USER    NEWDPF about 0.035000 0.082000 -0.065000
DOCKED: USER    NEWDPF tran0 9.426611 19.736638 -6.222225
DOCKED: USER    NEWDPF quaternion0 0.558868 -0.558937 0.214825 -0.573678
DOCKED: USER    NEWDPF axisangle0 0.682311 -0.682395 0.262275 -109.985857
DOCKED: USER    NEWDPF quat0 0.682311 -0.682395 0.262275 -109.985857
DOCKED: USER    NEWDPF dihe0 -116.34 -60.09 140.99 22.12 5.63 -134.31 -7.25 -176.57 66.51 95.55 -28.19 179.83 92.27 -177.91 5.96 118.24 -13.72 -168.32 -35.68 5.13 124.29 -14.46 130.96 -41.97 
DOCKED: USER  keepresnum = 1 
DOCKED: USER  
DOCKED: REMARK  24 active torsions:
DOCKED: REMARK  status: ('A' for Active; 'I' for Inactive)
DOCKED: REMARK    1  A    between atoms: C_1  and  O_7 
DOCKED: REMARK    2  A    between atoms: C_2  and  O_12 
DOCKED: REMARK    3  A    between atoms: C_3  and  O_17 
DOCKED: REMARK    4  A    between atoms: C_4  and  O_22 
DOCKED: REMARK    5  A    between atoms: C_5  and  O_27 
DOCKED: REMARK    6  A    between atoms: C_6  and  O_32 
DOCKED: REMARK    7  A    between atoms: O_7  and  P_8 
DOCKED: REMARK    8  A    between atoms: P_8  and  O_10 
DOCKED: REMARK    9  A    between atoms: P_8  and  O_11 
DOCKED: REMARK   10  A    between atoms: O_12  and  P_13 
DOCKED: REMARK   11  A    between atoms: P_13  and  O_15 
DOCKED: REMARK   12  A    between atoms: P_13  and  O_16 
DOCKED: REMARK   13  A    between atoms: O_17  and  P_18 
DOCKED: REMARK   14  A    between atoms: P_18  and  O_20 
DOCKED: REMARK   15  A    between atoms: P_18  and  O_21 
DOCKED: REMARK   16  A    between atoms: O_22  and  P_23 
DOCKED: REMARK   17  A    between atoms: P_23  and  O_25 
DOCKED: REMARK   18  A    between atoms: P_23  and  O_26 
DOCKED: REMARK   19  A    between atoms: O_27  and  P_28 
DOCKED: REMARK   20  A    between atoms: P_28  and  O_30 
DOCKED: REMARK   21  A    between atoms: P_28  and  O_31 
DOCKED: REMARK   22  A    between atoms: O_32  and  P_33 
DOCKED: REMARK   23  A    between atoms: P_33  and  O_35 
DOCKED: REMARK   24  A    between atoms: P_33  and  O_36 
DOCKED: USER                              x       y       z     vdW  Elec       q    Type
DOCKED: USER                           _______ _______ _______ _____ _____    ______ ____
DOCKED: ROOT
DOCKED: ATOM      1  C   UNL d   1      10.237  18.314  -5.671 -0.10 -0.02    +0.194 C 
DOCKED: ATOM      2  C   UNL d   1      10.733  18.884  -7.002 -0.06 -0.02    +0.194 C 
DOCKED: ATOM      3  C   UNL d   1       9.572  19.309  -7.903 -0.06 -0.02    +0.194 C 
DOCKED: ATOM      4  C   UNL d   1       8.582  20.241  -7.210 -0.06 -0.03    +0.194 C 
DOCKED: ATOM      5  C   UNL d   1       8.148  19.768  -5.828 -0.14 -0.04    +0.194 C 
DOCKED: ATOM      6  C   UNL d   1       9.303  19.285  -4.948 -0.11 -0.03    +0.194 C 
DOCKED: ENDROOT
DOCKED: BRANCH   1   7
DOCKED: ATOM      7  O   UNL d   1      11.371  18.105  -4.826 -0.06 +0.03    -0.278 OA
DOCKED: BRANCH   7   8
DOCKED: ATOM      8  P   UNL d   1      11.239  17.061  -3.624 -0.11 -0.08    +0.473 P 
DOCKED: ATOM      9  O   UNL d   1      12.466  16.269  -3.338 -0.10 +0.03    -0.228 OA
DOCKED: BRANCH   8  10
DOCKED: ATOM     10  O   UNL d   1      10.765  17.952  -2.388 -0.08 +0.05    -0.303 OA
DOCKED: ATOM     11  H   UNL d   1       9.794  18.038  -2.401 +0.08 -0.04    +0.222 HD
DOCKED: ENDBRANCH   8  10
DOCKED: BRANCH   8  12
DOCKED: ATOM     12  O   UNL d   1       9.931  16.220  -3.949 -0.15 +0.10    -0.303 OA
DOCKED: ATOM     13  H   UNL d   1       9.165  16.464  -3.382 -0.47 -0.11    +0.222 HD
DOCKED: ENDBRANCH   8  12
DOCKED: ENDBRANCH   7   8
DOCKED: ENDBRANCH   1   7
DOCKED: BRANCH   2  14
DOCKED: ATOM     14  O   UNL d   1      11.553  20.030  -6.742 -0.01 +0.02    -0.278 OA
DOCKED: BRANCH  14  15
DOCKED: ATOM     15  P   UNL d   1      12.907  20.148  -7.589 -0.00 -0.04    +0.473 P 
DOCKED: ATOM     16  O   UNL d   1      14.181  20.237  -6.810 -0.00 +0.02    -0.228 OA
DOCKED: BRANCH  15  17
DOCKED: ATOM     17  O   UNL d   1      12.866  18.888  -8.563 -0.01 +0.02    -0.303 OA
DOCKED: ATOM     18  H   UNL d   1      11.984  18.788  -8.971 +0.02 -0.01    +0.222 HD
DOCKED: ENDBRANCH  15  17
DOCKED: BRANCH  15  19
DOCKED: ATOM     19  O   UNL d   1      12.638  21.344  -8.603 -0.00 +0.02    -0.303 OA
DOCKED: ATOM     20  H   UNL d   1      11.719  21.341  -8.928 +0.00 -0.02    +0.222 HD
DOCKED: ENDBRANCH  15  19
DOCKED: ENDBRANCH  14  15
DOCKED: ENDBRANCH   2  14
DOCKED: BRANCH   6  21
DOCKED: ATOM     21  O   UNL d   1       8.721  18.572  -3.859 -0.13 +0.05    -0.278 OA
DOCKED: BRANCH  21  22
DOCKED: ATOM     22  P   UNL d   1       7.252  17.967  -4.003 -0.31 -0.09    +0.473 P 
DOCKED: ATOM     23  O   UNL d   1       6.841  17.421  -5.329 -0.36 +0.03    -0.228 OA
DOCKED: BRANCH  22  24
DOCKED: ATOM     24  O   UNL d   1       7.213  16.918  -2.807 -0.31 +0.06    -0.303 OA
DOCKED: ATOM     25  H   UNL d   1       7.928  16.249  -2.961 -0.42 -0.12    +0.222 HD
DOCKED: ENDBRANCH  22  24
DOCKED: BRANCH  22  26
DOCKED: ATOM     26  O   UNL d   1       6.351  19.161  -3.425 -0.41 +0.07    -0.303 OA
DOCKED: ATOM     27  H   UNL d   1       6.592  19.994  -3.878 +0.06 -0.08    +0.222 HD
DOCKED: ENDBRANCH  22  26
DOCKED: ENDBRANCH  21  22
DOCKED: ENDBRANCH   6  21
DOCKED: BRANCH   3  28
DOCKED: ATOM     28  O   UNL d   1      10.118  20.068  -8.975 -0.01 +0.03    -0.278 OA
DOCKED: BRANCH  28  29
DOCKED: ATOM     29  P   UNL d   1      10.442  19.373 -10.370 -0.00 -0.04    +0.473 P 
DOCKED: ATOM     30  O   UNL d   1       9.353  19.424 -11.380 -0.01 +0.02    -0.228 OA
DOCKED: BRANCH  29  31
DOCKED: ATOM     31  O   UNL d   1      11.811  20.115 -10.740 -0.00 +0.02    -0.303 OA
DOCKED: ATOM     32  H   UNL d   1      12.379  20.146  -9.936 +0.00 -0.02    +0.222 HD
DOCKED: ENDBRANCH  29  31
DOCKED: BRANCH  29  33
DOCKED: ATOM     33  O   UNL d   1      10.937  17.929  -9.917 -0.03 +0.02    -0.303 OA
DOCKED: ATOM     34  H   UNL d   1      11.877  17.809 -10.197 +0.02 -0.01    +0.222 HD
DOCKED: ENDBRANCH  29  33
DOCKED: ENDBRANCH  28  29
DOCKED: ENDBRANCH   3  28
DOCKED: BRANCH   5  35
DOCKED: ATOM     35  O   UNL d   1       7.582  20.910  -5.188 -0.10 +0.10    -0.278 OA
DOCKED: BRANCH  35  36
DOCKED: ATOM     36  P   UNL d   1       8.451  21.772  -4.165 -0.06 -0.12    +0.473 P 
DOCKED: ATOM     37  O   UNL d   1       9.921  21.808  -4.438 -0.04 +0.03    -0.228 OA
DOCKED: BRANCH  36  38
DOCKED: ATOM     38  O   UNL d   1       7.735  23.192  -4.246 -0.08 +0.12    -0.303 OA
DOCKED: ATOM     39  H   UNL d   1       7.024  23.156  -4.921 -0.45 -0.17    +0.222 HD
DOCKED: ENDBRANCH  36  38
DOCKED: BRANCH  36  40
DOCKED: ATOM     40  O   UNL d   1       7.992  21.192  -2.757 -0.20 +0.05    -0.303 OA
DOCKED: ATOM     41  H   UNL d   1       8.091  20.215  -2.716 +0.09 -0.03    +0.222 HD
DOCKED: ENDBRANCH  36  40
DOCKED: ENDBRANCH  35  36
DOCKED: ENDBRANCH   5  35
DOCKED: BRANCH   4  42
DOCKED: ATOM     42  O   UNL d   1       7.408  20.282  -8.028 -0.06 +0.05    -0.278 OA
DOCKED: BRANCH  42  43
DOCKED: ATOM     43  P   UNL d   1       6.479  21.578  -7.981 -0.08 -0.10    +0.473 P 
DOCKED: ATOM     44  O   UNL d   1       5.049  21.386  -7.610 -0.10 +0.05    -0.228 OA
DOCKED: BRANCH  43  45
DOCKED: ATOM     45  O   UNL d   1       7.280  22.545  -7.004 -0.10 +0.08    -0.303 OA
DOCKED: ATOM     46  H   UNL d   1       6.894  22.546  -6.105 -0.51 -0.12    +0.222 HD
DOCKED: ENDBRANCH  43  45
DOCKED: BRANCH  43  47
DOCKED: ATOM     47  O   UNL d   1       6.738  22.266  -9.405 -0.02 +0.05    -0.303 OA
DOCKED: ATOM     48  H   UNL d   1       7.393  21.736  -9.905 +0.02 -0.03    +0.222 HD
DOCKED: ENDBRANCH  43  47
DOCKED: ENDBRANCH  42  43
DOCKED: ENDBRANCH   4  42
DOCKED: TORSDOF 24
DOCKED: TER
DOCKED: ENDMDL
________________________________________________________________________________


	BEGINNING GENETIC ALGORITHM DOCKING 69 of 100
Run: 69 Seed: 907652994 1713529972 [ Run 69 of 100 GA/GALS ]
Beginning LAMARCKIAN GENETIC ALGORITHM (LGA), with a maximum of 25000000 energy evaluations.

Final-Value: -19.152


	FINAL GENETIC ALGORITHM DOCKED STATE
	_______________________________________________


Detailed state:  trans 13.627 1.262 12.443 quatxyzw -0.782418 -0.210091 0.578183 0.096890 center 0.035 0.082 -0.065 ntor 24 158.0644 70.0148 -179.8533 5.5674 4.2368 157.3589 -67.3055 66.1270 1.2628 73.2938 105.5800 144.3411 -43.8747 83.6366 -175.8989 -171.7797 -7.2479 118.1147 11.1024 -40.5094 -37.4505 -30.7613 176.0201 0.3155
State:	 13.627   1.262  12.443  -0.786 -0.211  0.581 168.880    158.06   70.01 -179.85    5.57    4.24  157.36  -67.31   66.13    1.26   73.29  105.58  144.34  -43.87   83.64 -175.90 -171.78   -7.25  118.11   11.10  -40.51  -37.45  -30.76  176.02    0.32

DOCKED: MODEL       69
DOCKED: USER    Run = 69
DOCKED: USER    DPF = D:/Protein_go_brrr/autodock/final/mut_K82N/IHP/dock.dpf
DOCKED: USER  
DOCKED: USER    Estimated Free Energy of Binding    =   +2.55 kcal/mol  [=(1)+(2)+(3)-(4)]
DOCKED: USER    
DOCKED: USER    (1) Final Intermolecular Energy     =   -4.61 kcal/mol
DOCKED: USER        vdW + Hbond + desolv Energy     =   -4.49 kcal/mol
DOCKED: USER        Electrostatic Energy            =   -0.13 kcal/mol
DOCKED: USER    (2) Final Total Internal Energy     =  -14.54 kcal/mol
DOCKED: USER    (3) Torsional Free Energy           =   +7.16 kcal/mol
DOCKED: USER    (4) Unbound System's Energy  [=(2)] =  -14.54 kcal/mol
DOCKED: USER    
DOCKED: USER    
DOCKED: USER    NEWDPF move IHP_ideal_opt.pdbqt
DOCKED: USER    NEWDPF about 0.035000 0.082000 -0.065000
DOCKED: USER    NEWDPF tran0 13.627391 1.262382 12.442567
DOCKED: USER    NEWDPF quaternion0 -0.782418 -0.210091 0.578183 0.096890
DOCKED: USER    NEWDPF axisangle0 -0.786117 -0.211085 0.580916 168.879727
DOCKED: USER    NEWDPF quat0 -0.786117 -0.211085 0.580916 168.879727
DOCKED: USER    NEWDPF dihe0 158.06 70.01 -179.85 5.57 4.24 157.36 -67.31 66.13 1.26 73.29 105.58 144.34 -43.87 83.64 -175.90 -171.78 -7.25 118.11 11.10 -40.51 -37.45 -30.76 176.02 0.32 
DOCKED: USER  keepresnum = 1 
DOCKED: USER  
DOCKED: REMARK  24 active torsions:
DOCKED: REMARK  status: ('A' for Active; 'I' for Inactive)
DOCKED: REMARK    1  A    between atoms: C_1  and  O_7 
DOCKED: REMARK    2  A    between atoms: C_2  and  O_12 
DOCKED: REMARK    3  A    between atoms: C_3  and  O_17 
DOCKED: REMARK    4  A    between atoms: C_4  and  O_22 
DOCKED: REMARK    5  A    between atoms: C_5  and  O_27 
DOCKED: REMARK    6  A    between atoms: C_6  and  O_32 
DOCKED: REMARK    7  A    between atoms: O_7  and  P_8 
DOCKED: REMARK    8  A    between atoms: P_8  and  O_10 
DOCKED: REMARK    9  A    between atoms: P_8  and  O_11 
DOCKED: REMARK   10  A    between atoms: O_12  and  P_13 
DOCKED: REMARK   11  A    between atoms: P_13  and  O_15 
DOCKED: REMARK   12  A    between atoms: P_13  and  O_16 
DOCKED: REMARK   13  A    between atoms: O_17  and  P_18 
DOCKED: REMARK   14  A    between atoms: P_18  and  O_20 
DOCKED: REMARK   15  A    between atoms: P_18  and  O_21 
DOCKED: REMARK   16  A    between atoms: O_22  and  P_23 
DOCKED: REMARK   17  A    between atoms: P_23  and  O_25 
DOCKED: REMARK   18  A    between atoms: P_23  and  O_26 
DOCKED: REMARK   19  A    between atoms: O_27  and  P_28 
DOCKED: REMARK   20  A    between atoms: P_28  and  O_30 
DOCKED: REMARK   21  A    between atoms: P_28  and  O_31 
DOCKED: REMARK   22  A    between atoms: O_32  and  P_33 
DOCKED: REMARK   23  A    between atoms: P_33  and  O_35 
DOCKED: REMARK   24  A    between atoms: P_33  and  O_36 
DOCKED: USER                              x       y       z     vdW  Elec       q    Type
DOCKED: USER                           _______ _______ _______ _____ _____    ______ ____
DOCKED: ROOT
DOCKED: ATOM      1  C   UNL d   1      12.857   2.015  11.092 -0.16 -0.02    +0.194 C 
DOCKED: ATOM      2  C   UNL d   1      12.518   2.608  12.460 -0.12 -0.02    +0.194 C 
DOCKED: ATOM      3  C   UNL d   1      12.272   1.517  13.505 -0.19 -0.03    +0.194 C 
DOCKED: ATOM      4  C   UNL d   1      13.402   0.494  13.583 -0.16 -0.03    +0.194 C 
DOCKED: ATOM      5  C   UNL d   1      13.851  -0.040  12.229 -0.09 -0.05    +0.194 C 
DOCKED: ATOM      6  C   UNL d   1      14.038   1.045  11.167 -0.11 -0.03    +0.194 C 
DOCKED: ENDROOT
DOCKED: BRANCH   1   7
DOCKED: ATOM      7  O   UNL d   1      13.239   3.085  10.224 -0.06 +0.01    -0.278 OA
DOCKED: BRANCH   7   8
DOCKED: ATOM      8  P   UNL d   1      12.270   3.461   9.011 -0.12 -0.01    +0.473 P 
DOCKED: ATOM      9  O   UNL d   1      10.957   2.762   9.012 -0.33 +0.01    -0.228 OA
DOCKED: BRANCH   8  10
DOCKED: ATOM     10  O   UNL d   1      12.137   5.048   9.101 -0.10 +0.00    -0.303 OA
DOCKED: ATOM     11  H   UNL d   1      12.667   5.379   9.849 +0.05 -0.00    +0.222 HD
DOCKED: ENDBRANCH   8  10
DOCKED: BRANCH   8  12
DOCKED: ATOM     12  O   UNL d   1      13.154   3.275   7.704 -0.08 +0.00    -0.303 OA
DOCKED: ATOM     13  H   UNL d   1      13.896   2.642   7.827 +0.05 +0.00    +0.222 HD
DOCKED: ENDBRANCH   8  12
DOCKED: ENDBRANCH   7   8
DOCKED: ENDBRANCH   1   7
DOCKED: BRANCH   2  14
DOCKED: ATOM     14  O   UNL d   1      13.612   3.423  12.900 -0.02 +0.02    -0.278 OA
DOCKED: BRANCH  14  15
DOCKED: ATOM     15  P   UNL d   1      13.554   4.973  12.503 +0.00 -0.02    +0.473 P 
DOCKED: ATOM     16  O   UNL d   1      13.982   5.952  13.551 -0.01 +0.01    -0.228 OA
DOCKED: BRANCH  15  17
DOCKED: ATOM     17  O   UNL d   1      14.431   5.066  11.176 -0.00 +0.01    -0.303 OA
DOCKED: ATOM     18  H   UNL d   1      13.900   4.843  10.387 +0.03 -0.01    +0.222 HD
DOCKED: ENDBRANCH  15  17
DOCKED: BRANCH  15  19
DOCKED: ATOM     19  O   UNL d   1      12.084   5.181  11.930 -0.07 +0.01    -0.303 OA
DOCKED: ATOM     20  H   UNL d   1      11.885   4.552  11.212 +0.08 -0.01    +0.222 HD
DOCKED: ENDBRANCH  15  19
DOCKED: ENDBRANCH  14  15
DOCKED: ENDBRANCH   2  14
DOCKED: BRANCH   6  21
DOCKED: ATOM     21  O   UNL d   1      14.114   0.381   9.908 -0.34 +0.03    -0.278 OA
DOCKED: BRANCH  21  22
DOCKED: ATOM     22  P   UNL d   1      15.161   0.879   8.812 -0.01 +0.02    +0.473 P 
DOCKED: ATOM     23  O   UNL d   1      14.774   0.784   7.374 -0.42 -0.03    -0.228 OA
DOCKED: BRANCH  22  24
DOCKED: ATOM     24  O   UNL d   1      15.488   2.351   9.319 -0.02 +0.01    -0.303 OA
DOCKED: ATOM     25  H   UNL d   1      14.649   2.878   9.298 +0.03 -0.01    +0.222 HD
DOCKED: ENDBRANCH  22  24
DOCKED: BRANCH  22  26
DOCKED: ATOM     26  O   UNL d   1      16.483   0.080   9.238 -0.05 +0.01    -0.303 OA
DOCKED: ATOM     27  H   UNL d   1      16.378  -0.253  10.153 +0.02 -0.01    +0.222 HD
DOCKED: ENDBRANCH  22  26
DOCKED: ENDBRANCH  21  22
DOCKED: ENDBRANCH   6  21
DOCKED: BRANCH   3  28
DOCKED: ATOM     28  O   UNL d   1      12.243   2.145  14.781 -0.10 +0.04    -0.278 OA
DOCKED: BRANCH  28  29
DOCKED: ATOM     29  P   UNL d   1      10.930   2.899  15.276 -0.18 -0.09    +0.473 P 
DOCKED: ATOM     30  O   UNL d   1      10.851   3.155  16.737 -0.16 +0.02    -0.228 OA
DOCKED: BRANCH  29  31
DOCKED: ATOM     31  O   UNL d   1      10.964   4.179  14.315 -0.18 +0.04    -0.303 OA
DOCKED: ATOM     32  H   UNL d   1      11.863   4.250  13.919 +0.07 -0.02    +0.222 HD
DOCKED: ENDBRANCH  29  31
DOCKED: BRANCH  29  33
DOCKED: ATOM     33  O   UNL d   1       9.774   2.010  14.638 -0.40 +0.10    -0.303 OA
DOCKED: ATOM     34  H   UNL d   1       9.157   1.722  15.355 -0.43 -0.13    +0.222 HD
DOCKED: ENDBRANCH  29  33
DOCKED: ENDBRANCH  28  29
DOCKED: ENDBRANCH   3  28
DOCKED: BRANCH   5  35
DOCKED: ATOM     35  O   UNL d   1      15.129  -0.634  12.451 -0.11 +0.04    -0.278 OA
DOCKED: BRANCH  35  36
DOCKED: ATOM     36  P   UNL d   1      16.293   0.202  13.152 -0.02 -0.02    +0.473 P 
DOCKED: ATOM     37  O   UNL d   1      15.857   1.123  14.246 -0.02 +0.01    -0.228 OA
DOCKED: BRANCH  36  38
DOCKED: ATOM     38  O   UNL d   1      17.284  -0.953  13.624 -0.03 +0.00    -0.303 OA
DOCKED: ATOM     39  H   UNL d   1      16.859  -1.466  14.345 +0.03 +0.00    +0.222 HD
DOCKED: ENDBRANCH  36  38
DOCKED: BRANCH  36  40
DOCKED: ATOM     40  O   UNL d   1      17.036   0.858  11.908 -0.01 +0.01    -0.303 OA
DOCKED: ATOM     41  H   UNL d   1      16.415   1.043  11.169 +0.02 -0.01    +0.222 HD
DOCKED: ENDBRANCH  36  40
DOCKED: ENDBRANCH  35  36
DOCKED: ENDBRANCH   5  35
DOCKED: BRANCH   4  42
DOCKED: ATOM     42  O   UNL d   1      12.902  -0.620  14.330 -0.25 +0.07    -0.278 OA
DOCKED: BRANCH  42  43
DOCKED: ATOM     43  P   UNL d   1      13.490  -0.900  15.786 -0.16 -0.03    +0.473 P 
DOCKED: ATOM     44  O   UNL d   1      12.717  -1.812  16.675 -0.31 -0.00    -0.228 OA
DOCKED: BRANCH  43  45
DOCKED: ATOM     45  O   UNL d   1      14.970  -1.395  15.475 -0.12 -0.01    -0.303 OA
DOCKED: ATOM     46  H   UNL d   1      15.333  -0.960  14.678 +0.05 -0.00    +0.222 HD
DOCKED: ENDBRANCH  43  45
DOCKED: BRANCH  43  47
DOCKED: ATOM     47  O   UNL d   1      13.753   0.571  16.364 -0.06 +0.02    -0.303 OA
DOCKED: ATOM     48  H   UNL d   1      14.065   1.152  15.639 +0.06 -0.01    +0.222 HD
DOCKED: ENDBRANCH  43  47
DOCKED: ENDBRANCH  42  43
DOCKED: ENDBRANCH   4  42
DOCKED: TORSDOF 24
DOCKED: TER
DOCKED: ENDMDL
________________________________________________________________________________


	BEGINNING GENETIC ALGORITHM DOCKING 70 of 100
Run: 70 Seed: 1774581214 904236151 [ Run 70 of 100 GA/GALS ]
Beginning LAMARCKIAN GENETIC ALGORITHM (LGA), with a maximum of 25000000 energy evaluations.

Final-Value: -18.180


	FINAL GENETIC ALGORITHM DOCKED STATE
	_______________________________________________


Detailed state:  trans -10.127 -0.762 9.433 quatxyzw 0.706374 -0.049157 0.545829 0.447984 center 0.035 0.082 -0.065 ntor 24 -56.2675 79.4785 111.4748 151.1051 131.5437 132.4419 116.0893 -54.8522 30.5733 114.2757 27.2684 -121.8670 -30.1719 83.0474 -177.3818 -121.4379 -55.1779 -13.1519 -25.1207 11.8377 -1.7593 13.2294 166.3272 -12.4593
State:	-10.127  -0.762   9.433   0.790 -0.055  0.611 126.771    -56.27   79.48  111.47  151.11  131.54  132.44  116.09  -54.85   30.57  114.28   27.27 -121.87  -30.17   83.05 -177.38 -121.44  -55.18  -13.15  -25.12   11.84   -1.76   13.23  166.33  -12.46

DOCKED: MODEL       70
DOCKED: USER    Run = 70
DOCKED: USER    DPF = D:/Protein_go_brrr/autodock/final/mut_K82N/IHP/dock.dpf
DOCKED: USER  
DOCKED: USER    Estimated Free Energy of Binding    =   +2.44 kcal/mol  [=(1)+(2)+(3)-(4)]
DOCKED: USER    
DOCKED: USER    (1) Final Intermolecular Energy     =   -4.72 kcal/mol
DOCKED: USER        vdW + Hbond + desolv Energy     =   -4.45 kcal/mol
DOCKED: USER        Electrostatic Energy            =   -0.27 kcal/mol
DOCKED: USER    (2) Final Total Internal Energy     =  -13.46 kcal/mol
DOCKED: USER    (3) Torsional Free Energy           =   +7.16 kcal/mol
DOCKED: USER    (4) Unbound System's Energy  [=(2)] =  -13.46 kcal/mol
DOCKED: USER    
DOCKED: USER    
DOCKED: USER    NEWDPF move IHP_ideal_opt.pdbqt
DOCKED: USER    NEWDPF about 0.035000 0.082000 -0.065000
DOCKED: USER    NEWDPF tran0 -10.127185 -0.762305 9.433192
DOCKED: USER    NEWDPF quaternion0 0.706374 -0.049157 0.545829 0.447984
DOCKED: USER    NEWDPF axisangle0 0.790091 -0.054983 0.610519 126.771154
DOCKED: USER    NEWDPF quat0 0.790091 -0.054983 0.610519 126.771154
DOCKED: USER    NEWDPF dihe0 -56.27 79.48 111.47 151.11 131.54 132.44 116.09 -54.85 30.57 114.28 27.27 -121.87 -30.17 83.05 -177.38 -121.44 -55.18 -13.15 -25.12 11.84 -1.76 13.23 166.33 -12.46 
DOCKED: USER  keepresnum = 1 
DOCKED: USER  
DOCKED: REMARK  24 active torsions:
DOCKED: REMARK  status: ('A' for Active; 'I' for Inactive)
DOCKED: REMARK    1  A    between atoms: C_1  and  O_7 
DOCKED: REMARK    2  A    between atoms: C_2  and  O_12 
DOCKED: REMARK    3  A    between atoms: C_3  and  O_17 
DOCKED: REMARK    4  A    between atoms: C_4  and  O_22 
DOCKED: REMARK    5  A    between atoms: C_5  and  O_27 
DOCKED: REMARK    6  A    between atoms: C_6  and  O_32 
DOCKED: REMARK    7  A    between atoms: O_7  and  P_8 
DOCKED: REMARK    8  A    between atoms: P_8  and  O_10 
DOCKED: REMARK    9  A    between atoms: P_8  and  O_11 
DOCKED: REMARK   10  A    between atoms: O_12  and  P_13 
DOCKED: REMARK   11  A    between atoms: P_13  and  O_15 
DOCKED: REMARK   12  A    between atoms: P_13  and  O_16 
DOCKED: REMARK   13  A    between atoms: O_17  and  P_18 
DOCKED: REMARK   14  A    between atoms: P_18  and  O_20 
DOCKED: REMARK   15  A    between atoms: P_18  and  O_21 
DOCKED: REMARK   16  A    between atoms: O_22  and  P_23 
DOCKED: REMARK   17  A    between atoms: P_23  and  O_25 
DOCKED: REMARK   18  A    between atoms: P_23  and  O_26 
DOCKED: REMARK   19  A    between atoms: O_27  and  P_28 
DOCKED: REMARK   20  A    between atoms: P_28  and  O_30 
DOCKED: REMARK   21  A    between atoms: P_28  and  O_31 
DOCKED: REMARK   22  A    between atoms: O_32  and  P_33 
DOCKED: REMARK   23  A    between atoms: P_33  and  O_35 
DOCKED: REMARK   24  A    between atoms: P_33  and  O_36 
DOCKED: USER                              x       y       z     vdW  Elec       q    Type
DOCKED: USER                           _______ _______ _______ _____ _____    ______ ____
DOCKED: ROOT
DOCKED: ATOM      1  C   UNL d   1      -9.355  -0.477  10.952 -0.15 -0.04    +0.194 C 
DOCKED: ATOM      2  C   UNL d   1     -10.491   0.484  10.597 -0.09 -0.03    +0.194 C 
DOCKED: ATOM      3  C   UNL d   1     -10.423   0.927   9.134 -0.10 -0.02    +0.194 C 
DOCKED: ATOM      4  C   UNL d   1     -10.329  -0.241   8.156 -0.13 -0.02    +0.194 C 
DOCKED: ATOM      5  C   UNL d   1      -9.285  -1.284   8.534 -0.16 -0.01    +0.194 C 
DOCKED: ATOM      6  C   UNL d   1      -9.312  -1.682  10.011 -0.14 -0.03    +0.194 C 
DOCKED: ENDROOT
DOCKED: BRANCH   1   7
DOCKED: ATOM      7  O   UNL d   1      -9.587  -0.974  12.272 -0.07 +0.06    -0.278 OA
DOCKED: BRANCH   7   8
DOCKED: ATOM      8  P   UNL d   1      -8.323  -1.315  13.187 -0.14 -0.17    +0.473 P 
DOCKED: ATOM      9  O   UNL d   1      -7.058  -0.637  12.795 -0.36 +0.13    -0.228 OA
DOCKED: BRANCH   8  10
DOCKED: ATOM     10  O   UNL d   1      -8.803  -0.944  14.663 -0.11 +0.12    -0.303 OA
DOCKED: ATOM     11  H   UNL d   1      -8.400  -1.560  15.302 -0.46 -0.14    +0.222 HD
DOCKED: ENDBRANCH   8  10
DOCKED: BRANCH   8  12
DOCKED: ATOM     12  O   UNL d   1      -8.270  -2.902  13.244 -0.14 +0.07    -0.303 OA
DOCKED: ATOM     13  H   UNL d   1      -8.565  -3.328  12.408 +0.08 -0.04    +0.222 HD
DOCKED: ENDBRANCH   8  12
DOCKED: ENDBRANCH   7   8
DOCKED: ENDBRANCH   1   7
DOCKED: BRANCH   2  14
DOCKED: ATOM     14  O   UNL d   1     -11.745  -0.174  10.817 -0.01 +0.03    -0.278 OA
DOCKED: BRANCH  14  15
DOCKED: ATOM     15  P   UNL d   1     -12.937   0.729  11.389 +0.01 -0.05    +0.473 P 
DOCKED: ATOM     16  O   UNL d   1     -14.293   0.507  10.795 -0.00 +0.02    -0.228 OA
DOCKED: BRANCH  15  17
DOCKED: ATOM     17  O   UNL d   1     -12.902   0.469  12.960 -0.00 +0.03    -0.303 OA
DOCKED: ATOM     18  H   UNL d   1     -12.059   0.054  13.229 +0.01 -0.03    +0.222 HD
DOCKED: ENDBRANCH  15  17
DOCKED: BRANCH  15  19
DOCKED: ATOM     19  O   UNL d   1     -12.385   2.218  11.299 -0.00 +0.04    -0.303 OA
DOCKED: ATOM     20  H   UNL d   1     -12.621   2.639  10.452 +0.04 -0.03    +0.222 HD
DOCKED: ENDBRANCH  15  19
DOCKED: ENDBRANCH  14  15
DOCKED: ENDBRANCH   2  14
DOCKED: BRANCH   6  21
DOCKED: ATOM     21  O   UNL d   1      -8.095  -2.375  10.274 -0.21 +0.06    -0.278 OA
DOCKED: BRANCH  21  22
DOCKED: ATOM     22  P   UNL d   1      -8.104  -3.964  10.419 -0.12 -0.08    +0.473 P 
DOCKED: ATOM     23  O   UNL d   1      -7.132  -4.592  11.360 -0.30 +0.04    -0.228 OA
DOCKED: BRANCH  22  24
DOCKED: ATOM     24  O   UNL d   1      -9.634  -4.252  10.749 -0.03 +0.04    -0.303 OA
DOCKED: ATOM     25  H   UNL d   1     -10.173  -3.999   9.957 +0.05 -0.03    +0.222 HD
DOCKED: ENDBRANCH  22  24
DOCKED: BRANCH  22  26
DOCKED: ATOM     26  O   UNL d   1      -8.002  -4.431   8.888 -0.25 +0.04    -0.303 OA
DOCKED: ATOM     27  H   UNL d   1      -8.582  -3.864   8.340 +0.10 -0.02    +0.222 HD
DOCKED: ENDBRANCH  22  26
DOCKED: ENDBRANCH  21  22
DOCKED: ENDBRANCH   6  21
DOCKED: BRANCH   3  28
DOCKED: ATOM     28  O   UNL d   1     -11.649   1.578   8.827 -0.07 +0.03    -0.278 OA
DOCKED: BRANCH  28  29
DOCKED: ATOM     29  P   UNL d   1     -11.649   3.067   8.260 -0.15 -0.10    +0.473 P 
DOCKED: ATOM     30  O   UNL d   1     -12.809   3.904   8.658 -0.17 -0.00    -0.228 OA
DOCKED: BRANCH  29  31
DOCKED: ATOM     31  O   UNL d   1     -10.203   3.551   8.747 -0.29 +0.17    -0.303 OA
DOCKED: ATOM     32  H   UNL d   1      -9.986   4.398   8.293 -0.35 -0.34    +0.222 HD
DOCKED: ENDBRANCH  29  31
DOCKED: BRANCH  29  33
DOCKED: ATOM     33  O   UNL d   1     -11.434   2.831   6.700 -0.20 +0.03    -0.303 OA
DOCKED: ATOM     34  H   UNL d   1     -11.432   1.859   6.520 +0.09 -0.02    +0.222 HD
DOCKED: ENDBRANCH  29  33
DOCKED: ENDBRANCH  28  29
DOCKED: ENDBRANCH   3  28
DOCKED: BRANCH   5  35
DOCKED: ATOM     35  O   UNL d   1      -9.611  -2.450   7.779 -0.21 +0.01    -0.278 OA
DOCKED: BRANCH  35  36
DOCKED: ATOM     36  P   UNL d   1     -11.000  -3.198   8.015 -0.03 -0.08    +0.473 P 
DOCKED: ATOM     37  O   UNL d   1     -11.777  -2.753   9.213 -0.01 +0.03    -0.228 OA
DOCKED: BRANCH  36  38
DOCKED: ATOM     38  O   UNL d   1     -11.742  -2.953   6.627 -0.04 +0.08    -0.303 OA
DOCKED: ATOM     39  H   UNL d   1     -11.557  -2.039   6.321 +0.06 -0.05    +0.222 HD
DOCKED: ENDBRANCH  36  38
DOCKED: BRANCH  36  40
DOCKED: ATOM     40  O   UNL d   1     -10.576  -4.729   7.957 -0.05 +0.06    -0.303 OA
DOCKED: ATOM     41  H   UNL d   1     -10.077  -5.000   8.760 +0.06 -0.04    +0.222 HD
DOCKED: ENDBRANCH  36  40
DOCKED: ENDBRANCH  35  36
DOCKED: ENDBRANCH   5  35
DOCKED: BRANCH   4  42
DOCKED: ATOM     42  O   UNL d   1      -9.938   0.307   6.892 -0.22 +0.02    -0.278 OA
DOCKED: BRANCH  42  43
DOCKED: ATOM     43  P   UNL d   1     -10.861   0.041   5.618 -0.11 -0.05    +0.473 P 
DOCKED: ATOM     44  O   UNL d   1     -12.329  -0.070   5.845 -0.05 +0.03    -0.228 OA
DOCKED: BRANCH  43  45
DOCKED: ATOM     45  O   UNL d   1     -10.442   1.218   4.633 -0.15 +0.02    -0.303 OA
DOCKED: ATOM     46  H   UNL d   1     -10.398   2.077   5.099 +0.12 -0.02    +0.222 HD
DOCKED: ENDBRANCH  43  45
DOCKED: BRANCH  43  47
DOCKED: ATOM     47  O   UNL d   1     -10.170  -1.227   4.924 -0.11 +0.06    -0.303 OA
DOCKED: ATOM     48  H   UNL d   1     -10.128  -1.965   5.567 +0.10 -0.05    +0.222 HD
DOCKED: ENDBRANCH  43  47
DOCKED: ENDBRANCH  42  43
DOCKED: ENDBRANCH   4  42
DOCKED: TORSDOF 24
DOCKED: TER
DOCKED: ENDMDL
________________________________________________________________________________


	BEGINNING GENETIC ALGORITHM DOCKING 71 of 100
Run: 71 Seed: 1332554913 1855869466 [ Run 71 of 100 GA/GALS ]
Beginning LAMARCKIAN GENETIC ALGORITHM (LGA), with a maximum of 25000000 energy evaluations.

Final-Value: -17.811


	FINAL GENETIC ALGORITHM DOCKED STATE
	_______________________________________________


Detailed state:  trans 11.537 -13.317 2.216 quatxyzw -0.953141 0.213318 0.007290 0.214393 center 0.035 0.082 -0.065 ntor 24 -105.0547 3.8360 79.2819 114.8515 52.5563 -117.4368 179.9178 32.9893 73.9580 -6.1227 -19.6403 -105.4764 -131.3890 129.2492 -66.3466 8.4408 160.6868 -33.1511 29.3762 -7.5345 151.4315 1.1721 -11.7103 159.9490
State:	 11.537 -13.317   2.216  -0.976  0.218  0.007 155.240   -105.05    3.84   79.28  114.85   52.56 -117.44  179.92   32.99   73.96   -6.12  -19.64 -105.48 -131.39  129.25  -66.35    8.44  160.69  -33.15   29.38   -7.53  151.43    1.17  -11.71  159.95

DOCKED: MODEL       71
DOCKED: USER    Run = 71
DOCKED: USER    DPF = D:/Protein_go_brrr/autodock/final/mut_K82N/IHP/dock.dpf
DOCKED: USER  
DOCKED: USER    Estimated Free Energy of Binding    =   +3.72 kcal/mol  [=(1)+(2)+(3)-(4)]
DOCKED: USER    
DOCKED: USER    (1) Final Intermolecular Energy     =   -3.44 kcal/mol
DOCKED: USER        vdW + Hbond + desolv Energy     =   -3.32 kcal/mol
DOCKED: USER        Electrostatic Energy            =   -0.12 kcal/mol
DOCKED: USER    (2) Final Total Internal Energy     =  -14.37 kcal/mol
DOCKED: USER    (3) Torsional Free Energy           =   +7.16 kcal/mol
DOCKED: USER    (4) Unbound System's Energy  [=(2)] =  -14.37 kcal/mol
DOCKED: USER    
DOCKED: USER    
DOCKED: USER    NEWDPF move IHP_ideal_opt.pdbqt
DOCKED: USER    NEWDPF about 0.035000 0.082000 -0.065000
DOCKED: USER    NEWDPF tran0 11.536635 -13.316541 2.215511
DOCKED: USER    NEWDPF quaternion0 -0.953141 0.213318 0.007290 0.214393
DOCKED: USER    NEWDPF axisangle0 -0.975832 0.218396 0.007464 155.240188
DOCKED: USER    NEWDPF quat0 -0.975832 0.218396 0.007464 155.240188
DOCKED: USER    NEWDPF dihe0 -105.05 3.84 79.28 114.85 52.56 -117.44 179.92 32.99 73.96 -6.12 -19.64 -105.48 -131.39 129.25 -66.35 8.44 160.69 -33.15 29.38 -7.53 151.43 1.17 -11.71 159.95 
DOCKED: USER  keepresnum = 1 
DOCKED: USER  
DOCKED: REMARK  24 active torsions:
DOCKED: REMARK  status: ('A' for Active; 'I' for Inactive)
DOCKED: REMARK    1  A    between atoms: C_1  and  O_7 
DOCKED: REMARK    2  A    between atoms: C_2  and  O_12 
DOCKED: REMARK    3  A    between atoms: C_3  and  O_17 
DOCKED: REMARK    4  A    between atoms: C_4  and  O_22 
DOCKED: REMARK    5  A    between atoms: C_5  and  O_27 
DOCKED: REMARK    6  A    between atoms: C_6  and  O_32 
DOCKED: REMARK    7  A    between atoms: O_7  and  P_8 
DOCKED: REMARK    8  A    between atoms: P_8  and  O_10 
DOCKED: REMARK    9  A    between atoms: P_8  and  O_11 
DOCKED: REMARK   10  A    between atoms: O_12  and  P_13 
DOCKED: REMARK   11  A    between atoms: P_13  and  O_15 
DOCKED: REMARK   12  A    between atoms: P_13  and  O_16 
DOCKED: REMARK   13  A    between atoms: O_17  and  P_18 
DOCKED: REMARK   14  A    between atoms: P_18  and  O_20 
DOCKED: REMARK   15  A    between atoms: P_18  and  O_21 
DOCKED: REMARK   16  A    between atoms: O_22  and  P_23 
DOCKED: REMARK   17  A    between atoms: P_23  and  O_25 
DOCKED: REMARK   18  A    between atoms: P_23  and  O_26 
DOCKED: REMARK   19  A    between atoms: O_27  and  P_28 
DOCKED: REMARK   20  A    between atoms: P_28  and  O_30 
DOCKED: REMARK   21  A    between atoms: P_28  and  O_31 
DOCKED: REMARK   22  A    between atoms: O_32  and  P_33 
DOCKED: REMARK   23  A    between atoms: P_33  and  O_35 
DOCKED: REMARK   24  A    between atoms: P_33  and  O_36 
DOCKED: USER                              x       y       z     vdW  Elec       q    Type
DOCKED: USER                           _______ _______ _______ _____ _____    ______ ____
DOCKED: ROOT
DOCKED: ATOM      1  C   UNL d   1      12.950 -13.425   1.229 -0.02 +0.02    +0.194 C 
DOCKED: ATOM      2  C   UNL d   1      12.179 -12.107   1.136 -0.06 +0.02    +0.194 C 
DOCKED: ATOM      3  C   UNL d   1      10.668 -12.338   1.067 -0.12 +0.03    +0.194 C 
DOCKED: ATOM      4  C   UNL d   1      10.145 -13.236   2.186 -0.05 +0.07    +0.194 C 
DOCKED: ATOM      5  C   UNL d   1      10.955 -14.510   2.390 -0.13 +0.06    +0.194 C 
DOCKED: ATOM      6  C   UNL d   1      12.469 -14.286   2.397 -0.05 +0.04    +0.194 C 
DOCKED: ENDROOT
DOCKED: BRANCH   1   7
DOCKED: ATOM      7  O   UNL d   1      14.327 -13.121   1.463 -0.00 -0.02    -0.278 OA
DOCKED: BRANCH   7   8
DOCKED: ATOM      8  P   UNL d   1      15.303 -13.000   0.203 +0.00 +0.01    +0.473 P 
DOCKED: ATOM      9  O   UNL d   1      15.776 -14.295  -0.355 +0.00 -0.00    -0.228 OA
DOCKED: BRANCH   8  10
DOCKED: ATOM     10  O   UNL d   1      14.474 -12.129  -0.845 -0.00 -0.01    -0.303 OA
DOCKED: ATOM     11  H   UNL d   1      14.747 -11.195  -0.784 +0.00 +0.00    +0.222 HD
DOCKED: ENDBRANCH   8  10
DOCKED: BRANCH   8  12
DOCKED: ATOM     12  O   UNL d   1      16.437 -11.983   0.656 -0.00 -0.00    -0.303 OA
DOCKED: ATOM     13  H   UNL d   1      16.088 -11.217   1.164 +0.00 +0.00    +0.222 HD
DOCKED: ENDBRANCH   8  12
DOCKED: ENDBRANCH   7   8
DOCKED: ENDBRANCH   1   7
DOCKED: BRANCH   2  14
DOCKED: ATOM     14  O   UNL d   1      12.467 -11.315   2.295 -0.07 -0.04    -0.278 OA
DOCKED: BRANCH  14  15
DOCKED: ATOM     15  P   UNL d   1      13.045  -9.845   2.032 -0.03 +0.03    +0.473 P 
DOCKED: ATOM     16  O   UNL d   1      13.450  -9.056   3.238 -0.06 -0.01    -0.228 OA
DOCKED: BRANCH  15  17
DOCKED: ATOM     17  O   UNL d   1      14.249 -10.078   1.014 -0.01 -0.01    -0.303 OA
DOCKED: ATOM     18  H   UNL d   1      14.517 -11.017   0.997 +0.01 +0.01    +0.222 HD
DOCKED: ENDBRANCH  15  17
DOCKED: BRANCH  15  19
DOCKED: ATOM     19  O   UNL d   1      11.962  -9.156   1.093 -0.07 -0.01    -0.303 OA
DOCKED: ATOM     20  H   UNL d   1      11.071  -9.183   1.489 +0.09 +0.01    +0.222 HD
DOCKED: ENDBRANCH  15  19
DOCKED: ENDBRANCH  14  15
DOCKED: ENDBRANCH   2  14
DOCKED: BRANCH   6  21
DOCKED: ATOM     21  O   UNL d   1      13.075 -15.568   2.250 -0.01 -0.04    -0.278 OA
DOCKED: BRANCH  21  22
DOCKED: ATOM     22  P   UNL d   1      12.580 -16.551   1.095 +0.01 +0.04    +0.473 P 
DOCKED: ATOM     23  O   UNL d   1      11.127 -16.563   0.756 -0.04 -0.03    -0.228 OA
DOCKED: BRANCH  22  24
DOCKED: ATOM     24  O   UNL d   1      13.542 -16.151  -0.108 -0.00 -0.01    -0.303 OA
DOCKED: ATOM     25  H   UNL d   1      13.989 -15.298   0.125 +0.00 +0.01    +0.222 HD
DOCKED: ENDBRANCH  22  24
DOCKED: BRANCH  22  26
DOCKED: ATOM     26  O   UNL d   1      13.203 -17.950   1.567 -0.00 -0.02    -0.303 OA
DOCKED: ATOM     27  H   UNL d   1      12.749 -18.246   2.382 +0.02 +0.02    +0.222 HD
DOCKED: ENDBRANCH  22  26
DOCKED: ENDBRANCH  21  22
DOCKED: ENDBRANCH   6  21
DOCKED: BRANCH   3  28
DOCKED: ATOM     28  O   UNL d   1      10.033 -11.081   1.263 -0.17 -0.05    -0.278 OA
DOCKED: BRANCH  28  29
DOCKED: ATOM     29  P   UNL d   1       9.243 -10.384   0.068 -0.16 +0.04    +0.473 P 
DOCKED: ATOM     30  O   UNL d   1       9.554 -10.897  -1.291 -0.10 -0.02    -0.228 OA
DOCKED: BRANCH  29  31
DOCKED: ATOM     31  O   UNL d   1       7.740 -10.564   0.586 -0.12 -0.02    -0.303 OA
DOCKED: ATOM     32  H   UNL d   1       7.206 -10.972  -0.134 +0.01 +0.01    +0.222 HD
DOCKED: ENDBRANCH  29  31
DOCKED: BRANCH  29  33
DOCKED: ATOM     33  O   UNL d   1       9.526  -8.841   0.337 -0.16 -0.00    -0.303 OA
DOCKED: ATOM     34  H   UNL d   1      10.330  -8.568  -0.170 +0.09 +0.00    +0.222 HD
DOCKED: ENDBRANCH  29  33
DOCKED: ENDBRANCH  28  29
DOCKED: ENDBRANCH   3  28
DOCKED: BRANCH   5  35
DOCKED: ATOM     35  O   UNL d   1      10.596 -14.994   3.682 -0.09 -0.20    -0.278 OA
DOCKED: BRANCH  35  36
DOCKED: ATOM     36  P   UNL d   1       9.915 -16.428   3.843 -0.13 +0.22    +0.473 P 
DOCKED: ATOM     37  O   UNL d   1       9.072 -16.607   5.065 -0.69 -0.15    -0.228 OA
DOCKED: BRANCH  36  38
DOCKED: ATOM     38  O   UNL d   1       9.119 -16.566   2.471 -0.13 -0.08    -0.303 OA
DOCKED: ATOM     39  H   UNL d   1       9.315 -15.788   1.906 +0.07 +0.06    +0.222 HD
DOCKED: ENDBRANCH  36  38
DOCKED: BRANCH  36  40
DOCKED: ATOM     40  O   UNL d   1      11.152 -17.412   3.669 -0.04 -0.07    -0.303 OA
DOCKED: ATOM     41  H   UNL d   1      11.696 -17.178   2.884 +0.04 +0.04    +0.222 HD
DOCKED: ENDBRANCH  36  40
DOCKED: ENDBRANCH  35  36
DOCKED: ENDBRANCH   5  35
DOCKED: BRANCH   4  42
DOCKED: ATOM     42  O   UNL d   1       8.822 -13.634   1.813 -0.25 -0.08    -0.278 OA
DOCKED: BRANCH  42  43
DOCKED: ATOM     43  P   UNL d   1       8.572 -14.203   0.344 -0.17 +0.11    +0.473 P 
DOCKED: ATOM     44  O   UNL d   1       9.769 -14.560  -0.467 -0.06 -0.03    -0.228 OA
DOCKED: BRANCH  43  45
DOCKED: ATOM     45  O   UNL d   1       7.577 -15.418   0.605 -0.66 -0.13    -0.303 OA
DOCKED: ATOM     46  H   UNL d   1       8.062 -16.260   0.719 +0.08 +0.08    +0.222 HD
DOCKED: ENDBRANCH  43  45
DOCKED: BRANCH  43  47
DOCKED: ATOM     47  O   UNL d   1       7.593 -13.115  -0.309 -0.20 -0.06    -0.303 OA
DOCKED: ATOM     48  H   UNL d   1       8.103 -12.304  -0.513 +0.12 +0.03    +0.222 HD
DOCKED: ENDBRANCH  43  47
DOCKED: ENDBRANCH  42  43
DOCKED: ENDBRANCH   4  42
DOCKED: TORSDOF 24
DOCKED: TER
DOCKED: ENDMDL
________________________________________________________________________________


	BEGINNING GENETIC ALGORITHM DOCKING 72 of 100
Run: 72 Seed: 1492924354 1656207333 [ Run 72 of 100 GA/GALS ]
Beginning LAMARCKIAN GENETIC ALGORITHM (LGA), with a maximum of 25000000 energy evaluations.

Final-Value: -18.052


	FINAL GENETIC ALGORITHM DOCKED STATE
	_______________________________________________


Detailed state:  trans 2.441 3.905 21.372 quatxyzw -0.701089 -0.322418 -0.011327 0.635918 center 0.035 0.082 -0.065 ntor 24 -167.8775 3.3284 114.6386 122.9189 53.7939 -180.0000 -106.2644 -89.7902 33.5756 -169.5842 38.2039 136.9901 27.1455 66.0909 14.4469 62.9165 -66.2311 -179.1388 -134.8573 -8.9431 154.1710 -13.9248 -169.3798 13.0775
State:	  2.441   3.905  21.372  -0.908 -0.418 -0.015 101.024   -167.88    3.33  114.64  122.92   53.79 -180.00 -106.26  -89.79   33.58 -169.58   38.20  136.99   27.15   66.09   14.45   62.92  -66.23 -179.14 -134.86   -8.94  154.17  -13.92 -169.38   13.08

DOCKED: MODEL       72
DOCKED: USER    Run = 72
DOCKED: USER    DPF = D:/Protein_go_brrr/autodock/final/mut_K82N/IHP/dock.dpf
DOCKED: USER  
DOCKED: USER    Estimated Free Energy of Binding    =   +1.88 kcal/mol  [=(1)+(2)+(3)-(4)]
DOCKED: USER    
DOCKED: USER    (1) Final Intermolecular Energy     =   -5.28 kcal/mol
DOCKED: USER        vdW + Hbond + desolv Energy     =   -4.90 kcal/mol
DOCKED: USER        Electrostatic Energy            =   -0.38 kcal/mol
DOCKED: USER    (2) Final Total Internal Energy     =  -12.77 kcal/mol
DOCKED: USER    (3) Torsional Free Energy           =   +7.16 kcal/mol
DOCKED: USER    (4) Unbound System's Energy  [=(2)] =  -12.77 kcal/mol
DOCKED: USER    
DOCKED: USER    
DOCKED: USER    NEWDPF move IHP_ideal_opt.pdbqt
DOCKED: USER    NEWDPF about 0.035000 0.082000 -0.065000
DOCKED: USER    NEWDPF tran0 2.441275 3.904797 21.371547
DOCKED: USER    NEWDPF quaternion0 -0.701089 -0.322418 -0.011327 0.635918
DOCKED: USER    NEWDPF axisangle0 -0.908433 -0.417772 -0.014677 101.023723
DOCKED: USER    NEWDPF quat0 -0.908433 -0.417772 -0.014677 101.023723
DOCKED: USER    NEWDPF dihe0 -167.88 3.33 114.64 122.92 53.79 -180.00 -106.26 -89.79 33.58 -169.58 38.20 136.99 27.15 66.09 14.45 62.92 -66.23 -179.14 -134.86 -8.94 154.17 -13.92 -169.38 13.08 
DOCKED: USER  keepresnum = 1 
DOCKED: USER  
DOCKED: REMARK  24 active torsions:
DOCKED: REMARK  status: ('A' for Active; 'I' for Inactive)
DOCKED: REMARK    1  A    between atoms: C_1  and  O_7 
DOCKED: REMARK    2  A    between atoms: C_2  and  O_12 
DOCKED: REMARK    3  A    between atoms: C_3  and  O_17 
DOCKED: REMARK    4  A    between atoms: C_4  and  O_22 
DOCKED: REMARK    5  A    between atoms: C_5  and  O_27 
DOCKED: REMARK    6  A    between atoms: C_6  and  O_32 
DOCKED: REMARK    7  A    between atoms: O_7  and  P_8 
DOCKED: REMARK    8  A    between atoms: P_8  and  O_10 
DOCKED: REMARK    9  A    between atoms: P_8  and  O_11 
DOCKED: REMARK   10  A    between atoms: O_12  and  P_13 
DOCKED: REMARK   11  A    between atoms: P_13  and  O_15 
DOCKED: REMARK   12  A    between atoms: P_13  and  O_16 
DOCKED: REMARK   13  A    between atoms: O_17  and  P_18 
DOCKED: REMARK   14  A    between atoms: P_18  and  O_20 
DOCKED: REMARK   15  A    between atoms: P_18  and  O_21 
DOCKED: REMARK   16  A    between atoms: O_22  and  P_23 
DOCKED: REMARK   17  A    between atoms: P_23  and  O_25 
DOCKED: REMARK   18  A    between atoms: P_23  and  O_26 
DOCKED: REMARK   19  A    between atoms: O_27  and  P_28 
DOCKED: REMARK   20  A    between atoms: P_28  and  O_30 
DOCKED: REMARK   21  A    between atoms: P_28  and  O_31 
DOCKED: REMARK   22  A    between atoms: O_32  and  P_33 
DOCKED: REMARK   23  A    between atoms: P_33  and  O_35 
DOCKED: REMARK   24  A    between atoms: P_33  and  O_36 
DOCKED: USER                              x       y       z     vdW  Elec       q    Type
DOCKED: USER                           _______ _______ _______ _____ _____    ______ ____
DOCKED: ROOT
DOCKED: ATOM      1  C   UNL d   1       3.382   3.775  19.928 -0.28 -0.10    +0.194 C 
DOCKED: ATOM      2  C   UNL d   1       1.884   3.506  19.768 -0.25 -0.12    +0.194 C 
DOCKED: ATOM      3  C   UNL d   1       1.339   2.640  20.906 +0.10 -0.18    +0.194 C 
DOCKED: ATOM      4  C   UNL d   1       1.683   3.182  22.291 -0.06 -0.10    +0.194 C 
DOCKED: ATOM      5  C   UNL d   1       3.146   3.572  22.459 -0.07 -0.07    +0.194 C 
DOCKED: ATOM      6  C   UNL d   1       3.708   4.385  21.292 -0.11 -0.06    +0.194 C 
DOCKED: ENDROOT
DOCKED: BRANCH   1   7
DOCKED: ATOM      7  O   UNL d   1       3.774   4.723  18.932 -0.08 +0.16    -0.278 OA
DOCKED: BRANCH   7   8
DOCKED: ATOM      8  P   UNL d   1       3.993   6.242  19.375 -0.08 -0.16    +0.473 P 
DOCKED: ATOM      9  O   UNL d   1       5.288   6.522  20.051 -0.09 +0.04    -0.228 OA
DOCKED: BRANCH   8  10
DOCKED: ATOM     10  O   UNL d   1       3.798   7.070  18.025 -0.11 +0.16    -0.303 OA
DOCKED: ATOM     11  H   UNL d   1       3.121   6.637  17.471 -0.40 -0.19    +0.222 HD
DOCKED: ENDBRANCH   8  10
DOCKED: BRANCH   8  12
DOCKED: ATOM     12  O   UNL d   1       2.686   6.627  20.192 -0.04 +0.08    -0.303 OA
DOCKED: ATOM     13  H   UNL d   1       1.859   6.286  19.780 +0.04 -0.07    +0.222 HD
DOCKED: ENDBRANCH   8  12
DOCKED: ENDBRANCH   7   8
DOCKED: ENDBRANCH   1   7
DOCKED: BRANCH   2  14
DOCKED: ATOM     14  O   UNL d   1       1.183   4.755  19.768 -0.09 +0.11    -0.278 OA
DOCKED: BRANCH  14  15
DOCKED: ATOM     15  P   UNL d   1       0.279   5.069  18.484 -0.10 -0.18    +0.473 P 
DOCKED: ATOM     16  O   UNL d   1      -1.177   5.314  18.730 -0.06 +0.06    -0.228 OA
DOCKED: BRANCH  15  17
DOCKED: ATOM     17  O   UNL d   1       1.006   6.307  17.792 -0.11 +0.15    -0.303 OA
DOCKED: ATOM     18  H   UNL d   1       1.929   6.388  18.098 -0.39 -0.14    +0.222 HD
DOCKED: ENDBRANCH  15  17
DOCKED: BRANCH  15  19
DOCKED: ATOM     19  O   UNL d   1       0.614   3.893  17.466 -0.27 +0.13    -0.303 OA
DOCKED: ATOM     20  H   UNL d   1       0.350   3.024  17.821 +0.11 -0.09    +0.222 HD
DOCKED: ENDBRANCH  15  19
DOCKED: ENDBRANCH  14  15
DOCKED: ENDBRANCH   2  14
DOCKED: BRANCH   6  21
DOCKED: ATOM     21  O   UNL d   1       5.128   4.373  21.426 -0.11 +0.03    -0.278 OA
DOCKED: BRANCH  21  22
DOCKED: ATOM     22  P   UNL d   1       5.894   2.985  21.603 -0.26 -0.01    +0.473 P 
DOCKED: ATOM     23  O   UNL d   1       5.503   1.847  20.721 -0.66 +0.07    -0.228 OA
DOCKED: BRANCH  22  24
DOCKED: ATOM     24  O   UNL d   1       7.416   3.435  21.476 -0.67 -0.14    -0.303 OA
DOCKED: ATOM     25  H   UNL d   1       7.435   4.364  21.134 +0.06 +0.07    +0.222 HD
DOCKED: ENDBRANCH  22  24
DOCKED: BRANCH  22  26
DOCKED: ATOM     26  O   UNL d   1       5.754   2.733  23.180 -0.10 -0.01    -0.303 OA
DOCKED: ATOM     27  H   UNL d   1       5.176   3.423  23.565 +0.05 +0.00    +0.222 HD
DOCKED: ENDBRANCH  22  26
DOCKED: ENDBRANCH  21  22
DOCKED: ENDBRANCH   6  21
DOCKED: BRANCH   3  28
DOCKED: ATOM     28  O   UNL d   1      -0.080   2.675  20.829 -0.09 +0.14    -0.278 OA
DOCKED: BRANCH  28  29
DOCKED: ATOM     29  P   UNL d   1      -0.875   1.508  20.092 -0.17 -0.16    +0.473 P 
DOCKED: ATOM     30  O   UNL d   1      -0.316   0.143  20.267 -0.39 +0.08    -0.228 OA
DOCKED: BRANCH  29  31
DOCKED: ATOM     31  O   UNL d   1      -2.347   1.770  20.662 -0.08 +0.03    -0.303 OA
DOCKED: ATOM     32  H   UNL d   1      -2.306   1.772  21.647 +0.04 -0.02    +0.222 HD
DOCKED: ENDBRANCH  29  31
DOCKED: BRANCH  29  33
DOCKED: ATOM     33  O   UNL d   1      -0.972   2.060  18.601 -0.21 +0.09    -0.303 OA
DOCKED: ATOM     34  H   UNL d   1      -1.005   3.048  18.626 +0.09 -0.07    +0.222 HD
DOCKED: ENDBRANCH  29  33
DOCKED: ENDBRANCH  28  29
DOCKED: ENDBRANCH   3  28
DOCKED: BRANCH   5  35
DOCKED: ATOM     35  O   UNL d   1       3.194   4.407  23.614 -0.01 +0.04    -0.278 OA
DOCKED: BRANCH  35  36
DOCKED: ATOM     36  P   UNL d   1       2.031   5.464  23.891 +0.01 -0.05    +0.473 P 
DOCKED: ATOM     37  O   UNL d   1       1.233   5.873  22.695 -0.00 +0.04    -0.228 OA
DOCKED: BRANCH  36  38
DOCKED: ATOM     38  O   UNL d   1       1.185   4.729  25.023 +0.00 +0.03    -0.303 OA
DOCKED: ATOM     39  H   UNL d   1       1.176   3.764  24.841 +0.01 -0.03    +0.222 HD
DOCKED: ENDBRANCH  36  38
DOCKED: BRANCH  36  40
DOCKED: ATOM     40  O   UNL d   1       2.799   6.616  24.675 +0.00 +0.02    -0.303 OA
DOCKED: ATOM     41  H   UNL d   1       2.407   7.500  24.499 +0.00 -0.01    +0.222 HD
DOCKED: ENDBRANCH  36  40
DOCKED: ENDBRANCH  35  36
DOCKED: ENDBRANCH   5  35
DOCKED: BRANCH   4  42
DOCKED: ATOM     42  O   UNL d   1       1.418   2.130  23.225 -0.06 +0.15    -0.278 OA
DOCKED: BRANCH  42  43
DOCKED: ATOM     43  P   UNL d   1       0.034   2.134  24.019 -0.01 -0.11    +0.473 P 
DOCKED: ATOM     44  O   UNL d   1       0.085   1.892  25.488 -0.00 +0.03    -0.228 OA
DOCKED: BRANCH  43  45
DOCKED: ATOM     45  O   UNL d   1      -0.597   3.537  23.612 +0.00 +0.05    -0.303 OA
DOCKED: ATOM     46  H   UNL d   1       0.092   4.222  23.504 +0.01 -0.04    +0.222 HD
DOCKED: ENDBRANCH  43  45
DOCKED: BRANCH  43  47
DOCKED: ATOM     47  O   UNL d   1      -0.872   1.112  23.180 -0.04 +0.06    -0.303 OA
DOCKED: ATOM     48  H   UNL d   1      -0.759   1.291  22.224 +0.03 -0.07    +0.222 HD
DOCKED: ENDBRANCH  43  47
DOCKED: ENDBRANCH  42  43
DOCKED: ENDBRANCH   4  42
DOCKED: TORSDOF 24
DOCKED: TER
DOCKED: ENDMDL
________________________________________________________________________________


	BEGINNING GENETIC ALGORITHM DOCKING 73 of 100
Run: 73 Seed: 762579122 712616026 [ Run 73 of 100 GA/GALS ]
Beginning LAMARCKIAN GENETIC ALGORITHM (LGA), with a maximum of 25000000 energy evaluations.

Final-Value: -17.759


	FINAL GENETIC ALGORITHM DOCKED STATE
	_______________________________________________


Detailed state:  trans 12.454 2.531 19.610 quatxyzw 0.101343 -0.900952 -0.202685 0.370045 center 0.035 0.082 -0.065 ntor 24 -176.9112 14.6739 -178.1411 60.0257 23.4721 -158.4228 -117.4211 -50.1423 121.9948 -48.1624 169.4502 -48.9033 61.9968 4.1793 -43.2060 -170.4500 162.2154 50.3381 21.0805 -7.6144 174.6051 3.0921 19.2050 -177.6750
State:	 12.454   2.531  19.610   0.109 -0.970 -0.218 136.563   -176.91   14.67 -178.14   60.03   23.47 -158.42 -117.42  -50.14  121.99  -48.16  169.45  -48.90   62.00    4.18  -43.21 -170.45  162.22   50.34   21.08   -7.61  174.61    3.09   19.20 -177.67

DOCKED: MODEL       73
DOCKED: USER    Run = 73
DOCKED: USER    DPF = D:/Protein_go_brrr/autodock/final/mut_K82N/IHP/dock.dpf
DOCKED: USER  
DOCKED: USER    Estimated Free Energy of Binding    =   +2.96 kcal/mol  [=(1)+(2)+(3)-(4)]
DOCKED: USER    
DOCKED: USER    (1) Final Intermolecular Energy     =   -4.20 kcal/mol
DOCKED: USER        vdW + Hbond + desolv Energy     =   -4.06 kcal/mol
DOCKED: USER        Electrostatic Energy            =   -0.13 kcal/mol
DOCKED: USER    (2) Final Total Internal Energy     =  -13.56 kcal/mol
DOCKED: USER    (3) Torsional Free Energy           =   +7.16 kcal/mol
DOCKED: USER    (4) Unbound System's Energy  [=(2)] =  -13.56 kcal/mol
DOCKED: USER    
DOCKED: USER    
DOCKED: USER    NEWDPF move IHP_ideal_opt.pdbqt
DOCKED: USER    NEWDPF about 0.035000 0.082000 -0.065000
DOCKED: USER    NEWDPF tran0 12.454416 2.530792 19.609843
DOCKED: USER    NEWDPF quaternion0 0.101343 -0.900952 -0.202685 0.370045
DOCKED: USER    NEWDPF axisangle0 0.109087 -0.969794 -0.218172 136.563180
DOCKED: USER    NEWDPF quat0 0.109087 -0.969794 -0.218172 136.563180
DOCKED: USER    NEWDPF dihe0 -176.91 14.67 -178.14 60.03 23.47 -158.42 -117.42 -50.14 121.99 -48.16 169.45 -48.90 62.00 4.18 -43.21 -170.45 162.22 50.34 21.08 -7.61 174.61 3.09 19.20 -177.67 
DOCKED: USER  keepresnum = 1 
DOCKED: USER  
DOCKED: REMARK  24 active torsions:
DOCKED: REMARK  status: ('A' for Active; 'I' for Inactive)
DOCKED: REMARK    1  A    between atoms: C_1  and  O_7 
DOCKED: REMARK    2  A    between atoms: C_2  and  O_12 
DOCKED: REMARK    3  A    between atoms: C_3  and  O_17 
DOCKED: REMARK    4  A    between atoms: C_4  and  O_22 
DOCKED: REMARK    5  A    between atoms: C_5  and  O_27 
DOCKED: REMARK    6  A    between atoms: C_6  and  O_32 
DOCKED: REMARK    7  A    between atoms: O_7  and  P_8 
DOCKED: REMARK    8  A    between atoms: P_8  and  O_10 
DOCKED: REMARK    9  A    between atoms: P_8  and  O_11 
DOCKED: REMARK   10  A    between atoms: O_12  and  P_13 
DOCKED: REMARK   11  A    between atoms: P_13  and  O_15 
DOCKED: REMARK   12  A    between atoms: P_13  and  O_16 
DOCKED: REMARK   13  A    between atoms: O_17  and  P_18 
DOCKED: REMARK   14  A    between atoms: P_18  and  O_20 
DOCKED: REMARK   15  A    between atoms: P_18  and  O_21 
DOCKED: REMARK   16  A    between atoms: O_22  and  P_23 
DOCKED: REMARK   17  A    between atoms: P_23  and  O_25 
DOCKED: REMARK   18  A    between atoms: P_23  and  O_26 
DOCKED: REMARK   19  A    between atoms: O_27  and  P_28 
DOCKED: REMARK   20  A    between atoms: P_28  and  O_30 
DOCKED: REMARK   21  A    between atoms: P_28  and  O_31 
DOCKED: REMARK   22  A    between atoms: O_32  and  P_33 
DOCKED: REMARK   23  A    between atoms: P_33  and  O_35 
DOCKED: REMARK   24  A    between atoms: P_33  and  O_36 
DOCKED: USER                              x       y       z     vdW  Elec       q    Type
DOCKED: USER                           _______ _______ _______ _____ _____    ______ ____
DOCKED: ROOT
DOCKED: ATOM      1  C   UNL d   1      12.361   2.041  17.956 -0.19 +0.00    +0.194 C 
DOCKED: ATOM      2  C   UNL d   1      13.278   1.198  18.844 -0.14 +0.01    +0.194 C 
DOCKED: ATOM      3  C   UNL d   1      14.125   2.070  19.772 -0.07 +0.03    +0.194 C 
DOCKED: ATOM      4  C   UNL d   1      13.299   3.069  20.579 -0.11 +0.06    +0.194 C 
DOCKED: ATOM      5  C   UNL d   1      12.289   3.851  19.751 -0.15 +0.05    +0.194 C 
DOCKED: ATOM      6  C   UNL d   1      11.484   2.988  18.777 -0.10 +0.02    +0.194 C 
DOCKED: ENDROOT
DOCKED: BRANCH   1   7
DOCKED: ATOM      7  O   UNL d   1      11.487   1.157  17.250 -0.20 +0.06    -0.278 OA
DOCKED: BRANCH   7   8
DOCKED: ATOM      8  P   UNL d   1      11.819   0.822  15.723 -0.18 -0.13    +0.473 P 
DOCKED: ATOM      9  O   UNL d   1      12.198  -0.593  15.456 -0.26 +0.07    -0.228 OA
DOCKED: BRANCH   8  10
DOCKED: ATOM     10  O   UNL d   1      10.511   1.281  14.934 -0.36 +0.12    -0.303 OA
DOCKED: ATOM     11  H   UNL d   1      10.048   1.973  15.442 -0.25 -0.10    +0.222 HD
DOCKED: ENDBRANCH   8  10
DOCKED: BRANCH   8  12
DOCKED: ATOM     12  O   UNL d   1      12.878   1.920  15.280 -0.06 +0.03    -0.303 OA
DOCKED: ATOM     13  H   UNL d   1      12.765   2.776  15.750 +0.07 -0.02    +0.222 HD
DOCKED: ENDBRANCH   8  12
DOCKED: ENDBRANCH   7   8
DOCKED: ENDBRANCH   1   7
DOCKED: BRANCH   2  14
DOCKED: ATOM     14  O   UNL d   1      12.475   0.323  19.646 -0.19 -0.04    -0.278 OA
DOCKED: BRANCH  14  15
DOCKED: ATOM     15  P   UNL d   1      12.794  -1.243  19.535 -0.16 +0.03    +0.473 P 
DOCKED: ATOM     16  O   UNL d   1      14.179  -1.674  19.906 -0.06 -0.02    -0.228 OA
DOCKED: BRANCH  15  17
DOCKED: ATOM     17  O   UNL d   1      11.672  -1.931  20.431 -0.20 +0.00    -0.303 OA
DOCKED: ATOM     18  H   UNL d   1      10.857  -2.087  19.916 -0.50 -0.07    +0.222 HD
DOCKED: ENDBRANCH  15  17
DOCKED: BRANCH  15  19
DOCKED: ATOM     19  O   UNL d   1      12.322  -1.641  18.069 -0.29 +0.00    -0.303 OA
DOCKED: ATOM     20  H   UNL d   1      11.963  -0.874  17.585 +0.11 -0.02    +0.222 HD
DOCKED: ENDBRANCH  15  19
DOCKED: ENDBRANCH  14  15
DOCKED: ENDBRANCH   2  14
DOCKED: BRANCH   6  21
DOCKED: ATOM     21  O   UNL d   1      10.855   3.878  17.859 -0.15 -0.03    -0.278 OA
DOCKED: BRANCH  21  22
DOCKED: ATOM     22  P   UNL d   1      11.730   4.622  16.751 -0.07 -0.00    +0.473 P 
DOCKED: ATOM     23  O   UNL d   1      13.215   4.595  16.891 -0.03 -0.00    -0.228 OA
DOCKED: BRANCH  22  24
DOCKED: ATOM     24  O   UNL d   1      11.175   3.973  15.408 -0.16 +0.03    -0.303 OA
DOCKED: ATOM     25  H   UNL d   1      11.069   2.999  15.557 +0.09 -0.03    +0.222 HD
DOCKED: ENDBRANCH  22  24
DOCKED: BRANCH  22  26
DOCKED: ATOM     26  O   UNL d   1      11.053   6.074  16.722 -0.06 +0.00    -0.303 OA
DOCKED: ATOM     27  H   UNL d   1      10.656   6.262  17.597 +0.06 +0.01    +0.222 HD
DOCKED: ENDBRANCH  22  26
DOCKED: ENDBRANCH  21  22
DOCKED: ENDBRANCH   6  21
DOCKED: BRANCH   3  28
DOCKED: ATOM     28  O   UNL d   1      14.726   1.213  20.734 -0.04 -0.05    -0.278 OA
DOCKED: BRANCH  28  29
DOCKED: ATOM     29  P   UNL d   1      16.305   1.007  20.754 +0.00 +0.05    +0.473 P 
DOCKED: ATOM     30  O   UNL d   1      16.859   0.416  21.999 -0.00 -0.02    -0.228 OA
DOCKED: BRANCH  29  31
DOCKED: ATOM     31  O   UNL d   1      16.495   0.168  19.404 -0.01 -0.02    -0.303 OA
DOCKED: ATOM     32  H   UNL d   1      16.055  -0.706  19.514 +0.03 +0.01    +0.222 HD
DOCKED: ENDBRANCH  29  31
DOCKED: BRANCH  29  33
DOCKED: ATOM     33  O   UNL d   1      16.835   2.453  20.347 -0.00 -0.03    -0.303 OA
DOCKED: ATOM     34  H   UNL d   1      16.075   3.084  20.343 +0.01 +0.02    +0.222 HD
DOCKED: ENDBRANCH  29  33
DOCKED: ENDBRANCH  28  29
DOCKED: ENDBRANCH   3  28
DOCKED: BRANCH   5  35
DOCKED: ATOM     35  O   UNL d   1      11.364   4.402  20.687 -0.13 -0.12    -0.278 OA
DOCKED: BRANCH  35  36
DOCKED: ATOM     36  P   UNL d   1      10.634   5.786  20.377 -0.10 +0.12    +0.473 P 
DOCKED: ATOM     37  O   UNL d   1      10.206   6.571  21.576 -0.07 -0.07    -0.228 OA
DOCKED: BRANCH  36  38
DOCKED: ATOM     38  O   UNL d   1      11.707   6.523  19.461 -0.02 -0.04    -0.303 OA
DOCKED: ATOM     39  H   UNL d   1      11.966   5.926  18.726 +0.04 +0.02    +0.222 HD
DOCKED: ENDBRANCH  36  38
DOCKED: BRANCH  36  40
DOCKED: ATOM     40  O   UNL d   1       9.495   5.348  19.357 -0.15 -0.07    -0.303 OA
DOCKED: ATOM     41  H   UNL d   1       9.805   5.390  18.425 +0.07 +0.03    +0.222 HD
DOCKED: ENDBRANCH  36  40
DOCKED: ENDBRANCH  35  36
DOCKED: ENDBRANCH   5  35
DOCKED: BRANCH   4  42
DOCKED: ATOM     42  O   UNL d   1      14.219   4.018  21.130 -0.05 -0.08    -0.278 OA
DOCKED: BRANCH  42  43
DOCKED: ATOM     43  P   UNL d   1      14.918   5.069  20.154 -0.00 +0.06    +0.473 P 
DOCKED: ATOM     44  O   UNL d   1      14.299   6.419  20.041 -0.01 -0.03    -0.228 OA
DOCKED: BRANCH  43  45
DOCKED: ATOM     45  O   UNL d   1      16.421   5.084  20.677 -0.00 -0.03    -0.303 OA
DOCKED: ATOM     46  H   UNL d   1      16.989   4.486  20.151 +0.00 +0.02    +0.222 HD
DOCKED: ENDBRANCH  43  45
DOCKED: BRANCH  43  47
DOCKED: ATOM     47  O   UNL d   1      15.059   4.255  18.780 -0.01 -0.02    -0.303 OA
DOCKED: ATOM     48  H   UNL d   1      14.708   4.799  18.045 +0.02 +0.01    +0.222 HD
DOCKED: ENDBRANCH  43  47
DOCKED: ENDBRANCH  42  43
DOCKED: ENDBRANCH   4  42
DOCKED: TORSDOF 24
DOCKED: TER
DOCKED: ENDMDL
________________________________________________________________________________


	BEGINNING GENETIC ALGORITHM DOCKING 74 of 100
Run: 74 Seed: 1589989909 294032112 [ Run 74 of 100 GA/GALS ]
Beginning LAMARCKIAN GENETIC ALGORITHM (LGA), with a maximum of 25000000 energy evaluations.

Final-Value: -17.784


	FINAL GENETIC ALGORITHM DOCKED STATE
	_______________________________________________


Detailed state:  trans 12.040 4.235 16.018 quatxyzw -0.546113 -0.193459 0.682492 0.445577 center 0.035 0.082 -0.065 ntor 24 -134.7815 109.5774 143.8650 -18.3279 68.8280 -4.2021 -107.7483 18.3955 -10.3235 -30.2210 30.6024 162.5376 27.4861 -179.0013 -70.2724 180.0000 -121.5186 167.2267 -135.8916 13.3429 -170.1953 21.3421 152.7359 -12.8592
State:	 12.040   4.235  16.018  -0.610 -0.216  0.762 127.079   -134.78  109.58  143.87  -18.33   68.83   -4.20 -107.75   18.40  -10.32  -30.22   30.60  162.54   27.49 -179.00  -70.27  180.00 -121.52  167.23 -135.89   13.34 -170.20   21.34  152.74  -12.86

DOCKED: MODEL       74
DOCKED: USER    Run = 74
DOCKED: USER    DPF = D:/Protein_go_brrr/autodock/final/mut_K82N/IHP/dock.dpf
DOCKED: USER  
DOCKED: USER    Estimated Free Energy of Binding    =   +3.00 kcal/mol  [=(1)+(2)+(3)-(4)]
DOCKED: USER    
DOCKED: USER    (1) Final Intermolecular Energy     =   -4.16 kcal/mol
DOCKED: USER        vdW + Hbond + desolv Energy     =   -4.07 kcal/mol
DOCKED: USER        Electrostatic Energy            =   -0.08 kcal/mol
DOCKED: USER    (2) Final Total Internal Energy     =  -13.63 kcal/mol
DOCKED: USER    (3) Torsional Free Energy           =   +7.16 kcal/mol
DOCKED: USER    (4) Unbound System's Energy  [=(2)] =  -13.63 kcal/mol
DOCKED: USER    
DOCKED: USER    
DOCKED: USER    NEWDPF move IHP_ideal_opt.pdbqt
DOCKED: USER    NEWDPF about 0.035000 0.082000 -0.065000
DOCKED: USER    NEWDPF tran0 12.039790 4.234897 16.017767
DOCKED: USER    NEWDPF quaternion0 -0.546113 -0.193459 0.682492 0.445577
DOCKED: USER    NEWDPF axisangle0 -0.610016 -0.216096 0.762354 127.079498
DOCKED: USER    NEWDPF quat0 -0.610016 -0.216096 0.762354 127.079498
DOCKED: USER    NEWDPF dihe0 -134.78 109.58 143.87 -18.33 68.83 -4.20 -107.75 18.40 -10.32 -30.22 30.60 162.54 27.49 -179.00 -70.27 180.00 -121.52 167.23 -135.89 13.34 -170.20 21.34 152.74 -12.86 
DOCKED: USER  keepresnum = 1 
DOCKED: USER  
DOCKED: REMARK  24 active torsions:
DOCKED: REMARK  status: ('A' for Active; 'I' for Inactive)
DOCKED: REMARK    1  A    between atoms: C_1  and  O_7 
DOCKED: REMARK    2  A    between atoms: C_2  and  O_12 
DOCKED: REMARK    3  A    between atoms: C_3  and  O_17 
DOCKED: REMARK    4  A    between atoms: C_4  and  O_22 
DOCKED: REMARK    5  A    between atoms: C_5  and  O_27 
DOCKED: REMARK    6  A    between atoms: C_6  and  O_32 
DOCKED: REMARK    7  A    between atoms: O_7  and  P_8 
DOCKED: REMARK    8  A    between atoms: P_8  and  O_10 
DOCKED: REMARK    9  A    between atoms: P_8  and  O_11 
DOCKED: REMARK   10  A    between atoms: O_12  and  P_13 
DOCKED: REMARK   11  A    between atoms: P_13  and  O_15 
DOCKED: REMARK   12  A    between atoms: P_13  and  O_16 
DOCKED: REMARK   13  A    between atoms: O_17  and  P_18 
DOCKED: REMARK   14  A    between atoms: P_18  and  O_20 
DOCKED: REMARK   15  A    between atoms: P_18  and  O_21 
DOCKED: REMARK   16  A    between atoms: O_22  and  P_23 
DOCKED: REMARK   17  A    between atoms: P_23  and  O_25 
DOCKED: REMARK   18  A    between atoms: P_23  and  O_26 
DOCKED: REMARK   19  A    between atoms: O_27  and  P_28 
DOCKED: REMARK   20  A    between atoms: P_28  and  O_30 
DOCKED: REMARK   21  A    between atoms: P_28  and  O_31 
DOCKED: REMARK   22  A    between atoms: O_32  and  P_33 
DOCKED: REMARK   23  A    between atoms: P_33  and  O_35 
DOCKED: REMARK   24  A    between atoms: P_33  and  O_36 
DOCKED: USER                              x       y       z     vdW  Elec       q    Type
DOCKED: USER                           _______ _______ _______ _____ _____    ______ ____
DOCKED: ROOT
DOCKED: ATOM      1  C   UNL d   1      10.851   3.613  14.930 -0.25 -0.03    +0.194 C 
DOCKED: ATOM      2  C   UNL d   1      10.411   4.810  15.775 -0.21 -0.02    +0.194 C 
DOCKED: ATOM      3  C   UNL d   1      10.870   4.675  17.229 -0.12 +0.01    +0.194 C 
DOCKED: ATOM      4  C   UNL d   1      12.363   4.390  17.365 -0.09 +0.01    +0.194 C 
DOCKED: ATOM      5  C   UNL d   1      12.868   3.278  16.454 -0.08 -0.01    +0.194 C 
DOCKED: ATOM      6  C   UNL d   1      12.360   3.378  15.014 -0.10 -0.02    +0.194 C 
DOCKED: ENDROOT
DOCKED: BRANCH   1   7
DOCKED: ATOM      7  O   UNL d   1      10.539   3.893  13.563 -0.18 +0.04    -0.278 OA
DOCKED: BRANCH   7   8
DOCKED: ATOM      8  P   UNL d   1      11.720   4.365  12.597 -0.06 -0.03    +0.473 P 
DOCKED: ATOM      9  O   UNL d   1      12.597   3.273  12.093 -0.09 +0.01    -0.228 OA
DOCKED: BRANCH   8  10
DOCKED: ATOM     10  O   UNL d   1      10.972   5.158  11.432 -0.17 +0.01    -0.303 OA
DOCKED: ATOM     11  H   UNL d   1      10.583   5.977  11.791 +0.09 -0.01    +0.222 HD
DOCKED: ENDBRANCH   8  10
DOCKED: BRANCH   8  12
DOCKED: ATOM     12  O   UNL d   1      12.452   5.537  13.380 -0.03 +0.01    -0.303 OA
DOCKED: ATOM     13  H   UNL d   1      12.879   5.235  14.214 +0.04 -0.01    +0.222 HD
DOCKED: ENDBRANCH   8  12
DOCKED: ENDBRANCH   7   8
DOCKED: ENDBRANCH   1   7
DOCKED: BRANCH   2  14
DOCKED: ATOM     14  O   UNL d   1      10.981   6.004  15.225 -0.10 +0.02    -0.278 OA
DOCKED: BRANCH  14  15
DOCKED: ATOM     15  P   UNL d   1      10.087   7.329  15.311 -0.15 -0.03    +0.473 P 
DOCKED: ATOM     16  O   UNL d   1       9.794   8.028  14.020 -0.74 -0.03    -0.228 OA
DOCKED: BRANCH  15  17
DOCKED: ATOM     17  O   UNL d   1       8.768   6.858  16.071 -0.25 +0.06    -0.303 OA
DOCKED: ATOM     18  H   UNL d   1       8.988   6.345  16.872 +0.08 -0.02    +0.222 HD
DOCKED: ENDBRANCH  15  17
DOCKED: BRANCH  15  19
DOCKED: ATOM     19  O   UNL d   1      10.797   8.216  16.425 -0.03 +0.01    -0.303 OA
DOCKED: ATOM     20  H   UNL d   1      10.586   7.904  17.324 +0.05 -0.00    +0.222 HD
DOCKED: ENDBRANCH  15  19
DOCKED: ENDBRANCH  14  15
DOCKED: ENDBRANCH   2  14
DOCKED: BRANCH   6  21
DOCKED: ATOM     21  O   UNL d   1      12.623   2.121  14.396 -0.07 +0.03    -0.278 OA
DOCKED: BRANCH  21  22
DOCKED: ATOM     22  P   UNL d   1      11.553   0.943  14.511 -0.14 -0.14    +0.473 P 
DOCKED: ATOM     23  O   UNL d   1      10.857   0.748  15.815 -0.26 +0.11    -0.228 OA
DOCKED: BRANCH  22  24
DOCKED: ATOM     24  O   UNL d   1      10.593   1.254  13.281 -0.27 +0.06    -0.303 OA
DOCKED: ATOM     25  H   UNL d   1      10.957   2.037  12.795 +0.14 -0.02    +0.222 HD
DOCKED: ENDBRANCH  22  24
DOCKED: BRANCH  22  26
DOCKED: ATOM     26  O   UNL d   1      12.391  -0.312  13.968 -0.23 +0.10    -0.303 OA
DOCKED: ATOM     27  H   UNL d   1      11.818  -1.105  13.966 -0.39 -0.13    +0.222 HD
DOCKED: ENDBRANCH  22  26
DOCKED: ENDBRANCH  21  22
DOCKED: ENDBRANCH   6  21
DOCKED: BRANCH   3  28
DOCKED: ATOM     28  O   UNL d   1      10.667   5.933  17.860 -0.08 -0.01    -0.278 OA
DOCKED: BRANCH  28  29
DOCKED: ATOM     29  P   UNL d   1       9.940   6.016  19.274 -0.08 +0.07    +0.473 P 
DOCKED: ATOM     30  O   UNL d   1      10.289   7.196  20.106 -0.03 -0.03    -0.228 OA
DOCKED: BRANCH  29  31
DOCKED: ATOM     31  O   UNL d   1       8.414   5.879  18.812 -0.06 -0.03    -0.303 OA
DOCKED: ATOM     32  H   UNL d   1       8.220   6.587  18.156 +0.08 -0.01    +0.222 HD
DOCKED: ENDBRANCH  29  31
DOCKED: BRANCH  29  33
DOCKED: ATOM     33  O   UNL d   1      10.250   4.582  19.894 -0.20 -0.09    -0.303 OA
DOCKED: ATOM     34  H   UNL d   1      11.181   4.571  20.226 +0.04 +0.07    +0.222 HD
DOCKED: ENDBRANCH  29  33
DOCKED: ENDBRANCH  28  29
DOCKED: ENDBRANCH   3  28
DOCKED: BRANCH   5  35
DOCKED: ATOM     35  O   UNL d   1      14.286   3.428  16.410 -0.01 +0.00    -0.278 OA
DOCKED: BRANCH  35  36
DOCKED: ATOM     36  P   UNL d   1      14.946   4.575  15.521 +0.00 -0.01    +0.473 P 
DOCKED: ATOM     37  O   UNL d   1      14.996   4.305  14.051 -0.00 +0.01    -0.228 OA
DOCKED: BRANCH  36  38
DOCKED: ATOM     38  O   UNL d   1      14.072   5.844  15.924 -0.00 +0.00    -0.303 OA
DOCKED: ATOM     39  H   UNL d   1      13.228   5.824  15.424 +0.03 -0.00    +0.222 HD
DOCKED: ENDBRANCH  36  38
DOCKED: BRANCH  36  40
DOCKED: ATOM     40  O   UNL d   1      16.335   4.818  16.257 +0.00 -0.00    -0.303 OA
DOCKED: ATOM     41  H   UNL d   1      16.215   5.277  17.118 +0.00 +0.00    +0.222 HD
DOCKED: ENDBRANCH  36  40
DOCKED: ENDBRANCH  35  36
DOCKED: ENDBRANCH   5  35
DOCKED: BRANCH   4  42
DOCKED: ATOM     42  O   UNL d   1      12.582   3.962  18.713 -0.08 -0.03    -0.278 OA
DOCKED: BRANCH  42  43
DOCKED: ATOM     43  P   UNL d   1      13.643   4.748  19.609 -0.03 +0.07    +0.473 P 
DOCKED: ATOM     44  O   UNL d   1      14.405   3.962  20.619 -0.04 -0.05    -0.228 OA
DOCKED: BRANCH  43  45
DOCKED: ATOM     45  O   UNL d   1      14.554   5.467  18.521 -0.00 -0.02    -0.303 OA
DOCKED: ATOM     46  H   UNL d   1      14.760   4.870  17.775 +0.01 +0.01    +0.222 HD
DOCKED: ENDBRANCH  43  45
DOCKED: BRANCH  43  47
DOCKED: ATOM     47  O   UNL d   1      12.793   5.977  20.188 -0.03 -0.06    -0.303 OA
DOCKED: ATOM     48  H   UNL d   1      11.990   6.101  19.640 +0.03 +0.03    +0.222 HD
DOCKED: ENDBRANCH  43  47
DOCKED: ENDBRANCH  42  43
DOCKED: ENDBRANCH   4  42
DOCKED: TORSDOF 24
DOCKED: TER
DOCKED: ENDMDL
________________________________________________________________________________


	BEGINNING GENETIC ALGORITHM DOCKING 75 of 100
Run: 75 Seed: 951988732 496708680 [ Run 75 of 100 GA/GALS ]
Beginning LAMARCKIAN GENETIC ALGORITHM (LGA), with a maximum of 25000000 energy evaluations.

Final-Value: -17.889


	FINAL GENETIC ALGORITHM DOCKED STATE
	_______________________________________________


Detailed state:  trans 9.775 -13.163 17.110 quatxyzw 0.329864 0.237022 -0.867766 -0.286344 center 0.035 0.082 -0.065 ntor 24 -166.2025 -22.3408 70.5112 90.7460 99.0841 87.6884 24.9684 -63.5103 71.5345 -61.3140 -52.0016 179.9717 47.5841 -79.5720 179.6419 90.3433 60.9112 6.5781 -143.9184 -17.8614 13.5937 -29.0025 -176.9066 169.2634
State:	  9.775 -13.163  17.110   0.344  0.247 -0.906 -146.722   -166.20  -22.34   70.51   90.75   99.08   87.69   24.97  -63.51   71.53  -61.31  -52.00  179.97   47.58  -79.57  179.64   90.34   60.91    6.58 -143.92  -17.86   13.59  -29.00 -176.91  169.26

DOCKED: MODEL       75
DOCKED: USER    Run = 75
DOCKED: USER    DPF = D:/Protein_go_brrr/autodock/final/mut_K82N/IHP/dock.dpf
DOCKED: USER  
DOCKED: USER    Estimated Free Energy of Binding    =   +3.88 kcal/mol  [=(1)+(2)+(3)-(4)]
DOCKED: USER    
DOCKED: USER    (1) Final Intermolecular Energy     =   -3.28 kcal/mol
DOCKED: USER        vdW + Hbond + desolv Energy     =   -3.36 kcal/mol
DOCKED: USER        Electrostatic Energy            =   +0.08 kcal/mol
DOCKED: USER    (2) Final Total Internal Energy     =  -14.61 kcal/mol
DOCKED: USER    (3) Torsional Free Energy           =   +7.16 kcal/mol
DOCKED: USER    (4) Unbound System's Energy  [=(2)] =  -14.61 kcal/mol
DOCKED: USER    
DOCKED: USER    
DOCKED: USER    NEWDPF move IHP_ideal_opt.pdbqt
DOCKED: USER    NEWDPF about 0.035000 0.082000 -0.065000
DOCKED: USER    NEWDPF tran0 9.774672 -13.163318 17.109843
DOCKED: USER    NEWDPF quaternion0 0.329864 0.237022 -0.867766 -0.286344
DOCKED: USER    NEWDPF axisangle0 0.344280 0.247380 -0.905690 -146.721584
DOCKED: USER    NEWDPF quat0 0.344280 0.247380 -0.905690 -146.721584
DOCKED: USER    NEWDPF dihe0 -166.20 -22.34 70.51 90.75 99.08 87.69 24.97 -63.51 71.53 -61.31 -52.00 179.97 47.58 -79.57 179.64 90.34 60.91 6.58 -143.92 -17.86 13.59 -29.00 -176.91 169.26 
DOCKED: USER  keepresnum = 1 
DOCKED: USER  
DOCKED: REMARK  24 active torsions:
DOCKED: REMARK  status: ('A' for Active; 'I' for Inactive)
DOCKED: REMARK    1  A    between atoms: C_1  and  O_7 
DOCKED: REMARK    2  A    between atoms: C_2  and  O_12 
DOCKED: REMARK    3  A    between atoms: C_3  and  O_17 
DOCKED: REMARK    4  A    between atoms: C_4  and  O_22 
DOCKED: REMARK    5  A    between atoms: C_5  and  O_27 
DOCKED: REMARK    6  A    between atoms: C_6  and  O_32 
DOCKED: REMARK    7  A    between atoms: O_7  and  P_8 
DOCKED: REMARK    8  A    between atoms: P_8  and  O_10 
DOCKED: REMARK    9  A    between atoms: P_8  and  O_11 
DOCKED: REMARK   10  A    between atoms: O_12  and  P_13 
DOCKED: REMARK   11  A    between atoms: P_13  and  O_15 
DOCKED: REMARK   12  A    between atoms: P_13  and  O_16 
DOCKED: REMARK   13  A    between atoms: O_17  and  P_18 
DOCKED: REMARK   14  A    between atoms: P_18  and  O_20 
DOCKED: REMARK   15  A    between atoms: P_18  and  O_21 
DOCKED: REMARK   16  A    between atoms: O_22  and  P_23 
DOCKED: REMARK   17  A    between atoms: P_23  and  O_25 
DOCKED: REMARK   18  A    between atoms: P_23  and  O_26 
DOCKED: REMARK   19  A    between atoms: O_27  and  P_28 
DOCKED: REMARK   20  A    between atoms: P_28  and  O_30 
DOCKED: REMARK   21  A    between atoms: P_28  and  O_31 
DOCKED: REMARK   22  A    between atoms: O_32  and  P_33 
DOCKED: REMARK   23  A    between atoms: P_33  and  O_35 
DOCKED: REMARK   24  A    between atoms: P_33  and  O_36 
DOCKED: USER                              x       y       z     vdW  Elec       q    Type
DOCKED: USER                           _______ _______ _______ _____ _____    ______ ____
DOCKED: ROOT
DOCKED: ATOM      1  C   UNL d   1       8.074 -13.422  16.950 -0.11 -0.02    +0.194 C 
DOCKED: ATOM      2  C   UNL d   1       8.482 -12.194  17.765 -0.07 -0.01    +0.194 C 
DOCKED: ATOM      3  C   UNL d   1       9.641 -12.503  18.715 -0.04 -0.01    +0.194 C 
DOCKED: ATOM      4  C   UNL d   1      10.833 -13.155  18.018 -0.04 -0.01    +0.194 C 
DOCKED: ATOM      5  C   UNL d   1      10.459 -14.314  17.103 -0.04 -0.02    +0.194 C 
DOCKED: ATOM      6  C   UNL d   1       9.260 -14.025  16.196 -0.10 -0.02    +0.194 C 
DOCKED: ENDROOT
DOCKED: BRANCH   1   7
DOCKED: ATOM      7  O   UNL d   1       7.114 -13.011  15.974 -0.19 +0.03    -0.278 OA
DOCKED: BRANCH   7   8
DOCKED: ATOM      8  P   UNL d   1       7.634 -12.614  14.517 -0.21 -0.06    +0.473 P 
DOCKED: ATOM      9  O   UNL d   1       7.497 -13.679  13.486 -0.30 +0.05    -0.228 OA
DOCKED: BRANCH   8  10
DOCKED: ATOM     10  O   UNL d   1       6.820 -11.288  14.164 -0.32 +0.03    -0.303 OA
DOCKED: ATOM     11  H   UNL d   1       6.699 -10.754  14.970 +0.15 -0.01    +0.222 HD
DOCKED: ENDBRANCH   8  10
DOCKED: BRANCH   8  12
DOCKED: ATOM     12  O   UNL d   1       9.103 -12.052  14.742 -0.14 +0.02    -0.303 OA
DOCKED: ATOM     13  H   UNL d   1       9.119 -11.201  15.236 +0.11 +0.01    +0.222 HD
DOCKED: ENDBRANCH   8  12
DOCKED: ENDBRANCH   7   8
DOCKED: ENDBRANCH   1   7
DOCKED: BRANCH   2  14
DOCKED: ATOM     14  O   UNL d   1       8.891 -11.153  16.869 -0.12 -0.00    -0.278 OA
DOCKED: BRANCH  14  15
DOCKED: ATOM     15  P   UNL d   1       7.968  -9.846  16.821 -0.18 +0.01    +0.473 P 
DOCKED: ATOM     16  O   UNL d   1       6.541 -10.015  17.238 -0.14 +0.00    -0.228 OA
DOCKED: BRANCH  15  17
DOCKED: ATOM     17  O   UNL d   1       8.751  -8.785  17.715 -0.47 -0.06    -0.303 OA
DOCKED: ATOM     18  H   UNL d   1       9.323  -9.231  18.369 +0.07 +0.03    +0.222 HD
DOCKED: ENDBRANCH  15  17
DOCKED: BRANCH  15  19
DOCKED: ATOM     19  O   UNL d   1       8.191  -9.257  15.360 -0.27 -0.01    -0.303 OA
DOCKED: ATOM     20  H   UNL d   1       8.375  -9.962  14.711 +0.13 +0.01    +0.222 HD
DOCKED: ENDBRANCH  15  19
DOCKED: ENDBRANCH  14  15
DOCKED: ENDBRANCH   2  14
DOCKED: BRANCH   6  21
DOCKED: ATOM     21  O   UNL d   1       8.829 -15.279  15.672 -0.11 +0.06    -0.278 OA
DOCKED: BRANCH  21  22
DOCKED: ATOM     22  P   UNL d   1       9.464 -15.832  14.317 -0.13 -0.14    +0.473 P 
DOCKED: ATOM     23  O   UNL d   1       8.622 -16.702  13.447 -0.79 +0.11    -0.228 OA
DOCKED: BRANCH  22  24
DOCKED: ATOM     24  O   UNL d   1       9.975 -14.493  13.627 -0.10 +0.07    -0.303 OA
DOCKED: ATOM     25  H   UNL d   1      10.259 -13.867  14.341 +0.08 -0.03    +0.222 HD
DOCKED: ENDBRANCH  22  24
DOCKED: BRANCH  22  26
DOCKED: ATOM     26  O   UNL d   1      10.835 -16.479  14.841 -0.03 +0.07    -0.303 OA
DOCKED: ATOM     27  H   UNL d   1      11.526 -15.786  14.873 +0.04 -0.03    +0.222 HD
DOCKED: ENDBRANCH  22  26
DOCKED: ENDBRANCH  21  22
DOCKED: ENDBRANCH   6  21
DOCKED: BRANCH   3  28
DOCKED: ATOM     28  O   UNL d   1      10.127 -11.265  19.215 -0.03 -0.00    -0.278 OA
DOCKED: BRANCH  28  29
DOCKED: ATOM     29  P   UNL d   1       9.392 -10.543  20.430 -0.01 +0.00    +0.473 P 
DOCKED: ATOM     30  O   UNL d   1       9.418 -11.277  21.722 -0.00 +0.00    -0.228 OA
DOCKED: BRANCH  29  31
DOCKED: ATOM     31  O   UNL d   1      10.120  -9.118  20.390 -0.04 -0.01    -0.303 OA
DOCKED: ATOM     32  H   UNL d   1       9.744  -8.595  19.645 +0.05 +0.02    +0.222 HD
DOCKED: ENDBRANCH  29  31
DOCKED: BRANCH  29  33
DOCKED: ATOM     33  O   UNL d   1       7.960 -10.224  19.812 -0.02 +0.00    -0.303 OA
DOCKED: ATOM     34  H   UNL d   1       7.955 -10.488  18.860 +0.05 -0.00    +0.222 HD
DOCKED: ENDBRANCH  29  33
DOCKED: ENDBRANCH  28  29
DOCKED: ENDBRANCH   3  28
DOCKED: BRANCH   5  35
DOCKED: ATOM     35  O   UNL d   1      11.587 -14.517  16.255 -0.02 +0.02    -0.278 OA
DOCKED: BRANCH  35  36
DOCKED: ATOM     36  P   UNL d   1      12.299 -13.275  15.551 -0.04 -0.02    +0.473 P 
DOCKED: ATOM     37  O   UNL d   1      13.613 -12.867  16.138 -0.06 +0.00    -0.228 OA
DOCKED: BRANCH  36  38
DOCKED: ATOM     38  O   UNL d   1      12.381 -13.761  14.037 -0.04 +0.02    -0.303 OA
DOCKED: ATOM     39  H   UNL d   1      11.964 -14.646  13.961 +0.05 -0.03    +0.222 HD
DOCKED: ENDBRANCH  36  38
DOCKED: BRANCH  36  40
DOCKED: ATOM     40  O   UNL d   1      11.143 -12.182  15.540 -0.01 -0.01    -0.303 OA
DOCKED: ATOM     41  H   UNL d   1      10.734 -12.095  14.651 +0.09 +0.00    +0.222 HD
DOCKED: ENDBRANCH  36  40
DOCKED: ENDBRANCH  35  36
DOCKED: ENDBRANCH   5  35
DOCKED: BRANCH   4  42
DOCKED: ATOM     42  O   UNL d   1      11.676 -13.685  19.046 -0.01 +0.01    -0.278 OA
DOCKED: BRANCH  42  43
DOCKED: ATOM     43  P   UNL d   1      11.071 -14.753  20.064 -0.00 -0.03    +0.473 P 
DOCKED: ATOM     44  O   UNL d   1      10.390 -15.945  19.486 -0.01 +0.02    -0.228 OA
DOCKED: BRANCH  43  45
DOCKED: ATOM     45  O   UNL d   1      12.320 -15.102  20.987 -0.00 +0.01    -0.303 OA
DOCKED: ATOM     46  H   UNL d   1      12.495 -16.064  21.004 +0.00 -0.01    +0.222 HD
DOCKED: ENDBRANCH  43  45
DOCKED: BRANCH  43  47
DOCKED: ATOM     47  O   UNL d   1      10.179 -13.857  21.049 -0.00 +0.01    -0.303 OA
DOCKED: ATOM     48  H   UNL d   1      10.252 -12.916  20.784 +0.01 -0.01    +0.222 HD
DOCKED: ENDBRANCH  43  47
DOCKED: ENDBRANCH  42  43
DOCKED: ENDBRANCH   4  42
DOCKED: TORSDOF 24
DOCKED: TER
DOCKED: ENDMDL
________________________________________________________________________________


	BEGINNING GENETIC ALGORITHM DOCKING 76 of 100
Run: 76 Seed: 1451714826 506180292 [ Run 76 of 100 GA/GALS ]
Beginning LAMARCKIAN GENETIC ALGORITHM (LGA), with a maximum of 25000000 energy evaluations.

Final-Value: -17.815


	FINAL GENETIC ALGORITHM DOCKED STATE
	_______________________________________________


Detailed state:  trans -7.207 -14.095 7.518 quatxyzw 0.192535 -0.402124 0.894771 -0.024745 center 0.035 0.082 -0.065 ntor 24 90.2330 0.6532 125.1015 154.8944 -10.5090 109.2807 -74.4654 3.8209 121.4895 -38.9682 -8.6383 -150.1638 178.3990 62.4923 -180.0000 2.0875 178.1277 1.3560 46.4398 13.1292 176.3513 -15.1455 14.1978 165.5884
State:	 -7.207 -14.095   7.518   0.193 -0.402  0.895 -177.164     90.23    0.65  125.10  154.89  -10.51  109.28  -74.47    3.82  121.49  -38.97   -8.64 -150.16  178.40   62.49 -180.00    2.09  178.13    1.36   46.44   13.13  176.35  -15.15   14.20  165.59

DOCKED: MODEL       76
DOCKED: USER    Run = 76
DOCKED: USER    DPF = D:/Protein_go_brrr/autodock/final/mut_K82N/IHP/dock.dpf
DOCKED: USER  
DOCKED: USER    Estimated Free Energy of Binding    =   +2.50 kcal/mol  [=(1)+(2)+(3)-(4)]
DOCKED: USER    
DOCKED: USER    (1) Final Intermolecular Energy     =   -4.66 kcal/mol
DOCKED: USER        vdW + Hbond + desolv Energy     =   -4.31 kcal/mol
DOCKED: USER        Electrostatic Energy            =   -0.35 kcal/mol
DOCKED: USER    (2) Final Total Internal Energy     =  -13.16 kcal/mol
DOCKED: USER    (3) Torsional Free Energy           =   +7.16 kcal/mol
DOCKED: USER    (4) Unbound System's Energy  [=(2)] =  -13.16 kcal/mol
DOCKED: USER    
DOCKED: USER    
DOCKED: USER    NEWDPF move IHP_ideal_opt.pdbqt
DOCKED: USER    NEWDPF about 0.035000 0.082000 -0.065000
DOCKED: USER    NEWDPF tran0 -7.207293 -14.095384 7.518173
DOCKED: USER    NEWDPF quaternion0 0.192535 -0.402124 0.894771 -0.024745
DOCKED: USER    NEWDPF axisangle0 0.192594 -0.402247 0.895045 -177.164172
DOCKED: USER    NEWDPF quat0 0.192594 -0.402247 0.895045 -177.164172
DOCKED: USER    NEWDPF dihe0 90.23 0.65 125.10 154.89 -10.51 109.28 -74.47 3.82 121.49 -38.97 -8.64 -150.16 178.40 62.49 -180.00 2.09 178.13 1.36 46.44 13.13 176.35 -15.15 14.20 165.59 
DOCKED: USER  keepresnum = 1 
DOCKED: USER  
DOCKED: REMARK  24 active torsions:
DOCKED: REMARK  status: ('A' for Active; 'I' for Inactive)
DOCKED: REMARK    1  A    between atoms: C_1  and  O_7 
DOCKED: REMARK    2  A    between atoms: C_2  and  O_12 
DOCKED: REMARK    3  A    between atoms: C_3  and  O_17 
DOCKED: REMARK    4  A    between atoms: C_4  and  O_22 
DOCKED: REMARK    5  A    between atoms: C_5  and  O_27 
DOCKED: REMARK    6  A    between atoms: C_6  and  O_32 
DOCKED: REMARK    7  A    between atoms: O_7  and  P_8 
DOCKED: REMARK    8  A    between atoms: P_8  and  O_10 
DOCKED: REMARK    9  A    between atoms: P_8  and  O_11 
DOCKED: REMARK   10  A    between atoms: O_12  and  P_13 
DOCKED: REMARK   11  A    between atoms: P_13  and  O_15 
DOCKED: REMARK   12  A    between atoms: P_13  and  O_16 
DOCKED: REMARK   13  A    between atoms: O_17  and  P_18 
DOCKED: REMARK   14  A    between atoms: P_18  and  O_20 
DOCKED: REMARK   15  A    between atoms: P_18  and  O_21 
DOCKED: REMARK   16  A    between atoms: O_22  and  P_23 
DOCKED: REMARK   17  A    between atoms: P_23  and  O_25 
DOCKED: REMARK   18  A    between atoms: P_23  and  O_26 
DOCKED: REMARK   19  A    between atoms: O_27  and  P_28 
DOCKED: REMARK   20  A    between atoms: P_28  and  O_30 
DOCKED: REMARK   21  A    between atoms: P_28  and  O_31 
DOCKED: REMARK   22  A    between atoms: O_32  and  P_33 
DOCKED: REMARK   23  A    between atoms: P_33  and  O_35 
DOCKED: REMARK   24  A    between atoms: P_33  and  O_36 
DOCKED: USER                              x       y       z     vdW  Elec       q    Type
DOCKED: USER                           _______ _______ _______ _____ _____    ______ ____
DOCKED: ROOT
DOCKED: ATOM      1  C   UNL d   1      -7.932 -14.211   9.082 -0.04 -0.02    +0.194 C 
DOCKED: ATOM      2  C   UNL d   1      -6.738 -13.261   8.976 -0.11 -0.02    +0.194 C 
DOCKED: ATOM      3  C   UNL d   1      -5.601 -13.869   8.151 -0.16 -0.03    +0.194 C 
DOCKED: ATOM      4  C   UNL d   1      -6.056 -14.381   6.786 -0.17 -0.05    +0.194 C 
DOCKED: ATOM      5  C   UNL d   1      -7.313 -15.240   6.832 -0.09 -0.05    +0.194 C 
DOCKED: ATOM      6  C   UNL d   1      -8.427 -14.661   7.707 -0.07 -0.04    +0.194 C 
DOCKED: ENDROOT
DOCKED: BRANCH   1   7
DOCKED: ATOM      7  O   UNL d   1      -9.006 -13.509   9.712 -0.02 +0.03    -0.278 OA
DOCKED: BRANCH   7   8
DOCKED: ATOM      8  P   UNL d   1      -8.940 -13.280  11.292 -0.00 -0.03    +0.473 P 
DOCKED: ATOM      9  O   UNL d   1     -10.169 -13.667  12.037 -0.00 +0.01    -0.228 OA
DOCKED: BRANCH   8  10
DOCKED: ATOM     10  O   UNL d   1      -7.647 -14.095  11.747 -0.01 +0.01    -0.303 OA
DOCKED: ATOM     11  H   UNL d   1      -7.804 -15.051  11.629 +0.01 -0.01    +0.222 HD
DOCKED: ENDBRANCH   8  10
DOCKED: BRANCH   8  12
DOCKED: ATOM     12  O   UNL d   1      -8.464 -11.775  11.472 -0.03 +0.02    -0.303 OA
DOCKED: ATOM     13  H   UNL d   1      -7.719 -11.532  10.877 +0.04 -0.01    +0.222 HD
DOCKED: ENDBRANCH   8  12
DOCKED: ENDBRANCH   7   8
DOCKED: ENDBRANCH   1   7
DOCKED: BRANCH   2  14
DOCKED: ATOM     14  O   UNL d   1      -7.162 -12.047   8.343 -0.17 +0.04    -0.278 OA
DOCKED: BRANCH  14  15
DOCKED: ATOM     15  P   UNL d   1      -6.477 -10.694   8.858 -0.18 -0.07    +0.473 P 
DOCKED: ATOM     16  O   UNL d   1      -5.679  -9.921   7.856 -0.12 +0.06    -0.228 OA
DOCKED: BRANCH  15  17
DOCKED: ATOM     17  O   UNL d   1      -7.688  -9.854   9.465 -0.10 +0.03    -0.303 OA
DOCKED: ATOM     18  H   UNL d   1      -8.386 -10.443   9.810 +0.05 -0.02    +0.222 HD
DOCKED: ENDBRANCH  15  17
DOCKED: BRANCH  15  19
DOCKED: ATOM     19  O   UNL d   1      -5.695 -11.123  10.175 -0.08 +0.02    -0.303 OA
DOCKED: ATOM     20  H   UNL d   1      -4.759 -11.325   9.989 -0.17 -0.03    +0.222 HD
DOCKED: ENDBRANCH  15  19
DOCKED: ENDBRANCH  14  15
DOCKED: ENDBRANCH   2  14
DOCKED: BRANCH   6  21
DOCKED: ATOM     21  O   UNL d   1      -9.368 -15.710   7.923 -0.01 +0.04    -0.278 OA
DOCKED: BRANCH  21  22
DOCKED: ATOM     22  P   UNL d   1      -9.011 -16.899   8.926 +0.00 -0.04    +0.473 P 
DOCKED: ATOM     23  O   UNL d   1      -9.598 -18.245   8.660 +0.00 +0.02    -0.228 OA
DOCKED: BRANCH  22  24
DOCKED: ATOM     24  O   UNL d   1      -7.420 -16.853   8.932 +0.00 +0.02    -0.303 OA
DOCKED: ATOM     25  H   UNL d   1      -7.097 -17.264   8.090 +0.02 -0.02    +0.222 HD
DOCKED: ENDBRANCH  22  24
DOCKED: BRANCH  22  26
DOCKED: ATOM     26  O   UNL d   1      -9.367 -16.245  10.346 -0.00 +0.02    -0.303 OA
DOCKED: ATOM     27  H   UNL d   1      -8.763 -15.493  10.514 +0.01 -0.02    +0.222 HD
DOCKED: ENDBRANCH  22  26
DOCKED: ENDBRANCH  21  22
DOCKED: ENDBRANCH   6  21
DOCKED: BRANCH   3  28
DOCKED: ATOM     28  O   UNL d   1      -4.670 -12.832   7.875 -0.22 +0.06    -0.278 OA
DOCKED: BRANCH  28  29
DOCKED: ATOM     29  P   UNL d   1      -3.392 -12.629   8.804 -0.17 -0.05    +0.473 P 
DOCKED: ATOM     30  O   UNL d   1      -3.517 -13.154  10.188 -0.33 -0.03    -0.228 OA
DOCKED: BRANCH  29  31
DOCKED: ATOM     31  O   UNL d   1      -2.265 -13.285   7.876 -0.18 -0.02    -0.303 OA
DOCKED: ATOM     32  H   UNL d   1      -2.699 -13.910   7.250 +0.13 +0.03    +0.222 HD
DOCKED: ENDBRANCH  29  31
DOCKED: BRANCH  29  33
DOCKED: ATOM     33  O   UNL d   1      -3.111 -11.069   8.648 -0.31 +0.11    -0.303 OA
DOCKED: ATOM     34  H   UNL d   1      -3.884 -10.566   9.004 -0.17 -0.08    +0.222 HD
DOCKED: ENDBRANCH  29  33
DOCKED: ENDBRANCH  28  29
DOCKED: ENDBRANCH   3  28
DOCKED: BRANCH   5  35
DOCKED: ATOM     35  O   UNL d   1      -7.805 -15.277   5.494 -0.05 +0.12    -0.278 OA
DOCKED: BRANCH  35  36
DOCKED: ATOM     36  P   UNL d   1      -8.501 -16.596   4.929 -0.04 -0.11    +0.473 P 
DOCKED: ATOM     37  O   UNL d   1      -8.117 -16.982   3.536 -0.10 +0.05    -0.228 OA
DOCKED: BRANCH  36  38
DOCKED: ATOM     38  O   UNL d   1      -8.110 -17.671   6.037 -0.01 +0.06    -0.303 OA
DOCKED: ATOM     39  H   UNL d   1      -8.347 -17.320   6.923 +0.03 -0.03    +0.222 HD
DOCKED: ENDBRANCH  36  38
DOCKED: BRANCH  36  40
DOCKED: ATOM     40  O   UNL d   1     -10.042 -16.311   5.201 -0.04 +0.05    -0.303 OA
DOCKED: ATOM     41  H   UNL d   1     -10.289 -16.498   6.134 +0.03 -0.03    +0.222 HD
DOCKED: ENDBRANCH  36  40
DOCKED: ENDBRANCH  35  36
DOCKED: ENDBRANCH   5  35
DOCKED: BRANCH   4  42
DOCKED: ATOM     42  O   UNL d   1      -5.000 -15.205   6.280 -0.18 +0.05    -0.278 OA
DOCKED: BRANCH  42  43
DOCKED: ATOM     43  P   UNL d   1      -4.470 -16.414   7.175 -0.10 +0.02    +0.473 P 
DOCKED: ATOM     44  O   UNL d   1      -5.487 -17.307   7.797 -0.04 +0.01    -0.228 OA
DOCKED: BRANCH  43  45
DOCKED: ATOM     45  O   UNL d   1      -3.463 -17.159   6.194 -0.64 -0.08    -0.303 OA
DOCKED: ATOM     46  H   UNL d   1      -3.937 -17.756   5.580 -0.48 -0.27    +0.222 HD
DOCKED: ENDBRANCH  43  45
DOCKED: BRANCH  43  47
DOCKED: ATOM     47  O   UNL d   1      -3.461 -15.700   8.196 -0.15 -0.09    -0.303 OA
DOCKED: ATOM     48  H   UNL d   1      -3.751 -14.775   8.341 +0.10 +0.02    +0.222 HD
DOCKED: ENDBRANCH  43  47
DOCKED: ENDBRANCH  42  43
DOCKED: ENDBRANCH   4  42
DOCKED: TORSDOF 24
DOCKED: TER
DOCKED: ENDMDL
________________________________________________________________________________


	BEGINNING GENETIC ALGORITHM DOCKING 77 of 100
Run: 77 Seed: 1178448287 374564655 [ Run 77 of 100 GA/GALS ]
Beginning LAMARCKIAN GENETIC ALGORITHM (LGA), with a maximum of 25000000 energy evaluations.

Final-Value: -18.762


	FINAL GENETIC ALGORITHM DOCKED STATE
	_______________________________________________


Detailed state:  trans 12.413 6.096 -17.163 quatxyzw 0.246013 0.958443 0.051042 0.135125 center 0.035 0.082 -0.065 ntor 24 66.2390 117.8321 168.6495 -22.5394 68.8644 154.8495 3.4600 -110.9632 111.8390 82.7720 20.6076 -119.9571 -82.1554 32.8756 69.9812 -120.3970 114.3212 -54.7210 -145.7123 -26.8592 23.7002 26.9534 -29.6475 171.7785
State:	 12.413   6.096 -17.163   0.248  0.967  0.052 164.468     66.24  117.83  168.65  -22.54   68.86  154.85    3.46 -110.96  111.84   82.77   20.61 -119.96  -82.16   32.88   69.98 -120.40  114.32  -54.72 -145.71  -26.86   23.70   26.95  -29.65  171.78

DOCKED: MODEL       77
DOCKED: USER    Run = 77
DOCKED: USER    DPF = D:/Protein_go_brrr/autodock/final/mut_K82N/IHP/dock.dpf
DOCKED: USER  
DOCKED: USER    Estimated Free Energy of Binding    =   +4.13 kcal/mol  [=(1)+(2)+(3)-(4)]
DOCKED: USER    
DOCKED: USER    (1) Final Intermolecular Energy     =   -3.02 kcal/mol
DOCKED: USER        vdW + Hbond + desolv Energy     =   -2.44 kcal/mol
DOCKED: USER        Electrostatic Energy            =   -0.58 kcal/mol
DOCKED: USER    (2) Final Total Internal Energy     =  -15.74 kcal/mol
DOCKED: USER    (3) Torsional Free Energy           =   +7.16 kcal/mol
DOCKED: USER    (4) Unbound System's Energy  [=(2)] =  -15.74 kcal/mol
DOCKED: USER    
DOCKED: USER    
DOCKED: USER    NEWDPF move IHP_ideal_opt.pdbqt
DOCKED: USER    NEWDPF about 0.035000 0.082000 -0.065000
DOCKED: USER    NEWDPF tran0 12.413258 6.095954 -17.163454
DOCKED: USER    NEWDPF quaternion0 0.246013 0.958443 0.051042 0.135125
DOCKED: USER    NEWDPF axisangle0 0.248290 0.967315 0.051515 164.468318
DOCKED: USER    NEWDPF quat0 0.248290 0.967315 0.051515 164.468318
DOCKED: USER    NEWDPF dihe0 66.24 117.83 168.65 -22.54 68.86 154.85 3.46 -110.96 111.84 82.77 20.61 -119.96 -82.16 32.88 69.98 -120.40 114.32 -54.72 -145.71 -26.86 23.70 26.95 -29.65 171.78 
DOCKED: USER  keepresnum = 1 
DOCKED: USER  
DOCKED: REMARK  24 active torsions:
DOCKED: REMARK  status: ('A' for Active; 'I' for Inactive)
DOCKED: REMARK    1  A    between atoms: C_1  and  O_7 
DOCKED: REMARK    2  A    between atoms: C_2  and  O_12 
DOCKED: REMARK    3  A    between atoms: C_3  and  O_17 
DOCKED: REMARK    4  A    between atoms: C_4  and  O_22 
DOCKED: REMARK    5  A    between atoms: C_5  and  O_27 
DOCKED: REMARK    6  A    between atoms: C_6  and  O_32 
DOCKED: REMARK    7  A    between atoms: O_7  and  P_8 
DOCKED: REMARK    8  A    between atoms: P_8  and  O_10 
DOCKED: REMARK    9  A    between atoms: P_8  and  O_11 
DOCKED: REMARK   10  A    between atoms: O_12  and  P_13 
DOCKED: REMARK   11  A    between atoms: P_13  and  O_15 
DOCKED: REMARK   12  A    between atoms: P_13  and  O_16 
DOCKED: REMARK   13  A    between atoms: O_17  and  P_18 
DOCKED: REMARK   14  A    between atoms: P_18  and  O_20 
DOCKED: REMARK   15  A    between atoms: P_18  and  O_21 
DOCKED: REMARK   16  A    between atoms: O_22  and  P_23 
DOCKED: REMARK   17  A    between atoms: P_23  and  O_25 
DOCKED: REMARK   18  A    between atoms: P_23  and  O_26 
DOCKED: REMARK   19  A    between atoms: O_27  and  P_28 
DOCKED: REMARK   20  A    between atoms: P_28  and  O_30 
DOCKED: REMARK   21  A    between atoms: P_28  and  O_31 
DOCKED: REMARK   22  A    between atoms: O_32  and  P_33 
DOCKED: REMARK   23  A    between atoms: P_33  and  O_35 
DOCKED: REMARK   24  A    between atoms: P_33  and  O_36 
DOCKED: USER                              x       y       z     vdW  Elec       q    Type
DOCKED: USER                           _______ _______ _______ _____ _____    ______ ____
DOCKED: ROOT
DOCKED: ATOM      1  C   UNL d   1      10.742   6.024 -17.593 +0.00 -0.01    +0.194 C 
DOCKED: ATOM      2  C   UNL d   1      11.489   4.689 -17.619 +0.01 -0.03    +0.194 C 
DOCKED: ATOM      3  C   UNL d   1      12.871   4.826 -18.263 +0.00 -0.02    +0.194 C 
DOCKED: ATOM      4  C   UNL d   1      13.710   5.946 -17.653 +0.00 -0.02    +0.194 C 
DOCKED: ATOM      5  C   UNL d   1      12.966   7.267 -17.502 +0.01 -0.01    +0.194 C 
DOCKED: ATOM      6  C   UNL d   1      11.561   7.123 -16.915 +0.00 -0.00    +0.194 C 
DOCKED: ENDROOT
DOCKED: BRANCH   1   7
DOCKED: ATOM      7  O   UNL d   1       9.546   5.850 -16.829 -0.04 +0.01    -0.278 OA
DOCKED: BRANCH   7   8
DOCKED: ATOM      8  P   UNL d   1       9.593   6.164 -15.264 -0.06 -0.00    +0.473 P 
DOCKED: ATOM      9  O   UNL d   1      10.909   5.921 -14.611 -0.04 +0.05    -0.228 OA
DOCKED: BRANCH   8  10
DOCKED: ATOM     10  O   UNL d   1       9.110   7.681 -15.158 -0.52 -0.24    -0.303 OA
DOCKED: ATOM     11  H   UNL d   1       9.884   8.273 -15.194 +0.04 +0.09    +0.222 HD
DOCKED: ENDBRANCH   8  10
DOCKED: BRANCH   8  12
DOCKED: ATOM     12  O   UNL d   1       8.357   5.378 -14.647 -0.53 +0.11    -0.303 OA
DOCKED: ATOM     13  H   UNL d   1       8.494   4.404 -14.620 -0.48 -0.50    +0.222 HD
DOCKED: ENDBRANCH   8  12
DOCKED: ENDBRANCH   7   8
DOCKED: ENDBRANCH   1   7
DOCKED: BRANCH   2  14
DOCKED: ATOM     14  O   UNL d   1      11.656   4.221 -16.275 -0.01 +0.08    -0.278 OA
DOCKED: BRANCH  14  15
DOCKED: ATOM     15  P   UNL d   1      10.706   3.018 -15.813 +0.00 -0.32    +0.473 P 
DOCKED: ATOM     16  O   UNL d   1      11.203   1.630 -16.075 -0.03 +0.11    -0.228 OA
DOCKED: BRANCH  15  17
DOCKED: ATOM     17  O   UNL d   1      10.447   3.300 -14.267 +0.02 +0.37    -0.303 OA
DOCKED: ATOM     18  H   UNL d   1       9.842   4.057 -14.144 -0.44 -0.35    +0.222 HD
DOCKED: ENDBRANCH  15  17
DOCKED: BRANCH  15  19
DOCKED: ATOM     19  O   UNL d   1       9.288   3.368 -16.444 -0.06 +0.25    -0.303 OA
DOCKED: ATOM     20  H   UNL d   1       8.796   4.005 -15.893 -0.29 -0.25    +0.222 HD
DOCKED: ENDBRANCH  15  19
DOCKED: ENDBRANCH  14  15
DOCKED: ENDBRANCH   2  14
DOCKED: BRANCH   6  21
DOCKED: ATOM     21  O   UNL d   1      10.885   8.355 -17.154 -0.01 -0.02    -0.278 OA
DOCKED: BRANCH  21  22
DOCKED: ATOM     22  P   UNL d   1      11.181   9.614 -16.220 +0.00 +0.05    +0.473 P 
DOCKED: ATOM     23  O   UNL d   1      12.113  10.664 -16.725 -0.00 -0.01    -0.228 OA
DOCKED: BRANCH  22  24
DOCKED: ATOM     24  O   UNL d   1       9.711  10.129 -15.893 -0.08 -0.11    -0.303 OA
DOCKED: ATOM     25  H   UNL d   1       9.065   9.507 -16.316 +0.03 +0.14    +0.222 HD
DOCKED: ENDBRANCH  22  24
DOCKED: BRANCH  22  26
DOCKED: ATOM     26  O   UNL d   1      11.598   8.907 -14.843 -0.02 -0.02    -0.303 OA
DOCKED: ATOM     27  H   UNL d   1      11.273   7.984 -14.844 +0.04 +0.01    +0.222 HD
DOCKED: ENDBRANCH  22  26
DOCKED: ENDBRANCH  21  22
DOCKED: ENDBRANCH   6  21
DOCKED: BRANCH   3  28
DOCKED: ATOM     28  O   UNL d   1      13.588   3.628 -17.996 +0.00 +0.04    -0.278 OA
DOCKED: BRANCH  28  29
DOCKED: ATOM     29  P   UNL d   1      14.465   2.944 -19.136 +0.00 -0.05    +0.473 P 
DOCKED: ATOM     30  O   UNL d   1      14.523   1.460 -19.096 +0.00 +0.03    -0.228 OA
DOCKED: BRANCH  29  31
DOCKED: ATOM     31  O   UNL d   1      13.806   3.611 -20.433 +0.00 +0.03    -0.303 OA
DOCKED: ATOM     32  H   UNL d   1      13.842   4.591 -20.334 +0.00 -0.02    +0.222 HD
DOCKED: ENDBRANCH  29  31
DOCKED: BRANCH  29  33
DOCKED: ATOM     33  O   UNL d   1      15.849   3.722 -19.004 +0.00 +0.03    -0.303 OA
DOCKED: ATOM     34  H   UNL d   1      15.674   4.694 -19.028 +0.00 -0.02    +0.222 HD
DOCKED: ENDBRANCH  29  33
DOCKED: ENDBRANCH  28  29
DOCKED: ENDBRANCH   3  28
DOCKED: BRANCH   5  35
DOCKED: ATOM     35  O   UNL d   1      13.730   8.037 -16.576 +0.00 +0.01    -0.278 OA
DOCKED: BRANCH  35  36
DOCKED: ATOM     36  P   UNL d   1      14.705   9.187 -17.098 +0.00 -0.02    +0.473 P 
DOCKED: ATOM     37  O   UNL d   1      15.064  10.234 -16.092 +0.00 +0.01    -0.228 OA
DOCKED: BRANCH  36  38
DOCKED: ATOM     38  O   UNL d   1      15.944   8.345 -17.637 +0.00 +0.02    -0.303 OA
DOCKED: ATOM     39  H   UNL d   1      15.611   7.559 -18.122 +0.00 -0.01    +0.222 HD
DOCKED: ENDBRANCH  36  38
DOCKED: BRANCH  36  40
DOCKED: ATOM     40  O   UNL d   1      13.972   9.679 -18.421 +0.00 +0.01    -0.303 OA
DOCKED: ATOM     41  H   UNL d   1      12.998   9.736 -18.298 +0.00 -0.01    +0.222 HD
DOCKED: ENDBRANCH  36  40
DOCKED: ENDBRANCH  35  36
DOCKED: ENDBRANCH   5  35
DOCKED: BRANCH   4  42
DOCKED: ATOM     42  O   UNL d   1      14.804   6.179 -18.547 +0.00 +0.02    -0.278 OA
DOCKED: BRANCH  42  43
DOCKED: ATOM     43  P   UNL d   1      14.493   6.638 -20.042 +0.00 -0.03    +0.473 P 
DOCKED: ATOM     44  O   UNL d   1      13.073   6.604 -20.490 +0.00 +0.02    -0.228 OA
DOCKED: BRANCH  43  45
DOCKED: ATOM     45  O   UNL d   1      15.163   8.080 -20.110 +0.00 +0.02    -0.303 OA
DOCKED: ATOM     46  H   UNL d   1      14.857   8.652 -19.378 +0.00 -0.01    +0.222 HD
DOCKED: ENDBRANCH  43  45
DOCKED: BRANCH  43  47
DOCKED: ATOM     47  O   UNL d   1      15.515   5.763 -20.914 +0.00 +0.02    -0.303 OA
DOCKED: ATOM     48  H   UNL d   1      15.342   4.812 -20.755 +0.00 -0.02    +0.222 HD
DOCKED: ENDBRANCH  43  47
DOCKED: ENDBRANCH  42  43
DOCKED: ENDBRANCH   4  42
DOCKED: TORSDOF 24
DOCKED: TER
DOCKED: ENDMDL
________________________________________________________________________________


	BEGINNING GENETIC ALGORITHM DOCKING 78 of 100
Run: 78 Seed: 1489300125 1050182733 [ Run 78 of 100 GA/GALS ]
Beginning LAMARCKIAN GENETIC ALGORITHM (LGA), with a maximum of 25000000 energy evaluations.

Final-Value: -18.929


	FINAL GENETIC ALGORITHM DOCKED STATE
	_______________________________________________


Detailed state:  trans 9.595 20.749 -3.232 quatxyzw -0.134797 0.393216 0.667945 0.617301 center 0.035 0.082 -0.065 ntor 24 -41.3713 22.8855 -171.0098 111.9840 125.1597 104.3971 -81.3354 8.6568 99.4963 124.0812 116.3071 -88.7579 167.9553 55.5335 177.8597 167.7720 53.6276 86.2095 55.7805 20.8987 8.4317 19.4687 -179.2208 14.0829
State:	  9.595  20.749  -3.232  -0.171  0.500  0.849 103.761    -41.37   22.89 -171.01  111.98  125.16  104.40  -81.34    8.66   99.50  124.08  116.31  -88.76  167.96   55.53  177.86  167.77   53.63   86.21   55.78   20.90    8.43   19.47 -179.22   14.08

DOCKED: MODEL       78
DOCKED: USER    Run = 78
DOCKED: USER    DPF = D:/Protein_go_brrr/autodock/final/mut_K82N/IHP/dock.dpf
DOCKED: USER  
DOCKED: USER    Estimated Free Energy of Binding    =   +2.10 kcal/mol  [=(1)+(2)+(3)-(4)]
DOCKED: USER    
DOCKED: USER    (1) Final Intermolecular Energy     =   -5.06 kcal/mol
DOCKED: USER        vdW + Hbond + desolv Energy     =   -4.90 kcal/mol
DOCKED: USER        Electrostatic Energy            =   -0.17 kcal/mol
DOCKED: USER    (2) Final Total Internal Energy     =  -13.87 kcal/mol
DOCKED: USER    (3) Torsional Free Energy           =   +7.16 kcal/mol
DOCKED: USER    (4) Unbound System's Energy  [=(2)] =  -13.87 kcal/mol
DOCKED: USER    
DOCKED: USER    
DOCKED: USER    NEWDPF move IHP_ideal_opt.pdbqt
DOCKED: USER    NEWDPF about 0.035000 0.082000 -0.065000
DOCKED: USER    NEWDPF tran0 9.595460 20.748773 -3.232080
DOCKED: USER    NEWDPF quaternion0 -0.134797 0.393216 0.667945 0.617301
DOCKED: USER    NEWDPF axisangle0 -0.171339 0.499812 0.849017 103.761393
DOCKED: USER    NEWDPF quat0 -0.171339 0.499812 0.849017 103.761393
DOCKED: USER    NEWDPF dihe0 -41.37 22.89 -171.01 111.98 125.16 104.40 -81.34 8.66 99.50 124.08 116.31 -88.76 167.96 55.53 177.86 167.77 53.63 86.21 55.78 20.90 8.43 19.47 -179.22 14.08 
DOCKED: USER  keepresnum = 1 
DOCKED: USER  
DOCKED: REMARK  24 active torsions:
DOCKED: REMARK  status: ('A' for Active; 'I' for Inactive)
DOCKED: REMARK    1  A    between atoms: C_1  and  O_7 
DOCKED: REMARK    2  A    between atoms: C_2  and  O_12 
DOCKED: REMARK    3  A    between atoms: C_3  and  O_17 
DOCKED: REMARK    4  A    between atoms: C_4  and  O_22 
DOCKED: REMARK    5  A    between atoms: C_5  and  O_27 
DOCKED: REMARK    6  A    between atoms: C_6  and  O_32 
DOCKED: REMARK    7  A    between atoms: O_7  and  P_8 
DOCKED: REMARK    8  A    between atoms: P_8  and  O_10 
DOCKED: REMARK    9  A    between atoms: P_8  and  O_11 
DOCKED: REMARK   10  A    between atoms: O_12  and  P_13 
DOCKED: REMARK   11  A    between atoms: P_13  and  O_15 
DOCKED: REMARK   12  A    between atoms: P_13  and  O_16 
DOCKED: REMARK   13  A    between atoms: O_17  and  P_18 
DOCKED: REMARK   14  A    between atoms: P_18  and  O_20 
DOCKED: REMARK   15  A    between atoms: P_18  and  O_21 
DOCKED: REMARK   16  A    between atoms: O_22  and  P_23 
DOCKED: REMARK   17  A    between atoms: P_23  and  O_25 
DOCKED: REMARK   18  A    between atoms: P_23  and  O_26 
DOCKED: REMARK   19  A    between atoms: O_27  and  P_28 
DOCKED: REMARK   20  A    between atoms: P_28  and  O_30 
DOCKED: REMARK   21  A    between atoms: P_28  and  O_31 
DOCKED: REMARK   22  A    between atoms: O_32  and  P_33 
DOCKED: REMARK   23  A    between atoms: P_33  and  O_35 
DOCKED: REMARK   24  A    between atoms: P_33  and  O_36 
DOCKED: USER                              x       y       z     vdW  Elec       q    Type
DOCKED: USER                           _______ _______ _______ _____ _____    ______ ____
DOCKED: ROOT
DOCKED: ATOM      1  C   UNL d   1       8.178  19.803  -2.946 -0.24 -0.03    +0.194 C 
DOCKED: ATOM      2  C   UNL d   1       8.098  20.775  -4.125 -0.18 -0.05    +0.194 C 
DOCKED: ATOM      3  C   UNL d   1       8.699  22.138  -3.777 -0.14 -0.04    +0.194 C 
DOCKED: ATOM      4  C   UNL d   1      10.111  22.044  -3.203 -0.06 -0.02    +0.194 C 
DOCKED: ATOM      5  C   UNL d   1      10.264  21.003  -2.101 -0.09 -0.02    +0.194 C 
DOCKED: ATOM      6  C   UNL d   1       9.608  19.659  -2.423 -0.13 -0.02    +0.194 C 
DOCKED: ENDROOT
DOCKED: BRANCH   1   7
DOCKED: ATOM      7  O   UNL d   1       7.759  18.514  -3.401 -0.23 +0.05    -0.278 OA
DOCKED: BRANCH   7   8
DOCKED: ATOM      8  P   UNL d   1       6.233  18.321  -3.832 -0.32 -0.09    +0.473 P 
DOCKED: ATOM      9  O   UNL d   1       5.620  17.029  -3.421 -0.47 +0.04    -0.228 OA
DOCKED: BRANCH   8  10
DOCKED: ATOM     10  O   UNL d   1       5.493  19.593  -3.215 -0.38 +0.10    -0.303 OA
DOCKED: ATOM     11  H   UNL d   1       4.640  19.726  -3.669 -0.23 -0.13    +0.222 HD
DOCKED: ENDBRANCH   8  10
DOCKED: BRANCH   8  12
DOCKED: ATOM     12  O   UNL d   1       6.200  18.640  -5.388 -0.72 +0.06    -0.303 OA
DOCKED: ATOM     13  H   UNL d   1       6.954  19.199  -5.683 +0.11 -0.05    +0.222 HD
DOCKED: ENDBRANCH   8  12
DOCKED: ENDBRANCH   7   8
DOCKED: ENDBRANCH   1   7
DOCKED: BRANCH   2  14
DOCKED: ATOM     14  O   UNL d   1       8.821  20.225  -5.233 -0.07 +0.05    -0.278 OA
DOCKED: BRANCH  14  15
DOCKED: ATOM     15  P   UNL d   1       8.340  20.671  -6.694 -0.05 -0.09    +0.473 P 
DOCKED: ATOM     16  O   UNL d   1       9.269  21.553  -7.468 -0.02 +0.03    -0.228 OA
DOCKED: BRANCH  15  17
DOCKED: ATOM     17  O   UNL d   1       8.031  19.296  -7.437 -0.07 +0.05    -0.303 OA
DOCKED: ATOM     18  H   UNL d   1       7.090  19.053  -7.349 +0.08 -0.05    +0.222 HD
DOCKED: ENDBRANCH  15  17
DOCKED: BRANCH  15  19
DOCKED: ATOM     19  O   UNL d   1       6.875  21.249  -6.469 -0.08 +0.11    -0.303 OA
DOCKED: ATOM     20  H   UNL d   1       6.857  21.925  -5.767 -0.49 -0.15    +0.222 HD
DOCKED: ENDBRANCH  15  19
DOCKED: ENDBRANCH  14  15
DOCKED: ENDBRANCH   2  14
DOCKED: BRANCH   6  21
DOCKED: ATOM     21  O   UNL d   1       9.534  18.932  -1.198 -0.15 +0.02    -0.278 OA
DOCKED: BRANCH  21  22
DOCKED: ATOM     22  P   UNL d   1      10.696  17.909  -0.813 -0.11 -0.05    +0.473 P 
DOCKED: ATOM     23  O   UNL d   1      10.352  16.748   0.057 -0.16 +0.03    -0.228 OA
DOCKED: BRANCH  22  24
DOCKED: ATOM     24  O   UNL d   1      11.277  17.523  -2.243 -0.08 +0.05    -0.303 OA
DOCKED: ATOM     25  H   UNL d   1      11.590  18.354  -2.684 +0.05 -0.03    +0.222 HD
DOCKED: ENDBRANCH  22  24
DOCKED: BRANCH  22  26
DOCKED: ATOM     26  O   UNL d   1      11.827  18.898  -0.252 -0.03 +0.03    -0.303 OA
DOCKED: ATOM     27  H   UNL d   1      12.193  19.422  -0.994 +0.02 -0.02    +0.222 HD
DOCKED: ENDBRANCH  22  26
DOCKED: ENDBRANCH  21  22
DOCKED: ENDBRANCH   6  21
DOCKED: BRANCH   3  28
DOCKED: ATOM     28  O   UNL d   1       8.834  22.868  -4.990 -0.07 +0.06    -0.278 OA
DOCKED: BRANCH  28  29
DOCKED: ATOM     29  P   UNL d   1       8.282  24.359  -5.097 -0.07 -0.10    +0.473 P 
DOCKED: ATOM     30  O   UNL d   1       9.123  25.298  -5.884 -0.02 +0.03    -0.228 OA
DOCKED: BRANCH  29  31
DOCKED: ATOM     31  O   UNL d   1       6.806  24.071  -5.645 -0.05 +0.12    -0.303 OA
DOCKED: ATOM     32  H   UNL d   1       6.826  23.245  -6.181 -0.40 -0.10    +0.222 HD
DOCKED: ENDBRANCH  29  31
DOCKED: BRANCH  29  33
DOCKED: ATOM     33  O   UNL d   1       8.025  24.730  -3.570 -0.11 +0.06    -0.303 OA
DOCKED: ATOM     34  H   UNL d   1       8.894  24.787  -3.103 +0.04 -0.03    +0.222 HD
DOCKED: ENDBRANCH  29  33
DOCKED: ENDBRANCH  28  29
DOCKED: ENDBRANCH   3  28
DOCKED: BRANCH   5  35
DOCKED: ATOM     35  O   UNL d   1      11.665  20.769  -1.982 -0.02 +0.02    -0.278 OA
DOCKED: BRANCH  35  36
DOCKED: ATOM     36  P   UNL d   1      12.547  20.486  -3.280 -0.00 -0.04    +0.473 P 
DOCKED: ATOM     37  O   UNL d   1      13.287  21.665  -3.827 -0.00 +0.02    -0.228 OA
DOCKED: BRANCH  36  38
DOCKED: ATOM     38  O   UNL d   1      13.484  19.297  -2.785 -0.00 +0.03    -0.303 OA
DOCKED: ATOM     39  H   UNL d   1      13.008  18.775  -2.104 +0.02 -0.02    +0.222 HD
DOCKED: ENDBRANCH  36  38
DOCKED: BRANCH  36  40
DOCKED: ATOM     40  O   UNL d   1      11.506  19.774  -4.249 -0.01 +0.03    -0.303 OA
DOCKED: ATOM     41  H   UNL d   1      10.945  20.427  -4.724 +0.03 -0.02    +0.222 HD
DOCKED: ENDBRANCH  36  40
DOCKED: ENDBRANCH  35  36
DOCKED: ENDBRANCH   5  35
DOCKED: BRANCH   4  42
DOCKED: ATOM     42  O   UNL d   1      10.408  23.318  -2.623 -0.02 +0.03    -0.278 OA
DOCKED: BRANCH  42  43
DOCKED: ATOM     43  P   UNL d   1      11.244  24.377  -3.474 -0.00 -0.05    +0.473 P 
DOCKED: ATOM     44  O   UNL d   1      10.722  25.771  -3.540 -0.01 +0.02    -0.228 OA
DOCKED: BRANCH  43  45
DOCKED: ATOM     45  O   UNL d   1      12.702  24.257  -2.846 -0.00 +0.03    -0.303 OA
DOCKED: ATOM     46  H   UNL d   1      12.951  23.323  -2.697 +0.00 -0.02    +0.222 HD
DOCKED: ENDBRANCH  43  45
DOCKED: BRANCH  43  47
DOCKED: ATOM     47  O   UNL d   1      11.436  23.642  -4.886 -0.00 +0.03    -0.303 OA
DOCKED: ATOM     48  H   UNL d   1      10.689  23.875  -5.475 +0.01 -0.03    +0.222 HD
DOCKED: ENDBRANCH  43  47
DOCKED: ENDBRANCH  42  43
DOCKED: ENDBRANCH   4  42
DOCKED: TORSDOF 24
DOCKED: TER
DOCKED: ENDMDL
________________________________________________________________________________


	BEGINNING GENETIC ALGORITHM DOCKING 79 of 100
Run: 79 Seed: 1557185278 2050125331 [ Run 79 of 100 GA/GALS ]
Beginning LAMARCKIAN GENETIC ALGORITHM (LGA), with a maximum of 25000000 energy evaluations.

Final-Value: -16.713


	FINAL GENETIC ALGORITHM DOCKED STATE
	_______________________________________________


Detailed state:  trans -8.694 -5.299 10.116 quatxyzw 0.623082 0.224304 0.703928 -0.256791 center 0.035 0.082 -0.065 ntor 24 106.5192 167.6604 95.7850 135.2484 180.0000 142.0360 149.1973 32.2062 -15.7874 154.1920 99.8517 123.5336 -25.9814 -32.2502 26.6042 71.9445 -118.0108 -110.3051 34.1818 -41.4332 -27.6287 159.4780 -77.9528 161.3448
State:	 -8.694  -5.299  10.116   0.645  0.232  0.728 -150.240    106.52  167.66   95.78  135.25  180.00  142.04  149.20   32.21  -15.79  154.19   99.85  123.53  -25.98  -32.25   26.60   71.94 -118.01 -110.31   34.18  -41.43  -27.63  159.48  -77.95  161.34

DOCKED: MODEL       79
DOCKED: USER    Run = 79
DOCKED: USER    DPF = D:/Protein_go_brrr/autodock/final/mut_K82N/IHP/dock.dpf
DOCKED: USER  
DOCKED: USER    Estimated Free Energy of Binding    =   +0.79 kcal/mol  [=(1)+(2)+(3)-(4)]
DOCKED: USER    
DOCKED: USER    (1) Final Intermolecular Energy     =   -6.37 kcal/mol
DOCKED: USER        vdW + Hbond + desolv Energy     =   -6.18 kcal/mol
DOCKED: USER        Electrostatic Energy            =   -0.18 kcal/mol
DOCKED: USER    (2) Final Total Internal Energy     =  -10.35 kcal/mol
DOCKED: USER    (3) Torsional Free Energy           =   +7.16 kcal/mol
DOCKED: USER    (4) Unbound System's Energy  [=(2)] =  -10.35 kcal/mol
DOCKED: USER    
DOCKED: USER    
DOCKED: USER    NEWDPF move IHP_ideal_opt.pdbqt
DOCKED: USER    NEWDPF about 0.035000 0.082000 -0.065000
DOCKED: USER    NEWDPF tran0 -8.694071 -5.299284 10.115934
DOCKED: USER    NEWDPF quaternion0 0.623082 0.224304 0.703928 -0.256791
DOCKED: USER    NEWDPF axisangle0 0.644701 0.232086 0.728352 -150.240480
DOCKED: USER    NEWDPF quat0 0.644701 0.232086 0.728352 -150.240480
DOCKED: USER    NEWDPF dihe0 106.52 167.66 95.78 135.25 180.00 142.04 149.20 32.21 -15.79 154.19 99.85 123.53 -25.98 -32.25 26.60 71.94 -118.01 -110.31 34.18 -41.43 -27.63 159.48 -77.95 161.34 
DOCKED: USER  keepresnum = 1 
DOCKED: USER  
DOCKED: REMARK  24 active torsions:
DOCKED: REMARK  status: ('A' for Active; 'I' for Inactive)
DOCKED: REMARK    1  A    between atoms: C_1  and  O_7 
DOCKED: REMARK    2  A    between atoms: C_2  and  O_12 
DOCKED: REMARK    3  A    between atoms: C_3  and  O_17 
DOCKED: REMARK    4  A    between atoms: C_4  and  O_22 
DOCKED: REMARK    5  A    between atoms: C_5  and  O_27 
DOCKED: REMARK    6  A    between atoms: C_6  and  O_32 
DOCKED: REMARK    7  A    between atoms: O_7  and  P_8 
DOCKED: REMARK    8  A    between atoms: P_8  and  O_10 
DOCKED: REMARK    9  A    between atoms: P_8  and  O_11 
DOCKED: REMARK   10  A    between atoms: O_12  and  P_13 
DOCKED: REMARK   11  A    between atoms: P_13  and  O_15 
DOCKED: REMARK   12  A    between atoms: P_13  and  O_16 
DOCKED: REMARK   13  A    between atoms: O_17  and  P_18 
DOCKED: REMARK   14  A    between atoms: P_18  and  O_20 
DOCKED: REMARK   15  A    between atoms: P_18  and  O_21 
DOCKED: REMARK   16  A    between atoms: O_22  and  P_23 
DOCKED: REMARK   17  A    between atoms: P_23  and  O_25 
DOCKED: REMARK   18  A    between atoms: P_23  and  O_26 
DOCKED: REMARK   19  A    between atoms: O_27  and  P_28 
DOCKED: REMARK   20  A    between atoms: P_28  and  O_30 
DOCKED: REMARK   21  A    between atoms: P_28  and  O_31 
DOCKED: REMARK   22  A    between atoms: O_32  and  P_33 
DOCKED: REMARK   23  A    between atoms: P_33  and  O_35 
DOCKED: REMARK   24  A    between atoms: P_33  and  O_36 
DOCKED: USER                              x       y       z     vdW  Elec       q    Type
DOCKED: USER                           _______ _______ _______ _____ _____    ______ ____
DOCKED: ROOT
DOCKED: ATOM      1  C   UNL d   1      -7.951  -3.818  10.603 -0.23 -0.04    +0.194 C 
DOCKED: ATOM      2  C   UNL d   1      -8.137  -3.999   9.096 -0.16 -0.03    +0.194 C 
DOCKED: ATOM      3  C   UNL d   1      -7.769  -5.415   8.646 -0.21 -0.03    +0.194 C 
DOCKED: ATOM      4  C   UNL d   1      -8.475  -6.504   9.450 -0.13 -0.03    +0.194 C 
DOCKED: ATOM      5  C   UNL d   1      -8.413  -6.301  10.958 -0.10 -0.02    +0.194 C 
DOCKED: ATOM      6  C   UNL d   1      -8.721  -4.870  11.403 -0.12 -0.03    +0.194 C 
DOCKED: ENDROOT
DOCKED: BRANCH   1   7
DOCKED: ATOM      7  O   UNL d   1      -8.475  -2.538  10.967 -0.15 +0.06    -0.278 OA
DOCKED: BRANCH   7   8
DOCKED: ATOM      8  P   UNL d   1      -7.504  -1.272  10.896 -0.31 -0.17    +0.473 P 
DOCKED: ATOM      9  O   UNL d   1      -6.375  -1.396   9.935 -0.50 +0.10    -0.228 OA
DOCKED: BRANCH   8  10
DOCKED: ATOM     10  O   UNL d   1      -8.480  -0.054  10.565 -0.16 +0.08    -0.303 OA
DOCKED: ATOM     11  H   UNL d   1      -9.031  -0.277   9.792 +0.11 -0.04    +0.222 HD
DOCKED: ENDBRANCH   8  10
DOCKED: BRANCH   8  12
DOCKED: ATOM     12  O   UNL d   1      -7.102  -0.976  12.404 -0.40 +0.16    -0.303 OA
DOCKED: ATOM     13  H   UNL d   1      -6.130  -0.995  12.555 -0.48 -0.16    +0.222 HD
DOCKED: ENDBRANCH   8  12
DOCKED: ENDBRANCH   7   8
DOCKED: ENDBRANCH   1   7
DOCKED: BRANCH   2  14
DOCKED: ATOM     14  O   UNL d   1      -9.509  -3.757   8.762 -0.11 +0.03    -0.278 OA
DOCKED: BRANCH  14  15
DOCKED: ATOM     15  P   UNL d   1      -9.899  -2.249   8.389 -0.08 -0.04    +0.473 P 
DOCKED: ATOM     16  O   UNL d   1      -8.791  -1.369   7.901 -0.61 -0.03    -0.228 OA
DOCKED: BRANCH  15  17
DOCKED: ATOM     17  O   UNL d   1     -11.076  -2.405   7.326 -0.06 +0.05    -0.303 OA
DOCKED: ATOM     18  H   UNL d   1     -11.276  -3.346   7.159 +0.06 -0.05    +0.222 HD
DOCKED: ENDBRANCH  15  17
DOCKED: BRANCH  15  19
DOCKED: ATOM     19  O   UNL d   1     -10.688  -1.716   9.663 -0.03 +0.04    -0.303 OA
DOCKED: ATOM     20  H   UNL d   1     -10.084  -1.514  10.402 +0.06 -0.03    +0.222 HD
DOCKED: ENDBRANCH  15  19
DOCKED: ENDBRANCH  14  15
DOCKED: ENDBRANCH   2  14
DOCKED: BRANCH   6  21
DOCKED: ATOM     21  O   UNL d   1      -8.294  -4.759  12.759 -0.13 +0.03    -0.278 OA
DOCKED: BRANCH  21  22
DOCKED: ATOM     22  P   UNL d   1      -9.285  -4.158  13.855 -0.06 -0.06    +0.473 P 
DOCKED: ATOM     23  O   UNL d   1     -10.614  -4.810  14.037 -0.02 +0.02    -0.228 OA
DOCKED: BRANCH  22  24
DOCKED: ATOM     24  O   UNL d   1      -8.365  -4.143  15.154 -0.07 +0.05    -0.303 OA
DOCKED: ATOM     25  H   UNL d   1      -8.210  -3.199  15.411 -0.52 -0.10    +0.222 HD
DOCKED: ENDBRANCH  22  24
DOCKED: BRANCH  22  26
DOCKED: ATOM     26  O   UNL d   1      -9.313  -2.606  13.452 -0.10 +0.06    -0.303 OA
DOCKED: ATOM     27  H   UNL d   1      -8.444  -2.355  13.079 +0.06 -0.06    +0.222 HD
DOCKED: ENDBRANCH  22  26
DOCKED: ENDBRANCH  21  22
DOCKED: ENDBRANCH   6  21
DOCKED: BRANCH   3  28
DOCKED: ATOM     28  O   UNL d   1      -8.230  -5.573   7.310 -0.22 +0.05    -0.278 OA
DOCKED: BRANCH  28  29
DOCKED: ATOM     29  P   UNL d   1      -9.697  -6.123   7.025 -0.12 -0.14    +0.473 P 
DOCKED: ATOM     30  O   UNL d   1     -10.780  -5.511   7.838 -0.06 +0.05    -0.228 OA
DOCKED: BRANCH  29  31
DOCKED: ATOM     31  O   UNL d   1      -9.771  -5.914   5.440 -0.22 +0.20    -0.303 OA
DOCKED: ATOM     32  H   UNL d   1     -10.718  -5.894   5.170 -0.01 -0.21    +0.222 HD
DOCKED: ENDBRANCH  29  31
DOCKED: BRANCH  29  33
DOCKED: ATOM     33  O   UNL d   1      -9.496  -7.697   7.163 -0.14 +0.08    -0.303 OA
DOCKED: ATOM     34  H   UNL d   1      -9.674  -7.963   8.098 +0.07 -0.04    +0.222 HD
DOCKED: ENDBRANCH  29  33
DOCKED: ENDBRANCH  28  29
DOCKED: ENDBRANCH   3  28
DOCKED: BRANCH   5  35
DOCKED: ATOM     35  O   UNL d   1      -9.430  -7.138  11.504 -0.02 +0.03    -0.278 OA
DOCKED: BRANCH  35  36
DOCKED: ATOM     36  P   UNL d   1      -9.488  -8.686  11.123 +0.00 -0.04    +0.473 P 
DOCKED: ATOM     37  O   UNL d   1      -9.972  -8.993   9.741 -0.03 +0.03    -0.228 OA
DOCKED: BRANCH  36  38
DOCKED: ATOM     38  O   UNL d   1      -7.991  -9.149  11.409 -0.05 +0.02    -0.303 OA
DOCKED: ATOM     39  H   UNL d   1      -7.443  -8.974  10.614 +0.08 -0.02    +0.222 HD
DOCKED: ENDBRANCH  36  38
DOCKED: BRANCH  36  40
DOCKED: ATOM     40  O   UNL d   1     -10.317  -9.303  12.332 -0.00 +0.02    -0.303 OA
DOCKED: ATOM     41  H   UNL d   1     -11.197  -9.631  12.040 +0.01 -0.02    +0.222 HD
DOCKED: ENDBRANCH  36  40
DOCKED: ENDBRANCH  35  36
DOCKED: ENDBRANCH   5  35
DOCKED: BRANCH   4  42
DOCKED: ATOM     42  O   UNL d   1      -7.800  -7.734   9.163 -0.11 +0.04    -0.278 OA
DOCKED: BRANCH  42  43
DOCKED: ATOM     43  P   UNL d   1      -6.211  -7.789   9.285 -0.24 -0.06    +0.473 P 
DOCKED: ATOM     44  O   UNL d   1      -5.421  -6.944   8.346 -0.36 +0.03    -0.228 OA
DOCKED: BRANCH  43  45
DOCKED: ATOM     45  O   UNL d   1      -5.967  -7.456  10.822 -0.26 +0.03    -0.303 OA
DOCKED: ATOM     46  H   UNL d   1      -6.735  -7.714  11.370 +0.10 -0.02    +0.222 HD
DOCKED: ENDBRANCH  43  45
DOCKED: BRANCH  43  47
DOCKED: ATOM     47  O   UNL d   1      -5.894  -9.359   9.237 -0.23 +0.05    -0.303 OA
DOCKED: ATOM     48  H   UNL d   1      -6.376  -9.808   9.961 +0.09 -0.02    +0.222 HD
DOCKED: ENDBRANCH  43  47
DOCKED: ENDBRANCH  42  43
DOCKED: ENDBRANCH   4  42
DOCKED: TORSDOF 24
DOCKED: TER
DOCKED: ENDMDL
________________________________________________________________________________


	BEGINNING GENETIC ALGORITHM DOCKING 80 of 100
Run: 80 Seed: 129649893 800528463 [ Run 80 of 100 GA/GALS ]
Beginning LAMARCKIAN GENETIC ALGORITHM (LGA), with a maximum of 25000000 energy evaluations.

Final-Value: -21.087


	FINAL GENETIC ALGORITHM DOCKED STATE
	_______________________________________________


Detailed state:  trans -9.115 9.555 -8.231 quatxyzw -0.172360 0.374583 0.016218 -0.910888 center 0.035 0.082 -0.065 ntor 24 -124.2117 0.0910 112.7097 124.9533 134.3834 151.0150 -117.2024 -11.9578 -19.0422 144.5050 67.8740 113.2475 25.0393 101.5040 40.6628 51.2307 -62.8321 -137.0279 -0.6561 3.7024 -22.5752 158.4907 151.4381 -42.3538
State:	 -9.115   9.555  -8.231  -0.418  0.908  0.039 -48.743   -124.21    0.09  112.71  124.95  134.38  151.01 -117.20  -11.96  -19.04  144.51   67.87  113.25   25.04  101.50   40.66   51.23  -62.83 -137.03   -0.66    3.70  -22.58  158.49  151.44  -42.35

DOCKED: MODEL       80
DOCKED: USER    Run = 80
DOCKED: USER    DPF = D:/Protein_go_brrr/autodock/final/mut_K82N/IHP/dock.dpf
DOCKED: USER  
DOCKED: USER    Estimated Free Energy of Binding    =   +1.20 kcal/mol  [=(1)+(2)+(3)-(4)]
DOCKED: USER    
DOCKED: USER    (1) Final Intermolecular Energy     =   -5.96 kcal/mol
DOCKED: USER        vdW + Hbond + desolv Energy     =   -5.78 kcal/mol
DOCKED: USER        Electrostatic Energy            =   -0.18 kcal/mol
DOCKED: USER    (2) Final Total Internal Energy     =  -15.12 kcal/mol
DOCKED: USER    (3) Torsional Free Energy           =   +7.16 kcal/mol
DOCKED: USER    (4) Unbound System's Energy  [=(2)] =  -15.12 kcal/mol
DOCKED: USER    
DOCKED: USER    
DOCKED: USER    NEWDPF move IHP_ideal_opt.pdbqt
DOCKED: USER    NEWDPF about 0.035000 0.082000 -0.065000
DOCKED: USER    NEWDPF tran0 -9.114767 9.554510 -8.230605
DOCKED: USER    NEWDPF quaternion0 -0.172360 0.374583 0.016218 -0.910888
DOCKED: USER    NEWDPF axisangle0 -0.417687 0.907740 0.039302 -48.743320
DOCKED: USER    NEWDPF quat0 -0.417687 0.907740 0.039302 -48.743320
DOCKED: USER    NEWDPF dihe0 -124.21 0.09 112.71 124.95 134.38 151.01 -117.20 -11.96 -19.04 144.51 67.87 113.25 25.04 101.50 40.66 51.23 -62.83 -137.03 -0.66 3.70 -22.58 158.49 151.44 -42.35 
DOCKED: USER  keepresnum = 1 
DOCKED: USER  
DOCKED: REMARK  24 active torsions:
DOCKED: REMARK  status: ('A' for Active; 'I' for Inactive)
DOCKED: REMARK    1  A    between atoms: C_1  and  O_7 
DOCKED: REMARK    2  A    between atoms: C_2  and  O_12 
DOCKED: REMARK    3  A    between atoms: C_3  and  O_17 
DOCKED: REMARK    4  A    between atoms: C_4  and  O_22 
DOCKED: REMARK    5  A    between atoms: C_5  and  O_27 
DOCKED: REMARK    6  A    between atoms: C_6  and  O_32 
DOCKED: REMARK    7  A    between atoms: O_7  and  P_8 
DOCKED: REMARK    8  A    between atoms: P_8  and  O_10 
DOCKED: REMARK    9  A    between atoms: P_8  and  O_11 
DOCKED: REMARK   10  A    between atoms: O_12  and  P_13 
DOCKED: REMARK   11  A    between atoms: P_13  and  O_15 
DOCKED: REMARK   12  A    between atoms: P_13  and  O_16 
DOCKED: REMARK   13  A    between atoms: O_17  and  P_18 
DOCKED: REMARK   14  A    between atoms: P_18  and  O_20 
DOCKED: REMARK   15  A    between atoms: P_18  and  O_21 
DOCKED: REMARK   16  A    between atoms: O_22  and  P_23 
DOCKED: REMARK   17  A    between atoms: P_23  and  O_25 
DOCKED: REMARK   18  A    between atoms: P_23  and  O_26 
DOCKED: REMARK   19  A    between atoms: O_27  and  P_28 
DOCKED: REMARK   20  A    between atoms: P_28  and  O_30 
DOCKED: REMARK   21  A    between atoms: P_28  and  O_31 
DOCKED: REMARK   22  A    between atoms: O_32  and  P_33 
DOCKED: REMARK   23  A    between atoms: P_33  and  O_35 
DOCKED: REMARK   24  A    between atoms: P_33  and  O_36 
DOCKED: USER                              x       y       z     vdW  Elec       q    Type
DOCKED: USER                           _______ _______ _______ _____ _____    ______ ____
DOCKED: ROOT
DOCKED: ATOM      1  C   UNL d   1      -7.538   8.853  -8.303 -0.26 +0.02    +0.194 C 
DOCKED: ATOM      2  C   UNL d   1      -8.557   8.101  -7.445 -0.07 +0.06    +0.194 C 
DOCKED: ATOM      3  C   UNL d   1      -9.388   9.056  -6.585 -0.18 +0.07    +0.194 C 
DOCKED: ATOM      4  C   UNL d   1     -10.030  10.184  -7.389 -0.14 +0.05    +0.194 C 
DOCKED: ATOM      5  C   UNL d   1      -9.075  10.888  -8.344 -0.05 +0.04    +0.194 C 
DOCKED: ATOM      6  C   UNL d   1      -8.200   9.933  -9.159 -0.19 +0.03    +0.194 C 
DOCKED: ENDROOT
DOCKED: BRANCH   1   7
DOCKED: ATOM      7  O   UNL d   1      -6.928   7.916  -9.194 -0.17 -0.02    -0.278 OA
DOCKED: BRANCH   7   8
DOCKED: ATOM      8  P   UNL d   1      -5.338   7.765  -9.164 -0.27 -0.03    +0.473 P 
DOCKED: ATOM      9  O   UNL d   1      -4.800   6.983  -8.018 -0.30 +0.00    -0.228 OA
DOCKED: BRANCH   8  10
DOCKED: ATOM     10  O   UNL d   1      -4.984   7.124 -10.582 -0.25 +0.02    -0.303 OA
DOCKED: ATOM     11  H   UNL d   1      -5.013   7.816 -11.269 +0.05 -0.04    +0.222 HD
DOCKED: ENDBRANCH   8  10
DOCKED: BRANCH   8  12
DOCKED: ATOM     12  O   UNL d   1      -4.779   9.244  -9.318 -0.11 +0.09    -0.303 OA
DOCKED: ATOM     13  H   UNL d   1      -5.236   9.757 -10.022 -0.36 -0.08    +0.222 HD
DOCKED: ENDBRANCH   8  12
DOCKED: ENDBRANCH   7   8
DOCKED: ENDBRANCH   1   7
DOCKED: BRANCH   2  14
DOCKED: ATOM     14  O   UNL d   1      -9.443   7.372  -8.304 -0.09 -0.12    -0.278 OA
DOCKED: BRANCH  14  15
DOCKED: ATOM     15  P   UNL d   1      -9.767   5.862  -7.881 -0.07 +0.47    +0.473 P 
DOCKED: ATOM     16  O   UNL d   1     -11.037   5.274  -8.410 -0.17 -0.28    -0.228 OA
DOCKED: BRANCH  15  17
DOCKED: ATOM     17  O   UNL d   1      -8.475   5.047  -8.332 -0.17 -0.17    -0.303 OA
DOCKED: ATOM     18  H   UNL d   1      -7.720   5.645  -8.493 +0.09 +0.07    +0.222 HD
DOCKED: ENDBRANCH  15  17
DOCKED: BRANCH  15  19
DOCKED: ATOM     19  O   UNL d   1      -9.615   5.852  -6.297 -0.61 -0.49    -0.303 OA
DOCKED: ATOM     20  H   UNL d   1     -10.287   6.411  -5.867 +0.05 +0.34    +0.222 HD
DOCKED: ENDBRANCH  15  19
DOCKED: ENDBRANCH  14  15
DOCKED: ENDBRANCH   2  14
DOCKED: BRANCH   6  21
DOCKED: ATOM     21  O   UNL d   1      -7.152  10.717  -9.727 -0.25 -0.01    -0.278 OA
DOCKED: BRANCH  21  22
DOCKED: ATOM     22  P   UNL d   1      -6.915  10.698 -11.304 -0.11 -0.00    +0.473 P 
DOCKED: ATOM     23  O   UNL d   1      -7.923  11.367 -12.177 -0.15 -0.04    -0.228 OA
DOCKED: BRANCH  22  24
DOCKED: ATOM     24  O   UNL d   1      -5.439  11.284 -11.418 -0.32 +0.07    -0.303 OA
DOCKED: ATOM     25  H   UNL d   1      -4.813  10.619 -11.034 -0.38 -0.15    +0.222 HD
DOCKED: ENDBRANCH  22  24
DOCKED: BRANCH  22  26
DOCKED: ATOM     26  O   UNL d   1      -6.673   9.137 -11.578 -0.12 +0.02    -0.303 OA
DOCKED: ATOM     27  H   UNL d   1      -6.372   8.708 -10.751 +0.10 -0.02    +0.222 HD
DOCKED: ENDBRANCH  22  26
DOCKED: ENDBRANCH  21  22
DOCKED: ENDBRANCH   6  21
DOCKED: BRANCH   3  28
DOCKED: ATOM     28  O   UNL d   1     -10.473   8.312  -6.046 -0.36 -0.16    -0.278 OA
DOCKED: BRANCH  28  29
DOCKED: ATOM     29  P   UNL d   1     -11.859   8.229  -6.827 -0.03 +0.24    +0.473 P 
DOCKED: ATOM     30  O   UNL d   1     -11.779   8.427  -8.297 -0.01 -0.08    -0.228 OA
DOCKED: BRANCH  29  31
DOCKED: ATOM     31  O   UNL d   1     -12.385   6.807  -6.313 -0.31 -0.36    -0.303 OA
DOCKED: ATOM     32  H   UNL d   1     -11.779   6.108  -6.650 +0.03 +0.45    +0.222 HD
DOCKED: ENDBRANCH  29  31
DOCKED: BRANCH  29  33
DOCKED: ATOM     33  O   UNL d   1     -12.764   9.254  -6.011 -0.01 -0.10    -0.303 OA
DOCKED: ATOM     34  H   UNL d   1     -12.255  10.090  -5.871 +0.06 +0.06    +0.222 HD
DOCKED: ENDBRANCH  29  33
DOCKED: ENDBRANCH  28  29
DOCKED: ENDBRANCH   3  28
DOCKED: BRANCH   5  35
DOCKED: ATOM     35  O   UNL d   1      -9.901  11.593  -9.268 -0.21 -0.09    -0.278 OA
DOCKED: BRANCH  35  36
DOCKED: ATOM     36  P   UNL d   1     -10.616  10.816 -10.464 -0.03 +0.11    +0.473 P 
DOCKED: ATOM     37  O   UNL d   1     -10.041   9.475 -10.796 -0.03 -0.04    -0.228 OA
DOCKED: BRANCH  36  38
DOCKED: ATOM     38  O   UNL d   1     -12.128  10.775  -9.968 -0.00 -0.06    -0.303 OA
DOCKED: ATOM     39  H   UNL d   1     -12.268   9.967  -9.428 +0.02 +0.05    +0.222 HD
DOCKED: ENDBRANCH  36  38
DOCKED: BRANCH  36  40
DOCKED: ATOM     40  O   UNL d   1     -10.622  11.905 -11.622 -0.13 -0.08    -0.303 OA
DOCKED: ATOM     41  H   UNL d   1      -9.925  11.728 -12.293 +0.04 +0.05    +0.222 HD
DOCKED: ENDBRANCH  36  40
DOCKED: ENDBRANCH  35  36
DOCKED: ENDBRANCH   5  35
DOCKED: BRANCH   4  42
DOCKED: ATOM     42  O   UNL d   1     -10.478  11.163  -6.445 -0.12 -0.08    -0.278 OA
DOCKED: BRANCH  42  43
DOCKED: ATOM     43  P   UNL d   1     -11.703  12.108  -6.836 -0.05 +0.15    +0.473 P 
DOCKED: ATOM     44  O   UNL d   1     -11.385  13.408  -7.490 -0.16 -0.12    -0.228 OA
DOCKED: BRANCH  43  45
DOCKED: ATOM     45  O   UNL d   1     -12.620  11.146  -7.711 -0.01 -0.07    -0.303 OA
DOCKED: ATOM     46  H   UNL d   1     -12.191  10.280  -7.860 +0.03 +0.05    +0.222 HD
DOCKED: ENDBRANCH  43  45
DOCKED: BRANCH  43  47
DOCKED: ATOM     47  O   UNL d   1     -12.540  12.205  -5.472 -0.04 -0.08    -0.303 OA
DOCKED: ATOM     48  H   UNL d   1     -12.932  11.330  -5.271 +0.05 +0.05    +0.222 HD
DOCKED: ENDBRANCH  43  47
DOCKED: ENDBRANCH  42  43
DOCKED: ENDBRANCH   4  42
DOCKED: TORSDOF 24
DOCKED: TER
DOCKED: ENDMDL
________________________________________________________________________________


	BEGINNING GENETIC ALGORITHM DOCKING 81 of 100
Run: 81 Seed: 568520199 684948825 [ Run 81 of 100 GA/GALS ]
Beginning LAMARCKIAN GENETIC ALGORITHM (LGA), with a maximum of 25000000 energy evaluations.

Final-Value: -18.209


	FINAL GENETIC ALGORITHM DOCKED STATE
	_______________________________________________


Detailed state:  trans 12.107 7.884 -11.383 quatxyzw 0.195071 0.907784 -0.085212 -0.361406 center 0.035 0.082 -0.065 ntor 24 -27.8458 63.0291 -175.9270 -8.4402 47.5970 -118.3859 -100.9881 -19.0370 165.2357 -15.2916 133.9263 143.6519 152.5562 175.1752 -15.6186 -16.8163 -177.8922 28.6388 57.9882 18.9091 -50.3450 5.8128 31.0816 169.9596
State:	 12.107   7.884 -11.383   0.209  0.974 -0.091 -137.627    -27.85   63.03 -175.93   -8.44   47.60 -118.39 -100.99  -19.04  165.24  -15.29  133.93  143.65  152.56  175.18  -15.62  -16.82 -177.89   28.64   57.99   18.91  -50.35    5.81   31.08  169.96

DOCKED: MODEL       81
DOCKED: USER    Run = 81
DOCKED: USER    DPF = D:/Protein_go_brrr/autodock/final/mut_K82N/IHP/dock.dpf
DOCKED: USER  
DOCKED: USER    Estimated Free Energy of Binding    =   +2.57 kcal/mol  [=(1)+(2)+(3)-(4)]
DOCKED: USER    
DOCKED: USER    (1) Final Intermolecular Energy     =   -4.59 kcal/mol
DOCKED: USER        vdW + Hbond + desolv Energy     =   -4.49 kcal/mol
DOCKED: USER        Electrostatic Energy            =   -0.10 kcal/mol
DOCKED: USER    (2) Final Total Internal Energy     =  -13.62 kcal/mol
DOCKED: USER    (3) Torsional Free Energy           =   +7.16 kcal/mol
DOCKED: USER    (4) Unbound System's Energy  [=(2)] =  -13.62 kcal/mol
DOCKED: USER    
DOCKED: USER    
DOCKED: USER    NEWDPF move IHP_ideal_opt.pdbqt
DOCKED: USER    NEWDPF about 0.035000 0.082000 -0.065000
DOCKED: USER    NEWDPF tran0 12.106555 7.883866 -11.382966
DOCKED: USER    NEWDPF quaternion0 0.195071 0.907784 -0.085212 -0.361406
DOCKED: USER    NEWDPF axisangle0 0.209212 0.973590 -0.091389 -137.626826
DOCKED: USER    NEWDPF quat0 0.209212 0.973590 -0.091389 -137.626826
DOCKED: USER    NEWDPF dihe0 -27.85 63.03 -175.93 -8.44 47.60 -118.39 -100.99 -19.04 165.24 -15.29 133.93 143.65 152.56 175.18 -15.62 -16.82 -177.89 28.64 57.99 18.91 -50.35 5.81 31.08 169.96 
DOCKED: USER  keepresnum = 1 
DOCKED: USER  
DOCKED: REMARK  24 active torsions:
DOCKED: REMARK  status: ('A' for Active; 'I' for Inactive)
DOCKED: REMARK    1  A    between atoms: C_1  and  O_7 
DOCKED: REMARK    2  A    between atoms: C_2  and  O_12 
DOCKED: REMARK    3  A    between atoms: C_3  and  O_17 
DOCKED: REMARK    4  A    between atoms: C_4  and  O_22 
DOCKED: REMARK    5  A    between atoms: C_5  and  O_27 
DOCKED: REMARK    6  A    between atoms: C_6  and  O_32 
DOCKED: REMARK    7  A    between atoms: O_7  and  P_8 
DOCKED: REMARK    8  A    between atoms: P_8  and  O_10 
DOCKED: REMARK    9  A    between atoms: P_8  and  O_11 
DOCKED: REMARK   10  A    between atoms: O_12  and  P_13 
DOCKED: REMARK   11  A    between atoms: P_13  and  O_15 
DOCKED: REMARK   12  A    between atoms: P_13  and  O_16 
DOCKED: REMARK   13  A    between atoms: O_17  and  P_18 
DOCKED: REMARK   14  A    between atoms: P_18  and  O_20 
DOCKED: REMARK   15  A    between atoms: P_18  and  O_21 
DOCKED: REMARK   16  A    between atoms: O_22  and  P_23 
DOCKED: REMARK   17  A    between atoms: P_23  and  O_25 
DOCKED: REMARK   18  A    between atoms: P_23  and  O_26 
DOCKED: REMARK   19  A    between atoms: O_27  and  P_28 
DOCKED: REMARK   20  A    between atoms: P_28  and  O_30 
DOCKED: REMARK   21  A    between atoms: P_28  and  O_31 
DOCKED: REMARK   22  A    between atoms: O_32  and  P_33 
DOCKED: REMARK   23  A    between atoms: P_33  and  O_35 
DOCKED: REMARK   24  A    between atoms: P_33  and  O_36 
DOCKED: USER                              x       y       z     vdW  Elec       q    Type
DOCKED: USER                           _______ _______ _______ _____ _____    ______ ____
DOCKED: ROOT
DOCKED: ATOM      1  C   UNL d   1      11.400   7.209 -12.807 -0.13 -0.02    +0.194 C 
DOCKED: ATOM      2  C   UNL d   1      11.663   6.222 -11.669 -0.16 -0.04    +0.194 C 
DOCKED: ATOM      3  C   UNL d   1      13.030   6.453 -11.023 -0.13 -0.03    +0.194 C 
DOCKED: ATOM      4  C   UNL d   1      13.257   7.901 -10.595 -0.19 -0.02    +0.194 C 
DOCKED: ATOM      5  C   UNL d   1      12.897   8.927 -11.663 -0.19 -0.01    +0.194 C 
DOCKED: ATOM      6  C   UNL d   1      11.557   8.660 -12.352 -0.20 -0.00    +0.194 C 
DOCKED: ENDROOT
DOCKED: BRANCH   1   7
DOCKED: ATOM      7  O   UNL d   1      10.047   7.042 -13.239 -0.14 -0.00    -0.278 OA
DOCKED: BRANCH   7   8
DOCKED: ATOM      8  P   UNL d   1       9.626   5.649 -13.897 -0.04 -0.19    +0.473 P 
DOCKED: ATOM      9  O   UNL d   1       8.448   5.710 -14.804 -0.70 -0.01    -0.228 OA
DOCKED: BRANCH   8  10
DOCKED: ATOM     10  O   UNL d   1      10.954   5.149 -14.626 -0.03 +0.12    -0.303 OA
DOCKED: ATOM     11  H   UNL d   1      10.813   4.252 -14.983 +0.01 -0.14    +0.222 HD
DOCKED: ENDBRANCH   8  10
DOCKED: BRANCH   8  12
DOCKED: ATOM     12  O   UNL d   1       9.513   4.635 -12.679 -0.08 +0.31    -0.303 OA
DOCKED: ATOM     13  H   UNL d   1       9.437   5.085 -11.808 +0.12 -0.12    +0.222 HD
DOCKED: ENDBRANCH   8  12
DOCKED: ENDBRANCH   7   8
DOCKED: ENDBRANCH   1   7
DOCKED: BRANCH   2  14
DOCKED: ATOM     14  O   UNL d   1      10.651   6.385 -10.667 -0.12 +0.07    -0.278 OA
DOCKED: BRANCH  14  15
DOCKED: ATOM     15  P   UNL d   1      10.276   5.085  -9.810 -0.13 -0.14    +0.473 P 
DOCKED: ATOM     16  O   UNL d   1       8.822   4.744  -9.708 -0.87 +0.07    -0.228 OA
DOCKED: BRANCH  15  17
DOCKED: ATOM     17  O   UNL d   1      11.138   3.921 -10.475 -0.11 +0.13    -0.303 OA
DOCKED: ATOM     18  H   UNL d   1      12.023   3.862 -10.066 +0.08 -0.09    +0.222 HD
DOCKED: ENDBRANCH  15  17
DOCKED: BRANCH  15  19
DOCKED: ATOM     19  O   UNL d   1      11.031   5.290  -8.426 -0.23 +0.07    -0.303 OA
DOCKED: ATOM     20  H   UNL d   1      11.999   5.233  -8.531 +0.10 -0.05    +0.222 HD
DOCKED: ENDBRANCH  15  19
DOCKED: ENDBRANCH  14  15
DOCKED: ENDBRANCH   2  14
DOCKED: BRANCH   6  21
DOCKED: ATOM     21  O   UNL d   1      11.528   9.472 -13.523 -0.09 -0.02    -0.278 OA
DOCKED: BRANCH  21  22
DOCKED: ATOM     22  P   UNL d   1      10.128   9.959 -14.114 -0.12 +0.13    +0.473 P 
DOCKED: ATOM     23  O   UNL d   1       8.917   9.832 -13.253 -0.19 -0.12    -0.228 OA
DOCKED: BRANCH  22  24
DOCKED: ATOM     24  O   UNL d   1      10.468  11.444 -14.574 -0.06 -0.05    -0.303 OA
DOCKED: ATOM     25  H   UNL d   1      11.295  11.729 -14.109 +0.05 +0.02    +0.222 HD
DOCKED: ENDBRANCH  22  24
DOCKED: BRANCH  22  26
DOCKED: ATOM     26  O   UNL d   1      10.078   9.181 -15.516 -0.17 -0.11    -0.303 OA
DOCKED: ATOM     27  H   UNL d   1       9.993   8.221 -15.348 +0.04 +0.08    +0.222 HD
DOCKED: ENDBRANCH  22  26
DOCKED: ENDBRANCH  21  22
DOCKED: ENDBRANCH   6  21
DOCKED: BRANCH   3  28
DOCKED: ATOM     28  O   UNL d   1      13.070   5.694  -9.821 -0.12 +0.05    -0.278 OA
DOCKED: BRANCH  28  29
DOCKED: ATOM     29  P   UNL d   1      14.117   4.505  -9.655 -0.03 -0.10    +0.473 P 
DOCKED: ATOM     30  O   UNL d   1      14.278   3.623 -10.840 -0.03 +0.06    -0.228 OA
DOCKED: BRANCH  29  31
DOCKED: ATOM     31  O   UNL d   1      15.405   5.330  -9.185 -0.02 +0.04    -0.303 OA
DOCKED: ATOM     32  H   UNL d   1      15.535   6.088  -9.801 +0.03 -0.02    +0.222 HD
DOCKED: ENDBRANCH  29  31
DOCKED: BRANCH  29  33
DOCKED: ATOM     33  O   UNL d   1      13.628   3.816  -8.306 -0.11 +0.10    -0.303 OA
DOCKED: ATOM     34  H   UNL d   1      12.640   3.795  -8.295 +0.06 -0.11    +0.222 HD
DOCKED: ENDBRANCH  29  33
DOCKED: ENDBRANCH  28  29
DOCKED: ENDBRANCH   3  28
DOCKED: BRANCH   5  35
DOCKED: ATOM     35  O   UNL d   1      12.777  10.172 -10.978 -0.21 +0.00    -0.278 OA
DOCKED: BRANCH  35  36
DOCKED: ATOM     36  P   UNL d   1      12.841  11.545 -11.788 -0.11 +0.01    +0.473 P 
DOCKED: ATOM     37  O   UNL d   1      13.725  12.599 -11.201 -0.08 +0.00    -0.228 OA
DOCKED: BRANCH  36  38
DOCKED: ATOM     38  O   UNL d   1      13.284  11.050 -13.235 -0.03 +0.00    -0.303 OA
DOCKED: ATOM     39  H   UNL d   1      12.485  10.929 -13.792 +0.04 +0.00    +0.222 HD
DOCKED: ENDBRANCH  36  38
DOCKED: BRANCH  36  40
DOCKED: ATOM     40  O   UNL d   1      11.302  11.908 -11.963 -0.18 -0.03    -0.303 OA
DOCKED: ATOM     41  H   UNL d   1      10.808  11.189 -12.415 +0.07 +0.03    +0.222 HD
DOCKED: ENDBRANCH  36  40
DOCKED: ENDBRANCH  35  36
DOCKED: ENDBRANCH   5  35
DOCKED: BRANCH   4  42
DOCKED: ATOM     42  O   UNL d   1      14.657   8.041 -10.331 -0.08 +0.02    -0.278 OA
DOCKED: BRANCH  42  43
DOCKED: ATOM     43  P   UNL d   1      15.697   7.730 -11.499 -0.01 -0.04    +0.473 P 
DOCKED: ATOM     44  O   UNL d   1      15.824   8.735 -12.592 -0.01 +0.01    -0.228 OA
DOCKED: BRANCH  43  45
DOCKED: ATOM     45  O   UNL d   1      17.048   7.463 -10.702 -0.01 +0.02    -0.303 OA
DOCKED: ATOM     46  H   UNL d   1      16.960   6.701 -10.094 +0.01 -0.02    +0.222 HD
DOCKED: ENDBRANCH  43  45
DOCKED: BRANCH  43  47
DOCKED: ATOM     47  O   UNL d   1      15.295   6.250 -11.964 -0.01 +0.03    -0.303 OA
DOCKED: ATOM     48  H   UNL d   1      15.035   5.725 -11.179 +0.03 -0.03    +0.222 HD
DOCKED: ENDBRANCH  43  47
DOCKED: ENDBRANCH  42  43
DOCKED: ENDBRANCH   4  42
DOCKED: TORSDOF 24
DOCKED: TER
DOCKED: ENDMDL
________________________________________________________________________________


	BEGINNING GENETIC ALGORITHM DOCKING 82 of 100
Run: 82 Seed: 1391007216 1692938293 [ Run 82 of 100 GA/GALS ]
Beginning LAMARCKIAN GENETIC ALGORITHM (LGA), with a maximum of 25000000 energy evaluations.

Final-Value: -16.559


	FINAL GENETIC ALGORITHM DOCKED STATE
	_______________________________________________


Detailed state:  trans 14.396 -3.377 1.337 quatxyzw 0.554525 0.584822 0.589777 0.051462 center 0.035 0.082 -0.065 ntor 24 136.0865 20.3209 22.1523 100.3800 -15.3007 -133.4663 -95.9033 16.2220 73.0213 88.6354 110.0814 127.6580 1.5453 -93.2994 -94.0116 159.9371 -87.1862 -143.0738 -9.6911 8.7572 -0.3920 24.2210 168.1188 -1.0492
State:	 14.396  -3.377   1.337   0.555  0.586  0.591 174.100    136.09   20.32   22.15  100.38  -15.30 -133.47  -95.90   16.22   73.02   88.64  110.08  127.66    1.55  -93.30  -94.01  159.94  -87.19 -143.07   -9.69    8.76   -0.39   24.22  168.12   -1.05

DOCKED: MODEL       82
DOCKED: USER    Run = 82
DOCKED: USER    DPF = D:/Protein_go_brrr/autodock/final/mut_K82N/IHP/dock.dpf
DOCKED: USER  
DOCKED: USER    Estimated Free Energy of Binding    =   +2.64 kcal/mol  [=(1)+(2)+(3)-(4)]
DOCKED: USER    
DOCKED: USER    (1) Final Intermolecular Energy     =   -4.52 kcal/mol
DOCKED: USER        vdW + Hbond + desolv Energy     =   -4.37 kcal/mol
DOCKED: USER        Electrostatic Energy            =   -0.15 kcal/mol
DOCKED: USER    (2) Final Total Internal Energy     =  -12.04 kcal/mol
DOCKED: USER    (3) Torsional Free Energy           =   +7.16 kcal/mol
DOCKED: USER    (4) Unbound System's Energy  [=(2)] =  -12.04 kcal/mol
DOCKED: USER    
DOCKED: USER    
DOCKED: USER    NEWDPF move IHP_ideal_opt.pdbqt
DOCKED: USER    NEWDPF about 0.035000 0.082000 -0.065000
DOCKED: USER    NEWDPF tran0 14.396016 -3.377287 1.336698
DOCKED: USER    NEWDPF quaternion0 0.554525 0.584822 0.589777 0.051462
DOCKED: USER    NEWDPF axisangle0 0.555261 0.585598 0.590559 174.100262
DOCKED: USER    NEWDPF quat0 0.555261 0.585598 0.590559 174.100262
DOCKED: USER    NEWDPF dihe0 136.09 20.32 22.15 100.38 -15.30 -133.47 -95.90 16.22 73.02 88.64 110.08 127.66 1.55 -93.30 -94.01 159.94 -87.19 -143.07 -9.69 8.76 -0.39 24.22 168.12 -1.05 
DOCKED: USER  keepresnum = 1 
DOCKED: USER  
DOCKED: REMARK  24 active torsions:
DOCKED: REMARK  status: ('A' for Active; 'I' for Inactive)
DOCKED: REMARK    1  A    between atoms: C_1  and  O_7 
DOCKED: REMARK    2  A    between atoms: C_2  and  O_12 
DOCKED: REMARK    3  A    between atoms: C_3  and  O_17 
DOCKED: REMARK    4  A    between atoms: C_4  and  O_22 
DOCKED: REMARK    5  A    between atoms: C_5  and  O_27 
DOCKED: REMARK    6  A    between atoms: C_6  and  O_32 
DOCKED: REMARK    7  A    between atoms: O_7  and  P_8 
DOCKED: REMARK    8  A    between atoms: P_8  and  O_10 
DOCKED: REMARK    9  A    between atoms: P_8  and  O_11 
DOCKED: REMARK   10  A    between atoms: O_12  and  P_13 
DOCKED: REMARK   11  A    between atoms: P_13  and  O_15 
DOCKED: REMARK   12  A    between atoms: P_13  and  O_16 
DOCKED: REMARK   13  A    between atoms: O_17  and  P_18 
DOCKED: REMARK   14  A    between atoms: P_18  and  O_20 
DOCKED: REMARK   15  A    between atoms: P_18  and  O_21 
DOCKED: REMARK   16  A    between atoms: O_22  and  P_23 
DOCKED: REMARK   17  A    between atoms: P_23  and  O_25 
DOCKED: REMARK   18  A    between atoms: P_23  and  O_26 
DOCKED: REMARK   19  A    between atoms: O_27  and  P_28 
DOCKED: REMARK   20  A    between atoms: P_28  and  O_30 
DOCKED: REMARK   21  A    between atoms: P_28  and  O_31 
DOCKED: REMARK   22  A    between atoms: O_32  and  P_33 
DOCKED: REMARK   23  A    between atoms: P_33  and  O_35 
DOCKED: REMARK   24  A    between atoms: P_33  and  O_36 
DOCKED: USER                              x       y       z     vdW  Elec       q    Type
DOCKED: USER                           _______ _______ _______ _____ _____    ______ ____
DOCKED: ROOT
DOCKED: ATOM      1  C   UNL d   1      13.760  -1.774   1.433 -0.14 +0.01    +0.194 C 
DOCKED: ATOM      2  C   UNL d   1      13.445  -2.534   0.143 -0.14 +0.02    +0.194 C 
DOCKED: ATOM      3  C   UNL d   1      14.666  -3.292  -0.381 -0.03 +0.02    +0.194 C 
DOCKED: ATOM      4  C   UNL d   1      15.316  -4.186   0.672 -0.00 +0.01    +0.194 C 
DOCKED: ATOM      5  C   UNL d   1      15.544  -3.501   2.013 -0.01 +0.01    +0.194 C 
DOCKED: ATOM      6  C   UNL d   1      14.343  -2.693   2.508 -0.09 +0.00    +0.194 C 
DOCKED: ENDROOT
DOCKED: BRANCH   1   7
DOCKED: ATOM      7  O   UNL d   1      12.538  -1.240   1.947 -0.32 +0.01    -0.278 OA
DOCKED: BRANCH   7   8
DOCKED: ATOM      8  P   UNL d   1      12.508   0.292   2.397 -0.06 +0.04    +0.473 P 
DOCKED: ATOM      9  O   UNL d   1      12.980   1.261   1.370 -0.15 -0.03    -0.228 OA
DOCKED: BRANCH   8  10
DOCKED: ATOM     10  O   UNL d   1      10.996   0.536   2.842 -0.67 -0.06    -0.303 OA
DOCKED: ATOM     11  H   UNL d   1      10.421  -0.134   2.426 -0.19 +0.01    +0.222 HD
DOCKED: ENDBRANCH   8  10
DOCKED: BRANCH   8  12
DOCKED: ATOM     12  O   UNL d   1      13.274   0.328   3.789 -0.11 -0.03    -0.303 OA
DOCKED: ATOM     13  H   UNL d   1      13.253  -0.533   4.263 +0.06 +0.03    +0.222 HD
DOCKED: ENDBRANCH   8  12
DOCKED: ENDBRANCH   7   8
DOCKED: ENDBRANCH   1   7
DOCKED: BRANCH   2  14
DOCKED: ATOM     14  O   UNL d   1      12.398  -3.477   0.402 -0.16 +0.01    -0.278 OA
DOCKED: BRANCH  14  15
DOCKED: ATOM     15  P   UNL d   1      11.288  -3.646  -0.741 -0.19 +0.03    +0.473 P 
DOCKED: ATOM     16  O   UNL d   1      10.872  -2.402  -1.462 -0.76 -0.10    -0.228 OA
DOCKED: BRANCH  15  17
DOCKED: ATOM     17  O   UNL d   1      11.899  -4.749  -1.715 -0.10 -0.05    -0.303 OA
DOCKED: ATOM     18  H   UNL d   1      12.629  -4.381  -2.248 +0.05 +0.06    +0.222 HD
DOCKED: ENDBRANCH  15  17
DOCKED: BRANCH  15  19
DOCKED: ATOM     19  O   UNL d   1      10.114  -4.456  -0.037 -0.27 +0.06    -0.303 OA
DOCKED: ATOM     20  H   UNL d   1       9.959  -4.148   0.875 -0.26 -0.12    +0.222 HD
DOCKED: ENDBRANCH  15  19
DOCKED: ENDBRANCH  14  15
DOCKED: ENDBRANCH   2  14
DOCKED: BRANCH   6  21
DOCKED: ATOM     21  O   UNL d   1      14.816  -1.856   3.562 -0.05 -0.01    -0.278 OA
DOCKED: BRANCH  21  22
DOCKED: ATOM     22  P   UNL d   1      14.513  -2.247   5.078 -0.10 +0.05    +0.473 P 
DOCKED: ATOM     23  O   UNL d   1      13.092  -2.273   5.529 -0.44 -0.10    -0.228 OA
DOCKED: BRANCH  22  24
DOCKED: ATOM     24  O   UNL d   1      15.283  -3.633   5.218 -0.04 -0.01    -0.303 OA
DOCKED: ATOM     25  H   UNL d   1      14.707  -4.345   4.841 +0.05 +0.01    +0.222 HD
DOCKED: ENDBRANCH  22  24
DOCKED: BRANCH  22  26
DOCKED: ATOM     26  O   UNL d   1      15.484  -1.248   5.872 -0.05 -0.02    -0.303 OA
DOCKED: ATOM     27  H   UNL d   1      15.324  -0.332   5.564 +0.03 +0.01    +0.222 HD
DOCKED: ENDBRANCH  22  26
DOCKED: ENDBRANCH  21  22
DOCKED: ENDBRANCH   6  21
DOCKED: BRANCH   3  28
DOCKED: ATOM     28  O   UNL d   1      14.217  -4.174  -1.401 -0.02 -0.04    -0.278 OA
DOCKED: BRANCH  28  29
DOCKED: ATOM     29  P   UNL d   1      15.017  -4.291  -2.773 -0.01 +0.07    +0.473 P 
DOCKED: ATOM     30  O   UNL d   1      15.263  -5.675  -3.255 -0.00 -0.01    -0.228 OA
DOCKED: BRANCH  29  31
DOCKED: ATOM     31  O   UNL d   1      14.117  -3.348  -3.702 -0.09 -0.13    -0.303 OA
DOCKED: ATOM     32  H   UNL d   1      13.169  -3.556  -3.537 +0.03 +0.12    +0.222 HD
DOCKED: ENDBRANCH  29  31
DOCKED: BRANCH  29  33
DOCKED: ATOM     33  O   UNL d   1      16.298  -3.389  -2.491 -0.00 -0.04    -0.303 OA
DOCKED: ATOM     34  H   UNL d   1      16.915  -3.884  -1.898 +0.01 +0.01    +0.222 HD
DOCKED: ENDBRANCH  29  33
DOCKED: ENDBRANCH  28  29
DOCKED: ENDBRANCH   3  28
DOCKED: BRANCH   5  35
DOCKED: ATOM     35  O   UNL d   1      15.758  -4.553   2.953 -0.01 -0.01    -0.278 OA
DOCKED: BRANCH  35  36
DOCKED: ATOM     36  P   UNL d   1      14.618  -5.634   3.224 -0.04 +0.02    +0.473 P 
DOCKED: ATOM     37  O   UNL d   1      13.229  -5.091   3.344 -0.16 -0.02    -0.228 OA
DOCKED: BRANCH  36  38
DOCKED: ATOM     38  O   UNL d   1      14.824  -6.638   2.005 -0.01 -0.01    -0.303 OA
DOCKED: ATOM     39  H   UNL d   1      15.598  -6.347   1.477 +0.01 +0.00    +0.222 HD
DOCKED: ENDBRANCH  36  38
DOCKED: BRANCH  36  40
DOCKED: ATOM     40  O   UNL d   1      15.193  -6.428   4.476 -0.02 -0.01    -0.303 OA
DOCKED: ATOM     41  H   UNL d   1      15.523  -5.819   5.173 +0.04 +0.01    +0.222 HD
DOCKED: ENDBRANCH  36  40
DOCKED: ENDBRANCH  35  36
DOCKED: ENDBRANCH   5  35
DOCKED: BRANCH   4  42
DOCKED: ATOM     42  O   UNL d   1      16.602  -4.557   0.164 +0.00 -0.01    -0.278 OA
DOCKED: BRANCH  42  43
DOCKED: ATOM     43  P   UNL d   1      16.864  -6.078  -0.237 +0.00 +0.01    +0.473 P 
DOCKED: ATOM     44  O   UNL d   1      17.545  -6.945   0.766 +0.00 -0.00    -0.228 OA
DOCKED: BRANCH  43  45
DOCKED: ATOM     45  O   UNL d   1      15.415  -6.583  -0.656 +0.00 -0.01    -0.303 OA
DOCKED: ATOM     46  H   UNL d   1      14.914  -5.886  -1.124 +0.02 +0.01    +0.222 HD
DOCKED: ENDBRANCH  43  45
DOCKED: BRANCH  43  47
DOCKED: ATOM     47  O   UNL d   1      17.593  -5.963  -1.659 +0.00 -0.00    -0.303 OA
DOCKED: ATOM     48  H   UNL d   1      17.047  -5.413  -2.258 +0.00 +0.01    +0.222 HD
DOCKED: ENDBRANCH  43  47
DOCKED: ENDBRANCH  42  43
DOCKED: ENDBRANCH   4  42
DOCKED: TORSDOF 24
DOCKED: TER
DOCKED: ENDMDL
________________________________________________________________________________


	BEGINNING GENETIC ALGORITHM DOCKING 83 of 100
Run: 83 Seed: 994452741 521557359 [ Run 83 of 100 GA/GALS ]
Beginning LAMARCKIAN GENETIC ALGORITHM (LGA), with a maximum of 25000000 energy evaluations.

Final-Value: -16.888


	FINAL GENETIC ALGORITHM DOCKED STATE
	_______________________________________________


Detailed state:  trans 8.105 14.585 -13.902 quatxyzw 0.007983 0.584095 -0.756379 0.294379 center 0.035 0.082 -0.065 ntor 24 -99.4339 -17.9183 142.4477 14.0172 143.1595 80.3268 -108.9429 28.3034 14.9903 104.8241 50.6060 70.0095 90.4936 -142.4762 178.9189 60.1001 -78.7938 -88.8131 -30.7424 3.0834 17.2223 151.3672 178.1016 -132.0173
State:	  8.105  14.585 -13.902   0.008  0.611 -0.791 145.759    -99.43  -17.92  142.45   14.02  143.16   80.33 -108.94   28.30   14.99  104.82   50.61   70.01   90.49 -142.48  178.92   60.10  -78.79  -88.81  -30.74    3.08   17.22  151.37  178.10 -132.02

DOCKED: MODEL       83
DOCKED: USER    Run = 83
DOCKED: USER    DPF = D:/Protein_go_brrr/autodock/final/mut_K82N/IHP/dock.dpf
DOCKED: USER  
DOCKED: USER    Estimated Free Energy of Binding    =   +3.92 kcal/mol  [=(1)+(2)+(3)-(4)]
DOCKED: USER    
DOCKED: USER    (1) Final Intermolecular Energy     =   -3.24 kcal/mol
DOCKED: USER        vdW + Hbond + desolv Energy     =   -3.25 kcal/mol
DOCKED: USER        Electrostatic Energy            =   +0.01 kcal/mol
DOCKED: USER    (2) Final Total Internal Energy     =  -13.65 kcal/mol
DOCKED: USER    (3) Torsional Free Energy           =   +7.16 kcal/mol
DOCKED: USER    (4) Unbound System's Energy  [=(2)] =  -13.65 kcal/mol
DOCKED: USER    
DOCKED: USER    
DOCKED: USER    NEWDPF move IHP_ideal_opt.pdbqt
DOCKED: USER    NEWDPF about 0.035000 0.082000 -0.065000
DOCKED: USER    NEWDPF tran0 8.105043 14.584697 -13.901900
DOCKED: USER    NEWDPF quaternion0 0.007983 0.584095 -0.756379 0.294379
DOCKED: USER    NEWDPF axisangle0 0.008353 0.611178 -0.791449 145.759383
DOCKED: USER    NEWDPF quat0 0.008353 0.611178 -0.791449 145.759383
DOCKED: USER    NEWDPF dihe0 -99.43 -17.92 142.45 14.02 143.16 80.33 -108.94 28.30 14.99 104.82 50.61 70.01 90.49 -142.48 178.92 60.10 -78.79 -88.81 -30.74 3.08 17.22 151.37 178.10 -132.02 
DOCKED: USER  keepresnum = 1 
DOCKED: USER  
DOCKED: REMARK  24 active torsions:
DOCKED: REMARK  status: ('A' for Active; 'I' for Inactive)
DOCKED: REMARK    1  A    between atoms: C_1  and  O_7 
DOCKED: REMARK    2  A    between atoms: C_2  and  O_12 
DOCKED: REMARK    3  A    between atoms: C_3  and  O_17 
DOCKED: REMARK    4  A    between atoms: C_4  and  O_22 
DOCKED: REMARK    5  A    between atoms: C_5  and  O_27 
DOCKED: REMARK    6  A    between atoms: C_6  and  O_32 
DOCKED: REMARK    7  A    between atoms: O_7  and  P_8 
DOCKED: REMARK    8  A    between atoms: P_8  and  O_10 
DOCKED: REMARK    9  A    between atoms: P_8  and  O_11 
DOCKED: REMARK   10  A    between atoms: O_12  and  P_13 
DOCKED: REMARK   11  A    between atoms: P_13  and  O_15 
DOCKED: REMARK   12  A    between atoms: P_13  and  O_16 
DOCKED: REMARK   13  A    between atoms: O_17  and  P_18 
DOCKED: REMARK   14  A    between atoms: P_18  and  O_20 
DOCKED: REMARK   15  A    between atoms: P_18  and  O_21 
DOCKED: REMARK   16  A    between atoms: O_22  and  P_23 
DOCKED: REMARK   17  A    between atoms: P_23  and  O_25 
DOCKED: REMARK   18  A    between atoms: P_23  and  O_26 
DOCKED: REMARK   19  A    between atoms: O_27  and  P_28 
DOCKED: REMARK   20  A    between atoms: P_28  and  O_30 
DOCKED: REMARK   21  A    between atoms: P_28  and  O_31 
DOCKED: REMARK   22  A    between atoms: O_32  and  P_33 
DOCKED: REMARK   23  A    between atoms: P_33  and  O_35 
DOCKED: REMARK   24  A    between atoms: P_33  and  O_36 
DOCKED: USER                              x       y       z     vdW  Elec       q    Type
DOCKED: USER                           _______ _______ _______ _____ _____    ______ ____
DOCKED: ROOT
DOCKED: ATOM      1  C   UNL d   1       7.175  14.587 -12.446 -0.20 +0.01    +0.194 C 
DOCKED: ATOM      2  C   UNL d   1       8.688  14.460 -12.263 -0.16 +0.01    +0.194 C 
DOCKED: ATOM      3  C   UNL d   1       9.301  13.488 -13.273 -0.12 +0.02    +0.194 C 
DOCKED: ATOM      4  C   UNL d   1       8.919  13.800 -14.718 -0.06 +0.02    +0.194 C 
DOCKED: ATOM      5  C   UNL d   1       7.430  14.048 -14.926 -0.09 +0.02    +0.194 C 
DOCKED: ATOM      6  C   UNL d   1       6.804  14.972 -13.879 -0.11 +0.00    +0.194 C 
DOCKED: ENDROOT
DOCKED: BRANCH   1   7
DOCKED: ATOM      7  O   UNL d   1       6.708  15.633 -11.590 -0.20 +0.03    -0.278 OA
DOCKED: BRANCH   7   8
DOCKED: ATOM      8  P   UNL d   1       5.197  15.576 -11.077 -0.24 -0.09    +0.473 P 
DOCKED: ATOM      9  O   UNL d   1       4.989  16.024  -9.673 -0.26 +0.08    -0.228 OA
DOCKED: BRANCH   8  10
DOCKED: ATOM     10  O   UNL d   1       4.394  16.453 -12.141 -0.12 +0.06    -0.303 OA
DOCKED: ATOM     11  H   UNL d   1       3.917  15.866 -12.756 +0.09 -0.04    +0.222 HD
DOCKED: ENDBRANCH   8  10
DOCKED: BRANCH   8  12
DOCKED: ATOM     12  O   UNL d   1       4.700  14.106 -11.417 -0.53 +0.01    -0.303 OA
DOCKED: ATOM     13  H   UNL d   1       4.692  13.915 -12.382 +0.10 +0.01    +0.222 HD
DOCKED: ENDBRANCH   8  12
DOCKED: ENDBRANCH   7   8
DOCKED: ENDBRANCH   1   7
DOCKED: BRANCH   2  14
DOCKED: ATOM     14  O   UNL d   1       9.291  15.748 -12.446 -0.06 +0.00    -0.278 OA
DOCKED: BRANCH  14  15
DOCKED: ATOM     15  P   UNL d   1      10.395  16.181 -11.370 -0.06 -0.01    +0.473 P 
DOCKED: ATOM     16  O   UNL d   1       9.897  16.854 -10.130 -0.12 +0.01    -0.228 OA
DOCKED: BRANCH  15  17
DOCKED: ATOM     17  O   UNL d   1      11.188  14.833 -11.065 -0.10 -0.01    -0.303 OA
DOCKED: ATOM     18  H   UNL d   1      11.420  14.367 -11.891 +0.06 +0.00    +0.222 HD
DOCKED: ENDBRANCH  15  17
DOCKED: BRANCH  15  19
DOCKED: ATOM     19  O   UNL d   1      11.468  17.000 -12.211 -0.01 +0.01    -0.303 OA
DOCKED: ATOM     20  H   UNL d   1      11.698  16.545 -13.043 +0.02 -0.01    +0.222 HD
DOCKED: ENDBRANCH  15  19
DOCKED: ENDBRANCH  14  15
DOCKED: ENDBRANCH   2  14
DOCKED: BRANCH   6  21
DOCKED: ATOM     21  O   UNL d   1       5.390  14.831 -13.997 -0.12 +0.01    -0.278 OA
DOCKED: BRANCH  21  22
DOCKED: ATOM     22  P   UNL d   1       4.595  15.701 -15.072 -0.03 -0.08    +0.473 P 
DOCKED: ATOM     23  O   UNL d   1       3.176  16.057 -14.779 -0.13 +0.09    -0.228 OA
DOCKED: BRANCH  22  24
DOCKED: ATOM     24  O   UNL d   1       5.568  16.945 -15.268 -0.01 +0.04    -0.303 OA
DOCKED: ATOM     25  H   UNL d   1       6.321  16.659 -15.845 +0.02 -0.02    +0.222 HD
DOCKED: ENDBRANCH  22  24
DOCKED: BRANCH  22  26
DOCKED: ATOM     26  O   UNL d   1       4.847  14.867 -16.418 -0.04 +0.04    -0.303 OA
DOCKED: ATOM     27  H   UNL d   1       5.627  15.235 -16.882 +0.03 -0.02    +0.222 HD
DOCKED: ENDBRANCH  22  26
DOCKED: ENDBRANCH  21  22
DOCKED: ENDBRANCH   6  21
DOCKED: BRANCH   3  28
DOCKED: ATOM     28  O   UNL d   1      10.714  13.643 -13.215 -0.07 -0.02    -0.278 OA
DOCKED: BRANCH  28  29
DOCKED: ATOM     29  P   UNL d   1      11.467  14.556 -14.280 +0.00 -0.00    +0.473 P 
DOCKED: ATOM     30  O   UNL d   1      10.716  15.751 -14.745 -0.01 +0.01    -0.228 OA
DOCKED: BRANCH  29  31
DOCKED: ATOM     31  O   UNL d   1      12.840  14.819 -13.502 -0.01 +0.01    -0.303 OA
DOCKED: ATOM     32  H   UNL d   1      12.634  15.234 -12.632 +0.02 -0.01    +0.222 HD
DOCKED: ENDBRANCH  29  31
DOCKED: BRANCH  29  33
DOCKED: ATOM     33  O   UNL d   1      11.889  13.495 -15.390 -0.00 -0.00    -0.303 OA
DOCKED: ATOM     34  H   UNL d   1      11.149  13.396 -16.037 +0.01 +0.00    +0.222 HD
DOCKED: ENDBRANCH  29  33
DOCKED: ENDBRANCH  28  29
DOCKED: ENDBRANCH   3  28
DOCKED: BRANCH   5  35
DOCKED: ATOM     35  O   UNL d   1       7.320  14.706 -16.186 -0.01 -0.00    -0.278 OA
DOCKED: BRANCH  35  36
DOCKED: ATOM     36  P   UNL d   1       8.203  15.996 -16.501 +0.00 -0.02    +0.473 P 
DOCKED: ATOM     37  O   UNL d   1       8.469  16.895 -15.335 -0.00 +0.01    -0.228 OA
DOCKED: BRANCH  36  38
DOCKED: ATOM     38  O   UNL d   1       9.511  15.348 -17.139 +0.00 +0.01    -0.303 OA
DOCKED: ATOM     39  H   UNL d   1       9.879  14.687 -16.514 +0.01 -0.00    +0.222 HD
DOCKED: ENDBRANCH  36  38
DOCKED: BRANCH  36  40
DOCKED: ATOM     40  O   UNL d   1       7.444  16.632 -17.745 -0.00 +0.02    -0.303 OA
DOCKED: ATOM     41  H   UNL d   1       6.532  16.913 -17.511 +0.00 -0.02    +0.222 HD
DOCKED: ENDBRANCH  36  40
DOCKED: ENDBRANCH  35  36
DOCKED: ENDBRANCH   5  35
DOCKED: BRANCH   4  42
DOCKED: ATOM     42  O   UNL d   1       9.267  12.650 -15.496 -0.04 -0.04    -0.278 OA
DOCKED: BRANCH  42  43
DOCKED: ATOM     43  P   UNL d   1       8.110  11.842 -16.239 -0.03 +0.18    +0.473 P 
DOCKED: ATOM     44  O   UNL d   1       6.854  11.586 -15.479 -0.64 -0.21    -0.228 OA
DOCKED: BRANCH  43  45
DOCKED: ATOM     45  O   UNL d   1       7.901  12.680 -17.576 -0.02 -0.04    -0.303 OA
DOCKED: ATOM     46  H   UNL d   1       8.216  13.601 -17.474 +0.02 +0.01    +0.222 HD
DOCKED: ENDBRANCH  43  45
DOCKED: BRANCH  43  47
DOCKED: ATOM     47  O   UNL d   1       8.865  10.539 -16.786 -0.06 -0.12    -0.303 OA
DOCKED: ATOM     48  H   UNL d   1       8.916  10.582 -17.764 +0.02 +0.05    +0.222 HD
DOCKED: ENDBRANCH  43  47
DOCKED: ENDBRANCH  42  43
DOCKED: ENDBRANCH   4  42
DOCKED: TORSDOF 24
DOCKED: TER
DOCKED: ENDMDL
________________________________________________________________________________


	BEGINNING GENETIC ALGORITHM DOCKING 84 of 100
Run: 84 Seed: 1460093239 15705157 [ Run 84 of 100 GA/GALS ]
Beginning LAMARCKIAN GENETIC ALGORITHM (LGA), with a maximum of 25000000 energy evaluations.

Final-Value: -16.108


	FINAL GENETIC ALGORITHM DOCKED STATE
	_______________________________________________


Detailed state:  trans 7.749 -13.046 -2.920 quatxyzw -0.655156 0.271890 0.700732 -0.076301 center 0.035 0.082 -0.065 ntor 24 -153.1630 162.9794 -17.1781 23.6117 101.2494 -160.5923 84.2109 -138.7691 96.6325 126.3385 90.3501 -143.4824 2.9907 -158.4066 63.8786 124.0284 43.0488 116.2713 -78.0659 -59.4835 35.3771 -169.8544 177.3812 -14.3035
State:	  7.749 -13.046  -2.920  -0.657  0.273  0.703 -171.248   -153.16  162.98  -17.18   23.61  101.25 -160.59   84.21 -138.77   96.63  126.34   90.35 -143.48    2.99 -158.41   63.88  124.03   43.05  116.27  -78.07  -59.48   35.38 -169.85  177.38  -14.30

DOCKED: MODEL       84
DOCKED: USER    Run = 84
DOCKED: USER    DPF = D:/Protein_go_brrr/autodock/final/mut_K82N/IHP/dock.dpf
DOCKED: USER  
DOCKED: USER    Estimated Free Energy of Binding    =   +2.77 kcal/mol  [=(1)+(2)+(3)-(4)]
DOCKED: USER    
DOCKED: USER    (1) Final Intermolecular Energy     =   -4.39 kcal/mol
DOCKED: USER        vdW + Hbond + desolv Energy     =   -4.22 kcal/mol
DOCKED: USER        Electrostatic Energy            =   -0.16 kcal/mol
DOCKED: USER    (2) Final Total Internal Energy     =  -11.72 kcal/mol
DOCKED: USER    (3) Torsional Free Energy           =   +7.16 kcal/mol
DOCKED: USER    (4) Unbound System's Energy  [=(2)] =  -11.72 kcal/mol
DOCKED: USER    
DOCKED: USER    
DOCKED: USER    NEWDPF move IHP_ideal_opt.pdbqt
DOCKED: USER    NEWDPF about 0.035000 0.082000 -0.065000
DOCKED: USER    NEWDPF tran0 7.748718 -13.045947 -2.919878
DOCKED: USER    NEWDPF quaternion0 -0.655156 0.271890 0.700732 -0.076301
DOCKED: USER    NEWDPF axisangle0 -0.657071 0.272685 0.702781 -171.248079
DOCKED: USER    NEWDPF quat0 -0.657071 0.272685 0.702781 -171.248079
DOCKED: USER    NEWDPF dihe0 -153.16 162.98 -17.18 23.61 101.25 -160.59 84.21 -138.77 96.63 126.34 90.35 -143.48 2.99 -158.41 63.88 124.03 43.05 116.27 -78.07 -59.48 35.38 -169.85 177.38 -14.30 
DOCKED: USER  keepresnum = 1 
DOCKED: USER  
DOCKED: REMARK  24 active torsions:
DOCKED: REMARK  status: ('A' for Active; 'I' for Inactive)
DOCKED: REMARK    1  A    between atoms: C_1  and  O_7 
DOCKED: REMARK    2  A    between atoms: C_2  and  O_12 
DOCKED: REMARK    3  A    between atoms: C_3  and  O_17 
DOCKED: REMARK    4  A    between atoms: C_4  and  O_22 
DOCKED: REMARK    5  A    between atoms: C_5  and  O_27 
DOCKED: REMARK    6  A    between atoms: C_6  and  O_32 
DOCKED: REMARK    7  A    between atoms: O_7  and  P_8 
DOCKED: REMARK    8  A    between atoms: P_8  and  O_10 
DOCKED: REMARK    9  A    between atoms: P_8  and  O_11 
DOCKED: REMARK   10  A    between atoms: O_12  and  P_13 
DOCKED: REMARK   11  A    between atoms: P_13  and  O_15 
DOCKED: REMARK   12  A    between atoms: P_13  and  O_16 
DOCKED: REMARK   13  A    between atoms: O_17  and  P_18 
DOCKED: REMARK   14  A    between atoms: P_18  and  O_20 
DOCKED: REMARK   15  A    between atoms: P_18  and  O_21 
DOCKED: REMARK   16  A    between atoms: O_22  and  P_23 
DOCKED: REMARK   17  A    between atoms: P_23  and  O_25 
DOCKED: REMARK   18  A    between atoms: P_23  and  O_26 
DOCKED: REMARK   19  A    between atoms: O_27  and  P_28 
DOCKED: REMARK   20  A    between atoms: P_28  and  O_30 
DOCKED: REMARK   21  A    between atoms: P_28  and  O_31 
DOCKED: REMARK   22  A    between atoms: O_32  and  P_33 
DOCKED: REMARK   23  A    between atoms: P_33  and  O_35 
DOCKED: REMARK   24  A    between atoms: P_33  and  O_36 
DOCKED: USER                              x       y       z     vdW  Elec       q    Type
DOCKED: USER                           _______ _______ _______ _____ _____    ______ ____
DOCKED: ROOT
DOCKED: ATOM      1  C   UNL d   1       7.304 -12.231  -4.377 +0.25 +0.06    +0.194 C 
DOCKED: ATOM      2  C   UNL d   1       8.162 -11.422  -3.403 -0.09 +0.03    +0.194 C 
DOCKED: ATOM      3  C   UNL d   1       7.695 -11.597  -1.956 -0.21 +0.03    +0.194 C 
DOCKED: ATOM      4  C   UNL d   1       7.570 -13.060  -1.537 -0.17 +0.03    +0.194 C 
DOCKED: ATOM      5  C   UNL d   1       6.819 -13.930  -2.537 -0.15 +0.04    +0.194 C 
DOCKED: ATOM      6  C   UNL d   1       7.244 -13.710  -3.991 -0.10 +0.05    +0.194 C 
DOCKED: ENDROOT
DOCKED: BRANCH   1   7
DOCKED: ATOM      7  O   UNL d   1       7.905 -12.153  -5.672 -0.02 -0.05    -0.278 OA
DOCKED: BRANCH   7   8
DOCKED: ATOM      8  P   UNL d   1       7.533 -13.272  -6.750 -0.03 +0.07    +0.473 P 
DOCKED: ATOM      9  O   UNL d   1       6.077 -13.440  -7.009 -0.06 -0.06    -0.228 OA
DOCKED: BRANCH   8  10
DOCKED: ATOM     10  O   UNL d   1       8.357 -12.847  -8.048 -0.02 -0.01    -0.303 OA
DOCKED: ATOM     11  H   UNL d   1       9.284 -12.668  -7.803 +0.01 +0.00    +0.222 HD
DOCKED: ENDBRANCH   8  10
DOCKED: BRANCH   8  12
DOCKED: ATOM     12  O   UNL d   1       8.309 -14.575  -6.276 +0.00 -0.04    -0.303 OA
DOCKED: ATOM     13  H   UNL d   1       7.708 -15.320  -6.049 +0.02 +0.04    +0.222 HD
DOCKED: ENDBRANCH   8  12
DOCKED: ENDBRANCH   7   8
DOCKED: ENDBRANCH   1   7
DOCKED: BRANCH   2  14
DOCKED: ATOM     14  O   UNL d   1       9.522 -11.864  -3.500 -0.04 -0.03    -0.278 OA
DOCKED: BRANCH  14  15
DOCKED: ATOM     15  P   UNL d   1      10.315 -11.452  -4.829 -0.03 +0.03    +0.473 P 
DOCKED: ATOM     16  O   UNL d   1      10.492 -12.518  -5.864 -0.01 -0.01    -0.228 OA
DOCKED: BRANCH  15  17
DOCKED: ATOM     17  O   UNL d   1       9.519 -10.185  -5.378 -0.54 -0.05    -0.303 OA
DOCKED: ATOM     18  H   UNL d   1       9.076 -10.388  -6.224 +0.02 +0.03    +0.222 HD
DOCKED: ENDBRANCH  15  17
DOCKED: BRANCH  15  19
DOCKED: ATOM     19  O   UNL d   1      11.656 -10.781  -4.299 -0.01 -0.01    -0.303 OA
DOCKED: ATOM     20  H   UNL d   1      11.504 -10.267  -3.484 +0.02 +0.01    +0.222 HD
DOCKED: ENDBRANCH  15  19
DOCKED: ENDBRANCH  14  15
DOCKED: ENDBRANCH   2  14
DOCKED: BRANCH   6  21
DOCKED: ATOM     21  O   UNL d   1       6.245 -14.315  -4.808 -0.10 -0.14    -0.278 OA
DOCKED: BRANCH  21  22
DOCKED: ATOM     22  P   UNL d   1       6.065 -15.901  -4.796 -0.08 +0.28    +0.473 P 
DOCKED: ATOM     23  O   UNL d   1       5.052 -16.488  -3.872 -0.62 -0.27    -0.228 OA
DOCKED: BRANCH  22  24
DOCKED: ATOM     24  O   UNL d   1       5.823 -16.213  -6.337 -0.04 -0.14    -0.303 OA
DOCKED: ATOM     25  H   UNL d   1       6.374 -15.584  -6.869 +0.03 +0.07    +0.222 HD
DOCKED: ENDBRANCH  22  24
DOCKED: BRANCH  22  26
DOCKED: ATOM     26  O   UNL d   1       7.575 -16.398  -4.590 -0.03 -0.07    -0.303 OA
DOCKED: ATOM     27  H   UNL d   1       8.087 -15.694  -4.141 +0.04 +0.04    +0.222 HD
DOCKED: ENDBRANCH  22  26
DOCKED: ENDBRANCH  21  22
DOCKED: ENDBRANCH   6  21
DOCKED: BRANCH   3  28
DOCKED: ATOM     28  O   UNL d   1       8.699 -11.047  -1.113 -0.13 -0.03    -0.278 OA
DOCKED: BRANCH  28  29
DOCKED: ATOM     29  P   UNL d   1      10.186 -11.617  -1.155 -0.02 +0.04    +0.473 P 
DOCKED: ATOM     30  O   UNL d   1      11.145 -10.842  -1.983 -0.02 -0.01    -0.228 OA
DOCKED: BRANCH  29  31
DOCKED: ATOM     31  O   UNL d   1      10.492 -11.714   0.413 -0.08 -0.04    -0.303 OA
DOCKED: ATOM     32  H   UNL d   1      10.932 -12.576   0.594 +0.05 +0.03    +0.222 HD
DOCKED: ENDBRANCH  29  31
DOCKED: BRANCH  29  33
DOCKED: ATOM     33  O   UNL d   1       9.949 -13.138  -1.562 -0.01 -0.03    -0.303 OA
DOCKED: ATOM     34  H   UNL d   1       9.674 -13.646  -0.759 +0.07 +0.03    +0.222 HD
DOCKED: ENDBRANCH  29  33
DOCKED: ENDBRANCH  28  29
DOCKED: ENDBRANCH   3  28
DOCKED: BRANCH   5  35
DOCKED: ATOM     35  O   UNL d   1       7.149 -15.277  -2.203 -0.16 -0.05    -0.278 OA
DOCKED: BRANCH  35  36
DOCKED: ATOM     36  P   UNL d   1       8.675 -15.718  -2.054 -0.06 +0.07    +0.473 P 
DOCKED: ATOM     37  O   UNL d   1       9.273 -15.524  -0.697 -0.10 -0.03    -0.228 OA
DOCKED: BRANCH  36  38
DOCKED: ATOM     38  O   UNL d   1       8.624 -17.235  -2.536 -0.08 -0.04    -0.303 OA
DOCKED: ATOM     39  H   UNL d   1       7.870 -17.351  -3.154 +0.04 +0.04    +0.222 HD
DOCKED: ENDBRANCH  36  38
DOCKED: BRANCH  36  40
DOCKED: ATOM     40  O   UNL d   1       9.369 -14.956  -3.265 -0.01 -0.03    -0.303 OA
DOCKED: ATOM     41  H   UNL d   1       9.608 -14.033  -3.026 +0.04 +0.02    +0.222 HD
DOCKED: ENDBRANCH  36  40
DOCKED: ENDBRANCH  35  36
DOCKED: ENDBRANCH   5  35
DOCKED: BRANCH   4  42
DOCKED: ATOM     42  O   UNL d   1       6.822 -13.079  -0.317 -0.35 -0.07    -0.278 OA
DOCKED: BRANCH  42  43
DOCKED: ATOM     43  P   UNL d   1       7.444 -13.809   0.958 -0.17 +0.17    +0.473 P 
DOCKED: ATOM     44  O   UNL d   1       6.867 -13.475   2.290 -0.61 -0.07    -0.228 OA
DOCKED: BRANCH  43  45
DOCKED: ATOM     45  O   UNL d   1       7.334 -15.348   0.568 -0.69 -0.15    -0.303 OA
DOCKED: ATOM     46  H   UNL d   1       7.193 -15.464  -0.393 +0.05 +0.07    +0.222 HD
DOCKED: ENDBRANCH  43  45
DOCKED: BRANCH  43  47
DOCKED: ATOM     47  O   UNL d   1       9.017 -13.545   0.799 -0.14 -0.07    -0.303 OA
DOCKED: ATOM     48  H   UNL d   1       9.158 -12.655   0.415 +0.10 +0.04    +0.222 HD
DOCKED: ENDBRANCH  43  47
DOCKED: ENDBRANCH  42  43
DOCKED: ENDBRANCH   4  42
DOCKED: TORSDOF 24
DOCKED: TER
DOCKED: ENDMDL
________________________________________________________________________________


	BEGINNING GENETIC ALGORITHM DOCKING 85 of 100
Run: 85 Seed: 1435465452 1146332776 [ Run 85 of 100 GA/GALS ]
Beginning LAMARCKIAN GENETIC ALGORITHM (LGA), with a maximum of 25000000 energy evaluations.

Final-Value: -19.294


	FINAL GENETIC ALGORITHM DOCKED STATE
	_______________________________________________


Detailed state:  trans -7.493 3.511 -21.528 quatxyzw -0.078787 -0.288261 0.625341 0.720865 center 0.035 0.082 -0.065 ntor 24 -135.6968 -22.7197 173.5505 -10.8643 11.0755 151.8397 -30.1173 -167.6843 109.0923 136.0110 15.7215 143.9166 51.6117 173.3623 -178.3593 -56.0163 108.4603 176.5418 -14.4583 16.2584 -22.5540 10.4569 165.6775 -10.6640
State:	 -7.493   3.511 -21.528  -0.114 -0.416  0.902 87.748   -135.70  -22.72  173.55  -10.86   11.08  151.84  -30.12 -167.68  109.09  136.01   15.72  143.92   51.61  173.36 -178.36  -56.02  108.46  176.54  -14.46   16.26  -22.55   10.46  165.68  -10.66

DOCKED: MODEL       85
DOCKED: USER    Run = 85
DOCKED: USER    DPF = D:/Protein_go_brrr/autodock/final/mut_K82N/IHP/dock.dpf
DOCKED: USER  
DOCKED: USER    Estimated Free Energy of Binding    =   +3.35 kcal/mol  [=(1)+(2)+(3)-(4)]
DOCKED: USER    
DOCKED: USER    (1) Final Intermolecular Energy     =   -3.81 kcal/mol
DOCKED: USER        vdW + Hbond + desolv Energy     =   -3.73 kcal/mol
DOCKED: USER        Electrostatic Energy            =   -0.09 kcal/mol
DOCKED: USER    (2) Final Total Internal Energy     =  -15.48 kcal/mol
DOCKED: USER    (3) Torsional Free Energy           =   +7.16 kcal/mol
DOCKED: USER    (4) Unbound System's Energy  [=(2)] =  -15.48 kcal/mol
DOCKED: USER    
DOCKED: USER    
DOCKED: USER    NEWDPF move IHP_ideal_opt.pdbqt
DOCKED: USER    NEWDPF about 0.035000 0.082000 -0.065000
DOCKED: USER    NEWDPF tran0 -7.493480 3.510853 -21.528059
DOCKED: USER    NEWDPF quaternion0 -0.078787 -0.288261 0.625341 0.720865
DOCKED: USER    NEWDPF axisangle0 -0.113677 -0.415916 0.902270 87.748040
DOCKED: USER    NEWDPF quat0 -0.113677 -0.415916 0.902270 87.748040
DOCKED: USER    NEWDPF dihe0 -135.70 -22.72 173.55 -10.86 11.08 151.84 -30.12 -167.68 109.09 136.01 15.72 143.92 51.61 173.36 -178.36 -56.02 108.46 176.54 -14.46 16.26 -22.55 10.46 165.68 -10.66 
DOCKED: USER  keepresnum = 1 
DOCKED: USER  
DOCKED: REMARK  24 active torsions:
DOCKED: REMARK  status: ('A' for Active; 'I' for Inactive)
DOCKED: REMARK    1  A    between atoms: C_1  and  O_7 
DOCKED: REMARK    2  A    between atoms: C_2  and  O_12 
DOCKED: REMARK    3  A    between atoms: C_3  and  O_17 
DOCKED: REMARK    4  A    between atoms: C_4  and  O_22 
DOCKED: REMARK    5  A    between atoms: C_5  and  O_27 
DOCKED: REMARK    6  A    between atoms: C_6  and  O_32 
DOCKED: REMARK    7  A    between atoms: O_7  and  P_8 
DOCKED: REMARK    8  A    between atoms: P_8  and  O_10 
DOCKED: REMARK    9  A    between atoms: P_8  and  O_11 
DOCKED: REMARK   10  A    between atoms: O_12  and  P_13 
DOCKED: REMARK   11  A    between atoms: P_13  and  O_15 
DOCKED: REMARK   12  A    between atoms: P_13  and  O_16 
DOCKED: REMARK   13  A    between atoms: O_17  and  P_18 
DOCKED: REMARK   14  A    between atoms: P_18  and  O_20 
DOCKED: REMARK   15  A    between atoms: P_18  and  O_21 
DOCKED: REMARK   16  A    between atoms: O_22  and  P_23 
DOCKED: REMARK   17  A    between atoms: P_23  and  O_25 
DOCKED: REMARK   18  A    between atoms: P_23  and  O_26 
DOCKED: REMARK   19  A    between atoms: O_27  and  P_28 
DOCKED: REMARK   20  A    between atoms: P_28  and  O_30 
DOCKED: REMARK   21  A    between atoms: P_28  and  O_31 
DOCKED: REMARK   22  A    between atoms: O_32  and  P_33 
DOCKED: REMARK   23  A    between atoms: P_33  and  O_35 
DOCKED: REMARK   24  A    between atoms: P_33  and  O_36 
DOCKED: USER                              x       y       z     vdW  Elec       q    Type
DOCKED: USER                           _______ _______ _______ _____ _____    ______ ____
DOCKED: ROOT
DOCKED: ATOM      1  C   UNL d   1      -8.019   1.881 -21.303 -0.14 -0.04    +0.194 C 
DOCKED: ATOM      2  C   UNL d   1      -8.962   2.959 -20.766 -0.19 +0.00    +0.194 C 
DOCKED: ATOM      3  C   UNL d   1      -8.199   4.067 -20.037 -0.21 -0.01    +0.194 C 
DOCKED: ATOM      4  C   UNL d   1      -7.059   4.656 -20.863 -0.22 -0.03    +0.194 C 
DOCKED: ATOM      5  C   UNL d   1      -6.159   3.613 -21.513 -0.13 -0.04    +0.194 C 
DOCKED: ATOM      6  C   UNL d   1      -6.922   2.472 -22.190 -0.16 -0.05    +0.194 C 
DOCKED: ENDROOT
DOCKED: BRANCH   1   7
DOCKED: ATOM      7  O   UNL d   1      -8.783   0.983 -22.112 -0.08 +0.03    -0.278 OA
DOCKED: BRANCH   7   8
DOCKED: ATOM      8  P   UNL d   1      -8.521  -0.586 -21.960 -0.09 -0.10    +0.473 P 
DOCKED: ATOM      9  O   UNL d   1      -9.550  -1.324 -21.179 -0.11 +0.03    -0.228 OA
DOCKED: BRANCH   8  10
DOCKED: ATOM     10  O   UNL d   1      -8.383  -1.102 -23.463 -0.02 +0.06    -0.303 OA
DOCKED: ATOM     11  H   UNL d   1      -7.579  -0.725 -23.866 +0.03 -0.05    +0.222 HD
DOCKED: ENDBRANCH   8  10
DOCKED: BRANCH   8  12
DOCKED: ATOM     12  O   UNL d   1      -7.028  -0.706 -21.429 -0.13 +0.14    -0.303 OA
DOCKED: ATOM     13  H   UNL d   1      -6.359  -0.426 -22.093 -0.05 -0.10    +0.222 HD
DOCKED: ENDBRANCH   8  12
DOCKED: ENDBRANCH   7   8
DOCKED: ENDBRANCH   1   7
DOCKED: BRANCH   2  14
DOCKED: ATOM     14  O   UNL d   1      -9.676   3.543 -21.863 -0.04 -0.00    -0.278 OA
DOCKED: BRANCH  14  15
DOCKED: ATOM     15  P   UNL d   1     -11.166   4.046 -21.559 -0.02 +0.04    +0.473 P 
DOCKED: ATOM     16  O   UNL d   1     -12.230   3.613 -22.518 -0.01 -0.02    -0.228 OA
DOCKED: BRANCH  15  17
DOCKED: ATOM     17  O   UNL d   1     -11.443   3.560 -20.068 -0.09 -0.10    -0.303 OA
DOCKED: ATOM     18  H   UNL d   1     -11.004   4.145 -19.420 +0.04 +0.07    +0.222 HD
DOCKED: ENDBRANCH  15  17
DOCKED: BRANCH  15  19
DOCKED: ATOM     19  O   UNL d   1     -11.020   5.618 -21.361 -0.01 -0.01    -0.303 OA
DOCKED: ATOM     20  H   UNL d   1     -10.560   5.836 -20.530 +0.03 +0.01    +0.222 HD
DOCKED: ENDBRANCH  15  19
DOCKED: ENDBRANCH  14  15
DOCKED: ENDBRANCH   2  14
DOCKED: BRANCH   6  21
DOCKED: ATOM     21  O   UNL d   1      -5.977   1.433 -22.436 -0.13 +0.11    -0.278 OA
DOCKED: BRANCH  21  22
DOCKED: ATOM     22  P   UNL d   1      -5.795   0.863 -23.915 -0.05 -0.11    +0.473 P 
DOCKED: ATOM     23  O   UNL d   1      -5.424  -0.573 -24.076 -0.04 +0.06    -0.228 OA
DOCKED: BRANCH  22  24
DOCKED: ATOM     24  O   UNL d   1      -7.172   1.277 -24.596 -0.01 +0.05    -0.303 OA
DOCKED: ATOM     25  H   UNL d   1      -7.910   0.913 -24.044 +0.03 -0.03    +0.222 HD
DOCKED: ENDBRANCH  22  24
DOCKED: BRANCH  22  26
DOCKED: ATOM     26  O   UNL d   1      -4.778   1.927 -24.550 -0.04 +0.06    -0.303 OA
DOCKED: ATOM     27  H   UNL d   1      -4.832   2.765 -24.046 +0.03 -0.04    +0.222 HD
DOCKED: ENDBRANCH  22  26
DOCKED: ENDBRANCH  21  22
DOCKED: ENDBRANCH   6  21
DOCKED: BRANCH   3  28
DOCKED: ATOM     28  O   UNL d   1      -9.105   5.141 -19.823 -0.11 -0.01    -0.278 OA
DOCKED: BRANCH  28  29
DOCKED: ATOM     29  P   UNL d   1      -9.414   5.651 -18.346 -0.12 +0.03    +0.473 P 
DOCKED: ATOM     30  O   UNL d   1     -10.425   4.863 -17.595 -0.17 -0.07    -0.228 OA
DOCKED: BRANCH  29  31
DOCKED: ATOM     31  O   UNL d   1      -7.930   5.687 -17.747 -0.14 +0.05    -0.303 OA
DOCKED: ATOM     32  H   UNL d   1      -7.291   5.740 -18.495 -0.35 -0.08    +0.222 HD
DOCKED: ENDBRANCH  29  31
DOCKED: BRANCH  29  33
DOCKED: ATOM     33  O   UNL d   1      -9.734   7.192 -18.584 -0.03 -0.00    -0.303 OA
DOCKED: ATOM     34  H   UNL d   1      -8.988   7.734 -18.229 +0.04 -0.01    +0.222 HD
DOCKED: ENDBRANCH  29  33
DOCKED: ENDBRANCH  28  29
DOCKED: ENDBRANCH   3  28
DOCKED: BRANCH   5  35
DOCKED: ATOM     35  O   UNL d   1      -5.442   4.303 -22.535 -0.67 +0.01    -0.278 OA
DOCKED: BRANCH  35  36
DOCKED: ATOM     36  P   UNL d   1      -6.220   4.941 -23.773 -0.02 -0.05    +0.473 P 
DOCKED: ATOM     37  O   UNL d   1      -5.556   6.118 -24.414 -0.01 +0.02    -0.228 OA
DOCKED: BRANCH  36  38
DOCKED: ATOM     38  O   UNL d   1      -6.391   3.683 -24.734 -0.01 +0.03    -0.303 OA
DOCKED: ATOM     39  H   UNL d   1      -6.593   2.890 -24.192 +0.03 -0.03    +0.222 HD
DOCKED: ENDBRANCH  36  38
DOCKED: BRANCH  36  40
DOCKED: ATOM     40  O   UNL d   1      -7.677   5.169 -23.178 -0.01 +0.03    -0.303 OA
DOCKED: ATOM     41  H   UNL d   1      -7.788   6.080 -22.826 +0.02 -0.02    +0.222 HD
DOCKED: ENDBRANCH  36  40
DOCKED: ENDBRANCH  35  36
DOCKED: ENDBRANCH   5  35
DOCKED: BRANCH   4  42
DOCKED: ATOM     42  O   UNL d   1      -6.243   5.414 -19.963 -0.20 +0.09    -0.278 OA
DOCKED: BRANCH  42  43
DOCKED: ATOM     43  P   UNL d   1      -6.013   6.966 -20.251 -0.08 -0.10    +0.473 P 
DOCKED: ATOM     44  O   UNL d   1      -4.636   7.503 -20.060 -0.10 +0.05    -0.228 OA
DOCKED: BRANCH  43  45
DOCKED: ATOM     45  O   UNL d   1      -6.579   7.134 -21.728 -0.02 +0.04    -0.303 OA
DOCKED: ATOM     46  H   UNL d   1      -6.123   6.539 -22.356 +0.03 -0.02    +0.222 HD
DOCKED: ENDBRANCH  43  45
DOCKED: BRANCH  43  47
DOCKED: ATOM     47  O   UNL d   1      -7.158   7.673 -19.380 -0.05 +0.05    -0.303 OA
DOCKED: ATOM     48  H   UNL d   1      -7.970   7.126 -19.410 +0.04 -0.02    +0.222 HD
DOCKED: ENDBRANCH  43  47
DOCKED: ENDBRANCH  42  43
DOCKED: ENDBRANCH   4  42
DOCKED: TORSDOF 24
DOCKED: TER
DOCKED: ENDMDL
________________________________________________________________________________


	BEGINNING GENETIC ALGORITHM DOCKING 86 of 100
Run: 86 Seed: 2076648293 965450824 [ Run 86 of 100 GA/GALS ]
Beginning LAMARCKIAN GENETIC ALGORITHM (LGA), with a maximum of 25000000 energy evaluations.

Final-Value: -19.955


	FINAL GENETIC ALGORITHM DOCKED STATE
	_______________________________________________


Detailed state:  trans -9.906 -0.384 11.694 quatxyzw 0.356726 0.489292 0.717760 -0.343744 center 0.035 0.082 -0.065 ntor 24 131.7643 98.1146 72.0372 71.8503 26.4936 -138.2721 -147.8959 31.5973 126.8576 18.1820 136.0387 128.5894 180.0000 128.2452 -35.1373 42.6464 47.0007 68.0864 7.3686 -12.6673 168.2247 165.2330 -4.4343 -26.7832
State:	 -9.906  -0.384  11.694   0.380  0.521  0.764 -139.790    131.76   98.11   72.04   71.85   26.49 -138.27 -147.90   31.60  126.86   18.18  136.04  128.59  180.00  128.25  -35.14   42.65   47.00   68.09    7.37  -12.67  168.22  165.23   -4.43  -26.78

DOCKED: MODEL       86
DOCKED: USER    Run = 86
DOCKED: USER    DPF = D:/Protein_go_brrr/autodock/final/mut_K82N/IHP/dock.dpf
DOCKED: USER  
DOCKED: USER    Estimated Free Energy of Binding    =   +2.42 kcal/mol  [=(1)+(2)+(3)-(4)]
DOCKED: USER    
DOCKED: USER    (1) Final Intermolecular Energy     =   -4.74 kcal/mol
DOCKED: USER        vdW + Hbond + desolv Energy     =   -4.67 kcal/mol
DOCKED: USER        Electrostatic Energy            =   -0.07 kcal/mol
DOCKED: USER    (2) Final Total Internal Energy     =  -15.21 kcal/mol
DOCKED: USER    (3) Torsional Free Energy           =   +7.16 kcal/mol
DOCKED: USER    (4) Unbound System's Energy  [=(2)] =  -15.21 kcal/mol
DOCKED: USER    
DOCKED: USER    
DOCKED: USER    NEWDPF move IHP_ideal_opt.pdbqt
DOCKED: USER    NEWDPF about 0.035000 0.082000 -0.065000
DOCKED: USER    NEWDPF tran0 -9.905894 -0.383524 11.693562
DOCKED: USER    NEWDPF quaternion0 0.356726 0.489292 0.717760 -0.343744
DOCKED: USER    NEWDPF axisangle0 0.379875 0.521043 0.764336 -139.789664
DOCKED: USER    NEWDPF quat0 0.379875 0.521043 0.764336 -139.789664
DOCKED: USER    NEWDPF dihe0 131.76 98.11 72.04 71.85 26.49 -138.27 -147.90 31.60 126.86 18.18 136.04 128.59 180.00 128.25 -35.14 42.65 47.00 68.09 7.37 -12.67 168.22 165.23 -4.43 -26.78 
DOCKED: USER  keepresnum = 1 
DOCKED: USER  
DOCKED: REMARK  24 active torsions:
DOCKED: REMARK  status: ('A' for Active; 'I' for Inactive)
DOCKED: REMARK    1  A    between atoms: C_1  and  O_7 
DOCKED: REMARK    2  A    between atoms: C_2  and  O_12 
DOCKED: REMARK    3  A    between atoms: C_3  and  O_17 
DOCKED: REMARK    4  A    between atoms: C_4  and  O_22 
DOCKED: REMARK    5  A    between atoms: C_5  and  O_27 
DOCKED: REMARK    6  A    between atoms: C_6  and  O_32 
DOCKED: REMARK    7  A    between atoms: O_7  and  P_8 
DOCKED: REMARK    8  A    between atoms: P_8  and  O_10 
DOCKED: REMARK    9  A    between atoms: P_8  and  O_11 
DOCKED: REMARK   10  A    between atoms: O_12  and  P_13 
DOCKED: REMARK   11  A    between atoms: P_13  and  O_15 
DOCKED: REMARK   12  A    between atoms: P_13  and  O_16 
DOCKED: REMARK   13  A    between atoms: O_17  and  P_18 
DOCKED: REMARK   14  A    between atoms: P_18  and  O_20 
DOCKED: REMARK   15  A    between atoms: P_18  and  O_21 
DOCKED: REMARK   16  A    between atoms: O_22  and  P_23 
DOCKED: REMARK   17  A    between atoms: P_23  and  O_25 
DOCKED: REMARK   18  A    between atoms: P_23  and  O_26 
DOCKED: REMARK   19  A    between atoms: O_27  and  P_28 
DOCKED: REMARK   20  A    between atoms: P_28  and  O_30 
DOCKED: REMARK   21  A    between atoms: P_28  and  O_31 
DOCKED: REMARK   22  A    between atoms: O_32  and  P_33 
DOCKED: REMARK   23  A    between atoms: P_33  and  O_35 
DOCKED: REMARK   24  A    between atoms: P_33  and  O_36 
DOCKED: USER                              x       y       z     vdW  Elec       q    Type
DOCKED: USER                           _______ _______ _______ _____ _____    ______ ____
DOCKED: ROOT
DOCKED: ATOM      1  C   UNL d   1      -9.745   1.287  11.283 -0.17 -0.04    +0.194 C 
DOCKED: ATOM      2  C   UNL d   1      -9.306   0.296  10.204 -0.03 -0.03    +0.194 C 
DOCKED: ATOM      3  C   UNL d   1      -8.495  -0.861  10.792 -0.23 -0.05    +0.194 C 
DOCKED: ATOM      4  C   UNL d   1      -9.194  -1.552  11.960 -0.14 -0.04    +0.194 C 
DOCKED: ATOM      5  C   UNL d   1      -9.749  -0.593  13.006 -0.09 -0.04    +0.194 C 
DOCKED: ATOM      6  C   UNL d   1     -10.508   0.597  12.415 -0.06 -0.03    +0.194 C 
DOCKED: ENDROOT
DOCKED: BRANCH   1   7
DOCKED: ATOM      7  O   UNL d   1     -10.633   2.233  10.685 -0.10 +0.05    -0.278 OA
DOCKED: BRANCH   7   8
DOCKED: ATOM      8  P   UNL d   1     -10.175   3.762  10.609 -0.25 -0.14    +0.473 P 
DOCKED: ATOM      9  O   UNL d   1     -11.158   4.743  11.145 -0.15 +0.08    -0.228 OA
DOCKED: BRANCH   8  10
DOCKED: ATOM     10  O   UNL d   1      -8.779   3.786  11.380 -0.57 +0.03    -0.303 OA
DOCKED: ATOM     11  H   UNL d   1      -8.749   3.055  12.025 +0.05 -0.03    +0.222 HD
DOCKED: ENDBRANCH   8  10
DOCKED: BRANCH   8  12
DOCKED: ATOM     12  O   UNL d   1      -9.726   3.983   9.101 -0.40 +0.19    -0.303 OA
DOCKED: ATOM     13  H   UNL d   1     -10.412   3.710   8.450 -0.10 -0.16    +0.222 HD
DOCKED: ENDBRANCH   8  12
DOCKED: ENDBRANCH   7   8
DOCKED: ENDBRANCH   1   7
DOCKED: BRANCH   2  14
DOCKED: ATOM     14  O   UNL d   1     -10.470  -0.242   9.563 -0.07 +0.04    -0.278 OA
DOCKED: BRANCH  14  15
DOCKED: ATOM     15  P   UNL d   1     -10.614   0.034   7.992 -0.06 -0.05    +0.473 P 
DOCKED: ATOM     16  O   UNL d   1     -11.869  -0.451   7.337 -0.04 +0.03    -0.228 OA
DOCKED: BRANCH  15  17
DOCKED: ATOM     17  O   UNL d   1     -10.415   1.609   7.856 -0.11 +0.04    -0.303 OA
DOCKED: ATOM     18  H   UNL d   1     -10.629   2.064   8.693 +0.08 -0.04    +0.222 HD
DOCKED: ENDBRANCH  15  17
DOCKED: BRANCH  15  19
DOCKED: ATOM     19  O   UNL d   1      -9.258  -0.514   7.367 -0.70 -0.01    -0.303 OA
DOCKED: ATOM     20  H   UNL d   1      -8.754  -1.046   8.010 +0.12 +0.01    +0.222 HD
DOCKED: ENDBRANCH  15  19
DOCKED: ENDBRANCH  14  15
DOCKED: ENDBRANCH   2  14
DOCKED: BRANCH   6  21
DOCKED: ATOM     21  O   UNL d   1     -10.656   1.552  13.462 -0.02 +0.05    -0.278 OA
DOCKED: BRANCH  21  22
DOCKED: ATOM     22  P   UNL d   1      -9.367   2.272  14.067 -0.09 -0.10    +0.473 P 
DOCKED: ATOM     23  O   UNL d   1      -8.025   1.833  13.587 -0.20 +0.09    -0.228 OA
DOCKED: BRANCH  22  24
DOCKED: ATOM     24  O   UNL d   1      -9.699   3.807  13.808 -0.09 +0.05    -0.303 OA
DOCKED: ATOM     25  H   UNL d   1     -10.125   3.884  12.917 +0.07 -0.04    +0.222 HD
DOCKED: ENDBRANCH  22  24
DOCKED: BRANCH  22  26
DOCKED: ATOM     26  O   UNL d   1      -9.628   2.137  15.643 -0.02 +0.05    -0.303 OA
DOCKED: ATOM     27  H   UNL d   1      -9.885   1.215  15.849 +0.04 -0.04    +0.222 HD
DOCKED: ENDBRANCH  22  26
DOCKED: ENDBRANCH  21  22
DOCKED: ENDBRANCH   6  21
DOCKED: BRANCH   3  28
DOCKED: ATOM     28  O   UNL d   1      -8.374  -1.856   9.783 -0.20 +0.05    -0.278 OA
DOCKED: BRANCH  28  29
DOCKED: ATOM     29  P   UNL d   1      -9.535  -2.924   9.564 -0.07 -0.06    +0.473 P 
DOCKED: ATOM     30  O   UNL d   1     -10.845  -2.582  10.174 -0.02 +0.03    -0.228 OA
DOCKED: BRANCH  29  31
DOCKED: ATOM     31  O   UNL d   1      -9.490  -3.062   7.970 -0.14 +0.02    -0.303 OA
DOCKED: ATOM     32  H   UNL d   1     -10.176  -2.469   7.584 +0.08 -0.02    +0.222 HD
DOCKED: ENDBRANCH  29  31
DOCKED: BRANCH  29  33
DOCKED: ATOM     33  O   UNL d   1      -8.844  -4.273  10.052 -0.09 +0.04    -0.303 OA
DOCKED: ATOM     34  H   UNL d   1      -9.022  -4.394  11.017 +0.07 -0.03    +0.222 HD
DOCKED: ENDBRANCH  29  33
DOCKED: ENDBRANCH  28  29
DOCKED: ENDBRANCH   3  28
DOCKED: BRANCH   5  35
DOCKED: ATOM     35  O   UNL d   1     -10.687  -1.352  13.768 -0.02 +0.05    -0.278 OA
DOCKED: BRANCH  35  36
DOCKED: ATOM     36  P   UNL d   1     -10.562  -1.423  15.356 -0.03 -0.08    +0.473 P 
DOCKED: ATOM     37  O   UNL d   1     -11.329  -0.383  16.110 -0.01 +0.03    -0.228 OA
DOCKED: BRANCH  36  38
DOCKED: ATOM     38  O   UNL d   1     -11.023  -2.919  15.653 -0.01 +0.04    -0.303 OA
DOCKED: ATOM     39  H   UNL d   1     -10.452  -3.537  15.147 +0.02 -0.03    +0.222 HD
DOCKED: ENDBRANCH  36  38
DOCKED: BRANCH  36  40
DOCKED: ATOM     40  O   UNL d   1      -8.987  -1.458  15.573 +0.02 +0.12    -0.303 OA
DOCKED: ATOM     41  H   UNL d   1      -8.517  -1.794  14.778 -0.37 -0.12    +0.222 HD
DOCKED: ENDBRANCH  36  40
DOCKED: ENDBRANCH  35  36
DOCKED: ENDBRANCH   5  35
DOCKED: BRANCH   4  42
DOCKED: ATOM     42  O   UNL d   1      -8.210  -2.362  12.612 -0.21 +0.07    -0.278 OA
DOCKED: BRANCH  42  43
DOCKED: ATOM     43  P   UNL d   1      -8.612  -3.829  13.091 -0.01 -0.07    +0.473 P 
DOCKED: ATOM     44  O   UNL d   1      -7.947  -4.978  12.415 -0.18 +0.02    -0.228 OA
DOCKED: BRANCH  43  45
DOCKED: ATOM     45  O   UNL d   1      -8.362  -3.764  14.661 -0.01 +0.06    -0.303 OA
DOCKED: ATOM     46  H   UNL d   1      -8.949  -3.110  15.091 -0.15 -0.06    +0.222 HD
DOCKED: ENDBRANCH  43  45
DOCKED: BRANCH  43  47
DOCKED: ATOM     47  O   UNL d   1     -10.213  -3.813  13.015 -0.02 +0.04    -0.303 OA
DOCKED: ATOM     48  H   UNL d   1     -10.552  -3.041  13.513 +0.03 -0.03    +0.222 HD
DOCKED: ENDBRANCH  43  47
DOCKED: ENDBRANCH  42  43
DOCKED: ENDBRANCH   4  42
DOCKED: TORSDOF 24
DOCKED: TER
DOCKED: ENDMDL
________________________________________________________________________________


	BEGINNING GENETIC ALGORITHM DOCKING 87 of 100
Run: 87 Seed: 932385001 942486099 [ Run 87 of 100 GA/GALS ]
Beginning LAMARCKIAN GENETIC ALGORITHM (LGA), with a maximum of 25000000 energy evaluations.

Final-Value: -19.513


	FINAL GENETIC ALGORITHM DOCKED STATE
	_______________________________________________


Detailed state:  trans -10.584 11.086 -6.686 quatxyzw -0.337075 -0.444892 -0.644231 0.522894 center 0.035 0.082 -0.065 ntor 24 77.3761 146.2168 125.3349 132.9659 180.0000 128.4294 -42.4463 -158.2830 153.7191 -39.5035 20.7859 157.3533 -76.3853 81.5771 -152.0790 140.1406 68.4600 175.5542 -145.7543 -10.5866 18.2345 -26.1723 -28.5931 -13.3999
State:	-10.584  11.086  -6.686  -0.395 -0.522 -0.756 116.947     77.38  146.22  125.33  132.97  180.00  128.43  -42.45 -158.28  153.72  -39.50   20.79  157.35  -76.39   81.58 -152.08  140.14   68.46  175.55 -145.75  -10.59   18.23  -26.17  -28.59  -13.40

DOCKED: MODEL       87
DOCKED: USER    Run = 87
DOCKED: USER    DPF = D:/Protein_go_brrr/autodock/final/mut_K82N/IHP/dock.dpf
DOCKED: USER  
DOCKED: USER    Estimated Free Energy of Binding    =   +1.65 kcal/mol  [=(1)+(2)+(3)-(4)]
DOCKED: USER    
DOCKED: USER    (1) Final Intermolecular Energy     =   -5.51 kcal/mol
DOCKED: USER        vdW + Hbond + desolv Energy     =   -5.16 kcal/mol
DOCKED: USER        Electrostatic Energy            =   -0.35 kcal/mol
DOCKED: USER    (2) Final Total Internal Energy     =  -14.00 kcal/mol
DOCKED: USER    (3) Torsional Free Energy           =   +7.16 kcal/mol
DOCKED: USER    (4) Unbound System's Energy  [=(2)] =  -14.00 kcal/mol
DOCKED: USER    
DOCKED: USER    
DOCKED: USER    NEWDPF move IHP_ideal_opt.pdbqt
DOCKED: USER    NEWDPF about 0.035000 0.082000 -0.065000
DOCKED: USER    NEWDPF tran0 -10.583657 11.086242 -6.686422
DOCKED: USER    NEWDPF quaternion0 -0.337075 -0.444892 -0.644231 0.522894
DOCKED: USER    NEWDPF axisangle0 -0.395443 -0.521931 -0.755786 116.946844
DOCKED: USER    NEWDPF quat0 -0.395443 -0.521931 -0.755786 116.946844
DOCKED: USER    NEWDPF dihe0 77.38 146.22 125.33 132.97 180.00 128.43 -42.45 -158.28 153.72 -39.50 20.79 157.35 -76.39 81.58 -152.08 140.14 68.46 175.55 -145.75 -10.59 18.23 -26.17 -28.59 -13.40 
DOCKED: USER  keepresnum = 1 
DOCKED: USER  
DOCKED: REMARK  24 active torsions:
DOCKED: REMARK  status: ('A' for Active; 'I' for Inactive)
DOCKED: REMARK    1  A    between atoms: C_1  and  O_7 
DOCKED: REMARK    2  A    between atoms: C_2  and  O_12 
DOCKED: REMARK    3  A    between atoms: C_3  and  O_17 
DOCKED: REMARK    4  A    between atoms: C_4  and  O_22 
DOCKED: REMARK    5  A    between atoms: C_5  and  O_27 
DOCKED: REMARK    6  A    between atoms: C_6  and  O_32 
DOCKED: REMARK    7  A    between atoms: O_7  and  P_8 
DOCKED: REMARK    8  A    between atoms: P_8  and  O_10 
DOCKED: REMARK    9  A    between atoms: P_8  and  O_11 
DOCKED: REMARK   10  A    between atoms: O_12  and  P_13 
DOCKED: REMARK   11  A    between atoms: P_13  and  O_15 
DOCKED: REMARK   12  A    between atoms: P_13  and  O_16 
DOCKED: REMARK   13  A    between atoms: O_17  and  P_18 
DOCKED: REMARK   14  A    between atoms: P_18  and  O_20 
DOCKED: REMARK   15  A    between atoms: P_18  and  O_21 
DOCKED: REMARK   16  A    between atoms: O_22  and  P_23 
DOCKED: REMARK   17  A    between atoms: P_23  and  O_25 
DOCKED: REMARK   18  A    between atoms: P_23  and  O_26 
DOCKED: REMARK   19  A    between atoms: O_27  and  P_28 
DOCKED: REMARK   20  A    between atoms: P_28  and  O_30 
DOCKED: REMARK   21  A    between atoms: P_28  and  O_31 
DOCKED: REMARK   22  A    between atoms: O_32  and  P_33 
DOCKED: REMARK   23  A    between atoms: P_33  and  O_35 
DOCKED: REMARK   24  A    between atoms: P_33  and  O_36 
DOCKED: USER                              x       y       z     vdW  Elec       q    Type
DOCKED: USER                           _______ _______ _______ _____ _____    ______ ____
DOCKED: ROOT
DOCKED: ATOM      1  C   UNL d   1      -9.823  12.532  -7.249 -0.23 +0.07    +0.194 C 
DOCKED: ATOM      2  C   UNL d   1      -9.573  11.281  -8.094 -0.13 +0.05    +0.194 C 
DOCKED: ATOM      3  C   UNL d   1      -9.286  10.057  -7.222 -0.17 +0.05    +0.194 C 
DOCKED: ATOM      4  C   UNL d   1     -10.344   9.824  -6.146 -0.18 +0.06    +0.194 C 
DOCKED: ATOM      5  C   UNL d   1     -10.708  11.073  -5.354 -0.20 +0.05    +0.194 C 
DOCKED: ATOM      6  C   UNL d   1     -10.935  12.313  -6.222 -0.20 +0.07    +0.194 C 
DOCKED: ENDROOT
DOCKED: BRANCH   1   7
DOCKED: ATOM      7  O   UNL d   1     -10.250  13.581  -8.121 -0.32 -0.16    -0.278 OA
DOCKED: BRANCH   7   8
DOCKED: ATOM      8  P   UNL d   1     -11.817  13.772  -8.369 -0.12 +0.25    +0.473 P 
DOCKED: ATOM      9  O   UNL d   1     -12.642  12.552  -8.159 -0.03 -0.07    -0.228 OA
DOCKED: BRANCH   8  10
DOCKED: ATOM     10  O   UNL d   1     -12.217  14.976  -7.401 -0.08 -0.28    -0.303 OA
DOCKED: ATOM     11  H   UNL d   1     -12.332  14.640  -6.492 +0.05 +0.16    +0.222 HD
DOCKED: ENDBRANCH   8  10
DOCKED: BRANCH   8  12
DOCKED: ATOM     12  O   UNL d   1     -11.929  14.448  -9.803 -0.08 -0.15    -0.303 OA
DOCKED: ATOM     13  H   UNL d   1     -12.167  13.809 -10.512 +0.03 +0.07    +0.222 HD
DOCKED: ENDBRANCH   8  12
DOCKED: ENDBRANCH   7   8
DOCKED: ENDBRANCH   1   7
DOCKED: BRANCH   2  14
DOCKED: ATOM     14  O   UNL d   1     -10.735  11.014  -8.889 -0.06 -0.07    -0.278 OA
DOCKED: BRANCH  14  15
DOCKED: ATOM     15  P   UNL d   1     -10.526  10.990 -10.476 -0.04 +0.12    +0.473 P 
DOCKED: ATOM     16  O   UNL d   1     -11.210   9.891 -11.227 -0.01 -0.04    -0.228 OA
DOCKED: BRANCH  15  17
DOCKED: ATOM     17  O   UNL d   1     -10.986  12.440 -10.950 -0.11 -0.09    -0.303 OA
DOCKED: ATOM     18  H   UNL d   1     -10.830  13.104 -10.250 +0.05 +0.09    +0.222 HD
DOCKED: ENDBRANCH  15  17
DOCKED: BRANCH  15  19
DOCKED: ATOM     19  O   UNL d   1      -8.950  11.075 -10.670 -0.53 -0.12    -0.303 OA
DOCKED: ATOM     20  H   UNL d   1      -8.512  10.236 -10.436 +0.08 +0.04    +0.222 HD
DOCKED: ENDBRANCH  15  19
DOCKED: ENDBRANCH  14  15
DOCKED: ENDBRANCH   2  14
DOCKED: BRANCH   6  21
DOCKED: ATOM     21  O   UNL d   1     -10.922  13.437  -5.346 -0.13 -0.15    -0.278 OA
DOCKED: BRANCH  21  22
DOCKED: ATOM     22  P   UNL d   1     -12.253  13.852  -4.570 -0.04 +0.20    +0.473 P 
DOCKED: ATOM     23  O   UNL d   1     -12.790  15.228  -4.778 -0.12 -0.13    -0.228 OA
DOCKED: BRANCH  22  24
DOCKED: ATOM     24  O   UNL d   1     -13.248  12.679  -4.980 -0.03 -0.08    -0.303 OA
DOCKED: ATOM     25  H   UNL d   1     -13.459  12.156  -4.166 +0.04 +0.05    +0.222 HD
DOCKED: ENDBRANCH  22  24
DOCKED: BRANCH  22  26
DOCKED: ATOM     26  O   UNL d   1     -11.885  13.461  -3.060 -0.18 -0.09    -0.303 OA
DOCKED: ATOM     27  H   UNL d   1     -11.475  12.573  -3.048 +0.10 +0.06    +0.222 HD
DOCKED: ENDBRANCH  22  26
DOCKED: ENDBRANCH  21  22
DOCKED: ENDBRANCH   6  21
DOCKED: BRANCH   3  28
DOCKED: ATOM     28  O   UNL d   1      -9.344   8.911  -8.062 -0.11 -0.07    -0.278 OA
DOCKED: BRANCH  28  29
DOCKED: ATOM     29  P   UNL d   1      -8.067   8.465  -8.904 -0.11 +0.07    +0.473 P 
DOCKED: ATOM     30  O   UNL d   1      -7.467   7.163  -8.517 -0.17 -0.04    -0.228 OA
DOCKED: BRANCH  29  31
DOCKED: ATOM     31  O   UNL d   1      -8.656   8.581 -10.387 -0.04 -0.04    -0.303 OA
DOCKED: ATOM     32  H   UNL d   1      -9.537   9.020 -10.341 +0.05 +0.04    +0.222 HD
DOCKED: ENDBRANCH  29  31
DOCKED: BRANCH  29  33
DOCKED: ATOM     33  O   UNL d   1      -7.131   9.749  -8.796 -0.22 -0.02    -0.303 OA
DOCKED: ATOM     34  H   UNL d   1      -7.223  10.284  -9.622 +0.11 +0.01    +0.222 HD
DOCKED: ENDBRANCH  29  33
DOCKED: ENDBRANCH  28  29
DOCKED: ENDBRANCH   3  28
DOCKED: BRANCH   5  35
DOCKED: ATOM     35  O   UNL d   1     -11.948  10.777  -4.714 -0.06 -0.07    -0.278 OA
DOCKED: BRANCH  35  36
DOCKED: ATOM     36  P   UNL d   1     -11.982  10.389  -3.167 -0.08 +0.11    +0.473 P 
DOCKED: ATOM     37  O   UNL d   1     -12.649  11.380  -2.267 -0.10 -0.04    -0.228 OA
DOCKED: BRANCH  36  38
DOCKED: ATOM     38  O   UNL d   1     -12.687   8.961  -3.205 -0.06 -0.08    -0.303 OA
DOCKED: ATOM     39  H   UNL d   1     -12.013   8.275  -3.398 +0.08 +0.08    +0.222 HD
DOCKED: ENDBRANCH  36  38
DOCKED: BRANCH  36  40
DOCKED: ATOM     40  O   UNL d   1     -10.456  10.054  -2.867 -0.28 -0.07    -0.303 OA
DOCKED: ATOM     41  H   UNL d   1     -10.221   9.143  -3.152 +0.12 +0.06    +0.222 HD
DOCKED: ENDBRANCH  36  40
DOCKED: ENDBRANCH  35  36
DOCKED: ENDBRANCH   5  35
DOCKED: BRANCH   4  42
DOCKED: ATOM     42  O   UNL d   1      -9.791   8.884  -5.218 -0.72 -0.14    -0.278 OA
DOCKED: BRANCH  42  43
DOCKED: ATOM     43  P   UNL d   1     -10.596   7.542  -4.909 -0.14 +0.37    +0.473 P 
DOCKED: ATOM     44  O   UNL d   1     -10.644   7.081  -3.493 -0.28 -0.15    -0.228 OA
DOCKED: BRANCH  43  45
DOCKED: ATOM     45  O   UNL d   1     -12.024   7.837  -5.546 -0.08 -0.20    -0.303 OA
DOCKED: ATOM     46  H   UNL d   1     -12.392   8.684  -5.224 +0.06 +0.09    +0.222 HD
DOCKED: ENDBRANCH  43  45
DOCKED: BRANCH  43  47
DOCKED: ATOM     47  O   UNL d   1      -9.982   6.496  -5.957 -0.55 -0.40    -0.303 OA
DOCKED: ATOM     48  H   UNL d   1      -9.601   6.985  -6.715 +0.06 +0.18    +0.222 HD
DOCKED: ENDBRANCH  43  47
DOCKED: ENDBRANCH  42  43
DOCKED: ENDBRANCH   4  42
DOCKED: TORSDOF 24
DOCKED: TER
DOCKED: ENDMDL
________________________________________________________________________________


	BEGINNING GENETIC ALGORITHM DOCKING 88 of 100
Run: 88 Seed: 1075020038 1831036766 [ Run 88 of 100 GA/GALS ]
Beginning LAMARCKIAN GENETIC ALGORITHM (LGA), with a maximum of 25000000 energy evaluations.

Final-Value: -17.924


	FINAL GENETIC ALGORITHM DOCKED STATE
	_______________________________________________


Detailed state:  trans 13.191 -6.235 0.587 quatxyzw 0.234876 0.275139 0.448069 0.817537 center 0.035 0.082 -0.065 ntor 24 162.6416 -11.6725 107.3649 98.6701 120.0668 77.6093 47.7209 -136.8103 34.1058 76.3288 123.7797 117.1960 -106.0041 -14.0905 178.0182 -144.4707 -66.7674 21.5215 36.7204 -24.8071 18.0702 22.8779 -179.8608 -177.1790
State:	 13.191  -6.235   0.587   0.408  0.478  0.778 70.322    162.64  -11.67  107.36   98.67  120.07   77.61   47.72 -136.81   34.11   76.33  123.78  117.20 -106.00  -14.09  178.02 -144.47  -66.77   21.52   36.72  -24.81   18.07   22.88 -179.86 -177.18

DOCKED: MODEL       88
DOCKED: USER    Run = 88
DOCKED: USER    DPF = D:/Protein_go_brrr/autodock/final/mut_K82N/IHP/dock.dpf
DOCKED: USER  
DOCKED: USER    Estimated Free Energy of Binding    =   +2.02 kcal/mol  [=(1)+(2)+(3)-(4)]
DOCKED: USER    
DOCKED: USER    (1) Final Intermolecular Energy     =   -5.14 kcal/mol
DOCKED: USER        vdW + Hbond + desolv Energy     =   -4.95 kcal/mol
DOCKED: USER        Electrostatic Energy            =   -0.19 kcal/mol
DOCKED: USER    (2) Final Total Internal Energy     =  -12.79 kcal/mol
DOCKED: USER    (3) Torsional Free Energy           =   +7.16 kcal/mol
DOCKED: USER    (4) Unbound System's Energy  [=(2)] =  -12.79 kcal/mol
DOCKED: USER    
DOCKED: USER    
DOCKED: USER    NEWDPF move IHP_ideal_opt.pdbqt
DOCKED: USER    NEWDPF about 0.035000 0.082000 -0.065000
DOCKED: USER    NEWDPF tran0 13.190813 -6.235256 0.586732
DOCKED: USER    NEWDPF quaternion0 0.234876 0.275139 0.448069 0.817537
DOCKED: USER    NEWDPF axisangle0 0.407859 0.477774 0.778064 70.322083
DOCKED: USER    NEWDPF quat0 0.407859 0.477774 0.778064 70.322083
DOCKED: USER    NEWDPF dihe0 162.64 -11.67 107.36 98.67 120.07 77.61 47.72 -136.81 34.11 76.33 123.78 117.20 -106.00 -14.09 178.02 -144.47 -66.77 21.52 36.72 -24.81 18.07 22.88 -179.86 -177.18 
DOCKED: USER  keepresnum = 1 
DOCKED: USER  
DOCKED: REMARK  24 active torsions:
DOCKED: REMARK  status: ('A' for Active; 'I' for Inactive)
DOCKED: REMARK    1  A    between atoms: C_1  and  O_7 
DOCKED: REMARK    2  A    between atoms: C_2  and  O_12 
DOCKED: REMARK    3  A    between atoms: C_3  and  O_17 
DOCKED: REMARK    4  A    between atoms: C_4  and  O_22 
DOCKED: REMARK    5  A    between atoms: C_5  and  O_27 
DOCKED: REMARK    6  A    between atoms: C_6  and  O_32 
DOCKED: REMARK    7  A    between atoms: O_7  and  P_8 
DOCKED: REMARK    8  A    between atoms: P_8  and  O_10 
DOCKED: REMARK    9  A    between atoms: P_8  and  O_11 
DOCKED: REMARK   10  A    between atoms: O_12  and  P_13 
DOCKED: REMARK   11  A    between atoms: P_13  and  O_15 
DOCKED: REMARK   12  A    between atoms: P_13  and  O_16 
DOCKED: REMARK   13  A    between atoms: O_17  and  P_18 
DOCKED: REMARK   14  A    between atoms: P_18  and  O_20 
DOCKED: REMARK   15  A    between atoms: P_18  and  O_21 
DOCKED: REMARK   16  A    between atoms: O_22  and  P_23 
DOCKED: REMARK   17  A    between atoms: P_23  and  O_25 
DOCKED: REMARK   18  A    between atoms: P_23  and  O_26 
DOCKED: REMARK   19  A    between atoms: O_27  and  P_28 
DOCKED: REMARK   20  A    between atoms: P_28  and  O_30 
DOCKED: REMARK   21  A    between atoms: P_28  and  O_31 
DOCKED: REMARK   22  A    between atoms: O_32  and  P_33 
DOCKED: REMARK   23  A    between atoms: P_33  and  O_35 
DOCKED: REMARK   24  A    between atoms: P_33  and  O_36 
DOCKED: USER                              x       y       z     vdW  Elec       q    Type
DOCKED: USER                           _______ _______ _______ _____ _____    ______ ____
DOCKED: ROOT
DOCKED: ATOM      1  C   UNL d   1      12.796  -6.926   2.120 -0.14 +0.01    +0.194 C 
DOCKED: ATOM      2  C   UNL d   1      11.634  -6.798   1.134 -0.21 -0.00    +0.194 C 
DOCKED: ATOM      3  C   UNL d   1      11.648  -5.448   0.414 -0.19 -0.01    +0.194 C 
DOCKED: ATOM      4  C   UNL d   1      12.992  -5.126  -0.234 -0.06 +0.01    +0.194 C 
DOCKED: ATOM      5  C   UNL d   1      14.191  -5.350   0.679 -0.03 +0.01    +0.194 C 
DOCKED: ATOM      6  C   UNL d   1      14.146  -6.673   1.447 -0.03 +0.00    +0.194 C 
DOCKED: ENDROOT
DOCKED: BRANCH   1   7
DOCKED: ATOM      7  O   UNL d   1      12.813  -8.266   2.619 -0.09 -0.01    -0.278 OA
DOCKED: BRANCH   7   8
DOCKED: ATOM      8  P   UNL d   1      11.892  -8.620   3.875 -0.21 +0.04    +0.473 P 
DOCKED: ATOM      9  O   UNL d   1      12.095  -7.756   5.070 -0.29 -0.02    -0.228 OA
DOCKED: BRANCH   8  10
DOCKED: ATOM     10  O   UNL d   1      10.407  -8.554   3.297 -0.24 -0.01    -0.303 OA
DOCKED: ATOM     11  H   UNL d   1      10.437  -8.396   2.335 +0.10 +0.00    +0.222 HD
DOCKED: ENDBRANCH   8  10
DOCKED: BRANCH   8  12
DOCKED: ATOM     12  O   UNL d   1      12.090 -10.180   4.105 -0.17 -0.05    -0.303 OA
DOCKED: ATOM     13  H   UNL d   1      11.869 -10.718   3.312 +0.07 +0.05    +0.222 HD
DOCKED: ENDBRANCH   8  12
DOCKED: ENDBRANCH   7   8
DOCKED: ENDBRANCH   1   7
DOCKED: BRANCH   2  14
DOCKED: ATOM     14  O   UNL d   1      11.735  -7.839   0.155 -0.08 -0.00    -0.278 OA
DOCKED: BRANCH  14  15
DOCKED: ATOM     15  P   UNL d   1      10.682  -9.039   0.274 -0.13 +0.02    +0.473 P 
DOCKED: ATOM     16  O   UNL d   1       9.270  -8.664   0.602 -0.17 +0.01    -0.228 OA
DOCKED: BRANCH  15  17
DOCKED: ATOM     17  O   UNL d   1      10.809  -9.806  -1.117 -0.05 -0.01    -0.303 OA
DOCKED: ATOM     18  H   UNL d   1      11.591  -9.501  -1.616 +0.04 +0.01    +0.222 HD
DOCKED: ENDBRANCH  15  17
DOCKED: BRANCH  15  19
DOCKED: ATOM     19  O   UNL d   1      11.366 -10.071   1.272 -0.10 -0.03    -0.303 OA
DOCKED: ATOM     20  H   UNL d   1      11.830  -9.616   1.999 +0.07 +0.02    +0.222 HD
DOCKED: ENDBRANCH  15  19
DOCKED: ENDBRANCH  14  15
DOCKED: ENDBRANCH   2  14
DOCKED: BRANCH   6  21
DOCKED: ATOM     21  O   UNL d   1      15.120  -6.582   2.483 -0.01 -0.01    -0.278 OA
DOCKED: BRANCH  21  22
DOCKED: ATOM     22  P   UNL d   1      16.645  -6.928   2.169 +0.00 +0.00    +0.473 P 
DOCKED: ATOM     23  O   UNL d   1      17.494  -7.444   3.282 -0.00 -0.00    -0.228 OA
DOCKED: BRANCH  22  24
DOCKED: ATOM     24  O   UNL d   1      16.507  -7.909   0.924 -0.00 -0.00    -0.303 OA
DOCKED: ATOM     25  H   UNL d   1      15.966  -7.452   0.230 +0.00 +0.00    +0.222 HD
DOCKED: ENDBRANCH  22  24
DOCKED: BRANCH  22  26
DOCKED: ATOM     26  O   UNL d   1      17.149  -5.575   1.471 +0.00 -0.00    -0.303 OA
DOCKED: ATOM     27  H   UNL d   1      17.100  -5.678   0.498 +0.00 +0.00    +0.222 HD
DOCKED: ENDBRANCH  22  26
DOCKED: ENDBRANCH  21  22
DOCKED: ENDBRANCH   6  21
DOCKED: BRANCH   3  28
DOCKED: ATOM     28  O   UNL d   1      10.720  -5.527  -0.661 -0.15 +0.00    -0.278 OA
DOCKED: BRANCH  28  29
DOCKED: ATOM     29  P   UNL d   1       9.675  -4.351  -0.909 -0.23 -0.02    +0.473 P 
DOCKED: ATOM     30  O   UNL d   1       8.617  -4.635  -1.912 -0.25 -0.02    -0.228 OA
DOCKED: BRANCH  29  31
DOCKED: ATOM     31  O   UNL d   1       9.197  -4.080   0.594 -0.31 +0.13    -0.303 OA
DOCKED: ATOM     32  H   UNL d   1       9.684  -3.298   0.942 -0.36 -0.18    +0.222 HD
DOCKED: ENDBRANCH  29  31
DOCKED: BRANCH  29  33
DOCKED: ATOM     33  O   UNL d   1      10.631  -3.111  -1.203 -0.39 -0.04    -0.303 OA
DOCKED: ATOM     34  H   UNL d   1      10.996  -2.778  -0.347 -0.32 -0.03    +0.222 HD
DOCKED: ENDBRANCH  29  33
DOCKED: ENDBRANCH  28  29
DOCKED: ENDBRANCH   3  28
DOCKED: BRANCH   5  35
DOCKED: ATOM     35  O   UNL d   1      15.328  -5.402  -0.180 -0.00 -0.01    -0.278 OA
DOCKED: BRANCH  35  36
DOCKED: ATOM     36  P   UNL d   1      15.317  -6.335  -1.474 +0.01 +0.01    +0.473 P 
DOCKED: ATOM     37  O   UNL d   1      14.348  -7.474  -1.439 -0.00 -0.00    -0.228 OA
DOCKED: BRANCH  36  38
DOCKED: ATOM     38  O   UNL d   1      15.045  -5.280  -2.635 -0.00 -0.02    -0.303 OA
DOCKED: ATOM     39  H   UNL d   1      14.433  -4.588  -2.304 +0.03 +0.03    +0.222 HD
DOCKED: ENDBRANCH  36  38
DOCKED: BRANCH  36  40
DOCKED: ATOM     40  O   UNL d   1      16.856  -6.701  -1.641 +0.00 -0.00    -0.303 OA
DOCKED: ATOM     41  H   UNL d   1      17.306  -6.791  -0.772 +0.00 +0.00    +0.222 HD
DOCKED: ENDBRANCH  36  40
DOCKED: ENDBRANCH  35  36
DOCKED: ENDBRANCH   5  35
DOCKED: BRANCH   4  42
DOCKED: ATOM     42  O   UNL d   1      12.970  -3.734  -0.565 -0.09 -0.04    -0.278 OA
DOCKED: BRANCH  42  43
DOCKED: ATOM     43  P   UNL d   1      13.057  -2.660   0.611 -0.13 +0.01    +0.473 P 
DOCKED: ATOM     44  O   UNL d   1      14.334  -2.576   1.372 -0.05 -0.01    -0.228 OA
DOCKED: BRANCH  43  45
DOCKED: ATOM     45  O   UNL d   1      12.645  -1.307  -0.120 -0.14 -0.07    -0.303 OA
DOCKED: ATOM     46  H   UNL d   1      11.811  -1.410  -0.621 -0.29 +0.10    +0.222 HD
DOCKED: ENDBRANCH  43  45
DOCKED: BRANCH  43  47
DOCKED: ATOM     47  O   UNL d   1      11.749  -2.968   1.486 +0.03 +0.10    -0.303 OA
DOCKED: ATOM     48  H   UNL d   1      10.951  -2.792   0.946 -0.39 -0.13    +0.222 HD
DOCKED: ENDBRANCH  43  47
DOCKED: ENDBRANCH  42  43
DOCKED: ENDBRANCH   4  42
DOCKED: TORSDOF 24
DOCKED: TER
DOCKED: ENDMDL
________________________________________________________________________________


	BEGINNING GENETIC ALGORITHM DOCKING 89 of 100
Run: 89 Seed: 824030837 2012684186 [ Run 89 of 100 GA/GALS ]
Beginning LAMARCKIAN GENETIC ALGORITHM (LGA), with a maximum of 25000000 energy evaluations.

Final-Value: -18.229


	FINAL GENETIC ALGORITHM DOCKED STATE
	_______________________________________________


Detailed state:  trans 6.357 5.500 19.873 quatxyzw 0.548590 -0.299720 -0.622439 0.470942 center 0.035 0.082 -0.065 ntor 24 -179.9641 14.3023 59.3160 47.0772 74.3636 99.5313 41.6584 -73.2291 145.8139 4.5648 37.2529 -126.2798 58.9713 154.3842 67.0367 90.1236 102.8426 -37.0522 31.4032 -10.1157 -169.6875 -15.8534 -31.9823 172.3882
State:	  6.357   5.500  19.873   0.622 -0.340 -0.706 123.809   -179.96   14.30   59.32   47.08   74.36   99.53   41.66  -73.23  145.81    4.56   37.25 -126.28   58.97  154.38   67.04   90.12  102.84  -37.05   31.40  -10.12 -169.69  -15.85  -31.98  172.39

DOCKED: MODEL       89
DOCKED: USER    Run = 89
DOCKED: USER    DPF = D:/Protein_go_brrr/autodock/final/mut_K82N/IHP/dock.dpf
DOCKED: USER  
DOCKED: USER    Estimated Free Energy of Binding    =   +2.51 kcal/mol  [=(1)+(2)+(3)-(4)]
DOCKED: USER    
DOCKED: USER    (1) Final Intermolecular Energy     =   -4.65 kcal/mol
DOCKED: USER        vdW + Hbond + desolv Energy     =   -4.62 kcal/mol
DOCKED: USER        Electrostatic Energy            =   -0.03 kcal/mol
DOCKED: USER    (2) Final Total Internal Energy     =  -13.58 kcal/mol
DOCKED: USER    (3) Torsional Free Energy           =   +7.16 kcal/mol
DOCKED: USER    (4) Unbound System's Energy  [=(2)] =  -13.58 kcal/mol
DOCKED: USER    
DOCKED: USER    
DOCKED: USER    NEWDPF move IHP_ideal_opt.pdbqt
DOCKED: USER    NEWDPF about 0.035000 0.082000 -0.065000
DOCKED: USER    NEWDPF tran0 6.357028 5.500391 19.872761
DOCKED: USER    NEWDPF quaternion0 0.548590 -0.299720 -0.622439 0.470942
DOCKED: USER    NEWDPF axisangle0 0.621868 -0.339756 -0.705582 123.809093
DOCKED: USER    NEWDPF quat0 0.621868 -0.339756 -0.705582 123.809093
DOCKED: USER    NEWDPF dihe0 -179.96 14.30 59.32 47.08 74.36 99.53 41.66 -73.23 145.81 4.56 37.25 -126.28 58.97 154.38 67.04 90.12 102.84 -37.05 31.40 -10.12 -169.69 -15.85 -31.98 172.39 
DOCKED: USER  keepresnum = 1 
DOCKED: USER  
DOCKED: REMARK  24 active torsions:
DOCKED: REMARK  status: ('A' for Active; 'I' for Inactive)
DOCKED: REMARK    1  A    between atoms: C_1  and  O_7 
DOCKED: REMARK    2  A    between atoms: C_2  and  O_12 
DOCKED: REMARK    3  A    between atoms: C_3  and  O_17 
DOCKED: REMARK    4  A    between atoms: C_4  and  O_22 
DOCKED: REMARK    5  A    between atoms: C_5  and  O_27 
DOCKED: REMARK    6  A    between atoms: C_6  and  O_32 
DOCKED: REMARK    7  A    between atoms: O_7  and  P_8 
DOCKED: REMARK    8  A    between atoms: P_8  and  O_10 
DOCKED: REMARK    9  A    between atoms: P_8  and  O_11 
DOCKED: REMARK   10  A    between atoms: O_12  and  P_13 
DOCKED: REMARK   11  A    between atoms: P_13  and  O_15 
DOCKED: REMARK   12  A    between atoms: P_13  and  O_16 
DOCKED: REMARK   13  A    between atoms: O_17  and  P_18 
DOCKED: REMARK   14  A    between atoms: P_18  and  O_20 
DOCKED: REMARK   15  A    between atoms: P_18  and  O_21 
DOCKED: REMARK   16  A    between atoms: O_22  and  P_23 
DOCKED: REMARK   17  A    between atoms: P_23  and  O_25 
DOCKED: REMARK   18  A    between atoms: P_23  and  O_26 
DOCKED: REMARK   19  A    between atoms: O_27  and  P_28 
DOCKED: REMARK   20  A    between atoms: P_28  and  O_30 
DOCKED: REMARK   21  A    between atoms: P_28  and  O_31 
DOCKED: REMARK   22  A    between atoms: O_32  and  P_33 
DOCKED: REMARK   23  A    between atoms: P_33  and  O_35 
DOCKED: REMARK   24  A    between atoms: P_33  and  O_36 
DOCKED: USER                              x       y       z     vdW  Elec       q    Type
DOCKED: USER                           _______ _______ _______ _____ _____    ______ ____
DOCKED: ROOT
DOCKED: ATOM      1  C   UNL d   1       6.910   6.861  18.964 -0.16 -0.02    +0.194 C 
DOCKED: ATOM      2  C   UNL d   1       7.737   6.515  20.203 -0.10 +0.01    +0.194 C 
DOCKED: ATOM      3  C   UNL d   1       6.847   6.175  21.401 -0.07 +0.01    +0.194 C 
DOCKED: ATOM      4  C   UNL d   1       5.799   5.109  21.089 -0.15 -0.01    +0.194 C 
DOCKED: ATOM      5  C   UNL d   1       5.029   5.355  19.798 -0.23 -0.04    +0.194 C 
DOCKED: ATOM      6  C   UNL d   1       5.913   5.755  18.615 -0.25 -0.05    +0.194 C 
DOCKED: ENDROOT
DOCKED: BRANCH   1   7
DOCKED: ATOM      7  O   UNL d   1       7.802   6.995  17.855 -0.16 +0.04    -0.278 OA
DOCKED: BRANCH   7   8
DOCKED: ATOM      8  P   UNL d   1       8.403   8.440  17.534 -0.08 -0.06    +0.473 P 
DOCKED: ATOM      9  O   UNL d   1       9.859   8.591  17.800 -0.03 +0.01    -0.228 OA
DOCKED: BRANCH   8  10
DOCKED: ATOM     10  O   UNL d   1       8.014   8.689  16.007 -0.21 +0.08    -0.303 OA
DOCKED: ATOM     11  H   UNL d   1       7.255   8.126  15.766 -0.49 -0.14    +0.222 HD
DOCKED: ENDBRANCH   8  10
DOCKED: BRANCH   8  12
DOCKED: ATOM     12  O   UNL d   1       7.449   9.461  18.290 -0.03 +0.04    -0.303 OA
DOCKED: ATOM     13  H   UNL d   1       6.521   9.143  18.358 +0.05 -0.04    +0.222 HD
DOCKED: ENDBRANCH   8  12
DOCKED: ENDBRANCH   7   8
DOCKED: ENDBRANCH   1   7
DOCKED: BRANCH   2  14
DOCKED: ATOM     14  O   UNL d   1       8.562   5.380  19.911 -0.23 -0.07    -0.278 OA
DOCKED: BRANCH  14  15
DOCKED: ATOM     15  P   UNL d   1      10.142   5.584  20.075 -0.12 +0.11    +0.473 P 
DOCKED: ATOM     16  O   UNL d   1      11.021   4.762  19.184 -0.17 -0.04    -0.228 OA
DOCKED: BRANCH  15  17
DOCKED: ATOM     17  O   UNL d   1      10.354   7.150  19.876 -0.02 -0.03    -0.303 OA
DOCKED: ATOM     18  H   UNL d   1       9.744   7.504  19.201 +0.05 +0.01    +0.222 HD
DOCKED: ENDBRANCH  15  17
DOCKED: BRANCH  15  19
DOCKED: ATOM     19  O   UNL d   1      10.404   5.421  21.635 -0.12 -0.16    -0.303 OA
DOCKED: ATOM     20  H   UNL d   1       9.572   5.440  22.144 +0.03 +0.12    +0.222 HD
DOCKED: ENDBRANCH  15  19
DOCKED: ENDBRANCH  14  15
DOCKED: ENDBRANCH   2  14
DOCKED: BRANCH   6  21
DOCKED: ATOM     21  O   UNL d   1       5.046   6.275  17.610 -0.19 +0.16    -0.278 OA
DOCKED: BRANCH  21  22
DOCKED: ATOM     22  P   UNL d   1       4.666   7.824  17.615 -0.08 -0.21    +0.473 P 
DOCKED: ATOM     23  O   UNL d   1       5.437   8.741  16.726 -0.18 +0.11    -0.228 OA
DOCKED: BRANCH  22  24
DOCKED: ATOM     24  O   UNL d   1       3.101   7.777  17.330 -0.17 +0.14    -0.303 OA
DOCKED: ATOM     25  H   UNL d   1       2.809   6.831  17.370 -0.45 -0.17    +0.222 HD
DOCKED: ENDBRANCH  22  24
DOCKED: BRANCH  22  26
DOCKED: ATOM     26  O   UNL d   1       4.708   8.164  19.181 -0.05 +0.07    -0.303 OA
DOCKED: ATOM     27  H   UNL d   1       3.914   7.788  19.613 +0.05 -0.05    +0.222 HD
DOCKED: ENDBRANCH  22  26
DOCKED: ENDBRANCH  21  22
DOCKED: ENDBRANCH   6  21
DOCKED: BRANCH   3  28
DOCKED: ATOM     28  O   UNL d   1       7.678   5.605  22.404 -0.09 -0.08    -0.278 OA
DOCKED: BRANCH  28  29
DOCKED: ATOM     29  P   UNL d   1       8.283   6.517  23.561 -0.05 +0.17    +0.473 P 
DOCKED: ATOM     30  O   UNL d   1       7.290   7.132  24.478 -0.01 -0.05    -0.228 OA
DOCKED: BRANCH  29  31
DOCKED: ATOM     31  O   UNL d   1       9.330   5.493  24.206 -0.03 -0.31    -0.303 OA
DOCKED: ATOM     32  H   UNL d   1      10.208   5.634  23.783 +0.02 +0.25    +0.222 HD
DOCKED: ENDBRANCH  29  31
DOCKED: BRANCH  29  33
DOCKED: ATOM     33  O   UNL d   1       9.222   7.512  22.746 -0.02 -0.07    -0.303 OA
DOCKED: ATOM     34  H   UNL d   1       9.348   7.158  21.831 +0.03 +0.05    +0.222 HD
DOCKED: ENDBRANCH  29  33
DOCKED: ENDBRANCH  28  29
DOCKED: ENDBRANCH   3  28
DOCKED: BRANCH   5  35
DOCKED: ATOM     35  O   UNL d   1       4.422   4.108  19.466 -0.26 +0.11    -0.278 OA
DOCKED: BRANCH  35  36
DOCKED: ATOM     36  P   UNL d   1       2.894   3.834  19.834 -0.20 -0.25    +0.473 P 
DOCKED: ATOM     37  O   UNL d   1       2.147   2.960  18.878 -0.39 +0.15    -0.228 OA
DOCKED: BRANCH  36  38
DOCKED: ATOM     38  O   UNL d   1       3.015   3.239  21.307 -0.12 +0.19    -0.303 OA
DOCKED: ATOM     39  H   UNL d   1       3.200   3.970  21.934 +0.06 -0.07    +0.222 HD
DOCKED: ENDBRANCH  36  38
DOCKED: BRANCH  36  40
DOCKED: ATOM     40  O   UNL d   1       2.329   5.303  20.061 -0.08 +0.11    -0.303 OA
DOCKED: ATOM     41  H   UNL d   1       2.992   5.885  20.497 +0.05 -0.06    +0.222 HD
DOCKED: ENDBRANCH  36  40
DOCKED: ENDBRANCH  35  36
DOCKED: ENDBRANCH   5  35
DOCKED: BRANCH   4  42
DOCKED: ATOM     42  O   UNL d   1       4.849   5.137  22.159 -0.03 +0.02    -0.278 OA
DOCKED: BRANCH  42  43
DOCKED: ATOM     43  P   UNL d   1       4.020   6.474  22.420 +0.01 -0.04    +0.473 P 
DOCKED: ATOM     44  O   UNL d   1       4.137   7.563  21.411 -0.01 +0.03    -0.228 OA
DOCKED: BRANCH  43  45
DOCKED: ATOM     45  O   UNL d   1       2.538   5.932  22.624 -0.00 +0.04    -0.303 OA
DOCKED: ATOM     46  H   UNL d   1       2.354   5.167  22.044 +0.03 -0.05    +0.222 HD
DOCKED: ENDBRANCH  43  45
DOCKED: BRANCH  43  47
DOCKED: ATOM     47  O   UNL d   1       4.430   6.872  23.918 +0.00 +0.00    -0.303 OA
DOCKED: ATOM     48  H   UNL d   1       5.407   6.901  23.989 +0.01 +0.01    +0.222 HD
DOCKED: ENDBRANCH  43  47
DOCKED: ENDBRANCH  42  43
DOCKED: ENDBRANCH   4  42
DOCKED: TORSDOF 24
DOCKED: TER
DOCKED: ENDMDL
________________________________________________________________________________


	BEGINNING GENETIC ALGORITHM DOCKING 90 of 100
Run: 90 Seed: 1647407266 1346767243 [ Run 90 of 100 GA/GALS ]
Beginning LAMARCKIAN GENETIC ALGORITHM (LGA), with a maximum of 25000000 energy evaluations.

Final-Value: -17.260


	FINAL GENETIC ALGORITHM DOCKED STATE
	_______________________________________________


Detailed state:  trans -10.836 2.976 -20.787 quatxyzw 0.740411 0.641352 -0.179748 0.090272 center 0.035 0.082 -0.065 ntor 24 179.9419 -143.3083 45.8011 37.3524 117.3337 160.3637 35.9000 -78.1439 123.2017 65.3610 138.0030 110.6991 70.2169 163.9017 -108.6137 95.9646 -123.9321 48.3837 10.1328 -21.8384 -13.3008 -22.8892 -6.9013 -17.6561
State:	-10.836   2.976 -20.787   0.743  0.644 -0.180 169.641    179.94 -143.31   45.80   37.35  117.33  160.36   35.90  -78.14  123.20   65.36  138.00  110.70   70.22  163.90 -108.61   95.96 -123.93   48.38   10.13  -21.84  -13.30  -22.89   -6.90  -17.66

DOCKED: MODEL       90
DOCKED: USER    Run = 90
DOCKED: USER    DPF = D:/Protein_go_brrr/autodock/final/mut_K82N/IHP/dock.dpf
DOCKED: USER  
DOCKED: USER    Estimated Free Energy of Binding    =   +3.54 kcal/mol  [=(1)+(2)+(3)-(4)]
DOCKED: USER    
DOCKED: USER    (1) Final Intermolecular Energy     =   -3.62 kcal/mol
DOCKED: USER        vdW + Hbond + desolv Energy     =   -3.56 kcal/mol
DOCKED: USER        Electrostatic Energy            =   -0.06 kcal/mol
DOCKED: USER    (2) Final Total Internal Energy     =  -13.65 kcal/mol
DOCKED: USER    (3) Torsional Free Energy           =   +7.16 kcal/mol
DOCKED: USER    (4) Unbound System's Energy  [=(2)] =  -13.65 kcal/mol
DOCKED: USER    
DOCKED: USER    
DOCKED: USER    NEWDPF move IHP_ideal_opt.pdbqt
DOCKED: USER    NEWDPF about 0.035000 0.082000 -0.065000
DOCKED: USER    NEWDPF tran0 -10.835622 2.975870 -20.786941
DOCKED: USER    NEWDPF quaternion0 0.740411 0.641352 -0.179748 0.090272
DOCKED: USER    NEWDPF axisangle0 0.743447 0.643982 -0.180485 169.641445
DOCKED: USER    NEWDPF quat0 0.743447 0.643982 -0.180485 169.641445
DOCKED: USER    NEWDPF dihe0 179.94 -143.31 45.80 37.35 117.33 160.36 35.90 -78.14 123.20 65.36 138.00 110.70 70.22 163.90 -108.61 95.96 -123.93 48.38 10.13 -21.84 -13.30 -22.89 -6.90 -17.66 
DOCKED: USER  keepresnum = 1 
DOCKED: USER  
DOCKED: REMARK  24 active torsions:
DOCKED: REMARK  status: ('A' for Active; 'I' for Inactive)
DOCKED: REMARK    1  A    between atoms: C_1  and  O_7 
DOCKED: REMARK    2  A    between atoms: C_2  and  O_12 
DOCKED: REMARK    3  A    between atoms: C_3  and  O_17 
DOCKED: REMARK    4  A    between atoms: C_4  and  O_22 
DOCKED: REMARK    5  A    between atoms: C_5  and  O_27 
DOCKED: REMARK    6  A    between atoms: C_6  and  O_32 
DOCKED: REMARK    7  A    between atoms: O_7  and  P_8 
DOCKED: REMARK    8  A    between atoms: P_8  and  O_10 
DOCKED: REMARK    9  A    between atoms: P_8  and  O_11 
DOCKED: REMARK   10  A    between atoms: O_12  and  P_13 
DOCKED: REMARK   11  A    between atoms: P_13  and  O_15 
DOCKED: REMARK   12  A    between atoms: P_13  and  O_16 
DOCKED: REMARK   13  A    between atoms: O_17  and  P_18 
DOCKED: REMARK   14  A    between atoms: P_18  and  O_20 
DOCKED: REMARK   15  A    between atoms: P_18  and  O_21 
DOCKED: REMARK   16  A    between atoms: O_22  and  P_23 
DOCKED: REMARK   17  A    between atoms: P_23  and  O_25 
DOCKED: REMARK   18  A    between atoms: P_23  and  O_26 
DOCKED: REMARK   19  A    between atoms: O_27  and  P_28 
DOCKED: REMARK   20  A    between atoms: P_28  and  O_30 
DOCKED: REMARK   21  A    between atoms: P_28  and  O_31 
DOCKED: REMARK   22  A    between atoms: O_32  and  P_33 
DOCKED: REMARK   23  A    between atoms: P_33  and  O_35 
DOCKED: REMARK   24  A    between atoms: P_33  and  O_36 
DOCKED: USER                              x       y       z     vdW  Elec       q    Type
DOCKED: USER                           _______ _______ _______ _____ _____    ______ ____
DOCKED: ROOT
DOCKED: ATOM      1  C   UNL d   1     -11.811   4.273 -21.379 -0.03 +0.02    +0.194 C 
DOCKED: ATOM      2  C   UNL d   1     -12.548   3.212 -20.559 -0.07 +0.06    +0.194 C 
DOCKED: ATOM      3  C   UNL d   1     -12.107   1.797 -20.937 -0.08 +0.07    +0.194 C 
DOCKED: ATOM      4  C   UNL d   1     -10.593   1.608 -20.897 -0.12 +0.05    +0.194 C 
DOCKED: ATOM      5  C   UNL d   1      -9.811   2.707 -21.605 -0.09 +0.01    +0.194 C 
DOCKED: ATOM      6  C   UNL d   1     -10.293   4.121 -21.275 -0.06 +0.01    +0.194 C 
DOCKED: ENDROOT
DOCKED: BRANCH   1   7
DOCKED: ATOM      7  O   UNL d   1     -12.148   5.558 -20.851 -0.01 -0.03    -0.278 OA
DOCKED: BRANCH   7   8
DOCKED: ATOM      8  P   UNL d   1     -13.022   6.544 -21.754 +0.00 +0.02    +0.473 P 
DOCKED: ATOM      9  O   UNL d   1     -14.305   6.987 -21.144 +0.00 -0.01    -0.228 OA
DOCKED: BRANCH   8  10
DOCKED: ATOM     10  O   UNL d   1     -12.031   7.752 -22.079 +0.00 +0.00    -0.303 OA
DOCKED: ATOM     11  H   UNL d   1     -11.108   7.454 -21.977 +0.00 -0.00    +0.222 HD
DOCKED: ENDBRANCH   8  10
DOCKED: BRANCH   8  12
DOCKED: ATOM     12  O   UNL d   1     -13.138   5.820 -23.163 +0.00 -0.00    -0.303 OA
DOCKED: ATOM     13  H   UNL d   1     -13.767   6.265 -23.775 +0.00 -0.00    +0.222 HD
DOCKED: ENDBRANCH   8  12
DOCKED: ENDBRANCH   7   8
DOCKED: ENDBRANCH   1   7
DOCKED: BRANCH   2  14
DOCKED: ATOM     14  O   UNL d   1     -12.271   3.421 -19.169 -0.12 -0.18    -0.278 OA
DOCKED: BRANCH  14  15
DOCKED: ATOM     15  P   UNL d   1     -13.482   3.961 -18.271 -0.07 +0.32    +0.473 P 
DOCKED: ATOM     16  O   UNL d   1     -13.144   4.980 -17.229 -0.07 -0.11    -0.228 OA
DOCKED: BRANCH  15  17
DOCKED: ATOM     17  O   UNL d   1     -14.545   4.492 -19.332 -0.01 -0.09    -0.303 OA
DOCKED: ATOM     18  H   UNL d   1     -14.125   5.086 -19.983 +0.01 +0.04    +0.222 HD
DOCKED: ENDBRANCH  15  17
DOCKED: BRANCH  15  19
DOCKED: ATOM     19  O   UNL d   1     -14.197   2.644 -17.735 -0.35 -0.45    -0.303 OA
DOCKED: ATOM     20  H   UNL d   1     -14.007   1.874 -18.303 +0.01 +0.38    +0.222 HD
DOCKED: ENDBRANCH  15  19
DOCKED: ENDBRANCH  14  15
DOCKED: ENDBRANCH   2  14
DOCKED: BRANCH   6  21
DOCKED: ATOM     21  O   UNL d   1      -9.718   4.990 -22.247 -0.01 +0.00    -0.278 OA
DOCKED: BRANCH  21  22
DOCKED: ATOM     22  P   UNL d   1      -8.674   6.108 -21.792 -0.00 -0.03    +0.473 P 
DOCKED: ATOM     23  O   UNL d   1      -9.205   7.355 -21.169 -0.01 +0.01    -0.228 OA
DOCKED: BRANCH  22  24
DOCKED: ATOM     24  O   UNL d   1      -7.682   5.271 -20.871 -0.09 +0.03    -0.303 OA
DOCKED: ATOM     25  H   UNL d   1      -7.391   4.471 -21.378 +0.06 -0.03    +0.222 HD
DOCKED: ENDBRANCH  22  24
DOCKED: BRANCH  22  26
DOCKED: ATOM     26  O   UNL d   1      -7.804   6.303 -23.124 -0.00 +0.02    -0.303 OA
DOCKED: ATOM     27  H   UNL d   1      -7.990   5.565 -23.741 +0.02 -0.02    +0.222 HD
DOCKED: ENDBRANCH  22  26
DOCKED: ENDBRANCH  21  22
DOCKED: ENDBRANCH   6  21
DOCKED: BRANCH   3  28
DOCKED: ATOM     28  O   UNL d   1     -12.625   0.910 -19.953 -0.05 -0.22    -0.278 OA
DOCKED: BRANCH  28  29
DOCKED: ATOM     29  P   UNL d   1     -14.084   0.293 -20.114 -0.05 +0.27    +0.473 P 
DOCKED: ATOM     30  O   UNL d   1     -14.240  -0.708 -21.201 -0.01 -0.05    -0.228 OA
DOCKED: BRANCH  29  31
DOCKED: ATOM     31  O   UNL d   1     -14.339  -0.215 -18.618 -0.42 -0.42    -0.303 OA
DOCKED: ATOM     32  H   UNL d   1     -14.726   0.525 -18.097 +0.00 +0.35    +0.222 HD
DOCKED: ENDBRANCH  29  31
DOCKED: BRANCH  29  33
DOCKED: ATOM     33  O   UNL d   1     -14.991   1.598 -20.201 -0.02 -0.12    -0.303 OA
DOCKED: ATOM     34  H   UNL d   1     -14.487   2.365 -19.835 +0.01 +0.11    +0.222 HD
DOCKED: ENDBRANCH  29  33
DOCKED: ENDBRANCH  28  29
DOCKED: ENDBRANCH   3  28
DOCKED: BRANCH   5  35
DOCKED: ATOM     35  O   UNL d   1      -8.472   2.597 -21.129 -0.17 +0.02    -0.278 OA
DOCKED: BRANCH  35  36
DOCKED: ATOM     36  P   UNL d   1      -7.266   2.400 -22.155 -0.09 -0.11    +0.473 P 
DOCKED: ATOM     37  O   UNL d   1      -7.076   1.008 -22.667 -0.12 +0.07    -0.228 OA
DOCKED: BRANCH  36  38
DOCKED: ATOM     38  O   UNL d   1      -7.619   3.470 -23.281 -0.03 +0.03    -0.303 OA
DOCKED: ATOM     39  H   UNL d   1      -7.752   4.347 -22.861 +0.04 -0.02    +0.222 HD
DOCKED: ENDBRANCH  36  38
DOCKED: BRANCH  36  40
DOCKED: ATOM     40  O   UNL d   1      -6.045   3.055 -21.374 -0.38 +0.10    -0.303 OA
DOCKED: ATOM     41  H   UNL d   1      -6.195   3.061 -20.403 -0.49 -0.11    +0.222 HD
DOCKED: ENDBRANCH  36  40
DOCKED: ENDBRANCH  35  36
DOCKED: ENDBRANCH   5  35
DOCKED: BRANCH   4  42
DOCKED: ATOM     42  O   UNL d   1     -10.310   0.382 -21.581 -0.07 -0.02    -0.278 OA
DOCKED: BRANCH  42  43
DOCKED: ATOM     43  P   UNL d   1      -9.397  -0.710 -20.861 -0.13 -0.03    +0.473 P 
DOCKED: ATOM     44  O   UNL d   1     -10.086  -1.783 -20.092 -0.14 +0.01    -0.228 OA
DOCKED: BRANCH  43  45
DOCKED: ATOM     45  O   UNL d   1      -8.487  -1.244 -22.052 -0.08 +0.08    -0.303 OA
DOCKED: ATOM     46  H   UNL d   1      -7.898  -0.543 -22.395 +0.05 -0.06    +0.222 HD
DOCKED: ENDBRANCH  43  45
DOCKED: BRANCH  43  47
DOCKED: ATOM     47  O   UNL d   1      -8.354   0.177 -20.027 -0.22 +0.04    -0.303 OA
DOCKED: ATOM     48  H   UNL d   1      -7.737   0.619 -20.648 -0.11 -0.09    +0.222 HD
DOCKED: ENDBRANCH  43  47
DOCKED: ENDBRANCH  42  43
DOCKED: ENDBRANCH   4  42
DOCKED: TORSDOF 24
DOCKED: TER
DOCKED: ENDMDL
________________________________________________________________________________


	BEGINNING GENETIC ALGORITHM DOCKING 91 of 100
Run: 91 Seed: 600773517 1183737839 [ Run 91 of 100 GA/GALS ]
Beginning LAMARCKIAN GENETIC ALGORITHM (LGA), with a maximum of 25000000 energy evaluations.

Final-Value: -18.555


	FINAL GENETIC ALGORITHM DOCKED STATE
	_______________________________________________


Detailed state:  trans 4.809 -1.244 -18.915 quatxyzw 0.273986 0.137594 -0.875173 0.374261 center 0.035 0.082 -0.065 ntor 24 91.9567 138.7231 180.0000 29.7961 -20.4196 -18.7123 21.5679 178.5616 38.1264 -149.0244 44.4496 103.2711 -49.5664 180.0000 -73.6819 123.4415 -71.8627 180.0000 48.1371 -6.9307 -170.4971 -23.9840 -166.1251 17.2490
State:	  4.809  -1.244 -18.915   0.295  0.148 -0.944 136.043     91.96  138.72  180.00   29.80  -20.42  -18.71   21.57  178.56   38.13 -149.02   44.45  103.27  -49.57  180.00  -73.68  123.44  -71.86  180.00   48.14   -6.93 -170.50  -23.98 -166.13   17.25

DOCKED: MODEL       91
DOCKED: USER    Run = 91
DOCKED: USER    DPF = D:/Protein_go_brrr/autodock/final/mut_K82N/IHP/dock.dpf
DOCKED: USER  
DOCKED: USER    Estimated Free Energy of Binding    =   +2.01 kcal/mol  [=(1)+(2)+(3)-(4)]
DOCKED: USER    
DOCKED: USER    (1) Final Intermolecular Energy     =   -5.15 kcal/mol
DOCKED: USER        vdW + Hbond + desolv Energy     =   -4.81 kcal/mol
DOCKED: USER        Electrostatic Energy            =   -0.35 kcal/mol
DOCKED: USER    (2) Final Total Internal Energy     =  -13.40 kcal/mol
DOCKED: USER    (3) Torsional Free Energy           =   +7.16 kcal/mol
DOCKED: USER    (4) Unbound System's Energy  [=(2)] =  -13.40 kcal/mol
DOCKED: USER    
DOCKED: USER    
DOCKED: USER    NEWDPF move IHP_ideal_opt.pdbqt
DOCKED: USER    NEWDPF about 0.035000 0.082000 -0.065000
DOCKED: USER    NEWDPF tran0 4.808608 -1.243638 -18.915460
DOCKED: USER    NEWDPF quaternion0 0.273986 0.137594 -0.875173 0.374261
DOCKED: USER    NEWDPF axisangle0 0.295459 0.148377 -0.943763 136.042716
DOCKED: USER    NEWDPF quat0 0.295459 0.148377 -0.943763 136.042716
DOCKED: USER    NEWDPF dihe0 91.96 138.72 180.00 29.80 -20.42 -18.71 21.57 178.56 38.13 -149.02 44.45 103.27 -49.57 180.00 -73.68 123.44 -71.86 180.00 48.14 -6.93 -170.50 -23.98 -166.13 17.25 
DOCKED: USER  keepresnum = 1 
DOCKED: USER  
DOCKED: REMARK  24 active torsions:
DOCKED: REMARK  status: ('A' for Active; 'I' for Inactive)
DOCKED: REMARK    1  A    between atoms: C_1  and  O_7 
DOCKED: REMARK    2  A    between atoms: C_2  and  O_12 
DOCKED: REMARK    3  A    between atoms: C_3  and  O_17 
DOCKED: REMARK    4  A    between atoms: C_4  and  O_22 
DOCKED: REMARK    5  A    between atoms: C_5  and  O_27 
DOCKED: REMARK    6  A    between atoms: C_6  and  O_32 
DOCKED: REMARK    7  A    between atoms: O_7  and  P_8 
DOCKED: REMARK    8  A    between atoms: P_8  and  O_10 
DOCKED: REMARK    9  A    between atoms: P_8  and  O_11 
DOCKED: REMARK   10  A    between atoms: O_12  and  P_13 
DOCKED: REMARK   11  A    between atoms: P_13  and  O_15 
DOCKED: REMARK   12  A    between atoms: P_13  and  O_16 
DOCKED: REMARK   13  A    between atoms: O_17  and  P_18 
DOCKED: REMARK   14  A    between atoms: P_18  and  O_20 
DOCKED: REMARK   15  A    between atoms: P_18  and  O_21 
DOCKED: REMARK   16  A    between atoms: O_22  and  P_23 
DOCKED: REMARK   17  A    between atoms: P_23  and  O_25 
DOCKED: REMARK   18  A    between atoms: P_23  and  O_26 
DOCKED: REMARK   19  A    between atoms: O_27  and  P_28 
DOCKED: REMARK   20  A    between atoms: P_28  and  O_30 
DOCKED: REMARK   21  A    between atoms: P_28  and  O_31 
DOCKED: REMARK   22  A    between atoms: O_32  and  P_33 
DOCKED: REMARK   23  A    between atoms: P_33  and  O_35 
DOCKED: REMARK   24  A    between atoms: P_33  and  O_36 
DOCKED: USER                              x       y       z     vdW  Elec       q    Type
DOCKED: USER                           _______ _______ _______ _____ _____    ______ ____
DOCKED: ROOT
DOCKED: ATOM      1  C   UNL d   1       4.149   0.249 -18.349 -0.13 -0.06    +0.194 C 
DOCKED: ATOM      2  C   UNL d   1       5.541  -0.101 -17.820 -0.13 -0.06    +0.194 C 
DOCKED: ATOM      3  C   UNL d   1       5.642  -1.576 -17.423 -0.16 -0.06    +0.194 C 
DOCKED: ATOM      4  C   UNL d   1       5.187  -2.528 -18.527 -0.13 -0.06    +0.194 C 
DOCKED: ATOM      5  C   UNL d   1       3.855  -2.150 -19.163 -0.14 -0.06    +0.194 C 
DOCKED: ATOM      6  C   UNL d   1       3.731  -0.663 -19.503 -0.08 -0.05    +0.194 C 
DOCKED: ENDROOT
DOCKED: BRANCH   1   7
DOCKED: ATOM      7  O   UNL d   1       4.187   1.585 -18.855 -0.06 +0.07    -0.278 OA
DOCKED: BRANCH   7   8
DOCKED: ATOM      8  P   UNL d   1       4.227   2.792 -17.809 -0.13 -0.12    +0.473 P 
DOCKED: ATOM      9  O   UNL d   1       4.269   2.386 -16.378 -0.33 +0.08    -0.228 OA
DOCKED: BRANCH   8  10
DOCKED: ATOM     10  O   UNL d   1       5.497   3.649 -18.256 -0.04 +0.05    -0.303 OA
DOCKED: ATOM     11  H   UNL d   1       6.309   3.126 -18.119 +0.06 -0.06    +0.222 HD
DOCKED: ENDBRANCH   8  10
DOCKED: BRANCH   8  12
DOCKED: ATOM     12  O   UNL d   1       3.023   3.741 -18.226 -0.16 +0.08    -0.303 OA
DOCKED: ATOM     13  H   UNL d   1       2.192   3.547 -17.736 -0.38 -0.10    +0.222 HD
DOCKED: ENDBRANCH   8  12
DOCKED: ENDBRANCH   7   8
DOCKED: ENDBRANCH   1   7
DOCKED: BRANCH   2  14
DOCKED: ATOM     14  O   UNL d   1       6.509   0.164 -18.843 -0.02 +0.08    -0.278 OA
DOCKED: BRANCH  14  15
DOCKED: ATOM     15  P   UNL d   1       7.711   1.148 -18.453 -0.01 -0.16    +0.473 P 
DOCKED: ATOM     16  O   UNL d   1       7.908   2.347 -19.326 -0.01 +0.05    -0.228 OA
DOCKED: BRANCH  15  17
DOCKED: ATOM     17  O   UNL d   1       7.421   1.531 -16.934 -0.12 +0.21    -0.303 OA
DOCKED: ATOM     18  H   UNL d   1       7.774   0.853 -16.327 +0.06 -0.20    +0.222 HD
DOCKED: ENDBRANCH  15  17
DOCKED: BRANCH  15  19
DOCKED: ATOM     19  O   UNL d   1       8.974   0.192 -18.305 -0.01 +0.10    -0.303 OA
DOCKED: ATOM     20  H   UNL d   1       8.717  -0.702 -18.013 +0.03 -0.07    +0.222 HD
DOCKED: ENDBRANCH  15  19
DOCKED: ENDBRANCH  14  15
DOCKED: ENDBRANCH   2  14
DOCKED: BRANCH   6  21
DOCKED: ATOM     21  O   UNL d   1       2.350  -0.413 -19.756 -0.08 +0.08    -0.278 OA
DOCKED: BRANCH  21  22
DOCKED: ATOM     22  P   UNL d   1       1.377  -0.049 -18.545 -0.26 -0.15    +0.473 P 
DOCKED: ATOM     23  O   UNL d   1       1.496  -0.837 -17.284 -0.08 +0.08    -0.228 OA
DOCKED: BRANCH  22  24
DOCKED: ATOM     24  O   UNL d   1       1.629   1.514 -18.382 -0.25 +0.07    -0.303 OA
DOCKED: ATOM     25  H   UNL d   1       2.409   1.639 -17.784 +0.11 -0.07    +0.222 HD
DOCKED: ENDBRANCH  22  24
DOCKED: BRANCH  22  26
DOCKED: ATOM     26  O   UNL d   1      -0.058  -0.080 -19.260 -0.79 +0.09    -0.303 OA
DOCKED: ATOM     27  H   UNL d   1      -0.758  -0.072 -18.577 -0.37 -0.12    +0.222 HD
DOCKED: ENDBRANCH  22  26
DOCKED: ENDBRANCH  21  22
DOCKED: ENDBRANCH   6  21
DOCKED: BRANCH   3  28
DOCKED: ATOM     28  O   UNL d   1       7.017  -1.869 -17.214 -0.06 +0.10    -0.278 OA
DOCKED: BRANCH  28  29
DOCKED: ATOM     29  P   UNL d   1       7.688  -1.613 -15.793 -0.11 -0.25    +0.473 P 
DOCKED: ATOM     30  O   UNL d   1       7.789  -2.802 -14.908 -0.15 +0.09    -0.228 OA
DOCKED: BRANCH  29  31
DOCKED: ATOM     31  O   UNL d   1       9.060  -0.929 -16.251 -0.05 +0.16    -0.303 OA
DOCKED: ATOM     32  H   UNL d   1       8.867  -0.014 -16.561 +0.05 -0.14    +0.222 HD
DOCKED: ENDBRANCH  29  31
DOCKED: BRANCH  29  33
DOCKED: ATOM     33  O   UNL d   1       6.845  -0.378 -15.244 -0.11 +0.30    -0.303 OA
DOCKED: ATOM     34  H   UNL d   1       7.462   0.369 -15.047 -0.03 -0.37    +0.222 HD
DOCKED: ENDBRANCH  29  33
DOCKED: ENDBRANCH  28  29
DOCKED: ENDBRANCH   3  28
DOCKED: BRANCH   5  35
DOCKED: ATOM     35  O   UNL d   1       3.796  -2.869 -20.393 -0.05 +0.10    -0.278 OA
DOCKED: BRANCH  35  36
DOCKED: ATOM     36  P   UNL d   1       5.121  -3.109 -21.249 -0.00 -0.14    +0.473 P 
DOCKED: ATOM     37  O   UNL d   1       6.193  -2.080 -21.080 -0.01 +0.05    -0.228 OA
DOCKED: BRANCH  36  38
DOCKED: ATOM     38  O   UNL d   1       5.543  -4.575 -20.792 -0.04 +0.11    -0.303 OA
DOCKED: ATOM     39  H   UNL d   1       5.273  -4.710 -19.858 +0.02 -0.11    +0.222 HD
DOCKED: ENDBRANCH  36  38
DOCKED: BRANCH  36  40
DOCKED: ATOM     40  O   UNL d   1       4.544  -3.317 -22.716 -0.00 +0.08    -0.303 OA
DOCKED: ATOM     41  H   UNL d   1       5.258  -3.311 -23.392 +0.01 -0.05    +0.222 HD
DOCKED: ENDBRANCH  36  40
DOCKED: ENDBRANCH  35  36
DOCKED: ENDBRANCH   5  35
DOCKED: BRANCH   4  42
DOCKED: ATOM     42  O   UNL d   1       5.015  -3.813 -17.920 -0.19 +0.12    -0.278 OA
DOCKED: BRANCH  42  43
DOCKED: ATOM     43  P   UNL d   1       6.225  -4.851 -17.956 -0.12 -0.18    +0.473 P 
DOCKED: ATOM     44  O   UNL d   1       5.912  -6.258 -18.335 -0.32 +0.11    -0.228 OA
DOCKED: BRANCH  43  45
DOCKED: ATOM     45  O   UNL d   1       7.271  -4.135 -18.918 -0.02 +0.08    -0.303 OA
DOCKED: ATOM     46  H   UNL d   1       6.822  -3.559 -19.569 +0.03 -0.06    +0.222 HD
DOCKED: ENDBRANCH  43  45
DOCKED: BRANCH  43  47
DOCKED: ATOM     47  O   UNL d   1       6.916  -4.658 -16.523 -0.10 +0.09    -0.303 OA
DOCKED: ATOM     48  H   UNL d   1       7.460  -3.844 -16.534 +0.07 -0.06    +0.222 HD
DOCKED: ENDBRANCH  43  47
DOCKED: ENDBRANCH  42  43
DOCKED: ENDBRANCH   4  42
DOCKED: TORSDOF 24
DOCKED: TER
DOCKED: ENDMDL
________________________________________________________________________________


	BEGINNING GENETIC ALGORITHM DOCKING 92 of 100
Run: 92 Seed: 875051777 1040709834 [ Run 92 of 100 GA/GALS ]
Beginning LAMARCKIAN GENETIC ALGORITHM (LGA), with a maximum of 25000000 energy evaluations.

Final-Value: -18.670


	FINAL GENETIC ALGORITHM DOCKED STATE
	_______________________________________________


Detailed state:  trans -13.483 -1.654 -2.634 quatxyzw 0.504998 0.605400 0.091453 -0.608362 center 0.035 0.082 -0.065 ntor 24 -169.3625 -24.4049 57.6994 106.2627 -2.2287 -126.8763 -108.3300 14.2825 20.4111 -93.2252 176.2324 -90.8102 92.6215 -18.8143 -18.3034 34.3321 173.0547 -40.6060 -7.7831 -16.9283 160.4560 167.7923 -16.2527 -24.5806
State:	-13.483  -1.654  -2.634   0.636  0.763  0.115 -105.058   -169.36  -24.40   57.70  106.26   -2.23 -126.88 -108.33   14.28   20.41  -93.23  176.23  -90.81   92.62  -18.81  -18.30   34.33  173.05  -40.61   -7.78  -16.93  160.46  167.79  -16.25  -24.58

DOCKED: MODEL       92
DOCKED: USER    Run = 92
DOCKED: USER    DPF = D:/Protein_go_brrr/autodock/final/mut_K82N/IHP/dock.dpf
DOCKED: USER  
DOCKED: USER    Estimated Free Energy of Binding    =   +3.07 kcal/mol  [=(1)+(2)+(3)-(4)]
DOCKED: USER    
DOCKED: USER    (1) Final Intermolecular Energy     =   -4.09 kcal/mol
DOCKED: USER        vdW + Hbond + desolv Energy     =   -3.73 kcal/mol
DOCKED: USER        Electrostatic Energy            =   -0.36 kcal/mol
DOCKED: USER    (2) Final Total Internal Energy     =  -14.58 kcal/mol
DOCKED: USER    (3) Torsional Free Energy           =   +7.16 kcal/mol
DOCKED: USER    (4) Unbound System's Energy  [=(2)] =  -14.58 kcal/mol
DOCKED: USER    
DOCKED: USER    
DOCKED: USER    NEWDPF move IHP_ideal_opt.pdbqt
DOCKED: USER    NEWDPF about 0.035000 0.082000 -0.065000
DOCKED: USER    NEWDPF tran0 -13.482632 -1.654480 -2.634111
DOCKED: USER    NEWDPF quaternion0 0.504998 0.605400 0.091453 -0.608362
DOCKED: USER    NEWDPF axisangle0 0.636290 0.762796 0.115229 -105.057750
DOCKED: USER    NEWDPF quat0 0.636290 0.762796 0.115229 -105.057750
DOCKED: USER    NEWDPF dihe0 -169.36 -24.40 57.70 106.26 -2.23 -126.88 -108.33 14.28 20.41 -93.23 176.23 -90.81 92.62 -18.81 -18.30 34.33 173.05 -40.61 -7.78 -16.93 160.46 167.79 -16.25 -24.58 
DOCKED: USER  keepresnum = 1 
DOCKED: USER  
DOCKED: REMARK  24 active torsions:
DOCKED: REMARK  status: ('A' for Active; 'I' for Inactive)
DOCKED: REMARK    1  A    between atoms: C_1  and  O_7 
DOCKED: REMARK    2  A    between atoms: C_2  and  O_12 
DOCKED: REMARK    3  A    between atoms: C_3  and  O_17 
DOCKED: REMARK    4  A    between atoms: C_4  and  O_22 
DOCKED: REMARK    5  A    between atoms: C_5  and  O_27 
DOCKED: REMARK    6  A    between atoms: C_6  and  O_32 
DOCKED: REMARK    7  A    between atoms: O_7  and  P_8 
DOCKED: REMARK    8  A    between atoms: P_8  and  O_10 
DOCKED: REMARK    9  A    between atoms: P_8  and  O_11 
DOCKED: REMARK   10  A    between atoms: O_12  and  P_13 
DOCKED: REMARK   11  A    between atoms: P_13  and  O_15 
DOCKED: REMARK   12  A    between atoms: P_13  and  O_16 
DOCKED: REMARK   13  A    between atoms: O_17  and  P_18 
DOCKED: REMARK   14  A    between atoms: P_18  and  O_20 
DOCKED: REMARK   15  A    between atoms: P_18  and  O_21 
DOCKED: REMARK   16  A    between atoms: O_22  and  P_23 
DOCKED: REMARK   17  A    between atoms: P_23  and  O_25 
DOCKED: REMARK   18  A    between atoms: P_23  and  O_26 
DOCKED: REMARK   19  A    between atoms: O_27  and  P_28 
DOCKED: REMARK   20  A    between atoms: P_28  and  O_30 
DOCKED: REMARK   21  A    between atoms: P_28  and  O_31 
DOCKED: REMARK   22  A    between atoms: O_32  and  P_33 
DOCKED: REMARK   23  A    between atoms: P_33  and  O_35 
DOCKED: REMARK   24  A    between atoms: P_33  and  O_36 
DOCKED: USER                              x       y       z     vdW  Elec       q    Type
DOCKED: USER                           _______ _______ _______ _____ _____    ______ ____
DOCKED: ROOT
DOCKED: ATOM      1  C   UNL d   1     -12.958  -1.568  -4.278 -0.05 +0.01    +0.194 C 
DOCKED: ATOM      2  C   UNL d   1     -13.978  -2.664  -3.967 -0.01 -0.02    +0.194 C 
DOCKED: ATOM      3  C   UNL d   1     -13.652  -3.387  -2.658 -0.03 -0.06    +0.194 C 
DOCKED: ATOM      4  C   UNL d   1     -13.449  -2.436  -1.481 -0.06 -0.08    +0.194 C 
DOCKED: ATOM      5  C   UNL d   1     -12.528  -1.262  -1.782 -0.09 -0.05    +0.194 C 
DOCKED: ATOM      6  C   UNL d   1     -12.814  -0.578  -3.121 -0.08 +0.02    +0.194 C 
DOCKED: ENDROOT
DOCKED: BRANCH   1   7
DOCKED: ATOM      7  O   UNL d   1     -13.424  -0.833  -5.412 -0.03 -0.06    -0.278 OA
DOCKED: BRANCH   7   8
DOCKED: ATOM      8  P   UNL d   1     -12.412  -0.581  -6.622 -0.08 +0.17    +0.473 P 
DOCKED: ATOM      9  O   UNL d   1     -13.029  -0.607  -7.976 -0.06 -0.07    -0.228 OA
DOCKED: BRANCH   8  10
DOCKED: ATOM     10  O   UNL d   1     -11.727   0.816  -6.270 -0.27 -0.31    -0.303 OA
DOCKED: ATOM     11  H   UNL d   1     -11.651   0.908  -5.302 +0.05 +0.24    +0.222 HD
DOCKED: ENDBRANCH   8  10
DOCKED: BRANCH   8  12
DOCKED: ATOM     12  O   UNL d   1     -11.220  -1.605  -6.383 -0.11 -0.06    -0.303 OA
DOCKED: ATOM     13  H   UNL d   1     -10.666  -1.376  -5.602 +0.07 +0.04    +0.222 HD
DOCKED: ENDBRANCH   8  12
DOCKED: ENDBRANCH   7   8
DOCKED: ENDBRANCH   1   7
DOCKED: BRANCH   2  14
DOCKED: ATOM     14  O   UNL d   1     -15.278  -2.073  -3.850 -0.00 +0.01    -0.278 OA
DOCKED: BRANCH  14  15
DOCKED: ATOM     15  P   UNL d   1     -16.358  -2.494  -4.955 +0.01 -0.00    +0.473 P 
DOCKED: ATOM     16  O   UNL d   1     -16.320  -3.915  -5.424 -0.00 +0.01    -0.228 OA
DOCKED: BRANCH  15  17
DOCKED: ATOM     17  O   UNL d   1     -17.756  -2.097  -4.303 +0.00 +0.00    -0.303 OA
DOCKED: ATOM     18  H   UNL d   1     -17.761  -2.280  -3.344 +0.00 -0.01    +0.222 HD
DOCKED: ENDBRANCH  15  17
DOCKED: BRANCH  15  19
DOCKED: ATOM     19  O   UNL d   1     -16.212  -1.392  -6.093 +0.00 -0.02    -0.303 OA
DOCKED: ATOM     20  H   UNL d   1     -15.278  -1.233  -6.323 +0.01 +0.03    +0.222 HD
DOCKED: ENDBRANCH  15  19
DOCKED: ENDBRANCH  14  15
DOCKED: ENDBRANCH   2  14
DOCKED: BRANCH   6  21
DOCKED: ATOM     21  O   UNL d   1     -11.687   0.246  -3.412 -0.13 -0.10    -0.278 OA
DOCKED: BRANCH  21  22
DOCKED: ATOM     22  P   UNL d   1     -10.236  -0.407  -3.517 -0.18 +0.08    +0.473 P 
DOCKED: ATOM     23  O   UNL d   1     -10.134  -1.894  -3.574 -0.21 +0.02    -0.228 OA
DOCKED: BRANCH  22  24
DOCKED: ATOM     24  O   UNL d   1      -9.628   0.352  -4.778 -0.20 -0.14    -0.303 OA
DOCKED: ATOM     25  H   UNL d   1     -10.124   0.057  -5.584 +0.08 +0.11    +0.222 HD
DOCKED: ENDBRANCH  22  24
DOCKED: BRANCH  22  26
DOCKED: ATOM     26  O   UNL d   1      -9.470   0.305  -2.302 -0.28 -0.01    -0.303 OA
DOCKED: ATOM     27  H   UNL d   1      -9.939   0.106  -1.466 -0.05 -0.03    +0.222 HD
DOCKED: ENDBRANCH  22  26
DOCKED: ENDBRANCH  21  22
DOCKED: ENDBRANCH   6  21
DOCKED: BRANCH   3  28
DOCKED: ATOM     28  O   UNL d   1     -14.782  -4.179  -2.314 -0.01 +0.08    -0.278 OA
DOCKED: BRANCH  28  29
DOCKED: ATOM     29  P   UNL d   1     -16.032  -3.520  -1.580 +0.01 -0.09    +0.473 P 
DOCKED: ATOM     30  O   UNL d   1     -16.005  -2.039  -1.473 +0.00 +0.03    -0.228 OA
DOCKED: BRANCH  29  31
DOCKED: ATOM     31  O   UNL d   1     -17.226  -4.165  -2.429 +0.00 +0.03    -0.303 OA
DOCKED: ATOM     32  H   UNL d   1     -17.092  -3.941  -3.379 +0.00 -0.02    +0.222 HD
DOCKED: ENDBRANCH  29  31
DOCKED: BRANCH  29  33
DOCKED: ATOM     33  O   UNL d   1     -16.089  -4.340  -0.216 -0.00 +0.08    -0.303 OA
DOCKED: ATOM     34  H   UNL d   1     -15.346  -4.046   0.366 +0.02 -0.09    +0.222 HD
DOCKED: ENDBRANCH  29  33
DOCKED: ENDBRANCH  28  29
DOCKED: ENDBRANCH   3  28
DOCKED: BRANCH   5  35
DOCKED: ATOM     35  O   UNL d   1     -12.776  -0.301  -0.758 -0.06 +0.04    -0.278 OA
DOCKED: BRANCH  35  36
DOCKED: ATOM     36  P   UNL d   1     -11.636   0.066   0.295 -0.18 -0.10    +0.473 P 
DOCKED: ATOM     37  O   UNL d   1     -12.104   0.309   1.694 -0.15 +0.04    -0.228 OA
DOCKED: BRANCH  36  38
DOCKED: ATOM     38  O   UNL d   1     -10.642  -1.169   0.142 -0.19 +0.18    -0.303 OA
DOCKED: ATOM     39  H   UNL d   1     -11.155  -2.004   0.199 -0.08 -0.26    +0.222 HD
DOCKED: ENDBRANCH  36  38
DOCKED: BRANCH  36  40
DOCKED: ATOM     40  O   UNL d   1     -10.876   1.260  -0.430 -0.24 +0.01    -0.303 OA
DOCKED: ATOM     41  H   UNL d   1      -9.900   1.155  -0.379 -0.42 -0.09    +0.222 HD
DOCKED: ENDBRANCH  36  40
DOCKED: ENDBRANCH  35  36
DOCKED: ENDBRANCH   5  35
DOCKED: BRANCH   4  42
DOCKED: ATOM     42  O   UNL d   1     -12.834  -3.197  -0.435 -0.05 +0.33    -0.278 OA
DOCKED: BRANCH  42  43
DOCKED: ATOM     43  P   UNL d   1     -13.375  -3.035   1.057 +0.00 -0.48    +0.473 P 
DOCKED: ATOM     44  O   UNL d   1     -14.577  -2.181   1.263 -0.02 +0.09    -0.228 OA
DOCKED: BRANCH  43  45
DOCKED: ATOM     45  O   UNL d   1     -13.560  -4.544   1.526 -0.07 +0.42    -0.303 OA
DOCKED: ATOM     46  H   UNL d   1     -12.836  -4.826   2.119 -0.47 -0.54    +0.222 HD
DOCKED: ENDBRANCH  43  45
DOCKED: BRANCH  43  47
DOCKED: ATOM     47  O   UNL d   1     -12.067  -2.598   1.875 -0.17 +0.41    -0.303 OA
DOCKED: ATOM     48  H   UNL d   1     -11.981  -1.623   1.848 +0.07 -0.16    +0.222 HD
DOCKED: ENDBRANCH  43  47
DOCKED: ENDBRANCH  42  43
DOCKED: ENDBRANCH   4  42
DOCKED: TORSDOF 24
DOCKED: TER
DOCKED: ENDMDL
________________________________________________________________________________


	BEGINNING GENETIC ALGORITHM DOCKING 93 of 100
Run: 93 Seed: 1128405187 573203894 [ Run 93 of 100 GA/GALS ]
Beginning LAMARCKIAN GENETIC ALGORITHM (LGA), with a maximum of 25000000 energy evaluations.

Final-Value: -21.077


	FINAL GENETIC ALGORITHM DOCKED STATE
	_______________________________________________


Detailed state:  trans 8.754 -14.845 -1.850 quatxyzw -0.049429 -0.379915 0.484138 -0.786659 center 0.035 0.082 -0.065 ntor 24 144.5794 97.7596 171.3293 121.8981 60.1739 88.1452 -34.9323 -165.4669 84.9449 75.8982 119.5623 97.6859 135.8899 92.2724 82.3739 147.6689 50.9706 87.3049 34.3684 -24.1538 164.8054 -36.3934 15.5788 -43.5228
State:	  8.754 -14.845  -1.850  -0.080 -0.615  0.784 -76.251    144.58   97.76  171.33  121.90   60.17   88.15  -34.93 -165.47   84.94   75.90  119.56   97.69  135.89   92.27   82.37  147.67   50.97   87.30   34.37  -24.15  164.81  -36.39   15.58  -43.52

DOCKED: MODEL       93
DOCKED: USER    Run = 93
DOCKED: USER    DPF = D:/Protein_go_brrr/autodock/final/mut_K82N/IHP/dock.dpf
DOCKED: USER  
DOCKED: USER    Estimated Free Energy of Binding    =   +0.86 kcal/mol  [=(1)+(2)+(3)-(4)]
DOCKED: USER    
DOCKED: USER    (1) Final Intermolecular Energy     =   -6.30 kcal/mol
DOCKED: USER        vdW + Hbond + desolv Energy     =   -5.95 kcal/mol
DOCKED: USER        Electrostatic Energy            =   -0.35 kcal/mol
DOCKED: USER    (2) Final Total Internal Energy     =  -14.78 kcal/mol
DOCKED: USER    (3) Torsional Free Energy           =   +7.16 kcal/mol
DOCKED: USER    (4) Unbound System's Energy  [=(2)] =  -14.78 kcal/mol
DOCKED: USER    
DOCKED: USER    
DOCKED: USER    NEWDPF move IHP_ideal_opt.pdbqt
DOCKED: USER    NEWDPF about 0.035000 0.082000 -0.065000
DOCKED: USER    NEWDPF tran0 8.754349 -14.845365 -1.850115
DOCKED: USER    NEWDPF quaternion0 -0.049429 -0.379915 0.484138 -0.786659
DOCKED: USER    NEWDPF axisangle0 -0.080061 -0.615358 0.784171 -76.251217
DOCKED: USER    NEWDPF quat0 -0.080061 -0.615358 0.784171 -76.251217
DOCKED: USER    NEWDPF dihe0 144.58 97.76 171.33 121.90 60.17 88.15 -34.93 -165.47 84.94 75.90 119.56 97.69 135.89 92.27 82.37 147.67 50.97 87.30 34.37 -24.15 164.81 -36.39 15.58 -43.52 
DOCKED: USER  keepresnum = 1 
DOCKED: USER  
DOCKED: REMARK  24 active torsions:
DOCKED: REMARK  status: ('A' for Active; 'I' for Inactive)
DOCKED: REMARK    1  A    between atoms: C_1  and  O_7 
DOCKED: REMARK    2  A    between atoms: C_2  and  O_12 
DOCKED: REMARK    3  A    between atoms: C_3  and  O_17 
DOCKED: REMARK    4  A    between atoms: C_4  and  O_22 
DOCKED: REMARK    5  A    between atoms: C_5  and  O_27 
DOCKED: REMARK    6  A    between atoms: C_6  and  O_32 
DOCKED: REMARK    7  A    between atoms: O_7  and  P_8 
DOCKED: REMARK    8  A    between atoms: P_8  and  O_10 
DOCKED: REMARK    9  A    between atoms: P_8  and  O_11 
DOCKED: REMARK   10  A    between atoms: O_12  and  P_13 
DOCKED: REMARK   11  A    between atoms: P_13  and  O_15 
DOCKED: REMARK   12  A    between atoms: P_13  and  O_16 
DOCKED: REMARK   13  A    between atoms: O_17  and  P_18 
DOCKED: REMARK   14  A    between atoms: P_18  and  O_20 
DOCKED: REMARK   15  A    between atoms: P_18  and  O_21 
DOCKED: REMARK   16  A    between atoms: O_22  and  P_23 
DOCKED: REMARK   17  A    between atoms: P_23  and  O_25 
DOCKED: REMARK   18  A    between atoms: P_23  and  O_26 
DOCKED: REMARK   19  A    between atoms: O_27  and  P_28 
DOCKED: REMARK   20  A    between atoms: P_28  and  O_30 
DOCKED: REMARK   21  A    between atoms: P_28  and  O_31 
DOCKED: REMARK   22  A    between atoms: O_32  and  P_33 
DOCKED: REMARK   23  A    between atoms: P_33  and  O_35 
DOCKED: REMARK   24  A    between atoms: P_33  and  O_36 
DOCKED: USER                              x       y       z     vdW  Elec       q    Type
DOCKED: USER                           _______ _______ _______ _____ _____    ______ ____
DOCKED: ROOT
DOCKED: ATOM      1  C   UNL d   1       9.191 -14.541  -0.207 -0.12 +0.03    +0.194 C 
DOCKED: ATOM      2  C   UNL d   1       9.708 -15.854  -0.795 -0.08 +0.02    +0.194 C 
DOCKED: ATOM      3  C   UNL d   1       8.635 -16.567  -1.621 -0.06 +0.03    +0.194 C 
DOCKED: ATOM      4  C   UNL d   1       7.998 -15.671  -2.681 -0.11 +0.03    +0.194 C 
DOCKED: ATOM      5  C   UNL d   1       7.571 -14.304  -2.162 -0.15 +0.03    +0.194 C 
DOCKED: ATOM      6  C   UNL d   1       8.620 -13.618  -1.285 -0.09 +0.03    +0.194 C 
DOCKED: ENDROOT
DOCKED: BRANCH   1   7
DOCKED: ATOM      7  O   UNL d   1      10.292 -13.859   0.399 -0.05 -0.04    -0.278 OA
DOCKED: BRANCH   7   8
DOCKED: ATOM      8  P   UNL d   1      10.637 -14.180   1.925 -0.09 +0.13    +0.473 P 
DOCKED: ATOM      9  O   UNL d   1      11.679 -13.308   2.533 -0.11 -0.07    -0.228 OA
DOCKED: BRANCH   8  10
DOCKED: ATOM     10  O   UNL d   1       9.229 -14.088   2.668 -0.20 -0.13    -0.303 OA
DOCKED: ATOM     11  H   UNL d   1       8.576 -13.665   2.080 +0.09 +0.07    +0.222 HD
DOCKED: ENDBRANCH   8  10
DOCKED: BRANCH   8  12
DOCKED: ATOM     12  O   UNL d   1      10.931 -15.741   1.962 -0.05 -0.07    -0.303 OA
DOCKED: ATOM     13  H   UNL d   1      11.602 -16.023   1.299 +0.03 +0.03    +0.222 HD
DOCKED: ENDBRANCH   8  12
DOCKED: ENDBRANCH   7   8
DOCKED: ENDBRANCH   1   7
DOCKED: BRANCH   2  14
DOCKED: ATOM     14  O   UNL d   1      10.828 -15.576  -1.645 -0.01 -0.02    -0.278 OA
DOCKED: BRANCH  14  15
DOCKED: ATOM     15  P   UNL d   1      12.270 -16.000  -1.091 +0.01 +0.02    +0.473 P 
DOCKED: ATOM     16  O   UNL d   1      13.283 -16.424  -2.108 -0.00 -0.00    -0.228 OA
DOCKED: BRANCH  15  17
DOCKED: ATOM     17  O   UNL d   1      12.742 -14.741  -0.236 -0.00 -0.02    -0.303 OA
DOCKED: ATOM     18  H   UNL d   1      12.275 -14.702   0.620 +0.02 +0.02    +0.222 HD
DOCKED: ENDBRANCH  15  17
DOCKED: BRANCH  15  19
DOCKED: ATOM     19  O   UNL d   1      11.959 -17.063   0.051 -0.01 -0.02    -0.303 OA
DOCKED: ATOM     20  H   UNL d   1      11.508 -17.851  -0.303 +0.02 +0.01    +0.222 HD
DOCKED: ENDBRANCH  15  19
DOCKED: ENDBRANCH  14  15
DOCKED: ENDBRANCH   2  14
DOCKED: BRANCH   6  21
DOCKED: ATOM     21  O   UNL d   1       7.960 -12.548  -0.613 -0.14 -0.04    -0.278 OA
DOCKED: BRANCH  21  22
DOCKED: ATOM     22  P   UNL d   1       6.764 -12.863   0.394 -0.28 +0.13    +0.473 P 
DOCKED: ATOM     23  O   UNL d   1       6.976 -12.595   1.846 -0.41 -0.07    -0.228 OA
DOCKED: BRANCH  22  24
DOCKED: ATOM     24  O   UNL d   1       5.562 -12.054  -0.265 -0.28 -0.07    -0.303 OA
DOCKED: ATOM     25  H   UNL d   1       5.923 -11.531  -1.025 +0.12 +0.04    +0.222 HD
DOCKED: ENDBRANCH  22  24
DOCKED: BRANCH  22  26
DOCKED: ATOM     26  O   UNL d   1       6.400 -14.375   0.004 -0.79 -0.15    -0.303 OA
DOCKED: ATOM     27  H   UNL d   1       5.768 -14.371  -0.743 -0.49 +0.03    +0.222 HD
DOCKED: ENDBRANCH  22  26
DOCKED: ENDBRANCH  21  22
DOCKED: ENDBRANCH   6  21
DOCKED: BRANCH   3  28
DOCKED: ATOM     28  O   UNL d   1       9.275 -17.611  -2.345 -0.07 -0.03    -0.278 OA
DOCKED: BRANCH  28  29
DOCKED: ATOM     29  P   UNL d   1       9.743 -18.937  -1.598 -0.05 +0.02    +0.473 P 
DOCKED: ATOM     30  O   UNL d   1       9.163 -20.203  -2.115 -0.08 -0.01    -0.228 OA
DOCKED: BRANCH  29  31
DOCKED: ATOM     31  O   UNL d   1      11.331 -18.771  -1.702 -0.01 -0.01    -0.303 OA
DOCKED: ATOM     32  H   UNL d   1      11.534 -17.833  -1.925 +0.01 +0.01    +0.222 HD
DOCKED: ENDBRANCH  29  31
DOCKED: BRANCH  29  33
DOCKED: ATOM     33  O   UNL d   1       9.452 -18.583  -0.073 -0.09 -0.02    -0.303 OA
DOCKED: ATOM     34  H   UNL d   1      10.310 -18.411   0.386 +0.03 +0.02    +0.222 HD
DOCKED: ENDBRANCH  29  33
DOCKED: ENDBRANCH  28  29
DOCKED: ENDBRANCH   3  28
DOCKED: BRANCH   5  35
DOCKED: ATOM     35  O   UNL d   1       7.393 -13.489  -3.319 -0.08 -0.06    -0.278 OA
DOCKED: BRANCH  35  36
DOCKED: ATOM     36  P   UNL d   1       6.264 -12.363  -3.344 -0.13 +0.18    +0.473 P 
DOCKED: ATOM     37  O   UNL d   1       6.720 -10.985  -2.979 -0.34 -0.06    -0.228 OA
DOCKED: BRANCH  36  38
DOCKED: ATOM     38  O   UNL d   1       5.705 -12.495  -4.829 -0.61 -0.19    -0.303 OA
DOCKED: ATOM     39  H   UNL d   1       6.013 -13.343  -5.214 +0.07 +0.11    +0.222 HD
DOCKED: ENDBRANCH  36  38
DOCKED: BRANCH  36  40
DOCKED: ATOM     40  O   UNL d   1       5.121 -13.007  -2.445 -0.20 -0.14    -0.303 OA
DOCKED: ATOM     41  H   UNL d   1       5.494 -13.551  -1.716 -0.34 +0.04    +0.222 HD
DOCKED: ENDBRANCH  36  40
DOCKED: ENDBRANCH  35  36
DOCKED: ENDBRANCH   5  35
DOCKED: BRANCH   4  42
DOCKED: ATOM     42  O   UNL d   1       6.815 -16.339  -3.132 -0.17 -0.08    -0.278 OA
DOCKED: BRANCH  42  43
DOCKED: ATOM     43  P   UNL d   1       6.261 -16.024  -4.594 -0.09 +0.25    +0.473 P 
DOCKED: ATOM     44  O   UNL d   1       5.885 -17.183  -5.450 -0.09 -0.11    -0.228 OA
DOCKED: BRANCH  43  45
DOCKED: ATOM     45  O   UNL d   1       5.066 -15.014  -4.304 -0.33 -0.41    -0.303 OA
DOCKED: ATOM     46  H   UNL d   1       5.333 -14.315  -3.673 -0.20 +0.18    +0.222 HD
DOCKED: ENDBRANCH  43  45
DOCKED: BRANCH  43  47
DOCKED: ATOM     47  O   UNL d   1       7.374 -15.045  -5.204 -0.01 -0.08    -0.303 OA
DOCKED: ATOM     48  H   UNL d   1       7.197 -14.129  -4.906 +0.05 +0.06    +0.222 HD
DOCKED: ENDBRANCH  43  47
DOCKED: ENDBRANCH  42  43
DOCKED: ENDBRANCH   4  42
DOCKED: TORSDOF 24
DOCKED: TER
DOCKED: ENDMDL
________________________________________________________________________________


	BEGINNING GENETIC ALGORITHM DOCKING 94 of 100
Run: 94 Seed: 1730883160 806206758 [ Run 94 of 100 GA/GALS ]
Beginning LAMARCKIAN GENETIC ALGORITHM (LGA), with a maximum of 25000000 energy evaluations.

Final-Value: -15.579


	FINAL GENETIC ALGORITHM DOCKED STATE
	_______________________________________________


Detailed state:  trans -13.784 -8.896 -0.240 quatxyzw -0.797409 0.401923 0.149061 0.424709 center 0.035 0.082 -0.065 ntor 24 -173.9205 27.7814 -28.4757 90.7365 -2.5480 -5.1351 -172.5788 36.7520 5.1001 80.7582 -38.1211 -43.8768 -91.7461 -175.8501 -75.6660 65.0533 -88.4455 -93.1505 40.1157 -7.2047 60.4051 153.0851 -176.5648 -140.7220
State:	-13.784  -8.896  -0.240  -0.881  0.444  0.165 129.735   -173.92   27.78  -28.48   90.74   -2.55   -5.14 -172.58   36.75    5.10   80.76  -38.12  -43.88  -91.75 -175.85  -75.67   65.05  -88.45  -93.15   40.12   -7.20   60.41  153.09 -176.56 -140.72

DOCKED: MODEL       94
DOCKED: USER    Run = 94
DOCKED: USER    DPF = D:/Protein_go_brrr/autodock/final/mut_K82N/IHP/dock.dpf
DOCKED: USER  
DOCKED: USER    Estimated Free Energy of Binding    =   +3.55 kcal/mol  [=(1)+(2)+(3)-(4)]
DOCKED: USER    
DOCKED: USER    (1) Final Intermolecular Energy     =   -3.61 kcal/mol
DOCKED: USER        vdW + Hbond + desolv Energy     =   -3.49 kcal/mol
DOCKED: USER        Electrostatic Energy            =   -0.12 kcal/mol
DOCKED: USER    (2) Final Total Internal Energy     =  -11.97 kcal/mol
DOCKED: USER    (3) Torsional Free Energy           =   +7.16 kcal/mol
DOCKED: USER    (4) Unbound System's Energy  [=(2)] =  -11.97 kcal/mol
DOCKED: USER    
DOCKED: USER    
DOCKED: USER    NEWDPF move IHP_ideal_opt.pdbqt
DOCKED: USER    NEWDPF about 0.035000 0.082000 -0.065000
DOCKED: USER    NEWDPF tran0 -13.784420 -8.895517 -0.239759
DOCKED: USER    NEWDPF quaternion0 -0.797409 0.401923 0.149061 0.424709
DOCKED: USER    NEWDPF axisangle0 -0.880793 0.443952 0.164649 129.735465
DOCKED: USER    NEWDPF quat0 -0.880793 0.443952 0.164649 129.735465
DOCKED: USER    NEWDPF dihe0 -173.92 27.78 -28.48 90.74 -2.55 -5.14 -172.58 36.75 5.10 80.76 -38.12 -43.88 -91.75 -175.85 -75.67 65.05 -88.45 -93.15 40.12 -7.20 60.41 153.09 -176.56 -140.72 
DOCKED: USER  keepresnum = 1 
DOCKED: USER  
DOCKED: REMARK  24 active torsions:
DOCKED: REMARK  status: ('A' for Active; 'I' for Inactive)
DOCKED: REMARK    1  A    between atoms: C_1  and  O_7 
DOCKED: REMARK    2  A    between atoms: C_2  and  O_12 
DOCKED: REMARK    3  A    between atoms: C_3  and  O_17 
DOCKED: REMARK    4  A    between atoms: C_4  and  O_22 
DOCKED: REMARK    5  A    between atoms: C_5  and  O_27 
DOCKED: REMARK    6  A    between atoms: C_6  and  O_32 
DOCKED: REMARK    7  A    between atoms: O_7  and  P_8 
DOCKED: REMARK    8  A    between atoms: P_8  and  O_10 
DOCKED: REMARK    9  A    between atoms: P_8  and  O_11 
DOCKED: REMARK   10  A    between atoms: O_12  and  P_13 
DOCKED: REMARK   11  A    between atoms: P_13  and  O_15 
DOCKED: REMARK   12  A    between atoms: P_13  and  O_16 
DOCKED: REMARK   13  A    between atoms: O_17  and  P_18 
DOCKED: REMARK   14  A    between atoms: P_18  and  O_20 
DOCKED: REMARK   15  A    between atoms: P_18  and  O_21 
DOCKED: REMARK   16  A    between atoms: O_22  and  P_23 
DOCKED: REMARK   17  A    between atoms: P_23  and  O_25 
DOCKED: REMARK   18  A    between atoms: P_23  and  O_26 
DOCKED: REMARK   19  A    between atoms: O_27  and  P_28 
DOCKED: REMARK   20  A    between atoms: P_28  and  O_30 
DOCKED: REMARK   21  A    between atoms: P_28  and  O_31 
DOCKED: REMARK   22  A    between atoms: O_32  and  P_33 
DOCKED: REMARK   23  A    between atoms: P_33  and  O_35 
DOCKED: REMARK   24  A    between atoms: P_33  and  O_36 
DOCKED: USER                              x       y       z     vdW  Elec       q    Type
DOCKED: USER                           _______ _______ _______ _____ _____    ______ ____
DOCKED: ROOT
DOCKED: ATOM      1  C   UNL d   1     -12.993 -10.018  -1.288 -0.09 -0.05    +0.194 C 
DOCKED: ATOM      2  C   UNL d   1     -13.155  -8.600  -1.839 -0.05 -0.06    +0.194 C 
DOCKED: ATOM      3  C   UNL d   1     -14.546  -8.034  -1.546 -0.01 -0.05    +0.194 C 
DOCKED: ATOM      4  C   UNL d   1     -14.937  -8.129  -0.073 -0.02 -0.06    +0.194 C 
DOCKED: ATOM      5  C   UNL d   1     -14.684  -9.496   0.549 -0.03 -0.05    +0.194 C 
DOCKED: ATOM      6  C   UNL d   1     -13.316 -10.090   0.205 -0.09 -0.05    +0.194 C 
DOCKED: ENDROOT
DOCKED: BRANCH   1   7
DOCKED: ATOM      7  O   UNL d   1     -11.626 -10.404  -1.448 -0.18 +0.08    -0.278 OA
DOCKED: BRANCH   7   8
DOCKED: ATOM      8  P   UNL d   1     -11.158 -10.968  -2.867 -0.16 -0.10    +0.473 P 
DOCKED: ATOM      9  O   UNL d   1     -12.128 -11.876  -3.537 -0.07 +0.03    -0.228 OA
DOCKED: BRANCH   8  10
DOCKED: ATOM     10  O   UNL d   1     -10.835  -9.657  -3.717 -0.19 +0.07    -0.303 OA
DOCKED: ATOM     11  H   UNL d   1     -10.562  -8.938  -3.117 +0.06 -0.06    +0.222 HD
DOCKED: ENDBRANCH   8  10
DOCKED: BRANCH   8  12
DOCKED: ATOM     12  O   UNL d   1      -9.707 -11.566  -2.616 -0.15 +0.11    -0.303 OA
DOCKED: ATOM     13  H   UNL d   1      -9.296 -11.243  -1.782 -0.44 -0.12    +0.222 HD
DOCKED: ENDBRANCH   8  12
DOCKED: ENDBRANCH   7   8
DOCKED: ENDBRANCH   1   7
DOCKED: BRANCH   2  14
DOCKED: ATOM     14  O   UNL d   1     -12.178  -7.747  -1.229 -0.13 +0.16    -0.278 OA
DOCKED: BRANCH  14  15
DOCKED: ATOM     15  P   UNL d   1     -11.209  -6.945  -2.220 -0.11 -0.28    +0.473 P 
DOCKED: ATOM     16  O   UNL d   1      -9.742  -7.205  -2.082 -0.18 +0.11    -0.228 OA
DOCKED: BRANCH  15  17
DOCKED: ATOM     17  O   UNL d   1     -11.765  -7.295  -3.672 -0.08 +0.10    -0.303 OA
DOCKED: ATOM     18  H   UNL d   1     -11.063  -7.675  -4.235 +0.01 -0.08    +0.222 HD
DOCKED: ENDBRANCH  15  17
DOCKED: BRANCH  15  19
DOCKED: ATOM     19  O   UNL d   1     -11.654  -5.426  -2.066 -0.10 +0.30    -0.303 OA
DOCKED: ATOM     20  H   UNL d   1     -11.988  -5.237  -1.170 -0.24 -0.40    +0.222 HD
DOCKED: ENDBRANCH  15  19
DOCKED: ENDBRANCH  14  15
DOCKED: ENDBRANCH   2  14
DOCKED: BRANCH   6  21
DOCKED: ATOM     21  O   UNL d   1     -13.366 -11.471   0.556 -0.10 +0.05    -0.278 OA
DOCKED: BRANCH  21  22
DOCKED: ATOM     22  P   UNL d   1     -14.063 -11.916   1.920 +0.03 -0.04    +0.473 P 
DOCKED: ATOM     23  O   UNL d   1     -13.745 -11.149   3.158 -0.10 +0.04    -0.228 OA
DOCKED: BRANCH  22  24
DOCKED: ATOM     24  O   UNL d   1     -15.602 -11.918   1.513 -0.01 +0.03    -0.303 OA
DOCKED: ATOM     25  H   UNL d   1     -15.881 -10.980   1.358 +0.01 -0.03    +0.222 HD
DOCKED: ENDBRANCH  22  24
DOCKED: BRANCH  22  26
DOCKED: ATOM     26  O   UNL d   1     -13.729 -13.484   1.959 -0.65 -0.01    -0.303 OA
DOCKED: ATOM     27  H   UNL d   1     -14.126 -13.877   2.763 +0.02 -0.01    +0.222 HD
DOCKED: ENDBRANCH  22  26
DOCKED: ENDBRANCH  21  22
DOCKED: ENDBRANCH   6  21
DOCKED: BRANCH   3  28
DOCKED: ATOM     28  O   UNL d   1     -14.513  -6.643  -1.839 -0.01 +0.10    -0.278 OA
DOCKED: BRANCH  28  29
DOCKED: ATOM     29  P   UNL d   1     -14.262  -5.582  -0.677 -0.04 -0.29    +0.473 P 
DOCKED: ATOM     30  O   UNL d   1     -13.260  -5.978   0.346 -0.09 +0.29    -0.228 OA
DOCKED: BRANCH  29  31
DOCKED: ATOM     31  O   UNL d   1     -13.932  -4.283  -1.552 -0.04 +0.17    -0.303 OA
DOCKED: ATOM     32  H   UNL d   1     -13.031  -3.965  -1.314 -0.04 -0.21    +0.222 HD
DOCKED: ENDBRANCH  29  31
DOCKED: BRANCH  29  33
DOCKED: ATOM     33  O   UNL d   1     -15.740  -5.294  -0.162 -0.01 +0.10    -0.303 OA
DOCKED: ATOM     34  H   UNL d   1     -15.925  -5.867   0.621 +0.01 -0.07    +0.222 HD
DOCKED: ENDBRANCH  29  33
DOCKED: ENDBRANCH  28  29
DOCKED: ENDBRANCH   3  28
DOCKED: BRANCH   5  35
DOCKED: ATOM     35  O   UNL d   1     -14.710  -9.291   1.959 -0.03 +0.08    -0.278 OA
DOCKED: BRANCH  35  36
DOCKED: ATOM     36  P   UNL d   1     -13.920  -8.066   2.609 -0.05 -0.25    +0.473 P 
DOCKED: ATOM     37  O   UNL d   1     -12.538  -7.839   2.083 -0.18 +0.23    -0.228 OA
DOCKED: BRANCH  36  38
DOCKED: ATOM     38  O   UNL d   1     -14.924  -6.857   2.352 -0.03 +0.15    -0.303 OA
DOCKED: ATOM     39  H   UNL d   1     -15.006  -6.707   1.386 +0.02 -0.11    +0.222 HD
DOCKED: ENDBRANCH  36  38
DOCKED: BRANCH  36  40
DOCKED: ATOM     40  O   UNL d   1     -14.061  -8.358   4.166 -0.02 +0.11    -0.303 OA
DOCKED: ATOM     41  H   UNL d   1     -13.980  -9.317   4.366 +0.04 -0.06    +0.222 HD
DOCKED: ENDBRANCH  36  40
DOCKED: ENDBRANCH  35  36
DOCKED: ENDBRANCH   5  35
DOCKED: BRANCH   4  42
DOCKED: ATOM     42  O   UNL d   1     -16.346  -7.888  -0.001 +0.00 +0.06    -0.278 OA
DOCKED: BRANCH  42  43
DOCKED: ATOM     43  P   UNL d   1     -17.321  -9.107   0.325 +0.01 -0.06    +0.473 P 
DOCKED: ATOM     44  O   UNL d   1     -17.119 -10.371  -0.436 -0.00 +0.03    -0.228 OA
DOCKED: BRANCH  43  45
DOCKED: ATOM     45  O   UNL d   1     -17.169  -9.264   1.901 +0.00 +0.04    -0.303 OA
DOCKED: ATOM     46  H   UNL d   1     -16.706 -10.094   2.135 +0.01 -0.03    +0.222 HD
DOCKED: ENDBRANCH  43  45
DOCKED: BRANCH  43  47
DOCKED: ATOM     47  O   UNL d   1     -18.780  -8.453   0.203 +0.00 +0.03    -0.303 OA
DOCKED: ATOM     48  H   UNL d   1     -19.362  -9.054  -0.306 +0.00 -0.02    +0.222 HD
DOCKED: ENDBRANCH  43  47
DOCKED: ENDBRANCH  42  43
DOCKED: ENDBRANCH   4  42
DOCKED: TORSDOF 24
DOCKED: TER
DOCKED: ENDMDL
________________________________________________________________________________


	BEGINNING GENETIC ALGORITHM DOCKING 95 of 100
Run: 95 Seed: 1581359921 254573193 [ Run 95 of 100 GA/GALS ]
Beginning LAMARCKIAN GENETIC ALGORITHM (LGA), with a maximum of 25000000 energy evaluations.

Final-Value: -18.328


	FINAL GENETIC ALGORITHM DOCKED STATE
	_______________________________________________


Detailed state:  trans 12.982 -4.349 2.062 quatxyzw 0.656063 0.472708 0.156574 -0.567109 center 0.035 0.082 -0.065 ntor 24 119.4154 43.8152 108.3499 102.0184 -20.4333 -167.8557 25.5958 -92.7403 54.3116 -37.4049 -38.8261 -127.9318 151.7041 97.4401 -30.4012 -128.3450 164.7858 -43.4426 31.5278 -10.0566 -180.0000 20.6433 8.9941 -178.9377
State:	 12.982  -4.349   2.062   0.797  0.574  0.190 -110.902    119.42   43.82  108.35  102.02  -20.43 -167.86   25.60  -92.74   54.31  -37.40  -38.83 -127.93  151.70   97.44  -30.40 -128.35  164.79  -43.44   31.53  -10.06 -180.00   20.64    8.99 -178.94

DOCKED: MODEL       95
DOCKED: USER    Run = 95
DOCKED: USER    DPF = D:/Protein_go_brrr/autodock/final/mut_K82N/IHP/dock.dpf
DOCKED: USER  
DOCKED: USER    Estimated Free Energy of Binding    =   +3.17 kcal/mol  [=(1)+(2)+(3)-(4)]
DOCKED: USER    
DOCKED: USER    (1) Final Intermolecular Energy     =   -3.99 kcal/mol
DOCKED: USER        vdW + Hbond + desolv Energy     =   -3.93 kcal/mol
DOCKED: USER        Electrostatic Energy            =   -0.06 kcal/mol
DOCKED: USER    (2) Final Total Internal Energy     =  -14.34 kcal/mol
DOCKED: USER    (3) Torsional Free Energy           =   +7.16 kcal/mol
DOCKED: USER    (4) Unbound System's Energy  [=(2)] =  -14.34 kcal/mol
DOCKED: USER    
DOCKED: USER    
DOCKED: USER    NEWDPF move IHP_ideal_opt.pdbqt
DOCKED: USER    NEWDPF about 0.035000 0.082000 -0.065000
DOCKED: USER    NEWDPF tran0 12.982008 -4.348506 2.062200
DOCKED: USER    NEWDPF quaternion0 0.656063 0.472708 0.156574 -0.567109
DOCKED: USER    NEWDPF axisangle0 0.796539 0.573924 0.190100 -110.902240
DOCKED: USER    NEWDPF quat0 0.796539 0.573924 0.190100 -110.902240
DOCKED: USER    NEWDPF dihe0 119.42 43.82 108.35 102.02 -20.43 -167.86 25.60 -92.74 54.31 -37.40 -38.83 -127.93 151.70 97.44 -30.40 -128.35 164.79 -43.44 31.53 -10.06 -180.00 20.64 8.99 -178.94 
DOCKED: USER  keepresnum = 1 
DOCKED: USER  
DOCKED: REMARK  24 active torsions:
DOCKED: REMARK  status: ('A' for Active; 'I' for Inactive)
DOCKED: REMARK    1  A    between atoms: C_1  and  O_7 
DOCKED: REMARK    2  A    between atoms: C_2  and  O_12 
DOCKED: REMARK    3  A    between atoms: C_3  and  O_17 
DOCKED: REMARK    4  A    between atoms: C_4  and  O_22 
DOCKED: REMARK    5  A    between atoms: C_5  and  O_27 
DOCKED: REMARK    6  A    between atoms: C_6  and  O_32 
DOCKED: REMARK    7  A    between atoms: O_7  and  P_8 
DOCKED: REMARK    8  A    between atoms: P_8  and  O_10 
DOCKED: REMARK    9  A    between atoms: P_8  and  O_11 
DOCKED: REMARK   10  A    between atoms: O_12  and  P_13 
DOCKED: REMARK   11  A    between atoms: P_13  and  O_15 
DOCKED: REMARK   12  A    between atoms: P_13  and  O_16 
DOCKED: REMARK   13  A    between atoms: O_17  and  P_18 
DOCKED: REMARK   14  A    between atoms: P_18  and  O_20 
DOCKED: REMARK   15  A    between atoms: P_18  and  O_21 
DOCKED: REMARK   16  A    between atoms: O_22  and  P_23 
DOCKED: REMARK   17  A    between atoms: P_23  and  O_25 
DOCKED: REMARK   18  A    between atoms: P_23  and  O_26 
DOCKED: REMARK   19  A    between atoms: O_27  and  P_28 
DOCKED: REMARK   20  A    between atoms: P_28  and  O_30 
DOCKED: REMARK   21  A    between atoms: P_28  and  O_31 
DOCKED: REMARK   22  A    between atoms: O_32  and  P_33 
DOCKED: REMARK   23  A    between atoms: P_33  and  O_35 
DOCKED: REMARK   24  A    between atoms: P_33  and  O_36 
DOCKED: USER                              x       y       z     vdW  Elec       q    Type
DOCKED: USER                           _______ _______ _______ _____ _____    ______ ____
DOCKED: ROOT
DOCKED: ATOM      1  C   UNL d   1      13.807  -3.900   0.612 -0.07 +0.01    +0.194 C 
DOCKED: ATOM      2  C   UNL d   1      12.548  -4.749   0.421 -0.13 -0.00    +0.194 C 
DOCKED: ATOM      3  C   UNL d   1      12.476  -5.892   1.436 -0.16 -0.00    +0.194 C 
DOCKED: ATOM      4  C   UNL d   1      12.645  -5.426   2.880 -0.01 +0.01    +0.194 C 
DOCKED: ATOM      5  C   UNL d   1      13.823  -4.484   3.095 -0.12 +0.01    +0.194 C 
DOCKED: ATOM      6  C   UNL d   1      13.930  -3.377   2.044 -0.11 +0.00    +0.194 C 
DOCKED: ENDROOT
DOCKED: BRANCH   1   7
DOCKED: ATOM      7  O   UNL d   1      13.714  -2.764  -0.250 -0.08 -0.05    -0.278 OA
DOCKED: BRANCH   7   8
DOCKED: ATOM      8  P   UNL d   1      14.328  -2.874  -1.721 -0.04 +0.16    +0.473 P 
DOCKED: ATOM      9  O   UNL d   1      14.692  -1.577  -2.352 -0.08 -0.14    -0.228 OA
DOCKED: BRANCH   8  10
DOCKED: ATOM     10  O   UNL d   1      15.572  -3.859  -1.547 -0.00 -0.03    -0.303 OA
DOCKED: ATOM     11  H   UNL d   1      16.021  -3.673  -0.701 +0.02 +0.02    +0.222 HD
DOCKED: ENDBRANCH   8  10
DOCKED: BRANCH   8  12
DOCKED: ATOM     12  O   UNL d   1      13.301  -3.776  -2.531 -0.15 -0.12    -0.303 OA
DOCKED: ATOM     13  H   UNL d   1      12.545  -4.086  -1.983 +0.06 +0.07    +0.222 HD
DOCKED: ENDBRANCH   8  12
DOCKED: ENDBRANCH   7   8
DOCKED: ENDBRANCH   1   7
DOCKED: BRANCH   2  14
DOCKED: ATOM     14  O   UNL d   1      11.394  -3.916   0.589 -0.21 +0.06    -0.278 OA
DOCKED: BRANCH  14  15
DOCKED: ATOM     15  P   UNL d   1      10.384  -3.835  -0.650 -0.22 -0.03    +0.473 P 
DOCKED: ATOM     16  O   UNL d   1       8.953  -3.532  -0.332 -0.44 +0.05    -0.228 OA
DOCKED: BRANCH  15  17
DOCKED: ATOM     17  O   UNL d   1      11.043  -2.755  -1.618 -0.87 -0.15    -0.303 OA
DOCKED: ATOM     18  H   UNL d   1      11.960  -2.555  -1.349 +0.04 +0.13    +0.222 HD
DOCKED: ENDBRANCH  15  17
DOCKED: BRANCH  15  19
DOCKED: ATOM     19  O   UNL d   1      10.636  -5.182  -1.457 -0.13 -0.02    -0.303 OA
DOCKED: ATOM     20  H   UNL d   1      10.729  -5.948  -0.860 +0.10 +0.00    +0.222 HD
DOCKED: ENDBRANCH  15  19
DOCKED: ENDBRANCH  14  15
DOCKED: ENDBRANCH   2  14
DOCKED: BRANCH   6  21
DOCKED: ATOM     21  O   UNL d   1      15.233  -2.812   2.172 -0.02 -0.01    -0.278 OA
DOCKED: BRANCH  21  22
DOCKED: ATOM     22  P   UNL d   1      16.493  -3.583   1.569 +0.02 +0.01    +0.473 P 
DOCKED: ATOM     23  O   UNL d   1      16.260  -4.889   0.887 -0.00 -0.01    -0.228 OA
DOCKED: BRANCH  22  24
DOCKED: ATOM     24  O   UNL d   1      17.154  -2.460   0.654 +0.01 -0.01    -0.303 OA
DOCKED: ATOM     25  H   UNL d   1      16.718  -2.492  -0.236 +0.01 +0.01    +0.222 HD
DOCKED: ENDBRANCH  22  24
DOCKED: BRANCH  22  26
DOCKED: ATOM     26  O   UNL d   1      17.488  -3.614   2.826 +0.00 -0.00    -0.303 OA
DOCKED: ATOM     27  H   UNL d   1      16.979  -3.440   3.643 +0.01 +0.00    +0.222 HD
DOCKED: ENDBRANCH  22  26
DOCKED: ENDBRANCH  21  22
DOCKED: ENDBRANCH   6  21
DOCKED: BRANCH   3  28
DOCKED: ATOM     28  O   UNL d   1      11.168  -6.443   1.367 -0.25 +0.01    -0.278 OA
DOCKED: BRANCH  28  29
DOCKED: ATOM     29  P   UNL d   1      10.963  -8.018   1.247 -0.18 -0.00    +0.473 P 
DOCKED: ATOM     30  O   UNL d   1       9.696  -8.453   0.606 -0.26 +0.01    -0.228 OA
DOCKED: BRANCH  29  31
DOCKED: ATOM     31  O   UNL d   1      12.326  -8.421   0.511 -0.04 -0.01    -0.303 OA
DOCKED: ATOM     32  H   UNL d   1      13.054  -8.416   1.174 +0.05 +0.01    +0.222 HD
DOCKED: ENDBRANCH  29  31
DOCKED: BRANCH  29  33
DOCKED: ATOM     33  O   UNL d   1      11.216  -8.503   2.743 -0.25 -0.02    -0.303 OA
DOCKED: ATOM     34  H   UNL d   1      11.899  -7.921   3.158 +0.09 +0.02    +0.222 HD
DOCKED: ENDBRANCH  29  33
DOCKED: ENDBRANCH  28  29
DOCKED: ENDBRANCH   3  28
DOCKED: BRANCH   5  35
DOCKED: ATOM     35  O   UNL d   1      13.587  -3.850   4.350 -0.14 -0.03    -0.278 OA
DOCKED: BRANCH  35  36
DOCKED: ATOM     36  P   UNL d   1      14.793  -3.604   5.365 -0.09 +0.03    +0.473 P 
DOCKED: ATOM     37  O   UNL d   1      14.423  -3.590   6.815 -0.17 -0.02    -0.228 OA
DOCKED: BRANCH  36  38
DOCKED: ATOM     38  O   UNL d   1      15.804  -4.765   4.959 -0.01 -0.01    -0.303 OA
DOCKED: ATOM     39  H   UNL d   1      15.328  -5.430   4.416 +0.04 +0.01    +0.222 HD
DOCKED: ENDBRANCH  36  38
DOCKED: BRANCH  36  40
DOCKED: ATOM     40  O   UNL d   1      15.466  -2.287   4.780 -0.03 -0.01    -0.303 OA
DOCKED: ATOM     41  H   UNL d   1      16.038  -2.484   4.005 +0.02 +0.01    +0.222 HD
DOCKED: ENDBRANCH  36  40
DOCKED: ENDBRANCH  35  36
DOCKED: ENDBRANCH   5  35
DOCKED: BRANCH   4  42
DOCKED: ATOM     42  O   UNL d   1      12.893  -6.596   3.666 -0.14 -0.03    -0.278 OA
DOCKED: BRANCH  42  43
DOCKED: ATOM     43  P   UNL d   1      14.285  -7.357   3.501 -0.03 +0.02    +0.473 P 
DOCKED: ATOM     44  O   UNL d   1      15.282  -6.768   2.563 -0.01 -0.00    -0.228 OA
DOCKED: BRANCH  43  45
DOCKED: ATOM     45  O   UNL d   1      14.797  -7.478   5.003 -0.03 -0.01    -0.303 OA
DOCKED: ATOM     46  H   UNL d   1      15.588  -6.923   5.157 +0.03 +0.01    +0.222 HD
DOCKED: ENDBRANCH  43  45
DOCKED: BRANCH  43  47
DOCKED: ATOM     47  O   UNL d   1      13.844  -8.865   3.185 -0.03 -0.02    -0.303 OA
DOCKED: ATOM     48  H   UNL d   1      13.193  -8.864   2.452 +0.05 +0.01    +0.222 HD
DOCKED: ENDBRANCH  43  47
DOCKED: ENDBRANCH  42  43
DOCKED: ENDBRANCH   4  42
DOCKED: TORSDOF 24
DOCKED: TER
DOCKED: ENDMDL
________________________________________________________________________________


	BEGINNING GENETIC ALGORITHM DOCKING 96 of 100
Run: 96 Seed: 858953067 290562916 [ Run 96 of 100 GA/GALS ]
Beginning LAMARCKIAN GENETIC ALGORITHM (LGA), with a maximum of 25000000 energy evaluations.

Final-Value: -17.876


	FINAL GENETIC ALGORITHM DOCKED STATE
	_______________________________________________


Detailed state:  trans -13.865 1.764 -2.290 quatxyzw -0.370178 0.664592 -0.066617 0.645638 center 0.035 0.082 -0.065 ntor 24 -160.5120 -16.6060 60.0964 104.2656 -7.4761 -123.3616 26.8070 -77.6901 136.4407 -38.5031 25.5194 -168.0542 41.3303 -79.5231 -47.9198 93.9222 90.0258 160.5795 -140.1372 -20.9102 27.4735 -27.3783 -37.0367 11.8178
State:	-13.865   1.764  -2.290  -0.485  0.870 -0.087 99.573   -160.51  -16.61   60.10  104.27   -7.48 -123.36   26.81  -77.69  136.44  -38.50   25.52 -168.05   41.33  -79.52  -47.92   93.92   90.03  160.58 -140.14  -20.91   27.47  -27.38  -37.04   11.82

DOCKED: MODEL       96
DOCKED: USER    Run = 96
DOCKED: USER    DPF = D:/Protein_go_brrr/autodock/final/mut_K82N/IHP/dock.dpf
DOCKED: USER  
DOCKED: USER    Estimated Free Energy of Binding    =   +3.71 kcal/mol  [=(1)+(2)+(3)-(4)]
DOCKED: USER    
DOCKED: USER    (1) Final Intermolecular Energy     =   -3.44 kcal/mol
DOCKED: USER        vdW + Hbond + desolv Energy     =   -3.24 kcal/mol
DOCKED: USER        Electrostatic Energy            =   -0.20 kcal/mol
DOCKED: USER    (2) Final Total Internal Energy     =  -14.43 kcal/mol
DOCKED: USER    (3) Torsional Free Energy           =   +7.16 kcal/mol
DOCKED: USER    (4) Unbound System's Energy  [=(2)] =  -14.43 kcal/mol
DOCKED: USER    
DOCKED: USER    
DOCKED: USER    NEWDPF move IHP_ideal_opt.pdbqt
DOCKED: USER    NEWDPF about 0.035000 0.082000 -0.065000
DOCKED: USER    NEWDPF tran0 -13.865268 1.763537 -2.289932
DOCKED: USER    NEWDPF quaternion0 -0.370178 0.664592 -0.066617 0.645638
DOCKED: USER    NEWDPF axisangle0 -0.484752 0.870290 -0.087236 99.572933
DOCKED: USER    NEWDPF quat0 -0.484752 0.870290 -0.087236 99.572933
DOCKED: USER    NEWDPF dihe0 -160.51 -16.61 60.10 104.27 -7.48 -123.36 26.81 -77.69 136.44 -38.50 25.52 -168.05 41.33 -79.52 -47.92 93.92 90.03 160.58 -140.14 -20.91 27.47 -27.38 -37.04 11.82 
DOCKED: USER  keepresnum = 1 
DOCKED: USER  
DOCKED: REMARK  24 active torsions:
DOCKED: REMARK  status: ('A' for Active; 'I' for Inactive)
DOCKED: REMARK    1  A    between atoms: C_1  and  O_7 
DOCKED: REMARK    2  A    between atoms: C_2  and  O_12 
DOCKED: REMARK    3  A    between atoms: C_3  and  O_17 
DOCKED: REMARK    4  A    between atoms: C_4  and  O_22 
DOCKED: REMARK    5  A    between atoms: C_5  and  O_27 
DOCKED: REMARK    6  A    between atoms: C_6  and  O_32 
DOCKED: REMARK    7  A    between atoms: O_7  and  P_8 
DOCKED: REMARK    8  A    between atoms: P_8  and  O_10 
DOCKED: REMARK    9  A    between atoms: P_8  and  O_11 
DOCKED: REMARK   10  A    between atoms: O_12  and  P_13 
DOCKED: REMARK   11  A    between atoms: P_13  and  O_15 
DOCKED: REMARK   12  A    between atoms: P_13  and  O_16 
DOCKED: REMARK   13  A    between atoms: O_17  and  P_18 
DOCKED: REMARK   14  A    between atoms: P_18  and  O_20 
DOCKED: REMARK   15  A    between atoms: P_18  and  O_21 
DOCKED: REMARK   16  A    between atoms: O_22  and  P_23 
DOCKED: REMARK   17  A    between atoms: P_23  and  O_25 
DOCKED: REMARK   18  A    between atoms: P_23  and  O_26 
DOCKED: REMARK   19  A    between atoms: O_27  and  P_28 
DOCKED: REMARK   20  A    between atoms: P_28  and  O_30 
DOCKED: REMARK   21  A    between atoms: P_28  and  O_31 
DOCKED: REMARK   22  A    between atoms: O_32  and  P_33 
DOCKED: REMARK   23  A    between atoms: P_33  and  O_35 
DOCKED: REMARK   24  A    between atoms: P_33  and  O_36 
DOCKED: USER                              x       y       z     vdW  Elec       q    Type
DOCKED: USER                           _______ _______ _______ _____ _____    ______ ____
DOCKED: ROOT
DOCKED: ATOM      1  C   UNL d   1     -13.857   0.170  -1.623 -0.04 +0.00    +0.194 C 
DOCKED: ATOM      2  C   UNL d   1     -13.228   0.309  -3.011 -0.08 +0.04    +0.194 C 
DOCKED: ATOM      3  C   UNL d   1     -14.067   1.204  -3.926 -0.08 +0.08    +0.194 C 
DOCKED: ATOM      4  C   UNL d   1     -14.399   2.558  -3.304 -0.08 +0.10    +0.194 C 
DOCKED: ATOM      5  C   UNL d   1     -14.922   2.473  -1.876 -0.05 +0.04    +0.194 C 
DOCKED: ATOM      6  C   UNL d   1     -14.119   1.531  -0.977 -0.06 +0.02    +0.194 C 
DOCKED: ENDROOT
DOCKED: BRANCH   1   7
DOCKED: ATOM      7  O   UNL d   1     -12.935  -0.530  -0.784 -0.05 +0.05    -0.278 OA
DOCKED: BRANCH   7   8
DOCKED: ATOM      8  P   UNL d   1     -11.988   0.322   0.179 -0.15 -0.07    +0.473 P 
DOCKED: ATOM      9  O   UNL d   1     -12.515   0.537   1.554 -0.12 +0.03    -0.228 OA
DOCKED: BRANCH   8  10
DOCKED: ATOM     10  O   UNL d   1     -10.601  -0.467   0.155 -0.24 +0.11    -0.303 OA
DOCKED: ATOM     11  H   UNL d   1     -10.405  -0.756  -0.756 +0.08 -0.08    +0.222 HD
DOCKED: ENDBRANCH   8  10
DOCKED: BRANCH   8  12
DOCKED: ATOM     12  O   UNL d   1     -11.637   1.635  -0.643 -0.19 -0.04    -0.303 OA
DOCKED: ATOM     13  H   UNL d   1     -11.149   1.450  -1.477 +0.07 +0.05    +0.222 HD
DOCKED: ENDBRANCH   8  12
DOCKED: ENDBRANCH   7   8
DOCKED: ENDBRANCH   1   7
DOCKED: BRANCH   2  14
DOCKED: ATOM     14  O   UNL d   1     -11.924   0.889  -2.877 -0.11 -0.12    -0.278 OA
DOCKED: BRANCH  14  15
DOCKED: ATOM     15  P   UNL d   1     -10.680  -0.068  -3.193 -0.18 +0.09    +0.473 P 
DOCKED: ATOM     16  O   UNL d   1     -10.911  -1.540  -3.052 -0.16 +0.03    -0.228 OA
DOCKED: BRANCH  15  17
DOCKED: ATOM     17  O   UNL d   1     -10.235   0.348  -4.665 -0.18 -0.16    -0.303 OA
DOCKED: ATOM     18  H   UNL d   1     -11.008   0.582  -5.213 +0.06 +0.18    +0.222 HD
DOCKED: ENDBRANCH  15  17
DOCKED: BRANCH  15  19
DOCKED: ATOM     19  O   UNL d   1      -9.490   0.526  -2.319 -0.27 -0.01    -0.303 OA
DOCKED: ATOM     20  H   UNL d   1      -9.782   0.744  -1.415 -0.29 -0.04    +0.222 HD
DOCKED: ENDBRANCH  15  19
DOCKED: ENDBRANCH  14  15
DOCKED: ENDBRANCH   2  14
DOCKED: BRANCH   6  21
DOCKED: ATOM     21  O   UNL d   1     -14.910   1.296   0.186 -0.01 -0.00    -0.278 OA
DOCKED: BRANCH  21  22
DOCKED: ATOM     22  P   UNL d   1     -15.041   2.433   1.297 +0.00 +0.03    +0.473 P 
DOCKED: ATOM     23  O   UNL d   1     -14.037   3.536   1.300 -0.06 -0.03    -0.228 OA
DOCKED: BRANCH  22  24
DOCKED: ATOM     24  O   UNL d   1     -16.549   2.905   1.103 -0.00 -0.02    -0.303 OA
DOCKED: ATOM     25  H   UNL d   1     -16.601   3.437   0.269 +0.01 +0.02    +0.222 HD
DOCKED: ENDBRANCH  22  24
DOCKED: BRANCH  22  26
DOCKED: ATOM     26  O   UNL d   1     -15.136   1.565   2.642 -0.00 +0.00    -0.303 OA
DOCKED: ATOM     27  H   UNL d   1     -14.307   1.057   2.755 +0.04 -0.01    +0.222 HD
DOCKED: ENDBRANCH  22  26
DOCKED: ENDBRANCH  21  22
DOCKED: ENDBRANCH   6  21
DOCKED: BRANCH   3  28
DOCKED: ATOM     28  O   UNL d   1     -13.282   1.498  -5.074 -0.04 -0.27    -0.278 OA
DOCKED: BRANCH  28  29
DOCKED: ATOM     29  P   UNL d   1     -13.215   0.469  -6.288 -0.06 +0.28    +0.473 P 
DOCKED: ATOM     30  O   UNL d   1     -14.476   0.302  -7.056 -0.02 -0.08    -0.228 OA
DOCKED: BRANCH  29  31
DOCKED: ATOM     31  O   UNL d   1     -11.954   1.054  -7.081 -0.47 -0.34    -0.303 OA
DOCKED: ATOM     32  H   UNL d   1     -11.133   0.765  -6.621 +0.05 +0.21    +0.222 HD
DOCKED: ENDBRANCH  29  31
DOCKED: BRANCH  29  33
DOCKED: ATOM     33  O   UNL d   1     -12.619  -0.832  -5.591 -0.06 -0.08    -0.303 OA
DOCKED: ATOM     34  H   UNL d   1     -12.190  -0.572  -4.740 +0.05 +0.06    +0.222 HD
DOCKED: ENDBRANCH  29  33
DOCKED: ENDBRANCH  28  29
DOCKED: ENDBRANCH   3  28
DOCKED: BRANCH   5  35
DOCKED: ATOM     35  O   UNL d   1     -14.785   3.786  -1.335 -0.04 -0.06    -0.278 OA
DOCKED: BRANCH  35  36
DOCKED: ATOM     36  P   UNL d   1     -16.004   4.813  -1.400 -0.00 +0.08    +0.473 P 
DOCKED: ATOM     37  O   UNL d   1     -16.285   5.561  -0.136 -0.01 -0.03    -0.228 OA
DOCKED: BRANCH  36  38
DOCKED: ATOM     38  O   UNL d   1     -15.586   5.737  -2.628 -0.01 -0.08    -0.303 OA
DOCKED: ATOM     39  H   UNL d   1     -15.602   5.204  -3.452 +0.02 +0.08    +0.222 HD
DOCKED: ENDBRANCH  36  38
DOCKED: BRANCH  36  40
DOCKED: ATOM     40  O   UNL d   1     -17.178   3.912  -1.982 -0.00 -0.04    -0.303 OA
DOCKED: ATOM     41  H   UNL d   1     -17.112   3.812  -2.958 +0.01 +0.03    +0.222 HD
DOCKED: ENDBRANCH  36  40
DOCKED: ENDBRANCH  35  36
DOCKED: ENDBRANCH   5  35
DOCKED: BRANCH   4  42
DOCKED: ATOM     42  O   UNL d   1     -15.439   3.136  -4.100 -0.04 -0.12    -0.278 OA
DOCKED: BRANCH  42  43
DOCKED: ATOM     43  P   UNL d   1     -15.054   4.229  -5.196 -0.05 +0.33    +0.473 P 
DOCKED: ATOM     44  O   UNL d   1     -16.099   5.222  -5.572 -0.01 -0.08    -0.228 OA
DOCKED: BRANCH  43  45
DOCKED: ATOM     45  O   UNL d   1     -13.729   4.874  -4.596 -0.37 -0.44    -0.303 OA
DOCKED: ATOM     46  H   UNL d   1     -13.838   5.100  -3.650 +0.02 +0.19    +0.222 HD
DOCKED: ENDBRANCH  43  45
DOCKED: BRANCH  43  47
DOCKED: ATOM     47  O   UNL d   1     -14.470   3.348  -6.402 -0.07 -0.31    -0.303 OA
DOCKED: ATOM     48  H   UNL d   1     -14.661   2.403  -6.232 +0.01 +0.16    +0.222 HD
DOCKED: ENDBRANCH  43  47
DOCKED: ENDBRANCH  42  43
DOCKED: ENDBRANCH   4  42
DOCKED: TORSDOF 24
DOCKED: TER
DOCKED: ENDMDL
________________________________________________________________________________


	BEGINNING GENETIC ALGORITHM DOCKING 97 of 100
Run: 97 Seed: 1769698014 941765171 [ Run 97 of 100 GA/GALS ]
Beginning LAMARCKIAN GENETIC ALGORITHM (LGA), with a maximum of 25000000 energy evaluations.

Final-Value: -18.425


	FINAL GENETIC ALGORITHM DOCKED STATE
	_______________________________________________


Detailed state:  trans -10.350 -17.469 0.186 quatxyzw 0.831904 0.010515 0.192103 0.520501 center 0.035 0.082 -0.065 ntor 24 -115.7522 -46.3335 164.2422 -5.7005 30.2898 -166.7631 -42.2805 -24.9987 43.8713 75.8334 -3.6408 -104.0369 60.6043 171.8915 170.5541 -35.4204 -9.5285 -53.1995 -22.5049 15.4899 -13.1580 3.7438 -15.9407 -179.4529
State:	-10.350 -17.469   0.186   0.974  0.012  0.225 117.268   -115.75  -46.33  164.24   -5.70   30.29 -166.76  -42.28  -25.00   43.87   75.83   -3.64 -104.04   60.60  171.89  170.55  -35.42   -9.53  -53.20  -22.50   15.49  -13.16    3.74  -15.94 -179.45

DOCKED: MODEL       97
DOCKED: USER    Run = 97
DOCKED: USER    DPF = D:/Protein_go_brrr/autodock/final/mut_K82N/IHP/dock.dpf
DOCKED: USER  
DOCKED: USER    Estimated Free Energy of Binding    =   +3.72 kcal/mol  [=(1)+(2)+(3)-(4)]
DOCKED: USER    
DOCKED: USER    (1) Final Intermolecular Energy     =   -3.44 kcal/mol
DOCKED: USER        vdW + Hbond + desolv Energy     =   -3.50 kcal/mol
DOCKED: USER        Electrostatic Energy            =   +0.06 kcal/mol
DOCKED: USER    (2) Final Total Internal Energy     =  -14.98 kcal/mol
DOCKED: USER    (3) Torsional Free Energy           =   +7.16 kcal/mol
DOCKED: USER    (4) Unbound System's Energy  [=(2)] =  -14.98 kcal/mol
DOCKED: USER    
DOCKED: USER    
DOCKED: USER    NEWDPF move IHP_ideal_opt.pdbqt
DOCKED: USER    NEWDPF about 0.035000 0.082000 -0.065000
DOCKED: USER    NEWDPF tran0 -10.350129 -17.468928 0.186383
DOCKED: USER    NEWDPF quaternion0 0.831904 0.010515 0.192103 0.520501
DOCKED: USER    NEWDPF axisangle0 0.974285 0.012314 0.224982 117.268320
DOCKED: USER    NEWDPF quat0 0.974285 0.012314 0.224982 117.268320
DOCKED: USER    NEWDPF dihe0 -115.75 -46.33 164.24 -5.70 30.29 -166.76 -42.28 -25.00 43.87 75.83 -3.64 -104.04 60.60 171.89 170.55 -35.42 -9.53 -53.20 -22.50 15.49 -13.16 3.74 -15.94 -179.45 
DOCKED: USER  keepresnum = 1 
DOCKED: USER  
DOCKED: REMARK  24 active torsions:
DOCKED: REMARK  status: ('A' for Active; 'I' for Inactive)
DOCKED: REMARK    1  A    between atoms: C_1  and  O_7 
DOCKED: REMARK    2  A    between atoms: C_2  and  O_12 
DOCKED: REMARK    3  A    between atoms: C_3  and  O_17 
DOCKED: REMARK    4  A    between atoms: C_4  and  O_22 
DOCKED: REMARK    5  A    between atoms: C_5  and  O_27 
DOCKED: REMARK    6  A    between atoms: C_6  and  O_32 
DOCKED: REMARK    7  A    between atoms: O_7  and  P_8 
DOCKED: REMARK    8  A    between atoms: P_8  and  O_10 
DOCKED: REMARK    9  A    between atoms: P_8  and  O_11 
DOCKED: REMARK   10  A    between atoms: O_12  and  P_13 
DOCKED: REMARK   11  A    between atoms: P_13  and  O_15 
DOCKED: REMARK   12  A    between atoms: P_13  and  O_16 
DOCKED: REMARK   13  A    between atoms: O_17  and  P_18 
DOCKED: REMARK   14  A    between atoms: P_18  and  O_20 
DOCKED: REMARK   15  A    between atoms: P_18  and  O_21 
DOCKED: REMARK   16  A    between atoms: O_22  and  P_23 
DOCKED: REMARK   17  A    between atoms: P_23  and  O_25 
DOCKED: REMARK   18  A    between atoms: P_23  and  O_26 
DOCKED: REMARK   19  A    between atoms: O_27  and  P_28 
DOCKED: REMARK   20  A    between atoms: P_28  and  O_30 
DOCKED: REMARK   21  A    between atoms: P_28  and  O_31 
DOCKED: REMARK   22  A    between atoms: O_32  and  P_33 
DOCKED: REMARK   23  A    between atoms: P_33  and  O_35 
DOCKED: REMARK   24  A    between atoms: P_33  and  O_36 
DOCKED: USER                              x       y       z     vdW  Elec       q    Type
DOCKED: USER                           _______ _______ _______ _____ _____    ______ ____
DOCKED: ROOT
DOCKED: ATOM      1  C   UNL d   1      -9.139 -16.603   1.062 -0.14 -0.01    +0.194 C 
DOCKED: ATOM      2  C   UNL d   1     -10.583 -16.328   1.484 -0.06 -0.02    +0.194 C 
DOCKED: ATOM      3  C   UNL d   1     -11.507 -16.171   0.275 -0.08 -0.01    +0.194 C 
DOCKED: ATOM      4  C   UNL d   1     -11.405 -17.330  -0.714 -0.03 -0.01    +0.194 C 
DOCKED: ATOM      5  C   UNL d   1      -9.976 -17.714  -1.075 -0.08 +0.00    +0.194 C 
DOCKED: ATOM      6  C   UNL d   1      -9.037 -17.810   0.129 -0.08 -0.01    +0.194 C 
DOCKED: ENDROOT
DOCKED: BRANCH   1   7
DOCKED: ATOM      7  O   UNL d   1      -8.381 -16.906   2.236 -0.11 +0.04    -0.278 OA
DOCKED: BRANCH   7   8
DOCKED: ATOM      8  P   UNL d   1      -6.860 -16.424   2.303 -0.27 -0.08    +0.473 P 
DOCKED: ATOM      9  O   UNL d   1      -6.578 -15.362   3.307 -0.37 +0.06    -0.228 OA
DOCKED: BRANCH   8  10
DOCKED: ATOM     10  O   UNL d   1      -6.039 -17.767   2.562 -0.11 +0.16    -0.303 OA
DOCKED: ATOM     11  H   UNL d   1      -5.841 -18.198   1.710 +0.05 -0.07    +0.222 HD
DOCKED: ENDBRANCH   8  10
DOCKED: BRANCH   8  12
DOCKED: ATOM     12  O   UNL d   1      -6.469 -16.080   0.801 -0.42 -0.02    -0.303 OA
DOCKED: ATOM     13  H   UNL d   1      -6.076 -16.843   0.321 +0.09 +0.01    +0.222 HD
DOCKED: ENDBRANCH   8  12
DOCKED: ENDBRANCH   7   8
DOCKED: ENDBRANCH   1   7
DOCKED: BRANCH   2  14
DOCKED: ATOM     14  O   UNL d   1     -11.054 -17.423   2.279 -0.02 +0.02    -0.278 OA
DOCKED: BRANCH  14  15
DOCKED: ATOM     15  P   UNL d   1     -12.098 -17.068   3.441 -0.01 -0.04    +0.473 P 
DOCKED: ATOM     16  O   UNL d   1     -11.828 -17.658   4.790 -0.01 +0.02    -0.228 OA
DOCKED: BRANCH  15  17
DOCKED: ATOM     17  O   UNL d   1     -12.131 -15.476   3.458 -0.09 +0.03    -0.303 OA
DOCKED: ATOM     18  H   UNL d   1     -12.547 -15.124   2.648 +0.02 -0.01    +0.222 HD
DOCKED: ENDBRANCH  15  17
DOCKED: BRANCH  15  19
DOCKED: ATOM     19  O   UNL d   1     -13.519 -17.411   2.815 -0.00 +0.02    -0.303 OA
DOCKED: ATOM     20  H   UNL d   1     -13.733 -16.826   2.064 +0.01 -0.01    +0.222 HD
DOCKED: ENDBRANCH  15  19
DOCKED: ENDBRANCH  14  15
DOCKED: ENDBRANCH   2  14
DOCKED: BRANCH   6  21
DOCKED: ATOM     21  O   UNL d   1      -7.708 -17.831  -0.385 -0.14 -0.01    -0.278 OA
DOCKED: BRANCH  21  22
DOCKED: ATOM     22  P   UNL d   1      -6.800 -19.127  -0.180 -0.11 -0.03    +0.473 P 
DOCKED: ATOM     23  O   UNL d   1      -5.320 -18.975  -0.289 -0.17 +0.02    -0.228 OA
DOCKED: BRANCH  22  24
DOCKED: ATOM     24  O   UNL d   1      -7.313 -19.665   1.227 -0.04 +0.05    -0.303 OA
DOCKED: ATOM     25  H   UNL d   1      -7.528 -18.883   1.796 +0.06 -0.04    +0.222 HD
DOCKED: ENDBRANCH  22  24
DOCKED: BRANCH  22  26
DOCKED: ATOM     26  O   UNL d   1      -7.477 -20.164  -1.198 -0.03 +0.01    -0.303 OA
DOCKED: ATOM     27  H   UNL d   1      -8.012 -19.669  -1.852 +0.04 -0.00    +0.222 HD
DOCKED: ENDBRANCH  22  26
DOCKED: ENDBRANCH  21  22
DOCKED: ENDBRANCH   6  21
DOCKED: BRANCH   3  28
DOCKED: ATOM     28  O   UNL d   1     -12.846 -16.199   0.752 -0.04 +0.02    -0.278 OA
DOCKED: BRANCH  28  29
DOCKED: ATOM     29  P   UNL d   1     -13.769 -14.907   0.634 -0.04 -0.02    +0.473 P 
DOCKED: ATOM     30  O   UNL d   1     -13.289 -13.707   1.366 -0.55 -0.02    -0.228 OA
DOCKED: BRANCH  29  31
DOCKED: ATOM     31  O   UNL d   1     -13.883 -14.789  -0.958 -0.02 +0.02    -0.303 OA
DOCKED: ATOM     32  H   UNL d   1     -13.498 -15.602  -1.361 +0.02 -0.01    +0.222 HD
DOCKED: ENDBRANCH  29  31
DOCKED: BRANCH  29  33
DOCKED: ATOM     33  O   UNL d   1     -15.197 -15.477   1.047 -0.00 +0.02    -0.303 OA
DOCKED: ATOM     34  H   UNL d   1     -15.077 -16.178   1.733 +0.01 -0.01    +0.222 HD
DOCKED: ENDBRANCH  29  33
DOCKED: ENDBRANCH  28  29
DOCKED: ENDBRANCH   3  28
DOCKED: BRANCH   5  35
DOCKED: ATOM     35  O   UNL d   1     -10.059 -19.017  -1.648 -0.02 +0.01    -0.278 OA
DOCKED: BRANCH  35  36
DOCKED: ATOM     36  P   UNL d   1      -9.686 -19.247  -3.182 -0.04 -0.01    +0.473 P 
DOCKED: ATOM     37  O   UNL d   1      -8.577 -18.394  -3.711 -0.08 +0.00    -0.228 OA
DOCKED: BRANCH  36  38
DOCKED: ATOM     38  O   UNL d   1      -9.382 -20.809  -3.214 -0.00 +0.01    -0.303 OA
DOCKED: ATOM     39  H   UNL d   1      -9.092 -21.098  -2.322 +0.01 -0.01    +0.222 HD
DOCKED: ENDBRANCH  36  38
DOCKED: BRANCH  36  40
DOCKED: ATOM     40  O   UNL d   1     -11.100 -19.117  -3.899 -0.01 +0.01    -0.303 OA
DOCKED: ATOM     41  H   UNL d   1     -11.676 -18.459  -3.451 +0.01 -0.00    +0.222 HD
DOCKED: ENDBRANCH  36  40
DOCKED: ENDBRANCH  35  36
DOCKED: ENDBRANCH   5  35
DOCKED: BRANCH   4  42
DOCKED: ATOM     42  O   UNL d   1     -12.044 -16.902  -1.921 -0.02 +0.01    -0.278 OA
DOCKED: BRANCH  42  43
DOCKED: ATOM     43  P   UNL d   1     -11.350 -15.767  -2.801 -0.03 +0.00    +0.473 P 
DOCKED: ATOM     44  O   UNL d   1     -10.153 -15.090  -2.228 -0.60 -0.02    -0.228 OA
DOCKED: BRANCH  43  45
DOCKED: ATOM     45  O   UNL d   1     -11.079 -16.512  -4.181 -0.05 -0.01    -0.303 OA
DOCKED: ATOM     46  H   UNL d   1     -10.308 -17.111  -4.118 +0.03 +0.01    +0.222 HD
DOCKED: ENDBRANCH  43  45
DOCKED: BRANCH  43  47
DOCKED: ATOM     47  O   UNL d   1     -12.572 -14.804  -3.186 -0.01 +0.02    -0.303 OA
DOCKED: ATOM     48  H   UNL d   1     -12.821 -14.270  -2.403 +0.04 -0.02    +0.222 HD
DOCKED: ENDBRANCH  43  47
DOCKED: ENDBRANCH  42  43
DOCKED: ENDBRANCH   4  42
DOCKED: TORSDOF 24
DOCKED: TER
DOCKED: ENDMDL
________________________________________________________________________________


	BEGINNING GENETIC ALGORITHM DOCKING 98 of 100
Run: 98 Seed: 140895621 1632908322 [ Run 98 of 100 GA/GALS ]
Beginning LAMARCKIAN GENETIC ALGORITHM (LGA), with a maximum of 25000000 energy evaluations.

Final-Value: -19.285


	FINAL GENETIC ALGORITHM DOCKED STATE
	_______________________________________________


Detailed state:  trans -10.087 3.946 -20.509 quatxyzw 0.490633 0.493034 0.408115 0.591303 center 0.035 0.082 -0.065 ntor 24 145.2638 171.8904 138.7185 12.4065 121.0895 -162.7182 -35.2740 40.2020 12.8458 4.5300 69.5594 -73.6016 -85.0301 178.9583 14.8030 131.5863 -179.9181 113.1980 50.4581 7.2962 162.0324 -7.7360 -22.0006 166.4557
State:	-10.087   3.946 -20.509   0.608  0.611  0.506 107.501    145.26  171.89  138.72   12.41  121.09 -162.72  -35.27   40.20   12.85    4.53   69.56  -73.60  -85.03  178.96   14.80  131.59 -179.92  113.20   50.46    7.30  162.03   -7.74  -22.00  166.46

DOCKED: MODEL       98
DOCKED: USER    Run = 98
DOCKED: USER    DPF = D:/Protein_go_brrr/autodock/final/mut_K82N/IHP/dock.dpf
DOCKED: USER  
DOCKED: USER    Estimated Free Energy of Binding    =   +2.73 kcal/mol  [=(1)+(2)+(3)-(4)]
DOCKED: USER    
DOCKED: USER    (1) Final Intermolecular Energy     =   -4.43 kcal/mol
DOCKED: USER        vdW + Hbond + desolv Energy     =   -4.10 kcal/mol
DOCKED: USER        Electrostatic Energy            =   -0.33 kcal/mol
DOCKED: USER    (2) Final Total Internal Energy     =  -14.86 kcal/mol
DOCKED: USER    (3) Torsional Free Energy           =   +7.16 kcal/mol
DOCKED: USER    (4) Unbound System's Energy  [=(2)] =  -14.86 kcal/mol
DOCKED: USER    
DOCKED: USER    
DOCKED: USER    NEWDPF move IHP_ideal_opt.pdbqt
DOCKED: USER    NEWDPF about 0.035000 0.082000 -0.065000
DOCKED: USER    NEWDPF tran0 -10.087458 3.945516 -20.508643
DOCKED: USER    NEWDPF quaternion0 0.490633 0.493034 0.408115 0.591303
DOCKED: USER    NEWDPF axisangle0 0.608387 0.611363 0.506064 107.500966
DOCKED: USER    NEWDPF quat0 0.608387 0.611363 0.506064 107.500966
DOCKED: USER    NEWDPF dihe0 145.26 171.89 138.72 12.41 121.09 -162.72 -35.27 40.20 12.85 4.53 69.56 -73.60 -85.03 178.96 14.80 131.59 -179.92 113.20 50.46 7.30 162.03 -7.74 -22.00 166.46 
DOCKED: USER  keepresnum = 1 
DOCKED: USER  
DOCKED: REMARK  24 active torsions:
DOCKED: REMARK  status: ('A' for Active; 'I' for Inactive)
DOCKED: REMARK    1  A    between atoms: C_1  and  O_7 
DOCKED: REMARK    2  A    between atoms: C_2  and  O_12 
DOCKED: REMARK    3  A    between atoms: C_3  and  O_17 
DOCKED: REMARK    4  A    between atoms: C_4  and  O_22 
DOCKED: REMARK    5  A    between atoms: C_5  and  O_27 
DOCKED: REMARK    6  A    between atoms: C_6  and  O_32 
DOCKED: REMARK    7  A    between atoms: O_7  and  P_8 
DOCKED: REMARK    8  A    between atoms: P_8  and  O_10 
DOCKED: REMARK    9  A    between atoms: P_8  and  O_11 
DOCKED: REMARK   10  A    between atoms: O_12  and  P_13 
DOCKED: REMARK   11  A    between atoms: P_13  and  O_15 
DOCKED: REMARK   12  A    between atoms: P_13  and  O_16 
DOCKED: REMARK   13  A    between atoms: O_17  and  P_18 
DOCKED: REMARK   14  A    between atoms: P_18  and  O_20 
DOCKED: REMARK   15  A    between atoms: P_18  and  O_21 
DOCKED: REMARK   16  A    between atoms: O_22  and  P_23 
DOCKED: REMARK   17  A    between atoms: P_23  and  O_25 
DOCKED: REMARK   18  A    between atoms: P_23  and  O_26 
DOCKED: REMARK   19  A    between atoms: O_27  and  P_28 
DOCKED: REMARK   20  A    between atoms: P_28  and  O_30 
DOCKED: REMARK   21  A    between atoms: P_28  and  O_31 
DOCKED: REMARK   22  A    between atoms: O_32  and  P_33 
DOCKED: REMARK   23  A    between atoms: P_33  and  O_35 
DOCKED: REMARK   24  A    between atoms: P_33  and  O_36 
DOCKED: USER                              x       y       z     vdW  Elec       q    Type
DOCKED: USER                           _______ _______ _______ _____ _____    ______ ____
DOCKED: ROOT
DOCKED: ATOM      1  C   UNL d   1     -10.864   4.560 -19.093 -0.13 +0.06    +0.194 C 
DOCKED: ATOM      2  C   UNL d   1     -11.799   4.046 -20.189 -0.08 +0.05    +0.194 C 
DOCKED: ATOM      3  C   UNL d   1     -11.344   4.498 -21.579 -0.02 +0.02    +0.194 C 
DOCKED: ATOM      4  C   UNL d   1      -9.881   4.172 -21.869 -0.04 +0.00    +0.194 C 
DOCKED: ATOM      5  C   UNL d   1      -8.925   4.563 -20.749 -0.12 -0.00    +0.194 C 
DOCKED: ATOM      6  C   UNL d   1      -9.409   4.166 -19.353 -0.14 +0.03    +0.194 C 
DOCKED: ENDROOT
DOCKED: BRANCH   1   7
DOCKED: ATOM      7  O   UNL d   1     -11.253   3.957 -17.856 -0.07 -0.19    -0.278 OA
DOCKED: BRANCH   7   8
DOCKED: ATOM      8  P   UNL d   1     -12.611   4.444 -17.169 -0.08 +0.32    +0.473 P 
DOCKED: ATOM      9  O   UNL d   1     -12.940   5.881 -17.370 -0.03 -0.06    -0.228 OA
DOCKED: BRANCH   8  10
DOCKED: ATOM     10  O   UNL d   1     -13.718   3.458 -17.758 -0.51 -0.32    -0.303 OA
DOCKED: ATOM     11  H   UNL d   1     -13.346   2.962 -18.512 +0.01 +0.25    +0.222 HD
DOCKED: ENDBRANCH   8  10
DOCKED: BRANCH   8  12
DOCKED: ATOM     12  O   UNL d   1     -12.505   3.961 -15.659 -0.25 -0.27    -0.303 OA
DOCKED: ATOM     13  H   UNL d   1     -12.649   4.687 -15.011 +0.04 +0.11    +0.222 HD
DOCKED: ENDBRANCH   8  12
DOCKED: ENDBRANCH   7   8
DOCKED: ENDBRANCH   1   7
DOCKED: BRANCH   2  14
DOCKED: ATOM     14  O   UNL d   1     -11.814   2.614 -20.157 -0.10 -0.13    -0.278 OA
DOCKED: BRANCH  14  15
DOCKED: ATOM     15  P   UNL d   1     -13.237   1.908 -20.362 -0.06 +0.24    +0.473 P 
DOCKED: ATOM     16  O   UNL d   1     -13.666   0.940 -19.304 -0.05 -0.27    -0.228 OA
DOCKED: BRANCH  15  17
DOCKED: ATOM     17  O   UNL d   1     -14.251   3.125 -20.534 -0.01 -0.09    -0.303 OA
DOCKED: ATOM     18  H   UNL d   1     -13.878   3.815 -21.115 +0.01 +0.04    +0.222 HD
DOCKED: ENDBRANCH  15  17
DOCKED: BRANCH  15  19
DOCKED: ATOM     19  O   UNL d   1     -13.182   1.327 -21.842 -0.01 -0.06    -0.303 OA
DOCKED: ATOM     20  H   UNL d   1     -12.850   1.989 -22.477 +0.01 +0.02    +0.222 HD
DOCKED: ENDBRANCH  15  19
DOCKED: ENDBRANCH  14  15
DOCKED: ENDBRANCH   2  14
DOCKED: BRANCH   6  21
DOCKED: ATOM     21  O   UNL d   1      -8.607   4.884 -18.419 -0.19 -0.01    -0.278 OA
DOCKED: BRANCH  21  22
DOCKED: ATOM     22  P   UNL d   1      -8.599   6.479 -18.445 -0.10 -0.03    +0.473 P 
DOCKED: ATOM     23  O   UNL d   1      -9.905   7.189 -18.568 -0.03 -0.00    -0.228 OA
DOCKED: BRANCH  22  24
DOCKED: ATOM     24  O   UNL d   1      -7.775   6.822 -17.127 -0.15 +0.04    -0.303 OA
DOCKED: ATOM     25  H   UNL d   1      -6.905   6.350 -17.176 -0.24 -0.09    +0.222 HD
DOCKED: ENDBRANCH  22  24
DOCKED: BRANCH  22  26
DOCKED: ATOM     26  O   UNL d   1      -7.524   6.781 -19.595 -0.08 +0.05    -0.303 OA
DOCKED: ATOM     27  H   UNL d   1      -7.460   6.004 -20.187 +0.05 -0.03    +0.222 HD
DOCKED: ENDBRANCH  22  26
DOCKED: ENDBRANCH  21  22
DOCKED: ENDBRANCH   6  21
DOCKED: BRANCH   3  28
DOCKED: ATOM     28  O   UNL d   1     -12.092   3.759 -22.535 -0.01 -0.02    -0.278 OA
DOCKED: BRANCH  28  29
DOCKED: ATOM     29  P   UNL d   1     -13.312   4.438 -23.302 +0.00 +0.01    +0.473 P 
DOCKED: ATOM     30  O   UNL d   1     -13.057   4.795 -24.722 +0.00 +0.00    -0.228 OA
DOCKED: BRANCH  29  31
DOCKED: ATOM     31  O   UNL d   1     -14.457   3.356 -23.020 +0.00 -0.02    -0.303 OA
DOCKED: ATOM     32  H   UNL d   1     -14.165   2.777 -22.279 +0.01 +0.02    +0.222 HD
DOCKED: ENDBRANCH  29  31
DOCKED: BRANCH  29  33
DOCKED: ATOM     33  O   UNL d   1     -13.703   5.628 -22.320 +0.00 -0.01    -0.303 OA
DOCKED: ATOM     34  H   UNL d   1     -13.304   6.468 -22.657 +0.00 +0.00    +0.222 HD
DOCKED: ENDBRANCH  29  33
DOCKED: ENDBRANCH  28  29
DOCKED: ENDBRANCH   3  28
DOCKED: BRANCH   5  35
DOCKED: ATOM     35  O   UNL d   1      -7.721   3.840 -20.998 -0.18 +0.04    -0.278 OA
DOCKED: BRANCH  35  36
DOCKED: ATOM     36  P   UNL d   1      -6.416   4.601 -21.508 -0.13 -0.07    +0.473 P 
DOCKED: ATOM     37  O   UNL d   1      -5.676   3.935 -22.624 -0.69 +0.02    -0.228 OA
DOCKED: BRANCH  36  38
DOCKED: ATOM     38  O   UNL d   1      -6.997   6.037 -21.874 -0.04 +0.03    -0.303 OA
DOCKED: ATOM     39  H   UNL d   1      -7.715   5.934 -22.535 +0.03 -0.02    +0.222 HD
DOCKED: ENDBRANCH  36  38
DOCKED: BRANCH  36  40
DOCKED: ATOM     40  O   UNL d   1      -5.615   4.845 -20.156 -0.26 +0.10    -0.303 OA
DOCKED: ATOM     41  H   UNL d   1      -6.218   5.053 -19.408 -0.48 -0.12    +0.222 HD
DOCKED: ENDBRANCH  36  40
DOCKED: ENDBRANCH  35  36
DOCKED: ENDBRANCH   5  35
DOCKED: BRANCH   4  42
DOCKED: ATOM     42  O   UNL d   1      -9.509   4.930 -23.025 -0.01 +0.01    -0.278 OA
DOCKED: BRANCH  42  43
DOCKED: ATOM     43  P   UNL d   1      -9.713   6.512 -23.009 +0.00 -0.02    +0.473 P 
DOCKED: ATOM     44  O   UNL d   1      -8.910   7.317 -23.970 +0.00 +0.01    -0.228 OA
DOCKED: BRANCH  43  45
DOCKED: ATOM     45  O   UNL d   1     -11.287   6.662 -23.190 +0.00 +0.00    -0.303 OA
DOCKED: ATOM     46  H   UNL d   1     -11.717   5.793 -23.318 +0.00 -0.00    +0.222 HD
DOCKED: ENDBRANCH  43  45
DOCKED: BRANCH  43  47
DOCKED: ATOM     47  O   UNL d   1      -9.525   6.890 -21.463 -0.01 +0.01    -0.303 OA
DOCKED: ATOM     48  H   UNL d   1      -8.652   7.316 -21.339 +0.02 -0.01    +0.222 HD
DOCKED: ENDBRANCH  43  47
DOCKED: ENDBRANCH  42  43
DOCKED: ENDBRANCH   4  42
DOCKED: TORSDOF 24
DOCKED: TER
DOCKED: ENDMDL
________________________________________________________________________________


	BEGINNING GENETIC ALGORITHM DOCKING 99 of 100
Run: 99 Seed: 613646535 1776832210 [ Run 99 of 100 GA/GALS ]
Beginning LAMARCKIAN GENETIC ALGORITHM (LGA), with a maximum of 25000000 energy evaluations.

Final-Value: -17.391


	FINAL GENETIC ALGORITHM DOCKED STATE
	_______________________________________________


Detailed state:  trans -12.985 11.858 2.324 quatxyzw 0.103488 -0.561927 -0.737475 -0.360082 center 0.035 0.082 -0.065 ntor 24 -156.0121 30.1637 145.1443 134.3738 65.3647 135.7528 -121.4258 -155.4936 132.5627 -65.9270 10.7455 -146.8493 -120.4145 93.8411 -96.2795 -116.0513 -125.2767 -5.9213 34.7633 -16.8135 -16.5722 -31.2264 -2.2589 162.8570
State:	-12.985  11.858   2.324   0.111 -0.602 -0.791 -137.790   -156.01   30.16  145.14  134.37   65.36  135.75 -121.43 -155.49  132.56  -65.93   10.75 -146.85 -120.41   93.84  -96.28 -116.05 -125.28   -5.92   34.76  -16.81  -16.57  -31.23   -2.26  162.86

DOCKED: MODEL       99
DOCKED: USER    Run = 99
DOCKED: USER    DPF = D:/Protein_go_brrr/autodock/final/mut_K82N/IHP/dock.dpf
DOCKED: USER  
DOCKED: USER    Estimated Free Energy of Binding    =   +3.87 kcal/mol  [=(1)+(2)+(3)-(4)]
DOCKED: USER    
DOCKED: USER    (1) Final Intermolecular Energy     =   -3.29 kcal/mol
DOCKED: USER        vdW + Hbond + desolv Energy     =   -3.05 kcal/mol
DOCKED: USER        Electrostatic Energy            =   -0.24 kcal/mol
DOCKED: USER    (2) Final Total Internal Energy     =  -14.11 kcal/mol
DOCKED: USER    (3) Torsional Free Energy           =   +7.16 kcal/mol
DOCKED: USER    (4) Unbound System's Energy  [=(2)] =  -14.11 kcal/mol
DOCKED: USER    
DOCKED: USER    
DOCKED: USER    NEWDPF move IHP_ideal_opt.pdbqt
DOCKED: USER    NEWDPF about 0.035000 0.082000 -0.065000
DOCKED: USER    NEWDPF tran0 -12.984667 11.858368 2.323792
DOCKED: USER    NEWDPF quaternion0 0.103488 -0.561927 -0.737475 -0.360082
DOCKED: USER    NEWDPF axisangle0 0.110929 -0.602331 -0.790501 -137.789562
DOCKED: USER    NEWDPF quat0 0.110929 -0.602331 -0.790501 -137.789562
DOCKED: USER    NEWDPF dihe0 -156.01 30.16 145.14 134.37 65.36 135.75 -121.43 -155.49 132.56 -65.93 10.75 -146.85 -120.41 93.84 -96.28 -116.05 -125.28 -5.92 34.76 -16.81 -16.57 -31.23 -2.26 162.86 
DOCKED: USER  keepresnum = 1 
DOCKED: USER  
DOCKED: REMARK  24 active torsions:
DOCKED: REMARK  status: ('A' for Active; 'I' for Inactive)
DOCKED: REMARK    1  A    between atoms: C_1  and  O_7 
DOCKED: REMARK    2  A    between atoms: C_2  and  O_12 
DOCKED: REMARK    3  A    between atoms: C_3  and  O_17 
DOCKED: REMARK    4  A    between atoms: C_4  and  O_22 
DOCKED: REMARK    5  A    between atoms: C_5  and  O_27 
DOCKED: REMARK    6  A    between atoms: C_6  and  O_32 
DOCKED: REMARK    7  A    between atoms: O_7  and  P_8 
DOCKED: REMARK    8  A    between atoms: P_8  and  O_10 
DOCKED: REMARK    9  A    between atoms: P_8  and  O_11 
DOCKED: REMARK   10  A    between atoms: O_12  and  P_13 
DOCKED: REMARK   11  A    between atoms: P_13  and  O_15 
DOCKED: REMARK   12  A    between atoms: P_13  and  O_16 
DOCKED: REMARK   13  A    between atoms: O_17  and  P_18 
DOCKED: REMARK   14  A    between atoms: P_18  and  O_20 
DOCKED: REMARK   15  A    between atoms: P_18  and  O_21 
DOCKED: REMARK   16  A    between atoms: O_22  and  P_23 
DOCKED: REMARK   17  A    between atoms: P_23  and  O_25 
DOCKED: REMARK   18  A    between atoms: P_23  and  O_26 
DOCKED: REMARK   19  A    between atoms: O_27  and  P_28 
DOCKED: REMARK   20  A    between atoms: P_28  and  O_30 
DOCKED: REMARK   21  A    between atoms: P_28  and  O_31 
DOCKED: REMARK   22  A    between atoms: O_32  and  P_33 
DOCKED: REMARK   23  A    between atoms: P_33  and  O_35 
DOCKED: REMARK   24  A    between atoms: P_33  and  O_36 
DOCKED: USER                              x       y       z     vdW  Elec       q    Type
DOCKED: USER                           _______ _______ _______ _____ _____    ______ ____
DOCKED: ROOT
DOCKED: ATOM      1  C   UNL d   1     -14.695  11.741   2.112 -0.03 +0.02    +0.194 C 
DOCKED: ATOM      2  C   UNL d   1     -13.925  12.358   0.943 -0.06 +0.02    +0.194 C 
DOCKED: ATOM      3  C   UNL d   1     -12.858  13.344   1.425 -0.13 +0.02    +0.194 C 
DOCKED: ATOM      4  C   UNL d   1     -11.928  12.754   2.481 -0.13 +0.02    +0.194 C 
DOCKED: ATOM      5  C   UNL d   1     -12.650  12.027   3.609 -0.09 +0.02    +0.194 C 
DOCKED: ATOM      6  C   UNL d   1     -13.759  11.088   3.130 -0.06 +0.03    +0.194 C 
DOCKED: ENDROOT
DOCKED: BRANCH   1   7
DOCKED: ATOM      7  O   UNL d   1     -15.544  10.714   1.594 -0.01 -0.03    -0.278 OA
DOCKED: BRANCH   7   8
DOCKED: ATOM      8  P   UNL d   1     -17.004  11.119   1.089 +0.00 +0.03    +0.473 P 
DOCKED: ATOM      9  O   UNL d   1     -17.948  11.540   2.160 +0.00 -0.01    -0.228 OA
DOCKED: BRANCH   8  10
DOCKED: ATOM     10  O   UNL d   1     -16.736  12.259   0.005 -0.00 -0.02    -0.303 OA
DOCKED: ATOM     11  H   UNL d   1     -16.018  11.979  -0.593 +0.01 +0.02    +0.222 HD
DOCKED: ENDBRANCH   8  10
DOCKED: BRANCH   8  12
DOCKED: ATOM     12  O   UNL d   1     -17.480   9.904   0.183 -0.00 -0.02    -0.303 OA
DOCKED: ATOM     13  H   UNL d   1     -16.745   9.303  -0.073 +0.01 +0.02    +0.222 HD
DOCKED: ENDBRANCH   8  12
DOCKED: ENDBRANCH   7   8
DOCKED: ENDBRANCH   1   7
DOCKED: BRANCH   2  14
DOCKED: ATOM     14  O   UNL d   1     -13.281  11.313   0.204 -0.04 -0.04    -0.278 OA
DOCKED: BRANCH  14  15
DOCKED: ATOM     15  P   UNL d   1     -13.786  11.082  -1.298 -0.03 +0.07    +0.473 P 
DOCKED: ATOM     16  O   UNL d   1     -12.773  10.576  -2.277 -0.10 -0.04    -0.228 OA
DOCKED: BRANCH  15  17
DOCKED: ATOM     17  O   UNL d   1     -15.035  10.106  -1.141 -0.01 -0.04    -0.303 OA
DOCKED: ATOM     18  H   UNL d   1     -15.654  10.434  -0.461 +0.01 +0.02    +0.222 HD
DOCKED: ENDBRANCH  15  17
DOCKED: BRANCH  15  19
DOCKED: ATOM     19  O   UNL d   1     -14.496  12.449  -1.692 -0.02 -0.04    -0.303 OA
DOCKED: ATOM     20  H   UNL d   1     -13.847  13.156  -1.867 +0.04 +0.03    +0.222 HD
DOCKED: ENDBRANCH  15  19
DOCKED: ENDBRANCH  14  15
DOCKED: ENDBRANCH   2  14
DOCKED: BRANCH   6  21
DOCKED: ATOM     21  O   UNL d   1     -14.546  10.762   4.273 -0.02 -0.06    -0.278 OA
DOCKED: BRANCH  21  22
DOCKED: ATOM     22  P   UNL d   1     -14.665   9.243   4.747 -0.04 +0.26    +0.473 P 
DOCKED: ATOM     23  O   UNL d   1     -15.365   8.278   3.850 -0.08 -0.09    -0.228 OA
DOCKED: BRANCH  22  24
DOCKED: ATOM     24  O   UNL d   1     -13.147   8.882   5.062 -0.46 -0.38    -0.303 OA
DOCKED: ATOM     25  H   UNL d   1     -12.593   9.679   4.865 +0.06 +0.11    +0.222 HD
DOCKED: ENDBRANCH  22  24
DOCKED: BRANCH  22  26
DOCKED: ATOM     26  O   UNL d   1     -15.279   9.408   6.218 -0.14 -0.13    -0.303 OA
DOCKED: ATOM     27  H   UNL d   1     -14.875  10.188   6.650 +0.02 +0.06    +0.222 HD
DOCKED: ENDBRANCH  22  26
DOCKED: ENDBRANCH  21  22
DOCKED: ENDBRANCH   6  21
DOCKED: BRANCH   3  28
DOCKED: ATOM     28  O   UNL d   1     -12.024  13.648   0.314 -0.16 -0.03    -0.278 OA
DOCKED: BRANCH  28  29
DOCKED: ATOM     29  P   UNL d   1     -12.498  14.700  -0.784 -0.17 +0.08    +0.473 P 
DOCKED: ATOM     30  O   UNL d   1     -12.138  14.367  -2.186 -0.22 -0.06    -0.228 OA
DOCKED: BRANCH  29  31
DOCKED: ATOM     31  O   UNL d   1     -14.057  14.784  -0.435 -0.03 -0.04    -0.303 OA
DOCKED: ATOM     32  H   UNL d   1     -14.482  13.932  -0.687 +0.03 +0.02    +0.222 HD
DOCKED: ENDBRANCH  29  31
DOCKED: BRANCH  29  33
DOCKED: ATOM     33  O   UNL d   1     -11.932  16.069  -0.201 -0.16 -0.07    -0.303 OA
DOCKED: ATOM     34  H   UNL d   1     -12.651  16.526   0.301 +0.05 +0.04    +0.222 HD
DOCKED: ENDBRANCH  29  33
DOCKED: ENDBRANCH  28  29
DOCKED: ENDBRANCH   3  28
DOCKED: BRANCH   5  35
DOCKED: ATOM     35  O   UNL d   1     -11.662  11.220   4.245 -0.13 -0.04    -0.278 OA
DOCKED: BRANCH  35  36
DOCKED: ATOM     36  P   UNL d   1     -11.460  11.291   5.826 -0.09 +0.01    +0.473 P 
DOCKED: ATOM     37  O   UNL d   1     -10.638  12.439   6.320 -0.07 -0.01    -0.228 OA
DOCKED: BRANCH  36  38
DOCKED: ATOM     38  O   UNL d   1     -12.966  11.292   6.346 -0.04 -0.02    -0.303 OA
DOCKED: ATOM     39  H   UNL d   1     -13.397  10.451   6.082 +0.04 +0.06    +0.222 HD
DOCKED: ENDBRANCH  36  38
DOCKED: BRANCH  36  40
DOCKED: ATOM     40  O   UNL d   1     -10.938   9.828   6.168 -0.22 +0.06    -0.303 OA
DOCKED: ATOM     41  H   UNL d   1     -11.623   9.296   6.629 -0.20 -0.09    +0.222 HD
DOCKED: ENDBRANCH  36  40
DOCKED: ENDBRANCH  35  36
DOCKED: ENDBRANCH   5  35
DOCKED: BRANCH   4  42
DOCKED: ATOM     42  O   UNL d   1     -11.222  13.851   3.071 -0.20 -0.03    -0.278 OA
DOCKED: BRANCH  42  43
DOCKED: ATOM     43  P   UNL d   1     -12.054  15.094   3.625 -0.07 +0.06    +0.473 P 
DOCKED: ATOM     44  O   UNL d   1     -13.329  14.804   4.338 -0.02 -0.02    -0.228 OA
DOCKED: BRANCH  43  45
DOCKED: ATOM     45  O   UNL d   1     -10.978  15.869   4.505 -0.09 -0.06    -0.303 OA
DOCKED: ATOM     46  H   UNL d   1     -10.662  15.320   5.250 +0.06 +0.04    +0.222 HD
DOCKED: ENDBRANCH  43  45
DOCKED: BRANCH  43  47
DOCKED: ATOM     47  O   UNL d   1     -12.179  16.051   2.346 -0.10 -0.05    -0.303 OA
DOCKED: ATOM     48  H   UNL d   1     -12.218  15.502   1.535 +0.06 +0.03    +0.222 HD
DOCKED: ENDBRANCH  43  47
DOCKED: ENDBRANCH  42  43
DOCKED: ENDBRANCH   4  42
DOCKED: TORSDOF 24
DOCKED: TER
DOCKED: ENDMDL
________________________________________________________________________________


	BEGINNING GENETIC ALGORITHM DOCKING 100 of 100
Run: 100 Seed: 1076385817 1983227435 [ Run 100 of 100 GA/GALS ]
Beginning LAMARCKIAN GENETIC ALGORITHM (LGA), with a maximum of 25000000 energy evaluations.

Final-Value: -18.520


	FINAL GENETIC ALGORITHM DOCKED STATE
	_______________________________________________


Detailed state:  trans -11.744 7.554 -9.465 quatxyzw -0.285859 -0.481848 0.169573 0.810772 center 0.035 0.082 -0.065 ntor 24 74.6250 -9.1995 116.5012 126.6470 123.2893 169.5194 -36.9320 -150.7384 143.0672 -18.4534 -147.1138 -175.2297 -175.5676 81.7938 40.0309 139.2316 -172.6268 158.8979 35.0730 -13.5525 -174.9556 -25.6015 17.7418 -173.7911
State:	-11.744   7.554  -9.465  -0.488 -0.823  0.290 71.657     74.63   -9.20  116.50  126.65  123.29  169.52  -36.93 -150.74  143.07  -18.45 -147.11 -175.23 -175.57   81.79   40.03  139.23 -172.63  158.90   35.07  -13.55 -174.96  -25.60   17.74 -173.79

DOCKED: MODEL      100
DOCKED: USER    Run = 100
DOCKED: USER    DPF = D:/Protein_go_brrr/autodock/final/mut_K82N/IHP/dock.dpf
DOCKED: USER  
DOCKED: USER    Estimated Free Energy of Binding    =   +3.31 kcal/mol  [=(1)+(2)+(3)-(4)]
DOCKED: USER    
DOCKED: USER    (1) Final Intermolecular Energy     =   -3.85 kcal/mol
DOCKED: USER        vdW + Hbond + desolv Energy     =   -3.56 kcal/mol
DOCKED: USER        Electrostatic Energy            =   -0.29 kcal/mol
DOCKED: USER    (2) Final Total Internal Energy     =  -14.67 kcal/mol
DOCKED: USER    (3) Torsional Free Energy           =   +7.16 kcal/mol
DOCKED: USER    (4) Unbound System's Energy  [=(2)] =  -14.67 kcal/mol
DOCKED: USER    
DOCKED: USER    
DOCKED: USER    NEWDPF move IHP_ideal_opt.pdbqt
DOCKED: USER    NEWDPF about 0.035000 0.082000 -0.065000
DOCKED: USER    NEWDPF tran0 -11.743746 7.553711 -9.465204
DOCKED: USER    NEWDPF quaternion0 -0.285859 -0.481848 0.169573 0.810772
DOCKED: USER    NEWDPF axisangle0 -0.488347 -0.823163 0.289690 71.657092
DOCKED: USER    NEWDPF quat0 -0.488347 -0.823163 0.289690 71.657092
DOCKED: USER    NEWDPF dihe0 74.63 -9.20 116.50 126.65 123.29 169.52 -36.93 -150.74 143.07 -18.45 -147.11 -175.23 -175.57 81.79 40.03 139.23 -172.63 158.90 35.07 -13.55 -174.96 -25.60 17.74 -173.79 
DOCKED: USER  keepresnum = 1 
DOCKED: USER  
DOCKED: REMARK  24 active torsions:
DOCKED: REMARK  status: ('A' for Active; 'I' for Inactive)
DOCKED: REMARK    1  A    between atoms: C_1  and  O_7 
DOCKED: REMARK    2  A    between atoms: C_2  and  O_12 
DOCKED: REMARK    3  A    between atoms: C_3  and  O_17 
DOCKED: REMARK    4  A    between atoms: C_4  and  O_22 
DOCKED: REMARK    5  A    between atoms: C_5  and  O_27 
DOCKED: REMARK    6  A    between atoms: C_6  and  O_32 
DOCKED: REMARK    7  A    between atoms: O_7  and  P_8 
DOCKED: REMARK    8  A    between atoms: P_8  and  O_10 
DOCKED: REMARK    9  A    between atoms: P_8  and  O_11 
DOCKED: REMARK   10  A    between atoms: O_12  and  P_13 
DOCKED: REMARK   11  A    between atoms: P_13  and  O_15 
DOCKED: REMARK   12  A    between atoms: P_13  and  O_16 
DOCKED: REMARK   13  A    between atoms: O_17  and  P_18 
DOCKED: REMARK   14  A    between atoms: P_18  and  O_20 
DOCKED: REMARK   15  A    between atoms: P_18  and  O_21 
DOCKED: REMARK   16  A    between atoms: O_22  and  P_23 
DOCKED: REMARK   17  A    between atoms: P_23  and  O_25 
DOCKED: REMARK   18  A    between atoms: P_23  and  O_26 
DOCKED: REMARK   19  A    between atoms: O_27  and  P_28 
DOCKED: REMARK   20  A    between atoms: P_28  and  O_30 
DOCKED: REMARK   21  A    between atoms: P_28  and  O_31 
DOCKED: REMARK   22  A    between atoms: O_32  and  P_33 
DOCKED: REMARK   23  A    between atoms: P_33  and  O_35 
DOCKED: REMARK   24  A    between atoms: P_33  and  O_36 
DOCKED: USER                              x       y       z     vdW  Elec       q    Type
DOCKED: USER                           _______ _______ _______ _____ _____    ______ ____
DOCKED: ROOT
DOCKED: ATOM      1  C   UNL d   1     -11.092   6.367 -10.538 -0.04 +0.06    +0.194 C 
DOCKED: ATOM      2  C   UNL d   1     -12.384   5.971  -9.820 -0.03 +0.09    +0.194 C 
DOCKED: ATOM      3  C   UNL d   1     -12.358   6.372  -8.344 -0.05 +0.15    +0.194 C 
DOCKED: ATOM      4  C   UNL d   1     -12.003   7.841  -8.126 -0.03 +0.09    +0.194 C 
DOCKED: ATOM      5  C   UNL d   1     -10.786   8.309  -8.914 -0.03 +0.06    +0.194 C 
DOCKED: ATOM      6  C   UNL d   1     -10.783   7.855 -10.375 -0.02 +0.05    +0.194 C 
DOCKED: ENDROOT
DOCKED: BRANCH   1   7
DOCKED: ATOM      7  O   UNL d   1     -11.264   6.117 -11.935 -0.03 -0.06    -0.278 OA
DOCKED: BRANCH   7   8
DOCKED: ATOM      8  P   UNL d   1     -10.918   4.661 -12.494 -0.09 +0.14    +0.473 P 
DOCKED: ATOM      9  O   UNL d   1      -9.917   4.630 -13.596 -0.22 -0.06    -0.228 OA
DOCKED: BRANCH   8  10
DOCKED: ATOM     10  O   UNL d   1     -10.454   3.850 -11.201 -0.09 -0.11    -0.303 OA
DOCKED: ATOM     11  H   UNL d   1      -9.513   4.033 -11.021 +0.07 +0.07    +0.222 HD
DOCKED: ENDBRANCH   8  10
DOCKED: BRANCH   8  12
DOCKED: ATOM     12  O   UNL d   1     -12.325   3.998 -12.816 -0.07 -0.12    -0.303 OA
DOCKED: ATOM     13  H   UNL d   1     -12.939   4.005 -12.048 +0.03 +0.08    +0.222 HD
DOCKED: ENDBRANCH   8  12
DOCKED: ENDBRANCH   7   8
DOCKED: ENDBRANCH   1   7
DOCKED: BRANCH   2  14
DOCKED: ATOM     14  O   UNL d   1     -13.489   6.628 -10.452 +0.00 -0.08    -0.278 OA
DOCKED: BRANCH  14  15
DOCKED: ATOM     15  P   UNL d   1     -14.599   5.684 -11.117 +0.01 +0.11    +0.473 P 
DOCKED: ATOM     16  O   UNL d   1     -16.028   6.067 -10.893 +0.00 -0.04    -0.228 OA
DOCKED: BRANCH  15  17
DOCKED: ATOM     17  O   UNL d   1     -14.204   5.648 -12.660 +0.00 -0.07    -0.303 OA
DOCKED: ATOM     18  H   UNL d   1     -13.268   5.896 -12.789 +0.02 +0.05    +0.222 HD
DOCKED: ENDBRANCH  15  17
DOCKED: BRANCH  15  19
DOCKED: ATOM     19  O   UNL d   1     -14.201   4.216 -10.651 -0.00 -0.10    -0.303 OA
DOCKED: ATOM     20  H   UNL d   1     -14.312   4.100  -9.689 +0.01 +0.09    +0.222 HD
DOCKED: ENDBRANCH  15  19
DOCKED: ENDBRANCH  14  15
DOCKED: ENDBRANCH   2  14
DOCKED: BRANCH   6  21
DOCKED: ATOM     21  O   UNL d   1      -9.461   8.064 -10.868 -0.03 -0.04    -0.278 OA
DOCKED: BRANCH  21  22
DOCKED: ATOM     22  P   UNL d   1      -8.331   6.973 -10.590 -0.06 +0.07    +0.473 P 
DOCKED: ATOM     23  O   UNL d   1      -8.427   5.663 -11.295 -0.13 -0.04    -0.228 OA
DOCKED: BRANCH  22  24
DOCKED: ATOM     24  O   UNL d   1      -7.002   7.797 -10.890 -0.12 -0.01    -0.303 OA
DOCKED: ATOM     25  H   UNL d   1      -6.995   8.595 -10.302 +0.10 +0.00    +0.222 HD
DOCKED: ENDBRANCH  22  24
DOCKED: BRANCH  22  26
DOCKED: ATOM     26  O   UNL d   1      -8.326   6.911  -8.988 -0.10 -0.08    -0.303 OA
DOCKED: ATOM     27  H   UNL d   1      -8.941   7.587  -8.638 +0.07 +0.07    +0.222 HD
DOCKED: ENDBRANCH  22  26
DOCKED: ENDBRANCH  21  22
DOCKED: ENDBRANCH   6  21
DOCKED: BRANCH   3  28
DOCKED: ATOM     28  O   UNL d   1     -13.677   6.223  -7.836 -0.04 -0.19    -0.278 OA
DOCKED: BRANCH  28  29
DOCKED: ATOM     29  P   UNL d   1     -14.182   4.807  -7.309 -0.02 +0.46    +0.473 P 
DOCKED: ATOM     30  O   UNL d   1     -14.453   4.726  -5.851 -0.25 -0.25    -0.228 OA
DOCKED: BRANCH  29  31
DOCKED: ATOM     31  O   UNL d   1     -15.422   4.569  -8.293 -0.00 -0.12    -0.303 OA
DOCKED: ATOM     32  H   UNL d   1     -15.355   5.205  -9.042 +0.01 +0.07    +0.222 HD
DOCKED: ENDBRANCH  29  31
DOCKED: BRANCH  29  33
DOCKED: ATOM     33  O   UNL d   1     -13.076   3.821  -7.892 -0.08 -0.47    -0.303 OA
DOCKED: ATOM     34  H   UNL d   1     -13.373   3.492  -8.776 +0.02 +0.18    +0.222 HD
DOCKED: ENDBRANCH  29  33
DOCKED: ENDBRANCH  28  29
DOCKED: ENDBRANCH   3  28
DOCKED: BRANCH   5  35
DOCKED: ATOM     35  O   UNL d   1     -10.852   9.734  -8.917 -0.02 -0.07    -0.278 OA
DOCKED: BRANCH  35  36
DOCKED: ATOM     36  P   UNL d   1      -9.513  10.601  -8.938 -0.08 +0.11    +0.473 P 
DOCKED: ATOM     37  O   UNL d   1      -9.411  11.655  -7.882 -0.18 -0.06    -0.228 OA
DOCKED: BRANCH  36  38
DOCKED: ATOM     38  O   UNL d   1      -8.392   9.472  -8.846 -0.12 -0.05    -0.303 OA
DOCKED: ATOM     39  H   UNL d   1      -8.339   9.002  -9.706 +0.08 +0.03    +0.222 HD
DOCKED: ENDBRANCH  36  38
DOCKED: BRANCH  36  40
DOCKED: ATOM     40  O   UNL d   1      -9.445  11.085 -10.451 -0.58 -0.11    -0.303 OA
DOCKED: ATOM     41  H   UNL d   1      -9.401  10.327 -11.075 +0.05 +0.04    +0.222 HD
DOCKED: ENDBRANCH  36  40
DOCKED: ENDBRANCH  35  36
DOCKED: ENDBRANCH   5  35
DOCKED: BRANCH   4  42
DOCKED: ATOM     42  O   UNL d   1     -11.688   7.990  -6.737 -0.05 -0.16    -0.278 OA
DOCKED: BRANCH  42  43
DOCKED: ATOM     43  P   UNL d   1     -10.287   7.447  -6.202 -0.06 +0.39    +0.473 P 
DOCKED: ATOM     44  O   UNL d   1     -10.195   7.092  -4.758 -0.67 -0.21    -0.228 OA
DOCKED: BRANCH  43  45
DOCKED: ATOM     45  O   UNL d   1      -9.980   6.238  -7.190 -0.52 -0.36    -0.303 OA
DOCKED: ATOM     46  H   UNL d   1      -9.035   6.210  -7.438 +0.07 +0.17    +0.222 HD
DOCKED: ENDBRANCH  43  45
DOCKED: BRANCH  43  47
DOCKED: ATOM     47  O   UNL d   1      -9.246   8.555  -6.710 -0.40 -0.13    -0.303 OA
DOCKED: ATOM     48  H   UNL d   1      -9.737   9.282  -7.148 +0.09 +0.07    +0.222 HD
DOCKED: ENDBRANCH  43  47
DOCKED: ENDBRANCH  42  43
DOCKED: ENDBRANCH   4  42
DOCKED: TORSDOF 24
DOCKED: TER
DOCKED: ENDMDL
________________________________________________________________________________

DPF> analysis                             # perform a ranked cluster analysis


		CLUSTER ANALYSIS OF CONFORMATIONS
		_________________________________

Number of conformations = 100

RMSD cluster analysis will be performed using the ligand atoms only (48 / 48 total atoms).

Outputting structurally similar clusters, ranked in order of increasing energy.


________________________________________________________________________________

Number of distinct conformational clusters found = 83,  out of 100 runs,
Using an rmsd-tolerance of 2.0 A


	CLUSTERING HISTOGRAM
	____________________

________________________________________________________________________________
     |           |     |           |     |                                    
Clus | Lowest    | Run | Mean      | Num | Histogram                          
-ter | Binding   |     | Binding   | in  |                                    
Rank | Energy    |     | Energy    | Clus|    5    10   15   20   25   30   35
_____|___________|_____|___________|_____|____:____|____:____|____:____|____:___
   1 |     +0.55 |  15 |     +0.95 |   2 |##
   2 |     +0.79 |  79 |     +0.79 |   1 |#
   3 |     +0.86 |  93 |     +0.86 |   1 |#
   4 |     +0.99 |  56 |     +1.66 |   3 |###
   5 |     +1.02 |  55 |     +1.93 |   3 |###
   6 |     +1.20 |  80 |     +1.20 |   1 |#
   7 |     +1.23 |  67 |     +1.75 |   3 |###
   8 |     +1.42 |  60 |     +1.55 |   2 |##
   9 |     +1.49 |  58 |     +1.49 |   1 |#
  10 |     +1.50 |  36 |     +1.50 |   1 |#
  11 |     +1.51 |  29 |     +1.51 |   1 |#
  12 |     +1.52 |  53 |     +1.52 |   1 |#
  13 |     +1.55 |  20 |     +2.06 |   4 |####
  14 |     +1.57 |  59 |     +1.57 |   1 |#
  15 |     +1.62 |  28 |     +1.75 |   2 |##
  16 |     +1.62 |  37 |     +1.62 |   1 |#
  17 |     +1.64 |   9 |     +1.64 |   1 |#
  18 |     +1.65 |  35 |     +1.65 |   1 |#
  19 |     +1.65 |  31 |     +1.65 |   1 |#
  20 |     +1.67 |  65 |     +1.67 |   1 |#
  21 |     +1.80 |  30 |     +2.47 |   3 |###
  22 |     +1.93 |  26 |     +1.93 |   1 |#
  23 |     +1.99 |  32 |     +1.99 |   1 |#
  24 |     +2.01 |  91 |     +2.32 |   2 |##
  25 |     +2.02 |  88 |     +2.02 |   1 |#
  26 |     +2.03 |   3 |     +2.03 |   1 |#
  27 |     +2.10 |  12 |     +2.34 |   2 |##
  28 |     +2.11 |  63 |     +2.11 |   1 |#
  29 |     +2.14 |  19 |     +2.14 |   1 |#
  30 |     +2.29 |  46 |     +2.29 |   1 |#
  31 |     +2.35 |   1 |     +2.35 |   1 |#
  32 |     +2.42 |  86 |     +2.42 |   1 |#
  33 |     +2.42 |  57 |     +2.42 |   1 |#
  34 |     +2.44 |  70 |     +2.44 |   1 |#
  35 |     +2.51 |  89 |     +2.51 |   1 |#
  36 |     +2.52 |  51 |     +2.52 |   1 |#
  37 |     +2.53 |  40 |     +2.53 |   1 |#
  38 |     +2.55 |  69 |     +2.55 |   1 |#
  39 |     +2.55 |  17 |     +2.55 |   1 |#
  40 |     +2.56 |  24 |     +2.56 |   1 |#
  41 |     +2.64 |  82 |     +2.64 |   1 |#
  42 |     +2.69 |  54 |     +2.69 |   1 |#
  43 |     +2.72 |  61 |     +2.72 |   1 |#
  44 |     +2.73 |  98 |     +2.73 |   1 |#
  45 |     +2.77 |  84 |     +2.77 |   1 |#
  46 |     +2.79 |  38 |     +2.79 |   1 |#
  47 |     +2.83 |  62 |     +2.83 |   1 |#
  48 |     +2.84 |  47 |     +2.84 |   1 |#
  49 |     +2.84 |  25 |     +2.84 |   1 |#
  50 |     +2.91 |  49 |     +2.91 |   1 |#
  51 |     +2.93 |   2 |     +2.93 |   1 |#
  52 |     +2.96 |  73 |     +2.96 |   1 |#
  53 |     +3.00 |  74 |     +3.00 |   1 |#
  54 |     +3.01 |   8 |     +3.01 |   1 |#
  55 |     +3.04 |  18 |     +3.04 |   1 |#
  56 |     +3.07 |  92 |     +3.07 |   1 |#
  57 |     +3.07 |  33 |     +3.07 |   1 |#
  58 |     +3.12 |  11 |     +3.12 |   1 |#
  59 |     +3.14 |  21 |     +3.31 |   2 |##
  60 |     +3.17 |  95 |     +3.17 |   1 |#
  61 |     +3.18 |   5 |     +3.18 |   1 |#
  62 |     +3.31 | 100 |     +3.31 |   1 |#
  63 |     +3.34 |  22 |     +3.34 |   1 |#
  64 |     +3.35 |  85 |     +3.35 |   1 |#
  65 |     +3.39 |  34 |     +3.39 |   1 |#
  66 |     +3.46 |   7 |     +3.46 |   1 |#
  67 |     +3.47 |  10 |     +3.47 |   1 |#
  68 |     +3.54 |  90 |     +3.54 |   1 |#
  69 |     +3.55 |  94 |     +3.55 |   1 |#
  70 |     +3.66 |   4 |     +3.66 |   1 |#
  71 |     +3.71 |  96 |     +3.71 |   1 |#
  72 |     +3.72 |  97 |     +3.72 |   1 |#
  73 |     +3.72 |  71 |     +3.72 |   1 |#
  74 |     +3.87 |  99 |     +3.87 |   1 |#
  75 |     +3.88 |  75 |     +3.88 |   1 |#
  76 |     +3.91 |   6 |     +3.91 |   1 |#
  77 |     +3.92 |  83 |     +3.92 |   1 |#
  78 |     +3.99 |  52 |     +3.99 |   1 |#
  79 |     +4.06 |  43 |     +4.06 |   1 |#
  80 |     +4.13 |  77 |     +4.13 |   1 |#
  81 |     +4.18 |  41 |     +4.18 |   1 |#
  82 |     +4.44 |  23 |     +4.44 |   1 |#
  83 |     +4.52 |  42 |     +4.52 |   1 |#
_____|___________|_____|___________|_____|______________________________________


Number of multi-member conformational clusters found = 11, out of 100 runs.

	RMSD TABLE
	__________

_____________________________________________________________________
     |      |      |           |         |                 |
Rank | Sub- | Run  | Binding   | Cluster | Reference       | Grep
     | Rank |      | Energy    | RMSD    | RMSD            | Pattern
_____|______|______|___________|_________|_________________|___________
   1      1     15       +0.55      0.00     17.26           RANKING
   1      2     39       +1.35      1.45     17.82           RANKING
   2      1     79       +0.79      0.00     11.45           RANKING
   3      1     93       +0.86      0.00     13.80           RANKING
   4      1     56       +0.99      0.00     17.75           RANKING
   4      2     68       +1.88      1.98     18.97           RANKING
   4      3     44       +2.09      1.54     18.03           RANKING
   5      1     55       +1.02      0.00     13.32           RANKING
   5      2     87       +1.65      1.94     13.33           RANKING
   5      3     27       +3.11      1.97     12.92           RANKING
   6      1     80       +1.20      0.00     12.55           RANKING
   7      1     67       +1.23      0.00     19.12           RANKING
   7      2     14       +1.92      1.44     18.91           RANKING
   7      3     78       +2.10      1.85     19.57           RANKING
   8      1     60       +1.42      0.00     16.05           RANKING
   8      2     66       +1.68      1.82     16.13           RANKING
   9      1     58       +1.49      0.00     17.70           RANKING
  10      1     36       +1.50      0.00     18.19           RANKING
  11      1     29       +1.51      0.00     19.01           RANKING
  12      1     53       +1.52      0.00     13.83           RANKING
  13      1     20       +1.55      0.00     14.70           RANKING
  13      2     16       +1.94      1.73     15.11           RANKING
  13      3     45       +2.24      1.85     15.35           RANKING
  13      4     76       +2.50      1.81     14.71           RANKING
  14      1     59       +1.57      0.00     14.81           RANKING
  15      1     28       +1.62      0.00     20.57           RANKING
  15      2     72       +1.88      1.72     20.43           RANKING
  16      1     37       +1.62      0.00     12.71           RANKING
  17      1      9       +1.64      0.00     20.72           RANKING
  18      1     35       +1.65      0.00     18.83           RANKING
  19      1     31       +1.65      0.00     11.27           RANKING
  20      1     65       +1.67      0.00     17.79           RANKING
  21      1     30       +1.80      0.00     10.76           RANKING
  21      2     64       +2.52      1.85     11.58           RANKING
  21      3     48       +3.09      1.91     11.44           RANKING
  22      1     26       +1.93      0.00     18.96           RANKING
  23      1     32       +1.99      0.00     12.13           RANKING
  24      1     91       +2.01      0.00     17.24           RANKING
  24      2     50       +2.63      1.90     17.43           RANKING
  25      1     88       +2.02      0.00     10.29           RANKING
  26      1      3       +2.03      0.00     17.95           RANKING
  27      1     12       +2.10      0.00     16.18           RANKING
  27      2     81       +2.57      2.00     15.42           RANKING
  28      1     63       +2.11      0.00     11.41           RANKING
  29      1     19       +2.14      0.00     19.63           RANKING
  30      1     46       +2.29      0.00     20.29           RANKING
  31      1      1       +2.35      0.00     19.07           RANKING
  32      1     86       +2.42      0.00     12.58           RANKING
  33      1     57       +2.42      0.00     11.55           RANKING
  34      1     70       +2.44      0.00     11.07           RANKING
  35      1     89       +2.51      0.00     20.42           RANKING
  36      1     51       +2.52      0.00     19.48           RANKING
  37      1     40       +2.53      0.00     18.03           RANKING
  38      1     69       +2.55      0.00     15.39           RANKING
  39      1     17       +2.55      0.00     20.91           RANKING
  40      1     24       +2.56      0.00     15.07           RANKING
  41      1     82       +2.64      0.00     10.85           RANKING
  42      1     54       +2.69      0.00     19.26           RANKING
  43      1     61       +2.72      0.00     12.80           RANKING
  44      1     98       +2.73      0.00     21.48           RANKING
  45      1     84       +2.77      0.00     12.68           RANKING
  46      1     38       +2.79      0.00     20.13           RANKING
  47      1     62       +2.83      0.00     13.59           RANKING
  48      1     47       +2.84      0.00     15.35           RANKING
  49      1     25       +2.84      0.00     13.80           RANKING
  50      1     49       +2.91      0.00     14.46           RANKING
  51      1      2       +2.93      0.00     11.84           RANKING
  52      1     73       +2.96      0.00     20.25           RANKING
  53      1     74       +3.00      0.00     17.99           RANKING
  54      1      8       +3.01      0.00     18.90           RANKING
  55      1     18       +3.04      0.00     11.84           RANKING
  56      1     92       +3.07      0.00     10.35           RANKING
  57      1     33       +3.07      0.00     16.52           RANKING
  58      1     11       +3.12      0.00     12.57           RANKING
  59      1     21       +3.14      0.00     18.14           RANKING
  59      2     13       +3.48      1.91     18.04           RANKING
  60      1     95       +3.17      0.00     10.58           RANKING
  61      1      5       +3.18      0.00     19.49           RANKING
  62      1    100       +3.31      0.00     13.12           RANKING
  63      1     22       +3.34      0.00     18.34           RANKING
  64      1     85       +3.35      0.00     21.28           RANKING
  65      1     34       +3.39      0.00     19.74           RANKING
  66      1      7       +3.46      0.00     15.69           RANKING
  67      1     10       +3.47      0.00     19.49           RANKING
  68      1     90       +3.54      0.00     21.72           RANKING
  69      1     94       +3.55      0.00     12.54           RANKING
  70      1      4       +3.66      0.00     18.20           RANKING
  71      1     96       +3.71      0.00     10.58           RANKING
  72      1     97       +3.72      0.00     16.22           RANKING
  73      1     71       +3.72      0.00     13.64           RANKING
  74      1     99       +3.87      0.00     14.58           RANKING
  75      1     75       +3.88      0.00     19.76           RANKING
  76      1      6       +3.91      0.00     15.14           RANKING
  77      1     83       +3.92      0.00     18.84           RANKING
  78      1     52       +3.99      0.00     17.33           RANKING
  79      1     43       +4.06      0.00     15.69           RANKING
  80      1     77       +4.13      0.00     19.54           RANKING
  81      1     41       +4.18      0.00     15.41           RANKING
  82      1     23       +4.44      0.00     16.13           RANKING
  83      1     42       +4.52      0.00     22.28           RANKING
_______________________________________________________________________



	INFORMATION ENTROPY ANALYSIS FOR THIS CLUSTERING
	________________________________________________


Information entropy for this clustering = 0.94  (rmstol = 2.00 Angstrom)

_______________________________________________________________________


	STATISTICAL MECHANICAL ANALYSIS
	_______________________________


Partition function, Q =    99.57            at Temperature, T = 298.15 K
Free energy,        A ~ -2725.92 kcal/mol   at Temperature, T = 298.15 K
Internal energy,    U =     2.55 kcal/mol   at Temperature, T = 298.15 K
Entropy,            S =     9.15 kcal/mol/K at Temperature, T = 298.15 K

_______________________________________________________________________


	LOWEST ENERGY DOCKED CONFORMATION from EACH CLUSTER
	___________________________________________________



Keeping original residue number (specified in the input PDBQ file) for outputting.

MODEL       15
USER    Run = 15
USER    Cluster Rank = 1
USER    Number of conformations in this cluster = 2
USER  
USER    RMSD from reference structure       = 17.257 A
USER  
USER    Estimated Free Energy of Binding    =   +0.55 kcal/mol  [=(1)+(2)+(3)-(4)]
USER    
USER    (1) Final Intermolecular Energy     =   -6.61 kcal/mol
USER        vdW + Hbond + desolv Energy     =   -5.83 kcal/mol
USER        Electrostatic Energy            =   -0.78 kcal/mol
USER    (2) Final Total Internal Energy     =  -15.21 kcal/mol
USER    (3) Torsional Free Energy           =   +7.16 kcal/mol
USER    (4) Unbound System's Energy  [=(2)] =  -15.21 kcal/mol
USER    
USER    
USER  
USER    DPF = D:/Protein_go_brrr/autodock/final/mut_K82N/IHP/dock.dpf
USER    NEWDPF move	IHP_ideal_opt.pdbqt
USER    NEWDPF about	0.035000 0.082000 -0.065000
USER    NEWDPF tran0	-2.103135 10.437484 -16.057676
USER    NEWDPF axisangle0	0.244899 0.192532 0.950240 179.105973
USER    NEWDPF quaternion0	0.244892 0.192527 0.950211 0.007802
USER    NEWDPF dihe0	-148.82 5.87 156.32 117.09 96.35 84.95 -63.16 21.06 -22.26 60.77 92.21 -117.93 36.31 24.73 -180.00 -179.88 -54.01 104.47 -134.56 -29.41 16.01 22.90 171.44 -2.69 
USER  
USER                              x       y       z    vdW   Elec        q     RMS 
ATOM      1  C   UNL d   1      -2.937  11.652 -15.155 -0.27 -0.14    +0.194    17.257
ATOM      2  C   UNL d   1      -2.097  12.160 -16.328 -0.11 -0.21    +0.194    17.257
ATOM      3  C   UNL d   1      -0.737  11.462 -16.396 -0.18 -0.15    +0.194    17.257
ATOM      4  C   UNL d   1      -0.841   9.939 -16.378 -0.24 -0.07    +0.194    17.257
ATOM      5  C   UNL d   1      -1.762   9.393 -15.294 -0.32 -0.07    +0.194    17.257
ATOM      6  C   UNL d   1      -3.097  10.131 -15.185 -0.24 -0.07    +0.194    17.257
ATOM      7  O   UNL d   1      -4.244  12.220 -15.262 -0.17 +0.16    -0.278    17.257
ATOM      8  P   UNL d   1      -5.429  11.301 -15.812 -0.01 -0.14    +0.473    17.257
ATOM      9  O   UNL d   1      -6.142  10.504 -14.777 -0.06 +0.04    -0.228    17.257
ATOM     10  O   UNL d   1      -6.381  12.319 -16.587 -0.01 +0.08    -0.303    17.257
ATOM     11  H   UNL d   1      -5.859  12.823 -17.239 +0.03 -0.08    +0.222    17.257
ATOM     12  O   UNL d   1      -4.788  10.471 -17.006 -0.02 +0.09    -0.303    17.257
ATOM     13  H   UNL d   1      -4.169  11.002 -17.556 +0.04 -0.08    +0.222    17.257
ATOM     14  O   UNL d   1      -2.801  11.908 -17.550 -0.08 +0.19    -0.278    17.257
ATOM     15  P   UNL d   1      -3.546  13.158 -18.218 -0.04 -0.39    +0.473    17.257
ATOM     16  O   UNL d   1      -2.698  14.099 -19.015 -0.08 +0.20    -0.228    17.257
ATOM     17  O   UNL d   1      -4.713  12.499 -19.079 -0.01 +0.11    -0.303    17.257
ATOM     18  H   UNL d   1      -5.325  11.991 -18.512 +0.01 -0.07    +0.222    17.257
ATOM     19  O   UNL d   1      -4.364  13.817 -17.023 -0.03 +0.36    -0.303    17.257
ATOM     20  H   UNL d   1      -3.782  14.069 -16.283 -0.16 -0.55    +0.222    17.257
ATOM     21  O   UNL d   1      -3.681   9.747 -13.942 -0.24 +0.08    -0.278    17.257
ATOM     22  P   UNL d   1      -4.570   8.425 -13.860 -0.18 -0.09    +0.473    17.257
ATOM     23  O   UNL d   1      -5.675   8.381 -12.860 -0.16 +0.03    -0.228    17.257
ATOM     24  O   UNL d   1      -5.032   8.249 -15.373 -0.15 +0.06    -0.303    17.257
ATOM     25  H   UNL d   1      -4.323   8.621 -15.957 +0.09 -0.05    +0.222    17.257
ATOM     26  O   UNL d   1      -3.450   7.287 -13.721 -0.37 +0.06    -0.303    17.257
ATOM     27  H   UNL d   1      -3.182   6.989 -14.614 -0.28 -0.08    +0.222    17.257
ATOM     28  O   UNL d   1      -0.152  11.786 -17.651 -0.11 +0.17    -0.278    17.257
ATOM     29  P   UNL d   1       1.370  12.248 -17.733 -0.10 -0.22    +0.473    17.257
ATOM     30  O   UNL d   1       2.048  11.991 -19.029 -0.03 +0.05    -0.228    17.257
ATOM     31  O   UNL d   1       1.222  13.777 -17.281 -0.05 +0.36    -0.303    17.257
ATOM     32  H   UNL d   1       0.265  14.011 -17.277 -0.48 -0.49    +0.222    17.257
ATOM     33  O   UNL d   1       1.999  11.560 -16.443 -0.19 +0.05    -0.303    17.257
ATOM     34  H   UNL d   1       2.184  10.609 -16.643 +0.08 +0.01    +0.222    17.257
ATOM     35  O   UNL d   1      -2.054   8.050 -15.676 -0.27 +0.10    -0.278    17.257
ATOM     36  P   UNL d   1      -2.732   7.744 -17.087 -0.15 -0.15    +0.473    17.257
ATOM     37  O   UNL d   1      -3.225   8.939 -17.838 -0.07 +0.06    -0.228    17.257
ATOM     38  O   UNL d   1      -1.582   6.931 -17.831 -0.26 +0.09    -0.303    17.257
ATOM     39  H   UNL d   1      -1.030   7.556 -18.348 +0.09 -0.05    +0.222    17.257
ATOM     40  O   UNL d   1      -3.807   6.632 -16.713 -0.15 +0.11    -0.303    17.257
ATOM     41  H   UNL d   1      -4.008   6.629 -15.751 -0.06 -0.06    +0.222    17.257
ATOM     42  O   UNL d   1       0.472   9.437 -16.108 -0.28 +0.05    -0.278    17.257
ATOM     43  P   UNL d   1       1.228   8.607 -17.241 -0.15 -0.02    +0.473    17.257
ATOM     44  O   UNL d   1       2.716   8.676 -17.265 -0.21 -0.05    -0.228    17.257
ATOM     45  O   UNL d   1       0.647   7.139 -17.046 -0.27 +0.05    -0.303    17.257
ATOM     46  H   UNL d   1      -0.192   7.150 -16.544 +0.03 -0.07    +0.222    17.257
ATOM     47  O   UNL d   1       0.493   9.072 -18.588 -0.03 +0.05    -0.303    17.257
ATOM     48  H   UNL d   1       0.612  10.037 -18.704 +0.06 -0.04    +0.222    17.257
TER
ENDMDL
MODEL       79
USER    Run = 79
USER    Cluster Rank = 2
USER    Number of conformations in this cluster = 1
USER  
USER    RMSD from reference structure       = 11.447 A
USER  
USER    Estimated Free Energy of Binding    =   +0.79 kcal/mol  [=(1)+(2)+(3)-(4)]
USER    
USER    (1) Final Intermolecular Energy     =   -6.37 kcal/mol
USER        vdW + Hbond + desolv Energy     =   -6.18 kcal/mol
USER        Electrostatic Energy            =   -0.18 kcal/mol
USER    (2) Final Total Internal Energy     =  -10.35 kcal/mol
USER    (3) Torsional Free Energy           =   +7.16 kcal/mol
USER    (4) Unbound System's Energy  [=(2)] =  -10.35 kcal/mol
USER    
USER    
USER  
USER    DPF = D:/Protein_go_brrr/autodock/final/mut_K82N/IHP/dock.dpf
USER    NEWDPF move	IHP_ideal_opt.pdbqt
USER    NEWDPF about	0.035000 0.082000 -0.065000
USER    NEWDPF tran0	-8.694071 -5.299284 10.115934
USER    NEWDPF axisangle0	0.644701 0.232086 0.728352 -150.240480
USER    NEWDPF quaternion0	0.623082 0.224304 0.703928 -0.256791
USER    NEWDPF dihe0	106.52 167.66 95.78 135.25 180.00 142.04 149.20 32.21 -15.79 154.19 99.85 123.53 -25.98 -32.25 26.60 71.94 -118.01 -110.31 34.18 -41.43 -27.63 159.48 -77.95 161.34 
USER  
USER                              x       y       z    vdW   Elec        q     RMS 
ATOM      1  C   UNL d   1      -7.951  -3.818  10.603 -0.23 -0.04    +0.194    11.447
ATOM      2  C   UNL d   1      -8.137  -3.999   9.096 -0.16 -0.03    +0.194    11.447
ATOM      3  C   UNL d   1      -7.769  -5.415   8.646 -0.21 -0.03    +0.194    11.447
ATOM      4  C   UNL d   1      -8.475  -6.504   9.450 -0.13 -0.03    +0.194    11.447
ATOM      5  C   UNL d   1      -8.413  -6.301  10.958 -0.10 -0.02    +0.194    11.447
ATOM      6  C   UNL d   1      -8.721  -4.870  11.403 -0.12 -0.03    +0.194    11.447
ATOM      7  O   UNL d   1      -8.475  -2.538  10.967 -0.15 +0.06    -0.278    11.447
ATOM      8  P   UNL d   1      -7.504  -1.272  10.896 -0.31 -0.17    +0.473    11.447
ATOM      9  O   UNL d   1      -6.375  -1.396   9.935 -0.50 +0.10    -0.228    11.447
ATOM     10  O   UNL d   1      -8.480  -0.054  10.565 -0.16 +0.08    -0.303    11.447
ATOM     11  H   UNL d   1      -9.031  -0.277   9.792 +0.11 -0.04    +0.222    11.447
ATOM     12  O   UNL d   1      -7.102  -0.976  12.404 -0.40 +0.16    -0.303    11.447
ATOM     13  H   UNL d   1      -6.130  -0.995  12.555 -0.48 -0.16    +0.222    11.447
ATOM     14  O   UNL d   1      -9.509  -3.757   8.762 -0.11 +0.03    -0.278    11.447
ATOM     15  P   UNL d   1      -9.899  -2.249   8.389 -0.08 -0.04    +0.473    11.447
ATOM     16  O   UNL d   1      -8.791  -1.369   7.901 -0.61 -0.03    -0.228    11.447
ATOM     17  O   UNL d   1     -11.076  -2.405   7.326 -0.06 +0.05    -0.303    11.447
ATOM     18  H   UNL d   1     -11.276  -3.346   7.159 +0.06 -0.05    +0.222    11.447
ATOM     19  O   UNL d   1     -10.688  -1.716   9.663 -0.03 +0.04    -0.303    11.447
ATOM     20  H   UNL d   1     -10.084  -1.514  10.402 +0.06 -0.03    +0.222    11.447
ATOM     21  O   UNL d   1      -8.294  -4.759  12.759 -0.13 +0.03    -0.278    11.447
ATOM     22  P   UNL d   1      -9.285  -4.158  13.855 -0.06 -0.06    +0.473    11.447
ATOM     23  O   UNL d   1     -10.614  -4.810  14.037 -0.02 +0.02    -0.228    11.447
ATOM     24  O   UNL d   1      -8.365  -4.143  15.154 -0.07 +0.05    -0.303    11.447
ATOM     25  H   UNL d   1      -8.210  -3.199  15.411 -0.52 -0.10    +0.222    11.447
ATOM     26  O   UNL d   1      -9.313  -2.606  13.452 -0.10 +0.06    -0.303    11.447
ATOM     27  H   UNL d   1      -8.444  -2.355  13.079 +0.06 -0.06    +0.222    11.447
ATOM     28  O   UNL d   1      -8.230  -5.573   7.310 -0.22 +0.05    -0.278    11.447
ATOM     29  P   UNL d   1      -9.697  -6.123   7.025 -0.12 -0.14    +0.473    11.447
ATOM     30  O   UNL d   1     -10.780  -5.511   7.838 -0.06 +0.05    -0.228    11.447
ATOM     31  O   UNL d   1      -9.771  -5.914   5.440 -0.22 +0.20    -0.303    11.447
ATOM     32  H   UNL d   1     -10.718  -5.894   5.170 -0.01 -0.21    +0.222    11.447
ATOM     33  O   UNL d   1      -9.496  -7.697   7.163 -0.14 +0.08    -0.303    11.447
ATOM     34  H   UNL d   1      -9.674  -7.963   8.098 +0.07 -0.04    +0.222    11.447
ATOM     35  O   UNL d   1      -9.430  -7.138  11.504 -0.02 +0.03    -0.278    11.447
ATOM     36  P   UNL d   1      -9.488  -8.686  11.123 +0.00 -0.04    +0.473    11.447
ATOM     37  O   UNL d   1      -9.972  -8.993   9.741 -0.03 +0.03    -0.228    11.447
ATOM     38  O   UNL d   1      -7.991  -9.149  11.409 -0.05 +0.02    -0.303    11.447
ATOM     39  H   UNL d   1      -7.443  -8.974  10.614 +0.08 -0.02    +0.222    11.447
ATOM     40  O   UNL d   1     -10.317  -9.303  12.332 -0.00 +0.02    -0.303    11.447
ATOM     41  H   UNL d   1     -11.197  -9.631  12.040 +0.01 -0.02    +0.222    11.447
ATOM     42  O   UNL d   1      -7.800  -7.734   9.163 -0.11 +0.04    -0.278    11.447
ATOM     43  P   UNL d   1      -6.211  -7.789   9.285 -0.24 -0.06    +0.473    11.447
ATOM     44  O   UNL d   1      -5.421  -6.944   8.346 -0.36 +0.03    -0.228    11.447
ATOM     45  O   UNL d   1      -5.967  -7.456  10.822 -0.26 +0.03    -0.303    11.447
ATOM     46  H   UNL d   1      -6.735  -7.714  11.370 +0.10 -0.02    +0.222    11.447
ATOM     47  O   UNL d   1      -5.894  -9.359   9.237 -0.23 +0.05    -0.303    11.447
ATOM     48  H   UNL d   1      -6.376  -9.808   9.961 +0.09 -0.02    +0.222    11.447
TER
ENDMDL
MODEL       93
USER    Run = 93
USER    Cluster Rank = 3
USER    Number of conformations in this cluster = 1
USER  
USER    RMSD from reference structure       = 13.800 A
USER  
USER    Estimated Free Energy of Binding    =   +0.86 kcal/mol  [=(1)+(2)+(3)-(4)]
USER    
USER    (1) Final Intermolecular Energy     =   -6.30 kcal/mol
USER        vdW + Hbond + desolv Energy     =   -5.95 kcal/mol
USER        Electrostatic Energy            =   -0.35 kcal/mol
USER    (2) Final Total Internal Energy     =  -14.78 kcal/mol
USER    (3) Torsional Free Energy           =   +7.16 kcal/mol
USER    (4) Unbound System's Energy  [=(2)] =  -14.78 kcal/mol
USER    
USER    
USER  
USER    DPF = D:/Protein_go_brrr/autodock/final/mut_K82N/IHP/dock.dpf
USER    NEWDPF move	IHP_ideal_opt.pdbqt
USER    NEWDPF about	0.035000 0.082000 -0.065000
USER    NEWDPF tran0	8.754349 -14.845365 -1.850115
USER    NEWDPF axisangle0	-0.080061 -0.615358 0.784171 -76.251217
USER    NEWDPF quaternion0	-0.049429 -0.379915 0.484138 -0.786659
USER    NEWDPF dihe0	144.58 97.76 171.33 121.90 60.17 88.15 -34.93 -165.47 84.94 75.90 119.56 97.69 135.89 92.27 82.37 147.67 50.97 87.30 34.37 -24.15 164.81 -36.39 15.58 -43.52 
USER  
USER                              x       y       z    vdW   Elec        q     RMS 
ATOM      1  C   UNL d   1       9.191 -14.541  -0.207 -0.12 +0.03    +0.194    13.800
ATOM      2  C   UNL d   1       9.708 -15.854  -0.795 -0.08 +0.02    +0.194    13.800
ATOM      3  C   UNL d   1       8.635 -16.567  -1.621 -0.06 +0.03    +0.194    13.800
ATOM      4  C   UNL d   1       7.998 -15.671  -2.681 -0.11 +0.03    +0.194    13.800
ATOM      5  C   UNL d   1       7.571 -14.304  -2.162 -0.15 +0.03    +0.194    13.800
ATOM      6  C   UNL d   1       8.620 -13.618  -1.285 -0.09 +0.03    +0.194    13.800
ATOM      7  O   UNL d   1      10.292 -13.859   0.399 -0.05 -0.04    -0.278    13.800
ATOM      8  P   UNL d   1      10.637 -14.180   1.925 -0.09 +0.13    +0.473    13.800
ATOM      9  O   UNL d   1      11.679 -13.308   2.533 -0.11 -0.07    -0.228    13.800
ATOM     10  O   UNL d   1       9.229 -14.088   2.668 -0.20 -0.13    -0.303    13.800
ATOM     11  H   UNL d   1       8.576 -13.665   2.080 +0.09 +0.07    +0.222    13.800
ATOM     12  O   UNL d   1      10.931 -15.741   1.962 -0.05 -0.07    -0.303    13.800
ATOM     13  H   UNL d   1      11.602 -16.023   1.299 +0.03 +0.03    +0.222    13.800
ATOM     14  O   UNL d   1      10.828 -15.576  -1.645 -0.01 -0.02    -0.278    13.800
ATOM     15  P   UNL d   1      12.270 -16.000  -1.091 +0.01 +0.02    +0.473    13.800
ATOM     16  O   UNL d   1      13.283 -16.424  -2.108 -0.00 -0.00    -0.228    13.800
ATOM     17  O   UNL d   1      12.742 -14.741  -0.236 -0.00 -0.02    -0.303    13.800
ATOM     18  H   UNL d   1      12.275 -14.702   0.620 +0.02 +0.02    +0.222    13.800
ATOM     19  O   UNL d   1      11.959 -17.063   0.051 -0.01 -0.02    -0.303    13.800
ATOM     20  H   UNL d   1      11.508 -17.851  -0.303 +0.02 +0.01    +0.222    13.800
ATOM     21  O   UNL d   1       7.960 -12.548  -0.613 -0.14 -0.04    -0.278    13.800
ATOM     22  P   UNL d   1       6.764 -12.863   0.394 -0.28 +0.13    +0.473    13.800
ATOM     23  O   UNL d   1       6.976 -12.595   1.846 -0.41 -0.07    -0.228    13.800
ATOM     24  O   UNL d   1       5.562 -12.054  -0.265 -0.28 -0.07    -0.303    13.800
ATOM     25  H   UNL d   1       5.923 -11.531  -1.025 +0.12 +0.04    +0.222    13.800
ATOM     26  O   UNL d   1       6.400 -14.375   0.004 -0.79 -0.15    -0.303    13.800
ATOM     27  H   UNL d   1       5.768 -14.371  -0.743 -0.49 +0.03    +0.222    13.800
ATOM     28  O   UNL d   1       9.275 -17.611  -2.345 -0.07 -0.03    -0.278    13.800
ATOM     29  P   UNL d   1       9.743 -18.937  -1.598 -0.05 +0.02    +0.473    13.800
ATOM     30  O   UNL d   1       9.163 -20.203  -2.115 -0.08 -0.01    -0.228    13.800
ATOM     31  O   UNL d   1      11.331 -18.771  -1.702 -0.01 -0.01    -0.303    13.800
ATOM     32  H   UNL d   1      11.534 -17.833  -1.925 +0.01 +0.01    +0.222    13.800
ATOM     33  O   UNL d   1       9.452 -18.583  -0.073 -0.09 -0.02    -0.303    13.800
ATOM     34  H   UNL d   1      10.310 -18.411   0.386 +0.03 +0.02    +0.222    13.800
ATOM     35  O   UNL d   1       7.393 -13.489  -3.319 -0.08 -0.06    -0.278    13.800
ATOM     36  P   UNL d   1       6.264 -12.363  -3.344 -0.13 +0.18    +0.473    13.800
ATOM     37  O   UNL d   1       6.720 -10.985  -2.979 -0.34 -0.06    -0.228    13.800
ATOM     38  O   UNL d   1       5.705 -12.495  -4.829 -0.61 -0.19    -0.303    13.800
ATOM     39  H   UNL d   1       6.013 -13.343  -5.214 +0.07 +0.11    +0.222    13.800
ATOM     40  O   UNL d   1       5.121 -13.007  -2.445 -0.20 -0.14    -0.303    13.800
ATOM     41  H   UNL d   1       5.494 -13.551  -1.716 -0.34 +0.04    +0.222    13.800
ATOM     42  O   UNL d   1       6.815 -16.339  -3.132 -0.17 -0.08    -0.278    13.800
ATOM     43  P   UNL d   1       6.261 -16.024  -4.594 -0.09 +0.25    +0.473    13.800
ATOM     44  O   UNL d   1       5.885 -17.183  -5.450 -0.09 -0.11    -0.228    13.800
ATOM     45  O   UNL d   1       5.066 -15.014  -4.304 -0.33 -0.41    -0.303    13.800
ATOM     46  H   UNL d   1       5.333 -14.315  -3.673 -0.20 +0.18    +0.222    13.800
ATOM     47  O   UNL d   1       7.374 -15.045  -5.204 -0.01 -0.08    -0.303    13.800
ATOM     48  H   UNL d   1       7.197 -14.129  -4.906 +0.05 +0.06    +0.222    13.800
TER
ENDMDL
MODEL       56
USER    Run = 56
USER    Cluster Rank = 4
USER    Number of conformations in this cluster = 3
USER  
USER    RMSD from reference structure       = 17.746 A
USER  
USER    Estimated Free Energy of Binding    =   +0.99 kcal/mol  [=(1)+(2)+(3)-(4)]
USER    
USER    (1) Final Intermolecular Energy     =   -6.17 kcal/mol
USER        vdW + Hbond + desolv Energy     =   -6.03 kcal/mol
USER        Electrostatic Energy            =   -0.13 kcal/mol
USER    (2) Final Total Internal Energy     =  -13.12 kcal/mol
USER    (3) Torsional Free Energy           =   +7.16 kcal/mol
USER    (4) Unbound System's Energy  [=(2)] =  -13.12 kcal/mol
USER    
USER    
USER  
USER    DPF = D:/Protein_go_brrr/autodock/final/mut_K82N/IHP/dock.dpf
USER    NEWDPF move	IHP_ideal_opt.pdbqt
USER    NEWDPF about	0.035000 0.082000 -0.065000
USER    NEWDPF tran0	9.461491 18.504882 -5.718022
USER    NEWDPF axisangle0	0.123285 0.739280 -0.662017 175.803681
USER    NEWDPF quaternion0	0.123203 0.738784 -0.661573 0.036612
USER    NEWDPF dihe0	-180.00 91.54 173.85 -31.63 180.00 -98.76 -72.60 -25.52 121.18 -18.33 119.24 165.77 -100.96 178.45 11.47 -147.94 68.02 50.69 54.15 13.27 -35.92 6.15 -25.42 -6.89 
USER  
USER                              x       y       z    vdW   Elec        q     RMS 
ATOM      1  C   UNL d   1       7.960  17.944  -5.075 -0.24 -0.03    +0.194    17.746
ATOM      2  C   UNL d   1       9.139  17.938  -4.101 -0.21 -0.03    +0.194    17.746
ATOM      3  C   UNL d   1      10.415  17.408  -4.759 -0.14 -0.02    +0.194    17.746
ATOM      4  C   UNL d   1      10.752  18.114  -6.070 -0.09 -0.02    +0.194    17.746
ATOM      5  C   UNL d   1       9.574  18.245  -7.026 -0.07 -0.01    +0.194    17.746
ATOM      6  C   UNL d   1       8.281  18.715  -6.355 -0.16 -0.03    +0.194    17.746
ATOM      7  O   UNL d   1       6.862  18.607  -4.442 -0.39 +0.06    -0.278    17.746
ATOM      8  P   UNL d   1       6.161  17.894  -3.197 -0.43 -0.09    +0.473    17.746
ATOM      9  O   UNL d   1       5.792  16.468  -3.411 -0.32 +0.05    -0.228    17.746
ATOM     10  O   UNL d   1       7.194  18.103  -1.999 -0.37 +0.03    -0.303    17.746
ATOM     11  H   UNL d   1       7.773  18.863  -2.196 +0.11 -0.02    +0.222    17.746
ATOM     12  O   UNL d   1       4.972  18.863  -2.782 -0.40 +0.10    -0.303    17.746
ATOM     13  H   UNL d   1       4.440  19.172  -3.551 -0.22 -0.14    +0.222    17.746
ATOM     14  O   UNL d   1       9.379  19.277  -3.650 -0.08 +0.04    -0.278    17.746
ATOM     15  P   UNL d   1       9.867  19.445  -2.134 -0.08 -0.05    +0.473    17.746
ATOM     16  O   UNL d   1       9.070  20.373  -1.272 -0.05 +0.01    -0.228    17.746
ATOM     17  O   UNL d   1       9.902  17.956  -1.571 -0.16 +0.04    -0.303    17.746
ATOM     18  H   UNL d   1      10.700  17.483  -1.877 +0.07 -0.04    +0.222    17.746
ATOM     19  O   UNL d   1      11.418  19.779  -2.251 -0.02 +0.03    -0.303    17.746
ATOM     20  H   UNL d   1      11.964  18.972  -2.220 +0.03 -0.02    +0.222    17.746
ATOM     21  O   UNL d   1       7.223  18.459  -7.275 -0.19 +0.05    -0.278    17.746
ATOM     22  P   UNL d   1       6.070  19.544  -7.477 -0.19 -0.15    +0.473    17.746
ATOM     23  O   UNL d   1       6.459  20.982  -7.546 -0.15 +0.06    -0.228    17.746
ATOM     24  O   UNL d   1       5.327  18.991  -8.772 -0.14 +0.11    -0.303    17.746
ATOM     25  H   UNL d   1       4.414  18.711  -8.507 -0.40 -0.15    +0.222    17.746
ATOM     26  O   UNL d   1       5.043  19.148  -6.312 -0.57 +0.16    -0.303    17.746
ATOM     27  H   UNL d   1       5.301  19.606  -5.486 -0.21 -0.11    +0.222    17.746
ATOM     28  O   UNL d   1      11.499  17.697  -3.885 -0.07 +0.04    -0.278    17.746
ATOM     29  P   UNL d   1      12.343  16.514  -3.234 -0.09 -0.07    +0.473    17.746
ATOM     30  O   UNL d   1      13.358  16.928  -2.231 -0.03 +0.02    -0.228    17.746
ATOM     31  O   UNL d   1      11.155  15.573  -2.719 -0.17 +0.11    -0.303    17.746
ATOM     32  H   UNL d   1      10.337  16.116  -2.638 -0.34 -0.11    +0.222    17.746
ATOM     33  O   UNL d   1      12.876  15.737  -4.518 -0.09 +0.03    -0.303    17.746
ATOM     34  H   UNL d   1      13.039  16.389  -5.243 +0.04 -0.02    +0.222    17.746
ATOM     35  O   UNL d   1       9.948  19.249  -7.967 -0.04 +0.03    -0.278    17.746
ATOM     36  P   UNL d   1      10.375  18.843  -9.450 -0.02 -0.03    +0.473    17.746
ATOM     37  O   UNL d   1       9.435  19.272 -10.531 -0.02 +0.02    -0.228    17.746
ATOM     38  O   UNL d   1      11.830  19.481  -9.556 -0.01 +0.02    -0.303    17.746
ATOM     39  H   UNL d   1      12.363  19.197  -8.782 +0.01 -0.01    +0.222    17.746
ATOM     40  O   UNL d   1      10.650  17.283  -9.309 -0.08 +0.01    -0.303    17.746
ATOM     41  H   UNL d   1      11.361  17.096  -8.657 +0.04 -0.01    +0.222    17.746
ATOM     42  O   UNL d   1      11.742  17.316  -6.728 -0.08 +0.01    -0.278    17.746
ATOM     43  P   UNL d   1      13.180  17.946  -7.009 -0.03 -0.03    +0.473    17.746
ATOM     44  O   UNL d   1      14.262  17.651  -6.029 -0.01 +0.02    -0.228    17.746
ATOM     45  O   UNL d   1      13.492  17.456  -8.490 -0.02 +0.02    -0.303    17.746
ATOM     46  H   UNL d   1      12.724  17.588  -9.081 +0.02 -0.01    +0.222    17.746
ATOM     47  O   UNL d   1      12.860  19.499  -7.241 -0.01 +0.02    -0.303    17.746
ATOM     48  H   UNL d   1      11.899  19.612  -7.394 +0.01 -0.02    +0.222    17.746
TER
ENDMDL
MODEL       55
USER    Run = 55
USER    Cluster Rank = 5
USER    Number of conformations in this cluster = 3
USER  
USER    RMSD from reference structure       = 13.319 A
USER  
USER    Estimated Free Energy of Binding    =   +1.02 kcal/mol  [=(1)+(2)+(3)-(4)]
USER    
USER    (1) Final Intermolecular Energy     =   -6.13 kcal/mol
USER        vdW + Hbond + desolv Energy     =   -5.70 kcal/mol
USER        Electrostatic Energy            =   -0.44 kcal/mol
USER    (2) Final Total Internal Energy     =  -13.55 kcal/mol
USER    (3) Torsional Free Energy           =   +7.16 kcal/mol
USER    (4) Unbound System's Energy  [=(2)] =  -13.55 kcal/mol
USER    
USER    
USER  
USER    DPF = D:/Protein_go_brrr/autodock/final/mut_K82N/IHP/dock.dpf
USER    NEWDPF move	IHP_ideal_opt.pdbqt
USER    NEWDPF about	0.035000 0.082000 -0.065000
USER    NEWDPF tran0	-9.986624 10.310624 -7.970492
USER    NEWDPF axisangle0	-0.138322 -0.774902 -0.616761 98.868728
USER    NEWDPF quaternion0	-0.105078 -0.588663 -0.468529 0.650319
USER    NEWDPF dihe0	47.71 98.55 127.39 20.86 83.11 175.33 -110.19 45.61 83.04 93.68 7.08 -78.79 -88.09 -116.57 177.32 77.08 44.14 -93.76 -133.84 -5.85 29.31 152.05 -173.90 -114.71 
USER  
USER                              x       y       z    vdW   Elec        q     RMS 
ATOM      1  C   UNL d   1      -9.037  11.079  -9.192 -0.10 +0.05    +0.194    13.319
ATOM      2  C   UNL d   1      -8.801   9.578  -9.018 -0.15 +0.03    +0.194    13.319
ATOM      3  C   UNL d   1      -8.732   9.182  -7.542 -0.21 +0.05    +0.194    13.319
ATOM      4  C   UNL d   1      -9.928   9.676  -6.731 -0.18 +0.06    +0.194    13.319
ATOM      5  C   UNL d   1     -10.271  11.142  -6.961 -0.17 +0.05    +0.194    13.319
ATOM      6  C   UNL d   1     -10.279  11.552  -8.435 -0.15 +0.05    +0.194    13.319
ATOM      7  O   UNL d   1      -9.260  11.337 -10.581 -0.56 -0.14    -0.278    13.319
ATOM      8  P   UNL d   1     -10.756  11.606 -11.072 -0.03 +0.12    +0.473    13.319
ATOM      9  O   UNL d   1     -11.802  10.804 -10.380 -0.01 -0.04    -0.228    13.319
ATOM     10  O   UNL d   1     -10.947  13.179 -10.888 -0.09 -0.10    -0.303    13.319
ATOM     11  H   UNL d   1     -11.569  13.350 -10.156 +0.04 +0.08    +0.222    13.319
ATOM     12  O   UNL d   1     -10.704  11.460 -12.653 -0.03 -0.04    -0.303    13.319
ATOM     13  H   UNL d   1     -10.310  10.609 -12.949 +0.02 +0.02    +0.222    13.319
ATOM     14  O   UNL d   1      -9.879   8.861  -9.633 -0.03 -0.06    -0.278    13.319
ATOM     15  P   UNL d   1      -9.476   7.755 -10.719 -0.02 +0.08    +0.473    13.319
ATOM     16  O   UNL d   1      -8.737   8.238 -11.928 -0.07 -0.02    -0.228    13.319
ATOM     17  O   UNL d   1      -8.654   6.674  -9.884 -0.08 -0.07    -0.303    13.319
ATOM     18  H   UNL d   1      -8.978   6.619  -8.965 +0.07 +0.08    +0.222    13.319
ATOM     19  O   UNL d   1     -10.830   6.972 -11.009 -0.02 -0.07    -0.303    13.319
ATOM     20  H   UNL d   1     -11.353   6.843 -10.196 +0.03 +0.07    +0.222    13.319
ATOM     21  O   UNL d   1     -10.270  12.978  -8.467 -0.21 -0.12    -0.278    13.319
ATOM     22  P   UNL d   1     -11.587  13.786  -8.071 -0.13 +0.28    +0.473    13.319
ATOM     23  O   UNL d   1     -11.792  15.137  -8.671 -0.25 -0.23    -0.228    13.319
ATOM     24  O   UNL d   1     -12.730  12.730  -8.402 -0.02 -0.09    -0.303    13.319
ATOM     25  H   UNL d   1     -12.310  11.835  -8.477 +0.04 +0.06    +0.222    13.319
ATOM     26  O   UNL d   1     -11.536  13.728  -6.470 -0.15 -0.18    -0.303    13.319
ATOM     27  H   UNL d   1     -10.730  13.248  -6.191 +0.08 +0.12    +0.222    13.319
ATOM     28  O   UNL d   1      -8.791   7.763  -7.475 -0.18 -0.11    -0.278    13.319
ATOM     29  P   UNL d   1     -10.174   7.029  -7.183 -0.11 +0.38    +0.473    13.319
ATOM     30  O   UNL d   1     -11.312   7.439  -8.045 -0.05 -0.13    -0.228    13.319
ATOM     31  O   UNL d   1      -9.704   5.502  -7.278 -0.64 -0.47    -0.303    13.319
ATOM     32  H   UNL d   1      -9.321   5.346  -8.172 +0.07 +0.19    +0.222    13.319
ATOM     33  O   UNL d   1     -10.344   7.247  -5.615 -0.57 -0.29    -0.303    13.319
ATOM     34  H   UNL d   1     -11.027   7.945  -5.460 +0.07 +0.15    +0.222    13.319
ATOM     35  O   UNL d   1     -11.600  11.311  -6.472 -0.05 -0.08    -0.278    13.319
ATOM     36  P   UNL d   1     -12.720  10.222  -6.795 +0.02 +0.12    +0.473    13.319
ATOM     37  O   UNL d   1     -12.821   9.091  -5.821 -0.02 -0.08    -0.228    13.319
ATOM     38  O   UNL d   1     -14.031  11.121  -6.891 +0.00 -0.06    -0.303    13.319
ATOM     39  H   UNL d   1     -13.769  12.066  -6.938 +0.02 +0.05    +0.222    13.319
ATOM     40  O   UNL d   1     -12.402   9.846  -8.307 -0.00 -0.07    -0.303    13.319
ATOM     41  H   UNL d   1     -11.458   9.601  -8.431 +0.04 +0.06    +0.222    13.319
ATOM     42  O   UNL d   1      -9.577   9.538  -5.349 -0.49 -0.10    -0.278    13.319
ATOM     43  P   UNL d   1      -9.877  10.748  -4.353 -0.30 +0.11    +0.473    13.319
ATOM     44  O   UNL d   1      -9.456  12.111  -4.782 -0.40 -0.07    -0.228    13.319
ATOM     45  O   UNL d   1     -11.439  10.602  -4.087 -0.10 -0.08    -0.303    13.319
ATOM     46  H   UNL d   1     -11.957  10.770  -4.900 +0.08 +0.06    +0.222    13.319
ATOM     47  O   UNL d   1      -9.261  10.238  -2.964 -0.28 -0.04    -0.303    13.319
ATOM     48  H   UNL d   1      -8.383  10.652  -2.829 -0.41 -0.02    +0.222    13.319
TER
ENDMDL
MODEL       80
USER    Run = 80
USER    Cluster Rank = 6
USER    Number of conformations in this cluster = 1
USER  
USER    RMSD from reference structure       = 12.545 A
USER  
USER    Estimated Free Energy of Binding    =   +1.20 kcal/mol  [=(1)+(2)+(3)-(4)]
USER    
USER    (1) Final Intermolecular Energy     =   -5.96 kcal/mol
USER        vdW + Hbond + desolv Energy     =   -5.78 kcal/mol
USER        Electrostatic Energy            =   -0.18 kcal/mol
USER    (2) Final Total Internal Energy     =  -15.12 kcal/mol
USER    (3) Torsional Free Energy           =   +7.16 kcal/mol
USER    (4) Unbound System's Energy  [=(2)] =  -15.12 kcal/mol
USER    
USER    
USER  
USER    DPF = D:/Protein_go_brrr/autodock/final/mut_K82N/IHP/dock.dpf
USER    NEWDPF move	IHP_ideal_opt.pdbqt
USER    NEWDPF about	0.035000 0.082000 -0.065000
USER    NEWDPF tran0	-9.114767 9.554510 -8.230605
USER    NEWDPF axisangle0	-0.417687 0.907740 0.039302 -48.743320
USER    NEWDPF quaternion0	-0.172360 0.374583 0.016218 -0.910888
USER    NEWDPF dihe0	-124.21 0.09 112.71 124.95 134.38 151.01 -117.20 -11.96 -19.04 144.51 67.87 113.25 25.04 101.50 40.66 51.23 -62.83 -137.03 -0.66 3.70 -22.58 158.49 151.44 -42.35 
USER  
USER                              x       y       z    vdW   Elec        q     RMS 
ATOM      1  C   UNL d   1      -7.538   8.853  -8.303 -0.26 +0.02    +0.194    12.545
ATOM      2  C   UNL d   1      -8.557   8.101  -7.445 -0.07 +0.06    +0.194    12.545
ATOM      3  C   UNL d   1      -9.388   9.056  -6.585 -0.18 +0.07    +0.194    12.545
ATOM      4  C   UNL d   1     -10.030  10.184  -7.389 -0.14 +0.05    +0.194    12.545
ATOM      5  C   UNL d   1      -9.075  10.888  -8.344 -0.05 +0.04    +0.194    12.545
ATOM      6  C   UNL d   1      -8.200   9.933  -9.159 -0.19 +0.03    +0.194    12.545
ATOM      7  O   UNL d   1      -6.928   7.916  -9.194 -0.17 -0.02    -0.278    12.545
ATOM      8  P   UNL d   1      -5.338   7.765  -9.164 -0.27 -0.03    +0.473    12.545
ATOM      9  O   UNL d   1      -4.800   6.983  -8.018 -0.30 +0.00    -0.228    12.545
ATOM     10  O   UNL d   1      -4.984   7.124 -10.582 -0.25 +0.02    -0.303    12.545
ATOM     11  H   UNL d   1      -5.013   7.816 -11.269 +0.05 -0.04    +0.222    12.545
ATOM     12  O   UNL d   1      -4.779   9.244  -9.318 -0.11 +0.09    -0.303    12.545
ATOM     13  H   UNL d   1      -5.236   9.757 -10.022 -0.36 -0.08    +0.222    12.545
ATOM     14  O   UNL d   1      -9.443   7.372  -8.304 -0.09 -0.12    -0.278    12.545
ATOM     15  P   UNL d   1      -9.767   5.862  -7.881 -0.07 +0.47    +0.473    12.545
ATOM     16  O   UNL d   1     -11.037   5.274  -8.410 -0.17 -0.28    -0.228    12.545
ATOM     17  O   UNL d   1      -8.475   5.047  -8.332 -0.17 -0.17    -0.303    12.545
ATOM     18  H   UNL d   1      -7.720   5.645  -8.493 +0.09 +0.07    +0.222    12.545
ATOM     19  O   UNL d   1      -9.615   5.852  -6.297 -0.61 -0.49    -0.303    12.545
ATOM     20  H   UNL d   1     -10.287   6.411  -5.867 +0.05 +0.34    +0.222    12.545
ATOM     21  O   UNL d   1      -7.152  10.717  -9.727 -0.25 -0.01    -0.278    12.545
ATOM     22  P   UNL d   1      -6.915  10.698 -11.304 -0.11 -0.00    +0.473    12.545
ATOM     23  O   UNL d   1      -7.923  11.367 -12.177 -0.15 -0.04    -0.228    12.545
ATOM     24  O   UNL d   1      -5.439  11.284 -11.418 -0.32 +0.07    -0.303    12.545
ATOM     25  H   UNL d   1      -4.813  10.619 -11.034 -0.38 -0.15    +0.222    12.545
ATOM     26  O   UNL d   1      -6.673   9.137 -11.578 -0.12 +0.02    -0.303    12.545
ATOM     27  H   UNL d   1      -6.372   8.708 -10.751 +0.10 -0.02    +0.222    12.545
ATOM     28  O   UNL d   1     -10.473   8.312  -6.046 -0.36 -0.16    -0.278    12.545
ATOM     29  P   UNL d   1     -11.859   8.229  -6.827 -0.03 +0.24    +0.473    12.545
ATOM     30  O   UNL d   1     -11.779   8.427  -8.297 -0.01 -0.08    -0.228    12.545
ATOM     31  O   UNL d   1     -12.385   6.807  -6.313 -0.31 -0.36    -0.303    12.545
ATOM     32  H   UNL d   1     -11.779   6.108  -6.650 +0.03 +0.45    +0.222    12.545
ATOM     33  O   UNL d   1     -12.764   9.254  -6.011 -0.01 -0.10    -0.303    12.545
ATOM     34  H   UNL d   1     -12.255  10.090  -5.871 +0.06 +0.06    +0.222    12.545
ATOM     35  O   UNL d   1      -9.901  11.593  -9.268 -0.21 -0.09    -0.278    12.545
ATOM     36  P   UNL d   1     -10.616  10.816 -10.464 -0.03 +0.11    +0.473    12.545
ATOM     37  O   UNL d   1     -10.041   9.475 -10.796 -0.03 -0.04    -0.228    12.545
ATOM     38  O   UNL d   1     -12.128  10.775  -9.968 -0.00 -0.06    -0.303    12.545
ATOM     39  H   UNL d   1     -12.268   9.967  -9.428 +0.02 +0.05    +0.222    12.545
ATOM     40  O   UNL d   1     -10.622  11.905 -11.622 -0.13 -0.08    -0.303    12.545
ATOM     41  H   UNL d   1      -9.925  11.728 -12.293 +0.04 +0.05    +0.222    12.545
ATOM     42  O   UNL d   1     -10.478  11.163  -6.445 -0.12 -0.08    -0.278    12.545
ATOM     43  P   UNL d   1     -11.703  12.108  -6.836 -0.05 +0.15    +0.473    12.545
ATOM     44  O   UNL d   1     -11.385  13.408  -7.490 -0.16 -0.12    -0.228    12.545
ATOM     45  O   UNL d   1     -12.620  11.146  -7.711 -0.01 -0.07    -0.303    12.545
ATOM     46  H   UNL d   1     -12.191  10.280  -7.860 +0.03 +0.05    +0.222    12.545
ATOM     47  O   UNL d   1     -12.540  12.205  -5.472 -0.04 -0.08    -0.303    12.545
ATOM     48  H   UNL d   1     -12.932  11.330  -5.271 +0.05 +0.05    +0.222    12.545
TER
ENDMDL
MODEL       67
USER    Run = 67
USER    Cluster Rank = 7
USER    Number of conformations in this cluster = 3
USER  
USER    RMSD from reference structure       = 19.118 A
USER  
USER    Estimated Free Energy of Binding    =   +1.23 kcal/mol  [=(1)+(2)+(3)-(4)]
USER    
USER    (1) Final Intermolecular Energy     =   -5.93 kcal/mol
USER        vdW + Hbond + desolv Energy     =   -5.80 kcal/mol
USER        Electrostatic Energy            =   -0.13 kcal/mol
USER    (2) Final Total Internal Energy     =  -14.72 kcal/mol
USER    (3) Torsional Free Energy           =   +7.16 kcal/mol
USER    (4) Unbound System's Energy  [=(2)] =  -14.72 kcal/mol
USER    
USER    
USER  
USER    DPF = D:/Protein_go_brrr/autodock/final/mut_K82N/IHP/dock.dpf
USER    NEWDPF move	IHP_ideal_opt.pdbqt
USER    NEWDPF about	0.035000 0.082000 -0.065000
USER    NEWDPF tran0	8.750039 20.431276 -4.897630
USER    NEWDPF axisangle0	-0.890533 0.135861 -0.434158 -176.092948
USER    NEWDPF quaternion0	-0.890015 0.135782 -0.433905 -0.034089
USER    NEWDPF dihe0	-162.35 -41.47 167.29 23.95 128.83 66.20 -95.63 -32.69 160.17 23.89 -161.60 -126.60 83.90 169.77 175.72 18.76 170.76 96.96 -31.43 8.99 11.80 -0.09 173.65 10.26 
USER  
USER                              x       y       z    vdW   Elec        q     RMS 
ATOM      1  C   UNL d   1      10.292  20.899  -4.274 -0.04 -0.02    +0.194    19.118
ATOM      2  C   UNL d   1       9.442  22.031  -4.854 -0.06 -0.03    +0.194    19.118
ATOM      3  C   UNL d   1       8.772  21.622  -6.167 -0.07 -0.04    +0.194    19.118
ATOM      4  C   UNL d   1       7.995  20.312  -6.063 -0.13 -0.04    +0.194    19.118
ATOM      5  C   UNL d   1       8.766  19.185  -5.387 -0.13 -0.03    +0.194    19.118
ATOM      6  C   UNL d   1       9.486  19.611  -4.105 -0.10 -0.03    +0.194    19.118
ATOM      7  O   UNL d   1      10.737  21.296  -2.975 -0.03 +0.03    -0.278    19.118
ATOM      8  P   UNL d   1      12.088  20.659  -2.409 -0.01 -0.04    +0.473    19.118
ATOM      9  O   UNL d   1      13.018  21.624  -1.761 -0.00 +0.02    -0.228    19.118
ATOM     10  O   UNL d   1      11.589  19.509  -1.422 -0.03 +0.03    -0.303    19.118
ATOM     11  H   UNL d   1      10.822  19.053  -1.814 +0.05 -0.02    +0.222    19.118
ATOM     12  O   UNL d   1      12.689  19.822  -3.618 -0.01 +0.03    -0.303    19.118
ATOM     13  H   UNL d   1      12.335  18.905  -3.666 +0.03 -0.02    +0.222    19.118
ATOM     14  O   UNL d   1       8.421  22.379  -3.910 -0.13 +0.07    -0.278    19.118
ATOM     15  P   UNL d   1       8.090  23.938  -3.756 -0.10 -0.11    +0.473    19.118
ATOM     16  O   UNL d   1       7.955  24.462  -2.360 -0.16 +0.03    -0.228    19.118
ATOM     17  O   UNL d   1       9.246  24.663  -4.577 -0.03 +0.05    -0.303    19.118
ATOM     18  H   UNL d   1       9.129  24.534  -5.538 +0.03 -0.03    +0.222    19.118
ATOM     19  O   UNL d   1       6.832  24.172  -4.701 +0.13 +0.14    -0.303    19.118
ATOM     20  H   UNL d   1       6.878  23.623  -5.505 -0.43 -0.12    +0.222    19.118
ATOM     21  O   UNL d   1      10.414  18.575  -3.791 -0.06 +0.04    -0.278    19.118
ATOM     22  P   UNL d   1       9.966  17.368  -2.850 -0.13 -0.11    +0.473    19.118
ATOM     23  O   UNL d   1      11.018  16.652  -2.072 -0.17 +0.05    -0.228    19.118
ATOM     24  O   UNL d   1       8.831  18.049  -1.966 -0.23 +0.05    -0.303    19.118
ATOM     25  H   UNL d   1       8.095  18.326  -2.570 +0.12 -0.03    +0.222    19.118
ATOM     26  O   UNL d   1       9.105  16.469  -3.861 -0.15 +0.11    -0.303    19.118
ATOM     27  H   UNL d   1       8.156  16.547  -3.631 -0.26 -0.08    +0.222    19.118
ATOM     28  O   UNL d   1       7.801  22.613  -6.480 -0.09 +0.08    -0.278    19.118
ATOM     29  P   UNL d   1       8.022  23.593  -7.716 -0.03 -0.08    +0.473    19.118
ATOM     30  O   UNL d   1       9.349  23.501  -8.378 -0.01 +0.03    -0.228    19.118
ATOM     31  O   UNL d   1       6.742  23.218  -8.601 -0.05 +0.05    -0.303    19.118
ATOM     32  H   UNL d   1       6.645  22.238  -8.614 +0.04 -0.04    +0.222    19.118
ATOM     33  O   UNL d   1       7.621  25.004  -7.099 -0.04 +0.05    -0.303    19.118
ATOM     34  H   UNL d   1       7.771  24.982  -6.122 +0.03 -0.04    +0.222    19.118
ATOM     35  O   UNL d   1       7.788  18.216  -5.016 -0.21 +0.05    -0.278    19.118
ATOM     36  P   UNL d   1       6.549  18.631  -4.102 -0.32 -0.10    +0.473    19.118
ATOM     37  O   UNL d   1       6.083  17.590  -3.134 -0.56 +0.04    -0.228    19.118
ATOM     38  O   UNL d   1       7.081  19.968  -3.419 -0.29 +0.07    -0.303    19.118
ATOM     39  H   UNL d   1       6.837  20.735  -3.981 -0.21 -0.11    +0.222    19.118
ATOM     40  O   UNL d   1       5.491  19.144  -5.174 -0.93 +0.11    -0.303    19.118
ATOM     41  H   UNL d   1       5.917  19.348  -6.036 +0.09 -0.08    +0.222    19.118
ATOM     42  O   UNL d   1       7.718  19.887  -7.402 -0.07 +0.05    -0.278    19.118
ATOM     43  P   UNL d   1       6.266  20.147  -8.009 -0.14 -0.12    +0.473    19.118
ATOM     44  O   UNL d   1       6.179  20.519  -9.448 -0.05 +0.04    -0.228    19.118
ATOM     45  O   UNL d   1       5.487  18.811  -7.634 -0.18 +0.14    -0.303    19.118
ATOM     46  H   UNL d   1       4.664  19.002  -7.140 -0.37 -0.15    +0.222    19.118
ATOM     47  O   UNL d   1       5.623  21.197  -6.982 -0.09 +0.09    -0.303    19.118
ATOM     48  H   UNL d   1       6.234  21.954  -6.870 -0.24 -0.08    +0.222    19.118
TER
ENDMDL
MODEL       60
USER    Run = 60
USER    Cluster Rank = 8
USER    Number of conformations in this cluster = 2
USER  
USER    RMSD from reference structure       = 16.047 A
USER  
USER    Estimated Free Energy of Binding    =   +1.42 kcal/mol  [=(1)+(2)+(3)-(4)]
USER    
USER    (1) Final Intermolecular Energy     =   -5.74 kcal/mol
USER        vdW + Hbond + desolv Energy     =   -5.59 kcal/mol
USER        Electrostatic Energy            =   -0.15 kcal/mol
USER    (2) Final Total Internal Energy     =  -12.96 kcal/mol
USER    (3) Torsional Free Energy           =   +7.16 kcal/mol
USER    (4) Unbound System's Energy  [=(2)] =  -12.96 kcal/mol
USER    
USER    
USER  
USER    DPF = D:/Protein_go_brrr/autodock/final/mut_K82N/IHP/dock.dpf
USER    NEWDPF move	IHP_ideal_opt.pdbqt
USER    NEWDPF about	0.035000 0.082000 -0.065000
USER    NEWDPF tran0	-4.279834 -14.633609 9.755246
USER    NEWDPF axisangle0	0.285582 0.700634 -0.653877 151.822697
USER    NEWDPF quaternion0	0.276991 0.679559 -0.634209 0.243423
USER    NEWDPF dihe0	113.26 158.24 153.14 -21.33 140.94 -122.79 -134.13 -18.61 180.00 18.22 19.37 -69.15 -76.62 172.03 18.70 -172.89 83.99 -53.03 59.49 14.63 -179.17 5.87 -8.64 180.00 
USER  
USER                              x       y       z    vdW   Elec        q     RMS 
ATOM      1  C   UNL d   1      -5.792 -14.388  10.554 -0.06 -0.00    +0.194    16.047
ATOM      2  C   UNL d   1      -4.686 -15.008  11.409 -0.08 +0.01    +0.194    16.047
ATOM      3  C   UNL d   1      -3.915 -16.085  10.644 -0.09 +0.02    +0.194    16.047
ATOM      4  C   UNL d   1      -3.397 -15.607   9.290 -0.15 +0.04    +0.194    16.047
ATOM      5  C   UNL d   1      -4.438 -14.879   8.449 -0.13 +0.01    +0.194    16.047
ATOM      6  C   UNL d   1      -5.252 -13.845   9.230 -0.11 -0.01    +0.194    16.047
ATOM      7  O   UNL d   1      -6.345 -13.283  11.273 -0.07 +0.00    -0.278    16.047
ATOM      8  P   UNL d   1      -7.074 -13.572  12.665 -0.02 -0.01    +0.473    16.047
ATOM      9  O   UNL d   1      -7.621 -14.948  12.817 -0.01 +0.01    -0.228    16.047
ATOM     10  O   UNL d   1      -5.974 -13.209  13.761 -0.06 -0.00    -0.303    16.047
ATOM     11  H   UNL d   1      -5.113 -13.583  13.497 +0.05 +0.00    +0.222    16.047
ATOM     12  O   UNL d   1      -8.120 -12.388  12.837 -0.03 +0.01    -0.303    16.047
ATOM     13  H   UNL d   1      -9.055 -12.689  12.792 +0.01 -0.01    +0.222    16.047
ATOM     14  O   UNL d   1      -3.767 -13.981  11.802 -0.47 -0.03    -0.278    16.047
ATOM     15  P   UNL d   1      -3.093 -14.138  13.246 -0.20 +0.01    +0.473    16.047
ATOM     16  O   UNL d   1      -3.094 -12.926  14.124 -0.32 -0.00    -0.228    16.047
ATOM     17  O   UNL d   1      -3.857 -15.374  13.898 -0.05 +0.01    -0.303    16.047
ATOM     18  H   UNL d   1      -3.776 -16.171  13.341 +0.05 -0.00    +0.222    16.047
ATOM     19  O   UNL d   1      -1.662 -14.767  12.949 -0.24 +0.00    -0.303    16.047
ATOM     20  H   UNL d   1      -1.713 -15.732  12.816 +0.09 +0.00    +0.222    16.047
ATOM     21  O   UNL d   1      -6.379 -13.513   8.423 -0.10 +0.04    -0.278    16.047
ATOM     22  P   UNL d   1      -7.629 -14.503   8.362 -0.04 -0.07    +0.473    16.047
ATOM     23  O   UNL d   1      -8.191 -15.008   9.648 -0.01 +0.02    -0.228    16.047
ATOM     24  O   UNL d   1      -8.653 -13.680   7.464 -0.11 +0.07    -0.303    16.047
ATOM     25  H   UNL d   1      -8.343 -13.726   6.523 -0.43 -0.10    +0.222    16.047
ATOM     26  O   UNL d   1      -7.110 -15.619   7.335 -0.04 +0.06    -0.303    16.047
ATOM     27  H   UNL d   1      -6.331 -16.071   7.718 +0.05 -0.03    +0.222    16.047
ATOM     28  O   UNL d   1      -2.754 -16.401  11.401 -0.13 -0.03    -0.278    16.047
ATOM     29  P   UNL d   1      -2.558 -17.863  12.002 -0.07 +0.03    +0.473    16.047
ATOM     30  O   UNL d   1      -1.167 -18.217  12.385 -0.21 -0.01    -0.228    16.047
ATOM     31  O   UNL d   1      -3.648 -17.831  13.174 -0.01 +0.00    -0.303    16.047
ATOM     32  H   UNL d   1      -3.253 -17.385  13.958 +0.05 -0.01    +0.222    16.047
ATOM     33  O   UNL d   1      -3.255 -18.774  10.898 -0.03 -0.03    -0.303    16.047
ATOM     34  H   UNL d   1      -3.022 -18.427  10.002 +0.05 +0.05    +0.222    16.047
ATOM     35  O   UNL d   1      -3.705 -14.170   7.452 -0.21 -0.00    -0.278    16.047
ATOM     36  P   UNL d   1      -3.986 -14.435   5.905 -0.31 -0.03    +0.473    16.047
ATOM     37  O   UNL d   1      -4.248 -13.216   5.079 -0.79 +0.01    -0.228    16.047
ATOM     38  O   UNL d   1      -2.690 -15.253   5.473 -0.47 -0.06    -0.303    16.047
ATOM     39  H   UNL d   1      -2.943 -16.184   5.292 -0.04 -0.01    +0.222    16.047
ATOM     40  O   UNL d   1      -5.134 -15.535   5.952 -0.18 +0.07    -0.303    16.047
ATOM     41  H   UNL d   1      -5.127 -16.033   6.800 +0.08 -0.03    +0.222    16.047
ATOM     42  O   UNL d   1      -3.007 -16.774   8.558 -0.16 -0.15    -0.278    16.047
ATOM     43  P   UNL d   1      -4.135 -17.785   8.060 -0.07 +0.11    +0.473    16.047
ATOM     44  O   UNL d   1      -5.529 -17.543   8.528 -0.02 +0.00    -0.228    16.047
ATOM     45  O   UNL d   1      -3.964 -17.747   6.479 -0.46 +0.01    -0.303    16.047
ATOM     46  H   UNL d   1      -4.001 -16.832   6.136 -0.04 -0.03    +0.222    16.047
ATOM     47  O   UNL d   1      -3.524 -19.223   8.420 -0.07 -0.09    -0.303    16.047
ATOM     48  H   UNL d   1      -4.035 -19.615   9.158 +0.03 +0.03    +0.222    16.047
TER
ENDMDL
MODEL       58
USER    Run = 58
USER    Cluster Rank = 9
USER    Number of conformations in this cluster = 1
USER  
USER    RMSD from reference structure       = 17.700 A
USER  
USER    Estimated Free Energy of Binding    =   +1.49 kcal/mol  [=(1)+(2)+(3)-(4)]
USER    
USER    (1) Final Intermolecular Energy     =   -5.67 kcal/mol
USER        vdW + Hbond + desolv Energy     =   -5.38 kcal/mol
USER        Electrostatic Energy            =   -0.29 kcal/mol
USER    (2) Final Total Internal Energy     =  -11.92 kcal/mol
USER    (3) Torsional Free Energy           =   +7.16 kcal/mol
USER    (4) Unbound System's Energy  [=(2)] =  -11.92 kcal/mol
USER    
USER    
USER  
USER    DPF = D:/Protein_go_brrr/autodock/final/mut_K82N/IHP/dock.dpf
USER    NEWDPF move	IHP_ideal_opt.pdbqt
USER    NEWDPF about	0.035000 0.082000 -0.065000
USER    NEWDPF tran0	-5.659956 10.033206 -16.489339
USER    NEWDPF axisangle0	0.888017 -0.349495 0.298795 157.444012
USER    NEWDPF quaternion0	0.870870 -0.342746 0.293025 0.195570
USER    NEWDPF dihe0	-86.41 83.18 61.69 115.65 45.02 159.20 -75.89 -12.68 56.93 -123.07 172.78 148.69 12.96 -74.34 -12.18 43.01 -87.97 180.00 -133.81 -8.24 160.59 -16.23 177.55 28.75 
USER  
USER                              x       y       z    vdW   Elec        q     RMS 
ATOM      1  C   UNL d   1      -3.978   9.864 -16.132 -0.10 -0.06    +0.194    17.700
ATOM      2  C   UNL d   1      -4.569  11.254 -15.888 -0.10 -0.07    +0.194    17.700
ATOM      3  C   UNL d   1      -5.498  11.681 -17.026 -0.03 -0.06    +0.194    17.700
ATOM      4  C   UNL d   1      -6.573  10.645 -17.346 -0.01 -0.03    +0.194    17.700
ATOM      5  C   UNL d   1      -6.044   9.224 -17.484 -0.05 -0.04    +0.194    17.700
ATOM      6  C   UNL d   1      -5.066   8.817 -16.379 -0.13 -0.04    +0.194    17.700
ATOM      7  O   UNL d   1      -3.268   9.469 -14.956 -0.19 +0.08    -0.278    17.700
ATOM      8  P   UNL d   1      -3.947   8.402 -13.980 -0.25 -0.10    +0.473    17.700
ATOM      9  O   UNL d   1      -4.149   7.049 -14.566 -0.18 +0.04    -0.228    17.700
ATOM     10  O   UNL d   1      -3.001   8.396 -12.695 -0.07 +0.07    -0.303    17.700
ATOM     11  H   UNL d   1      -3.498   8.722 -11.922 -0.42 -0.14    +0.222    17.700
ATOM     12  O   UNL d   1      -5.252   9.121 -13.428 -0.15 +0.06    -0.303    17.700
ATOM     13  H   UNL d   1      -5.706   9.671 -14.106 +0.09 -0.04    +0.222    17.700
ATOM     14  O   UNL d   1      -5.320  11.235 -14.668 -0.08 +0.07    -0.278    17.700
ATOM     15  P   UNL d   1      -4.892  12.297 -13.548 -0.30 -0.11    +0.473    17.700
ATOM     16  O   UNL d   1      -3.525  12.893 -13.675 -0.60 +0.09    -0.228    17.700
ATOM     17  O   UNL d   1      -6.049  13.391 -13.589 -0.33 +0.02    -0.303    17.700
ATOM     18  H   UNL d   1      -6.388  13.511 -14.497 +0.07 -0.04    +0.222    17.700
ATOM     19  O   UNL d   1      -5.195  11.563 -12.170 -0.41 +0.06    -0.303    17.700
ATOM     20  H   UNL d   1      -4.733  10.706 -12.108 -0.16 -0.10    +0.222    17.700
ATOM     21  O   UNL d   1      -4.412   7.631 -16.824 -0.22 +0.08    -0.278    17.700
ATOM     22  P   UNL d   1      -3.594   7.644 -18.193 -0.17 -0.13    +0.473    17.700
ATOM     23  O   UNL d   1      -3.191   8.963 -18.762 -0.05 +0.05    -0.228    17.700
ATOM     24  O   UNL d   1      -2.385   6.664 -17.859 -0.29 +0.10    -0.303    17.700
ATOM     25  H   UNL d   1      -2.289   6.618 -16.874 -0.08 -0.12    +0.222    17.700
ATOM     26  O   UNL d   1      -4.514   6.725 -19.131 -0.19 +0.11    -0.303    17.700
ATOM     27  H   UNL d   1      -5.153   6.235 -18.574 -0.43 -0.15    +0.222    17.700
ATOM     28  O   UNL d   1      -6.205  12.836 -16.591 -0.03 +0.09    -0.278    17.700
ATOM     29  P   UNL d   1      -5.664  14.291 -16.947 -0.05 -0.29    +0.473    17.700
ATOM     30  O   UNL d   1      -4.665  14.353 -18.044 -0.07 +0.19    -0.228    17.700
ATOM     31  O   UNL d   1      -7.051  15.054 -17.184 -0.02 +0.08    -0.303    17.700
ATOM     32  H   UNL d   1      -7.736  14.390 -17.431 +0.02 -0.04    +0.222    17.700
ATOM     33  O   UNL d   1      -5.204  14.834 -15.522 -0.14 +0.27    -0.303    17.700
ATOM     34  H   UNL d   1      -4.676  14.133 -15.067 -0.12 -0.22    +0.222    17.700
ATOM     35  O   UNL d   1      -7.183   8.374 -17.369 -0.06 +0.04    -0.278    17.700
ATOM     36  P   UNL d   1      -8.180   8.526 -16.133 -0.04 -0.03    +0.473    17.700
ATOM     37  O   UNL d   1      -7.529   8.704 -14.798 -0.07 +0.01    -0.228    17.700
ATOM     38  O   UNL d   1      -9.081   9.756 -16.591 -0.01 +0.01    -0.303    17.700
ATOM     39  H   UNL d   1      -8.658  10.196 -17.360 +0.01 -0.02    +0.222    17.700
ATOM     40  O   UNL d   1      -9.135   7.266 -16.309 -0.07 -0.00    -0.303    17.700
ATOM     41  H   UNL d   1      -9.950   7.348 -15.766 +0.04 +0.01    +0.222    17.700
ATOM     42  O   UNL d   1      -7.136  11.009 -18.611 -0.00 +0.04    -0.278    17.700
ATOM     43  P   UNL d   1      -8.269  12.132 -18.657 +0.00 -0.05    +0.473    17.700
ATOM     44  O   UNL d   1      -9.474  11.858 -19.489 -0.00 +0.02    -0.228    17.700
ATOM     45  O   UNL d   1      -8.584  12.373 -17.116 +0.00 +0.03    -0.303    17.700
ATOM     46  H   UNL d   1      -8.129  13.170 -16.778 +0.02 -0.03    +0.222    17.700
ATOM     47  O   UNL d   1      -7.454  13.459 -19.035 +0.00 +0.05    -0.303    17.700
ATOM     48  H   UNL d   1      -6.555  13.406 -18.650 +0.01 -0.06    +0.222    17.700
TER
ENDMDL
MODEL       36
USER    Run = 36
USER    Cluster Rank = 10
USER    Number of conformations in this cluster = 1
USER  
USER    RMSD from reference structure       = 18.195 A
USER  
USER    Estimated Free Energy of Binding    =   +1.50 kcal/mol  [=(1)+(2)+(3)-(4)]
USER    
USER    (1) Final Intermolecular Energy     =   -5.66 kcal/mol
USER        vdW + Hbond + desolv Energy     =   -5.38 kcal/mol
USER        Electrostatic Energy            =   -0.28 kcal/mol
USER    (2) Final Total Internal Energy     =  -14.30 kcal/mol
USER    (3) Torsional Free Energy           =   +7.16 kcal/mol
USER    (4) Unbound System's Energy  [=(2)] =  -14.30 kcal/mol
USER    
USER    
USER  
USER    DPF = D:/Protein_go_brrr/autodock/final/mut_K82N/IHP/dock.dpf
USER    NEWDPF move	IHP_ideal_opt.pdbqt
USER    NEWDPF about	0.035000 0.082000 -0.065000
USER    NEWDPF tran0	0.210460 6.777067 19.121095
USER    NEWDPF axisangle0	0.909231 0.295837 0.292880 -119.391876
USER    NEWDPF quaternion0	0.784994 0.255414 0.252860 -0.504589
USER    NEWDPF dihe0	-165.61 78.53 -92.07 162.14 -14.70 -175.58 -77.73 -81.16 74.18 42.84 -169.92 143.29 126.51 77.10 176.72 -148.45 120.47 162.89 53.07 17.99 170.17 2.22 -14.03 173.58 
USER  
USER                              x       y       z    vdW   Elec        q     RMS 
ATOM      1  C   UNL d   1       1.528   7.395  18.190 -0.11 -0.08    +0.194    18.195
ATOM      2  C   UNL d   1       0.244   7.110  17.410 -0.16 -0.08    +0.194    18.195
ATOM      3  C   UNL d   1      -0.389   5.781  17.826 -0.15 -0.07    +0.194    18.195
ATOM      4  C   UNL d   1      -0.591   5.657  19.334 -0.05 -0.05    +0.194    18.195
ATOM      5  C   UNL d   1       0.631   6.042  20.157 -0.04 -0.05    +0.194    18.195
ATOM      6  C   UNL d   1       1.301   7.340  19.702 -0.04 -0.05    +0.194    18.195
ATOM      7  O   UNL d   1       1.959   8.720  17.872 -0.07 +0.09    -0.278    18.195
ATOM      8  P   UNL d   1       2.514   9.005  16.401 -0.18 -0.20    +0.473    18.195
ATOM      9  O   UNL d   1       2.902  10.417  16.136 -0.12 +0.09    -0.228    18.195
ATOM     10  O   UNL d   1       3.726   7.980  16.240 -0.24 +0.16    -0.303    18.195
ATOM     11  H   UNL d   1       3.506   7.141  16.687 -0.30 -0.14    +0.222    18.195
ATOM     12  O   UNL d   1       1.425   8.389  15.422 -0.20 +0.18    -0.303    18.195
ATOM     13  H   UNL d   1       0.509   8.456  15.774 +0.07 -0.13    +0.222    18.195
ATOM     14  O   UNL d   1      -0.697   8.162  17.659 -0.04 +0.11    -0.278    18.195
ATOM     15  P   UNL d   1      -1.722   8.501  16.477 -0.09 -0.36    +0.473    18.195
ATOM     16  O   UNL d   1      -3.164   8.634  16.855 -0.08 +0.17    -0.228    18.195
ATOM     17  O   UNL d   1      -1.131   9.827  15.820 -0.13 +0.34    -0.303    18.195
ATOM     18  H   UNL d   1      -1.613  10.060  15.003 -0.44 -0.52    +0.222    18.195
ATOM     19  O   UNL d   1      -1.404   7.420  15.354 -0.66 +0.19    -0.303    18.195
ATOM     20  H   UNL d   1      -2.066   6.704  15.345 +0.11 -0.13    +0.222    18.195
ATOM     21  O   UNL d   1       2.585   7.380  20.319 -0.02 +0.06    -0.278    18.195
ATOM     22  P   UNL d   1       3.705   6.330  19.887 -0.07 -0.14    +0.473    18.195
ATOM     23  O   UNL d   1       4.756   5.970  20.882 -0.06 +0.03    -0.228    18.195
ATOM     24  O   UNL d   1       2.825   5.108  19.374 -0.14 +0.15    -0.303    18.195
ATOM     25  H   UNL d   1       2.526   4.590  20.164 +0.07 -0.09    +0.222    18.195
ATOM     26  O   UNL d   1       4.229   6.962  18.509 -0.16 +0.13    -0.303    18.195
ATOM     27  H   UNL d   1       3.857   7.862  18.406 +0.06 -0.08    +0.222    18.195
ATOM     28  O   UNL d   1      -1.695   5.734  17.265 -0.08 +0.09    -0.278    18.195
ATOM     29  P   UNL d   1      -2.044   4.679  16.125 -0.21 -0.16    +0.473    18.195
ATOM     30  O   UNL d   1      -3.397   4.808  15.525 -0.34 +0.07    -0.228    18.195
ATOM     31  O   UNL d   1      -0.794   4.897  15.150 -0.48 +0.08    -0.303    18.195
ATOM     32  H   UNL d   1      -0.455   5.814  15.275 +0.12 -0.04    +0.222    18.195
ATOM     33  O   UNL d   1      -1.700   3.295  16.834 -0.21 +0.10    -0.303    18.195
ATOM     34  H   UNL d   1      -1.067   3.463  17.574 +0.11 -0.07    +0.222    18.195
ATOM     35  O   UNL d   1       0.152   6.259  21.483 -0.00 +0.05    -0.278    18.195
ATOM     36  P   UNL d   1       0.649   5.331  22.681 +0.01 -0.08    +0.473    18.195
ATOM     37  O   UNL d   1       0.374   5.850  24.056 +0.00 +0.02    -0.228    18.195
ATOM     38  O   UNL d   1      -0.073   3.952  22.345 -0.01 +0.08    -0.303    18.195
ATOM     39  H   UNL d   1      -0.549   4.038  21.491 +0.04 -0.06    +0.222    18.195
ATOM     40  O   UNL d   1       2.171   5.068  22.299 -0.01 +0.07    -0.303    18.195
ATOM     41  H   UNL d   1       2.424   5.535  21.472 +0.04 -0.05    +0.222    18.195
ATOM     42  O   UNL d   1      -0.862   4.277  19.604 -0.05 +0.08    -0.278    18.195
ATOM     43  P   UNL d   1       0.255   3.190  19.264 -0.15 -0.21    +0.473    18.195
ATOM     44  O   UNL d   1      -0.205   1.816  18.923 -0.29 +0.10    -0.228    18.195
ATOM     45  O   UNL d   1       1.094   3.900  18.114 -0.24 +0.16    -0.303    18.195
ATOM     46  H   UNL d   1       2.019   4.058  18.391 -0.34 -0.15    +0.222    18.195
ATOM     47  O   UNL d   1       1.257   3.294  20.511 -0.11 +0.19    -0.303    18.195
ATOM     48  H   UNL d   1       1.340   4.232  20.781 +0.06 -0.09    +0.222    18.195
TER
ENDMDL
MODEL       29
USER    Run = 29
USER    Cluster Rank = 11
USER    Number of conformations in this cluster = 1
USER  
USER    RMSD from reference structure       = 19.005 A
USER  
USER    Estimated Free Energy of Binding    =   +1.51 kcal/mol  [=(1)+(2)+(3)-(4)]
USER    
USER    (1) Final Intermolecular Energy     =   -5.65 kcal/mol
USER        vdW + Hbond + desolv Energy     =   -5.45 kcal/mol
USER        Electrostatic Energy            =   -0.20 kcal/mol
USER    (2) Final Total Internal Energy     =  -12.01 kcal/mol
USER    (3) Torsional Free Energy           =   +7.16 kcal/mol
USER    (4) Unbound System's Energy  [=(2)] =  -12.01 kcal/mol
USER    
USER    
USER  
USER    DPF = D:/Protein_go_brrr/autodock/final/mut_K82N/IHP/dock.dpf
USER    NEWDPF move	IHP_ideal_opt.pdbqt
USER    NEWDPF about	0.035000 0.082000 -0.065000
USER    NEWDPF tran0	4.575374 6.891409 19.164111
USER    NEWDPF axisangle0	-0.661682 -0.701629 0.264374 164.414560
USER    NEWDPF quaternion0	-0.655572 -0.695150 0.261932 0.135590
USER    NEWDPF dihe0	118.86 27.28 135.36 25.41 31.35 -125.32 -73.22 -7.82 62.19 129.77 157.23 103.72 180.00 63.17 -23.32 176.50 84.29 -149.78 41.93 2.72 -29.01 11.55 15.87 7.35 
USER  
USER                              x       y       z    vdW   Elec        q     RMS 
ATOM      1  C   UNL d   1       3.450   7.513  18.010 -0.09 -0.09    +0.194    19.005
ATOM      2  C   UNL d   1       2.847   6.661  19.128 -0.06 -0.08    +0.194    19.005
ATOM      3  C   UNL d   1       3.688   5.414  19.407 -0.12 -0.08    +0.194    19.005
ATOM      4  C   UNL d   1       5.163   5.724  19.649 -0.22 -0.04    +0.194    19.005
ATOM      5  C   UNL d   1       5.777   6.664  18.620 -0.24 -0.05    +0.194    19.005
ATOM      6  C   UNL d   1       4.907   7.881  18.295 -0.17 -0.06    +0.194    19.005
ATOM      7  O   UNL d   1       2.711   8.734  17.930 -0.08 +0.09    -0.278    19.005
ATOM      8  P   UNL d   1       1.318   8.727  17.148 -0.09 -0.19    +0.473    19.005
ATOM      9  O   UNL d   1       1.172   9.784  16.110 -0.13 +0.12    -0.228    19.005
ATOM     10  O   UNL d   1       1.212   7.249  16.557 -0.22 +0.14    -0.303    19.005
ATOM     11  H   UNL d   1       2.091   6.957  16.249 -0.37 -0.12    +0.222    19.005
ATOM     12  O   UNL d   1       0.207   8.712  18.283 -0.02 +0.10    -0.303    19.005
ATOM     13  H   UNL d   1       0.555   8.431  19.160 +0.03 -0.06    +0.222    19.005
ATOM     14  O   UNL d   1       2.781   7.444  20.327 -0.02 +0.06    -0.278    19.005
ATOM     15  P   UNL d   1       1.408   7.379  21.149 +0.00 -0.09    +0.473    19.005
ATOM     16  O   UNL d   1       1.487   6.847  22.546 -0.00 +0.03    -0.228    19.005
ATOM     17  O   UNL d   1       0.848   8.869  21.087 -0.00 +0.05    -0.303    19.005
ATOM     18  H   UNL d   1       0.996   9.263  20.206 +0.01 -0.04    +0.222    19.005
ATOM     19  O   UNL d   1       0.402   6.618  20.181 -0.01 +0.07    -0.303    19.005
ATOM     20  H   UNL d   1       0.571   6.831  19.245 +0.04 -0.07    +0.222    19.005
ATOM     21  O   UNL d   1       5.434   8.458  17.103 -0.17 +0.13    -0.278    19.005
ATOM     22  P   UNL d   1       5.710  10.028  17.039 -0.11 -0.13    +0.473    19.005
ATOM     23  O   UNL d   1       5.551  10.824  18.291 -0.03 +0.04    -0.228    19.005
ATOM     24  O   UNL d   1       7.166  10.077  16.398 -0.09 +0.07    -0.303    19.005
ATOM     25  H   UNL d   1       7.676   9.295  16.732 +0.04 -0.05    +0.222    19.005
ATOM     26  O   UNL d   1       4.790  10.470  15.803 -0.13 +0.11    -0.303    19.005
ATOM     27  H   UNL d   1       3.856  10.257  16.005 +0.07 -0.08    +0.222    19.005
ATOM     28  O   UNL d   1       3.218   4.843  20.621 -0.09 +0.09    -0.278    19.005
ATOM     29  P   UNL d   1       2.689   3.341  20.652 -0.12 -0.31    +0.473    19.005
ATOM     30  O   UNL d   1       2.866   2.626  21.943 -0.12 +0.18    -0.228    19.005
ATOM     31  O   UNL d   1       1.188   3.562  20.144 -0.12 +0.16    -0.303    19.005
ATOM     32  H   UNL d   1       0.938   4.502  20.303 +0.06 -0.08    +0.222    19.005
ATOM     33  O   UNL d   1       3.403   2.709  19.377 -0.33 +0.23    -0.303    19.005
ATOM     34  H   UNL d   1       4.371   2.904  19.421 -0.10 -0.14    +0.222    19.005
ATOM     35  O   UNL d   1       6.979   7.153  19.210 -0.08 +0.03    -0.278    19.005
ATOM     36  P   UNL d   1       8.251   7.471  18.301 -0.07 -0.04    +0.473    19.005
ATOM     37  O   UNL d   1       8.856   8.825  18.490 -0.03 +0.01    -0.228    19.005
ATOM     38  O   UNL d   1       9.222   6.263  18.665 -0.10 -0.02    -0.303    19.005
ATOM     39  H   UNL d   1       8.838   5.755  19.411 +0.07 +0.04    +0.222    19.005
ATOM     40  O   UNL d   1       7.724   7.113  16.843 -0.16 +0.10    -0.303    19.005
ATOM     41  H   UNL d   1       7.286   7.882  16.415 -0.43 -0.11    +0.222    19.005
ATOM     42  O   UNL d   1       5.868   4.482  19.558 -0.28 +0.04    -0.278    19.005
ATOM     43  P   UNL d   1       6.357   3.772  20.901 -0.14 +0.04    +0.473    19.005
ATOM     44  O   UNL d   1       7.805   3.864  21.238 -0.77 -0.12    -0.228    19.005
ATOM     45  O   UNL d   1       5.392   4.401  21.999 -0.07 +0.01    -0.303    19.005
ATOM     46  H   UNL d   1       4.540   3.923  22.043 +0.07 -0.04    +0.222    19.005
ATOM     47  O   UNL d   1       5.771   2.287  20.765 -0.53 +0.06    -0.303    19.005
ATOM     48  H   UNL d   1       4.813   2.297  20.971 +0.04 -0.11    +0.222    19.005
TER
ENDMDL
MODEL       53
USER    Run = 53
USER    Cluster Rank = 12
USER    Number of conformations in this cluster = 1
USER  
USER    RMSD from reference structure       = 13.829 A
USER  
USER    Estimated Free Energy of Binding    =   +1.52 kcal/mol  [=(1)+(2)+(3)-(4)]
USER    
USER    (1) Final Intermolecular Energy     =   -5.64 kcal/mol
USER        vdW + Hbond + desolv Energy     =   -5.42 kcal/mol
USER        Electrostatic Energy            =   -0.22 kcal/mol
USER    (2) Final Total Internal Energy     =  -13.13 kcal/mol
USER    (3) Torsional Free Energy           =   +7.16 kcal/mol
USER    (4) Unbound System's Energy  [=(2)] =  -13.13 kcal/mol
USER    
USER    
USER  
USER    DPF = D:/Protein_go_brrr/autodock/final/mut_K82N/IHP/dock.dpf
USER    NEWDPF move	IHP_ideal_opt.pdbqt
USER    NEWDPF about	0.035000 0.082000 -0.065000
USER    NEWDPF tran0	-11.260018 -12.041645 -5.446220
USER    NEWDPF axisangle0	-0.424729 0.362307 0.829662 136.949658
USER    NEWDPF quaternion0	-0.395107 0.337038 0.771799 0.366910
USER    NEWDPF dihe0	171.39 73.59 -118.30 28.13 27.69 -130.04 -111.35 -34.00 105.64 4.00 -3.47 -136.66 141.79 167.47 -17.25 175.19 57.57 -30.33 15.69 -2.50 160.45 -14.57 -12.01 152.67 
USER  
USER                              x       y       z    vdW   Elec        q     RMS 
ATOM      1  C   UNL d   1     -12.729 -12.456  -6.256 -0.04 -0.02    +0.194    13.829
ATOM      2  C   UNL d   1     -12.132 -11.097  -6.625 -0.10 -0.04    +0.194    13.829
ATOM      3  C   UNL d   1     -11.634 -10.342  -5.390 -0.16 -0.04    +0.194    13.829
ATOM      4  C   UNL d   1     -10.692 -11.170  -4.519 -0.10 -0.04    +0.194    13.829
ATOM      5  C   UNL d   1     -11.197 -12.576  -4.221 -0.17 -0.03    +0.194    13.829
ATOM      6  C   UNL d   1     -11.751 -13.307  -5.445 -0.09 -0.02    +0.194    13.829
ATOM      7  O   UNL d   1     -13.008 -13.163  -7.466 -0.01 +0.03    -0.278    13.829
ATOM      8  P   UNL d   1     -14.532 -13.319  -7.920 +0.01 -0.04    +0.473    13.829
ATOM      9  O   UNL d   1     -14.770 -14.317  -8.998 +0.00 +0.01    -0.228    13.829
ATOM     10  O   UNL d   1     -15.306 -13.660  -6.567 +0.00 +0.02    -0.303    13.829
ATOM     11  H   UNL d   1     -14.726 -13.478  -5.804 +0.01 -0.02    +0.222    13.829
ATOM     12  O   UNL d   1     -15.026 -11.840  -8.222 +0.00 +0.03    -0.303    13.829
ATOM     13  H   UNL d   1     -14.300 -11.242  -8.511 +0.02 -0.02    +0.222    13.829
ATOM     14  O   UNL d   1     -11.025 -11.298  -7.513 -0.11 +0.08    -0.278    13.829
ATOM     15  P   UNL d   1     -11.027 -10.441  -8.865 -0.16 -0.11    +0.473    13.829
ATOM     16  O   UNL d   1     -10.642 -11.162 -10.119 -0.14 +0.04    -0.228    13.829
ATOM     17  O   UNL d   1     -12.496  -9.827  -8.932 -0.09 +0.06    -0.303    13.829
ATOM     18  H   UNL d   1     -12.487  -8.939  -9.337 -0.18 -0.06    +0.222    13.829
ATOM     19  O   UNL d   1     -10.159  -9.154  -8.520 -0.76 +0.05    -0.303    13.829
ATOM     20  H   UNL d   1     -10.244  -8.902  -7.582 +0.01 -0.06    +0.222    13.829
ATOM     21  O   UNL d   1     -12.480 -14.432  -4.958 -0.02 +0.02    -0.278    13.829
ATOM     22  P   UNL d   1     -13.696 -14.211  -3.950 +0.02 -0.03    +0.473    13.829
ATOM     23  O   UNL d   1     -14.222 -12.827  -3.772 -0.01 +0.02    -0.228    13.829
ATOM     24  O   UNL d   1     -14.760 -15.265  -4.487 +0.00 +0.02    -0.303    13.829
ATOM     25  H   UNL d   1     -14.717 -15.270  -5.477 +0.00 -0.01    +0.222    13.829
ATOM     26  O   UNL d   1     -13.155 -14.933  -2.624 -0.01 +0.02    -0.303    13.829
ATOM     27  H   UNL d   1     -12.294 -14.540  -2.372 +0.05 -0.02    +0.222    13.829
ATOM     28  O   UNL d   1     -10.858  -9.241  -5.844 -0.22 +0.10    -0.278    13.829
ATOM     29  P   UNL d   1     -11.516  -7.798  -5.989 -0.15 -0.11    +0.473    13.829
ATOM     30  O   UNL d   1     -10.600  -6.651  -5.765 -0.24 +0.07    -0.228    13.829
ATOM     31  O   UNL d   1     -12.169  -7.933  -7.444 -0.14 +0.03    -0.303    13.829
ATOM     32  H   UNL d   1     -11.453  -8.123  -8.093 -0.31 -0.05    +0.222    13.829
ATOM     33  O   UNL d   1     -12.779  -7.909  -5.025 -0.03 +0.06    -0.303    13.829
ATOM     34  H   UNL d   1     -12.600  -8.598  -4.339 +0.06 -0.05    +0.222    13.829
ATOM     35  O   UNL d   1     -10.058 -13.309  -3.774 -0.26 +0.03    -0.278    13.829
ATOM     36  P   UNL d   1     -10.028 -13.933  -2.306 -0.19 -0.03    +0.473    13.829
ATOM     37  O   UNL d   1     -10.297 -15.402  -2.223 -0.56 -0.03    -0.228    13.829
ATOM     38  O   UNL d   1      -8.581 -13.502  -1.798 -0.38 +0.06    -0.303    13.829
ATOM     39  H   UNL d   1      -8.366 -12.614  -2.157 -0.39 -0.18    +0.222    13.829
ATOM     40  O   UNL d   1     -11.014 -12.972  -1.509 -0.16 +0.06    -0.303    13.829
ATOM     41  H   UNL d   1     -10.923 -12.037  -1.796 +0.08 -0.05    +0.222    13.829
ATOM     42  O   UNL d   1     -10.580 -10.488  -3.265 -0.23 +0.06    -0.278    13.829
ATOM     43  P   UNL d   1     -11.892  -9.859  -2.610 -0.09 -0.11    +0.473    13.829
ATOM     44  O   UNL d   1     -13.208 -10.305  -3.145 -0.03 +0.04    -0.228    13.829
ATOM     45  O   UNL d   1     -11.684 -10.155  -1.060 -0.17 +0.10    -0.303    13.829
ATOM     46  H   UNL d   1     -11.871 -11.091  -0.846 +0.06 -0.07    +0.222    13.829
ATOM     47  O   UNL d   1     -11.615  -8.281  -2.680 -0.11 +0.10    -0.303    13.829
ATOM     48  H   UNL d   1     -11.224  -8.061  -3.550 +0.07 -0.08    +0.222    13.829
TER
ENDMDL
MODEL       20
USER    Run = 20
USER    Cluster Rank = 13
USER    Number of conformations in this cluster = 4
USER  
USER    RMSD from reference structure       = 14.700 A
USER  
USER    Estimated Free Energy of Binding    =   +1.55 kcal/mol  [=(1)+(2)+(3)-(4)]
USER    
USER    (1) Final Intermolecular Energy     =   -5.61 kcal/mol
USER        vdW + Hbond + desolv Energy     =   -5.19 kcal/mol
USER        Electrostatic Energy            =   -0.42 kcal/mol
USER    (2) Final Total Internal Energy     =  -13.06 kcal/mol
USER    (3) Torsional Free Energy           =   +7.16 kcal/mol
USER    (4) Unbound System's Energy  [=(2)] =  -13.06 kcal/mol
USER    
USER    
USER  
USER    DPF = D:/Protein_go_brrr/autodock/final/mut_K82N/IHP/dock.dpf
USER    NEWDPF move	IHP_ideal_opt.pdbqt
USER    NEWDPF about	0.035000 0.082000 -0.065000
USER    NEWDPF tran0	-7.532893 -14.477059 7.540428
USER    NEWDPF axisangle0	-0.765480 -0.631853 -0.121664 -135.332976
USER    NEWDPF quaternion0	-0.708060 -0.584456 -0.112538 -0.379997
USER    NEWDPF dihe0	124.15 179.78 -159.27 44.89 25.83 180.00 -121.06 -66.62 28.61 -13.00 180.00 77.17 -63.22 43.80 3.09 -3.56 163.74 71.48 62.06 9.63 -18.86 22.68 -7.46 -33.22 
USER  
USER                              x       y       z    vdW   Elec        q     RMS 
ATOM      1  C   UNL d   1      -8.204 -12.993   8.115 -0.13 -0.03    +0.194    14.700
ATOM      2  C   UNL d   1      -9.197 -14.143   7.942 -0.07 -0.03    +0.194    14.700
ATOM      3  C   UNL d   1      -8.958 -14.906   6.637 -0.08 -0.05    +0.194    14.700
ATOM      4  C   UNL d   1      -7.511 -15.361   6.463 -0.08 -0.06    +0.194    14.700
ATOM      5  C   UNL d   1      -6.481 -14.273   6.738 +0.02 -0.06    +0.194    14.700
ATOM      6  C   UNL d   1      -6.755 -13.469   8.012 -0.16 -0.04    +0.194    14.700
ATOM      7  O   UNL d   1      -8.380 -12.445   9.424 -0.05 +0.03    -0.278    14.700
ATOM      8  P   UNL d   1      -9.805 -11.833   9.806 -0.01 -0.04    +0.473    14.700
ATOM      9  O   UNL d   1     -10.740 -11.650   8.662 -0.04 +0.03    -0.228    14.700
ATOM     10  O   UNL d   1     -10.366 -12.824  10.922 -0.00 +0.02    -0.303    14.700
ATOM     11  H   UNL d   1     -10.064 -13.732  10.734 +0.01 -0.02    +0.222    14.700
ATOM     12  O   UNL d   1      -9.480 -10.528  10.652 -0.02 +0.03    -0.303    14.700
ATOM     13  H   UNL d   1     -10.018  -9.749  10.382 +0.02 -0.02    +0.222    14.700
ATOM     14  O   UNL d   1      -9.050 -15.055   9.037 -0.01 +0.03    -0.278    14.700
ATOM     15  P   UNL d   1     -10.397 -15.695   9.622 +0.00 -0.04    +0.473    14.700
ATOM     16  O   UNL d   1     -10.740 -17.077   9.162 -0.00 +0.02    -0.228    14.700
ATOM     17  O   UNL d   1     -10.219 -15.596  11.202 +0.00 +0.02    -0.303    14.700
ATOM     18  H   UNL d   1     -10.770 -14.880  11.574 +0.00 -0.01    +0.222    14.700
ATOM     19  O   UNL d   1     -11.509 -14.589   9.356 -0.00 +0.03    -0.303    14.700
ATOM     20  H   UNL d   1     -11.113 -13.725   9.134 +0.01 -0.02    +0.222    14.700
ATOM     21  O   UNL d   1      -5.935 -12.305   7.948 -0.22 +0.07    -0.278    14.700
ATOM     22  P   UNL d   1      -4.868 -12.023   9.101 -0.14 -0.07    +0.473    14.700
ATOM     23  O   UNL d   1      -4.209 -13.192   9.751 -0.27 -0.01    -0.228    14.700
ATOM     24  O   UNL d   1      -3.873 -11.010   8.383 -0.28 +0.11    -0.303    14.700
ATOM     25  H   UNL d   1      -3.741 -11.316   7.450 -0.29 -0.13    +0.222    14.700
ATOM     26  O   UNL d   1      -5.689 -11.049  10.073 -0.11 +0.03    -0.303    14.700
ATOM     27  H   UNL d   1      -6.612 -10.978   9.754 +0.07 -0.02    +0.222    14.700
ATOM     28  O   UNL d   1      -9.725 -16.102   6.694 -0.02 +0.04    -0.278    14.700
ATOM     29  P   UNL d   1     -10.617 -16.545   5.451 -0.01 -0.07    +0.473    14.700
ATOM     30  O   UNL d   1     -11.140 -15.437   4.610 -0.08 +0.04    -0.228    14.700
ATOM     31  O   UNL d   1      -9.621 -17.582   4.748 -0.01 +0.05    -0.303    14.700
ATOM     32  H   UNL d   1      -8.862 -17.082   4.369 +0.05 -0.04    +0.222    14.700
ATOM     33  O   UNL d   1     -11.693 -17.499   6.135 -0.00 +0.03    -0.303    14.700
ATOM     34  H   UNL d   1     -11.440 -17.643   7.079 +0.00 -0.02    +0.222    14.700
ATOM     35  O   UNL d   1      -5.242 -14.953   6.929 -0.13 +0.04    -0.278    14.700
ATOM     36  P   UNL d   1      -3.980 -14.596   6.020 -0.31 -0.03    +0.473    14.700
ATOM     37  O   UNL d   1      -3.000 -15.707   5.813 -0.75 -0.06    -0.228    14.700
ATOM     38  O   UNL d   1      -4.676 -14.080   4.685 -0.57 +0.00    -0.303    14.700
ATOM     39  H   UNL d   1      -5.440 -14.660   4.476 +0.01 -0.06    +0.222    14.700
ATOM     40  O   UNL d   1      -3.433 -13.269   6.704 -0.23 +0.04    -0.303    14.700
ATOM     41  H   UNL d   1      -4.131 -12.581   6.775 -0.43 -0.10    +0.222    14.700
ATOM     42  O   UNL d   1      -7.360 -15.746   5.092 -0.14 +0.11    -0.278    14.700
ATOM     43  P   UNL d   1      -6.408 -16.976   4.737 -0.08 -0.23    +0.473    14.700
ATOM     44  O   UNL d   1      -7.035 -18.169   4.104 -0.08 +0.09    -0.228    14.700
ATOM     45  O   UNL d   1      -5.271 -16.294   3.857 -0.45 +0.21    -0.303    14.700
ATOM     46  H   UNL d   1      -4.430 -16.223   4.352 -0.07 -0.22    +0.222    14.700
ATOM     47  O   UNL d   1      -5.634 -17.250   6.114 -0.07 +0.11    -0.303    14.700
ATOM     48  H   UNL d   1      -4.722 -16.899   6.047 +0.01 -0.09    +0.222    14.700
TER
ENDMDL
MODEL       59
USER    Run = 59
USER    Cluster Rank = 14
USER    Number of conformations in this cluster = 1
USER  
USER    RMSD from reference structure       = 14.811 A
USER  
USER    Estimated Free Energy of Binding    =   +1.57 kcal/mol  [=(1)+(2)+(3)-(4)]
USER    
USER    (1) Final Intermolecular Energy     =   -5.58 kcal/mol
USER        vdW + Hbond + desolv Energy     =   -5.39 kcal/mol
USER        Electrostatic Energy            =   -0.19 kcal/mol
USER    (2) Final Total Internal Energy     =  -14.15 kcal/mol
USER    (3) Torsional Free Energy           =   +7.16 kcal/mol
USER    (4) Unbound System's Energy  [=(2)] =  -14.15 kcal/mol
USER    
USER    
USER  
USER    DPF = D:/Protein_go_brrr/autodock/final/mut_K82N/IHP/dock.dpf
USER    NEWDPF move	IHP_ideal_opt.pdbqt
USER    NEWDPF about	0.035000 0.082000 -0.065000
USER    NEWDPF tran0	-7.059071 -14.213670 7.780932
USER    NEWDPF axisangle0	-0.657515 -0.717810 -0.228960 63.518957
USER    NEWDPF quaternion0	-0.346086 -0.377823 -0.120514 0.850265
USER    NEWDPF dihe0	180.00 -180.00 128.09 -18.82 91.83 141.31 6.35 -162.69 100.26 91.88 -121.94 150.97 81.80 62.15 50.43 -125.58 89.40 166.86 57.32 -6.45 -176.21 40.20 6.96 180.00 
USER  
USER                              x       y       z    vdW   Elec        q     RMS 
ATOM      1  C   UNL d   1      -5.676 -14.672   6.853 -0.19 -0.04    +0.194    14.811
ATOM      2  C   UNL d   1      -6.845 -15.659   6.829 -0.09 -0.04    +0.194    14.811
ATOM      3  C   UNL d   1      -7.452 -15.852   8.220 -0.02 -0.02    +0.194    14.811
ATOM      4  C   UNL d   1      -7.820 -14.537   8.903 -0.04 -0.02    +0.194    14.811
ATOM      5  C   UNL d   1      -6.723 -13.481   8.850 -0.11 -0.02    +0.194    14.811
ATOM      6  C   UNL d   1      -6.074 -13.332   7.472 -0.21 -0.05    +0.194    14.811
ATOM      7  O   UNL d   1      -5.281 -14.417   5.503 -0.42 +0.08    -0.278    14.811
ATOM      8  P   UNL d   1      -4.669 -15.621   4.650 -0.20 -0.21    +0.473    14.811
ATOM      9  O   UNL d   1      -5.226 -15.769   3.278 -1.02 +0.07    -0.228    14.811
ATOM     10  O   UNL d   1      -3.098 -15.346   4.664 -0.34 +0.07    -0.303    14.811
ATOM     11  H   UNL d   1      -2.872 -14.781   5.426 +0.12 +0.02    +0.222    14.811
ATOM     12  O   UNL d   1      -4.792 -16.896   5.590 -0.10 +0.20    -0.303    14.811
ATOM     13  H   UNL d   1      -5.137 -17.689   5.120 -0.40 -0.26    +0.222    14.811
ATOM     14  O   UNL d   1      -7.862 -15.157   5.952 -0.04 +0.11    -0.278    14.811
ATOM     15  P   UNL d   1      -8.339 -16.133   4.776 -0.06 -0.14    +0.473    14.811
ATOM     16  O   UNL d   1      -9.773 -16.560   4.797 -0.05 +0.04    -0.228    14.811
ATOM     17  O   UNL d   1      -7.946 -15.355   3.443 -0.21 +0.10    -0.303    14.811
ATOM     18  H   UNL d   1      -7.139 -14.821   3.572 -0.45 -0.10    +0.222    14.811
ATOM     19  O   UNL d   1      -7.272 -17.313   4.783 -0.06 +0.10    -0.303    14.811
ATOM     20  H   UNL d   1      -6.442 -17.051   4.344 +0.06 -0.11    +0.222    14.811
ATOM     21  O   UNL d   1      -4.874 -12.586   7.662 -0.21 +0.08    -0.278    14.811
ATOM     22  P   UNL d   1      -3.554 -13.325   8.169 -0.21 -0.03    +0.473    14.811
ATOM     23  O   UNL d   1      -2.737 -14.074   7.171 -0.29 -0.03    -0.228    14.811
ATOM     24  O   UNL d   1      -2.785 -12.145   8.910 -0.27 +0.06    -0.303    14.811
ATOM     25  H   UNL d   1      -3.456 -11.480   9.210 -0.17 -0.08    +0.222    14.811
ATOM     26  O   UNL d   1      -4.114 -14.181   9.403 -0.11 -0.01    -0.303    14.811
ATOM     27  H   UNL d   1      -4.844 -13.689   9.831 +0.08 +0.00    +0.222    14.811
ATOM     28  O   UNL d   1      -8.680 -16.550   8.058 -0.01 +0.03    -0.278    14.811
ATOM     29  P   UNL d   1      -9.223 -17.501   9.215 +0.00 -0.04    +0.473    14.811
ATOM     30  O   UNL d   1     -10.072 -18.635   8.766 -0.00 +0.02    -0.228    14.811
ATOM     31  O   UNL d   1      -7.847 -17.868   9.944 +0.00 +0.02    -0.303    14.811
ATOM     32  H   UNL d   1      -7.415 -17.032  10.238 +0.01 -0.01    +0.222    14.811
ATOM     33  O   UNL d   1      -9.887 -16.459  10.220 -0.00 +0.02    -0.303    14.811
ATOM     34  H   UNL d   1      -9.286 -16.333  10.994 +0.00 -0.01    +0.222    14.811
ATOM     35  O   UNL d   1      -7.364 -12.243   9.149 -0.09 +0.03    -0.278    14.811
ATOM     36  P   UNL d   1      -6.666 -11.191  10.125 -0.07 -0.04    +0.473    14.811
ATOM     37  O   UNL d   1      -6.664  -9.773   9.650 -0.17 +0.03    -0.228    14.811
ATOM     38  O   UNL d   1      -7.466 -11.426  11.482 -0.05 +0.01    -0.303    14.811
ATOM     39  H   UNL d   1      -7.760 -12.362  11.524 +0.03 -0.01    +0.222    14.811
ATOM     40  O   UNL d   1      -5.251 -11.865  10.394 -0.11 -0.01    -0.303    14.811
ATOM     41  H   UNL d   1      -4.808 -12.129   9.557 +0.07 -0.02    +0.222    14.811
ATOM     42  O   UNL d   1      -8.049 -14.837  10.284 -0.01 +0.02    -0.278    14.811
ATOM     43  P   UNL d   1      -6.812 -15.264  11.196 +0.00 -0.02    +0.473    14.811
ATOM     44  O   UNL d   1      -7.072 -16.233  12.297 -0.00 +0.01    -0.228    14.811
ATOM     45  O   UNL d   1      -5.747 -15.765  10.126 -0.01 +0.00    -0.303    14.811
ATOM     46  H   UNL d   1      -4.853 -15.839  10.517 +0.05 +0.01    +0.222    14.811
ATOM     47  O   UNL d   1      -6.186 -13.858  11.645 -0.05 +0.00    -0.303    14.811
ATOM     48  H   UNL d   1      -6.350 -13.193  10.944 +0.05 -0.00    +0.222    14.811
TER
ENDMDL
MODEL       28
USER    Run = 28
USER    Cluster Rank = 15
USER    Number of conformations in this cluster = 2
USER  
USER    RMSD from reference structure       = 20.572 A
USER  
USER    Estimated Free Energy of Binding    =   +1.62 kcal/mol  [=(1)+(2)+(3)-(4)]
USER    
USER    (1) Final Intermolecular Energy     =   -5.54 kcal/mol
USER        vdW + Hbond + desolv Energy     =   -4.84 kcal/mol
USER        Electrostatic Energy            =   -0.70 kcal/mol
USER    (2) Final Total Internal Energy     =  -12.14 kcal/mol
USER    (3) Torsional Free Energy           =   +7.16 kcal/mol
USER    (4) Unbound System's Energy  [=(2)] =  -12.14 kcal/mol
USER    
USER    
USER  
USER    DPF = D:/Protein_go_brrr/autodock/final/mut_K82N/IHP/dock.dpf
USER    NEWDPF move	IHP_ideal_opt.pdbqt
USER    NEWDPF about	0.035000 0.082000 -0.065000
USER    NEWDPF tran0	1.820726 3.448455 20.811510
USER    NEWDPF axisangle0	-0.075600 -0.808029 0.584272 155.206954
USER    NEWDPF quaternion0	-0.073837 -0.789190 0.570650 0.214676
USER    NEWDPF dihe0	109.42 29.57 133.64 16.51 120.88 114.33 -31.80 -84.23 6.92 39.58 -18.74 170.69 -162.67 76.95 95.70 -58.38 -81.22 -76.73 34.12 -24.06 -38.56 -35.94 -172.21 37.73 
USER  
USER                              x       y       z    vdW   Elec        q     RMS 
ATOM      1  C   UNL d   1       0.577   2.250  20.850 +0.06 -0.17    +0.194    20.572
ATOM      2  C   UNL d   1       1.312   2.483  22.171 +0.05 -0.15    +0.194    20.572
ATOM      3  C   UNL d   1       2.822   2.613  21.965 +0.00 -0.16    +0.194    20.572
ATOM      4  C   UNL d   1       3.197   3.647  20.906 -0.18 -0.10    +0.194    20.572
ATOM      5  C   UNL d   1       2.406   3.524  19.610 -0.29 -0.12    +0.194    20.572
ATOM      6  C   UNL d   1       0.902   3.331  19.819 -0.20 -0.11    +0.194    20.572
ATOM      7  O   UNL d   1      -0.828   2.312  21.104 -0.08 +0.10    -0.278    20.572
ATOM      8  P   UNL d   1      -1.583   0.970  21.529 -0.12 -0.04    +0.473    20.572
ATOM      9  O   UNL d   1      -2.528   0.430  20.514 -0.16 -0.03    -0.228    20.572
ATOM     10  O   UNL d   1      -0.402  -0.041  21.888 -0.61 +0.05    -0.303    20.572
ATOM     11  H   UNL d   1       0.264  -0.031  21.176 -0.51 -0.26    +0.222    20.572
ATOM     12  O   UNL d   1      -2.202   1.279  22.959 -0.02 +0.02    -0.303    20.572
ATOM     13  H   UNL d   1      -1.814   2.077  23.383 +0.02 -0.03    +0.222    20.572
ATOM     14  O   UNL d   1       0.827   3.692  22.769 -0.02 +0.08    -0.278    20.572
ATOM     15  P   UNL d   1      -0.107   3.528  24.059 +0.01 -0.08    +0.473    20.572
ATOM     16  O   UNL d   1       0.219   4.389  25.239 +0.00 +0.02    -0.228    20.572
ATOM     17  O   UNL d   1      -1.581   3.773  23.505 +0.00 +0.04    -0.303    20.572
ATOM     18  H   UNL d   1      -1.691   3.385  22.616 +0.02 -0.03    +0.222    20.572
ATOM     19  O   UNL d   1      -0.128   1.962  24.338 -0.01 +0.06    -0.303    20.572
ATOM     20  H   UNL d   1      -0.233   1.451  23.514 +0.02 -0.06    +0.222    20.572
ATOM     21  O   UNL d   1       0.365   2.895  18.572 -0.22 +0.13    -0.278    20.572
ATOM     22  P   UNL d   1      -1.052   3.442  18.086 -0.11 -0.14    +0.473    20.572
ATOM     23  O   UNL d   1      -1.139   4.074  16.737 -0.27 +0.07    -0.228    20.572
ATOM     24  O   UNL d   1      -1.980   2.164  18.285 -0.24 +0.06    -0.303    20.572
ATOM     25  H   UNL d   1      -1.891   1.862  19.224 +0.08 -0.04    +0.222    20.572
ATOM     26  O   UNL d   1      -1.488   4.363  19.323 -0.04 +0.08    -0.303    20.572
ATOM     27  H   UNL d   1      -1.538   3.813  20.132 +0.05 -0.05    +0.222    20.572
ATOM     28  O   UNL d   1       3.381   3.097  23.179 -0.05 +0.08    -0.278    20.572
ATOM     29  P   UNL d   1       3.531   2.132  24.437 -0.01 -0.09    +0.473    20.572
ATOM     30  O   UNL d   1       2.323   1.999  25.291 -0.01 +0.03    -0.228    20.572
ATOM     31  O   UNL d   1       4.056   0.806  23.710 -0.10 +0.11    -0.303    20.572
ATOM     32  H   UNL d   1       4.425   1.055  22.831 +0.03 -0.11    +0.222    20.572
ATOM     33  O   UNL d   1       4.847   2.695  25.135 -0.01 -0.01    -0.303    20.572
ATOM     34  H   UNL d   1       5.402   3.149  24.454 +0.04 +0.02    +0.222    20.572
ATOM     35  O   UNL d   1       2.580   4.765  18.930 +0.05 +0.17    -0.278    20.572
ATOM     36  P   UNL d   1       2.529   6.139  19.739 -0.04 -0.16    +0.473    20.572
ATOM     37  O   UNL d   1       1.537   6.193  20.857 -0.03 +0.05    -0.228    20.572
ATOM     38  O   UNL d   1       4.044   6.303  20.200 -0.06 +0.07    -0.303    20.572
ATOM     39  H   UNL d   1       4.280   5.560  20.797 +0.07 -0.04    +0.222    20.572
ATOM     40  O   UNL d   1       2.364   7.212  18.576 -0.10 +0.12    -0.303    20.572
ATOM     41  H   UNL d   1       2.369   6.790  17.688 -0.44 -0.15    +0.222    20.572
ATOM     42  O   UNL d   1       4.574   3.427  20.581 -0.24 +0.10    -0.278    20.572
ATOM     43  P   UNL d   1       5.693   3.862  21.631 -0.17 -0.01    +0.473    20.572
ATOM     44  O   UNL d   1       5.400   5.034  22.501 -0.04 -0.00    -0.228    20.572
ATOM     45  O   UNL d   1       5.967   2.512  22.427 -0.20 -0.01    -0.303    20.572
ATOM     46  H   UNL d   1       5.400   2.444  23.222 +0.07 -0.01    +0.222    20.572
ATOM     47  O   UNL d   1       7.014   3.982  20.730 -0.82 -0.09    -0.303    20.572
ATOM     48  H   UNL d   1       6.834   3.608  19.842 -0.03 +0.06    +0.222    20.572
TER
ENDMDL
MODEL       37
USER    Run = 37
USER    Cluster Rank = 16
USER    Number of conformations in this cluster = 1
USER  
USER    RMSD from reference structure       = 12.706 A
USER  
USER    Estimated Free Energy of Binding    =   +1.62 kcal/mol  [=(1)+(2)+(3)-(4)]
USER    
USER    (1) Final Intermolecular Energy     =   -5.54 kcal/mol
USER        vdW + Hbond + desolv Energy     =   -5.23 kcal/mol
USER        Electrostatic Energy            =   -0.31 kcal/mol
USER    (2) Final Total Internal Energy     =  -15.06 kcal/mol
USER    (3) Torsional Free Energy           =   +7.16 kcal/mol
USER    (4) Unbound System's Energy  [=(2)] =  -15.06 kcal/mol
USER    
USER    
USER  
USER    DPF = D:/Protein_go_brrr/autodock/final/mut_K82N/IHP/dock.dpf
USER    NEWDPF move	IHP_ideal_opt.pdbqt
USER    NEWDPF about	0.035000 0.082000 -0.065000
USER    NEWDPF tran0	14.841407 5.953273 -4.127399
USER    NEWDPF axisangle0	0.040960 -0.992233 -0.117459 -91.360482
USER    NEWDPF quaternion0	0.029305 -0.709895 -0.084036 -0.698662
USER    NEWDPF dihe0	121.49 59.13 161.04 -1.97 6.76 166.74 -15.07 -147.07 16.60 55.23 61.29 -117.13 150.66 -179.25 175.83 105.32 143.21 124.75 53.10 13.41 -20.44 3.73 -17.42 -1.39 
USER  
USER                              x       y       z    vdW   Elec        q     RMS 
ATOM      1  C   UNL d   1      13.958   4.942  -3.041 -0.10 +0.04    +0.194    12.706
ATOM      2  C   UNL d   1      14.292   4.320  -4.398 -0.16 +0.02    +0.194    12.706
ATOM      3  C   UNL d   1      14.064   5.307  -5.545 -0.19 -0.00    +0.194    12.706
ATOM      4  C   UNL d   1      14.766   6.646  -5.334 -0.16 -0.00    +0.194    12.706
ATOM      5  C   UNL d   1      14.553   7.248  -3.951 -0.07 +0.00    +0.194    12.706
ATOM      6  C   UNL d   1      14.721   6.246  -2.807 -0.11 +0.03    +0.194    12.706
ATOM      7  O   UNL d   1      14.359   4.025  -2.019 -0.14 -0.05    -0.278    12.706
ATOM      8  P   UNL d   1      13.540   2.663  -1.858 -0.16 +0.17    +0.473    12.706
ATOM      9  O   UNL d   1      13.642   2.020  -0.520 -0.13 -0.06    -0.228    12.706
ATOM     10  O   UNL d   1      12.046   3.061  -2.251 -0.73 -0.11    -0.303    12.706
ATOM     11  H   UNL d   1      11.854   3.963  -1.934 -0.37 +0.01    +0.222    12.706
ATOM     12  O   UNL d   1      13.982   1.768  -3.094 -0.57 -0.26    -0.303    12.706
ATOM     13  H   UNL d   1      14.783   2.109  -3.551 +0.05 +0.12    +0.222    12.706
ATOM     14  O   UNL d   1      15.670   3.925  -4.403 -0.03 -0.02    -0.278    12.706
ATOM     15  P   UNL d   1      16.029   2.594  -5.218 -0.01 +0.05    +0.473    12.706
ATOM     16  O   UNL d   1      16.724   1.507  -4.459 -0.03 -0.03    -0.228    12.706
ATOM     17  O   UNL d   1      14.634   2.125  -5.829 -0.11 -0.08    -0.303    12.706
ATOM     18  H   UNL d   1      14.298   2.773  -6.477 +0.04 -0.02    +0.222    12.706
ATOM     19  O   UNL d   1      16.786   3.116  -6.516 +0.00 +0.01    -0.303    12.706
ATOM     20  H   UNL d   1      16.215   3.688  -7.061 +0.03 -0.01    +0.222    12.706
ATOM     21  O   UNL d   1      14.166   6.854  -1.643 -0.40 -0.08    -0.278    12.706
ATOM     22  P   UNL d   1      15.069   7.044  -0.342 -0.08 +0.02    +0.473    12.706
ATOM     23  O   UNL d   1      14.390   7.110   0.984 -0.07 -0.00    -0.228    12.706
ATOM     24  O   UNL d   1      16.118   5.857  -0.497 -0.02 -0.01    -0.303    12.706
ATOM     25  H   UNL d   1      15.616   5.003  -0.522 +0.03 +0.01    +0.222    12.706
ATOM     26  O   UNL d   1      15.952   8.321  -0.743 -0.03 +0.00    -0.303    12.706
ATOM     27  H   UNL d   1      15.786   8.545  -1.681 +0.04 -0.00    +0.222    12.706
ATOM     28  O   UNL d   1      14.654   4.751  -6.712 -0.06 +0.02    -0.278    12.706
ATOM     29  P   UNL d   1      13.745   4.320  -7.947 -0.11 -0.12    +0.473    12.706
ATOM     30  O   UNL d   1      13.301   5.426  -8.832 -0.15 +0.04    -0.228    12.706
ATOM     31  O   UNL d   1      14.676   3.195  -8.601 -0.05 +0.08    -0.303    12.706
ATOM     32  H   UNL d   1      15.126   2.700  -7.877 +0.04 -0.04    +0.222    12.706
ATOM     33  O   UNL d   1      12.604   3.463  -7.238 -0.22 +0.18    -0.303    12.706
ATOM     34  H   UNL d   1      12.902   2.523  -7.174 -0.45 -0.22    +0.222    12.706
ATOM     35  O   UNL d   1      15.571   8.235  -3.798 -0.08 +0.01    -0.278    12.706
ATOM     36  P   UNL d   1      15.187   9.781  -3.715 -0.10 -0.03    +0.473    12.706
ATOM     37  O   UNL d   1      16.340  10.734  -3.733 -0.03 +0.01    -0.228    12.706
ATOM     38  O   UNL d   1      14.191   9.936  -4.948 -0.20 +0.03    -0.303    12.706
ATOM     39  H   UNL d   1      14.629   9.599  -5.759 +0.07 -0.01    +0.222    12.706
ATOM     40  O   UNL d   1      14.233   9.827  -2.444 -0.18 +0.03    -0.303    12.706
ATOM     41  H   UNL d   1      14.286   8.997  -1.918 +0.06 -0.01    +0.222    12.706
ATOM     42  O   UNL d   1      14.206   7.561  -6.283 -0.14 +0.01    -0.278    12.706
ATOM     43  P   UNL d   1      15.126   8.103  -7.468 -0.05 -0.03    +0.473    12.706
ATOM     44  O   UNL d   1      14.462   8.875  -8.555 -0.13 +0.01    -0.228    12.706
ATOM     45  O   UNL d   1      16.256   8.911  -6.692 -0.04 +0.02    -0.303    12.706
ATOM     46  H   UNL d   1      16.022   9.038  -5.751 +0.04 -0.01    +0.222    12.706
ATOM     47  O   UNL d   1      15.925   6.795  -7.938 -0.03 +0.02    -0.303    12.706
ATOM     48  H   UNL d   1      15.287   6.127  -8.265 +0.04 -0.02    +0.222    12.706
TER
ENDMDL
MODEL        9
USER    Run = 9
USER    Cluster Rank = 17
USER    Number of conformations in this cluster = 1
USER  
USER    RMSD from reference structure       = 20.718 A
USER  
USER    Estimated Free Energy of Binding    =   +1.64 kcal/mol  [=(1)+(2)+(3)-(4)]
USER    
USER    (1) Final Intermolecular Energy     =   -5.52 kcal/mol
USER        vdW + Hbond + desolv Energy     =   -5.29 kcal/mol
USER        Electrostatic Energy            =   -0.23 kcal/mol
USER    (2) Final Total Internal Energy     =  -13.48 kcal/mol
USER    (3) Torsional Free Energy           =   +7.16 kcal/mol
USER    (4) Unbound System's Energy  [=(2)] =  -13.48 kcal/mol
USER    
USER    
USER  
USER    DPF = D:/Protein_go_brrr/autodock/final/mut_K82N/IHP/dock.dpf
USER    NEWDPF move	IHP_ideal_opt.pdbqt
USER    NEWDPF about	0.035000 0.082000 -0.065000
USER    NEWDPF tran0	-1.928189 19.971287 -13.150971
USER    NEWDPF axisangle0	-0.601168 0.191833 -0.775756 154.312989
USER    NEWDPF quaternion0	-0.586128 0.187033 -0.756347 0.222289
USER    NEWDPF dihe0	92.71 55.92 147.13 6.06 71.77 179.88 -74.61 -31.10 -41.65 -76.61 85.90 -150.03 -37.84 77.50 -66.53 49.57 -84.31 46.77 34.24 -29.30 174.48 -33.72 -142.58 43.65 
USER  
USER                              x       y       z    vdW   Elec        q     RMS 
ATOM      1  C   UNL d   1      -1.068  20.426 -11.724 -0.09 -0.05    +0.194    20.718
ATOM      2  C   UNL d   1      -0.650  21.149 -13.006 -0.02 -0.05    +0.194    20.718
ATOM      3  C   UNL d   1      -0.549  20.187 -14.191 -0.04 -0.06    +0.194    20.718
ATOM      4  C   UNL d   1      -1.805  19.341 -14.388 -0.12 -0.09    +0.194    20.718
ATOM      5  C   UNL d   1      -2.323  18.693 -13.111 -0.12 -0.08    +0.194    20.718
ATOM      6  C   UNL d   1      -2.366  19.640 -11.909 -0.19 -0.06    +0.194    20.718
ATOM      7  O   UNL d   1      -1.306  21.410 -10.714 -0.10 +0.08    -0.278    20.718
ATOM      8  P   UNL d   1      -0.076  21.884  -9.811 -0.14 -0.15    +0.473    20.718
ATOM      9  O   UNL d   1       1.267  21.491 -10.317 -0.08 +0.06    -0.228    20.718
ATOM     10  O   UNL d   1      -0.267  23.464  -9.698 -0.08 +0.10    -0.303    20.718
ATOM     11  H   UNL d   1      -0.160  23.870 -10.579 +0.04 -0.05    +0.222    20.718
ATOM     12  O   UNL d   1      -0.433  21.400  -8.341 -0.89 +0.10    -0.303    20.718
ATOM     13  H   UNL d   1      -1.205  20.790  -8.312 -0.41 -0.12    +0.222    20.718
ATOM     14  O   UNL d   1      -1.625  22.153 -13.314 -0.01 +0.05    -0.278    20.718
ATOM     15  P   UNL d   1      -1.234  23.664 -12.957 +0.01 -0.08    +0.473    20.718
ATOM     16  O   UNL d   1      -1.482  24.691 -14.017 -0.00 +0.03    -0.228    20.718
ATOM     17  O   UNL d   1      -2.031  23.963 -11.610 -0.00 +0.05    -0.303    20.718
ATOM     18  H   UNL d   1      -1.867  23.268 -10.943 +0.05 -0.05    +0.222    20.718
ATOM     19  O   UNL d   1       0.263  23.572 -12.428 +0.00 +0.05    -0.303    20.718
ATOM     20  H   UNL d   1       0.351  22.923 -11.706 +0.03 -0.05    +0.222    20.718
ATOM     21  O   UNL d   1      -2.532  18.827 -10.750 -0.28 +0.12    -0.278    20.718
ATOM     22  P   UNL d   1      -1.318  17.933 -10.229 -0.24 -0.16    +0.473    20.718
ATOM     23  O   UNL d   1      -0.421  17.304 -11.241 -0.32 +0.07    -0.228    20.718
ATOM     24  O   UNL d   1      -0.592  18.926  -9.219 -0.30 +0.12    -0.303    20.718
ATOM     25  H   UNL d   1      -1.144  19.746  -9.143 -0.31 -0.12    +0.222    20.718
ATOM     26  O   UNL d   1      -2.061  16.927  -9.226 -0.43 +0.12    -0.303    20.718
ATOM     27  H   UNL d   1      -3.028  17.072  -9.283 -0.27 -0.10    +0.222    20.718
ATOM     28  O   UNL d   1      -0.434  20.972 -15.371 -0.01 +0.07    -0.278    20.718
ATOM     29  P   UNL d   1       0.950  21.665 -15.745 +0.01 -0.09    +0.473    20.718
ATOM     30  O   UNL d   1       2.161  21.033 -15.160 -0.00 +0.05    -0.228    20.718
ATOM     31  O   UNL d   1       0.836  21.674 -17.341 +0.00 +0.06    -0.303    20.718
ATOM     32  H   UNL d   1       0.203  20.970 -17.615 +0.01 -0.05    +0.222    20.718
ATOM     33  O   UNL d   1       0.676  23.186 -15.364 +0.00 +0.05    -0.303    20.718
ATOM     34  H   UNL d   1       0.004  23.220 -14.640 +0.00 -0.03    +0.222    20.718
ATOM     35  O   UNL d   1      -3.668  18.308 -13.390 -0.05 +0.12    -0.278    20.718
ATOM     36  P   UNL d   1      -4.400  18.839 -14.704 -0.12 -0.19    +0.473    20.718
ATOM     37  O   UNL d   1      -4.132  20.267 -15.059 -0.04 +0.06    -0.228    20.718
ATOM     38  O   UNL d   1      -3.910  17.789 -15.797 -0.13 +0.28    -0.303    20.718
ATOM     39  H   UNL d   1      -3.316  18.242 -16.433 +0.01 -0.19    +0.222    20.718
ATOM     40  O   UNL d   1      -5.915  18.434 -14.436 -0.12 +0.08    -0.303    20.718
ATOM     41  H   UNL d   1      -6.248  17.803 -15.112 +0.05 -0.06    +0.222    20.718
ATOM     42  O   UNL d   1      -1.455  18.282 -15.285 -0.14 +0.24    -0.278    20.718
ATOM     43  P   UNL d   1      -1.106  18.638 -16.801 -0.07 -0.35    +0.473    20.718
ATOM     44  O   UNL d   1       0.325  18.879 -17.137 -0.05 +0.12    -0.228    20.718
ATOM     45  O   UNL d   1      -1.770  17.436 -17.604 -0.08 +0.38    -0.303    20.718
ATOM     46  H   UNL d   1      -2.374  16.916 -17.036 -0.28 -0.51    +0.222    20.718
ATOM     47  O   UNL d   1      -2.108  19.845 -17.133 -0.02 +0.12    -0.303    20.718
ATOM     48  H   UNL d   1      -2.303  20.338 -16.310 +0.02 -0.07    +0.222    20.718
TER
ENDMDL
MODEL       35
USER    Run = 35
USER    Cluster Rank = 18
USER    Number of conformations in this cluster = 1
USER  
USER    RMSD from reference structure       = 18.830 A
USER  
USER    Estimated Free Energy of Binding    =   +1.65 kcal/mol  [=(1)+(2)+(3)-(4)]
USER    
USER    (1) Final Intermolecular Energy     =   -5.51 kcal/mol
USER        vdW + Hbond + desolv Energy     =   -5.16 kcal/mol
USER        Electrostatic Energy            =   -0.35 kcal/mol
USER    (2) Final Total Internal Energy     =  -11.63 kcal/mol
USER    (3) Torsional Free Energy           =   +7.16 kcal/mol
USER    (4) Unbound System's Energy  [=(2)] =  -11.63 kcal/mol
USER    
USER    
USER  
USER    DPF = D:/Protein_go_brrr/autodock/final/mut_K82N/IHP/dock.dpf
USER    NEWDPF move	IHP_ideal_opt.pdbqt
USER    NEWDPF about	0.035000 0.082000 -0.065000
USER    NEWDPF tran0	11.963847 -14.697387 12.666944
USER    NEWDPF axisangle0	-0.843077 -0.010786 0.537685 135.792243
USER    NEWDPF quaternion0	-0.781114 -0.009993 0.498167 0.376287
USER    NEWDPF dihe0	135.51 114.44 148.21 121.83 102.75 157.17 -127.93 -14.40 -58.17 136.60 53.26 41.33 -8.73 131.43 32.07 179.53 12.16 -87.90 -6.54 -30.26 166.57 -11.23 19.83 175.41 
USER  
USER                              x       y       z    vdW   Elec        q     RMS 
ATOM      1  C   UNL d   1      11.638 -14.984  10.995 -0.10 -0.05    +0.194    18.830
ATOM      2  C   UNL d   1      10.980 -13.739  11.592 -0.14 -0.08    +0.194    18.830
ATOM      3  C   UNL d   1      10.391 -14.018  12.976 -0.15 -0.05    +0.194    18.830
ATOM      4  C   UNL d   1      11.389 -14.661  13.936 -0.05 -0.03    +0.194    18.830
ATOM      5  C   UNL d   1      12.153 -15.837  13.342 -0.02 -0.03    +0.194    18.830
ATOM      6  C   UNL d   1      12.689 -15.579  11.933 -0.02 -0.02    +0.194    18.830
ATOM      7  O   UNL d   1      12.309 -14.601   9.792 -0.08 +0.04    -0.278    18.830
ATOM      8  P   UNL d   1      12.023 -15.439   8.463 -0.03 +0.12    +0.473    18.830
ATOM      9  O   UNL d   1      10.595 -15.787   8.231 -0.32 -0.08    -0.228    18.830
ATOM     10  O   UNL d   1      12.648 -14.545   7.299 -0.59 -0.18    -0.303    18.830
ATOM     11  H   UNL d   1      12.710 -13.618   7.597 +0.04 +0.09    +0.222    18.830
ATOM     12  O   UNL d   1      13.035 -16.663   8.521 -0.02 -0.02    -0.303    18.830
ATOM     13  H   UNL d   1      12.816 -17.311   9.229 +0.03 -0.00    +0.222    18.830
ATOM     14  O   UNL d   1      11.964 -12.704  11.715 -0.13 +0.05    -0.278    18.830
ATOM     15  P   UNL d   1      11.946 -11.562  10.593 -0.12 -0.10    +0.473    18.830
ATOM     16  O   UNL d   1      13.067 -10.571  10.624 -0.14 +0.01    -0.228    18.830
ATOM     17  O   UNL d   1      11.874 -12.369   9.221 -0.17 +0.08    -0.303    18.830
ATOM     18  H   UNL d   1      11.136 -13.009   9.228 -0.39 -0.20    +0.222    18.830
ATOM     19  O   UNL d   1      10.483 -10.945  10.679 -0.31 +0.14    -0.303    18.830
ATOM     20  H   UNL d   1      10.312 -10.541  11.549 -0.34 -0.08    +0.222    18.830
ATOM     21  O   UNL d   1      13.060 -16.846  11.395 -0.00 +0.03    -0.278    18.830
ATOM     22  P   UNL d   1      11.944 -17.958  11.144 -0.00 -0.06    +0.473    18.830
ATOM     23  O   UNL d   1      10.857 -17.657  10.168 -0.05 +0.03    -0.228    18.830
ATOM     24  O   UNL d   1      12.828 -19.232  10.787 -0.00 +0.02    -0.303    18.830
ATOM     25  H   UNL d   1      13.645 -19.208  11.347 +0.01 -0.02    +0.222    18.830
ATOM     26  O   UNL d   1      11.473 -18.290  12.640 -0.02 +0.06    -0.303    18.830
ATOM     27  H   UNL d   1      12.145 -17.958  13.270 +0.02 -0.04    +0.222    18.830
ATOM     28  O   UNL d   1      10.058 -12.766  13.561 -0.16 +0.04    -0.278    18.830
ATOM     29  P   UNL d   1       8.555 -12.239  13.532 -0.22 -0.07    +0.473    18.830
ATOM     30  O   UNL d   1       8.183 -11.305  14.626 -0.28 +0.01    -0.228    18.830
ATOM     31  O   UNL d   1       8.487 -11.671  12.037 -0.20 +0.10    -0.303    18.830
ATOM     32  H   UNL d   1       8.963 -10.809  12.007 -0.15 -0.10    +0.222    18.830
ATOM     33  O   UNL d   1       7.728 -13.595  13.431 -0.27 +0.07    -0.303    18.830
ATOM     34  H   UNL d   1       8.103 -14.249  14.070 +0.11 -0.05    +0.222    18.830
ATOM     35  O   UNL d   1      13.281 -16.035  14.191 -0.00 +0.03    -0.278    18.830
ATOM     36  P   UNL d   1      13.912 -17.490  14.367 +0.01 -0.04    +0.473    18.830
ATOM     37  O   UNL d   1      14.344 -18.162  13.102 -0.00 +0.02    -0.228    18.830
ATOM     38  O   UNL d   1      15.093 -17.211  15.397 +0.00 +0.02    -0.303    18.830
ATOM     39  H   UNL d   1      15.928 -17.581  15.037 +0.00 -0.01    +0.222    18.830
ATOM     40  O   UNL d   1      12.810 -18.234  15.240 +0.00 +0.04    -0.303    18.830
ATOM     41  H   UNL d   1      12.183 -18.743  14.678 +0.02 -0.04    +0.222    18.830
ATOM     42  O   UNL d   1      10.634 -15.165  15.044 -0.04 +0.05    -0.278    18.830
ATOM     43  P   UNL d   1       9.581 -16.335  14.790 -0.10 -0.16    +0.473    18.830
ATOM     44  O   UNL d   1       8.728 -16.239  13.572 -0.69 +0.09    -0.228    18.830
ATOM     45  O   UNL d   1      10.488 -17.641  14.847 -0.05 +0.10    -0.303    18.830
ATOM     46  H   UNL d   1      11.432 -17.427  14.703 +0.03 -0.05    +0.222    18.830
ATOM     47  O   UNL d   1       8.791 -16.425  16.182 -0.06 +0.10    -0.303    18.830
ATOM     48  H   UNL d   1       8.632 -17.367  16.402 +0.04 -0.11    +0.222    18.830
TER
ENDMDL
MODEL       31
USER    Run = 31
USER    Cluster Rank = 19
USER    Number of conformations in this cluster = 1
USER  
USER    RMSD from reference structure       = 11.268 A
USER  
USER    Estimated Free Energy of Binding    =   +1.65 kcal/mol  [=(1)+(2)+(3)-(4)]
USER    
USER    (1) Final Intermolecular Energy     =   -5.51 kcal/mol
USER        vdW + Hbond + desolv Energy     =   -5.18 kcal/mol
USER        Electrostatic Energy            =   -0.33 kcal/mol
USER    (2) Final Total Internal Energy     =  -13.28 kcal/mol
USER    (3) Torsional Free Energy           =   +7.16 kcal/mol
USER    (4) Unbound System's Energy  [=(2)] =  -13.28 kcal/mol
USER    
USER    
USER  
USER    DPF = D:/Protein_go_brrr/autodock/final/mut_K82N/IHP/dock.dpf
USER    NEWDPF move	IHP_ideal_opt.pdbqt
USER    NEWDPF about	0.035000 0.082000 -0.065000
USER    NEWDPF tran0	-11.646611 -2.434508 -6.712970
USER    NEWDPF axisangle0	-0.272752 -0.884606 0.378257 -73.743516
USER    NEWDPF quaternion0	-0.163659 -0.530787 0.226964 -0.799981
USER    NEWDPF dihe0	89.47 -180.00 160.56 -49.09 -12.56 -119.48 -15.05 179.87 6.34 -17.08 13.32 -155.91 172.34 -161.22 -1.25 121.69 -143.15 -17.65 -14.47 -11.34 132.62 -20.59 -50.15 153.35 
USER  
USER                              x       y       z    vdW   Elec        q     RMS 
ATOM      1  C   UNL d   1     -11.791  -2.494  -4.993 -0.12 -0.00    +0.194    11.268
ATOM      2  C   UNL d   1     -11.714  -3.850  -5.697 -0.15 -0.01    +0.194    11.268
ATOM      3  C   UNL d   1     -12.580  -3.883  -6.958 -0.14 +0.01    +0.194    11.268
ATOM      4  C   UNL d   1     -12.302  -2.722  -7.909 -0.17 +0.02    +0.194    11.268
ATOM      5  C   UNL d   1     -12.255  -1.360  -7.229 -0.13 +0.04    +0.194    11.268
ATOM      6  C   UNL d   1     -11.440  -1.342  -5.934 -0.13 +0.04    +0.194    11.268
ATOM      7  O   UNL d   1     -10.831  -2.487  -3.933 -0.14 +0.03    -0.278    11.268
ATOM      8  P   UNL d   1     -11.262  -1.875  -2.522 -0.12 -0.13    +0.473    11.268
ATOM      9  O   UNL d   1     -10.254  -0.984  -1.886 -0.26 +0.05    -0.228    11.268
ATOM     10  O   UNL d   1     -12.646  -1.141  -2.826 -0.04 +0.02    -0.303    11.268
ATOM     11  H   UNL d   1     -12.486  -0.365  -3.395 +0.05 +0.04    +0.222    11.268
ATOM     12  O   UNL d   1     -11.730  -3.122  -1.657 -0.10 +0.30    -0.303    11.268
ATOM     13  H   UNL d   1     -11.371  -3.112  -0.741 -0.45 -0.45    +0.222    11.268
ATOM     14  O   UNL d   1     -10.354  -4.106  -6.070 -0.18 +0.01    -0.278    11.268
ATOM     15  P   UNL d   1      -9.679  -5.421  -5.453 -0.18 -0.11    +0.473    11.268
ATOM     16  O   UNL d   1      -8.681  -5.212  -4.358 -0.33 +0.07    -0.228    11.268
ATOM     17  O   UNL d   1     -10.916  -6.316  -5.000 -0.14 +0.09    -0.303    11.268
ATOM     18  H   UNL d   1     -11.448  -6.596  -5.769 +0.08 -0.04    +0.222    11.268
ATOM     19  O   UNL d   1      -9.149  -6.225  -6.719 -0.69 +0.04    -0.303    11.268
ATOM     20  H   UNL d   1      -9.678  -7.028  -6.883 -0.14 -0.05    +0.222    11.268
ATOM     21  O   UNL d   1     -11.770  -0.132  -5.256 -0.12 -0.13    -0.278    11.268
ATOM     22  P   UNL d   1     -13.222   0.504  -5.433 -0.05 +0.27    +0.473    11.268
ATOM     23  O   UNL d   1     -14.364  -0.413  -5.717 -0.02 -0.05    -0.228    11.268
ATOM     24  O   UNL d   1     -13.369   1.358  -4.098 -0.06 -0.20    -0.303    11.268
ATOM     25  H   UNL d   1     -13.600   0.739  -3.360 +0.03 +0.07    +0.222    11.268
ATOM     26  O   UNL d   1     -12.948   1.644  -6.527 -0.38 -0.44    -0.303    11.268
ATOM     27  H   UNL d   1     -12.703   1.222  -7.376 +0.03 +0.22    +0.222    11.268
ATOM     28  O   UNL d   1     -12.235  -5.056  -7.683 +0.04 -0.03    -0.278    11.268
ATOM     29  P   UNL d   1     -13.005  -6.425  -7.414 +0.06 +0.03    +0.473    11.268
ATOM     30  O   UNL d   1     -14.132  -6.718  -8.336 -0.64 -0.03    -0.228    11.268
ATOM     31  O   UNL d   1     -11.772  -7.445  -7.426 -0.15 +0.03    -0.303    11.268
ATOM     32  H   UNL d   1     -10.996  -7.005  -7.010 +0.09 -0.03    +0.222    11.268
ATOM     33  O   UNL d   1     -13.353  -6.312  -5.864 -0.03 +0.03    -0.303    11.268
ATOM     34  H   UNL d   1     -12.945  -7.075  -5.387 +0.06 -0.03    +0.222    11.268
ATOM     35  O   UNL d   1     -11.601  -0.490  -8.150 -0.14 -0.09    -0.278    11.268
ATOM     36  P   UNL d   1     -12.408   0.145  -9.370 -0.08 +0.16    +0.473    11.268
ATOM     37  O   UNL d   1     -12.240  -0.548 -10.685 -0.16 -0.06    -0.228    11.268
ATOM     38  O   UNL d   1     -13.900   0.138  -8.812 -0.02 -0.09    -0.303    11.268
ATOM     39  H   UNL d   1     -14.185  -0.790  -8.668 +0.03 +0.04    +0.222    11.268
ATOM     40  O   UNL d   1     -11.981   1.676  -9.301 -0.12 -0.18    -0.303    11.268
ATOM     41  H   UNL d   1     -12.211   2.079  -8.435 +0.04 +0.23    +0.222    11.268
ATOM     42  O   UNL d   1     -13.382  -2.687  -8.848 -0.08 -0.04    -0.278    11.268
ATOM     43  P   UNL d   1     -14.871  -2.904  -8.318 -0.02 +0.03    +0.473    11.268
ATOM     44  O   UNL d   1     -15.166  -2.504  -6.914 -0.01 -0.01    -0.228    11.268
ATOM     45  O   UNL d   1     -15.744  -2.141  -9.409 -0.01 -0.03    -0.303    11.268
ATOM     46  H   UNL d   1     -15.505  -1.194  -9.461 +0.02 +0.03    +0.222    11.268
ATOM     47  O   UNL d   1     -15.168  -4.437  -8.678 -0.04 -0.01    -0.303    11.268
ATOM     48  H   UNL d   1     -14.320  -4.919  -8.762 +0.03 +0.02    +0.222    11.268
TER
ENDMDL
MODEL       65
USER    Run = 65
USER    Cluster Rank = 20
USER    Number of conformations in this cluster = 1
USER  
USER    RMSD from reference structure       = 17.789 A
USER  
USER    Estimated Free Energy of Binding    =   +1.67 kcal/mol  [=(1)+(2)+(3)-(4)]
USER    
USER    (1) Final Intermolecular Energy     =   -5.49 kcal/mol
USER        vdW + Hbond + desolv Energy     =   -5.35 kcal/mol
USER        Electrostatic Energy            =   -0.14 kcal/mol
USER    (2) Final Total Internal Energy     =  -14.16 kcal/mol
USER    (3) Torsional Free Energy           =   +7.16 kcal/mol
USER    (4) Unbound System's Energy  [=(2)] =  -14.16 kcal/mol
USER    
USER    
USER  
USER    DPF = D:/Protein_go_brrr/autodock/final/mut_K82N/IHP/dock.dpf
USER    NEWDPF move	IHP_ideal_opt.pdbqt
USER    NEWDPF about	0.035000 0.082000 -0.065000
USER    NEWDPF tran0	14.219561 -1.065682 14.813008
USER    NEWDPF axisangle0	0.111527 -0.676675 -0.727786 141.870911
USER    NEWDPF quaternion0	0.105409 -0.639560 -0.687868 0.326633
USER    NEWDPF dihe0	-113.29 43.30 36.35 31.01 26.42 -146.83 38.50 180.00 -106.88 23.64 -8.32 -179.06 -161.62 170.56 -56.87 -66.72 20.40 157.42 39.23 -16.03 172.77 26.81 -6.38 -21.78 
USER  
USER                              x       y       z    vdW   Elec        q     RMS 
ATOM      1  C   UNL d   1      13.996   0.051  13.514 -0.16 -0.03    +0.194    17.789
ATOM      2  C   UNL d   1      15.319  -0.717  13.505 -0.13 -0.01    +0.194    17.789
ATOM      3  C   UNL d   1      15.937  -0.797  14.903 -0.09 -0.00    +0.194    17.789
ATOM      4  C   UNL d   1      14.970  -1.326  15.959 -0.11 +0.01    +0.194    17.789
ATOM      5  C   UNL d   1      13.597  -0.666  15.928 -0.22 -0.01    +0.194    17.789
ATOM      6  C   UNL d   1      13.006  -0.531  14.523 -0.28 -0.04    +0.194    17.789
ATOM      7  O   UNL d   1      13.403  -0.068  12.219 -0.13 +0.09    -0.278    17.789
ATOM      8  P   UNL d   1      13.883   0.934  11.070 -0.01 -0.08    +0.473    17.789
ATOM      9  O   UNL d   1      12.877   1.951  10.659 -0.15 +0.02    -0.228    17.789
ATOM     10  O   UNL d   1      15.224   1.575  11.650 -0.03 +0.02    -0.303    17.789
ATOM     11  H   UNL d   1      15.986   1.020  11.400 +0.02 -0.01    +0.222    17.789
ATOM     12  O   UNL d   1      14.437  -0.002   9.911 -0.31 +0.04    -0.303    17.789
ATOM     13  H   UNL d   1      14.402  -0.959  10.138 -0.49 -0.09    +0.222    17.789
ATOM     14  O   UNL d   1      15.083  -2.049  13.034 -0.17 +0.01    -0.278    17.789
ATOM     15  P   UNL d   1      15.784  -2.455  11.652 -0.13 -0.03    +0.473    17.789
ATOM     16  O   UNL d   1      14.930  -3.164  10.649 -0.25 +0.03    -0.228    17.789
ATOM     17  O   UNL d   1      16.375  -1.082  11.100 -0.06 +0.02    -0.303    17.789
ATOM     18  H   UNL d   1      15.667  -0.422  10.970 +0.02 -0.03    +0.222    17.789
ATOM     19  O   UNL d   1      17.108  -3.220  12.089 -0.08 -0.00    -0.303    17.789
ATOM     20  H   UNL d   1      17.437  -2.908  12.952 +0.03 +0.00    +0.222    17.789
ATOM     21  O   UNL d   1      11.919   0.387  14.620 -0.22 +0.09    -0.278    17.789
ATOM     22  P   UNL d   1      12.210   1.934  14.882 -0.11 -0.07    +0.473    17.789
ATOM     23  O   UNL d   1      13.465   2.303  15.599 -0.05 +0.01    -0.228    17.789
ATOM     24  O   UNL d   1      12.074   2.543  13.418 -0.10 +0.03    -0.303    17.789
ATOM     25  H   UNL d   1      12.486   1.906  12.779 +0.09 -0.03    +0.222    17.789
ATOM     26  O   UNL d   1      10.842   2.411  15.568 -0.24 +0.07    -0.303    17.789
ATOM     27  H   UNL d   1      10.525   1.711  16.174 -0.18 -0.11    +0.222    17.789
ATOM     28  O   UNL d   1      16.994  -1.746  14.850 -0.07 -0.01    -0.278    17.789
ATOM     29  P   UNL d   1      18.380  -1.449  15.577 -0.02 +0.00    +0.473    17.789
ATOM     30  O   UNL d   1      19.421  -0.808  14.734 -0.01 +0.00    -0.228    17.789
ATOM     31  O   UNL d   1      17.859  -0.619  16.843 -0.01 -0.00    -0.303    17.789
ATOM     32  H   UNL d   1      17.674  -1.250  17.577 +0.01 +0.01    +0.222    17.789
ATOM     33  O   UNL d   1      18.737  -2.866  16.209 -0.03 -0.01    -0.303    17.789
ATOM     34  H   UNL d   1      18.819  -2.770  17.189 +0.01 +0.00    +0.222    17.789
ATOM     35  O   UNL d   1      12.735  -1.532  16.664 -0.30 +0.01    -0.278    17.789
ATOM     36  P   UNL d   1      11.906  -0.975  17.908 -0.32 -0.04    +0.473    17.789
ATOM     37  O   UNL d   1      10.874   0.058  17.584 -0.20 +0.08    -0.228    17.789
ATOM     38  O   UNL d   1      11.315  -2.316  18.533 -0.26 +0.02    -0.303    17.789
ATOM     39  H   UNL d   1      10.736  -2.088  19.292 -0.41 -0.09    +0.222    17.789
ATOM     40  O   UNL d   1      13.056  -0.554  18.922 -0.12 -0.01    -0.303    17.789
ATOM     41  H   UNL d   1      13.914  -0.976  18.696 +0.07 +0.01    +0.222    17.789
ATOM     42  O   UNL d   1      15.549  -1.033  17.235 -0.06 -0.01    -0.278    17.789
ATOM     43  P   UNL d   1      15.596  -2.181  18.342 -0.05 +0.03    +0.473    17.789
ATOM     44  O   UNL d   1      15.693  -1.758  19.767 -0.03 -0.01    -0.228    17.789
ATOM     45  O   UNL d   1      14.302  -3.044  18.005 -0.09 -0.04    -0.303    17.789
ATOM     46  H   UNL d   1      13.494  -2.639  18.381 +0.08 +0.02    +0.222    17.789
ATOM     47  O   UNL d   1      16.770  -3.141  17.824 -0.06 -0.02    -0.303    17.789
ATOM     48  H   UNL d   1      17.137  -2.781  16.989 +0.03 +0.01    +0.222    17.789
TER
ENDMDL
MODEL       30
USER    Run = 30
USER    Cluster Rank = 21
USER    Number of conformations in this cluster = 3
USER  
USER    RMSD from reference structure       = 10.756 A
USER  
USER    Estimated Free Energy of Binding    =   +1.80 kcal/mol  [=(1)+(2)+(3)-(4)]
USER    
USER    (1) Final Intermolecular Energy     =   -5.36 kcal/mol
USER        vdW + Hbond + desolv Energy     =   -4.94 kcal/mol
USER        Electrostatic Energy            =   -0.42 kcal/mol
USER    (2) Final Total Internal Energy     =  -12.20 kcal/mol
USER    (3) Torsional Free Energy           =   +7.16 kcal/mol
USER    (4) Unbound System's Energy  [=(2)] =  -12.20 kcal/mol
USER    
USER    
USER  
USER    DPF = D:/Protein_go_brrr/autodock/final/mut_K82N/IHP/dock.dpf
USER    NEWDPF move	IHP_ideal_opt.pdbqt
USER    NEWDPF about	0.035000 0.082000 -0.065000
USER    NEWDPF tran0	-13.187681 -5.778591 -4.066894
USER    NEWDPF axisangle0	-0.648890 0.574184 -0.499254 -127.773387
USER    NEWDPF quaternion0	-0.582655 0.515574 -0.448293 -0.440148
USER    NEWDPF dihe0	102.02 64.58 55.85 27.64 151.07 -112.35 -151.72 -74.25 -27.08 1.43 6.88 -178.73 -176.50 151.66 129.62 -107.07 -153.26 6.72 -11.12 -29.15 142.52 -17.31 -50.96 165.74 
USER  
USER                              x       y       z    vdW   Elec        q     RMS 
ATOM      1  C   UNL d   1     -12.149  -6.914  -3.282 -0.09 -0.07    +0.194    10.756
ATOM      2  C   UNL d   1     -12.427  -5.625  -2.505 -0.09 -0.12    +0.194    10.756
ATOM      3  C   UNL d   1     -12.362  -4.393  -3.411 -0.07 -0.07    +0.194    10.756
ATOM      4  C   UNL d   1     -13.236  -4.516  -4.657 -0.03 -0.03    +0.194    10.756
ATOM      5  C   UNL d   1     -13.076  -5.837  -5.399 -0.05 -0.02    +0.194    10.756
ATOM      6  C   UNL d   1     -13.078  -7.065  -4.487 -0.03 -0.04    +0.194    10.756
ATOM      7  O   UNL d   1     -12.397  -8.021  -2.411 -0.06 +0.10    -0.278    10.756
ATOM      8  P   UNL d   1     -11.318  -9.198  -2.355 -0.13 -0.14    +0.473    10.756
ATOM      9  O   UNL d   1     -11.855 -10.559  -2.632 -0.12 +0.05    -0.228    10.756
ATOM     10  O   UNL d   1     -10.195  -8.743  -3.392 -0.07 +0.09    -0.303    10.756
ATOM     11  H   UNL d   1     -10.600  -8.585  -4.265 -0.21 -0.09    +0.222    10.756
ATOM     12  O   UNL d   1     -10.579  -9.014  -0.961 -0.27 +0.12    -0.303    10.756
ATOM     13  H   UNL d   1     -11.091  -8.471  -0.321 +0.10 -0.12    +0.222    10.756
ATOM     14  O   UNL d   1     -13.736  -5.700  -1.929 -0.04 +0.14    -0.278    10.756
ATOM     15  P   UNL d   1     -13.812  -6.036  -0.365 -0.04 -0.37    +0.473    10.756
ATOM     16  O   UNL d   1     -15.054  -6.717   0.117 -0.02 +0.10    -0.228    10.756
ATOM     17  O   UNL d   1     -12.494  -6.886  -0.087 -0.06 +0.34    -0.303    10.756
ATOM     18  H   UNL d   1     -12.316  -7.508  -0.818 +0.07 -0.16    +0.222    10.756
ATOM     19  O   UNL d   1     -13.462  -4.660   0.353 -0.03 +0.41    -0.303    10.756
ATOM     20  H   UNL d   1     -12.836  -4.129  -0.172 -0.48 -0.40    +0.222    10.756
ATOM     21  O   UNL d   1     -12.585  -8.155  -5.262 -0.05 +0.05    -0.278    10.756
ATOM     22  P   UNL d   1     -11.365  -7.926  -6.264 -0.17 -0.11    +0.473    10.756
ATOM     23  O   UNL d   1     -10.581  -9.116  -6.704 -0.35 +0.08    -0.228    10.756
ATOM     24  O   UNL d   1     -12.061  -7.112  -7.442 -0.12 +0.01    -0.303    10.756
ATOM     25  H   UNL d   1     -12.062  -6.153  -7.195 +0.07 +0.00    +0.222    10.756
ATOM     26  O   UNL d   1     -10.537  -6.777  -5.513 -0.10 +0.11    -0.303    10.756
ATOM     27  H   UNL d   1     -10.078  -7.165  -4.740 -0.44 -0.15    +0.222    10.756
ATOM     28  O   UNL d   1     -12.898  -3.297  -2.681 -0.04 +0.11    -0.278    10.756
ATOM     29  P   UNL d   1     -11.936  -2.339  -1.847 -0.08 -0.26    +0.473    10.756
ATOM     30  O   UNL d   1     -12.380  -2.034  -0.463 -0.13 +0.17    -0.228    10.756
ATOM     31  O   UNL d   1     -10.551  -3.124  -2.010 -0.19 +0.25    -0.303    10.756
ATOM     32  H   UNL d   1     -10.386  -3.644  -1.190 -0.48 -0.44    +0.222    10.756
ATOM     33  O   UNL d   1     -11.758  -1.103  -2.835 -0.08 +0.02    -0.303    10.756
ATOM     34  H   UNL d   1     -12.063  -1.366  -3.738 +0.06 +0.00    +0.222    10.756
ATOM     35  O   UNL d   1     -14.215  -5.943  -6.250 -0.02 +0.02    -0.278    10.756
ATOM     36  P   UNL d   1     -14.265  -5.148  -7.632 -0.06 +0.02    +0.473    10.756
ATOM     37  O   UNL d   1     -15.217  -3.995  -7.679 -0.03 -0.01    -0.228    10.756
ATOM     38  O   UNL d   1     -12.738  -4.745  -7.831 -0.08 -0.03    -0.303    10.756
ATOM     39  H   UNL d   1     -12.604  -3.826  -7.514 +0.06 +0.02    +0.222    10.756
ATOM     40  O   UNL d   1     -14.493  -6.316  -8.688 -0.41 -0.03    -0.303    10.756
ATOM     41  H   UNL d   1     -13.962  -7.114  -8.469 +0.03 +0.04    +0.222    10.756
ATOM     42  O   UNL d   1     -12.829  -3.477  -5.553 -0.04 +0.01    -0.278    10.756
ATOM     43  P   UNL d   1     -11.292  -3.374  -5.967 -0.10 +0.00    +0.473    10.756
ATOM     44  O   UNL d   1     -10.640  -4.603  -6.500 -0.31 +0.00    -0.228    10.756
ATOM     45  O   UNL d   1     -11.284  -2.143  -6.976 -0.15 -0.04    -0.303    10.756
ATOM     46  H   UNL d   1     -11.781  -2.347  -7.793 +0.07 +0.03    +0.222    10.756
ATOM     47  O   UNL d   1     -10.604  -2.735  -4.668 -0.13 +0.02    -0.303    10.756
ATOM     48  H   UNL d   1     -11.288  -2.585  -3.982 +0.08 -0.03    +0.222    10.756
TER
ENDMDL
MODEL       26
USER    Run = 26
USER    Cluster Rank = 22
USER    Number of conformations in this cluster = 1
USER  
USER    RMSD from reference structure       = 18.960 A
USER  
USER    Estimated Free Energy of Binding    =   +1.93 kcal/mol  [=(1)+(2)+(3)-(4)]
USER    
USER    (1) Final Intermolecular Energy     =   -5.23 kcal/mol
USER        vdW + Hbond + desolv Energy     =   -5.15 kcal/mol
USER        Electrostatic Energy            =   -0.08 kcal/mol
USER    (2) Final Total Internal Energy     =  -12.51 kcal/mol
USER    (3) Torsional Free Energy           =   +7.16 kcal/mol
USER    (4) Unbound System's Energy  [=(2)] =  -12.51 kcal/mol
USER    
USER    
USER  
USER    DPF = D:/Protein_go_brrr/autodock/final/mut_K82N/IHP/dock.dpf
USER    NEWDPF move	IHP_ideal_opt.pdbqt
USER    NEWDPF about	0.035000 0.082000 -0.065000
USER    NEWDPF tran0	3.092740 -1.545480 -20.680531
USER    NEWDPF axisangle0	-0.109103 -0.023038 -0.993763 110.279424
USER    NEWDPF quaternion0	-0.089524 -0.018904 -0.815431 0.571577
USER    NEWDPF dihe0	109.02 140.51 -30.66 91.41 23.84 179.92 47.85 -107.39 -9.29 154.00 5.96 -167.62 -88.12 -9.63 -51.14 -98.79 -85.10 -148.72 -133.27 -21.23 -174.36 43.74 61.03 -36.56 
USER  
USER                              x       y       z    vdW   Elec        q     RMS 
ATOM      1  C   UNL d   1       3.636  -0.123 -19.865 -0.06 -0.05    +0.194    18.960
ATOM      2  C   UNL d   1       4.733  -0.986 -20.490 -0.03 -0.05    +0.194    18.960
ATOM      3  C   UNL d   1       4.496  -2.476 -20.237 -0.06 -0.06    +0.194    18.960
ATOM      4  C   UNL d   1       3.098  -2.939 -20.639 -0.09 -0.07    +0.194    18.960
ATOM      5  C   UNL d   1       1.976  -2.041 -20.133 -0.13 -0.07    +0.194    18.960
ATOM      6  C   UNL d   1       2.242  -0.547 -20.331 -0.09 -0.05    +0.194    18.960
ATOM      7  O   UNL d   1       3.834   1.228 -20.290 -0.02 +0.06    -0.278    18.960
ATOM      8  P   UNL d   1       2.870   1.818 -21.418 -0.02 -0.09    +0.473    18.960
ATOM      9  O   UNL d   1       2.472   0.852 -22.477 -0.02 +0.05    -0.228    18.960
ATOM     10  O   UNL d   1       1.629   2.400 -20.601 -0.14 +0.06    -0.303    18.960
ATOM     11  H   UNL d   1       1.315   1.731 -19.963 +0.07 -0.05    +0.222    18.960
ATOM     12  O   UNL d   1       3.587   3.144 -21.922 -0.01 +0.04    -0.303    18.960
ATOM     13  H   UNL d   1       4.138   3.002 -22.724 +0.01 -0.03    +0.222    18.960
ATOM     14  O   UNL d   1       4.755  -0.761 -21.906 -0.00 +0.06    -0.278    18.960
ATOM     15  P   UNL d   1       6.023   0.025 -22.486 +0.00 -0.08    +0.473    18.960
ATOM     16  O   UNL d   1       7.368  -0.414 -21.996 -0.00 +0.04    -0.228    18.960
ATOM     17  O   UNL d   1       5.870  -0.106 -24.067 +0.00 +0.05    -0.303    18.960
ATOM     18  H   UNL d   1       6.681  -0.470 -24.470 +0.00 -0.03    +0.222    18.960
ATOM     19  O   UNL d   1       5.677   1.560 -22.258 +0.00 +0.05    -0.303    18.960
ATOM     20  H   UNL d   1       5.132   1.692 -21.460 +0.01 -0.04    +0.222    18.960
ATOM     21  O   UNL d   1       1.300   0.151 -19.519 -0.24 +0.08    -0.278    18.960
ATOM     22  P   UNL d   1       1.604   0.378 -17.970 -0.30 -0.14    +0.473    18.960
ATOM     23  O   UNL d   1       2.593  -0.521 -17.307 -0.26 +0.08    -0.228    18.960
ATOM     24  O   UNL d   1       1.979   1.924 -17.935 -0.23 +0.08    -0.303    18.960
ATOM     25  H   UNL d   1       2.559   2.119 -18.715 +0.09 -0.05    +0.222    18.960
ATOM     26  O   UNL d   1       0.128   0.381 -17.345 -0.57 +0.11    -0.303    18.960
ATOM     27  H   UNL d   1      -0.518   0.155 -18.045 -0.42 -0.12    +0.222    18.960
ATOM     28  O   UNL d   1       5.388  -3.200 -21.073 -0.02 +0.08    -0.278    18.960
ATOM     29  P   UNL d   1       5.856  -4.669 -20.670 -0.03 -0.17    +0.473    18.960
ATOM     30  O   UNL d   1       7.325  -4.875 -20.594 -0.02 +0.06    -0.228    18.960
ATOM     31  O   UNL d   1       5.023  -4.865 -19.317 -0.07 +0.18    -0.303    18.960
ATOM     32  H   UNL d   1       4.220  -5.399 -19.517 -0.44 -0.22    +0.222    18.960
ATOM     33  O   UNL d   1       5.055  -5.571 -21.709 -0.04 +0.14    -0.303    18.960
ATOM     34  H   UNL d   1       4.108  -5.288 -21.718 +0.04 -0.12    +0.222    18.960
ATOM     35  O   UNL d   1       0.832  -2.371 -20.917 -0.07 +0.12    -0.278    18.960
ATOM     36  P   UNL d   1      -0.469  -1.449 -20.869 -0.13 -0.22    +0.473    18.960
ATOM     37  O   UNL d   1      -0.848  -0.938 -19.515 -0.71 +0.13    -0.228    18.960
ATOM     38  O   UNL d   1      -0.100  -0.310 -21.919 -0.09 +0.10    -0.303    18.960
ATOM     39  H   UNL d   1       0.500   0.339 -21.491 +0.06 -0.06    +0.222    18.960
ATOM     40  O   UNL d   1      -1.544  -2.338 -21.632 -0.10 +0.18    -0.303    18.960
ATOM     41  H   UNL d   1      -2.254  -2.650 -21.028 +0.07 -0.20    +0.222    18.960
ATOM     42  O   UNL d   1       2.902  -4.229 -20.050 -0.15 +0.17    -0.278    18.960
ATOM     43  P   UNL d   1       2.000  -5.298 -20.816 -0.11 -0.37    +0.473    18.960
ATOM     44  O   UNL d   1       0.615  -5.515 -20.312 -0.29 +0.21    -0.228    18.960
ATOM     45  O   UNL d   1       2.072  -4.799 -22.325 -0.03 +0.16    -0.303    18.960
ATOM     46  H   UNL d   1       1.621  -3.938 -22.439 +0.04 -0.10    +0.222    18.960
ATOM     47  O   UNL d   1       2.933  -6.601 -20.859 -0.20 +0.35    -0.303    18.960
ATOM     48  H   UNL d   1       3.702  -6.467 -20.267 -0.38 -0.24    +0.222    18.960
TER
ENDMDL
MODEL       32
USER    Run = 32
USER    Cluster Rank = 23
USER    Number of conformations in this cluster = 1
USER  
USER    RMSD from reference structure       = 12.132 A
USER  
USER    Estimated Free Energy of Binding    =   +1.99 kcal/mol  [=(1)+(2)+(3)-(4)]
USER    
USER    (1) Final Intermolecular Energy     =   -5.17 kcal/mol
USER        vdW + Hbond + desolv Energy     =   -4.92 kcal/mol
USER        Electrostatic Energy            =   -0.25 kcal/mol
USER    (2) Final Total Internal Energy     =  -13.85 kcal/mol
USER    (3) Torsional Free Energy           =   +7.16 kcal/mol
USER    (4) Unbound System's Energy  [=(2)] =  -13.85 kcal/mol
USER    
USER    
USER  
USER    DPF = D:/Protein_go_brrr/autodock/final/mut_K82N/IHP/dock.dpf
USER    NEWDPF move	IHP_ideal_opt.pdbqt
USER    NEWDPF about	0.035000 0.082000 -0.065000
USER    NEWDPF tran0	-10.396633 8.614130 -6.191495
USER    NEWDPF axisangle0	0.171892 -0.910495 -0.376101 -141.254305
USER    NEWDPF quaternion0	0.162160 -0.858943 -0.354806 -0.331714
USER    NEWDPF dihe0	107.71 145.75 97.82 62.08 15.46 180.00 -128.00 -46.80 39.31 15.12 15.00 -180.00 -76.89 132.16 1.48 -163.77 178.25 -52.04 11.90 -10.98 -31.51 2.27 6.27 -173.33 
USER  
USER                              x       y       z    vdW   Elec        q     RMS 
ATOM      1  C   UNL d   1     -11.811   7.749  -6.676 -0.08 +0.13    +0.194    12.132
ATOM      2  C   UNL d   1     -10.616   7.646  -7.625 -0.10 +0.11    +0.194    12.132
ATOM      3  C   UNL d   1      -9.932   9.001  -7.824 -0.12 +0.06    +0.194    12.132
ATOM      4  C   UNL d   1      -9.569   9.689  -6.511 -0.22 +0.06    +0.194    12.132
ATOM      5  C   UNL d   1     -10.698   9.713  -5.489 -0.17 +0.06    +0.194    12.132
ATOM      6  C   UNL d   1     -11.423   8.374  -5.335 -0.14 +0.10    +0.194    12.132
ATOM      7  O   UNL d   1     -12.284   6.427  -6.409 -0.30 -0.43    -0.278    12.132
ATOM      8  P   UNL d   1     -13.701   5.993  -7.005 -0.01 +0.47    +0.473    12.132
ATOM      9  O   UNL d   1     -14.645   7.113  -7.268 -0.01 -0.09    -0.228    12.132
ATOM     10  O   UNL d   1     -13.331   5.163  -8.317 -0.04 -0.27    -0.303    12.132
ATOM     11  H   UNL d   1     -12.704   5.674  -8.861 +0.02 +0.16    +0.222    12.132
ATOM     12  O   UNL d   1     -14.228   4.855  -6.030 -0.35 -0.38    -0.303    12.132
ATOM     13  H   UNL d   1     -14.894   5.180  -5.382 +0.01 +0.16    +0.222    12.132
ATOM     14  O   UNL d   1      -9.662   6.729  -7.077 -0.32 -0.24    -0.278    12.132
ATOM     15  P   UNL d   1      -9.302   5.450  -7.971 -0.10 +0.43    +0.473    12.132
ATOM     16  O   UNL d   1      -8.445   4.403  -7.332 -0.42 -0.20    -0.228    12.132
ATOM     17  O   UNL d   1     -10.719   4.890  -8.435 -0.20 -0.39    -0.303    12.132
ATOM     18  H   UNL d   1     -11.445   5.455  -8.106 +0.03 +0.31    +0.222    12.132
ATOM     19  O   UNL d   1      -8.740   6.062  -9.328 -0.09 -0.10    -0.303    12.132
ATOM     20  H   UNL d   1      -8.706   7.036  -9.298 +0.07 +0.06    +0.222    12.132
ATOM     21  O   UNL d   1     -12.633   8.639  -4.631 -0.04 -0.11    -0.278    12.132
ATOM     22  P   UNL d   1     -13.064   7.700  -3.415 -0.06 +0.20    +0.473    12.132
ATOM     23  O   UNL d   1     -11.988   7.077  -2.591 -0.22 -0.10    -0.228    12.132
ATOM     24  O   UNL d   1     -14.059   8.645  -2.610 -0.02 -0.07    -0.303    12.132
ATOM     25  H   UNL d   1     -13.606   9.514  -2.462 +0.05 +0.04    +0.222    12.132
ATOM     26  O   UNL d   1     -14.078   6.685  -4.131 -0.08 -0.17    -0.303    12.132
ATOM     27  H   UNL d   1     -14.076   6.855  -5.095 +0.03 +0.14    +0.222    12.132
ATOM     28  O   UNL d   1      -8.694   8.762  -8.481 -0.12 -0.06    -0.278    12.132
ATOM     29  P   UNL d   1      -8.461   9.276  -9.970 -0.06 +0.06    +0.473    12.132
ATOM     30  O   UNL d   1      -7.067   9.173 -10.473 -0.15 -0.00    -0.228    12.132
ATOM     31  O   UNL d   1      -9.575   8.422 -10.738 -0.02 -0.05    -0.303    12.132
ATOM     32  H   UNL d   1      -9.250   7.496 -10.833 +0.05 +0.04    +0.222    12.132
ATOM     33  O   UNL d   1      -9.104  10.732  -9.925 -0.32 -0.08    -0.303    12.132
ATOM     34  H   UNL d   1      -9.273  10.980  -8.983 +0.08 +0.06    +0.222    12.132
ATOM     35  O   UNL d   1     -10.081  10.002  -4.236 -0.30 -0.08    -0.278    12.132
ATOM     36  P   UNL d   1     -10.750  11.046  -3.232 -0.19 +0.11    +0.473    12.132
ATOM     37  O   UNL d   1      -9.806  12.000  -2.571 -0.25 -0.04    -0.228    12.132
ATOM     38  O   UNL d   1     -11.839  11.742  -4.163 -0.09 -0.08    -0.303    12.132
ATOM     39  H   UNL d   1     -11.512  11.750  -5.088 +0.09 +0.06    +0.222    12.132
ATOM     40  O   UNL d   1     -11.606  10.101  -2.281 -0.09 -0.07    -0.303    12.132
ATOM     41  H   UNL d   1     -11.867   9.269  -2.734 +0.09 +0.06    +0.222    12.132
ATOM     42  O   UNL d   1      -9.259  11.050  -6.828 -0.08 -0.07    -0.278    12.132
ATOM     43  P   UNL d   1     -10.453  12.057  -7.153 -0.14 +0.15    +0.473    12.132
ATOM     44  O   UNL d   1     -11.826  11.486  -7.249 -0.05 -0.06    -0.228    12.132
ATOM     45  O   UNL d   1     -10.288  13.169  -6.027 -0.22 -0.16    -0.303    12.132
ATOM     46  H   UNL d   1     -10.336  12.781  -5.131 +0.10 +0.09    +0.222    12.132
ATOM     47  O   UNL d   1      -9.934  12.833  -8.456 -0.22 -0.12    -0.303    12.132
ATOM     48  H   UNL d   1      -9.041  12.506  -8.692 -0.15 +0.06    +0.222    12.132
TER
ENDMDL
MODEL       91
USER    Run = 91
USER    Cluster Rank = 24
USER    Number of conformations in this cluster = 2
USER  
USER    RMSD from reference structure       = 17.238 A
USER  
USER    Estimated Free Energy of Binding    =   +2.01 kcal/mol  [=(1)+(2)+(3)-(4)]
USER    
USER    (1) Final Intermolecular Energy     =   -5.15 kcal/mol
USER        vdW + Hbond + desolv Energy     =   -4.81 kcal/mol
USER        Electrostatic Energy            =   -0.35 kcal/mol
USER    (2) Final Total Internal Energy     =  -13.40 kcal/mol
USER    (3) Torsional Free Energy           =   +7.16 kcal/mol
USER    (4) Unbound System's Energy  [=(2)] =  -13.40 kcal/mol
USER    
USER    
USER  
USER    DPF = D:/Protein_go_brrr/autodock/final/mut_K82N/IHP/dock.dpf
USER    NEWDPF move	IHP_ideal_opt.pdbqt
USER    NEWDPF about	0.035000 0.082000 -0.065000
USER    NEWDPF tran0	4.808608 -1.243638 -18.915460
USER    NEWDPF axisangle0	0.295459 0.148377 -0.943763 136.042716
USER    NEWDPF quaternion0	0.273986 0.137594 -0.875173 0.374261
USER    NEWDPF dihe0	91.96 138.72 180.00 29.80 -20.42 -18.71 21.57 178.56 38.13 -149.02 44.45 103.27 -49.57 180.00 -73.68 123.44 -71.86 180.00 48.14 -6.93 -170.50 -23.98 -166.13 17.25 
USER  
USER                              x       y       z    vdW   Elec        q     RMS 
ATOM      1  C   UNL d   1       4.149   0.249 -18.349 -0.13 -0.06    +0.194    17.238
ATOM      2  C   UNL d   1       5.541  -0.101 -17.820 -0.13 -0.06    +0.194    17.238
ATOM      3  C   UNL d   1       5.642  -1.576 -17.423 -0.16 -0.06    +0.194    17.238
ATOM      4  C   UNL d   1       5.187  -2.528 -18.527 -0.13 -0.06    +0.194    17.238
ATOM      5  C   UNL d   1       3.855  -2.150 -19.163 -0.14 -0.06    +0.194    17.238
ATOM      6  C   UNL d   1       3.731  -0.663 -19.503 -0.08 -0.05    +0.194    17.238
ATOM      7  O   UNL d   1       4.187   1.585 -18.855 -0.06 +0.07    -0.278    17.238
ATOM      8  P   UNL d   1       4.227   2.792 -17.809 -0.13 -0.12    +0.473    17.238
ATOM      9  O   UNL d   1       4.269   2.386 -16.378 -0.33 +0.08    -0.228    17.238
ATOM     10  O   UNL d   1       5.497   3.649 -18.256 -0.04 +0.05    -0.303    17.238
ATOM     11  H   UNL d   1       6.309   3.126 -18.119 +0.06 -0.06    +0.222    17.238
ATOM     12  O   UNL d   1       3.023   3.741 -18.226 -0.16 +0.08    -0.303    17.238
ATOM     13  H   UNL d   1       2.192   3.547 -17.736 -0.38 -0.10    +0.222    17.238
ATOM     14  O   UNL d   1       6.509   0.164 -18.843 -0.02 +0.08    -0.278    17.238
ATOM     15  P   UNL d   1       7.711   1.148 -18.453 -0.01 -0.16    +0.473    17.238
ATOM     16  O   UNL d   1       7.908   2.347 -19.326 -0.01 +0.05    -0.228    17.238
ATOM     17  O   UNL d   1       7.421   1.531 -16.934 -0.12 +0.21    -0.303    17.238
ATOM     18  H   UNL d   1       7.774   0.853 -16.327 +0.06 -0.20    +0.222    17.238
ATOM     19  O   UNL d   1       8.974   0.192 -18.305 -0.01 +0.10    -0.303    17.238
ATOM     20  H   UNL d   1       8.717  -0.702 -18.013 +0.03 -0.07    +0.222    17.238
ATOM     21  O   UNL d   1       2.350  -0.413 -19.756 -0.08 +0.08    -0.278    17.238
ATOM     22  P   UNL d   1       1.377  -0.049 -18.545 -0.26 -0.15    +0.473    17.238
ATOM     23  O   UNL d   1       1.496  -0.837 -17.284 -0.08 +0.08    -0.228    17.238
ATOM     24  O   UNL d   1       1.629   1.514 -18.382 -0.25 +0.07    -0.303    17.238
ATOM     25  H   UNL d   1       2.409   1.639 -17.784 +0.11 -0.07    +0.222    17.238
ATOM     26  O   UNL d   1      -0.058  -0.080 -19.260 -0.79 +0.09    -0.303    17.238
ATOM     27  H   UNL d   1      -0.758  -0.072 -18.577 -0.37 -0.12    +0.222    17.238
ATOM     28  O   UNL d   1       7.017  -1.869 -17.214 -0.06 +0.10    -0.278    17.238
ATOM     29  P   UNL d   1       7.688  -1.613 -15.793 -0.11 -0.25    +0.473    17.238
ATOM     30  O   UNL d   1       7.789  -2.802 -14.908 -0.15 +0.09    -0.228    17.238
ATOM     31  O   UNL d   1       9.060  -0.929 -16.251 -0.05 +0.16    -0.303    17.238
ATOM     32  H   UNL d   1       8.867  -0.014 -16.561 +0.05 -0.14    +0.222    17.238
ATOM     33  O   UNL d   1       6.845  -0.378 -15.244 -0.11 +0.30    -0.303    17.238
ATOM     34  H   UNL d   1       7.462   0.369 -15.047 -0.03 -0.37    +0.222    17.238
ATOM     35  O   UNL d   1       3.796  -2.869 -20.393 -0.05 +0.10    -0.278    17.238
ATOM     36  P   UNL d   1       5.121  -3.109 -21.249 -0.00 -0.14    +0.473    17.238
ATOM     37  O   UNL d   1       6.193  -2.080 -21.080 -0.01 +0.05    -0.228    17.238
ATOM     38  O   UNL d   1       5.543  -4.575 -20.792 -0.04 +0.11    -0.303    17.238
ATOM     39  H   UNL d   1       5.273  -4.710 -19.858 +0.02 -0.11    +0.222    17.238
ATOM     40  O   UNL d   1       4.544  -3.317 -22.716 -0.00 +0.08    -0.303    17.238
ATOM     41  H   UNL d   1       5.258  -3.311 -23.392 +0.01 -0.05    +0.222    17.238
ATOM     42  O   UNL d   1       5.015  -3.813 -17.920 -0.19 +0.12    -0.278    17.238
ATOM     43  P   UNL d   1       6.225  -4.851 -17.956 -0.12 -0.18    +0.473    17.238
ATOM     44  O   UNL d   1       5.912  -6.258 -18.335 -0.32 +0.11    -0.228    17.238
ATOM     45  O   UNL d   1       7.271  -4.135 -18.918 -0.02 +0.08    -0.303    17.238
ATOM     46  H   UNL d   1       6.822  -3.559 -19.569 +0.03 -0.06    +0.222    17.238
ATOM     47  O   UNL d   1       6.916  -4.658 -16.523 -0.10 +0.09    -0.303    17.238
ATOM     48  H   UNL d   1       7.460  -3.844 -16.534 +0.07 -0.06    +0.222    17.238
TER
ENDMDL
MODEL       88
USER    Run = 88
USER    Cluster Rank = 25
USER    Number of conformations in this cluster = 1
USER  
USER    RMSD from reference structure       = 10.287 A
USER  
USER    Estimated Free Energy of Binding    =   +2.02 kcal/mol  [=(1)+(2)+(3)-(4)]
USER    
USER    (1) Final Intermolecular Energy     =   -5.14 kcal/mol
USER        vdW + Hbond + desolv Energy     =   -4.95 kcal/mol
USER        Electrostatic Energy            =   -0.19 kcal/mol
USER    (2) Final Total Internal Energy     =  -12.79 kcal/mol
USER    (3) Torsional Free Energy           =   +7.16 kcal/mol
USER    (4) Unbound System's Energy  [=(2)] =  -12.79 kcal/mol
USER    
USER    
USER  
USER    DPF = D:/Protein_go_brrr/autodock/final/mut_K82N/IHP/dock.dpf
USER    NEWDPF move	IHP_ideal_opt.pdbqt
USER    NEWDPF about	0.035000 0.082000 -0.065000
USER    NEWDPF tran0	13.190813 -6.235256 0.586732
USER    NEWDPF axisangle0	0.407859 0.477774 0.778064 70.322083
USER    NEWDPF quaternion0	0.234876 0.275139 0.448069 0.817537
USER    NEWDPF dihe0	162.64 -11.67 107.36 98.67 120.07 77.61 47.72 -136.81 34.11 76.33 123.78 117.20 -106.00 -14.09 178.02 -144.47 -66.77 21.52 36.72 -24.81 18.07 22.88 -179.86 -177.18 
USER  
USER                              x       y       z    vdW   Elec        q     RMS 
ATOM      1  C   UNL d   1      12.796  -6.926   2.120 -0.14 +0.01    +0.194    10.287
ATOM      2  C   UNL d   1      11.634  -6.798   1.134 -0.21 -0.00    +0.194    10.287
ATOM      3  C   UNL d   1      11.648  -5.448   0.414 -0.19 -0.01    +0.194    10.287
ATOM      4  C   UNL d   1      12.992  -5.126  -0.234 -0.06 +0.01    +0.194    10.287
ATOM      5  C   UNL d   1      14.191  -5.350   0.679 -0.03 +0.01    +0.194    10.287
ATOM      6  C   UNL d   1      14.146  -6.673   1.447 -0.03 +0.00    +0.194    10.287
ATOM      7  O   UNL d   1      12.813  -8.266   2.619 -0.09 -0.01    -0.278    10.287
ATOM      8  P   UNL d   1      11.892  -8.620   3.875 -0.21 +0.04    +0.473    10.287
ATOM      9  O   UNL d   1      12.095  -7.756   5.070 -0.29 -0.02    -0.228    10.287
ATOM     10  O   UNL d   1      10.407  -8.554   3.297 -0.24 -0.01    -0.303    10.287
ATOM     11  H   UNL d   1      10.437  -8.396   2.335 +0.10 +0.00    +0.222    10.287
ATOM     12  O   UNL d   1      12.090 -10.180   4.105 -0.17 -0.05    -0.303    10.287
ATOM     13  H   UNL d   1      11.869 -10.718   3.312 +0.07 +0.05    +0.222    10.287
ATOM     14  O   UNL d   1      11.735  -7.839   0.155 -0.08 -0.00    -0.278    10.287
ATOM     15  P   UNL d   1      10.682  -9.039   0.274 -0.13 +0.02    +0.473    10.287
ATOM     16  O   UNL d   1       9.270  -8.664   0.602 -0.17 +0.01    -0.228    10.287
ATOM     17  O   UNL d   1      10.809  -9.806  -1.117 -0.05 -0.01    -0.303    10.287
ATOM     18  H   UNL d   1      11.591  -9.501  -1.616 +0.04 +0.01    +0.222    10.287
ATOM     19  O   UNL d   1      11.366 -10.071   1.272 -0.10 -0.03    -0.303    10.287
ATOM     20  H   UNL d   1      11.830  -9.616   1.999 +0.07 +0.02    +0.222    10.287
ATOM     21  O   UNL d   1      15.120  -6.582   2.483 -0.01 -0.01    -0.278    10.287
ATOM     22  P   UNL d   1      16.645  -6.928   2.169 +0.00 +0.00    +0.473    10.287
ATOM     23  O   UNL d   1      17.494  -7.444   3.282 -0.00 -0.00    -0.228    10.287
ATOM     24  O   UNL d   1      16.507  -7.909   0.924 -0.00 -0.00    -0.303    10.287
ATOM     25  H   UNL d   1      15.966  -7.452   0.230 +0.00 +0.00    +0.222    10.287
ATOM     26  O   UNL d   1      17.149  -5.575   1.471 +0.00 -0.00    -0.303    10.287
ATOM     27  H   UNL d   1      17.100  -5.678   0.498 +0.00 +0.00    +0.222    10.287
ATOM     28  O   UNL d   1      10.720  -5.527  -0.661 -0.15 +0.00    -0.278    10.287
ATOM     29  P   UNL d   1       9.675  -4.351  -0.909 -0.23 -0.02    +0.473    10.287
ATOM     30  O   UNL d   1       8.617  -4.635  -1.912 -0.25 -0.02    -0.228    10.287
ATOM     31  O   UNL d   1       9.197  -4.080   0.594 -0.31 +0.13    -0.303    10.287
ATOM     32  H   UNL d   1       9.684  -3.298   0.942 -0.36 -0.18    +0.222    10.287
ATOM     33  O   UNL d   1      10.631  -3.111  -1.203 -0.39 -0.04    -0.303    10.287
ATOM     34  H   UNL d   1      10.996  -2.778  -0.347 -0.32 -0.03    +0.222    10.287
ATOM     35  O   UNL d   1      15.328  -5.402  -0.180 -0.00 -0.01    -0.278    10.287
ATOM     36  P   UNL d   1      15.317  -6.335  -1.474 +0.01 +0.01    +0.473    10.287
ATOM     37  O   UNL d   1      14.348  -7.474  -1.439 -0.00 -0.00    -0.228    10.287
ATOM     38  O   UNL d   1      15.045  -5.280  -2.635 -0.00 -0.02    -0.303    10.287
ATOM     39  H   UNL d   1      14.433  -4.588  -2.304 +0.03 +0.03    +0.222    10.287
ATOM     40  O   UNL d   1      16.856  -6.701  -1.641 +0.00 -0.00    -0.303    10.287
ATOM     41  H   UNL d   1      17.306  -6.791  -0.772 +0.00 +0.00    +0.222    10.287
ATOM     42  O   UNL d   1      12.970  -3.734  -0.565 -0.09 -0.04    -0.278    10.287
ATOM     43  P   UNL d   1      13.057  -2.660   0.611 -0.13 +0.01    +0.473    10.287
ATOM     44  O   UNL d   1      14.334  -2.576   1.372 -0.05 -0.01    -0.228    10.287
ATOM     45  O   UNL d   1      12.645  -1.307  -0.120 -0.14 -0.07    -0.303    10.287
ATOM     46  H   UNL d   1      11.811  -1.410  -0.621 -0.29 +0.10    +0.222    10.287
ATOM     47  O   UNL d   1      11.749  -2.968   1.486 +0.03 +0.10    -0.303    10.287
ATOM     48  H   UNL d   1      10.951  -2.792   0.946 -0.39 -0.13    +0.222    10.287
TER
ENDMDL
MODEL        3
USER    Run = 3
USER    Cluster Rank = 26
USER    Number of conformations in this cluster = 1
USER  
USER    RMSD from reference structure       = 17.955 A
USER  
USER    Estimated Free Energy of Binding    =   +2.03 kcal/mol  [=(1)+(2)+(3)-(4)]
USER    
USER    (1) Final Intermolecular Energy     =   -5.13 kcal/mol
USER        vdW + Hbond + desolv Energy     =   -4.67 kcal/mol
USER        Electrostatic Energy            =   -0.46 kcal/mol
USER    (2) Final Total Internal Energy     =  -14.11 kcal/mol
USER    (3) Torsional Free Energy           =   +7.16 kcal/mol
USER    (4) Unbound System's Energy  [=(2)] =  -14.11 kcal/mol
USER    
USER    
USER  
USER    DPF = D:/Protein_go_brrr/autodock/final/mut_K82N/IHP/dock.dpf
USER    NEWDPF move	IHP_ideal_opt.pdbqt
USER    NEWDPF about	0.035000 0.082000 -0.065000
USER    NEWDPF tran0	-3.334948 3.413988 18.691060
USER    NEWDPF axisangle0	0.633814 -0.679870 0.368858 176.433801
USER    NEWDPF quaternion0	0.633507 -0.679541 0.368679 0.031116
USER    NEWDPF dihe0	-12.19 -12.18 153.76 -19.05 73.54 126.99 -138.45 -97.05 86.54 -13.76 11.68 161.33 174.55 169.11 -91.57 38.75 35.64 147.91 63.73 17.56 -16.13 7.41 -17.62 -12.33 
USER  
USER                              x       y       z    vdW   Elec        q     RMS 
ATOM      1  C   UNL d   1      -2.433   2.007  19.129 -0.21 -0.03    +0.194    17.955
ATOM      2  C   UNL d   1      -1.703   3.341  19.301 -0.12 -0.05    +0.194    17.955
ATOM      3  C   UNL d   1      -1.936   4.273  18.110 -0.14 -0.05    +0.194    17.955
ATOM      4  C   UNL d   1      -3.414   4.462  17.775 -0.11 -0.05    +0.194    17.955
ATOM      5  C   UNL d   1      -4.206   3.163  17.707 -0.07 -0.06    +0.194    17.955
ATOM      6  C   UNL d   1      -3.926   2.205  18.866 -0.18 -0.03    +0.194    17.955
ATOM      7  O   UNL d   1      -2.308   1.270  20.347 -0.14 +0.01    -0.278    17.955
ATOM      8  P   UNL d   1      -0.842   0.921  20.877 -0.13 -0.14    +0.473    17.955
ATOM      9  O   UNL d   1      -0.650  -0.487  21.321 -0.60 -0.11    -0.228    17.955
ATOM     10  O   UNL d   1       0.114   1.334  19.668 -0.24 +0.24    -0.303    17.955
ATOM     11  H   UNL d   1       1.018   1.010  19.841 -0.32 -0.47    +0.222    17.955
ATOM     12  O   UNL d   1      -0.516   2.040  21.957 -0.06 +0.12    -0.303    17.955
ATOM     13  H   UNL d   1      -0.572   2.953  21.595 +0.04 -0.07    +0.222    17.955
ATOM     14  O   UNL d   1      -2.184   3.986  20.487 -0.02 +0.05    -0.278    17.955
ATOM     15  P   UNL d   1      -1.140   4.915  21.269 +0.01 -0.09    +0.473    17.955
ATOM     16  O   UNL d   1      -1.097   4.771  22.758 -0.00 +0.04    -0.228    17.955
ATOM     17  O   UNL d   1       0.258   4.596  20.577 -0.03 +0.09    -0.303    17.955
ATOM     18  H   UNL d   1       0.226   4.779  19.618 +0.06 -0.07    +0.222    17.955
ATOM     19  O   UNL d   1      -1.435   6.383  20.731 -0.00 +0.06    -0.303    17.955
ATOM     20  H   UNL d   1      -1.035   6.533  19.855 +0.02 -0.05    +0.222    17.955
ATOM     21  O   UNL d   1      -4.456   0.935  18.489 -0.10 +0.01    -0.278    17.955
ATOM     22  P   UNL d   1      -5.617   0.272  19.358 -0.13 -0.02    +0.473    17.955
ATOM     23  O   UNL d   1      -5.333  -0.050  20.786 -0.08 -0.00    -0.228    17.955
ATOM     24  O   UNL d   1      -6.817   1.293  19.131 -0.06 +0.03    -0.303    17.955
ATOM     25  H   UNL d   1      -6.538   1.949  18.442 +0.05 -0.03    +0.222    17.955
ATOM     26  O   UNL d   1      -6.053  -0.962  18.432 -0.20 +0.03    -0.303    17.955
ATOM     27  H   UNL d   1      -6.164  -0.649  17.511 -0.22 -0.06    +0.222    17.955
ATOM     28  O   UNL d   1      -1.464   5.563  18.476 -0.04 +0.08    -0.278    17.955
ATOM     29  P   UNL d   1      -0.270   6.241  17.670 -0.09 -0.17    +0.473    17.955
ATOM     30  O   UNL d   1       0.086   5.590  16.383 -0.36 +0.08    -0.228    17.955
ATOM     31  O   UNL d   1      -0.802   7.749  17.599 -0.04 +0.12    -0.303    17.955
ATOM     32  H   UNL d   1      -1.382   7.839  16.808 +0.07 -0.12    +0.222    17.955
ATOM     33  O   UNL d   1       0.874   6.324  18.775 -0.08 +0.11    -0.303    17.955
ATOM     34  H   UNL d   1       0.464   6.547  19.646 +0.04 -0.06    +0.222    17.955
ATOM     35  O   UNL d   1      -5.578   3.541  17.797 -0.09 +0.06    -0.278    17.955
ATOM     36  P   UNL d   1      -6.552   3.339  16.550 -0.14 -0.12    +0.473    17.955
ATOM     37  O   UNL d   1      -7.076   1.950  16.359 -0.22 +0.06    -0.228    17.955
ATOM     38  O   UNL d   1      -7.678   4.429  16.835 -0.04 +0.05    -0.303    17.955
ATOM     39  H   UNL d   1      -7.343   5.069  17.499 +0.04 -0.04    +0.222    17.955
ATOM     40  O   UNL d   1      -5.709   3.962  15.355 -0.25 +0.08    -0.303    17.955
ATOM     41  H   UNL d   1      -5.440   4.889  15.543 +0.07 -0.05    +0.222    17.955
ATOM     42  O   UNL d   1      -3.471   5.059  16.476 -0.14 +0.09    -0.278    17.955
ATOM     43  P   UNL d   1      -4.245   6.443  16.296 -0.10 -0.21    +0.473    17.955
ATOM     44  O   UNL d   1      -4.556   6.880  14.906 -0.32 +0.16    -0.228    17.955
ATOM     45  O   UNL d   1      -5.526   6.249  17.220 -0.05 +0.08    -0.303    17.955
ATOM     46  H   UNL d   1      -6.077   5.501  16.915 +0.05 -0.05    +0.222    17.955
ATOM     47  O   UNL d   1      -3.369   7.467  17.164 -0.04 +0.15    -0.303    17.955
ATOM     48  H   UNL d   1      -2.821   6.964  17.801 +0.05 -0.08    +0.222    17.955
TER
ENDMDL
MODEL       12
USER    Run = 12
USER    Cluster Rank = 27
USER    Number of conformations in this cluster = 2
USER  
USER    RMSD from reference structure       = 16.181 A
USER  
USER    Estimated Free Energy of Binding    =   +2.10 kcal/mol  [=(1)+(2)+(3)-(4)]
USER    
USER    (1) Final Intermolecular Energy     =   -5.06 kcal/mol
USER        vdW + Hbond + desolv Energy     =   -4.39 kcal/mol
USER        Electrostatic Energy            =   -0.67 kcal/mol
USER    (2) Final Total Internal Energy     =  -13.25 kcal/mol
USER    (3) Torsional Free Energy           =   +7.16 kcal/mol
USER    (4) Unbound System's Energy  [=(2)] =  -13.25 kcal/mol
USER    
USER    
USER  
USER    DPF = D:/Protein_go_brrr/autodock/final/mut_K82N/IHP/dock.dpf
USER    NEWDPF move	IHP_ideal_opt.pdbqt
USER    NEWDPF about	0.035000 0.082000 -0.065000
USER    NEWDPF tran0	12.631354 7.213362 -11.911396
USER    NEWDPF axisangle0	-0.387134 0.121912 0.913928 123.675632
USER    NEWDPF quaternion0	-0.341303 0.107479 0.805733 0.471969
USER    NEWDPF dihe0	149.24 113.59 84.64 128.83 -157.54 -62.77 -87.84 69.22 132.00 33.43 159.14 147.40 -83.38 -67.33 12.19 73.54 -128.18 108.81 56.94 9.38 -65.38 128.55 147.38 -51.49 
USER  
USER                              x       y       z    vdW   Elec        q     RMS 
ATOM      1  C   UNL d   1      11.103   6.522 -12.325 -0.16 -0.04    +0.194    16.181
ATOM      2  C   UNL d   1      11.192   8.045 -12.438 -0.20 -0.01    +0.194    16.181
ATOM      3  C   UNL d   1      11.928   8.660 -11.245 -0.08 -0.01    +0.194    16.181
ATOM      4  C   UNL d   1      13.289   8.020 -10.984 -0.19 -0.02    +0.194    16.181
ATOM      5  C   UNL d   1      13.268   6.497 -10.977 -0.12 -0.03    +0.194    16.181
ATOM      6  C   UNL d   1      12.479   5.883 -12.136 -0.07 -0.04    +0.194    16.181
ATOM      7  O   UNL d   1      10.562   6.016 -13.547 -0.07 +0.07    -0.278    16.181
ATOM      8  P   UNL d   1       9.056   6.392 -13.924 -0.09 +0.04    +0.473    16.181
ATOM      9  O   UNL d   1       8.141   6.571 -12.764 -0.34 -0.05    -0.228    16.181
ATOM     10  O   UNL d   1       9.198   7.704 -14.820 -0.45 -0.21    -0.303    16.181
ATOM     11  H   UNL d   1      10.121   8.017 -14.797 +0.05 +0.06    +0.222    16.181
ATOM     12  O   UNL d   1       8.614   5.304 -14.995 -0.57 +0.13    -0.303    16.181
ATOM     13  H   UNL d   1       8.528   4.401 -14.614 -0.49 -0.50    +0.222    16.181
ATOM     14  O   UNL d   1      11.902   8.384 -13.636 -0.05 +0.00    -0.278    16.181
ATOM     15  P   UNL d   1      11.357   9.646 -14.458 -0.04 +0.05    +0.473    16.181
ATOM     16  O   UNL d   1      10.017  10.180 -14.060 -0.16 -0.07    -0.228    16.181
ATOM     17  O   UNL d   1      12.518  10.728 -14.321 -0.02 -0.01    -0.303    16.181
ATOM     18  H   UNL d   1      13.176  10.456 -13.653 +0.03 -0.00    +0.222    16.181
ATOM     19  O   UNL d   1      11.498   9.217 -15.983 -0.01 -0.02    -0.303    16.181
ATOM     20  H   UNL d   1      10.870   8.509 -16.218 +0.03 +0.03    +0.222    16.181
ATOM     21  O   UNL d   1      12.262   4.513 -11.807 -0.05 +0.09    -0.278    16.181
ATOM     22  P   UNL d   1      11.728   3.506 -12.923 -0.03 -0.26    +0.473    16.181
ATOM     23  O   UNL d   1      12.309   3.599 -14.294 -0.02 +0.09    -0.228    16.181
ATOM     24  O   UNL d   1      11.922   2.097 -12.210 -0.09 +0.18    -0.303    16.181
ATOM     25  H   UNL d   1      11.109   1.553 -12.374 +0.06 -0.18    +0.222    16.181
ATOM     26  O   UNL d   1      10.142   3.715 -12.817 -0.02 +0.37    -0.303    16.181
ATOM     27  H   UNL d   1       9.793   3.982 -13.692 -0.42 -0.38    +0.222    16.181
ATOM     28  O   UNL d   1      12.205  10.017 -11.566 -0.23 -0.00    -0.278    16.181
ATOM     29  P   UNL d   1      13.707  10.547 -11.594 -0.10 -0.01    +0.473    16.181
ATOM     30  O   UNL d   1      14.673   9.697 -12.335 -0.03 +0.01    -0.228    16.181
ATOM     31  O   UNL d   1      13.469  12.030 -12.148 -0.05 +0.00    -0.303    16.181
ATOM     32  H   UNL d   1      12.737  12.005 -12.807 +0.04 +0.00    +0.222    16.181
ATOM     33  O   UNL d   1      14.002  10.793 -10.048 -0.14 +0.01    -0.303    16.181
ATOM     34  H   UNL d   1      14.842  10.332  -9.805 +0.04 -0.01    +0.222    16.181
ATOM     35  O   UNL d   1      14.626   6.090 -11.132 -0.02 +0.04    -0.278    16.181
ATOM     36  P   UNL d   1      15.291   6.039 -12.581 +0.00 -0.05    +0.473    16.181
ATOM     37  O   UNL d   1      15.037   4.790 -13.363 -0.00 +0.03    -0.228    16.181
ATOM     38  O   UNL d   1      14.711   7.361 -13.252 -0.01 +0.03    -0.303    16.181
ATOM     39  H   UNL d   1      15.016   8.142 -12.741 +0.02 -0.02    +0.222    16.181
ATOM     40  O   UNL d   1      16.808   6.401 -12.271 -0.00 +0.03    -0.303    16.181
ATOM     41  H   UNL d   1      16.932   6.685 -11.338 +0.01 -0.02    +0.222    16.181
ATOM     42  O   UNL d   1      13.702   8.441  -9.680 -0.18 +0.02    -0.278    16.181
ATOM     43  P   UNL d   1      15.238   8.299  -9.273 -0.08 -0.03    +0.473    16.181
ATOM     44  O   UNL d   1      15.759   9.219  -8.224 -0.08 +0.01    -0.228    16.181
ATOM     45  O   UNL d   1      15.360   6.756  -8.904 -0.04 +0.03    -0.303    16.181
ATOM     46  H   UNL d   1      15.537   6.211  -9.696 +0.03 -0.02    +0.222    16.181
ATOM     47  O   UNL d   1      15.997   8.357 -10.683 -0.02 +0.02    -0.303    16.181
ATOM     48  H   UNL d   1      15.437   7.936 -11.369 +0.02 -0.02    +0.222    16.181
TER
ENDMDL
MODEL       63
USER    Run = 63
USER    Cluster Rank = 28
USER    Number of conformations in this cluster = 1
USER  
USER    RMSD from reference structure       = 11.411 A
USER  
USER    Estimated Free Energy of Binding    =   +2.11 kcal/mol  [=(1)+(2)+(3)-(4)]
USER    
USER    (1) Final Intermolecular Energy     =   -5.05 kcal/mol
USER        vdW + Hbond + desolv Energy     =   -4.96 kcal/mol
USER        Electrostatic Energy            =   -0.10 kcal/mol
USER    (2) Final Total Internal Energy     =  -13.56 kcal/mol
USER    (3) Torsional Free Energy           =   +7.16 kcal/mol
USER    (4) Unbound System's Energy  [=(2)] =  -13.56 kcal/mol
USER    
USER    
USER  
USER    DPF = D:/Protein_go_brrr/autodock/final/mut_K82N/IHP/dock.dpf
USER    NEWDPF move	IHP_ideal_opt.pdbqt
USER    NEWDPF about	0.035000 0.082000 -0.065000
USER    NEWDPF tran0	10.138756 -12.197387 -1.904639
USER    NEWDPF axisangle0	0.857760 0.205076 -0.471372 104.971787
USER    NEWDPF quaternion0	0.680378 0.162667 -0.373894 0.608957
USER    NEWDPF dihe0	78.40 45.38 40.48 19.51 -12.31 150.05 7.17 -129.53 73.56 -39.10 106.91 -40.79 172.51 -179.61 -179.52 -102.66 -179.90 32.52 42.87 -2.26 173.37 31.75 21.59 -167.73 
USER  
USER                              x       y       z    vdW   Elec        q     RMS 
ATOM      1  C   UNL d   1      10.624 -10.608  -1.433 -0.06 +0.01    +0.194    11.411
ATOM      2  C   UNL d   1      10.240 -11.548  -0.289 -0.10 +0.02    +0.194    11.411
ATOM      3  C   UNL d   1       8.979 -12.352  -0.615 -0.12 +0.03    +0.194    11.411
ATOM      4  C   UNL d   1       9.058 -13.077  -1.957 -0.05 +0.02    +0.194    11.411
ATOM      5  C   UNL d   1       9.548 -12.205  -3.106 -0.04 +0.02    +0.194    11.411
ATOM      6  C   UNL d   1      10.772 -11.354  -2.760 -0.02 +0.01    +0.194    11.411
ATOM      7  O   UNL d   1      11.894 -10.028  -1.126 -0.02 -0.01    -0.278    11.411
ATOM      8  P   UNL d   1      11.941  -8.804  -0.101 -0.03 +0.01    +0.473    11.411
ATOM      9  O   UNL d   1      12.819  -7.673  -0.509 -0.03 -0.00    -0.228    11.411
ATOM     10  O   UNL d   1      10.412  -8.382   0.069 -0.16 -0.00    -0.303    11.411
ATOM     11  H   UNL d   1      10.135  -7.842  -0.694 +0.10 +0.01    +0.222    11.411
ATOM     12  O   UNL d   1      12.265  -9.459   1.310 -0.05 -0.02    -0.303    11.411
ATOM     13  H   UNL d   1      12.368 -10.436   1.266 +0.05 +0.02    +0.222    11.411
ATOM     14  O   UNL d   1      11.317 -12.464  -0.056 -0.02 -0.03    -0.278    11.411
ATOM     15  P   UNL d   1      11.822 -12.604   1.457 -0.05 +0.08    +0.473    11.411
ATOM     16  O   UNL d   1      13.275 -12.350   1.708 -0.02 -0.02    -0.228    11.411
ATOM     17  O   UNL d   1      10.873 -11.619   2.275 -0.09 -0.08    -0.303    11.411
ATOM     18  H   UNL d   1      10.904 -10.716   1.907 +0.07 +0.04    +0.222    11.411
ATOM     19  O   UNL d   1      11.284 -14.027   1.924 -0.07 -0.08    -0.303    11.411
ATOM     20  H   UNL d   1      10.382 -14.197   1.595 +0.07 +0.06    +0.222    11.411
ATOM     21  O   UNL d   1      10.892 -10.369  -3.783 -0.03 -0.01    -0.278    11.411
ATOM     22  P   UNL d   1       9.835  -9.177  -3.863 -0.08 +0.04    +0.473    11.411
ATOM     23  O   UNL d   1       9.519  -8.604  -5.203 -0.67 -0.01    -0.228    11.411
ATOM     24  O   UNL d   1       8.588  -9.797  -3.092 -0.24 -0.04    -0.303    11.411
ATOM     25  H   UNL d   1       8.121 -10.416  -3.708 +0.07 +0.05    +0.222    11.411
ATOM     26  O   UNL d   1      10.418  -8.151  -2.779 -0.07 -0.01    -0.303    11.411
ATOM     27  H   UNL d   1      10.964  -8.642  -2.132 +0.05 +0.01    +0.222    11.411
ATOM     28  O   UNL d   1       8.861 -13.378   0.362 -0.13 -0.05    -0.278    11.411
ATOM     29  P   UNL d   1       7.429 -13.796   0.919 -0.18 +0.16    +0.473    11.411
ATOM     30  O   UNL d   1       7.300 -13.821   2.399 -0.56 -0.06    -0.228    11.411
ATOM     31  O   UNL d   1       6.506 -12.756   0.127 -0.40 -0.08    -0.303    11.411
ATOM     32  H   UNL d   1       6.638 -12.892  -0.839 +0.12 +0.05    +0.222    11.411
ATOM     33  O   UNL d   1       7.157 -15.164   0.150 -0.81 -0.14    -0.303    11.411
ATOM     34  H   UNL d   1       6.993 -14.968  -0.805 +0.01 +0.05    +0.222    11.411
ATOM     35  O   UNL d   1       9.942 -13.108  -4.137 -0.01 -0.02    -0.278    11.411
ATOM     36  P   UNL d   1       9.881 -12.659  -5.666 -0.02 +0.03    +0.473    11.411
ATOM     37  O   UNL d   1       9.298 -13.663  -6.610 -0.01 -0.01    -0.228    11.411
ATOM     38  O   UNL d   1       9.063 -11.296  -5.573 -0.19 -0.04    -0.303    11.411
ATOM     39  H   UNL d   1       8.883 -11.093  -4.630 +0.03 +0.04    +0.222    11.411
ATOM     40  O   UNL d   1      11.376 -12.191  -5.943 -0.00 -0.00    -0.303    11.411
ATOM     41  H   UNL d   1      11.538 -11.279  -5.613 +0.01 +0.00    +0.222    11.411
ATOM     42  O   UNL d   1       7.728 -13.493  -2.282 -0.08 -0.05    -0.278    11.411
ATOM     43  P   UNL d   1       6.726 -12.436  -2.933 -0.14 +0.13    +0.473    11.411
ATOM     44  O   UNL d   1       6.885 -12.143  -4.385 -0.27 -0.09    -0.228    11.411
ATOM     45  O   UNL d   1       5.299 -13.020  -2.540 -0.22 -0.13    -0.303    11.411
ATOM     46  H   UNL d   1       5.319 -13.456  -1.664 -0.31 +0.05    +0.222    11.411
ATOM     47  O   UNL d   1       6.842 -11.172  -1.955 -0.26 -0.05    -0.303    11.411
ATOM     48  H   UNL d   1       6.869 -10.352  -2.490 +0.10 +0.03    +0.222    11.411
TER
ENDMDL
MODEL       19
USER    Run = 19
USER    Cluster Rank = 29
USER    Number of conformations in this cluster = 1
USER  
USER    RMSD from reference structure       = 19.632 A
USER  
USER    Estimated Free Energy of Binding    =   +2.14 kcal/mol  [=(1)+(2)+(3)-(4)]
USER    
USER    (1) Final Intermolecular Energy     =   -5.02 kcal/mol
USER        vdW + Hbond + desolv Energy     =   -4.79 kcal/mol
USER        Electrostatic Energy            =   -0.23 kcal/mol
USER    (2) Final Total Internal Energy     =  -14.79 kcal/mol
USER    (3) Torsional Free Energy           =   +7.16 kcal/mol
USER    (4) Unbound System's Energy  [=(2)] =  -14.79 kcal/mol
USER    
USER    
USER  
USER    DPF = D:/Protein_go_brrr/autodock/final/mut_K82N/IHP/dock.dpf
USER    NEWDPF move	IHP_ideal_opt.pdbqt
USER    NEWDPF about	0.035000 0.082000 -0.065000
USER    NEWDPF tran0	0.643329 19.999863 -12.979954
USER    NEWDPF axisangle0	0.703071 -0.693047 0.159303 87.771453
USER    NEWDPF quaternion0	0.487384 -0.480436 0.110432 0.720724
USER    NEWDPF dihe0	23.73 119.90 -172.35 -21.40 104.63 142.75 -18.53 -57.73 -172.85 -32.31 76.99 177.06 -37.28 173.67 176.65 -51.22 97.08 150.74 -167.90 18.55 -9.54 2.81 169.18 -2.67 
USER  
USER                              x       y       z    vdW   Elec        q     RMS 
ATOM      1  C   UNL d   1       2.195  19.241 -12.945 -0.03 -0.05    +0.194    19.632
ATOM      2  C   UNL d   1       1.507  19.402 -11.588 -0.06 -0.05    +0.194    19.632
ATOM      3  C   UNL d   1       0.862  20.781 -11.440 -0.04 -0.05    +0.194    19.632
ATOM      4  C   UNL d   1      -0.061  21.141 -12.601 -0.02 -0.05    +0.194    19.632
ATOM      5  C   UNL d   1       0.544  20.888 -13.976 -0.01 -0.05    +0.194    19.632
ATOM      6  C   UNL d   1       1.243  19.533 -14.105 -0.03 -0.06    +0.194    19.632
ATOM      7  O   UNL d   1       2.617  17.881 -13.072 -0.05 +0.08    -0.278    19.632
ATOM      8  P   UNL d   1       1.500  16.752 -13.246 -0.16 -0.25    +0.473    19.632
ATOM      9  O   UNL d   1       0.143  17.256 -13.591 -0.01 +0.16    -0.228    19.632
ATOM     10  O   UNL d   1       2.107  15.775 -14.352 -0.20 +0.22    -0.303    19.632
ATOM     11  H   UNL d   1       1.422  15.564 -15.013 -0.48 -0.38    +0.222    19.632
ATOM     12  O   UNL d   1       1.599  15.868 -11.930 -0.30 +0.11    -0.303    19.632
ATOM     13  H   UNL d   1       1.215  16.310 -11.139 +0.13 -0.07    +0.222    19.632
ATOM     14  O   UNL d   1       0.485  18.404 -11.461 -0.11 +0.08    -0.278    19.632
ATOM     15  P   UNL d   1       0.162  17.895  -9.978 -0.26 -0.14    +0.473    19.632
ATOM     16  O   UNL d   1       0.116  16.413  -9.771 -0.48 +0.07    -0.228    19.632
ATOM     17  O   UNL d   1       1.262  18.610  -9.074 -0.28 +0.10    -0.303    19.632
ATOM     18  H   UNL d   1       0.934  19.463  -8.730 +0.11 -0.07    +0.222    19.632
ATOM     19  O   UNL d   1      -1.154  18.687  -9.565 -0.30 +0.13    -0.303    19.632
ATOM     20  H   UNL d   1      -0.951  19.590  -9.260 -0.15 -0.11    +0.222    19.632
ATOM     21  O   UNL d   1       2.033  19.588 -15.291 -0.01 +0.08    -0.278    19.632
ATOM     22  P   UNL d   1       1.639  18.688 -16.547 -0.03 -0.21    +0.473    19.632
ATOM     23  O   UNL d   1       2.721  18.282 -17.491 -0.01 +0.07    -0.228    19.632
ATOM     24  O   UNL d   1       0.871  17.479 -15.853 -0.09 +0.32    -0.303    19.632
ATOM     25  H   UNL d   1       0.328  17.845 -15.110 +0.03 -0.20    +0.222    19.632
ATOM     26  O   UNL d   1       0.430  19.527 -17.183 -0.01 +0.12    -0.303    19.632
ATOM     27  H   UNL d   1      -0.050  19.993 -16.468 +0.02 -0.08    +0.222    19.632
ATOM     28  O   UNL d   1       0.024  20.741 -10.291 -0.11 +0.08    -0.278    19.632
ATOM     29  P   UNL d   1       0.377  21.615  -9.007 -0.23 -0.16    +0.473    19.632
ATOM     30  O   UNL d   1       1.467  21.083  -8.149 -0.57 +0.07    -0.228    19.632
ATOM     31  O   UNL d   1       0.627  23.037  -9.698 -0.08 +0.10    -0.303    19.632
ATOM     32  H   UNL d   1       0.028  23.118 -10.476 +0.05 -0.06    +0.222    19.632
ATOM     33  O   UNL d   1      -1.050  21.801  -8.327 -0.58 +0.13    -0.303    19.632
ATOM     34  H   UNL d   1      -1.726  21.318  -8.862 -0.22 -0.12    +0.222    19.632
ATOM     35  O   UNL d   1      -0.554  20.883 -14.887 -0.01 +0.07    -0.278    19.632
ATOM     36  P   UNL d   1      -1.731  19.819 -14.722 -0.06 -0.18    +0.473    19.632
ATOM     37  O   UNL d   1      -3.108  20.332 -15.002 -0.04 +0.07    -0.228    19.632
ATOM     38  O   UNL d   1      -1.256  18.653 -15.696 -0.12 +0.23    -0.303    19.632
ATOM     39  H   UNL d   1      -1.097  17.840 -15.170 +0.04 -0.24    +0.222    19.632
ATOM     40  O   UNL d   1      -1.461  19.236 -13.267 -0.12 +0.11    -0.303    19.632
ATOM     41  H   UNL d   1      -0.685  18.633 -13.255 +0.06 -0.09    +0.222    19.632
ATOM     42  O   UNL d   1      -0.318  22.547 -12.507 -0.00 +0.05    -0.278    19.632
ATOM     43  P   UNL d   1      -1.799  23.040 -12.178 +0.01 -0.09    +0.473    19.632
ATOM     44  O   UNL d   1      -2.123  24.468 -12.452 -0.00 +0.03    -0.228    19.632
ATOM     45  O   UNL d   1      -2.698  22.003 -12.983 -0.01 +0.06    -0.303    19.632
ATOM     46  H   UNL d   1      -2.153  21.311 -13.408 +0.03 -0.05    +0.222    19.632
ATOM     47  O   UNL d   1      -2.019  22.558 -10.666 -0.07 +0.07    -0.303    19.632
ATOM     48  H   UNL d   1      -1.236  22.047 -10.373 +0.07 -0.06    +0.222    19.632
TER
ENDMDL
MODEL       46
USER    Run = 46
USER    Cluster Rank = 30
USER    Number of conformations in this cluster = 1
USER  
USER    RMSD from reference structure       = 20.295 A
USER  
USER    Estimated Free Energy of Binding    =   +2.29 kcal/mol  [=(1)+(2)+(3)-(4)]
USER    
USER    (1) Final Intermolecular Energy     =   -4.87 kcal/mol
USER        vdW + Hbond + desolv Energy     =   -4.82 kcal/mol
USER        Electrostatic Energy            =   -0.06 kcal/mol
USER    (2) Final Total Internal Energy     =  -13.00 kcal/mol
USER    (3) Torsional Free Energy           =   +7.16 kcal/mol
USER    (4) Unbound System's Energy  [=(2)] =  -13.00 kcal/mol
USER    
USER    
USER  
USER    DPF = D:/Protein_go_brrr/autodock/final/mut_K82N/IHP/dock.dpf
USER    NEWDPF move	IHP_ideal_opt.pdbqt
USER    NEWDPF about	0.035000 0.082000 -0.065000
USER    NEWDPF tran0	-10.154278 20.692109 -6.339101
USER    NEWDPF axisangle0	-0.937702 0.108047 0.330214 -104.356260
USER    NEWDPF quaternion0	-0.740710 0.085349 0.260843 -0.613209
USER    NEWDPF dihe0	-142.21 -26.87 179.78 91.25 15.31 45.47 -23.45 -137.00 68.70 130.98 131.12 112.33 -149.30 -29.08 -26.64 147.37 -53.07 58.97 42.22 -29.10 2.56 -42.45 -17.13 -21.15 
USER  
USER                              x       y       z    vdW   Elec        q     RMS 
ATOM      1  C   UNL d   1      -8.917  21.896  -6.276 -0.09 +0.05    +0.194    20.295
ATOM      2  C   UNL d   1      -9.514  21.490  -4.927 -0.08 +0.05    +0.194    20.295
ATOM      3  C   UNL d   1     -11.037  21.363  -4.997 -0.05 +0.06    +0.194    20.295
ATOM      4  C   UNL d   1     -11.514  20.462  -6.134 -0.07 +0.13    +0.194    20.295
ATOM      5  C   UNL d   1     -10.857  20.757  -7.476 -0.07 +0.14    +0.194    20.295
ATOM      6  C   UNL d   1      -9.341  20.945  -7.396 -0.15 +0.11    +0.194    20.295
ATOM      7  O   UNL d   1      -7.493  21.824  -6.173 -0.20 -0.07    -0.278    20.295
ATOM      8  P   UNL d   1      -6.720  23.038  -5.480 -0.07 +0.05    +0.473    20.295
ATOM      9  O   UNL d   1      -6.141  24.037  -6.419 -0.17 -0.00    -0.228    20.295
ATOM     10  O   UNL d   1      -7.797  23.664  -4.483 -0.02 -0.01    -0.303    20.295
ATOM     11  H   UNL d   1      -8.075  22.988  -3.836 +0.05 +0.01    +0.222    20.295
ATOM     12  O   UNL d   1      -5.695  22.356  -4.476 -0.71 -0.05    -0.303    20.295
ATOM     13  H   UNL d   1      -6.131  21.961  -3.687 +0.10 +0.00    +0.222    20.295
ATOM     14  O   UNL d   1      -8.968  20.224  -4.536 -0.18 -0.11    -0.278    20.295
ATOM     15  P   UNL d   1      -7.818  20.254  -3.422 -0.23 +0.06    +0.473    20.295
ATOM     16  O   UNL d   1      -7.828  21.414  -2.476 -0.13 -0.02    -0.228    20.295
ATOM     17  O   UNL d   1      -7.961  18.852  -2.680 -0.44 -0.05    -0.303    20.295
ATOM     18  H   UNL d   1      -7.485  18.148  -3.162 -0.31 -0.01    +0.222    20.295
ATOM     19  O   UNL d   1      -6.469  20.047  -4.238 -0.22 +0.02    -0.303    20.295
ATOM     20  H   UNL d   1      -6.527  20.428  -5.134 -0.32 +0.01    +0.222    20.295
ATOM     21  O   UNL d   1      -8.934  21.540  -8.626 -0.07 -0.09    -0.278    20.295
ATOM     22  P   UNL d   1      -8.301  20.631  -9.775 -0.12 +0.15    +0.473    20.295
ATOM     23  O   UNL d   1      -8.230  19.158  -9.549 -0.35 -0.13    -0.228    20.295
ATOM     24  O   UNL d   1      -9.154  21.071 -11.044 -0.02 -0.05    -0.303    20.295
ATOM     25  H   UNL d   1     -10.114  21.014 -10.806 +0.03 +0.05    +0.222    20.295
ATOM     26  O   UNL d   1      -6.904  21.370 -10.042 -0.09 -0.04    -0.303    20.295
ATOM     27  H   UNL d   1      -6.809  21.541 -11.001 +0.05 +0.01    +0.222    20.295
ATOM     28  O   UNL d   1     -11.469  20.724  -3.803 -0.04 -0.08    -0.278    20.295
ATOM     29  P   UNL d   1     -11.349  21.472  -2.402 -0.02 +0.07    +0.473    20.295
ATOM     30  O   UNL d   1     -12.625  21.655  -1.662 -0.02 -0.02    -0.228    20.295
ATOM     31  O   UNL d   1     -10.226  20.574  -1.700 -0.08 -0.06    -0.303    20.295
ATOM     32  H   UNL d   1      -9.652  20.185  -2.401 +0.08 +0.05    +0.222    20.295
ATOM     33  O   UNL d   1     -10.550  22.792  -2.795 -0.01 -0.02    -0.303    20.295
ATOM     34  H   UNL d   1      -9.593  22.569  -2.898 +0.04 +0.02    +0.222    20.295
ATOM     35  O   UNL d   1     -11.095  19.606  -8.284 -0.33 -0.42    -0.278    20.295
ATOM     36  P   UNL d   1     -12.036  19.706  -9.569 -0.03 +0.29    +0.473    20.295
ATOM     37  O   UNL d   1     -12.779  20.994  -9.726 -0.01 -0.06    -0.228    20.295
ATOM     38  O   UNL d   1     -11.011  19.394 -10.748 -0.04 -0.14    -0.303    20.295
ATOM     39  H   UNL d   1     -10.117  19.255 -10.368 +0.05 +0.13    +0.222    20.295
ATOM     40  O   UNL d   1     -12.906  18.379  -9.457 -0.13 -0.21    -0.303    20.295
ATOM     41  H   UNL d   1     -13.724  18.524  -8.931 +0.02 +0.11    +0.222    20.295
ATOM     42  O   UNL d   1     -12.917  20.700  -6.290 -0.03 -0.11    -0.278    20.295
ATOM     43  P   UNL d   1     -13.904  19.451  -6.393 -0.03 +0.20    +0.473    20.295
ATOM     44  O   UNL d   1     -14.730  19.128  -5.197 -0.01 -0.06    -0.228    20.295
ATOM     45  O   UNL d   1     -14.750  19.782  -7.699 -0.00 -0.08    -0.303    20.295
ATOM     46  H   UNL d   1     -14.174  19.891  -8.482 +0.01 +0.07    +0.222    20.295
ATOM     47  O   UNL d   1     -12.950  18.272  -6.914 -0.31 -0.35    -0.303    20.295
ATOM     48  H   UNL d   1     -12.680  18.459  -7.837 +0.02 +0.31    +0.222    20.295
TER
ENDMDL
MODEL        1
USER    Run = 1
USER    Cluster Rank = 31
USER    Number of conformations in this cluster = 1
USER  
USER    RMSD from reference structure       = 19.065 A
USER  
USER    Estimated Free Energy of Binding    =   +2.35 kcal/mol  [=(1)+(2)+(3)-(4)]
USER    
USER    (1) Final Intermolecular Energy     =   -4.81 kcal/mol
USER        vdW + Hbond + desolv Energy     =   -4.65 kcal/mol
USER        Electrostatic Energy            =   -0.16 kcal/mol
USER    (2) Final Total Internal Energy     =  -13.24 kcal/mol
USER    (3) Torsional Free Energy           =   +7.16 kcal/mol
USER    (4) Unbound System's Energy  [=(2)] =  -13.24 kcal/mol
USER    
USER    
USER  
USER    DPF = D:/Protein_go_brrr/autodock/final/mut_K82N/IHP/dock.dpf
USER    NEWDPF move	IHP_ideal_opt.pdbqt
USER    NEWDPF about	0.035000 0.082000 -0.065000
USER    NEWDPF tran0	4.153660 -7.779772 19.046528
USER    NEWDPF axisangle0	0.416333 0.908988 -0.020178 152.039792
USER    NEWDPF quaternion0	0.404001 0.882064 -0.019580 0.241585
USER    NEWDPF dihe0	-177.34 12.31 152.61 20.89 29.02 109.59 -24.38 -151.41 14.11 108.15 97.47 -168.54 35.18 34.09 -59.13 124.65 -3.03 151.82 -133.02 -28.30 -169.47 -39.99 153.67 -13.75 
USER  
USER                              x       y       z    vdW   Elec        q     RMS 
ATOM      1  C   UNL d   1       2.482  -7.345  19.067 -0.12 +0.01    +0.194    19.065
ATOM      2  C   UNL d   1       2.774  -8.847  19.065 -0.10 -0.00    +0.194    19.065
ATOM      3  C   UNL d   1       3.891  -9.205  18.082 -0.15 -0.00    +0.194    19.065
ATOM      4  C   UNL d   1       5.155  -8.371  18.278 -0.13 -0.01    +0.194    19.065
ATOM      5  C   UNL d   1       4.898  -6.875  18.400 -0.17 -0.01    +0.194    19.065
ATOM      6  C   UNL d   1       3.740  -6.519  19.336 -0.11 -0.01    +0.194    19.065
ATOM      7  O   UNL d   1       1.559  -7.072  20.124 -0.07 -0.04    -0.278    19.065
ATOM      8  P   UNL d   1       2.112  -6.385  21.456 -0.03 +0.07    +0.473    19.065
ATOM      9  O   UNL d   1       2.157  -4.898  21.427 -0.16 -0.05    -0.228    19.065
ATOM     10  O   UNL d   1       1.172  -6.963  22.608 -0.01 -0.05    -0.303    19.065
ATOM     11  H   UNL d   1       0.802  -7.821  22.328 +0.02 +0.02    +0.222    19.065
ATOM     12  O   UNL d   1       3.491  -7.115  21.755 -0.00 -0.00    -0.303    19.065
ATOM     13  H   UNL d   1       3.495  -8.060  21.480 +0.03 +0.00    +0.222    19.065
ATOM     14  O   UNL d   1       3.179  -9.245  20.381 -0.01 +0.00    -0.278    19.065
ATOM     15  P   UNL d   1       2.086 -10.014  21.263 +0.01 -0.00    +0.473    19.065
ATOM     16  O   UNL d   1       2.051 -11.505  21.140 -0.01 +0.01    -0.228    19.065
ATOM     17  O   UNL d   1       2.375  -9.524  22.751 +0.00 -0.00    -0.303    19.065
ATOM     18  H   UNL d   1       2.327  -8.551  22.817 +0.01 +0.00    +0.222    19.065
ATOM     19  O   UNL d   1       0.719  -9.267  20.941 -0.02 -0.01    -0.303    19.065
ATOM     20  H   UNL d   1       0.845  -8.303  20.860 +0.04 +0.02    +0.222    19.065
ATOM     21  O   UNL d   1       3.408  -5.156  19.082 -0.20 +0.03    -0.278    19.065
ATOM     22  P   UNL d   1       2.351  -4.798  17.942 -0.31 +0.00    +0.473    19.065
ATOM     23  O   UNL d   1       2.227  -5.723  16.779 -0.39 +0.01    -0.228    19.065
ATOM     24  O   UNL d   1       1.015  -4.606  18.787 -0.36 -0.22    -0.303    19.065
ATOM     25  H   UNL d   1       1.015  -5.274  19.519 +0.07 +0.15    +0.222    19.065
ATOM     26  O   UNL d   1       2.745  -3.283  17.597 -0.43 +0.07    -0.303    19.065
ATOM     27  H   UNL d   1       2.580  -2.721  18.381 -0.24 -0.19    +0.222    19.065
ATOM     28  O   UNL d   1       4.280 -10.547  18.347 -0.09 +0.01    -0.278    19.065
ATOM     29  P   UNL d   1       3.307 -11.754  17.981 -0.17 -0.04    +0.473    19.065
ATOM     30  O   UNL d   1       3.602 -12.449  16.701 -0.35 +0.04    -0.228    19.065
ATOM     31  O   UNL d   1       3.421 -12.621  19.321 -0.04 +0.02    -0.303    19.065
ATOM     32  H   UNL d   1       3.639 -12.017  20.068 +0.03 -0.01    +0.222    19.065
ATOM     33  O   UNL d   1       1.872 -11.079  18.119 -0.22 +0.03    -0.303    19.065
ATOM     34  H   UNL d   1       1.536 -11.224  19.037 +0.05 -0.02    +0.222    19.065
ATOM     35  O   UNL d   1       6.083  -6.324  18.971 -0.18 +0.03    -0.278    19.065
ATOM     36  P   UNL d   1       6.389  -6.509  20.525 -0.06 -0.02    +0.473    19.065
ATOM     37  O   UNL d   1       6.087  -7.862  21.085 -0.02 +0.01    -0.228    19.065
ATOM     38  O   UNL d   1       7.924  -6.094  20.607 -0.09 +0.00    -0.303    19.065
ATOM     39  H   UNL d   1       8.441  -6.650  19.986 +0.07 +0.01    +0.222    19.065
ATOM     40  O   UNL d   1       5.623  -5.273  21.171 -0.09 +0.02    -0.303    19.065
ATOM     41  H   UNL d   1       4.649  -5.354  21.068 +0.06 -0.02    +0.222    19.065
ATOM     42  O   UNL d   1       5.964  -8.565  17.113 -0.12 +0.00    -0.278    19.065
ATOM     43  P   UNL d   1       7.465  -9.074  17.293 -0.12 +0.02    +0.473    19.065
ATOM     44  O   UNL d   1       8.396  -8.889  16.144 -0.33 -0.02    -0.228    19.065
ATOM     45  O   UNL d   1       7.925  -8.341  18.628 -0.21 -0.02    -0.303    19.065
ATOM     46  H   UNL d   1       7.159  -8.110  19.191 +0.07 +0.00    +0.222    19.065
ATOM     47  O   UNL d   1       7.282 -10.585  17.798 -0.06 +0.01    -0.303    19.065
ATOM     48  H   UNL d   1       6.342 -10.845  17.702 +0.08 -0.01    +0.222    19.065
TER
ENDMDL
MODEL       86
USER    Run = 86
USER    Cluster Rank = 32
USER    Number of conformations in this cluster = 1
USER  
USER    RMSD from reference structure       = 12.583 A
USER  
USER    Estimated Free Energy of Binding    =   +2.42 kcal/mol  [=(1)+(2)+(3)-(4)]
USER    
USER    (1) Final Intermolecular Energy     =   -4.74 kcal/mol
USER        vdW + Hbond + desolv Energy     =   -4.67 kcal/mol
USER        Electrostatic Energy            =   -0.07 kcal/mol
USER    (2) Final Total Internal Energy     =  -15.21 kcal/mol
USER    (3) Torsional Free Energy           =   +7.16 kcal/mol
USER    (4) Unbound System's Energy  [=(2)] =  -15.21 kcal/mol
USER    
USER    
USER  
USER    DPF = D:/Protein_go_brrr/autodock/final/mut_K82N/IHP/dock.dpf
USER    NEWDPF move	IHP_ideal_opt.pdbqt
USER    NEWDPF about	0.035000 0.082000 -0.065000
USER    NEWDPF tran0	-9.905894 -0.383524 11.693562
USER    NEWDPF axisangle0	0.379875 0.521043 0.764336 -139.789664
USER    NEWDPF quaternion0	0.356726 0.489292 0.717760 -0.343744
USER    NEWDPF dihe0	131.76 98.11 72.04 71.85 26.49 -138.27 -147.90 31.60 126.86 18.18 136.04 128.59 180.00 128.25 -35.14 42.65 47.00 68.09 7.37 -12.67 168.22 165.23 -4.43 -26.78 
USER  
USER                              x       y       z    vdW   Elec        q     RMS 
ATOM      1  C   UNL d   1      -9.745   1.287  11.283 -0.17 -0.04    +0.194    12.583
ATOM      2  C   UNL d   1      -9.306   0.296  10.204 -0.03 -0.03    +0.194    12.583
ATOM      3  C   UNL d   1      -8.495  -0.861  10.792 -0.23 -0.05    +0.194    12.583
ATOM      4  C   UNL d   1      -9.194  -1.552  11.960 -0.14 -0.04    +0.194    12.583
ATOM      5  C   UNL d   1      -9.749  -0.593  13.006 -0.09 -0.04    +0.194    12.583
ATOM      6  C   UNL d   1     -10.508   0.597  12.415 -0.06 -0.03    +0.194    12.583
ATOM      7  O   UNL d   1     -10.633   2.233  10.685 -0.10 +0.05    -0.278    12.583
ATOM      8  P   UNL d   1     -10.175   3.762  10.609 -0.25 -0.14    +0.473    12.583
ATOM      9  O   UNL d   1     -11.158   4.743  11.145 -0.15 +0.08    -0.228    12.583
ATOM     10  O   UNL d   1      -8.779   3.786  11.380 -0.57 +0.03    -0.303    12.583
ATOM     11  H   UNL d   1      -8.749   3.055  12.025 +0.05 -0.03    +0.222    12.583
ATOM     12  O   UNL d   1      -9.726   3.983   9.101 -0.40 +0.19    -0.303    12.583
ATOM     13  H   UNL d   1     -10.412   3.710   8.450 -0.10 -0.16    +0.222    12.583
ATOM     14  O   UNL d   1     -10.470  -0.242   9.563 -0.07 +0.04    -0.278    12.583
ATOM     15  P   UNL d   1     -10.614   0.034   7.992 -0.06 -0.05    +0.473    12.583
ATOM     16  O   UNL d   1     -11.869  -0.451   7.337 -0.04 +0.03    -0.228    12.583
ATOM     17  O   UNL d   1     -10.415   1.609   7.856 -0.11 +0.04    -0.303    12.583
ATOM     18  H   UNL d   1     -10.629   2.064   8.693 +0.08 -0.04    +0.222    12.583
ATOM     19  O   UNL d   1      -9.258  -0.514   7.367 -0.70 -0.01    -0.303    12.583
ATOM     20  H   UNL d   1      -8.754  -1.046   8.010 +0.12 +0.01    +0.222    12.583
ATOM     21  O   UNL d   1     -10.656   1.552  13.462 -0.02 +0.05    -0.278    12.583
ATOM     22  P   UNL d   1      -9.367   2.272  14.067 -0.09 -0.10    +0.473    12.583
ATOM     23  O   UNL d   1      -8.025   1.833  13.587 -0.20 +0.09    -0.228    12.583
ATOM     24  O   UNL d   1      -9.699   3.807  13.808 -0.09 +0.05    -0.303    12.583
ATOM     25  H   UNL d   1     -10.125   3.884  12.917 +0.07 -0.04    +0.222    12.583
ATOM     26  O   UNL d   1      -9.628   2.137  15.643 -0.02 +0.05    -0.303    12.583
ATOM     27  H   UNL d   1      -9.885   1.215  15.849 +0.04 -0.04    +0.222    12.583
ATOM     28  O   UNL d   1      -8.374  -1.856   9.783 -0.20 +0.05    -0.278    12.583
ATOM     29  P   UNL d   1      -9.535  -2.924   9.564 -0.07 -0.06    +0.473    12.583
ATOM     30  O   UNL d   1     -10.845  -2.582  10.174 -0.02 +0.03    -0.228    12.583
ATOM     31  O   UNL d   1      -9.490  -3.062   7.970 -0.14 +0.02    -0.303    12.583
ATOM     32  H   UNL d   1     -10.176  -2.469   7.584 +0.08 -0.02    +0.222    12.583
ATOM     33  O   UNL d   1      -8.844  -4.273  10.052 -0.09 +0.04    -0.303    12.583
ATOM     34  H   UNL d   1      -9.022  -4.394  11.017 +0.07 -0.03    +0.222    12.583
ATOM     35  O   UNL d   1     -10.687  -1.352  13.768 -0.02 +0.05    -0.278    12.583
ATOM     36  P   UNL d   1     -10.562  -1.423  15.356 -0.03 -0.08    +0.473    12.583
ATOM     37  O   UNL d   1     -11.329  -0.383  16.110 -0.01 +0.03    -0.228    12.583
ATOM     38  O   UNL d   1     -11.023  -2.919  15.653 -0.01 +0.04    -0.303    12.583
ATOM     39  H   UNL d   1     -10.452  -3.537  15.147 +0.02 -0.03    +0.222    12.583
ATOM     40  O   UNL d   1      -8.987  -1.458  15.573 +0.02 +0.12    -0.303    12.583
ATOM     41  H   UNL d   1      -8.517  -1.794  14.778 -0.37 -0.12    +0.222    12.583
ATOM     42  O   UNL d   1      -8.210  -2.362  12.612 -0.21 +0.07    -0.278    12.583
ATOM     43  P   UNL d   1      -8.612  -3.829  13.091 -0.01 -0.07    +0.473    12.583
ATOM     44  O   UNL d   1      -7.947  -4.978  12.415 -0.18 +0.02    -0.228    12.583
ATOM     45  O   UNL d   1      -8.362  -3.764  14.661 -0.01 +0.06    -0.303    12.583
ATOM     46  H   UNL d   1      -8.949  -3.110  15.091 -0.15 -0.06    +0.222    12.583
ATOM     47  O   UNL d   1     -10.213  -3.813  13.015 -0.02 +0.04    -0.303    12.583
ATOM     48  H   UNL d   1     -10.552  -3.041  13.513 +0.03 -0.03    +0.222    12.583
TER
ENDMDL
MODEL       57
USER    Run = 57
USER    Cluster Rank = 33
USER    Number of conformations in this cluster = 1
USER  
USER    RMSD from reference structure       = 11.551 A
USER  
USER    Estimated Free Energy of Binding    =   +2.42 kcal/mol  [=(1)+(2)+(3)-(4)]
USER    
USER    (1) Final Intermolecular Energy     =   -4.74 kcal/mol
USER        vdW + Hbond + desolv Energy     =   -4.50 kcal/mol
USER        Electrostatic Energy            =   -0.23 kcal/mol
USER    (2) Final Total Internal Energy     =  -13.09 kcal/mol
USER    (3) Torsional Free Energy           =   +7.16 kcal/mol
USER    (4) Unbound System's Energy  [=(2)] =  -13.09 kcal/mol
USER    
USER    
USER  
USER    DPF = D:/Protein_go_brrr/autodock/final/mut_K82N/IHP/dock.dpf
USER    NEWDPF move	IHP_ideal_opt.pdbqt
USER    NEWDPF about	0.035000 0.082000 -0.065000
USER    NEWDPF tran0	-12.450935 7.548189 -1.049767
USER    NEWDPF axisangle0	-0.442034 -0.882281 0.161822 -117.320107
USER    NEWDPF quaternion0	-0.377540 -0.753553 0.138212 -0.520115
USER    NEWDPF dihe0	-167.44 -70.13 96.64 75.36 43.08 -3.57 -128.98 -178.19 1.11 105.31 3.99 -125.98 -128.51 99.82 -66.42 -110.93 -144.17 -10.89 47.73 -6.26 -178.08 -19.10 -45.84 163.80 
USER  
USER                              x       y       z    vdW   Elec        q     RMS 
ATOM      1  C   UNL d   1     -13.749   7.986   0.003 -0.10 +0.03    +0.194    11.551
ATOM      2  C   UNL d   1     -13.546   6.485  -0.207 -0.13 +0.04    +0.194    11.551
ATOM      3  C   UNL d   1     -13.276   6.149  -1.675 -0.15 +0.07    +0.194    11.551
ATOM      4  C   UNL d   1     -12.145   6.974  -2.283 -0.19 +0.08    +0.194    11.551
ATOM      5  C   UNL d   1     -12.245   8.468  -2.000 -0.20 +0.05    +0.194    11.551
ATOM      6  C   UNL d   1     -12.577   8.802  -0.544 -0.12 +0.03    +0.194    11.551
ATOM      7  O   UNL d   1     -13.822   8.235   1.408 -0.08 -0.06    -0.278    11.551
ATOM      8  P   UNL d   1     -15.160   7.831   2.182 -0.03 +0.11    +0.473    11.551
ATOM      9  O   UNL d   1     -16.306   8.761   1.990 -0.01 -0.03    -0.228    11.551
ATOM     10  O   UNL d   1     -15.464   6.347   1.680 -0.02 -0.06    -0.303    11.551
ATOM     11  H   UNL d   1     -14.624   5.873   1.535 +0.05 +0.05    +0.222    11.551
ATOM     12  O   UNL d   1     -14.709   7.587   3.686 -0.11 -0.17    -0.303    11.551
ATOM     13  H   UNL d   1     -14.826   6.654   3.977 +0.03 +0.15    +0.222    11.551
ATOM     14  O   UNL d   1     -12.425   6.051   0.574 -0.24 -0.05    -0.278    11.551
ATOM     15  P   UNL d   1     -12.685   4.840   1.588 -0.18 +0.10    +0.473    11.551
ATOM     16  O   UNL d   1     -11.496   4.015   1.969 -0.37 -0.03    -0.228    11.551
ATOM     17  O   UNL d   1     -13.387   5.527   2.842 -0.08 -0.14    -0.303    11.551
ATOM     18  H   UNL d   1     -13.503   6.486   2.698 +0.06 +0.10    +0.222    11.551
ATOM     19  O   UNL d   1     -13.898   4.036   0.944 -0.06 -0.05    -0.303    11.551
ATOM     20  H   UNL d   1     -14.040   4.284   0.012 +0.05 +0.04    +0.222    11.551
ATOM     21  O   UNL d   1     -12.970  10.172  -0.515 +0.00 -0.05    -0.278    11.551
ATOM     22  P   UNL d   1     -14.448  10.581  -0.956 -0.02 +0.06    +0.473    11.551
ATOM     23  O   UNL d   1     -15.082   9.829  -2.078 -0.01 -0.03    -0.228    11.551
ATOM     24  O   UNL d   1     -15.233  10.505   0.426 -0.01 -0.03    -0.303    11.551
ATOM     25  H   UNL d   1     -14.733   9.901   1.032 +0.03 +0.03    +0.222    11.551
ATOM     26  O   UNL d   1     -14.299  12.163  -1.166 -0.03 -0.04    -0.303    11.551
ATOM     27  H   UNL d   1     -15.169  12.539  -1.408 +0.02 +0.02    +0.222    11.551
ATOM     28  O   UNL d   1     -12.831   4.800  -1.731 -0.11 -0.14    -0.278    11.551
ATOM     29  P   UNL d   1     -13.875   3.616  -1.941 -0.08 +0.19    +0.473    11.551
ATOM     30  O   UNL d   1     -13.666   2.418  -1.087 -0.10 -0.05    -0.228    11.551
ATOM     31  O   UNL d   1     -15.247   4.416  -1.747 -0.03 -0.07    -0.303    11.551
ATOM     32  H   UNL d   1     -15.389   4.567  -0.784 +0.03 +0.04    +0.222    11.551
ATOM     33  O   UNL d   1     -13.817   3.395  -3.517 -0.06 -0.26    -0.303    11.551
ATOM     34  H   UNL d   1     -14.713   3.565  -3.899 +0.02 +0.14    +0.222    11.551
ATOM     35  O   UNL d   1     -10.950   9.001  -2.269 -0.25 -0.06    -0.278    11.551
ATOM     36  P   UNL d   1     -10.541   9.409  -3.756 -0.22 +0.14    +0.473    11.551
ATOM     37  O   UNL d   1      -9.706   8.410  -4.492 -0.75 -0.14    -0.228    11.551
ATOM     38  O   UNL d   1     -11.961   9.691  -4.419 -0.05 -0.09    -0.303    11.551
ATOM     39  H   UNL d   1     -12.448   8.844  -4.507 +0.06 +0.08    +0.222    11.551
ATOM     40  O   UNL d   1      -9.919  10.858  -3.551 -0.36 -0.06    -0.303    11.551
ATOM     41  H   UNL d   1      -9.109  10.832  -2.995 -0.23 +0.01    +0.222    11.551
ATOM     42  O   UNL d   1     -12.226   6.808  -3.702 -0.14 -0.21    -0.278    11.551
ATOM     43  P   UNL d   1     -13.616   7.090  -4.433 -0.06 +0.28    +0.473    11.551
ATOM     44  O   UNL d   1     -14.469   8.183  -3.890 -0.02 -0.06    -0.228    11.551
ATOM     45  O   UNL d   1     -13.177   7.298  -5.949 -0.12 -0.22    -0.303    11.551
ATOM     46  H   UNL d   1     -12.674   8.129  -6.064 +0.04 +0.12    +0.222    11.551
ATOM     47  O   UNL d   1     -14.300   5.641  -4.489 -0.21 -0.24    -0.303    11.551
ATOM     48  H   UNL d   1     -14.314   5.256  -3.588 +0.02 +0.14    +0.222    11.551
TER
ENDMDL
MODEL       70
USER    Run = 70
USER    Cluster Rank = 34
USER    Number of conformations in this cluster = 1
USER  
USER    RMSD from reference structure       = 11.074 A
USER  
USER    Estimated Free Energy of Binding    =   +2.44 kcal/mol  [=(1)+(2)+(3)-(4)]
USER    
USER    (1) Final Intermolecular Energy     =   -4.72 kcal/mol
USER        vdW + Hbond + desolv Energy     =   -4.45 kcal/mol
USER        Electrostatic Energy            =   -0.27 kcal/mol
USER    (2) Final Total Internal Energy     =  -13.46 kcal/mol
USER    (3) Torsional Free Energy           =   +7.16 kcal/mol
USER    (4) Unbound System's Energy  [=(2)] =  -13.46 kcal/mol
USER    
USER    
USER  
USER    DPF = D:/Protein_go_brrr/autodock/final/mut_K82N/IHP/dock.dpf
USER    NEWDPF move	IHP_ideal_opt.pdbqt
USER    NEWDPF about	0.035000 0.082000 -0.065000
USER    NEWDPF tran0	-10.127185 -0.762305 9.433192
USER    NEWDPF axisangle0	0.790091 -0.054983 0.610519 126.771154
USER    NEWDPF quaternion0	0.706374 -0.049157 0.545829 0.447984
USER    NEWDPF dihe0	-56.27 79.48 111.47 151.11 131.54 132.44 116.09 -54.85 30.57 114.28 27.27 -121.87 -30.17 83.05 -177.38 -121.44 -55.18 -13.15 -25.12 11.84 -1.76 13.23 166.33 -12.46 
USER  
USER                              x       y       z    vdW   Elec        q     RMS 
ATOM      1  C   UNL d   1      -9.355  -0.477  10.952 -0.15 -0.04    +0.194    11.074
ATOM      2  C   UNL d   1     -10.491   0.484  10.597 -0.09 -0.03    +0.194    11.074
ATOM      3  C   UNL d   1     -10.423   0.927   9.134 -0.10 -0.02    +0.194    11.074
ATOM      4  C   UNL d   1     -10.329  -0.241   8.156 -0.13 -0.02    +0.194    11.074
ATOM      5  C   UNL d   1      -9.285  -1.284   8.534 -0.16 -0.01    +0.194    11.074
ATOM      6  C   UNL d   1      -9.312  -1.682  10.011 -0.14 -0.03    +0.194    11.074
ATOM      7  O   UNL d   1      -9.587  -0.974  12.272 -0.07 +0.06    -0.278    11.074
ATOM      8  P   UNL d   1      -8.323  -1.315  13.187 -0.14 -0.17    +0.473    11.074
ATOM      9  O   UNL d   1      -7.058  -0.637  12.795 -0.36 +0.13    -0.228    11.074
ATOM     10  O   UNL d   1      -8.803  -0.944  14.663 -0.11 +0.12    -0.303    11.074
ATOM     11  H   UNL d   1      -8.400  -1.560  15.302 -0.46 -0.14    +0.222    11.074
ATOM     12  O   UNL d   1      -8.270  -2.902  13.244 -0.14 +0.07    -0.303    11.074
ATOM     13  H   UNL d   1      -8.565  -3.328  12.408 +0.08 -0.04    +0.222    11.074
ATOM     14  O   UNL d   1     -11.745  -0.174  10.817 -0.01 +0.03    -0.278    11.074
ATOM     15  P   UNL d   1     -12.937   0.729  11.389 +0.01 -0.05    +0.473    11.074
ATOM     16  O   UNL d   1     -14.293   0.507  10.795 -0.00 +0.02    -0.228    11.074
ATOM     17  O   UNL d   1     -12.902   0.469  12.960 -0.00 +0.03    -0.303    11.074
ATOM     18  H   UNL d   1     -12.059   0.054  13.229 +0.01 -0.03    +0.222    11.074
ATOM     19  O   UNL d   1     -12.385   2.218  11.299 -0.00 +0.04    -0.303    11.074
ATOM     20  H   UNL d   1     -12.621   2.639  10.452 +0.04 -0.03    +0.222    11.074
ATOM     21  O   UNL d   1      -8.095  -2.375  10.274 -0.21 +0.06    -0.278    11.074
ATOM     22  P   UNL d   1      -8.104  -3.964  10.419 -0.12 -0.08    +0.473    11.074
ATOM     23  O   UNL d   1      -7.132  -4.592  11.360 -0.30 +0.04    -0.228    11.074
ATOM     24  O   UNL d   1      -9.634  -4.252  10.749 -0.03 +0.04    -0.303    11.074
ATOM     25  H   UNL d   1     -10.173  -3.999   9.957 +0.05 -0.03    +0.222    11.074
ATOM     26  O   UNL d   1      -8.002  -4.431   8.888 -0.25 +0.04    -0.303    11.074
ATOM     27  H   UNL d   1      -8.582  -3.864   8.340 +0.10 -0.02    +0.222    11.074
ATOM     28  O   UNL d   1     -11.649   1.578   8.827 -0.07 +0.03    -0.278    11.074
ATOM     29  P   UNL d   1     -11.649   3.067   8.260 -0.15 -0.10    +0.473    11.074
ATOM     30  O   UNL d   1     -12.809   3.904   8.658 -0.17 -0.00    -0.228    11.074
ATOM     31  O   UNL d   1     -10.203   3.551   8.747 -0.29 +0.17    -0.303    11.074
ATOM     32  H   UNL d   1      -9.986   4.398   8.293 -0.35 -0.34    +0.222    11.074
ATOM     33  O   UNL d   1     -11.434   2.831   6.700 -0.20 +0.03    -0.303    11.074
ATOM     34  H   UNL d   1     -11.432   1.859   6.520 +0.09 -0.02    +0.222    11.074
ATOM     35  O   UNL d   1      -9.611  -2.450   7.779 -0.21 +0.01    -0.278    11.074
ATOM     36  P   UNL d   1     -11.000  -3.198   8.015 -0.03 -0.08    +0.473    11.074
ATOM     37  O   UNL d   1     -11.777  -2.753   9.213 -0.01 +0.03    -0.228    11.074
ATOM     38  O   UNL d   1     -11.742  -2.953   6.627 -0.04 +0.08    -0.303    11.074
ATOM     39  H   UNL d   1     -11.557  -2.039   6.321 +0.06 -0.05    +0.222    11.074
ATOM     40  O   UNL d   1     -10.576  -4.729   7.957 -0.05 +0.06    -0.303    11.074
ATOM     41  H   UNL d   1     -10.077  -5.000   8.760 +0.06 -0.04    +0.222    11.074
ATOM     42  O   UNL d   1      -9.938   0.307   6.892 -0.22 +0.02    -0.278    11.074
ATOM     43  P   UNL d   1     -10.861   0.041   5.618 -0.11 -0.05    +0.473    11.074
ATOM     44  O   UNL d   1     -12.329  -0.070   5.845 -0.05 +0.03    -0.228    11.074
ATOM     45  O   UNL d   1     -10.442   1.218   4.633 -0.15 +0.02    -0.303    11.074
ATOM     46  H   UNL d   1     -10.398   2.077   5.099 +0.12 -0.02    +0.222    11.074
ATOM     47  O   UNL d   1     -10.170  -1.227   4.924 -0.11 +0.06    -0.303    11.074
ATOM     48  H   UNL d   1     -10.128  -1.965   5.567 +0.10 -0.05    +0.222    11.074
TER
ENDMDL
MODEL       89
USER    Run = 89
USER    Cluster Rank = 35
USER    Number of conformations in this cluster = 1
USER  
USER    RMSD from reference structure       = 20.417 A
USER  
USER    Estimated Free Energy of Binding    =   +2.51 kcal/mol  [=(1)+(2)+(3)-(4)]
USER    
USER    (1) Final Intermolecular Energy     =   -4.65 kcal/mol
USER        vdW + Hbond + desolv Energy     =   -4.62 kcal/mol
USER        Electrostatic Energy            =   -0.03 kcal/mol
USER    (2) Final Total Internal Energy     =  -13.58 kcal/mol
USER    (3) Torsional Free Energy           =   +7.16 kcal/mol
USER    (4) Unbound System's Energy  [=(2)] =  -13.58 kcal/mol
USER    
USER    
USER  
USER    DPF = D:/Protein_go_brrr/autodock/final/mut_K82N/IHP/dock.dpf
USER    NEWDPF move	IHP_ideal_opt.pdbqt
USER    NEWDPF about	0.035000 0.082000 -0.065000
USER    NEWDPF tran0	6.357028 5.500391 19.872761
USER    NEWDPF axisangle0	0.621868 -0.339756 -0.705582 123.809093
USER    NEWDPF quaternion0	0.548590 -0.299720 -0.622439 0.470942
USER    NEWDPF dihe0	-179.96 14.30 59.32 47.08 74.36 99.53 41.66 -73.23 145.81 4.56 37.25 -126.28 58.97 154.38 67.04 90.12 102.84 -37.05 31.40 -10.12 -169.69 -15.85 -31.98 172.39 
USER  
USER                              x       y       z    vdW   Elec        q     RMS 
ATOM      1  C   UNL d   1       6.910   6.861  18.964 -0.16 -0.02    +0.194    20.417
ATOM      2  C   UNL d   1       7.737   6.515  20.203 -0.10 +0.01    +0.194    20.417
ATOM      3  C   UNL d   1       6.847   6.175  21.401 -0.07 +0.01    +0.194    20.417
ATOM      4  C   UNL d   1       5.799   5.109  21.089 -0.15 -0.01    +0.194    20.417
ATOM      5  C   UNL d   1       5.029   5.355  19.798 -0.23 -0.04    +0.194    20.417
ATOM      6  C   UNL d   1       5.913   5.755  18.615 -0.25 -0.05    +0.194    20.417
ATOM      7  O   UNL d   1       7.802   6.995  17.855 -0.16 +0.04    -0.278    20.417
ATOM      8  P   UNL d   1       8.403   8.440  17.534 -0.08 -0.06    +0.473    20.417
ATOM      9  O   UNL d   1       9.859   8.591  17.800 -0.03 +0.01    -0.228    20.417
ATOM     10  O   UNL d   1       8.014   8.689  16.007 -0.21 +0.08    -0.303    20.417
ATOM     11  H   UNL d   1       7.255   8.126  15.766 -0.49 -0.14    +0.222    20.417
ATOM     12  O   UNL d   1       7.449   9.461  18.290 -0.03 +0.04    -0.303    20.417
ATOM     13  H   UNL d   1       6.521   9.143  18.358 +0.05 -0.04    +0.222    20.417
ATOM     14  O   UNL d   1       8.562   5.380  19.911 -0.23 -0.07    -0.278    20.417
ATOM     15  P   UNL d   1      10.142   5.584  20.075 -0.12 +0.11    +0.473    20.417
ATOM     16  O   UNL d   1      11.021   4.762  19.184 -0.17 -0.04    -0.228    20.417
ATOM     17  O   UNL d   1      10.354   7.150  19.876 -0.02 -0.03    -0.303    20.417
ATOM     18  H   UNL d   1       9.744   7.504  19.201 +0.05 +0.01    +0.222    20.417
ATOM     19  O   UNL d   1      10.404   5.421  21.635 -0.12 -0.16    -0.303    20.417
ATOM     20  H   UNL d   1       9.572   5.440  22.144 +0.03 +0.12    +0.222    20.417
ATOM     21  O   UNL d   1       5.046   6.275  17.610 -0.19 +0.16    -0.278    20.417
ATOM     22  P   UNL d   1       4.666   7.824  17.615 -0.08 -0.21    +0.473    20.417
ATOM     23  O   UNL d   1       5.437   8.741  16.726 -0.18 +0.11    -0.228    20.417
ATOM     24  O   UNL d   1       3.101   7.777  17.330 -0.17 +0.14    -0.303    20.417
ATOM     25  H   UNL d   1       2.809   6.831  17.370 -0.45 -0.17    +0.222    20.417
ATOM     26  O   UNL d   1       4.708   8.164  19.181 -0.05 +0.07    -0.303    20.417
ATOM     27  H   UNL d   1       3.914   7.788  19.613 +0.05 -0.05    +0.222    20.417
ATOM     28  O   UNL d   1       7.678   5.605  22.404 -0.09 -0.08    -0.278    20.417
ATOM     29  P   UNL d   1       8.283   6.517  23.561 -0.05 +0.17    +0.473    20.417
ATOM     30  O   UNL d   1       7.290   7.132  24.478 -0.01 -0.05    -0.228    20.417
ATOM     31  O   UNL d   1       9.330   5.493  24.206 -0.03 -0.31    -0.303    20.417
ATOM     32  H   UNL d   1      10.208   5.634  23.783 +0.02 +0.25    +0.222    20.417
ATOM     33  O   UNL d   1       9.222   7.512  22.746 -0.02 -0.07    -0.303    20.417
ATOM     34  H   UNL d   1       9.348   7.158  21.831 +0.03 +0.05    +0.222    20.417
ATOM     35  O   UNL d   1       4.422   4.108  19.466 -0.26 +0.11    -0.278    20.417
ATOM     36  P   UNL d   1       2.894   3.834  19.834 -0.20 -0.25    +0.473    20.417
ATOM     37  O   UNL d   1       2.147   2.960  18.878 -0.39 +0.15    -0.228    20.417
ATOM     38  O   UNL d   1       3.015   3.239  21.307 -0.12 +0.19    -0.303    20.417
ATOM     39  H   UNL d   1       3.200   3.970  21.934 +0.06 -0.07    +0.222    20.417
ATOM     40  O   UNL d   1       2.329   5.303  20.061 -0.08 +0.11    -0.303    20.417
ATOM     41  H   UNL d   1       2.992   5.885  20.497 +0.05 -0.06    +0.222    20.417
ATOM     42  O   UNL d   1       4.849   5.137  22.159 -0.03 +0.02    -0.278    20.417
ATOM     43  P   UNL d   1       4.020   6.474  22.420 +0.01 -0.04    +0.473    20.417
ATOM     44  O   UNL d   1       4.137   7.563  21.411 -0.01 +0.03    -0.228    20.417
ATOM     45  O   UNL d   1       2.538   5.932  22.624 -0.00 +0.04    -0.303    20.417
ATOM     46  H   UNL d   1       2.354   5.167  22.044 +0.03 -0.05    +0.222    20.417
ATOM     47  O   UNL d   1       4.430   6.872  23.918 +0.00 +0.00    -0.303    20.417
ATOM     48  H   UNL d   1       5.407   6.901  23.989 +0.01 +0.01    +0.222    20.417
TER
ENDMDL
MODEL       51
USER    Run = 51
USER    Cluster Rank = 36
USER    Number of conformations in this cluster = 1
USER  
USER    RMSD from reference structure       = 19.483 A
USER  
USER    Estimated Free Energy of Binding    =   +2.52 kcal/mol  [=(1)+(2)+(3)-(4)]
USER    
USER    (1) Final Intermolecular Energy     =   -4.64 kcal/mol
USER        vdW + Hbond + desolv Energy     =   -4.48 kcal/mol
USER        Electrostatic Energy            =   -0.16 kcal/mol
USER    (2) Final Total Internal Energy     =  -15.18 kcal/mol
USER    (3) Torsional Free Energy           =   +7.16 kcal/mol
USER    (4) Unbound System's Energy  [=(2)] =  -15.18 kcal/mol
USER    
USER    
USER  
USER    DPF = D:/Protein_go_brrr/autodock/final/mut_K82N/IHP/dock.dpf
USER    NEWDPF move	IHP_ideal_opt.pdbqt
USER    NEWDPF about	0.035000 0.082000 -0.065000
USER    NEWDPF tran0	-0.417346 18.660076 -13.649320
USER    NEWDPF axisangle0	0.139912 -0.733472 0.665165 -136.064856
USER    NEWDPF quaternion0	0.129754 -0.680218 0.616871 -0.374082
USER    NEWDPF dihe0	98.45 1.05 151.37 -1.72 130.43 106.57 3.60 -125.91 83.81 87.92 99.39 -129.60 -24.89 78.42 -107.91 -72.58 119.60 95.97 31.16 -35.24 -8.15 14.45 -7.62 6.16 
USER  
USER                              x       y       z    vdW   Elec        q     RMS 
ATOM      1  C   UNL d   1      -0.987  18.094 -12.120 -0.14 -0.06    +0.194    19.483
ATOM      2  C   UNL d   1       0.512  17.919 -12.373 -0.18 -0.07    +0.194    19.483
ATOM      3  C   UNL d   1       0.791  17.415 -13.791 -0.11 -0.13    +0.194    19.483
ATOM      4  C   UNL d   1       0.118  18.257 -14.872 -0.11 -0.14    +0.194    19.483
ATOM      5  C   UNL d   1      -1.352  18.553 -14.602 -0.09 -0.13    +0.194    19.483
ATOM      6  C   UNL d   1      -1.640  18.998 -13.166 -0.16 -0.07    +0.194    19.483
ATOM      7  O   UNL d   1      -1.153  18.726 -10.848 -0.22 +0.09    -0.278    19.483
ATOM      8  P   UNL d   1      -1.318  17.800  -9.557 -0.27 -0.18    +0.473    19.483
ATOM      9  O   UNL d   1      -0.689  16.455  -9.660 -0.50 +0.08    -0.228    19.483
ATOM     10  O   UNL d   1      -0.721  18.683  -8.369 -0.12 +0.13    -0.303    19.483
ATOM     11  H   UNL d   1       0.211  18.898  -8.559 +0.11 -0.07    +0.222    19.483
ATOM     12  O   UNL d   1      -2.873  17.815  -9.233 -0.47 +0.15    -0.303    19.483
ATOM     13  H   UNL d   1      -3.270  18.713  -9.292 -0.45 -0.14    +0.222    19.483
ATOM     14  O   UNL d   1       1.165  19.183 -12.200 -0.04 +0.08    -0.278    19.483
ATOM     15  P   UNL d   1       1.830  19.455 -10.769 -0.04 -0.13    +0.473    19.483
ATOM     16  O   UNL d   1       3.216  20.019 -10.768 -0.05 +0.05    -0.228    19.483
ATOM     17  O   UNL d   1       0.780  20.395 -10.027 -0.11 +0.09    -0.303    19.483
ATOM     18  H   UNL d   1      -0.105  19.982 -10.000 +0.11 -0.07    +0.222    19.483
ATOM     19  O   UNL d   1       1.646  18.086  -9.980 -0.20 +0.10    -0.303    19.483
ATOM     20  H   UNL d   1       0.705  17.858  -9.868 +0.14 -0.07    +0.222    19.483
ATOM     21  O   UNL d   1      -3.051  18.901 -12.980 -0.18 +0.11    -0.278    19.483
ATOM     22  P   UNL d   1      -3.922  20.229 -12.827 -0.08 -0.13    +0.473    19.483
ATOM     23  O   UNL d   1      -3.906  20.935 -11.514 -0.15 +0.05    -0.228    19.483
ATOM     24  O   UNL d   1      -3.410  21.098 -14.059 -0.02 +0.07    -0.303    19.483
ATOM     25  H   UNL d   1      -3.659  20.626 -14.894 +0.03 -0.06    +0.222    19.483
ATOM     26  O   UNL d   1      -5.358  19.737 -13.344 -0.10 +0.07    -0.303    19.483
ATOM     27  H   UNL d   1      -5.306  19.544 -14.302 +0.05 -0.05    +0.222    19.483
ATOM     28  O   UNL d   1       2.188  17.548 -14.024 -0.08 +0.12    -0.278    19.483
ATOM     29  P   UNL d   1       3.050  16.290 -14.482 -0.10 -0.20    +0.473    19.483
ATOM     30  O   UNL d   1       3.801  15.601 -13.401 -0.18 +0.05    -0.228    19.483
ATOM     31  O   UNL d   1       1.925  15.441 -15.239 -0.07 +0.36    -0.303    19.483
ATOM     32  H   UNL d   1       1.518  16.008 -15.934 -0.38 -0.35    +0.222    19.483
ATOM     33  O   UNL d   1       3.906  16.890 -15.683 -0.02 +0.09    -0.303    19.483
ATOM     34  H   UNL d   1       3.298  17.115 -16.429 +0.03 -0.08    +0.222    19.483
ATOM     35  O   UNL d   1      -1.690  19.645 -15.455 -0.06 +0.12    -0.278    19.483
ATOM     36  P   UNL d   1      -2.884  19.507 -16.503 -0.05 -0.22    +0.473    19.483
ATOM     37  O   UNL d   1      -3.395  20.792 -17.072 -0.01 +0.06    -0.228    19.483
ATOM     38  O   UNL d   1      -2.259  18.517 -17.582 -0.07 +0.21    -0.303    19.483
ATOM     39  H   UNL d   1      -1.448  18.107 -17.210 +0.01 -0.21    +0.222    19.483
ATOM     40  O   UNL d   1      -3.927  18.602 -15.713 -0.11 +0.18    -0.303    19.483
ATOM     41  H   UNL d   1      -4.054  18.915 -14.789 +0.05 -0.10    +0.222    19.483
ATOM     42  O   UNL d   1       0.178  17.499 -16.085 -0.01 +0.36    -0.278    19.483
ATOM     43  P   UNL d   1       1.227  17.924 -17.209 -0.04 -0.30    +0.473    19.483
ATOM     44  O   UNL d   1       1.912  16.834 -17.957 -0.05 +0.13    -0.228    19.483
ATOM     45  O   UNL d   1       0.375  18.907 -18.126 -0.02 +0.13    -0.303    19.483
ATOM     46  H   UNL d   1      -0.348  19.331 -17.622 +0.02 -0.10    +0.222    19.483
ATOM     47  O   UNL d   1       2.191  18.949 -16.441 -0.01 +0.11    -0.303    19.483
ATOM     48  H   UNL d   1       2.481  18.548 -15.595 +0.02 -0.08    +0.222    19.483
TER
ENDMDL
MODEL       40
USER    Run = 40
USER    Cluster Rank = 37
USER    Number of conformations in this cluster = 1
USER  
USER    RMSD from reference structure       = 18.028 A
USER  
USER    Estimated Free Energy of Binding    =   +2.53 kcal/mol  [=(1)+(2)+(3)-(4)]
USER    
USER    (1) Final Intermolecular Energy     =   -4.63 kcal/mol
USER        vdW + Hbond + desolv Energy     =   -4.55 kcal/mol
USER        Electrostatic Energy            =   -0.08 kcal/mol
USER    (2) Final Total Internal Energy     =  -13.65 kcal/mol
USER    (3) Torsional Free Energy           =   +7.16 kcal/mol
USER    (4) Unbound System's Energy  [=(2)] =  -13.65 kcal/mol
USER    
USER    
USER  
USER    DPF = D:/Protein_go_brrr/autodock/final/mut_K82N/IHP/dock.dpf
USER    NEWDPF move	IHP_ideal_opt.pdbqt
USER    NEWDPF about	0.035000 0.082000 -0.065000
USER    NEWDPF tran0	8.570129 16.281992 -11.266083
USER    NEWDPF axisangle0	-0.581103 0.637384 0.506025 38.353563
USER    NEWDPF quaternion0	-0.190883 0.209370 0.166221 0.944510
USER    NEWDPF dihe0	95.91 153.38 114.46 97.15 110.59 73.78 -42.31 -173.19 12.94 11.40 -119.41 -132.02 -71.51 84.36 -177.83 128.87 -178.14 -4.76 -145.50 -4.00 10.89 -19.53 180.00 159.93 
USER  
USER                              x       y       z    vdW   Elec        q     RMS 
ATOM      1  C   UNL d   1       9.073  14.784 -10.568 -0.16 +0.01    +0.194    18.028
ATOM      2  C   UNL d   1       7.985  14.682 -11.638 -0.10 +0.01    +0.194    18.028
ATOM      3  C   UNL d   1       6.919  15.767 -11.468 -0.23 -0.02    +0.194    18.028
ATOM      4  C   UNL d   1       7.504  17.174 -11.372 -0.10 -0.02    +0.194    18.028
ATOM      5  C   UNL d   1       8.670  17.296 -10.399 -0.12 -0.01    +0.194    18.028
ATOM      6  C   UNL d   1       9.704  16.176 -10.528 -0.17 -0.00    +0.194    18.028
ATOM      7  O   UNL d   1      10.110  13.856 -10.896 -0.26 -0.03    -0.278    18.028
ATOM      8  P   UNL d   1      11.333  14.368 -11.786 -0.09 +0.01    +0.473    18.028
ATOM      9  O   UNL d   1      11.070  15.606 -12.569 -0.03 +0.00    -0.228    18.028
ATOM     10  O   UNL d   1      12.530  14.526 -10.743 -0.06 +0.00    -0.303    18.028
ATOM     11  H   UNL d   1      12.294  15.195 -10.074 +0.06 -0.00    +0.222    18.028
ATOM     12  O   UNL d   1      11.791  13.100 -12.627 -0.07 -0.01    -0.303    18.028
ATOM     13  H   UNL d   1      11.557  13.165 -13.581 +0.04 +0.01    +0.222    18.028
ATOM     14  O   UNL d   1       8.585  14.831 -12.931 -0.10 -0.01    -0.278    18.028
ATOM     15  P   UNL d   1       8.261  13.689 -14.006 -0.08 +0.06    +0.473    18.028
ATOM     16  O   UNL d   1       8.020  14.140 -15.413 -0.04 -0.02    -0.228    18.028
ATOM     17  O   UNL d   1       9.488  12.680 -13.882 -0.10 -0.05    -0.303    18.028
ATOM     18  H   UNL d   1       9.961  12.804 -13.037 +0.07 +0.03    +0.222    18.028
ATOM     19  O   UNL d   1       7.085  12.845 -13.346 -0.25 -0.08    -0.303    18.028
ATOM     20  H   UNL d   1       6.462  13.415 -12.859 +0.07 +0.03    +0.222    18.028
ATOM     21  O   UNL d   1      10.520  16.232  -9.360 -0.12 -0.00    -0.278    18.028
ATOM     22  P   UNL d   1      11.855  17.106  -9.367 -0.05 -0.02    +0.473    18.028
ATOM     23  O   UNL d   1      13.009  16.637  -8.546 -0.05 +0.01    -0.228    18.028
ATOM     24  O   UNL d   1      12.152  17.234 -10.925 -0.01 +0.01    -0.303    18.028
ATOM     25  H   UNL d   1      11.300  17.445 -11.385 +0.02 -0.01    +0.222    18.028
ATOM     26  O   UNL d   1      11.290  18.565  -9.017 -0.03 +0.02    -0.303    18.028
ATOM     27  H   UNL d   1      11.215  19.088  -9.841 +0.01 -0.02    +0.222    18.028
ATOM     28  O   UNL d   1       6.120  15.771 -12.644 -0.10 +0.02    -0.278    18.028
ATOM     29  P   UNL d   1       4.807  14.872 -12.726 -0.18 -0.03    +0.473    18.028
ATOM     30  O   UNL d   1       3.522  15.598 -12.554 -0.25 +0.05    -0.228    18.028
ATOM     31  O   UNL d   1       5.051  14.151 -14.134 -0.15 -0.01    -0.303    18.028
ATOM     32  H   UNL d   1       5.968  14.351 -14.435 +0.07 +0.01    +0.222    18.028
ATOM     33  O   UNL d   1       5.127  13.717 -11.679 -0.55 -0.00    -0.303    18.028
ATOM     34  H   UNL d   1       5.210  12.859 -12.162 -0.28 +0.01    +0.222    18.028
ATOM     35  O   UNL d   1       9.328  18.516 -10.735 -0.02 +0.02    -0.278    18.028
ATOM     36  P   UNL d   1       9.718  18.830 -12.250 +0.00 -0.03    +0.473    18.028
ATOM     37  O   UNL d   1      11.105  19.344 -12.465 -0.00 +0.02    -0.228    18.028
ATOM     38  O   UNL d   1       9.419  17.435 -12.958 -0.01 +0.02    -0.303    18.028
ATOM     39  H   UNL d   1       9.945  16.732 -12.519 +0.03 -0.01    +0.222    18.028
ATOM     40  O   UNL d   1       8.520  19.763 -12.722 -0.00 +0.03    -0.303    18.028
ATOM     41  H   UNL d   1       7.684  19.549 -12.252 +0.01 -0.02    +0.222    18.028
ATOM     42  O   UNL d   1       6.460  18.025 -10.886 -0.06 +0.05    -0.278    18.028
ATOM     43  P   UNL d   1       5.629  17.570  -9.603 -0.08 -0.15    +0.473    18.028
ATOM     44  O   UNL d   1       6.384  16.946  -8.481 -0.31 +0.06    -0.228    18.028
ATOM     45  O   UNL d   1       4.849  18.899  -9.204 -0.12 +0.12    -0.303    18.028
ATOM     46  H   UNL d   1       4.147  18.719  -8.547 -0.43 -0.16    +0.222    18.028
ATOM     47  O   UNL d   1       4.452  16.678 -10.227 -0.24 +0.09    -0.303    18.028
ATOM     48  H   UNL d   1       4.832  16.050 -10.875 +0.09 -0.05    +0.222    18.028
TER
ENDMDL
MODEL       69
USER    Run = 69
USER    Cluster Rank = 38
USER    Number of conformations in this cluster = 1
USER  
USER    RMSD from reference structure       = 15.391 A
USER  
USER    Estimated Free Energy of Binding    =   +2.55 kcal/mol  [=(1)+(2)+(3)-(4)]
USER    
USER    (1) Final Intermolecular Energy     =   -4.61 kcal/mol
USER        vdW + Hbond + desolv Energy     =   -4.49 kcal/mol
USER        Electrostatic Energy            =   -0.13 kcal/mol
USER    (2) Final Total Internal Energy     =  -14.54 kcal/mol
USER    (3) Torsional Free Energy           =   +7.16 kcal/mol
USER    (4) Unbound System's Energy  [=(2)] =  -14.54 kcal/mol
USER    
USER    
USER  
USER    DPF = D:/Protein_go_brrr/autodock/final/mut_K82N/IHP/dock.dpf
USER    NEWDPF move	IHP_ideal_opt.pdbqt
USER    NEWDPF about	0.035000 0.082000 -0.065000
USER    NEWDPF tran0	13.627391 1.262382 12.442567
USER    NEWDPF axisangle0	-0.786117 -0.211085 0.580916 168.879727
USER    NEWDPF quaternion0	-0.782418 -0.210091 0.578183 0.096890
USER    NEWDPF dihe0	158.06 70.01 -179.85 5.57 4.24 157.36 -67.31 66.13 1.26 73.29 105.58 144.34 -43.87 83.64 -175.90 -171.78 -7.25 118.11 11.10 -40.51 -37.45 -30.76 176.02 0.32 
USER  
USER                              x       y       z    vdW   Elec        q     RMS 
ATOM      1  C   UNL d   1      12.857   2.015  11.092 -0.16 -0.02    +0.194    15.391
ATOM      2  C   UNL d   1      12.518   2.608  12.460 -0.12 -0.02    +0.194    15.391
ATOM      3  C   UNL d   1      12.272   1.517  13.505 -0.19 -0.03    +0.194    15.391
ATOM      4  C   UNL d   1      13.402   0.494  13.583 -0.16 -0.03    +0.194    15.391
ATOM      5  C   UNL d   1      13.851  -0.040  12.229 -0.09 -0.05    +0.194    15.391
ATOM      6  C   UNL d   1      14.038   1.045  11.167 -0.11 -0.03    +0.194    15.391
ATOM      7  O   UNL d   1      13.239   3.085  10.224 -0.06 +0.01    -0.278    15.391
ATOM      8  P   UNL d   1      12.270   3.461   9.011 -0.12 -0.01    +0.473    15.391
ATOM      9  O   UNL d   1      10.957   2.762   9.012 -0.33 +0.01    -0.228    15.391
ATOM     10  O   UNL d   1      12.137   5.048   9.101 -0.10 +0.00    -0.303    15.391
ATOM     11  H   UNL d   1      12.667   5.379   9.849 +0.05 -0.00    +0.222    15.391
ATOM     12  O   UNL d   1      13.154   3.275   7.704 -0.08 +0.00    -0.303    15.391
ATOM     13  H   UNL d   1      13.896   2.642   7.827 +0.05 +0.00    +0.222    15.391
ATOM     14  O   UNL d   1      13.612   3.423  12.900 -0.02 +0.02    -0.278    15.391
ATOM     15  P   UNL d   1      13.554   4.973  12.503 +0.00 -0.02    +0.473    15.391
ATOM     16  O   UNL d   1      13.982   5.952  13.551 -0.01 +0.01    -0.228    15.391
ATOM     17  O   UNL d   1      14.431   5.066  11.176 -0.00 +0.01    -0.303    15.391
ATOM     18  H   UNL d   1      13.900   4.843  10.387 +0.03 -0.01    +0.222    15.391
ATOM     19  O   UNL d   1      12.084   5.181  11.930 -0.07 +0.01    -0.303    15.391
ATOM     20  H   UNL d   1      11.885   4.552  11.212 +0.08 -0.01    +0.222    15.391
ATOM     21  O   UNL d   1      14.114   0.381   9.908 -0.34 +0.03    -0.278    15.391
ATOM     22  P   UNL d   1      15.161   0.879   8.812 -0.01 +0.02    +0.473    15.391
ATOM     23  O   UNL d   1      14.774   0.784   7.374 -0.42 -0.03    -0.228    15.391
ATOM     24  O   UNL d   1      15.488   2.351   9.319 -0.02 +0.01    -0.303    15.391
ATOM     25  H   UNL d   1      14.649   2.878   9.298 +0.03 -0.01    +0.222    15.391
ATOM     26  O   UNL d   1      16.483   0.080   9.238 -0.05 +0.01    -0.303    15.391
ATOM     27  H   UNL d   1      16.378  -0.253  10.153 +0.02 -0.01    +0.222    15.391
ATOM     28  O   UNL d   1      12.243   2.145  14.781 -0.10 +0.04    -0.278    15.391
ATOM     29  P   UNL d   1      10.930   2.899  15.276 -0.18 -0.09    +0.473    15.391
ATOM     30  O   UNL d   1      10.851   3.155  16.737 -0.16 +0.02    -0.228    15.391
ATOM     31  O   UNL d   1      10.964   4.179  14.315 -0.18 +0.04    -0.303    15.391
ATOM     32  H   UNL d   1      11.863   4.250  13.919 +0.07 -0.02    +0.222    15.391
ATOM     33  O   UNL d   1       9.774   2.010  14.638 -0.40 +0.10    -0.303    15.391
ATOM     34  H   UNL d   1       9.157   1.722  15.355 -0.43 -0.13    +0.222    15.391
ATOM     35  O   UNL d   1      15.129  -0.634  12.451 -0.11 +0.04    -0.278    15.391
ATOM     36  P   UNL d   1      16.293   0.202  13.152 -0.02 -0.02    +0.473    15.391
ATOM     37  O   UNL d   1      15.857   1.123  14.246 -0.02 +0.01    -0.228    15.391
ATOM     38  O   UNL d   1      17.284  -0.953  13.624 -0.03 +0.00    -0.303    15.391
ATOM     39  H   UNL d   1      16.859  -1.466  14.345 +0.03 +0.00    +0.222    15.391
ATOM     40  O   UNL d   1      17.036   0.858  11.908 -0.01 +0.01    -0.303    15.391
ATOM     41  H   UNL d   1      16.415   1.043  11.169 +0.02 -0.01    +0.222    15.391
ATOM     42  O   UNL d   1      12.902  -0.620  14.330 -0.25 +0.07    -0.278    15.391
ATOM     43  P   UNL d   1      13.490  -0.900  15.786 -0.16 -0.03    +0.473    15.391
ATOM     44  O   UNL d   1      12.717  -1.812  16.675 -0.31 -0.00    -0.228    15.391
ATOM     45  O   UNL d   1      14.970  -1.395  15.475 -0.12 -0.01    -0.303    15.391
ATOM     46  H   UNL d   1      15.333  -0.960  14.678 +0.05 -0.00    +0.222    15.391
ATOM     47  O   UNL d   1      13.753   0.571  16.364 -0.06 +0.02    -0.303    15.391
ATOM     48  H   UNL d   1      14.065   1.152  15.639 +0.06 -0.01    +0.222    15.391
TER
ENDMDL
MODEL       17
USER    Run = 17
USER    Cluster Rank = 39
USER    Number of conformations in this cluster = 1
USER  
USER    RMSD from reference structure       = 20.911 A
USER  
USER    Estimated Free Energy of Binding    =   +2.55 kcal/mol  [=(1)+(2)+(3)-(4)]
USER    
USER    (1) Final Intermolecular Energy     =   -4.61 kcal/mol
USER        vdW + Hbond + desolv Energy     =   -4.25 kcal/mol
USER        Electrostatic Energy            =   -0.35 kcal/mol
USER    (2) Final Total Internal Energy     =  -14.03 kcal/mol
USER    (3) Torsional Free Energy           =   +7.16 kcal/mol
USER    (4) Unbound System's Energy  [=(2)] =  -14.03 kcal/mol
USER    
USER    
USER  
USER    DPF = D:/Protein_go_brrr/autodock/final/mut_K82N/IHP/dock.dpf
USER    NEWDPF move	IHP_ideal_opt.pdbqt
USER    NEWDPF about	0.035000 0.082000 -0.065000
USER    NEWDPF tran0	4.913822 4.651228 20.983760
USER    NEWDPF axisangle0	0.757344 0.559374 -0.336943 -161.626451
USER    NEWDPF quaternion0	0.747630 0.552199 -0.332621 -0.159653
USER    NEWDPF dihe0	-114.38 -19.19 144.19 15.13 20.92 134.86 -46.36 40.41 147.76 44.90 91.08 148.73 -176.50 174.76 179.90 127.72 6.15 117.71 61.48 10.80 -18.23 -6.48 176.11 -1.03 
USER  
USER                              x       y       z    vdW   Elec        q     RMS 
ATOM      1  C   UNL d   1       4.044   5.375  19.678 -0.19 -0.07    +0.194    20.911
ATOM      2  C   UNL d   1       3.202   4.973  20.891 -0.10 -0.06    +0.194    20.911
ATOM      3  C   UNL d   1       3.602   3.596  21.427 -0.15 -0.08    +0.194    20.911
ATOM      4  C   UNL d   1       5.099   3.467  21.695 -0.21 -0.03    +0.194    20.911
ATOM      5  C   UNL d   1       5.979   3.963  20.555 -0.27 -0.01    +0.194    20.911
ATOM      6  C   UNL d   1       5.542   5.312  19.978 -0.23 -0.03    +0.194    20.911
ATOM      7  O   UNL d   1       3.732   6.730  19.348 -0.10 +0.09    -0.278    20.911
ATOM      8  P   UNL d   1       2.229   7.085  18.939 -0.04 -0.18    +0.473    20.911
ATOM      9  O   UNL d   1       2.076   7.760  17.622 -0.16 +0.10    -0.228    20.911
ATOM     10  O   UNL d   1       1.465   5.687  19.020 -0.10 +0.13    -0.303    20.911
ATOM     11  H   UNL d   1       1.138   5.545  19.928 +0.05 -0.07    +0.222    20.911
ATOM     12  O   UNL d   1       1.633   7.862  20.190 -0.01 +0.07    -0.303    20.911
ATOM     13  H   UNL d   1       1.577   7.305  20.999 +0.02 -0.04    +0.222    20.911
ATOM     14  O   UNL d   1       3.391   5.940  21.931 -0.01 +0.04    -0.278    20.911
ATOM     15  P   UNL d   1       2.103   6.310  22.807 +0.01 -0.06    +0.473    20.911
ATOM     16  O   UNL d   1       1.800   7.766  22.975 -0.00 +0.02    -0.228    20.911
ATOM     17  O   UNL d   1       0.916   5.510  22.107 -0.00 +0.06    -0.303    20.911
ATOM     18  H   UNL d   1       1.164   4.579  21.950 +0.03 -0.06    +0.222    20.911
ATOM     19  O   UNL d   1       2.290   5.489  24.156 +0.00 +0.03    -0.303    20.911
ATOM     20  H   UNL d   1       2.574   4.572  23.983 +0.01 -0.03    +0.222    20.911
ATOM     21  O   UNL d   1       6.224   5.469  18.736 -0.21 +0.05    -0.278    20.911
ATOM     22  P   UNL d   1       7.195   6.715  18.517 -0.12 -0.06    +0.473    20.911
ATOM     23  O   UNL d   1       7.350   7.255  17.135 -0.19 +0.08    -0.228    20.911
ATOM     24  O   UNL d   1       6.632   7.757  19.581 -0.03 +0.03    -0.303    20.911
ATOM     25  H   UNL d   1       5.644   7.764  19.512 +0.06 -0.04    +0.222    20.911
ATOM     26  O   UNL d   1       8.540   6.209  19.229 -0.11 -0.03    -0.303    20.911
ATOM     27  H   UNL d   1       8.307   5.719  20.044 +0.07 +0.04    +0.222    20.911
ATOM     28  O   UNL d   1       2.976   3.432  22.693 -0.05 +0.10    -0.278    20.911
ATOM     29  P   UNL d   1       1.698   2.494  22.843 +0.01 -0.28    +0.473    20.911
ATOM     30  O   UNL d   1       1.954   1.150  23.423 -0.09 +0.16    -0.228    20.911
ATOM     31  O   UNL d   1       0.731   3.468  23.666 -0.01 +0.07    -0.303    20.911
ATOM     32  H   UNL d   1       1.169   4.347  23.750 +0.01 -0.04    +0.222    20.911
ATOM     33  O   UNL d   1       1.077   2.539  21.378 -0.05 +0.27    -0.303    20.911
ATOM     34  H   UNL d   1       1.346   1.723  20.889 -0.45 -0.46    +0.222    20.911
ATOM     35  O   UNL d   1       7.276   4.149  21.119 -0.79 -0.09    -0.278    20.911
ATOM     36  P   UNL d   1       7.465   5.047  22.424 -0.11 +0.14    +0.473    20.911
ATOM     37  O   UNL d   1       6.556   4.723  23.567 -0.07 -0.05    -0.228    20.911
ATOM     38  O   UNL d   1       9.012   4.842  22.739 -0.07 -0.22    -0.303    20.911
ATOM     39  H   UNL d   1       9.541   5.396  22.125 +0.03 +0.12    +0.222    20.911
ATOM     40  O   UNL d   1       7.386   6.522  21.834 -0.03 -0.04    -0.303    20.911
ATOM     41  H   UNL d   1       7.196   6.520  20.870 +0.05 +0.01    +0.222    20.911
ATOM     42  O   UNL d   1       5.371   2.071  21.859 -0.28 +0.06    -0.278    20.911
ATOM     43  P   UNL d   1       5.809   1.534  23.296 -0.15 +0.00    +0.473    20.911
ATOM     44  O   UNL d   1       5.719   0.067  23.538 -0.17 +0.01    -0.228    20.911
ATOM     45  O   UNL d   1       7.274   2.133  23.461 -0.11 -0.13    -0.303    20.911
ATOM     46  H   UNL d   1       7.432   2.870  22.838 +0.05 +0.10    +0.222    20.911
ATOM     47  O   UNL d   1       4.966   2.454  24.303 -0.03 +0.01    -0.303    20.911
ATOM     48  H   UNL d   1       4.850   3.343  23.907 +0.05 -0.01    +0.222    20.911
TER
ENDMDL
MODEL       24
USER    Run = 24
USER    Cluster Rank = 40
USER    Number of conformations in this cluster = 1
USER  
USER    RMSD from reference structure       = 15.073 A
USER  
USER    Estimated Free Energy of Binding    =   +2.56 kcal/mol  [=(1)+(2)+(3)-(4)]
USER    
USER    (1) Final Intermolecular Energy     =   -4.60 kcal/mol
USER        vdW + Hbond + desolv Energy     =   -4.09 kcal/mol
USER        Electrostatic Energy            =   -0.51 kcal/mol
USER    (2) Final Total Internal Energy     =  -13.89 kcal/mol
USER    (3) Torsional Free Energy           =   +7.16 kcal/mol
USER    (4) Unbound System's Energy  [=(2)] =  -13.89 kcal/mol
USER    
USER    
USER  
USER    DPF = D:/Protein_go_brrr/autodock/final/mut_K82N/IHP/dock.dpf
USER    NEWDPF move	IHP_ideal_opt.pdbqt
USER    NEWDPF about	0.035000 0.082000 -0.065000
USER    NEWDPF tran0	12.598996 5.730881 -11.037583
USER    NEWDPF axisangle0	0.836800 0.440910 -0.324599 -103.430522
USER    NEWDPF quaternion0	0.656839 0.346089 -0.254791 -0.619570
USER    NEWDPF dihe0	119.08 90.39 133.03 135.41 -3.51 160.23 -14.73 -166.86 82.63 146.04 106.67 -67.59 -63.20 78.13 -137.17 139.34 65.26 3.33 29.82 -18.13 -48.53 -31.69 38.20 -78.47 
USER  
USER                              x       y       z    vdW   Elec        q     RMS 
ATOM      1  C   UNL d   1      12.780   5.115 -12.642 -0.03 -0.05    +0.194    15.073
ATOM      2  C   UNL d   1      11.338   5.301 -12.163 -0.12 -0.06    +0.194    15.073
ATOM      3  C   UNL d   1      11.152   4.816 -10.724 -0.22 -0.07    +0.194    15.073
ATOM      4  C   UNL d   1      12.165   5.414  -9.751 -0.21 -0.05    +0.194    15.073
ATOM      5  C   UNL d   1      13.606   5.353 -10.241 -0.09 -0.04    +0.194    15.073
ATOM      6  C   UNL d   1      13.783   5.781 -11.699 -0.04 -0.03    +0.194    15.073
ATOM      7  O   UNL d   1      12.911   5.745 -13.918 -0.01 +0.05    -0.278    15.073
ATOM      8  P   UNL d   1      12.681   4.861 -15.228 +0.02 -0.10    +0.473    15.073
ATOM      9  O   UNL d   1      12.612   3.393 -14.995 -0.01 +0.07    -0.228    15.073
ATOM     10  O   UNL d   1      11.347   5.459 -15.868 -0.00 +0.06    -0.303    15.073
ATOM     11  H   UNL d   1      10.717   5.684 -15.159 +0.04 -0.05    +0.222    15.073
ATOM     12  O   UNL d   1      13.790   5.349 -16.256 +0.00 +0.04    -0.303    15.073
ATOM     13  H   UNL d   1      14.680   5.443 -15.847 +0.00 -0.03    +0.222    15.073
ATOM     14  O   UNL d   1      11.003   6.693 -12.223 -0.14 +0.05    -0.278    15.073
ATOM     15  P   UNL d   1       9.884   7.115 -13.288 -0.15 +0.02    +0.473    15.073
ATOM     16  O   UNL d   1       8.808   8.035 -12.803 -0.21 -0.09    -0.228    15.073
ATOM     17  O   UNL d   1      10.716   7.724 -14.503 -0.06 -0.03    -0.303    15.073
ATOM     18  H   UNL d   1      11.547   7.230 -14.642 +0.04 -0.01    +0.222    15.073
ATOM     19  O   UNL d   1       9.383   5.737 -13.903 -0.18 +0.10    -0.303    15.073
ATOM     20  H   UNL d   1       8.797   5.259 -13.287 -0.10 -0.17    +0.222    15.073
ATOM     21  O   UNL d   1      15.082   5.350 -12.100 -0.01 +0.04    -0.278    15.073
ATOM     22  P   UNL d   1      15.875   6.162 -13.221 +0.00 -0.05    +0.473    15.073
ATOM     23  O   UNL d   1      16.005   5.551 -14.575 +0.00 +0.02    -0.228    15.073
ATOM     24  O   UNL d   1      15.130   7.568 -13.192 -0.01 +0.02    -0.303    15.073
ATOM     25  H   UNL d   1      14.219   7.442 -13.561 +0.02 -0.02    +0.222    15.073
ATOM     26  O   UNL d   1      17.249   6.500 -12.467 -0.00 +0.02    -0.303    15.073
ATOM     27  H   UNL d   1      17.141   6.329 -11.509 +0.00 -0.02    +0.222    15.073
ATOM     28  O   UNL d   1       9.882   5.276 -10.278 -0.40 +0.08    -0.278    15.073
ATOM     29  P   UNL d   1       8.552   4.518 -10.717 -0.31 -0.25    +0.473    15.073
ATOM     30  O   UNL d   1       7.813   3.837  -9.623 -0.31 +0.11    -0.228    15.073
ATOM     31  O   UNL d   1       7.793   5.703 -11.478 -0.57 +0.06    -0.303    15.073
ATOM     32  H   UNL d   1       8.460   6.243 -11.962 +0.13 -0.03    +0.222    15.073
ATOM     33  O   UNL d   1       9.068   3.604 -11.914 -0.00 +0.43    -0.303    15.073
ATOM     34  H   UNL d   1       8.726   3.969 -12.767 -0.07 -0.55    +0.222    15.073
ATOM     35  O   UNL d   1      14.326   6.287  -9.439 -0.08 +0.03    -0.278    15.073
ATOM     36  P   UNL d   1      15.921   6.315  -9.474 -0.01 -0.04    +0.473    15.073
ATOM     37  O   UNL d   1      16.530   7.509 -10.137 -0.02 +0.02    -0.228    15.073
ATOM     38  O   UNL d   1      16.283   6.168  -7.930 -0.01 +0.02    -0.303    15.073
ATOM     39  H   UNL d   1      15.478   5.904  -7.435 +0.04 -0.02    +0.222    15.073
ATOM     40  O   UNL d   1      16.273   4.891 -10.087 -0.00 +0.03    -0.303    15.073
ATOM     41  H   UNL d   1      16.551   4.958 -11.028 +0.01 -0.02    +0.222    15.073
ATOM     42  O   UNL d   1      12.094   4.638  -8.551 -0.24 +0.09    -0.278    15.073
ATOM     43  P   UNL d   1      13.195   4.867  -7.419 -0.17 -0.09    +0.473    15.073
ATOM     44  O   UNL d   1      13.472   6.270  -7.004 -0.21 +0.02    -0.228    15.073
ATOM     45  O   UNL d   1      12.684   3.928  -6.240 -0.14 +0.07    -0.303    15.073
ATOM     46  H   UNL d   1      12.250   3.123  -6.586 -0.26 -0.15    +0.222    15.073
ATOM     47  O   UNL d   1      14.459   4.046  -7.965 -0.05 +0.06    -0.303    15.073
ATOM     48  H   UNL d   1      15.168   4.673  -8.216 +0.04 -0.03    +0.222    15.073
TER
ENDMDL
MODEL       82
USER    Run = 82
USER    Cluster Rank = 41
USER    Number of conformations in this cluster = 1
USER  
USER    RMSD from reference structure       = 10.853 A
USER  
USER    Estimated Free Energy of Binding    =   +2.64 kcal/mol  [=(1)+(2)+(3)-(4)]
USER    
USER    (1) Final Intermolecular Energy     =   -4.52 kcal/mol
USER        vdW + Hbond + desolv Energy     =   -4.37 kcal/mol
USER        Electrostatic Energy            =   -0.15 kcal/mol
USER    (2) Final Total Internal Energy     =  -12.04 kcal/mol
USER    (3) Torsional Free Energy           =   +7.16 kcal/mol
USER    (4) Unbound System's Energy  [=(2)] =  -12.04 kcal/mol
USER    
USER    
USER  
USER    DPF = D:/Protein_go_brrr/autodock/final/mut_K82N/IHP/dock.dpf
USER    NEWDPF move	IHP_ideal_opt.pdbqt
USER    NEWDPF about	0.035000 0.082000 -0.065000
USER    NEWDPF tran0	14.396016 -3.377287 1.336698
USER    NEWDPF axisangle0	0.555261 0.585598 0.590559 174.100262
USER    NEWDPF quaternion0	0.554525 0.584822 0.589777 0.051462
USER    NEWDPF dihe0	136.09 20.32 22.15 100.38 -15.30 -133.47 -95.90 16.22 73.02 88.64 110.08 127.66 1.55 -93.30 -94.01 159.94 -87.19 -143.07 -9.69 8.76 -0.39 24.22 168.12 -1.05 
USER  
USER                              x       y       z    vdW   Elec        q     RMS 
ATOM      1  C   UNL d   1      13.760  -1.774   1.433 -0.14 +0.01    +0.194    10.853
ATOM      2  C   UNL d   1      13.445  -2.534   0.143 -0.14 +0.02    +0.194    10.853
ATOM      3  C   UNL d   1      14.666  -3.292  -0.381 -0.03 +0.02    +0.194    10.853
ATOM      4  C   UNL d   1      15.316  -4.186   0.672 -0.00 +0.01    +0.194    10.853
ATOM      5  C   UNL d   1      15.544  -3.501   2.013 -0.01 +0.01    +0.194    10.853
ATOM      6  C   UNL d   1      14.343  -2.693   2.508 -0.09 +0.00    +0.194    10.853
ATOM      7  O   UNL d   1      12.538  -1.240   1.947 -0.32 +0.01    -0.278    10.853
ATOM      8  P   UNL d   1      12.508   0.292   2.397 -0.06 +0.04    +0.473    10.853
ATOM      9  O   UNL d   1      12.980   1.261   1.370 -0.15 -0.03    -0.228    10.853
ATOM     10  O   UNL d   1      10.996   0.536   2.842 -0.67 -0.06    -0.303    10.853
ATOM     11  H   UNL d   1      10.421  -0.134   2.426 -0.19 +0.01    +0.222    10.853
ATOM     12  O   UNL d   1      13.274   0.328   3.789 -0.11 -0.03    -0.303    10.853
ATOM     13  H   UNL d   1      13.253  -0.533   4.263 +0.06 +0.03    +0.222    10.853
ATOM     14  O   UNL d   1      12.398  -3.477   0.402 -0.16 +0.01    -0.278    10.853
ATOM     15  P   UNL d   1      11.288  -3.646  -0.741 -0.19 +0.03    +0.473    10.853
ATOM     16  O   UNL d   1      10.872  -2.402  -1.462 -0.76 -0.10    -0.228    10.853
ATOM     17  O   UNL d   1      11.899  -4.749  -1.715 -0.10 -0.05    -0.303    10.853
ATOM     18  H   UNL d   1      12.629  -4.381  -2.248 +0.05 +0.06    +0.222    10.853
ATOM     19  O   UNL d   1      10.114  -4.456  -0.037 -0.27 +0.06    -0.303    10.853
ATOM     20  H   UNL d   1       9.959  -4.148   0.875 -0.26 -0.12    +0.222    10.853
ATOM     21  O   UNL d   1      14.816  -1.856   3.562 -0.05 -0.01    -0.278    10.853
ATOM     22  P   UNL d   1      14.513  -2.247   5.078 -0.10 +0.05    +0.473    10.853
ATOM     23  O   UNL d   1      13.092  -2.273   5.529 -0.44 -0.10    -0.228    10.853
ATOM     24  O   UNL d   1      15.283  -3.633   5.218 -0.04 -0.01    -0.303    10.853
ATOM     25  H   UNL d   1      14.707  -4.345   4.841 +0.05 +0.01    +0.222    10.853
ATOM     26  O   UNL d   1      15.484  -1.248   5.872 -0.05 -0.02    -0.303    10.853
ATOM     27  H   UNL d   1      15.324  -0.332   5.564 +0.03 +0.01    +0.222    10.853
ATOM     28  O   UNL d   1      14.217  -4.174  -1.401 -0.02 -0.04    -0.278    10.853
ATOM     29  P   UNL d   1      15.017  -4.291  -2.773 -0.01 +0.07    +0.473    10.853
ATOM     30  O   UNL d   1      15.263  -5.675  -3.255 -0.00 -0.01    -0.228    10.853
ATOM     31  O   UNL d   1      14.117  -3.348  -3.702 -0.09 -0.13    -0.303    10.853
ATOM     32  H   UNL d   1      13.169  -3.556  -3.537 +0.03 +0.12    +0.222    10.853
ATOM     33  O   UNL d   1      16.298  -3.389  -2.491 -0.00 -0.04    -0.303    10.853
ATOM     34  H   UNL d   1      16.915  -3.884  -1.898 +0.01 +0.01    +0.222    10.853
ATOM     35  O   UNL d   1      15.758  -4.553   2.953 -0.01 -0.01    -0.278    10.853
ATOM     36  P   UNL d   1      14.618  -5.634   3.224 -0.04 +0.02    +0.473    10.853
ATOM     37  O   UNL d   1      13.229  -5.091   3.344 -0.16 -0.02    -0.228    10.853
ATOM     38  O   UNL d   1      14.824  -6.638   2.005 -0.01 -0.01    -0.303    10.853
ATOM     39  H   UNL d   1      15.598  -6.347   1.477 +0.01 +0.00    +0.222    10.853
ATOM     40  O   UNL d   1      15.193  -6.428   4.476 -0.02 -0.01    -0.303    10.853
ATOM     41  H   UNL d   1      15.523  -5.819   5.173 +0.04 +0.01    +0.222    10.853
ATOM     42  O   UNL d   1      16.602  -4.557   0.164 +0.00 -0.01    -0.278    10.853
ATOM     43  P   UNL d   1      16.864  -6.078  -0.237 +0.00 +0.01    +0.473    10.853
ATOM     44  O   UNL d   1      17.545  -6.945   0.766 +0.00 -0.00    -0.228    10.853
ATOM     45  O   UNL d   1      15.415  -6.583  -0.656 +0.00 -0.01    -0.303    10.853
ATOM     46  H   UNL d   1      14.914  -5.886  -1.124 +0.02 +0.01    +0.222    10.853
ATOM     47  O   UNL d   1      17.593  -5.963  -1.659 +0.00 -0.00    -0.303    10.853
ATOM     48  H   UNL d   1      17.047  -5.413  -2.258 +0.00 +0.01    +0.222    10.853
TER
ENDMDL
MODEL       54
USER    Run = 54
USER    Cluster Rank = 42
USER    Number of conformations in this cluster = 1
USER  
USER    RMSD from reference structure       = 19.255 A
USER  
USER    Estimated Free Energy of Binding    =   +2.69 kcal/mol  [=(1)+(2)+(3)-(4)]
USER    
USER    (1) Final Intermolecular Energy     =   -4.47 kcal/mol
USER        vdW + Hbond + desolv Energy     =   -4.41 kcal/mol
USER        Electrostatic Energy            =   -0.06 kcal/mol
USER    (2) Final Total Internal Energy     =  -10.69 kcal/mol
USER    (3) Torsional Free Energy           =   +7.16 kcal/mol
USER    (4) Unbound System's Energy  [=(2)] =  -10.69 kcal/mol
USER    
USER    
USER  
USER    DPF = D:/Protein_go_brrr/autodock/final/mut_K82N/IHP/dock.dpf
USER    NEWDPF move	IHP_ideal_opt.pdbqt
USER    NEWDPF about	0.035000 0.082000 -0.065000
USER    NEWDPF tran0	8.644076 20.434940 -6.129967
USER    NEWDPF axisangle0	0.181934 0.639388 0.747049 77.893033
USER    NEWDPF quaternion0	0.114363 0.401916 0.469591 0.777733
USER    NEWDPF dihe0	95.89 98.45 -157.60 -9.65 11.62 -90.76 -13.31 -16.76 -58.37 114.73 -174.64 127.89 -155.28 -179.83 15.69 144.52 38.71 168.21 2.07 21.60 157.77 31.84 -171.98 -170.82 
USER  
USER                              x       y       z    vdW   Elec        q     RMS 
ATOM      1  C   UNL d   1       7.800  19.601  -4.875 -0.21 -0.04    +0.194    19.255
ATOM      2  C   UNL d   1       7.035  19.765  -6.189 -0.23 -0.05    +0.194    19.255
ATOM      3  C   UNL d   1       7.202  21.170  -6.771 -0.11 -0.06    +0.194    19.255
ATOM      4  C   UNL d   1       8.662  21.601  -6.894 -0.06 -0.04    +0.194    19.255
ATOM      5  C   UNL d   1       9.491  21.349  -5.641 -0.05 -0.03    +0.194    19.255
ATOM      6  C   UNL d   1       9.278  19.965  -5.025 -0.08 -0.03    +0.194    19.255
ATOM      7  O   UNL d   1       7.737  18.226  -4.490 -0.22 +0.05    -0.278    19.255
ATOM      8  P   UNL d   1       7.071  17.860  -3.085 -0.37 -0.08    +0.473    19.255
ATOM      9  O   UNL d   1       8.032  17.516  -2.002 -0.34 +0.04    -0.228    19.255
ATOM     10  O   UNL d   1       6.167  19.129  -2.743 -0.42 +0.06    -0.303    19.255
ATOM     11  H   UNL d   1       6.732  19.919  -2.656 +0.10 -0.04    +0.222    19.255
ATOM     12  O   UNL d   1       5.979  16.755  -3.420 -0.39 +0.07    -0.303    19.255
ATOM     13  H   UNL d   1       6.343  15.994  -3.926 -0.39 -0.09    +0.222    19.255
ATOM     14  O   UNL d   1       7.533  18.815  -7.140 -0.14 +0.05    -0.278    19.255
ATOM     15  P   UNL d   1       6.516  18.347  -8.284 -0.15 -0.13    +0.473    19.255
ATOM     16  O   UNL d   1       6.277  16.874  -8.409 -0.27 +0.07    -0.228    19.255
ATOM     17  O   UNL d   1       5.183  19.164  -7.976 -0.19 +0.14    -0.303    19.255
ATOM     18  H   UNL d   1       5.052  19.881  -8.627 +0.06 -0.07    +0.222    19.255
ATOM     19  O   UNL d   1       7.038  19.071  -9.601 -0.05 +0.05    -0.303    19.255
ATOM     20  H   UNL d   1       6.896  20.035  -9.562 +0.04 -0.04    +0.222    19.255
ATOM     21  O   UNL d   1       9.833  20.008  -3.713 -0.05 +0.04    -0.278    19.255
ATOM     22  P   UNL d   1       9.343  21.122  -2.681 -0.09 -0.05    +0.473    19.255
ATOM     23  O   UNL d   1       7.878  21.367  -2.552 -0.23 +0.03    -0.228    19.255
ATOM     24  O   UNL d   1      10.064  20.662  -1.339 -0.08 +0.02    -0.303    19.255
ATOM     25  H   UNL d   1       9.820  19.718  -1.166 +0.06 -0.01    +0.222    19.255
ATOM     26  O   UNL d   1      10.231  22.383  -3.119 -0.03 +0.04    -0.303    19.255
ATOM     27  H   UNL d   1       9.716  22.940  -3.738 +0.04 -0.03    +0.222    19.255
ATOM     28  O   UNL d   1       6.702  21.145  -8.102 -0.09 +0.06    -0.278    19.255
ATOM     29  P   UNL d   1       5.904  22.394  -8.684 -0.07 -0.08    +0.473    19.255
ATOM     30  O   UNL d   1       6.520  23.054  -9.865 -0.02 +0.03    -0.228    19.255
ATOM     31  O   UNL d   1       4.462  21.732  -8.893 -0.12 +0.05    -0.303    19.255
ATOM     32  H   UNL d   1       4.286  21.120  -8.141 +0.07 -0.05    +0.222    19.255
ATOM     33  O   UNL d   1       5.694  23.292  -7.386 -0.09 +0.06    -0.303    19.255
ATOM     34  H   UNL d   1       6.531  23.297  -6.860 -0.11 -0.07    +0.222    19.255
ATOM     35  O   UNL d   1      10.853  21.417  -6.059 -0.01 +0.03    -0.278    19.255
ATOM     36  P   UNL d   1      11.306  20.753  -7.437 -0.00 -0.04    +0.473    19.255
ATOM     37  O   UNL d   1      11.084  21.587  -8.658 -0.00 +0.02    -0.228    19.255
ATOM     38  O   UNL d   1      12.835  20.412  -7.146 -0.00 +0.02    -0.303    19.255
ATOM     39  H   UNL d   1      13.388  20.777  -7.870 +0.00 -0.02    +0.222    19.255
ATOM     40  O   UNL d   1      10.582  19.338  -7.386 -0.03 +0.03    -0.303    19.255
ATOM     41  H   UNL d   1       9.614  19.419  -7.534 +0.04 -0.02    +0.222    19.255
ATOM     42  O   UNL d   1       8.659  23.014  -7.121 -0.03 +0.05    -0.278    19.255
ATOM     43  P   UNL d   1       8.420  23.993  -5.884 -0.05 -0.10    +0.473    19.255
ATOM     44  O   UNL d   1       7.678  25.259  -6.143 -0.06 +0.04    -0.228    19.255
ATOM     45  O   UNL d   1       7.727  23.040  -4.814 -0.01 +0.13    -0.303    19.255
ATOM     46  H   UNL d   1       8.309  22.886  -4.043 -0.01 -0.06    +0.222    19.255
ATOM     47  O   UNL d   1       9.888  24.166  -5.264 -0.01 +0.04    -0.303    19.255
ATOM     48  H   UNL d   1      10.272  23.281  -5.091 +0.02 -0.03    +0.222    19.255
TER
ENDMDL
MODEL       61
USER    Run = 61
USER    Cluster Rank = 43
USER    Number of conformations in this cluster = 1
USER  
USER    RMSD from reference structure       = 12.796 A
USER  
USER    Estimated Free Energy of Binding    =   +2.72 kcal/mol  [=(1)+(2)+(3)-(4)]
USER    
USER    (1) Final Intermolecular Energy     =   -4.44 kcal/mol
USER        vdW + Hbond + desolv Energy     =   -4.42 kcal/mol
USER        Electrostatic Energy            =   -0.02 kcal/mol
USER    (2) Final Total Internal Energy     =  -14.13 kcal/mol
USER    (3) Torsional Free Energy           =   +7.16 kcal/mol
USER    (4) Unbound System's Energy  [=(2)] =  -14.13 kcal/mol
USER    
USER    
USER  
USER    DPF = D:/Protein_go_brrr/autodock/final/mut_K82N/IHP/dock.dpf
USER    NEWDPF move	IHP_ideal_opt.pdbqt
USER    NEWDPF about	0.035000 0.082000 -0.065000
USER    NEWDPF tran0	6.433919 -12.117375 -8.483807
USER    NEWDPF axisangle0	0.478850 0.800302 -0.360860 -123.794176
USER    NEWDPF quaternion0	0.422395 0.705949 -0.318316 -0.471057
USER    NEWDPF dihe0	-139.76 -53.10 46.79 51.72 142.23 -96.37 -60.59 5.93 100.27 -21.82 148.63 117.39 46.96 139.51 86.78 163.11 -139.06 -144.90 -145.45 -16.58 19.85 19.85 -15.59 4.10 
USER  
USER                              x       y       z    vdW   Elec        q     RMS 
ATOM      1  C   UNL d   1       5.702 -12.807  -9.888 -0.04 +0.01    +0.194    12.796
ATOM      2  C   UNL d   1       5.084 -13.219  -8.551 -0.06 +0.04    +0.194    12.796
ATOM      3  C   UNL d   1       6.155 -13.528  -7.503 -0.05 +0.04    +0.194    12.796
ATOM      4  C   UNL d   1       7.182 -12.410  -7.344 -0.07 +0.02    +0.194    12.796
ATOM      5  C   UNL d   1       7.741 -11.889  -8.662 -0.07 +0.00    +0.194    12.796
ATOM      6  C   UNL d   1       6.674 -11.638  -9.731 -0.07 -0.00    +0.194    12.796
ATOM      7  O   UNL d   1       4.648 -12.372 -10.751 -0.07 -0.00    -0.278    12.796
ATOM      8  P   UNL d   1       4.275 -10.819 -10.770 -0.19 -0.03    +0.473    12.796
ATOM      9  O   UNL d   1       4.868 -10.041 -11.892 -0.46 +0.02    -0.228    12.796
ATOM     10  O   UNL d   1       2.680 -10.804 -10.770 -0.20 +0.01    -0.303    12.796
ATOM     11  H   UNL d   1       2.349 -11.217  -9.950 +0.09 -0.00    +0.222    12.796
ATOM     12  O   UNL d   1       4.612 -10.295  -9.308 -0.22 -0.00    -0.303    12.796
ATOM     13  H   UNL d   1       3.822 -10.246  -8.724 -0.05 +0.01    +0.222    12.796
ATOM     14  O   UNL d   1       4.266 -12.147  -8.065 -0.16 -0.07    -0.278    12.796
ATOM     15  P   UNL d   1       2.694 -12.437  -7.959 -0.17 +0.13    +0.473    12.796
ATOM     16  O   UNL d   1       1.801 -11.248  -7.791 -0.39 +0.01    -0.228    12.796
ATOM     17  O   UNL d   1       2.366 -13.276  -9.272 -0.62 -0.09    -0.303    12.796
ATOM     18  H   UNL d   1       2.736 -12.846 -10.067 +0.09 +0.03    +0.222    12.796
ATOM     19  O   UNL d   1       2.572 -13.551  -6.830 -0.31 -0.24    -0.303    12.796
ATOM     20  H   UNL d   1       3.446 -13.888  -6.559 +0.09 +0.21    +0.222    12.796
ATOM     21  O   UNL d   1       7.361 -11.495 -10.972 -0.02 +0.01    -0.278    12.796
ATOM     22  P   UNL d   1       8.004 -10.089 -11.365 -0.02 -0.04    +0.473    12.796
ATOM     23  O   UNL d   1       9.484 -10.013 -11.533 -0.01 +0.02    -0.228    12.796
ATOM     24  O   UNL d   1       7.164  -9.696 -12.658 -0.45 +0.01    -0.303    12.796
ATOM     25  H   UNL d   1       6.271  -9.385 -12.363 +0.07 +0.00    +0.222    12.796
ATOM     26  O   UNL d   1       7.373  -9.121 -10.253 -0.08 +0.04    -0.303    12.796
ATOM     27  H   UNL d   1       7.959  -9.105  -9.470 +0.04 -0.04    +0.222    12.796
ATOM     28  O   UNL d   1       5.505 -13.625  -6.242 -0.08 -0.14    -0.278    12.796
ATOM     29  P   UNL d   1       5.776 -14.874  -5.291 -0.06 +0.32    +0.473    12.796
ATOM     30  O   UNL d   1       5.959 -14.556  -3.852 -0.18 -0.13    -0.228    12.796
ATOM     31  O   UNL d   1       4.527 -15.796  -5.678 -0.45 -0.42    -0.303    12.796
ATOM     32  H   UNL d   1       3.916 -15.274  -6.248 +0.06 +0.29    +0.222    12.796
ATOM     33  O   UNL d   1       6.989 -15.597  -6.027 -0.01 -0.08    -0.303    12.796
ATOM     34  H   UNL d   1       7.778 -15.003  -6.006 +0.02 +0.04    +0.222    12.796
ATOM     35  O   UNL d   1       8.336 -10.629  -8.359 -0.09 +0.02    -0.278    12.796
ATOM     36  P   UNL d   1       9.911 -10.425  -8.512 -0.04 -0.03    +0.473    12.796
ATOM     37  O   UNL d   1      10.710 -10.627  -7.264 -0.03 +0.01    -0.228    12.796
ATOM     38  O   UNL d   1      10.259 -11.445  -9.684 -0.00 +0.02    -0.303    12.796
ATOM     39  H   UNL d   1       9.484 -11.525 -10.281 +0.01 -0.01    +0.222    12.796
ATOM     40  O   UNL d   1      10.003  -8.997  -9.205 -0.02 +0.03    -0.303    12.796
ATOM     41  H   UNL d   1       9.593  -8.999 -10.098 +0.02 -0.03    +0.222    12.796
ATOM     42  O   UNL d   1       8.281 -12.957  -6.608 -0.04 -0.03    -0.278    12.796
ATOM     43  P   UNL d   1       8.484 -12.521  -5.087 -0.01 +0.07    +0.473    12.796
ATOM     44  O   UNL d   1       9.495 -11.463  -4.806 -0.12 -0.02    -0.228    12.796
ATOM     45  O   UNL d   1       7.006 -12.147  -4.631 -0.13 -0.12    -0.303    12.796
ATOM     46  H   UNL d   1       6.465 -12.947  -4.479 +0.07 +0.09    +0.222    12.796
ATOM     47  O   UNL d   1       8.715 -13.916  -4.334 -0.01 -0.04    -0.303    12.796
ATOM     48  H   UNL d   1       7.905 -14.462  -4.411 +0.05 +0.04    +0.222    12.796
TER
ENDMDL
MODEL       98
USER    Run = 98
USER    Cluster Rank = 44
USER    Number of conformations in this cluster = 1
USER  
USER    RMSD from reference structure       = 21.479 A
USER  
USER    Estimated Free Energy of Binding    =   +2.73 kcal/mol  [=(1)+(2)+(3)-(4)]
USER    
USER    (1) Final Intermolecular Energy     =   -4.43 kcal/mol
USER        vdW + Hbond + desolv Energy     =   -4.10 kcal/mol
USER        Electrostatic Energy            =   -0.33 kcal/mol
USER    (2) Final Total Internal Energy     =  -14.86 kcal/mol
USER    (3) Torsional Free Energy           =   +7.16 kcal/mol
USER    (4) Unbound System's Energy  [=(2)] =  -14.86 kcal/mol
USER    
USER    
USER  
USER    DPF = D:/Protein_go_brrr/autodock/final/mut_K82N/IHP/dock.dpf
USER    NEWDPF move	IHP_ideal_opt.pdbqt
USER    NEWDPF about	0.035000 0.082000 -0.065000
USER    NEWDPF tran0	-10.087458 3.945516 -20.508643
USER    NEWDPF axisangle0	0.608387 0.611363 0.506064 107.500966
USER    NEWDPF quaternion0	0.490633 0.493034 0.408115 0.591303
USER    NEWDPF dihe0	145.26 171.89 138.72 12.41 121.09 -162.72 -35.27 40.20 12.85 4.53 69.56 -73.60 -85.03 178.96 14.80 131.59 -179.92 113.20 50.46 7.30 162.03 -7.74 -22.00 166.46 
USER  
USER                              x       y       z    vdW   Elec        q     RMS 
ATOM      1  C   UNL d   1     -10.864   4.560 -19.093 -0.13 +0.06    +0.194    21.479
ATOM      2  C   UNL d   1     -11.799   4.046 -20.189 -0.08 +0.05    +0.194    21.479
ATOM      3  C   UNL d   1     -11.344   4.498 -21.579 -0.02 +0.02    +0.194    21.479
ATOM      4  C   UNL d   1      -9.881   4.172 -21.869 -0.04 +0.00    +0.194    21.479
ATOM      5  C   UNL d   1      -8.925   4.563 -20.749 -0.12 -0.00    +0.194    21.479
ATOM      6  C   UNL d   1      -9.409   4.166 -19.353 -0.14 +0.03    +0.194    21.479
ATOM      7  O   UNL d   1     -11.253   3.957 -17.856 -0.07 -0.19    -0.278    21.479
ATOM      8  P   UNL d   1     -12.611   4.444 -17.169 -0.08 +0.32    +0.473    21.479
ATOM      9  O   UNL d   1     -12.940   5.881 -17.370 -0.03 -0.06    -0.228    21.479
ATOM     10  O   UNL d   1     -13.718   3.458 -17.758 -0.51 -0.32    -0.303    21.479
ATOM     11  H   UNL d   1     -13.346   2.962 -18.512 +0.01 +0.25    +0.222    21.479
ATOM     12  O   UNL d   1     -12.505   3.961 -15.659 -0.25 -0.27    -0.303    21.479
ATOM     13  H   UNL d   1     -12.649   4.687 -15.011 +0.04 +0.11    +0.222    21.479
ATOM     14  O   UNL d   1     -11.814   2.614 -20.157 -0.10 -0.13    -0.278    21.479
ATOM     15  P   UNL d   1     -13.237   1.908 -20.362 -0.06 +0.24    +0.473    21.479
ATOM     16  O   UNL d   1     -13.666   0.940 -19.304 -0.05 -0.27    -0.228    21.479
ATOM     17  O   UNL d   1     -14.251   3.125 -20.534 -0.01 -0.09    -0.303    21.479
ATOM     18  H   UNL d   1     -13.878   3.815 -21.115 +0.01 +0.04    +0.222    21.479
ATOM     19  O   UNL d   1     -13.182   1.327 -21.842 -0.01 -0.06    -0.303    21.479
ATOM     20  H   UNL d   1     -12.850   1.989 -22.477 +0.01 +0.02    +0.222    21.479
ATOM     21  O   UNL d   1      -8.607   4.884 -18.419 -0.19 -0.01    -0.278    21.479
ATOM     22  P   UNL d   1      -8.599   6.479 -18.445 -0.10 -0.03    +0.473    21.479
ATOM     23  O   UNL d   1      -9.905   7.189 -18.568 -0.03 -0.00    -0.228    21.479
ATOM     24  O   UNL d   1      -7.775   6.822 -17.127 -0.15 +0.04    -0.303    21.479
ATOM     25  H   UNL d   1      -6.905   6.350 -17.176 -0.24 -0.09    +0.222    21.479
ATOM     26  O   UNL d   1      -7.524   6.781 -19.595 -0.08 +0.05    -0.303    21.479
ATOM     27  H   UNL d   1      -7.460   6.004 -20.187 +0.05 -0.03    +0.222    21.479
ATOM     28  O   UNL d   1     -12.092   3.759 -22.535 -0.01 -0.02    -0.278    21.479
ATOM     29  P   UNL d   1     -13.312   4.438 -23.302 +0.00 +0.01    +0.473    21.479
ATOM     30  O   UNL d   1     -13.057   4.795 -24.722 +0.00 +0.00    -0.228    21.479
ATOM     31  O   UNL d   1     -14.457   3.356 -23.020 +0.00 -0.02    -0.303    21.479
ATOM     32  H   UNL d   1     -14.165   2.777 -22.279 +0.01 +0.02    +0.222    21.479
ATOM     33  O   UNL d   1     -13.703   5.628 -22.320 +0.00 -0.01    -0.303    21.479
ATOM     34  H   UNL d   1     -13.304   6.468 -22.657 +0.00 +0.00    +0.222    21.479
ATOM     35  O   UNL d   1      -7.721   3.840 -20.998 -0.18 +0.04    -0.278    21.479
ATOM     36  P   UNL d   1      -6.416   4.601 -21.508 -0.13 -0.07    +0.473    21.479
ATOM     37  O   UNL d   1      -5.676   3.935 -22.624 -0.69 +0.02    -0.228    21.479
ATOM     38  O   UNL d   1      -6.997   6.037 -21.874 -0.04 +0.03    -0.303    21.479
ATOM     39  H   UNL d   1      -7.715   5.934 -22.535 +0.03 -0.02    +0.222    21.479
ATOM     40  O   UNL d   1      -5.615   4.845 -20.156 -0.26 +0.10    -0.303    21.479
ATOM     41  H   UNL d   1      -6.218   5.053 -19.408 -0.48 -0.12    +0.222    21.479
ATOM     42  O   UNL d   1      -9.509   4.930 -23.025 -0.01 +0.01    -0.278    21.479
ATOM     43  P   UNL d   1      -9.713   6.512 -23.009 +0.00 -0.02    +0.473    21.479
ATOM     44  O   UNL d   1      -8.910   7.317 -23.970 +0.00 +0.01    -0.228    21.479
ATOM     45  O   UNL d   1     -11.287   6.662 -23.190 +0.00 +0.00    -0.303    21.479
ATOM     46  H   UNL d   1     -11.717   5.793 -23.318 +0.00 -0.00    +0.222    21.479
ATOM     47  O   UNL d   1      -9.525   6.890 -21.463 -0.01 +0.01    -0.303    21.479
ATOM     48  H   UNL d   1      -8.652   7.316 -21.339 +0.02 -0.01    +0.222    21.479
TER
ENDMDL
MODEL       84
USER    Run = 84
USER    Cluster Rank = 45
USER    Number of conformations in this cluster = 1
USER  
USER    RMSD from reference structure       = 12.676 A
USER  
USER    Estimated Free Energy of Binding    =   +2.77 kcal/mol  [=(1)+(2)+(3)-(4)]
USER    
USER    (1) Final Intermolecular Energy     =   -4.39 kcal/mol
USER        vdW + Hbond + desolv Energy     =   -4.22 kcal/mol
USER        Electrostatic Energy            =   -0.16 kcal/mol
USER    (2) Final Total Internal Energy     =  -11.72 kcal/mol
USER    (3) Torsional Free Energy           =   +7.16 kcal/mol
USER    (4) Unbound System's Energy  [=(2)] =  -11.72 kcal/mol
USER    
USER    
USER  
USER    DPF = D:/Protein_go_brrr/autodock/final/mut_K82N/IHP/dock.dpf
USER    NEWDPF move	IHP_ideal_opt.pdbqt
USER    NEWDPF about	0.035000 0.082000 -0.065000
USER    NEWDPF tran0	7.748718 -13.045947 -2.919878
USER    NEWDPF axisangle0	-0.657071 0.272685 0.702781 -171.248079
USER    NEWDPF quaternion0	-0.655156 0.271890 0.700732 -0.076301
USER    NEWDPF dihe0	-153.16 162.98 -17.18 23.61 101.25 -160.59 84.21 -138.77 96.63 126.34 90.35 -143.48 2.99 -158.41 63.88 124.03 43.05 116.27 -78.07 -59.48 35.38 -169.85 177.38 -14.30 
USER  
USER                              x       y       z    vdW   Elec        q     RMS 
ATOM      1  C   UNL d   1       7.304 -12.231  -4.377 +0.25 +0.06    +0.194    12.676
ATOM      2  C   UNL d   1       8.162 -11.422  -3.403 -0.09 +0.03    +0.194    12.676
ATOM      3  C   UNL d   1       7.695 -11.597  -1.956 -0.21 +0.03    +0.194    12.676
ATOM      4  C   UNL d   1       7.570 -13.060  -1.537 -0.17 +0.03    +0.194    12.676
ATOM      5  C   UNL d   1       6.819 -13.930  -2.537 -0.15 +0.04    +0.194    12.676
ATOM      6  C   UNL d   1       7.244 -13.710  -3.991 -0.10 +0.05    +0.194    12.676
ATOM      7  O   UNL d   1       7.905 -12.153  -5.672 -0.02 -0.05    -0.278    12.676
ATOM      8  P   UNL d   1       7.533 -13.272  -6.750 -0.03 +0.07    +0.473    12.676
ATOM      9  O   UNL d   1       6.077 -13.440  -7.009 -0.06 -0.06    -0.228    12.676
ATOM     10  O   UNL d   1       8.357 -12.847  -8.048 -0.02 -0.01    -0.303    12.676
ATOM     11  H   UNL d   1       9.284 -12.668  -7.803 +0.01 +0.00    +0.222    12.676
ATOM     12  O   UNL d   1       8.309 -14.575  -6.276 +0.00 -0.04    -0.303    12.676
ATOM     13  H   UNL d   1       7.708 -15.320  -6.049 +0.02 +0.04    +0.222    12.676
ATOM     14  O   UNL d   1       9.522 -11.864  -3.500 -0.04 -0.03    -0.278    12.676
ATOM     15  P   UNL d   1      10.315 -11.452  -4.829 -0.03 +0.03    +0.473    12.676
ATOM     16  O   UNL d   1      10.492 -12.518  -5.864 -0.01 -0.01    -0.228    12.676
ATOM     17  O   UNL d   1       9.519 -10.185  -5.378 -0.54 -0.05    -0.303    12.676
ATOM     18  H   UNL d   1       9.076 -10.388  -6.224 +0.02 +0.03    +0.222    12.676
ATOM     19  O   UNL d   1      11.656 -10.781  -4.299 -0.01 -0.01    -0.303    12.676
ATOM     20  H   UNL d   1      11.504 -10.267  -3.484 +0.02 +0.01    +0.222    12.676
ATOM     21  O   UNL d   1       6.245 -14.315  -4.808 -0.10 -0.14    -0.278    12.676
ATOM     22  P   UNL d   1       6.065 -15.901  -4.796 -0.08 +0.28    +0.473    12.676
ATOM     23  O   UNL d   1       5.052 -16.488  -3.872 -0.62 -0.27    -0.228    12.676
ATOM     24  O   UNL d   1       5.823 -16.213  -6.337 -0.04 -0.14    -0.303    12.676
ATOM     25  H   UNL d   1       6.374 -15.584  -6.869 +0.03 +0.07    +0.222    12.676
ATOM     26  O   UNL d   1       7.575 -16.398  -4.590 -0.03 -0.07    -0.303    12.676
ATOM     27  H   UNL d   1       8.087 -15.694  -4.141 +0.04 +0.04    +0.222    12.676
ATOM     28  O   UNL d   1       8.699 -11.047  -1.113 -0.13 -0.03    -0.278    12.676
ATOM     29  P   UNL d   1      10.186 -11.617  -1.155 -0.02 +0.04    +0.473    12.676
ATOM     30  O   UNL d   1      11.145 -10.842  -1.983 -0.02 -0.01    -0.228    12.676
ATOM     31  O   UNL d   1      10.492 -11.714   0.413 -0.08 -0.04    -0.303    12.676
ATOM     32  H   UNL d   1      10.932 -12.576   0.594 +0.05 +0.03    +0.222    12.676
ATOM     33  O   UNL d   1       9.949 -13.138  -1.562 -0.01 -0.03    -0.303    12.676
ATOM     34  H   UNL d   1       9.674 -13.646  -0.759 +0.07 +0.03    +0.222    12.676
ATOM     35  O   UNL d   1       7.149 -15.277  -2.203 -0.16 -0.05    -0.278    12.676
ATOM     36  P   UNL d   1       8.675 -15.718  -2.054 -0.06 +0.07    +0.473    12.676
ATOM     37  O   UNL d   1       9.273 -15.524  -0.697 -0.10 -0.03    -0.228    12.676
ATOM     38  O   UNL d   1       8.624 -17.235  -2.536 -0.08 -0.04    -0.303    12.676
ATOM     39  H   UNL d   1       7.870 -17.351  -3.154 +0.04 +0.04    +0.222    12.676
ATOM     40  O   UNL d   1       9.369 -14.956  -3.265 -0.01 -0.03    -0.303    12.676
ATOM     41  H   UNL d   1       9.608 -14.033  -3.026 +0.04 +0.02    +0.222    12.676
ATOM     42  O   UNL d   1       6.822 -13.079  -0.317 -0.35 -0.07    -0.278    12.676
ATOM     43  P   UNL d   1       7.444 -13.809   0.958 -0.17 +0.17    +0.473    12.676
ATOM     44  O   UNL d   1       6.867 -13.475   2.290 -0.61 -0.07    -0.228    12.676
ATOM     45  O   UNL d   1       7.334 -15.348   0.568 -0.69 -0.15    -0.303    12.676
ATOM     46  H   UNL d   1       7.193 -15.464  -0.393 +0.05 +0.07    +0.222    12.676
ATOM     47  O   UNL d   1       9.017 -13.545   0.799 -0.14 -0.07    -0.303    12.676
ATOM     48  H   UNL d   1       9.158 -12.655   0.415 +0.10 +0.04    +0.222    12.676
TER
ENDMDL
MODEL       38
USER    Run = 38
USER    Cluster Rank = 46
USER    Number of conformations in this cluster = 1
USER  
USER    RMSD from reference structure       = 20.131 A
USER  
USER    Estimated Free Energy of Binding    =   +2.79 kcal/mol  [=(1)+(2)+(3)-(4)]
USER    
USER    (1) Final Intermolecular Energy     =   -4.37 kcal/mol
USER        vdW + Hbond + desolv Energy     =   -4.34 kcal/mol
USER        Electrostatic Energy            =   -0.03 kcal/mol
USER    (2) Final Total Internal Energy     =  -15.12 kcal/mol
USER    (3) Torsional Free Energy           =   +7.16 kcal/mol
USER    (4) Unbound System's Energy  [=(2)] =  -15.12 kcal/mol
USER    
USER    
USER  
USER    DPF = D:/Protein_go_brrr/autodock/final/mut_K82N/IHP/dock.dpf
USER    NEWDPF move	IHP_ideal_opt.pdbqt
USER    NEWDPF about	0.035000 0.082000 -0.065000
USER    NEWDPF tran0	-1.997463 19.348986 -12.515109
USER    NEWDPF axisangle0	-0.781331 -0.400497 -0.478670 -154.698983
USER    NEWDPF quaternion0	-0.762363 -0.390774 -0.467049 -0.219003
USER    NEWDPF dihe0	113.71 81.48 54.94 56.22 -9.42 -169.98 32.95 -70.34 76.58 85.61 18.08 -152.20 146.08 157.92 7.45 91.59 143.66 -18.73 4.28 -18.15 -21.63 -22.69 -3.39 173.27 
USER  
USER                              x       y       z    vdW   Elec        q     RMS 
ATOM      1  C   UNL d   1      -1.957  20.924 -11.806 -0.09 -0.05    +0.194    20.131
ATOM      2  C   UNL d   1      -3.122  20.659 -12.761 -0.09 -0.05    +0.194    20.131
ATOM      3  C   UNL d   1      -2.667  19.916 -14.019 -0.10 -0.06    +0.194    20.131
ATOM      4  C   UNL d   1      -1.870  18.650 -13.714 -0.11 -0.09    +0.194    20.131
ATOM      5  C   UNL d   1      -0.770  18.842 -12.679 -0.16 -0.07    +0.194    20.131
ATOM      6  C   UNL d   1      -1.209  19.638 -11.449 -0.17 -0.06    +0.194    20.131
ATOM      7  O   UNL d   1      -2.488  21.459 -10.592 -0.14 +0.08    -0.278    20.131
ATOM      8  P   UNL d   1      -2.042  22.929 -10.151 -0.09 -0.12    +0.473    20.131
ATOM      9  O   UNL d   1      -2.285  23.260  -8.721 -0.23 +0.08    -0.228    20.131
ATOM     10  O   UNL d   1      -0.501  23.004 -10.560 -0.03 +0.08    -0.303    20.131
ATOM     11  H   UNL d   1      -0.053  22.179 -10.296 +0.07 -0.06    +0.222    20.131
ATOM     12  O   UNL d   1      -2.715  23.900 -11.212 -0.01 +0.05    -0.303    20.131
ATOM     13  H   UNL d   1      -3.607  23.600 -11.498 +0.03 -0.03    +0.222    20.131
ATOM     14  O   UNL d   1      -4.104  19.859 -12.089 -0.13 +0.09    -0.278    20.131
ATOM     15  P   UNL d   1      -5.515  20.556 -11.795 -0.11 -0.06    +0.473    20.131
ATOM     16  O   UNL d   1      -6.219  20.146 -10.539 -0.23 -0.01    -0.228    20.131
ATOM     17  O   UNL d   1      -5.195  22.116 -11.843 -0.04 +0.03    -0.303    20.131
ATOM     18  H   UNL d   1      -4.345  22.314 -11.405 +0.05 -0.03    +0.222    20.131
ATOM     19  O   UNL d   1      -6.342  20.359 -13.140 -0.05 +0.03    -0.303    20.131
ATOM     20  H   UNL d   1      -5.808  19.927 -13.832 +0.05 -0.04    +0.222    20.131
ATOM     21  O   UNL d   1      -0.021  20.023 -10.761 -0.09 +0.08    -0.278    20.131
ATOM     22  P   UNL d   1       0.171  19.625  -9.228 -0.23 -0.15    +0.473    20.131
ATOM     23  O   UNL d   1      -0.321  18.290  -8.780 -0.35 +0.08    -0.228    20.131
ATOM     24  O   UNL d   1       1.731  19.865  -9.023 -0.26 +0.10    -0.303    20.131
ATOM     25  H   UNL d   1       2.218  19.116  -9.453 +0.08 -0.08    +0.222    20.131
ATOM     26  O   UNL d   1      -0.460  20.894  -8.480 -0.78 +0.09    -0.303    20.131
ATOM     27  H   UNL d   1      -0.997  21.409  -9.117 +0.01 -0.09    +0.222    20.131
ATOM     28  O   UNL d   1      -3.833  19.474 -14.701 -0.09 +0.10    -0.278    20.131
ATOM     29  P   UNL d   1      -4.554  20.422 -15.759 -0.00 -0.11    +0.473    20.131
ATOM     30  O   UNL d   1      -3.769  20.731 -16.981 -0.01 +0.06    -0.228    20.131
ATOM     31  O   UNL d   1      -5.926  19.622 -15.959 -0.01 +0.06    -0.303    20.131
ATOM     32  H   UNL d   1      -6.552  19.888 -15.246 +0.03 -0.03    +0.222    20.131
ATOM     33  O   UNL d   1      -4.995  21.656 -14.855 -0.00 +0.04    -0.303    20.131
ATOM     34  H   UNL d   1      -4.873  21.417 -13.903 +0.03 -0.03    +0.222    20.131
ATOM     35  O   UNL d   1      -0.426  17.533 -12.231 -0.18 +0.10    -0.278    20.131
ATOM     36  P   UNL d   1       1.093  17.047 -12.256 -0.19 -0.18    +0.473    20.131
ATOM     37  O   UNL d   1       1.313  15.601 -11.943 -0.36 +0.09    -0.228    20.131
ATOM     38  O   UNL d   1       1.549  17.476 -13.720 -0.11 +0.16    -0.303    20.131
ATOM     39  H   UNL d   1       0.830  17.995 -14.141 +0.05 -0.13    +0.222    20.131
ATOM     40  O   UNL d   1       1.804  18.107 -11.307 -0.09 +0.09    -0.303    20.131
ATOM     41  H   UNL d   1       1.280  18.277 -10.494 +0.12 -0.07    +0.222    20.131
ATOM     42  O   UNL d   1      -1.236  18.255 -14.936 -0.15 +0.23    -0.278    20.131
ATOM     43  P   UNL d   1      -0.178  19.242 -15.608 -0.06 -0.24    +0.473    20.131
ATOM     44  O   UNL d   1       0.554  20.179 -14.711 -0.02 +0.07    -0.228    20.131
ATOM     45  O   UNL d   1       0.764  18.245 -16.416 -0.08 +0.21    -0.303    20.131
ATOM     46  H   UNL d   1       1.132  17.550 -15.834 +0.01 -0.20    +0.222    20.131
ATOM     47  O   UNL d   1      -1.016  19.927 -16.790 -0.02 +0.12    -0.303    20.131
ATOM     48  H   UNL d   1      -1.967  19.927 -16.553 +0.02 -0.09    +0.222    20.131
TER
ENDMDL
MODEL       62
USER    Run = 62
USER    Cluster Rank = 47
USER    Number of conformations in this cluster = 1
USER  
USER    RMSD from reference structure       = 13.589 A
USER  
USER    Estimated Free Energy of Binding    =   +2.83 kcal/mol  [=(1)+(2)+(3)-(4)]
USER    
USER    (1) Final Intermolecular Energy     =   -4.33 kcal/mol
USER        vdW + Hbond + desolv Energy     =   -4.11 kcal/mol
USER        Electrostatic Energy            =   -0.22 kcal/mol
USER    (2) Final Total Internal Energy     =  -14.06 kcal/mol
USER    (3) Torsional Free Energy           =   +7.16 kcal/mol
USER    (4) Unbound System's Energy  [=(2)] =  -14.06 kcal/mol
USER    
USER    
USER  
USER    DPF = D:/Protein_go_brrr/autodock/final/mut_K82N/IHP/dock.dpf
USER    NEWDPF move	IHP_ideal_opt.pdbqt
USER    NEWDPF about	0.035000 0.082000 -0.065000
USER    NEWDPF tran0	10.305332 -14.152621 -2.124975
USER    NEWDPF axisangle0	-0.852787 -0.474799 -0.217533 -150.537742
USER    NEWDPF quaternion0	-0.824755 -0.459192 -0.210383 -0.254283
USER    NEWDPF dihe0	94.33 -132.51 -162.01 -33.61 19.08 -152.48 -105.69 -40.03 103.40 13.39 -7.03 -158.35 -81.00 180.00 -54.40 -14.31 124.17 -12.91 63.67 19.98 -180.00 16.03 -5.63 -179.53 
USER  
USER                              x       y       z    vdW   Elec        q     RMS 
ATOM      1  C   UNL d   1      10.241 -12.454  -1.815 -0.03 +0.02    +0.194    13.589
ATOM      2  C   UNL d   1       8.893 -13.131  -2.069 -0.05 +0.02    +0.194    13.589
ATOM      3  C   UNL d   1       8.966 -14.118  -3.236 -0.02 +0.02    +0.194    13.589
ATOM      4  C   UNL d   1      10.102 -15.129  -3.099 -0.00 +0.02    +0.194    13.589
ATOM      5  C   UNL d   1      11.444 -14.508  -2.733 +0.00 +0.01    +0.194    13.589
ATOM      6  C   UNL d   1      11.361 -13.475  -1.607 -0.01 +0.01    +0.194    13.589
ATOM      7  O   UNL d   1      10.135 -11.686  -0.614 -0.05 -0.03    -0.278    13.589
ATOM      8  P   UNL d   1       9.030 -10.536  -0.544 -0.14 +0.04    +0.473    13.589
ATOM      9  O   UNL d   1       8.690  -9.907  -1.849 -0.14 -0.02    -0.228    13.589
ATOM     10  O   UNL d   1       7.782 -11.240   0.158 -0.27 -0.03    -0.303    13.589
ATOM     11  H   UNL d   1       7.454 -11.963  -0.409 +0.13 +0.03    +0.222    13.589
ATOM     12  O   UNL d   1       9.535  -9.546   0.592 -0.27 -0.02    -0.303    13.589
ATOM     13  H   UNL d   1       8.914  -8.802   0.760 +0.01 -0.01    +0.222    13.589
ATOM     14  O   UNL d   1       8.500 -13.845  -0.891 -0.09 -0.05    -0.278    13.589
ATOM     15  P   UNL d   1       6.926 -14.019  -0.651 -0.20 +0.12    +0.473    13.589
ATOM     16  O   UNL d   1       6.387 -13.528   0.656 -0.77 -0.10    -0.228    13.589
ATOM     17  O   UNL d   1       6.261 -13.295  -1.905 -0.20 -0.07    -0.303    13.589
ATOM     18  H   UNL d   1       5.955 -13.946  -2.565 -0.29 +0.06    +0.222    13.589
ATOM     19  O   UNL d   1       6.642 -15.550  -0.979 -0.20 -0.06    -0.303    13.589
ATOM     20  H   UNL d   1       6.371 -15.676  -1.907 -0.46 +0.02    +0.222    13.589
ATOM     21  O   UNL d   1      12.591 -12.753  -1.618 -0.00 -0.01    -0.278    13.589
ATOM     22  P   UNL d   1      12.835 -11.620  -2.714 +0.00 +0.01    +0.473    13.589
ATOM     23  O   UNL d   1      12.069 -11.699  -3.992 -0.00 -0.00    -0.228    13.589
ATOM     24  O   UNL d   1      12.591 -10.293  -1.870 -0.00 -0.01    -0.303    13.589
ATOM     25  H   UNL d   1      11.754 -10.407  -1.352 +0.03 +0.01    +0.222    13.589
ATOM     26  O   UNL d   1      14.432 -11.637  -2.850 +0.00 -0.00    -0.303    13.589
ATOM     27  H   UNL d   1      14.757 -12.552  -2.719 +0.00 +0.00    +0.222    13.589
ATOM     28  O   UNL d   1       7.771 -14.890  -3.220 -0.06 -0.05    -0.278    13.589
ATOM     29  P   UNL d   1       6.867 -15.001  -4.526 -0.05 +0.17    +0.473    13.589
ATOM     30  O   UNL d   1       6.712 -13.746  -5.306 -0.08 -0.08    -0.228    13.589
ATOM     31  O   UNL d   1       7.587 -16.228  -5.260 -0.01 -0.07    -0.303    13.589
ATOM     32  H   UNL d   1       8.546 -16.021  -5.350 +0.02 +0.03    +0.222    13.589
ATOM     33  O   UNL d   1       5.536 -15.663  -3.956 -0.43 -0.26    -0.303    13.589
ATOM     34  H   UNL d   1       5.508 -15.535  -2.976 -0.52 +0.07    +0.222    13.589
ATOM     35  O   UNL d   1      12.251 -15.583  -2.257 -0.00 -0.01    -0.278    13.589
ATOM     36  P   UNL d   1      13.675 -15.872  -2.915 -0.00 +0.01    +0.473    13.589
ATOM     37  O   UNL d   1      14.543 -16.839  -2.175 +0.00 -0.00    -0.228    13.589
ATOM     38  O   UNL d   1      13.267 -16.347  -4.379 +0.00 -0.00    -0.303    13.589
ATOM     39  H   UNL d   1      12.459 -15.866  -4.660 +0.00 +0.00    +0.222    13.589
ATOM     40  O   UNL d   1      14.252 -14.406  -3.136 +0.00 -0.00    -0.303    13.589
ATOM     41  H   UNL d   1      13.533 -13.748  -3.264 +0.00 +0.00    +0.222    13.589
ATOM     42  O   UNL d   1      10.261 -15.749  -4.379 +0.00 -0.02    -0.278    13.589
ATOM     43  P   UNL d   1      10.842 -14.886  -5.588 +0.01 +0.02    +0.473    13.589
ATOM     44  O   UNL d   1      11.839 -13.829  -5.261 +0.00 -0.00    -0.228    13.589
ATOM     45  O   UNL d   1      11.380 -16.002  -6.587 +0.00 -0.00    -0.303    13.589
ATOM     46  H   UNL d   1      12.255 -16.339  -6.310 +0.00 +0.00    +0.222    13.589
ATOM     47  O   UNL d   1       9.522 -14.381  -6.345 +0.00 -0.02    -0.303    13.589
ATOM     48  H   UNL d   1       8.760 -14.431  -5.731 +0.02 +0.03    +0.222    13.589
TER
ENDMDL
MODEL       47
USER    Run = 47
USER    Cluster Rank = 48
USER    Number of conformations in this cluster = 1
USER  
USER    RMSD from reference structure       = 15.355 A
USER  
USER    Estimated Free Energy of Binding    =   +2.84 kcal/mol  [=(1)+(2)+(3)-(4)]
USER    
USER    (1) Final Intermolecular Energy     =   -4.32 kcal/mol
USER        vdW + Hbond + desolv Energy     =   -4.22 kcal/mol
USER        Electrostatic Energy            =   -0.10 kcal/mol
USER    (2) Final Total Internal Energy     =  -14.64 kcal/mol
USER    (3) Torsional Free Energy           =   +7.16 kcal/mol
USER    (4) Unbound System's Energy  [=(2)] =  -14.64 kcal/mol
USER    
USER    
USER  
USER    DPF = D:/Protein_go_brrr/autodock/final/mut_K82N/IHP/dock.dpf
USER    NEWDPF move	IHP_ideal_opt.pdbqt
USER    NEWDPF about	0.035000 0.082000 -0.065000
USER    NEWDPF tran0	-8.500218 0.629045 15.306604
USER    NEWDPF axisangle0	0.345888 -0.565565 -0.748664 -118.729923
USER    NEWDPF quaternion0	0.297612 -0.486630 -0.644173 -0.509568
USER    NEWDPF dihe0	-100.45 -10.96 49.38 55.19 12.09 -110.06 171.70 -94.52 21.36 47.99 95.00 114.31 -134.69 156.34 -37.03 105.08 148.38 37.42 26.12 -17.91 172.89 -26.48 -11.91 -17.53 
USER  
USER                              x       y       z    vdW   Elec        q     RMS 
ATOM      1  C   UNL d   1      -9.902  -0.294  14.898 -0.07 -0.04    +0.194    15.355
ATOM      2  C   UNL d   1      -9.494   0.773  13.881 -0.12 -0.05    +0.194    15.355
ATOM      3  C   UNL d   1      -9.099   2.085  14.563 -0.13 -0.04    +0.194    15.355
ATOM      4  C   UNL d   1      -8.052   1.901  15.659 -0.20 -0.05    +0.194    15.355
ATOM      5  C   UNL d   1      -8.363   0.770  16.630 -0.14 -0.05    +0.194    15.355
ATOM      6  C   UNL d   1      -8.817  -0.524  15.950 -0.03 -0.07    +0.194    15.355
ATOM      7  O   UNL d   1     -10.086  -1.528  14.200 -0.05 +0.06    -0.278    15.355
ATOM      8  P   UNL d   1     -11.566  -1.937  13.758 +0.00 -0.06    +0.473    15.355
ATOM      9  O   UNL d   1     -12.381  -2.594  14.816 -0.00 +0.02    -0.228    15.355
ATOM     10  O   UNL d   1     -12.203  -0.572  13.231 -0.00 +0.03    -0.303    15.355
ATOM     11  H   UNL d   1     -12.195  -0.563  12.256 +0.01 -0.03    +0.222    15.355
ATOM     12  O   UNL d   1     -11.382  -2.760  12.412 -0.00 +0.04    -0.303    15.355
ATOM     13  H   UNL d   1     -10.896  -2.260  11.718 +0.03 -0.03    +0.222    15.355
ATOM     14  O   UNL d   1      -8.372   0.295  13.127 -0.21 +0.11    -0.278    15.355
ATOM     15  P   UNL d   1      -8.621   0.019  11.570 -0.10 -0.15    +0.473    15.355
ATOM     16  O   UNL d   1      -7.828  -1.087  10.948 -0.30 +0.07    -0.228    15.355
ATOM     17  O   UNL d   1     -10.194  -0.214  11.464 -0.04 +0.05    -0.303    15.355
ATOM     18  H   UNL d   1     -10.506  -0.823  12.160 +0.05 -0.04    +0.222    15.355
ATOM     19  O   UNL d   1      -8.463   1.446  10.884 -0.66 +0.06    -0.303    15.355
ATOM     20  H   UNL d   1      -8.329   2.150  11.545 -0.23 -0.05    +0.222    15.355
ATOM     21  O   UNL d   1      -9.386  -1.346  16.967 -0.07 +0.07    -0.278    15.355
ATOM     22  P   UNL d   1     -10.787  -0.944  17.617 -0.01 -0.06    +0.473    15.355
ATOM     23  O   UNL d   1     -11.385   0.371  17.247 -0.01 +0.02    -0.228    15.355
ATOM     24  O   UNL d   1     -11.685  -2.209  17.262 -0.00 +0.03    -0.303    15.355
ATOM     25  H   UNL d   1     -11.637  -2.356  16.283 +0.01 -0.02    +0.222    15.355
ATOM     26  O   UNL d   1     -10.498  -1.171  19.177 -0.01 +0.03    -0.303    15.355
ATOM     27  H   UNL d   1      -9.952  -0.431  19.514 +0.01 -0.02    +0.222    15.355
ATOM     28  O   UNL d   1      -8.479   2.907  13.583 -0.23 +0.06    -0.278    15.355
ATOM     29  P   UNL d   1      -9.364   3.806  12.610 -0.18 -0.09    +0.473    15.355
ATOM     30  O   UNL d   1      -9.876   5.071  13.197 -0.16 +0.05    -0.228    15.355
ATOM     31  O   UNL d   1      -8.368   3.934  11.364 -0.17 +0.01    -0.303    15.355
ATOM     32  H   UNL d   1      -8.377   4.867  11.050 -0.34 -0.09    +0.222    15.355
ATOM     33  O   UNL d   1     -10.449   2.764  12.088 -0.07 +0.05    -0.303    15.355
ATOM     34  H   UNL d   1     -10.022   1.878  11.990 +0.07 -0.04    +0.222    15.355
ATOM     35  O   UNL d   1      -7.135   0.485  17.298 -0.20 +0.07    -0.278    15.355
ATOM     36  P   UNL d   1      -7.019   0.660  18.879 -0.10 -0.06    +0.473    15.355
ATOM     37  O   UNL d   1      -5.629   0.625  19.431 -0.15 +0.01    -0.228    15.355
ATOM     38  O   UNL d   1      -7.780   2.040  19.111 -0.02 +0.04    -0.303    15.355
ATOM     39  H   UNL d   1      -7.441   2.705  18.474 +0.04 -0.03    +0.222    15.355
ATOM     40  O   UNL d   1      -8.038  -0.435  19.418 -0.03 +0.03    -0.303    15.355
ATOM     41  H   UNL d   1      -8.392  -0.993  18.690 +0.03 -0.03    +0.222    15.355
ATOM     42  O   UNL d   1      -8.031   3.115  16.419 -0.07 +0.05    -0.278    15.355
ATOM     43  P   UNL d   1      -6.633   3.837  16.678 -0.12 -0.11    +0.473    15.355
ATOM     44  O   UNL d   1      -6.111   4.729  15.604 -0.19 +0.04    -0.228    15.355
ATOM     45  O   UNL d   1      -6.870   4.567  18.072 -0.02 +0.05    -0.303    15.355
ATOM     46  H   UNL d   1      -7.598   4.150  18.575 +0.03 -0.03    +0.222    15.355
ATOM     47  O   UNL d   1      -5.669   2.629  17.102 -0.14 +0.10    -0.303    15.355
ATOM     48  H   UNL d   1      -5.964   2.268  17.964 +0.05 -0.05    +0.222    15.355
TER
ENDMDL
MODEL       25
USER    Run = 25
USER    Cluster Rank = 49
USER    Number of conformations in this cluster = 1
USER  
USER    RMSD from reference structure       = 13.799 A
USER  
USER    Estimated Free Energy of Binding    =   +2.84 kcal/mol  [=(1)+(2)+(3)-(4)]
USER    
USER    (1) Final Intermolecular Energy     =   -4.32 kcal/mol
USER        vdW + Hbond + desolv Energy     =   -4.07 kcal/mol
USER        Electrostatic Energy            =   -0.25 kcal/mol
USER    (2) Final Total Internal Energy     =  -13.46 kcal/mol
USER    (3) Torsional Free Energy           =   +7.16 kcal/mol
USER    (4) Unbound System's Energy  [=(2)] =  -13.46 kcal/mol
USER    
USER    
USER  
USER    DPF = D:/Protein_go_brrr/autodock/final/mut_K82N/IHP/dock.dpf
USER    NEWDPF move	IHP_ideal_opt.pdbqt
USER    NEWDPF about	0.035000 0.082000 -0.065000
USER    NEWDPF tran0	-12.858476 11.342674 -5.025449
USER    NEWDPF axisangle0	-0.474608 0.858269 0.195247 -81.268147
USER    NEWDPF quaternion0	-0.309077 0.558927 0.127150 -0.758884
USER    NEWDPF dihe0	125.81 110.99 68.28 35.28 -2.48 -169.71 -146.57 -25.58 140.36 2.77 138.98 -143.35 -45.13 167.11 175.73 66.53 -179.89 -8.34 48.38 -14.20 176.36 152.77 14.76 135.30 
USER  
USER                              x       y       z    vdW   Elec        q     RMS 
ATOM      1  C   UNL d   1     -11.342  10.945  -5.751 -0.11 +0.05    +0.194    13.799
ATOM      2  C   UNL d   1     -11.621  10.286  -4.399 -0.13 +0.05    +0.194    13.799
ATOM      3  C   UNL d   1     -12.232  11.273  -3.403 -0.13 +0.04    +0.194    13.799
ATOM      4  C   UNL d   1     -13.456  12.002  -3.952 -0.05 +0.04    +0.194    13.799
ATOM      5  C   UNL d   1     -13.259  12.578  -5.349 -0.05 +0.05    +0.194    13.799
ATOM      6  C   UNL d   1     -12.591  11.611  -6.329 -0.04 +0.05    +0.194    13.799
ATOM      7  O   UNL d   1     -10.938   9.927  -6.669 -0.06 -0.08    -0.278    13.799
ATOM      8  P   UNL d   1      -9.472   9.311  -6.523 -0.12 +0.16    +0.473    13.799
ATOM      9  O   UNL d   1      -8.713   9.766  -5.326 -0.45 -0.07    -0.228    13.799
ATOM     10  O   UNL d   1      -9.710   7.733  -6.553 -0.51 -0.20    -0.303    13.799
ATOM     11  H   UNL d   1     -10.574   7.526  -6.151 +0.06 +0.18    +0.222    13.799
ATOM     12  O   UNL d   1      -8.774   9.568  -7.927 -0.15 -0.06    -0.303    13.799
ATOM     13  H   UNL d   1      -8.634  10.523  -8.119 +0.10 +0.04    +0.222    13.799
ATOM     14  O   UNL d   1     -12.538   9.201  -4.589 -0.04 -0.09    -0.278    13.799
ATOM     15  P   UNL d   1     -12.002   7.738  -4.224 -0.11 +0.28    +0.473    13.799
ATOM     16  O   UNL d   1     -12.348   6.637  -5.178 -0.50 -0.30    -0.228    13.799
ATOM     17  O   UNL d   1     -10.430   7.933  -4.052 -0.50 -0.17    -0.303    13.799
ATOM     18  H   UNL d   1     -10.107   8.680  -4.591 +0.10 +0.11    +0.222    13.799
ATOM     19  O   UNL d   1     -12.462   7.511  -2.718 -0.12 -0.12    -0.303    13.799
ATOM     20  H   UNL d   1     -12.591   8.356  -2.249 +0.08 +0.06    +0.222    13.799
ATOM     21  O   UNL d   1     -12.171  12.386  -7.450 -0.04 -0.09    -0.278    13.799
ATOM     22  P   UNL d   1     -10.904  13.346  -7.320 -0.18 +0.26    +0.473    13.799
ATOM     23  O   UNL d   1     -10.822  14.532  -8.220 -0.49 -0.24    -0.228    13.799
ATOM     24  O   UNL d   1     -10.913  13.687  -5.765 -0.08 -0.19    -0.303    13.799
ATOM     25  H   UNL d   1     -11.705  14.253  -5.578 +0.06 +0.15    +0.222    13.799
ATOM     26  O   UNL d   1      -9.692  12.301  -7.422 -0.21 -0.10    -0.303    13.799
ATOM     27  H   UNL d   1     -10.027  11.455  -7.785 +0.09 +0.06    +0.222    13.799
ATOM     28  O   UNL d   1     -12.708  10.522  -2.293 -0.09 -0.05    -0.278    13.799
ATOM     29  P   UNL d   1     -14.240  10.095  -2.208 -0.01 +0.08    +0.473    13.799
ATOM     30  O   UNL d   1     -14.853   9.647  -3.485 -0.01 -0.04    -0.228    13.799
ATOM     31  O   UNL d   1     -14.166   9.023  -1.022 -0.04 -0.05    -0.303    13.799
ATOM     32  H   UNL d   1     -14.077   8.124  -1.417 +0.05 +0.04    +0.222    13.799
ATOM     33  O   UNL d   1     -14.900  11.359  -1.498 -0.02 -0.04    -0.303    13.799
ATOM     34  H   UNL d   1     -14.420  12.175  -1.784 +0.03 +0.03    +0.222    13.799
ATOM     35  O   UNL d   1     -14.569  12.842  -5.847 -0.01 -0.06    -0.278    13.799
ATOM     36  P   UNL d   1     -14.833  14.098  -6.793 -0.00 +0.11    +0.473    13.799
ATOM     37  O   UNL d   1     -16.052  14.903  -6.473 -0.00 -0.04    -0.228    13.799
ATOM     38  O   UNL d   1     -13.464  14.901  -6.658 -0.06 -0.15    -0.303    13.799
ATOM     39  H   UNL d   1     -12.752  14.401  -7.114 +0.04 +0.13    +0.222    13.799
ATOM     40  O   UNL d   1     -14.756  13.452  -8.245 -0.00 -0.06    -0.303    13.799
ATOM     41  H   UNL d   1     -14.048  12.773  -8.304 +0.02 +0.05    +0.222    13.799
ATOM     42  O   UNL d   1     -13.711  13.104  -3.075 -0.04 -0.05    -0.278    13.799
ATOM     43  P   UNL d   1     -12.509  13.691  -2.204 -0.14 +0.10    +0.473    13.799
ATOM     44  O   UNL d   1     -11.163  13.745  -2.840 -0.18 -0.08    -0.228    13.799
ATOM     45  O   UNL d   1     -13.070  15.107  -1.745 -0.09 -0.06    -0.303    13.799
ATOM     46  H   UNL d   1     -13.836  15.011  -1.144 +0.05 +0.03    +0.222    13.799
ATOM     47  O   UNL d   1     -12.598  12.848  -0.843 -0.06 -0.05    -0.303    13.799
ATOM     48  H   UNL d   1     -12.876  11.932  -1.049 +0.06 +0.04    +0.222    13.799
TER
ENDMDL
MODEL       49
USER    Run = 49
USER    Cluster Rank = 50
USER    Number of conformations in this cluster = 1
USER  
USER    RMSD from reference structure       = 14.462 A
USER  
USER    Estimated Free Energy of Binding    =   +2.91 kcal/mol  [=(1)+(2)+(3)-(4)]
USER    
USER    (1) Final Intermolecular Energy     =   -4.25 kcal/mol
USER        vdW + Hbond + desolv Energy     =   -4.06 kcal/mol
USER        Electrostatic Energy            =   -0.20 kcal/mol
USER    (2) Final Total Internal Energy     =  -14.50 kcal/mol
USER    (3) Torsional Free Energy           =   +7.16 kcal/mol
USER    (4) Unbound System's Energy  [=(2)] =  -14.50 kcal/mol
USER    
USER    
USER  
USER    DPF = D:/Protein_go_brrr/autodock/final/mut_K82N/IHP/dock.dpf
USER    NEWDPF move	IHP_ideal_opt.pdbqt
USER    NEWDPF about	0.035000 0.082000 -0.065000
USER    NEWDPF tran0	6.215467 -12.998029 -9.826786
USER    NEWDPF axisangle0	-0.601278 0.743867 0.291765 166.319976
USER    NEWDPF quaternion0	-0.596998 0.738573 0.289689 0.119097
USER    NEWDPF dihe0	97.22 54.69 179.73 -7.82 13.84 -160.56 -100.75 -11.35 55.88 -2.87 33.01 63.03 151.58 179.79 -62.74 -9.40 137.84 -95.68 51.83 13.16 176.05 -3.60 -2.53 160.53 
USER  
USER                              x       y       z    vdW   Elec        q     RMS 
ATOM      1  C   UNL d   1       6.200 -14.069 -11.182 -0.00 -0.00    +0.194    14.462
ATOM      2  C   UNL d   1       7.369 -13.084 -11.131 -0.01 -0.01    +0.194    14.462
ATOM      3  C   UNL d   1       6.911 -11.681 -10.728 -0.04 -0.01    +0.194    14.462
ATOM      4  C   UNL d   1       6.086 -11.664  -9.444 -0.10 +0.01    +0.194    14.462
ATOM      5  C   UNL d   1       4.979 -12.710  -9.403 -0.08 +0.02    +0.194    14.462
ATOM      6  C   UNL d   1       5.423 -14.099  -9.865 -0.01 +0.02    +0.194    14.462
ATOM      7  O   UNL d   1       6.730 -15.380 -11.393 +0.00 +0.00    -0.278    14.462
ATOM      8  P   UNL d   1       7.351 -15.726 -12.824 +0.01 -0.02    +0.473    14.462
ATOM      9  O   UNL d   1       7.382 -17.175 -13.165 +0.00 +0.01    -0.228    14.462
ATOM     10  O   UNL d   1       6.481 -14.860 -13.843 -0.01 +0.02    -0.303    14.462
ATOM     11  H   UNL d   1       5.545 -15.128 -13.784 +0.02 -0.02    +0.222    14.462
ATOM     12  O   UNL d   1       8.750 -14.975 -12.860 +0.00 +0.02    -0.303    14.462
ATOM     13  H   UNL d   1       9.009 -14.600 -11.988 +0.00 -0.01    +0.222    14.462
ATOM     14  O   UNL d   1       8.327 -13.545 -10.171 +0.00 +0.00    -0.278    14.462
ATOM     15  P   UNL d   1       9.869 -13.278 -10.512 +0.01 -0.02    +0.473    14.462
ATOM     16  O   UNL d   1      10.772 -14.471 -10.521 +0.00 +0.01    -0.228    14.462
ATOM     17  O   UNL d   1       9.830 -12.522 -11.914 +0.00 +0.02    -0.303    14.462
ATOM     18  H   UNL d   1       9.683 -11.565 -11.794 +0.01 -0.02    +0.222    14.462
ATOM     19  O   UNL d   1      10.295 -12.103  -9.528 +0.00 +0.01    -0.303    14.462
ATOM     20  H   UNL d   1       9.846 -11.266  -9.750 +0.01 -0.01    +0.222    14.462
ATOM     21  O   UNL d   1       4.236 -14.855 -10.098 -0.02 -0.03    -0.278    14.462
ATOM     22  P   UNL d   1       3.345 -14.553 -11.386 -0.05 +0.02    +0.473    14.462
ATOM     23  O   UNL d   1       3.285 -13.150 -11.889 -0.16 +0.01    -0.228    14.462
ATOM     24  O   UNL d   1       3.912 -15.613 -12.429 -0.02 +0.00    -0.303    14.462
ATOM     25  H   UNL d   1       4.897 -15.512 -12.467 +0.03 -0.00    +0.222    14.462
ATOM     26  O   UNL d   1       1.943 -15.212 -10.973 -0.23 -0.05    -0.303    14.462
ATOM     27  H   UNL d   1       1.872 -15.234  -9.997 +0.04 +0.06    +0.222    14.462
ATOM     28  O   UNL d   1       8.075 -10.917 -10.439 -0.02 +0.02    -0.278    14.462
ATOM     29  P   UNL d   1       8.564  -9.784 -11.447 -0.01 -0.05    +0.473    14.462
ATOM     30  O   UNL d   1       8.356 -10.076 -12.889 -0.09 +0.02    -0.228    14.462
ATOM     31  O   UNL d   1       7.790  -8.520 -10.843 -0.04 +0.04    -0.303    14.462
ATOM     32  H   UNL d   1       6.845  -8.764 -10.711 +0.07 -0.03    +0.222    14.462
ATOM     33  O   UNL d   1      10.063  -9.539 -10.971 -0.00 +0.03    -0.303    14.462
ATOM     34  H   UNL d   1      10.515 -10.413 -10.869 +0.01 -0.02    +0.222    14.462
ATOM     35  O   UNL d   1       4.604 -12.823  -8.032 -0.09 -0.07    -0.278    14.462
ATOM     36  P   UNL d   1       3.073 -12.695  -7.603 -0.17 +0.17    +0.473    14.462
ATOM     37  O   UNL d   1       2.805 -12.779  -6.134 -0.31 -0.18    -0.228    14.462
ATOM     38  O   UNL d   1       2.665 -11.304  -8.264 -0.34 -0.02    -0.303    14.462
ATOM     39  H   UNL d   1       3.479 -10.825  -8.532 +0.08 +0.02    +0.222    14.462
ATOM     40  O   UNL d   1       2.369 -13.780  -8.529 -0.73 -0.15    -0.303    14.462
ATOM     41  H   UNL d   1       2.695 -13.735  -9.455 +0.07 +0.06    +0.222    14.462
ATOM     42  O   UNL d   1       5.455 -10.381  -9.373 -0.19 -0.00    -0.278    14.462
ATOM     43  P   UNL d   1       4.672  -9.835 -10.651 -0.23 -0.05    +0.473    14.462
ATOM     44  O   UNL d   1       5.382  -9.874 -11.960 -0.60 +0.01    -0.228    14.462
ATOM     45  O   UNL d   1       3.321 -10.675 -10.618 -0.30 +0.03    -0.303    14.462
ATOM     46  H   UNL d   1       3.485 -11.606 -10.365 +0.11 -0.00    +0.222    14.462
ATOM     47  O   UNL d   1       4.167  -8.388 -10.181 -0.26 +0.07    -0.303    14.462
ATOM     48  H   UNL d   1       3.188  -8.368 -10.192 -0.44 -0.11    +0.222    14.462
TER
ENDMDL
MODEL        2
USER    Run = 2
USER    Cluster Rank = 51
USER    Number of conformations in this cluster = 1
USER  
USER    RMSD from reference structure       = 11.840 A
USER  
USER    Estimated Free Energy of Binding    =   +2.93 kcal/mol  [=(1)+(2)+(3)-(4)]
USER    
USER    (1) Final Intermolecular Energy     =   -4.23 kcal/mol
USER        vdW + Hbond + desolv Energy     =   -3.97 kcal/mol
USER        Electrostatic Energy            =   -0.25 kcal/mol
USER    (2) Final Total Internal Energy     =  -14.70 kcal/mol
USER    (3) Torsional Free Energy           =   +7.16 kcal/mol
USER    (4) Unbound System's Energy  [=(2)] =  -14.70 kcal/mol
USER    
USER    
USER  
USER    DPF = D:/Protein_go_brrr/autodock/final/mut_K82N/IHP/dock.dpf
USER    NEWDPF move	IHP_ideal_opt.pdbqt
USER    NEWDPF about	0.035000 0.082000 -0.065000
USER    NEWDPF tran0	-13.629099 5.715378 -3.473054
USER    NEWDPF axisangle0	0.563357 -0.437360 -0.700961 -177.006298
USER    NEWDPF quaternion0	0.563164 -0.437211 -0.700721 -0.026122
USER    NEWDPF dihe0	-130.94 -21.47 -137.45 3.62 19.79 178.26 -90.67 -34.79 102.64 -48.30 175.82 87.45 36.97 165.36 168.49 -151.13 -124.85 178.87 -8.41 -8.42 -23.79 -24.29 -4.63 24.52 
USER  
USER                              x       y       z    vdW   Elec        q     RMS 
ATOM      1  C   UNL d   1     -14.323   6.061  -5.017 -0.07 +0.15    +0.194    11.840
ATOM      2  C   UNL d   1     -13.202   7.002  -4.570 -0.10 +0.14    +0.194    11.840
ATOM      3  C   UNL d   1     -13.342   7.391  -3.097 -0.10 +0.08    +0.194    11.840
ATOM      4  C   UNL d   1     -13.490   6.188  -2.169 -0.13 +0.08    +0.194    11.840
ATOM      5  C   UNL d   1     -14.518   5.165  -2.637 -0.09 +0.08    +0.194    11.840
ATOM      6  C   UNL d   1     -14.417   4.823  -4.125 -0.08 +0.15    +0.194    11.840
ATOM      7  O   UNL d   1     -14.027   5.611  -6.341 -0.38 -0.31    -0.278    11.840
ATOM      8  P   UNL d   1     -15.177   5.697  -7.447 -0.01 +0.22    +0.473    11.840
ATOM      9  O   UNL d   1     -15.241   6.984  -8.191 +0.00 -0.07    -0.228    11.840
ATOM     10  O   UNL d   1     -14.901   4.440  -8.389 -0.01 -0.15    -0.303    11.840
ATOM     11  H   UNL d   1     -15.130   3.619  -7.915 +0.01 +0.11    +0.222    11.840
ATOM     12  O   UNL d   1     -16.507   5.263  -6.694 +0.00 -0.09    -0.303    11.840
ATOM     13  H   UNL d   1     -16.503   4.320  -6.416 +0.01 +0.07    +0.222    11.840
ATOM     14  O   UNL d   1     -11.942   6.345  -4.751 -0.16 -0.43    -0.278    11.840
ATOM     15  P   UNL d   1     -10.871   7.093  -5.678 -0.11 +0.50    +0.473    11.840
ATOM     16  O   UNL d   1     -10.082   6.237  -6.619 -0.58 -0.34    -0.228    11.840
ATOM     17  O   UNL d   1     -11.722   8.212  -6.428 -0.05 -0.16    -0.303    11.840
ATOM     18  H   UNL d   1     -11.321   9.094  -6.313 +0.07 +0.09    +0.222    11.840
ATOM     19  O   UNL d   1     -10.013   7.969  -4.665 -0.70 -0.21    -0.303    11.840
ATOM     20  H   UNL d   1     -10.576   8.569  -4.141 +0.11 +0.10    +0.222    11.840
ATOM     21  O   UNL d   1     -15.623   4.146  -4.474 -0.03 -0.12    -0.278    11.840
ATOM     22  P   UNL d   1     -15.552   2.717  -5.180 -0.04 +0.21    +0.473    11.840
ATOM     23  O   UNL d   1     -16.761   2.229  -5.905 -0.00 -0.05    -0.228    11.840
ATOM     24  O   UNL d   1     -14.247   2.862  -6.079 -0.08 -0.34    -0.303    11.840
ATOM     25  H   UNL d   1     -14.293   3.733  -6.550 +0.01 +0.27    +0.222    11.840
ATOM     26  O   UNL d   1     -15.028   1.788  -3.983 -0.04 -0.11    -0.303    11.840
ATOM     27  H   UNL d   1     -14.965   2.322  -3.165 +0.02 +0.08    +0.222    11.840
ATOM     28  O   UNL d   1     -12.131   8.024  -2.704 -0.15 -0.09    -0.278    11.840
ATOM     29  P   UNL d   1     -11.929   9.587  -2.933 -0.11 +0.12    +0.473    11.840
ATOM     30  O   UNL d   1     -10.600  10.125  -2.546 -0.28 -0.05    -0.228    11.840
ATOM     31  O   UNL d   1     -12.336   9.698  -4.477 -0.04 -0.09    -0.303    11.840
ATOM     32  H   UNL d   1     -11.982   8.910  -4.952 +0.07 +0.09    +0.222    11.840
ATOM     33  O   UNL d   1     -13.197  10.200  -2.191 -0.06 -0.06    -0.303    11.840
ATOM     34  H   UNL d   1     -13.507   9.560  -1.504 +0.05 +0.04    +0.222    11.840
ATOM     35  O   UNL d   1     -14.234   3.971  -1.911 -0.09 -0.10    -0.278    11.840
ATOM     36  P   UNL d   1     -15.380   3.251  -1.066 -0.01 +0.07    +0.473    11.840
ATOM     37  O   UNL d   1     -15.659   3.844   0.278 -0.02 -0.03    -0.228    11.840
ATOM     38  O   UNL d   1     -16.612   3.307  -2.075 -0.00 -0.04    -0.303    11.840
ATOM     39  H   UNL d   1     -16.276   3.243  -2.995 +0.01 +0.05    +0.222    11.840
ATOM     40  O   UNL d   1     -14.924   1.728  -1.103 -0.02 -0.03    -0.303    11.840
ATOM     41  H   UNL d   1     -15.302   1.253  -1.876 +0.02 +0.02    +0.222    11.840
ATOM     42  O   UNL d   1     -13.941   6.691  -0.907 -0.06 -0.06    -0.278    11.840
ATOM     43  P   UNL d   1     -12.861   7.194   0.154 -0.16 +0.08    +0.473    11.840
ATOM     44  O   UNL d   1     -13.040   6.769   1.570 -0.19 -0.06    -0.228    11.840
ATOM     45  O   UNL d   1     -11.487   6.725  -0.498 -0.25 -0.04    -0.303    11.840
ATOM     46  H   UNL d   1     -11.017   7.472  -0.918 -0.10 -0.00    +0.222    11.840
ATOM     47  O   UNL d   1     -12.815   8.777  -0.093 -0.14 -0.05    -0.303    11.840
ATOM     48  H   UNL d   1     -12.097   8.984  -0.727 +0.08 +0.04    +0.222    11.840
TER
ENDMDL
MODEL       73
USER    Run = 73
USER    Cluster Rank = 52
USER    Number of conformations in this cluster = 1
USER  
USER    RMSD from reference structure       = 20.247 A
USER  
USER    Estimated Free Energy of Binding    =   +2.96 kcal/mol  [=(1)+(2)+(3)-(4)]
USER    
USER    (1) Final Intermolecular Energy     =   -4.20 kcal/mol
USER        vdW + Hbond + desolv Energy     =   -4.06 kcal/mol
USER        Electrostatic Energy            =   -0.13 kcal/mol
USER    (2) Final Total Internal Energy     =  -13.56 kcal/mol
USER    (3) Torsional Free Energy           =   +7.16 kcal/mol
USER    (4) Unbound System's Energy  [=(2)] =  -13.56 kcal/mol
USER    
USER    
USER  
USER    DPF = D:/Protein_go_brrr/autodock/final/mut_K82N/IHP/dock.dpf
USER    NEWDPF move	IHP_ideal_opt.pdbqt
USER    NEWDPF about	0.035000 0.082000 -0.065000
USER    NEWDPF tran0	12.454416 2.530792 19.609843
USER    NEWDPF axisangle0	0.109087 -0.969794 -0.218172 136.563180
USER    NEWDPF quaternion0	0.101343 -0.900952 -0.202685 0.370045
USER    NEWDPF dihe0	-176.91 14.67 -178.14 60.03 23.47 -158.42 -117.42 -50.14 121.99 -48.16 169.45 -48.90 62.00 4.18 -43.21 -170.45 162.22 50.34 21.08 -7.61 174.61 3.09 19.20 -177.67 
USER  
USER                              x       y       z    vdW   Elec        q     RMS 
ATOM      1  C   UNL d   1      12.361   2.041  17.956 -0.19 +0.00    +0.194    20.247
ATOM      2  C   UNL d   1      13.278   1.198  18.844 -0.14 +0.01    +0.194    20.247
ATOM      3  C   UNL d   1      14.125   2.070  19.772 -0.07 +0.03    +0.194    20.247
ATOM      4  C   UNL d   1      13.299   3.069  20.579 -0.11 +0.06    +0.194    20.247
ATOM      5  C   UNL d   1      12.289   3.851  19.751 -0.15 +0.05    +0.194    20.247
ATOM      6  C   UNL d   1      11.484   2.988  18.777 -0.10 +0.02    +0.194    20.247
ATOM      7  O   UNL d   1      11.487   1.157  17.250 -0.20 +0.06    -0.278    20.247
ATOM      8  P   UNL d   1      11.819   0.822  15.723 -0.18 -0.13    +0.473    20.247
ATOM      9  O   UNL d   1      12.198  -0.593  15.456 -0.26 +0.07    -0.228    20.247
ATOM     10  O   UNL d   1      10.511   1.281  14.934 -0.36 +0.12    -0.303    20.247
ATOM     11  H   UNL d   1      10.048   1.973  15.442 -0.25 -0.10    +0.222    20.247
ATOM     12  O   UNL d   1      12.878   1.920  15.280 -0.06 +0.03    -0.303    20.247
ATOM     13  H   UNL d   1      12.765   2.776  15.750 +0.07 -0.02    +0.222    20.247
ATOM     14  O   UNL d   1      12.475   0.323  19.646 -0.19 -0.04    -0.278    20.247
ATOM     15  P   UNL d   1      12.794  -1.243  19.535 -0.16 +0.03    +0.473    20.247
ATOM     16  O   UNL d   1      14.179  -1.674  19.906 -0.06 -0.02    -0.228    20.247
ATOM     17  O   UNL d   1      11.672  -1.931  20.431 -0.20 +0.00    -0.303    20.247
ATOM     18  H   UNL d   1      10.857  -2.087  19.916 -0.50 -0.07    +0.222    20.247
ATOM     19  O   UNL d   1      12.322  -1.641  18.069 -0.29 +0.00    -0.303    20.247
ATOM     20  H   UNL d   1      11.963  -0.874  17.585 +0.11 -0.02    +0.222    20.247
ATOM     21  O   UNL d   1      10.855   3.878  17.859 -0.15 -0.03    -0.278    20.247
ATOM     22  P   UNL d   1      11.730   4.622  16.751 -0.07 -0.00    +0.473    20.247
ATOM     23  O   UNL d   1      13.215   4.595  16.891 -0.03 -0.00    -0.228    20.247
ATOM     24  O   UNL d   1      11.175   3.973  15.408 -0.16 +0.03    -0.303    20.247
ATOM     25  H   UNL d   1      11.069   2.999  15.557 +0.09 -0.03    +0.222    20.247
ATOM     26  O   UNL d   1      11.053   6.074  16.722 -0.06 +0.00    -0.303    20.247
ATOM     27  H   UNL d   1      10.656   6.262  17.597 +0.06 +0.01    +0.222    20.247
ATOM     28  O   UNL d   1      14.726   1.213  20.734 -0.04 -0.05    -0.278    20.247
ATOM     29  P   UNL d   1      16.305   1.007  20.754 +0.00 +0.05    +0.473    20.247
ATOM     30  O   UNL d   1      16.859   0.416  21.999 -0.00 -0.02    -0.228    20.247
ATOM     31  O   UNL d   1      16.495   0.168  19.404 -0.01 -0.02    -0.303    20.247
ATOM     32  H   UNL d   1      16.055  -0.706  19.514 +0.03 +0.01    +0.222    20.247
ATOM     33  O   UNL d   1      16.835   2.453  20.347 -0.00 -0.03    -0.303    20.247
ATOM     34  H   UNL d   1      16.075   3.084  20.343 +0.01 +0.02    +0.222    20.247
ATOM     35  O   UNL d   1      11.364   4.402  20.687 -0.13 -0.12    -0.278    20.247
ATOM     36  P   UNL d   1      10.634   5.786  20.377 -0.10 +0.12    +0.473    20.247
ATOM     37  O   UNL d   1      10.206   6.571  21.576 -0.07 -0.07    -0.228    20.247
ATOM     38  O   UNL d   1      11.707   6.523  19.461 -0.02 -0.04    -0.303    20.247
ATOM     39  H   UNL d   1      11.966   5.926  18.726 +0.04 +0.02    +0.222    20.247
ATOM     40  O   UNL d   1       9.495   5.348  19.357 -0.15 -0.07    -0.303    20.247
ATOM     41  H   UNL d   1       9.805   5.390  18.425 +0.07 +0.03    +0.222    20.247
ATOM     42  O   UNL d   1      14.219   4.018  21.130 -0.05 -0.08    -0.278    20.247
ATOM     43  P   UNL d   1      14.918   5.069  20.154 -0.00 +0.06    +0.473    20.247
ATOM     44  O   UNL d   1      14.299   6.419  20.041 -0.01 -0.03    -0.228    20.247
ATOM     45  O   UNL d   1      16.421   5.084  20.677 -0.00 -0.03    -0.303    20.247
ATOM     46  H   UNL d   1      16.989   4.486  20.151 +0.00 +0.02    +0.222    20.247
ATOM     47  O   UNL d   1      15.059   4.255  18.780 -0.01 -0.02    -0.303    20.247
ATOM     48  H   UNL d   1      14.708   4.799  18.045 +0.02 +0.01    +0.222    20.247
TER
ENDMDL
MODEL       74
USER    Run = 74
USER    Cluster Rank = 53
USER    Number of conformations in this cluster = 1
USER  
USER    RMSD from reference structure       = 17.986 A
USER  
USER    Estimated Free Energy of Binding    =   +3.00 kcal/mol  [=(1)+(2)+(3)-(4)]
USER    
USER    (1) Final Intermolecular Energy     =   -4.16 kcal/mol
USER        vdW + Hbond + desolv Energy     =   -4.07 kcal/mol
USER        Electrostatic Energy            =   -0.08 kcal/mol
USER    (2) Final Total Internal Energy     =  -13.63 kcal/mol
USER    (3) Torsional Free Energy           =   +7.16 kcal/mol
USER    (4) Unbound System's Energy  [=(2)] =  -13.63 kcal/mol
USER    
USER    
USER  
USER    DPF = D:/Protein_go_brrr/autodock/final/mut_K82N/IHP/dock.dpf
USER    NEWDPF move	IHP_ideal_opt.pdbqt
USER    NEWDPF about	0.035000 0.082000 -0.065000
USER    NEWDPF tran0	12.039790 4.234897 16.017767
USER    NEWDPF axisangle0	-0.610016 -0.216096 0.762354 127.079498
USER    NEWDPF quaternion0	-0.546113 -0.193459 0.682492 0.445577
USER    NEWDPF dihe0	-134.78 109.58 143.87 -18.33 68.83 -4.20 -107.75 18.40 -10.32 -30.22 30.60 162.54 27.49 -179.00 -70.27 180.00 -121.52 167.23 -135.89 13.34 -170.20 21.34 152.74 -12.86 
USER  
USER                              x       y       z    vdW   Elec        q     RMS 
ATOM      1  C   UNL d   1      10.851   3.613  14.930 -0.25 -0.03    +0.194    17.986
ATOM      2  C   UNL d   1      10.411   4.810  15.775 -0.21 -0.02    +0.194    17.986
ATOM      3  C   UNL d   1      10.870   4.675  17.229 -0.12 +0.01    +0.194    17.986
ATOM      4  C   UNL d   1      12.363   4.390  17.365 -0.09 +0.01    +0.194    17.986
ATOM      5  C   UNL d   1      12.868   3.278  16.454 -0.08 -0.01    +0.194    17.986
ATOM      6  C   UNL d   1      12.360   3.378  15.014 -0.10 -0.02    +0.194    17.986
ATOM      7  O   UNL d   1      10.539   3.893  13.563 -0.18 +0.04    -0.278    17.986
ATOM      8  P   UNL d   1      11.720   4.365  12.597 -0.06 -0.03    +0.473    17.986
ATOM      9  O   UNL d   1      12.597   3.273  12.093 -0.09 +0.01    -0.228    17.986
ATOM     10  O   UNL d   1      10.972   5.158  11.432 -0.17 +0.01    -0.303    17.986
ATOM     11  H   UNL d   1      10.583   5.977  11.791 +0.09 -0.01    +0.222    17.986
ATOM     12  O   UNL d   1      12.452   5.537  13.380 -0.03 +0.01    -0.303    17.986
ATOM     13  H   UNL d   1      12.879   5.235  14.214 +0.04 -0.01    +0.222    17.986
ATOM     14  O   UNL d   1      10.981   6.004  15.225 -0.10 +0.02    -0.278    17.986
ATOM     15  P   UNL d   1      10.087   7.329  15.311 -0.15 -0.03    +0.473    17.986
ATOM     16  O   UNL d   1       9.794   8.028  14.020 -0.74 -0.03    -0.228    17.986
ATOM     17  O   UNL d   1       8.768   6.858  16.071 -0.25 +0.06    -0.303    17.986
ATOM     18  H   UNL d   1       8.988   6.345  16.872 +0.08 -0.02    +0.222    17.986
ATOM     19  O   UNL d   1      10.797   8.216  16.425 -0.03 +0.01    -0.303    17.986
ATOM     20  H   UNL d   1      10.586   7.904  17.324 +0.05 -0.00    +0.222    17.986
ATOM     21  O   UNL d   1      12.623   2.121  14.396 -0.07 +0.03    -0.278    17.986
ATOM     22  P   UNL d   1      11.553   0.943  14.511 -0.14 -0.14    +0.473    17.986
ATOM     23  O   UNL d   1      10.857   0.748  15.815 -0.26 +0.11    -0.228    17.986
ATOM     24  O   UNL d   1      10.593   1.254  13.281 -0.27 +0.06    -0.303    17.986
ATOM     25  H   UNL d   1      10.957   2.037  12.795 +0.14 -0.02    +0.222    17.986
ATOM     26  O   UNL d   1      12.391  -0.312  13.968 -0.23 +0.10    -0.303    17.986
ATOM     27  H   UNL d   1      11.818  -1.105  13.966 -0.39 -0.13    +0.222    17.986
ATOM     28  O   UNL d   1      10.667   5.933  17.860 -0.08 -0.01    -0.278    17.986
ATOM     29  P   UNL d   1       9.940   6.016  19.274 -0.08 +0.07    +0.473    17.986
ATOM     30  O   UNL d   1      10.289   7.196  20.106 -0.03 -0.03    -0.228    17.986
ATOM     31  O   UNL d   1       8.414   5.879  18.812 -0.06 -0.03    -0.303    17.986
ATOM     32  H   UNL d   1       8.220   6.587  18.156 +0.08 -0.01    +0.222    17.986
ATOM     33  O   UNL d   1      10.250   4.582  19.894 -0.20 -0.09    -0.303    17.986
ATOM     34  H   UNL d   1      11.181   4.571  20.226 +0.04 +0.07    +0.222    17.986
ATOM     35  O   UNL d   1      14.286   3.428  16.410 -0.01 +0.00    -0.278    17.986
ATOM     36  P   UNL d   1      14.946   4.575  15.521 +0.00 -0.01    +0.473    17.986
ATOM     37  O   UNL d   1      14.996   4.305  14.051 -0.00 +0.01    -0.228    17.986
ATOM     38  O   UNL d   1      14.072   5.844  15.924 -0.00 +0.00    -0.303    17.986
ATOM     39  H   UNL d   1      13.228   5.824  15.424 +0.03 -0.00    +0.222    17.986
ATOM     40  O   UNL d   1      16.335   4.818  16.257 +0.00 -0.00    -0.303    17.986
ATOM     41  H   UNL d   1      16.215   5.277  17.118 +0.00 +0.00    +0.222    17.986
ATOM     42  O   UNL d   1      12.582   3.962  18.713 -0.08 -0.03    -0.278    17.986
ATOM     43  P   UNL d   1      13.643   4.748  19.609 -0.03 +0.07    +0.473    17.986
ATOM     44  O   UNL d   1      14.405   3.962  20.619 -0.04 -0.05    -0.228    17.986
ATOM     45  O   UNL d   1      14.554   5.467  18.521 -0.00 -0.02    -0.303    17.986
ATOM     46  H   UNL d   1      14.760   4.870  17.775 +0.01 +0.01    +0.222    17.986
ATOM     47  O   UNL d   1      12.793   5.977  20.188 -0.03 -0.06    -0.303    17.986
ATOM     48  H   UNL d   1      11.990   6.101  19.640 +0.03 +0.03    +0.222    17.986
TER
ENDMDL
MODEL        8
USER    Run = 8
USER    Cluster Rank = 54
USER    Number of conformations in this cluster = 1
USER  
USER    RMSD from reference structure       = 18.904 A
USER  
USER    Estimated Free Energy of Binding    =   +3.01 kcal/mol  [=(1)+(2)+(3)-(4)]
USER    
USER    (1) Final Intermolecular Energy     =   -4.15 kcal/mol
USER        vdW + Hbond + desolv Energy     =   -3.71 kcal/mol
USER        Electrostatic Energy            =   -0.45 kcal/mol
USER    (2) Final Total Internal Energy     =  -14.27 kcal/mol
USER    (3) Torsional Free Energy           =   +7.16 kcal/mol
USER    (4) Unbound System's Energy  [=(2)] =  -14.27 kcal/mol
USER    
USER    
USER  
USER    DPF = D:/Protein_go_brrr/autodock/final/mut_K82N/IHP/dock.dpf
USER    NEWDPF move	IHP_ideal_opt.pdbqt
USER    NEWDPF about	0.035000 0.082000 -0.065000
USER    NEWDPF tran0	-14.365171 -3.484975 -15.386962
USER    NEWDPF axisangle0	-0.838065 -0.220602 -0.498980 170.846559
USER    NEWDPF quaternion0	-0.835393 -0.219898 -0.497389 0.079794
USER    NEWDPF dihe0	-137.52 -0.52 -79.94 14.66 8.77 -65.12 -111.56 -71.11 129.26 149.68 26.81 -118.82 87.34 161.48 -15.53 -9.18 113.20 -46.84 -13.44 3.68 155.30 23.41 -35.92 169.92 
USER  
USER                              x       y       z    vdW   Elec        q     RMS 
ATOM      1  C   UNL d   1     -13.424  -2.067 -15.092 -0.09 +0.13    +0.194    18.904
ATOM      2  C   UNL d   1     -14.485  -1.940 -16.187 -0.05 +0.15    +0.194    18.904
ATOM      3  C   UNL d   1     -14.514  -3.172 -17.093 -0.03 +0.06    +0.194    18.904
ATOM      4  C   UNL d   1     -14.635  -4.484 -16.321 -0.00 +0.00    +0.194    18.904
ATOM      5  C   UNL d   1     -13.672  -4.604 -15.147 -0.04 -0.02    +0.194    18.904
ATOM      6  C   UNL d   1     -13.597  -3.349 -14.276 -0.07 +0.03    +0.194    18.904
ATOM      7  O   UNL d   1     -13.577  -0.966 -14.193 -0.23 -0.25    -0.278    18.904
ATOM      8  P   UNL d   1     -12.264  -0.198 -13.703 +0.01 +0.48    +0.473    18.904
ATOM      9  O   UNL d   1     -12.387   1.284 -13.639 -0.61 -0.25    -0.228    18.904
ATOM     10  O   UNL d   1     -11.932  -0.862 -12.291 -0.19 -0.10    -0.303    18.904
ATOM     11  H   UNL d   1     -11.704  -1.802 -12.417 +0.09 +0.05    +0.222    18.904
ATOM     12  O   UNL d   1     -11.092  -0.758 -14.618 -0.42 -0.31    -0.303    18.904
ATOM     13  H   UNL d   1     -11.107  -1.738 -14.706 +0.10 +0.12    +0.222    18.904
ATOM     14  O   UNL d   1     -15.772  -1.793 -15.574 -0.02 -0.11    -0.278    18.904
ATOM     15  P   UNL d   1     -16.731  -0.665 -16.185 -0.01 +0.18    +0.473    18.904
ATOM     16  O   UNL d   1     -17.581   0.093 -15.213 +0.00 -0.05    -0.228    18.904
ATOM     17  O   UNL d   1     -15.745   0.277 -17.008 -0.11 -0.27    -0.303    18.904
ATOM     18  H   UNL d   1     -16.219   1.049 -17.374 +0.01 +0.14    +0.222    18.904
ATOM     19  O   UNL d   1     -17.517  -1.403 -17.354 +0.00 -0.06    -0.303    18.904
ATOM     20  H   UNL d   1     -16.922  -1.946 -17.903 +0.01 +0.05    +0.222    18.904
ATOM     21  O   UNL d   1     -12.437  -3.483 -13.458 -0.11 -0.00    -0.278    18.904
ATOM     22  P   UNL d   1     -11.025  -3.795 -14.131 -0.24 -0.14    +0.473    18.904
ATOM     23  O   UNL d   1     -10.891  -3.611 -15.605 -0.21 +0.05    -0.228    18.904
ATOM     24  O   UNL d   1     -10.042  -2.901 -13.254 -0.28 +0.06    -0.303    18.904
ATOM     25  H   UNL d   1     -10.351  -1.961 -13.308 +0.10 +0.02    +0.222    18.904
ATOM     26  O   UNL d   1     -10.717  -5.267 -13.576 -0.21 +0.30    -0.303    18.904
ATOM     27  H   UNL d   1     -10.616  -5.881 -14.331 -0.48 -0.51    +0.222    18.904
ATOM     28  O   UNL d   1     -15.691  -3.092 -17.887 -0.00 -0.05    -0.278    18.904
ATOM     29  P   UNL d   1     -15.625  -3.374 -19.454 +0.01 +0.05    +0.473    18.904
ATOM     30  O   UNL d   1     -14.383  -2.924 -20.134 -0.01 -0.03    -0.228    18.904
ATOM     31  O   UNL d   1     -15.933  -4.944 -19.468 +0.00 +0.00    -0.303    18.904
ATOM     32  H   UNL d   1     -15.238  -5.405 -18.943 +0.00 -0.01    +0.222    18.904
ATOM     33  O   UNL d   1     -16.994  -2.742 -19.965 +0.00 -0.02    -0.303    18.904
ATOM     34  H   UNL d   1     -17.566  -2.542 -19.184 +0.00 +0.02    +0.222    18.904
ATOM     35  O   UNL d   1     -14.187  -5.653 -14.329 -0.03 +0.05    -0.278    18.904
ATOM     36  P   UNL d   1     -13.650  -7.145 -14.500 -0.04 -0.18    +0.473    18.904
ATOM     37  O   UNL d   1     -13.834  -8.036 -13.313 -0.06 +0.07    -0.228    18.904
ATOM     38  O   UNL d   1     -14.427  -7.624 -15.805 -0.01 +0.07    -0.303    18.904
ATOM     39  H   UNL d   1     -14.198  -7.029 -16.552 +0.02 -0.05    +0.222    18.904
ATOM     40  O   UNL d   1     -12.160  -6.914 -15.005 -0.01 +0.34    -0.303    18.904
ATOM     41  H   UNL d   1     -11.501  -7.134 -14.310 -0.49 -0.43    +0.222    18.904
ATOM     42  O   UNL d   1     -14.315  -5.536 -17.238 +0.00 +0.03    -0.278    18.904
ATOM     43  P   UNL d   1     -12.883  -5.536 -17.942 +0.01 -0.11    +0.473    18.904
ATOM     44  O   UNL d   1     -11.959  -4.414 -17.619 -0.05 +0.04    -0.228    18.904
ATOM     45  O   UNL d   1     -12.314  -6.976 -17.572 -0.03 +0.15    -0.303    18.904
ATOM     46  H   UNL d   1     -12.445  -7.180 -16.625 +0.02 -0.14    +0.222    18.904
ATOM     47  O   UNL d   1     -13.238  -5.715 -19.494 +0.00 +0.04    -0.303    18.904
ATOM     48  H   UNL d   1     -13.798  -4.966 -19.786 +0.01 -0.01    +0.222    18.904
TER
ENDMDL
MODEL       18
USER    Run = 18
USER    Cluster Rank = 55
USER    Number of conformations in this cluster = 1
USER  
USER    RMSD from reference structure       = 11.836 A
USER  
USER    Estimated Free Energy of Binding    =   +3.04 kcal/mol  [=(1)+(2)+(3)-(4)]
USER    
USER    (1) Final Intermolecular Energy     =   -4.11 kcal/mol
USER        vdW + Hbond + desolv Energy     =   -4.11 kcal/mol
USER        Electrostatic Energy            =   -0.01 kcal/mol
USER    (2) Final Total Internal Energy     =  -14.82 kcal/mol
USER    (3) Torsional Free Energy           =   +7.16 kcal/mol
USER    (4) Unbound System's Energy  [=(2)] =  -14.82 kcal/mol
USER    
USER    
USER  
USER    DPF = D:/Protein_go_brrr/autodock/final/mut_K82N/IHP/dock.dpf
USER    NEWDPF move	IHP_ideal_opt.pdbqt
USER    NEWDPF about	0.035000 0.082000 -0.065000
USER    NEWDPF tran0	14.250168 5.843181 -1.207211
USER    NEWDPF axisangle0	-0.537217 -0.633930 -0.556355 90.213470
USER    NEWDPF quaternion0	-0.380576 -0.449091 -0.394134 0.705788
USER    NEWDPF dihe0	-158.73 27.71 -155.11 45.23 113.98 118.50 -58.89 99.37 163.76 -50.41 45.95 180.00 41.89 162.26 74.04 161.81 68.10 165.00 -2.82 -3.57 -29.67 -6.64 -32.55 -6.40 
USER  
USER                              x       y       z    vdW   Elec        q     RMS 
ATOM      1  C   UNL d   1      15.538   6.469  -2.174 -0.09 +0.01    +0.194    11.836
ATOM      2  C   UNL d   1      15.009   5.094  -2.587 -0.10 +0.03    +0.194    11.836
ATOM      3  C   UNL d   1      14.771   4.191  -1.375 -0.08 +0.03    +0.194    11.836
ATOM      4  C   UNL d   1      13.906   4.843  -0.299 +0.02 +0.03    +0.194    11.836
ATOM      5  C   UNL d   1      14.329   6.261   0.062 -0.08 +0.02    +0.194    11.836
ATOM      6  C   UNL d   1      14.626   7.146  -1.150 -0.12 +0.02    +0.194    11.836
ATOM      7  O   UNL d   1      15.568   7.302  -3.335 -0.08 -0.00    -0.278    11.836
ATOM      8  P   UNL d   1      16.945   8.013  -3.724 -0.01 -0.01    +0.473    11.836
ATOM      9  O   UNL d   1      17.787   7.266  -4.697 -0.01 +0.01    -0.228    11.836
ATOM     10  O   UNL d   1      16.502   9.452  -4.251 -0.02 +0.01    -0.303    11.836
ATOM     11  H   UNL d   1      15.819   9.821  -3.661 +0.05 -0.01    +0.222    11.836
ATOM     12  O   UNL d   1      17.634   8.365  -2.336 -0.00 +0.01    -0.303    11.836
ATOM     13  H   UNL d   1      17.007   8.346  -1.579 +0.02 -0.00    +0.222    11.836
ATOM     14  O   UNL d   1      13.767   5.261  -3.282 -0.26 -0.05    -0.278    11.836
ATOM     15  P   UNL d   1      13.645   4.550  -4.712 -0.11 +0.03    +0.473    11.836
ATOM     16  O   UNL d   1      12.902   5.299  -5.774 -0.28 +0.01    -0.228    11.836
ATOM     17  O   UNL d   1      15.153   4.236  -5.118 -0.04 -0.01    -0.303    11.836
ATOM     18  H   UNL d   1      15.336   3.278  -5.077 +0.05 +0.03    +0.222    11.836
ATOM     19  O   UNL d   1      13.092   3.095  -4.385 -0.29 -0.11    -0.303    11.836
ATOM     20  H   UNL d   1      13.170   2.884  -3.436 +0.08 +0.11    +0.222    11.836
ATOM     21  O   UNL d   1      15.323   8.291  -0.663 -0.06 +0.00    -0.278    11.836
ATOM     22  P   UNL d   1      14.865   9.750  -1.120 -0.09 -0.02    +0.473    11.836
ATOM     23  O   UNL d   1      14.101  10.585  -0.148 -0.12 +0.01    -0.228    11.836
ATOM     24  O   UNL d   1      16.239  10.384  -1.610 -0.02 +0.02    -0.303    11.836
ATOM     25  H   UNL d   1      16.685   9.730  -2.206 +0.03 -0.01    +0.222    11.836
ATOM     26  O   UNL d   1      14.129   9.440  -2.510 -0.19 +0.02    -0.303    11.836
ATOM     27  H   UNL d   1      14.745   8.961  -3.100 +0.06 -0.01    +0.222    11.836
ATOM     28  O   UNL d   1      14.032   3.061  -1.821 -0.11 -0.07    -0.278    11.836
ATOM     29  P   UNL d   1      14.753   1.655  -2.022 -0.07 +0.19    +0.473    11.836
ATOM     30  O   UNL d   1      14.017   0.477  -1.496 -0.66 -0.16    -0.228    11.836
ATOM     31  O   UNL d   1      15.018   1.701  -3.600 -0.57 -0.17    -0.303    11.836
ATOM     32  H   UNL d   1      14.567   2.494  -3.971 +0.05 +0.11    +0.222    11.836
ATOM     33  O   UNL d   1      16.198   1.932  -1.414 +0.00 -0.04    -0.303    11.836
ATOM     34  H   UNL d   1      16.612   1.069  -1.166 +0.02 +0.03    +0.222    11.836
ATOM     35  O   UNL d   1      13.214   6.837   0.739 -0.13 +0.01    -0.278    11.836
ATOM     36  P   UNL d   1      13.174   6.876   2.333 -0.07 -0.01    +0.473    11.836
ATOM     37  O   UNL d   1      13.264   8.237   2.947 -0.06 -0.00    -0.228    11.836
ATOM     38  O   UNL d   1      11.815   6.106   2.644 -0.12 +0.01    -0.303    11.836
ATOM     39  H   UNL d   1      12.012   5.157   2.797 +0.04 -0.01    +0.222    11.836
ATOM     40  O   UNL d   1      14.305   5.830   2.728 -0.02 +0.00    -0.303    11.836
ATOM     41  H   UNL d   1      13.939   4.926   2.851 +0.04 -0.00    +0.222    11.836
ATOM     42  O   UNL d   1      14.046   4.048   0.883 -0.05 -0.02    -0.278    11.836
ATOM     43  P   UNL d   1      12.758   3.321   1.480 -0.11 +0.03    +0.473    11.836
ATOM     44  O   UNL d   1      12.707   3.116   2.955 -0.13 -0.00    -0.228    11.836
ATOM     45  O   UNL d   1      11.563   4.200   0.904 -0.23 +0.00    -0.303    11.836
ATOM     46  H   UNL d   1      11.846   5.120   0.732 -0.17 -0.04    +0.222    11.836
ATOM     47  O   UNL d   1      12.643   1.991   0.593 -0.10 -0.05    -0.303    11.836
ATOM     48  H   UNL d   1      13.361   1.984  -0.073 +0.07 +0.05    +0.222    11.836
TER
ENDMDL
MODEL       92
USER    Run = 92
USER    Cluster Rank = 56
USER    Number of conformations in this cluster = 1
USER  
USER    RMSD from reference structure       = 10.348 A
USER  
USER    Estimated Free Energy of Binding    =   +3.07 kcal/mol  [=(1)+(2)+(3)-(4)]
USER    
USER    (1) Final Intermolecular Energy     =   -4.09 kcal/mol
USER        vdW + Hbond + desolv Energy     =   -3.73 kcal/mol
USER        Electrostatic Energy            =   -0.36 kcal/mol
USER    (2) Final Total Internal Energy     =  -14.58 kcal/mol
USER    (3) Torsional Free Energy           =   +7.16 kcal/mol
USER    (4) Unbound System's Energy  [=(2)] =  -14.58 kcal/mol
USER    
USER    
USER  
USER    DPF = D:/Protein_go_brrr/autodock/final/mut_K82N/IHP/dock.dpf
USER    NEWDPF move	IHP_ideal_opt.pdbqt
USER    NEWDPF about	0.035000 0.082000 -0.065000
USER    NEWDPF tran0	-13.482632 -1.654480 -2.634111
USER    NEWDPF axisangle0	0.636290 0.762796 0.115229 -105.057750
USER    NEWDPF quaternion0	0.504998 0.605400 0.091453 -0.608362
USER    NEWDPF dihe0	-169.36 -24.40 57.70 106.26 -2.23 -126.88 -108.33 14.28 20.41 -93.23 176.23 -90.81 92.62 -18.81 -18.30 34.33 173.05 -40.61 -7.78 -16.93 160.46 167.79 -16.25 -24.58 
USER  
USER                              x       y       z    vdW   Elec        q     RMS 
ATOM      1  C   UNL d   1     -12.958  -1.568  -4.278 -0.05 +0.01    +0.194    10.348
ATOM      2  C   UNL d   1     -13.978  -2.664  -3.967 -0.01 -0.02    +0.194    10.348
ATOM      3  C   UNL d   1     -13.652  -3.387  -2.658 -0.03 -0.06    +0.194    10.348
ATOM      4  C   UNL d   1     -13.449  -2.436  -1.481 -0.06 -0.08    +0.194    10.348
ATOM      5  C   UNL d   1     -12.528  -1.262  -1.782 -0.09 -0.05    +0.194    10.348
ATOM      6  C   UNL d   1     -12.814  -0.578  -3.121 -0.08 +0.02    +0.194    10.348
ATOM      7  O   UNL d   1     -13.424  -0.833  -5.412 -0.03 -0.06    -0.278    10.348
ATOM      8  P   UNL d   1     -12.412  -0.581  -6.622 -0.08 +0.17    +0.473    10.348
ATOM      9  O   UNL d   1     -13.029  -0.607  -7.976 -0.06 -0.07    -0.228    10.348
ATOM     10  O   UNL d   1     -11.727   0.816  -6.270 -0.27 -0.31    -0.303    10.348
ATOM     11  H   UNL d   1     -11.651   0.908  -5.302 +0.05 +0.24    +0.222    10.348
ATOM     12  O   UNL d   1     -11.220  -1.605  -6.383 -0.11 -0.06    -0.303    10.348
ATOM     13  H   UNL d   1     -10.666  -1.376  -5.602 +0.07 +0.04    +0.222    10.348
ATOM     14  O   UNL d   1     -15.278  -2.073  -3.850 -0.00 +0.01    -0.278    10.348
ATOM     15  P   UNL d   1     -16.358  -2.494  -4.955 +0.01 -0.00    +0.473    10.348
ATOM     16  O   UNL d   1     -16.320  -3.915  -5.424 -0.00 +0.01    -0.228    10.348
ATOM     17  O   UNL d   1     -17.756  -2.097  -4.303 +0.00 +0.00    -0.303    10.348
ATOM     18  H   UNL d   1     -17.761  -2.280  -3.344 +0.00 -0.01    +0.222    10.348
ATOM     19  O   UNL d   1     -16.212  -1.392  -6.093 +0.00 -0.02    -0.303    10.348
ATOM     20  H   UNL d   1     -15.278  -1.233  -6.323 +0.01 +0.03    +0.222    10.348
ATOM     21  O   UNL d   1     -11.687   0.246  -3.412 -0.13 -0.10    -0.278    10.348
ATOM     22  P   UNL d   1     -10.236  -0.407  -3.517 -0.18 +0.08    +0.473    10.348
ATOM     23  O   UNL d   1     -10.134  -1.894  -3.574 -0.21 +0.02    -0.228    10.348
ATOM     24  O   UNL d   1      -9.628   0.352  -4.778 -0.20 -0.14    -0.303    10.348
ATOM     25  H   UNL d   1     -10.124   0.057  -5.584 +0.08 +0.11    +0.222    10.348
ATOM     26  O   UNL d   1      -9.470   0.305  -2.302 -0.28 -0.01    -0.303    10.348
ATOM     27  H   UNL d   1      -9.939   0.106  -1.466 -0.05 -0.03    +0.222    10.348
ATOM     28  O   UNL d   1     -14.782  -4.179  -2.314 -0.01 +0.08    -0.278    10.348
ATOM     29  P   UNL d   1     -16.032  -3.520  -1.580 +0.01 -0.09    +0.473    10.348
ATOM     30  O   UNL d   1     -16.005  -2.039  -1.473 +0.00 +0.03    -0.228    10.348
ATOM     31  O   UNL d   1     -17.226  -4.165  -2.429 +0.00 +0.03    -0.303    10.348
ATOM     32  H   UNL d   1     -17.092  -3.941  -3.379 +0.00 -0.02    +0.222    10.348
ATOM     33  O   UNL d   1     -16.089  -4.340  -0.216 -0.00 +0.08    -0.303    10.348
ATOM     34  H   UNL d   1     -15.346  -4.046   0.366 +0.02 -0.09    +0.222    10.348
ATOM     35  O   UNL d   1     -12.776  -0.301  -0.758 -0.06 +0.04    -0.278    10.348
ATOM     36  P   UNL d   1     -11.636   0.066   0.295 -0.18 -0.10    +0.473    10.348
ATOM     37  O   UNL d   1     -12.104   0.309   1.694 -0.15 +0.04    -0.228    10.348
ATOM     38  O   UNL d   1     -10.642  -1.169   0.142 -0.19 +0.18    -0.303    10.348
ATOM     39  H   UNL d   1     -11.155  -2.004   0.199 -0.08 -0.26    +0.222    10.348
ATOM     40  O   UNL d   1     -10.876   1.260  -0.430 -0.24 +0.01    -0.303    10.348
ATOM     41  H   UNL d   1      -9.900   1.155  -0.379 -0.42 -0.09    +0.222    10.348
ATOM     42  O   UNL d   1     -12.834  -3.197  -0.435 -0.05 +0.33    -0.278    10.348
ATOM     43  P   UNL d   1     -13.375  -3.035   1.057 +0.00 -0.48    +0.473    10.348
ATOM     44  O   UNL d   1     -14.577  -2.181   1.263 -0.02 +0.09    -0.228    10.348
ATOM     45  O   UNL d   1     -13.560  -4.544   1.526 -0.07 +0.42    -0.303    10.348
ATOM     46  H   UNL d   1     -12.836  -4.826   2.119 -0.47 -0.54    +0.222    10.348
ATOM     47  O   UNL d   1     -12.067  -2.598   1.875 -0.17 +0.41    -0.303    10.348
ATOM     48  H   UNL d   1     -11.981  -1.623   1.848 +0.07 -0.16    +0.222    10.348
TER
ENDMDL
MODEL       33
USER    Run = 33
USER    Cluster Rank = 57
USER    Number of conformations in this cluster = 1
USER  
USER    RMSD from reference structure       = 16.521 A
USER  
USER    Estimated Free Energy of Binding    =   +3.07 kcal/mol  [=(1)+(2)+(3)-(4)]
USER    
USER    (1) Final Intermolecular Energy     =   -4.09 kcal/mol
USER        vdW + Hbond + desolv Energy     =   -3.62 kcal/mol
USER        Electrostatic Energy            =   -0.47 kcal/mol
USER    (2) Final Total Internal Energy     =  -13.86 kcal/mol
USER    (3) Torsional Free Energy           =   +7.16 kcal/mol
USER    (4) Unbound System's Energy  [=(2)] =  -13.86 kcal/mol
USER    
USER    
USER  
USER    DPF = D:/Protein_go_brrr/autodock/final/mut_K82N/IHP/dock.dpf
USER    NEWDPF move	IHP_ideal_opt.pdbqt
USER    NEWDPF about	0.035000 0.082000 -0.065000
USER    NEWDPF tran0	-11.453619 -11.921938 -11.421844
USER    NEWDPF axisangle0	0.844508 -0.462502 0.269995 116.591467
USER    NEWDPF quaternion0	0.718484 -0.393484 0.229704 0.525535
USER    NEWDPF dihe0	-118.82 -5.69 178.26 -15.83 -72.89 173.54 -34.69 -179.90 143.24 -3.94 -114.81 -67.62 91.58 -163.86 -127.57 -41.74 167.32 30.84 -21.58 10.74 142.75 133.81 178.59 180.00 
USER  
USER                              x       y       z    vdW   Elec        q     RMS 
ATOM      1  C   UNL d   1      -9.845 -12.356 -10.966 -0.00 -0.01    +0.194    16.521
ATOM      2  C   UNL d   1     -10.589 -11.450  -9.983 -0.07 -0.03    +0.194    16.521
ATOM      3  C   UNL d   1     -11.354 -10.339 -10.705 -0.17 -0.06    +0.194    16.521
ATOM      4  C   UNL d   1     -12.266 -10.859 -11.814 -0.06 -0.05    +0.194    16.521
ATOM      5  C   UNL d   1     -11.596 -11.855 -12.751 -0.03 -0.04    +0.194    16.521
ATOM      6  C   UNL d   1     -10.780 -12.931 -12.031 -0.03 -0.01    +0.194    16.521
ATOM      7  O   UNL d   1      -9.304 -13.459 -10.234 -0.09 +0.00    -0.278    16.521
ATOM      8  P   UNL d   1      -7.882 -14.039 -10.677 -0.06 +0.03    +0.473    16.521
ATOM      9  O   UNL d   1      -7.009 -14.488  -9.559 -0.17 -0.02    -0.228    16.521
ATOM     10  O   UNL d   1      -8.244 -15.207 -11.701 -0.01 -0.02    -0.303    16.521
ATOM     11  H   UNL d   1      -8.393 -14.830 -12.588 +0.03 +0.03    +0.222    16.521
ATOM     12  O   UNL d   1      -7.266 -12.934 -11.638 -0.13 -0.08    -0.303    16.521
ATOM     13  H   UNL d   1      -7.883 -12.657 -12.352 +0.07 +0.08    +0.222    16.521
ATOM     14  O   UNL d   1     -11.524 -12.239  -9.237 -0.06 +0.04    -0.278    16.521
ATOM     15  P   UNL d   1     -11.707 -11.862  -7.692 -0.06 -0.08    +0.473    16.521
ATOM     16  O   UNL d   1     -11.139 -12.822  -6.694 -0.13 +0.03    -0.228    16.521
ATOM     17  O   UNL d   1     -11.077 -10.403  -7.572 -0.18 +0.09    -0.303    16.521
ATOM     18  H   UNL d   1     -11.719  -9.720  -7.845 +0.07 -0.05    +0.222    16.521
ATOM     19  O   UNL d   1     -13.260 -11.553  -7.539 -0.01 +0.04    -0.303    16.521
ATOM     20  H   UNL d   1     -13.492 -10.683  -7.913 +0.03 -0.03    +0.222    16.521
ATOM     21  O   UNL d   1      -9.959 -13.554 -13.016 -0.02 -0.01    -0.278    16.521
ATOM     22  P   UNL d   1      -9.259 -12.665 -14.141 -0.06 +0.12    +0.473    16.521
ATOM     23  O   UNL d   1      -9.921 -12.566 -15.474 -0.07 -0.01    -0.228    16.521
ATOM     24  O   UNL d   1      -9.067 -11.276 -13.386 -0.33 +0.02    -0.303    16.521
ATOM     25  H   UNL d   1      -9.285 -10.548 -14.022 -0.38 -0.22    +0.222    16.521
ATOM     26  O   UNL d   1      -7.767 -13.251 -14.138 -0.53 -0.30    -0.303    16.521
ATOM     27  H   UNL d   1      -7.701 -13.960 -13.466 +0.04 +0.10    +0.222    16.521
ATOM     28  O   UNL d   1     -12.222  -9.731  -9.756 -0.09 +0.08    -0.278    16.521
ATOM     29  P   UNL d   1     -13.802  -9.824  -9.937 -0.03 -0.07    +0.473    16.521
ATOM     30  O   UNL d   1     -14.359  -9.081 -11.096 -0.05 +0.03    -0.228    16.521
ATOM     31  O   UNL d   1     -13.990 -11.414  -9.935 -0.01 +0.03    -0.303    16.521
ATOM     32  H   UNL d   1     -13.177 -11.825  -9.561 +0.03 -0.03    +0.222    16.521
ATOM     33  O   UNL d   1     -14.328  -9.406  -8.494 -0.03 +0.02    -0.303    16.521
ATOM     34  H   UNL d   1     -14.867 -10.146  -8.121 +0.02 -0.02    +0.222    16.521
ATOM     35  O   UNL d   1     -12.658 -12.520 -13.432 +0.00 +0.04    -0.278    16.521
ATOM     36  P   UNL d   1     -13.866 -13.159 -12.609 +0.01 -0.05    +0.473    16.521
ATOM     37  O   UNL d   1     -14.482 -14.381 -13.212 +0.00 +0.02    -0.228    16.521
ATOM     38  O   UNL d   1     -13.198 -13.399 -11.183 +0.00 +0.03    -0.303    16.521
ATOM     39  H   UNL d   1     -13.087 -12.535 -10.731 +0.02 -0.02    +0.222    16.521
ATOM     40  O   UNL d   1     -14.820 -11.908 -12.379 +0.00 +0.03    -0.303    16.521
ATOM     41  H   UNL d   1     -14.318 -11.116 -12.085 +0.02 -0.03    +0.222    16.521
ATOM     42  O   UNL d   1     -12.644  -9.726 -12.604 -0.07 +0.11    -0.278    16.521
ATOM     43  P   UNL d   1     -11.537  -9.004 -13.497 -0.02 -0.47    +0.473    16.521
ATOM     44  O   UNL d   1     -11.134  -9.674 -14.765 -0.11 +0.26    -0.228    16.521
ATOM     45  O   UNL d   1     -12.145  -7.547 -13.695 -0.14 +0.30    -0.303    16.521
ATOM     46  H   UNL d   1     -11.505  -6.948 -14.129 -0.47 -0.40    +0.222    16.521
ATOM     47  O   UNL d   1     -10.352  -8.724 -12.455 -0.31 +0.33    -0.303    16.521
ATOM     48  H   UNL d   1      -9.585  -9.290 -12.679 +0.03 -0.24    +0.222    16.521
TER
ENDMDL
MODEL       11
USER    Run = 11
USER    Cluster Rank = 58
USER    Number of conformations in this cluster = 1
USER  
USER    RMSD from reference structure       = 12.571 A
USER  
USER    Estimated Free Energy of Binding    =   +3.12 kcal/mol  [=(1)+(2)+(3)-(4)]
USER    
USER    (1) Final Intermolecular Energy     =   -4.04 kcal/mol
USER        vdW + Hbond + desolv Energy     =   -3.74 kcal/mol
USER        Electrostatic Energy            =   -0.31 kcal/mol
USER    (2) Final Total Internal Energy     =  -13.70 kcal/mol
USER    (3) Torsional Free Energy           =   +7.16 kcal/mol
USER    (4) Unbound System's Energy  [=(2)] =  -13.70 kcal/mol
USER    
USER    
USER  
USER    DPF = D:/Protein_go_brrr/autodock/final/mut_K82N/IHP/dock.dpf
USER    NEWDPF move	IHP_ideal_opt.pdbqt
USER    NEWDPF about	0.035000 0.082000 -0.065000
USER    NEWDPF tran0	9.621553 -12.654793 -3.375879
USER    NEWDPF axisangle0	0.419732 -0.573688 -0.703354 171.983564
USER    NEWDPF quaternion0	0.418705 -0.572285 -0.701634 0.069900
USER    NEWDPF dihe0	-100.37 2.93 157.58 5.23 39.99 -151.38 153.72 -78.77 -179.17 -72.91 -111.15 -165.77 -142.74 73.27 126.80 75.85 -163.01 -2.56 28.89 -29.48 -26.70 -33.13 21.58 161.12 
USER  
USER                              x       y       z    vdW   Elec        q     RMS 
ATOM      1  C   UNL d   1       8.931 -12.153  -4.878 -0.06 +0.02    +0.194    12.571
ATOM      2  C   UNL d   1      10.381 -11.726  -4.641 -0.03 +0.01    +0.194    12.571
ATOM      3  C   UNL d   1      10.597 -11.222  -3.213 -0.03 +0.01    +0.194    12.571
ATOM      4  C   UNL d   1      10.103 -12.200  -2.149 -0.03 +0.02    +0.194    12.571
ATOM      5  C   UNL d   1       8.702 -12.741  -2.407 -0.06 +0.02    +0.194    12.571
ATOM      6  C   UNL d   1       8.467 -13.187  -3.852 -0.05 +0.03    +0.194    12.571
ATOM      7  O   UNL d   1       8.852 -12.767  -6.167 -0.03 -0.02    -0.278    12.571
ATOM      8  P   UNL d   1       8.448 -11.858  -7.417 -0.04 +0.01    +0.473    12.571
ATOM      9  O   UNL d   1       6.991 -11.801  -7.712 -0.10 -0.02    -0.228    12.571
ATOM     10  O   UNL d   1       9.075 -10.431  -7.076 -0.16 +0.00    -0.303    12.571
ATOM     11  H   UNL d   1       9.898 -10.306  -7.584 +0.02 -0.01    +0.222    12.571
ATOM     12  O   UNL d   1       9.378 -12.354  -8.606 -0.01 +0.00    -0.303    12.571
ATOM     13  H   UNL d   1      10.307 -12.518  -8.326 +0.01 -0.00    +0.222    12.571
ATOM     14  O   UNL d   1      11.241 -12.850  -4.864 -0.00 -0.01    -0.278    12.571
ATOM     15  P   UNL d   1      12.025 -12.886  -6.260 +0.01 -0.00    +0.473    12.571
ATOM     16  O   UNL d   1      13.504 -13.104  -6.195 +0.00 +0.00    -0.228    12.571
ATOM     17  O   UNL d   1      11.271 -14.010  -7.100 +0.00 -0.00    -0.303    12.571
ATOM     18  H   UNL d   1      10.337 -13.770  -7.250 +0.01 +0.00    +0.222    12.571
ATOM     19  O   UNL d   1      11.560 -11.562  -7.010 -0.00 +0.00    -0.303    12.571
ATOM     20  H   UNL d   1      10.589 -11.507  -7.076 +0.01 -0.00    +0.222    12.571
ATOM     21  O   UNL d   1       7.058 -13.334  -4.013 -0.10 -0.08    -0.278    12.571
ATOM     22  P   UNL d   1       6.467 -14.682  -4.628 -0.06 +0.21    +0.473    12.571
ATOM     23  O   UNL d   1       5.052 -15.037  -4.318 -0.38 -0.32    -0.228    12.571
ATOM     24  O   UNL d   1       6.787 -14.502  -6.176 -0.01 -0.09    -0.303    12.571
ATOM     25  H   UNL d   1       6.837 -13.531  -6.370 +0.04 +0.06    +0.222    12.571
ATOM     26  O   UNL d   1       7.574 -15.754  -4.184 -0.04 -0.07    -0.303    12.571
ATOM     27  H   UNL d   1       7.929 -15.505  -3.307 +0.05 +0.04    +0.222    12.571
ATOM     28  O   UNL d   1      12.000 -11.116  -3.004 -0.00 -0.01    -0.278    12.571
ATOM     29  P   UNL d   1      12.811  -9.884  -3.605 +0.01 +0.00    +0.473    12.571
ATOM     30  O   UNL d   1      12.240  -8.542  -3.324 -0.02 -0.00    -0.228    12.571
ATOM     31  O   UNL d   1      14.266 -10.192  -3.013 -0.00 -0.00    -0.303    12.571
ATOM     32  H   UNL d   1      14.765  -9.346  -2.951 +0.00 +0.00    +0.222    12.571
ATOM     33  O   UNL d   1      12.959 -10.297  -5.136 +0.00 +0.00    -0.303    12.571
ATOM     34  H   UNL d   1      12.819 -11.272  -5.220 +0.01 -0.00    +0.222    12.571
ATOM     35  O   UNL d   1       8.577 -13.899  -1.584 -0.06 -0.04    -0.278    12.571
ATOM     36  P   UNL d   1       7.145 -14.359  -1.054 -0.15 +0.10    +0.473    12.571
ATOM     37  O   UNL d   1       6.981 -14.373   0.433 -0.95 -0.11    -0.228    12.571
ATOM     38  O   UNL d   1       6.177 -13.344  -1.809 -0.19 -0.07    -0.303    12.571
ATOM     39  H   UNL d   1       5.655 -13.836  -2.479 -0.27 +0.06    +0.222    12.571
ATOM     40  O   UNL d   1       6.926 -15.737  -1.818 -0.19 -0.05    -0.303    12.571
ATOM     41  H   UNL d   1       6.176 -15.687  -2.451 -0.44 +0.03    +0.222    12.571
ATOM     42  O   UNL d   1      10.054 -11.478  -0.914 -0.05 -0.02    -0.278    12.571
ATOM     43  P   UNL d   1       9.313 -10.066  -0.873 +0.00 +0.03    +0.473    12.571
ATOM     44  O   UNL d   1       8.008  -9.956  -1.582 -0.11 -0.02    -0.228    12.571
ATOM     45  O   UNL d   1       9.236  -9.757   0.686 -0.24 -0.02    -0.303    12.571
ATOM     46  H   UNL d   1       8.855  -8.873   0.857 +0.00 -0.00    +0.222    12.571
ATOM     47  O   UNL d   1      10.449  -9.042  -1.352 -0.07 -0.01    -0.303    12.571
ATOM     48  H   UNL d   1      11.197  -9.546  -1.736 +0.04 +0.01    +0.222    12.571
TER
ENDMDL
MODEL       21
USER    Run = 21
USER    Cluster Rank = 59
USER    Number of conformations in this cluster = 2
USER  
USER    RMSD from reference structure       = 18.137 A
USER  
USER    Estimated Free Energy of Binding    =   +3.14 kcal/mol  [=(1)+(2)+(3)-(4)]
USER    
USER    (1) Final Intermolecular Energy     =   -4.02 kcal/mol
USER        vdW + Hbond + desolv Energy     =   -3.91 kcal/mol
USER        Electrostatic Energy            =   -0.10 kcal/mol
USER    (2) Final Total Internal Energy     =  -13.69 kcal/mol
USER    (3) Torsional Free Energy           =   +7.16 kcal/mol
USER    (4) Unbound System's Energy  [=(2)] =  -13.69 kcal/mol
USER    
USER    
USER  
USER    DPF = D:/Protein_go_brrr/autodock/final/mut_K82N/IHP/dock.dpf
USER    NEWDPF move	IHP_ideal_opt.pdbqt
USER    NEWDPF about	0.035000 0.082000 -0.065000
USER    NEWDPF tran0	8.878649 12.586748 -13.511323
USER    NEWDPF axisangle0	0.500233 -0.840617 -0.207678 152.775522
USER    NEWDPF quaternion0	0.486182 -0.817004 -0.201844 0.235350
USER    NEWDPF dihe0	33.78 111.47 78.56 -144.59 69.63 -128.84 -112.96 -12.47 152.08 2.34 65.68 -141.79 14.55 -101.16 -2.89 140.92 114.01 -43.11 -8.55 -2.68 129.95 14.14 -42.01 164.40 
USER  
USER                              x       y       z    vdW   Elec        q     RMS 
ATOM      1  C   UNL d   1       9.296  11.756 -14.968 -0.12 +0.05    +0.194    18.137
ATOM      2  C   UNL d   1      10.461  12.065 -14.026 -0.10 +0.03    +0.194    18.137
ATOM      3  C   UNL d   1      10.370  13.483 -13.458 -0.10 +0.01    +0.194    18.137
ATOM      4  C   UNL d   1       9.017  13.790 -12.821 -0.13 +0.02    +0.194    18.137
ATOM      5  C   UNL d   1       7.823  13.392 -13.679 -0.19 +0.03    +0.194    18.137
ATOM      6  C   UNL d   1       7.942  11.998 -14.298 -0.22 +0.09    +0.194    18.137
ATOM      7  O   UNL d   1       9.358  10.371 -15.316 -0.09 -0.13    -0.278    18.137
ATOM      8  P   UNL d   1       9.247   9.970 -16.858 +0.01 +0.18    +0.473    18.137
ATOM      9  O   UNL d   1      10.382  10.420 -17.710 -0.01 -0.02    -0.228    18.137
ATOM     10  O   UNL d   1       9.070   8.385 -16.834 -0.48 -0.17    -0.303    18.137
ATOM     11  H   UNL d   1       9.767   7.970 -17.375 +0.02 +0.05    +0.222    18.137
ATOM     12  O   UNL d   1       7.804  10.459 -17.309 -0.07 -0.15    -0.303    18.137
ATOM     13  H   UNL d   1       7.708  11.438 -17.297 +0.03 +0.08    +0.222    18.137
ATOM     14  O   UNL d   1      10.440  11.134 -12.936 -0.10 -0.05    -0.278    18.137
ATOM     15  P   UNL d   1      11.811  10.369 -12.622 -0.13 +0.02    +0.473    18.137
ATOM     16  O   UNL d   1      12.549   9.803 -13.795 -0.04 -0.00    -0.228    18.137
ATOM     17  O   UNL d   1      12.670  11.433 -11.806 -0.13 -0.01    -0.303    18.137
ATOM     18  H   UNL d   1      12.314  12.335 -11.921 +0.06 +0.01    +0.222    18.137
ATOM     19  O   UNL d   1      11.430   9.325 -11.484 -0.18 -0.00    -0.303    18.137
ATOM     20  H   UNL d   1      12.043   8.566 -11.471 +0.05 -0.01    +0.222    18.137
ATOM     21  O   UNL d   1       6.950  11.913 -15.318 -0.69 -0.19    -0.278    18.137
ATOM     22  P   UNL d   1       6.462  13.239 -16.060 -0.07 +0.08    +0.473    18.137
ATOM     23  O   UNL d   1       7.410  14.386 -16.149 -0.02 -0.01    -0.228    18.137
ATOM     24  O   UNL d   1       5.973  12.666 -17.462 -0.06 -0.04    -0.303    18.137
ATOM     25  H   UNL d   1       6.059  11.679 -17.439 +0.03 +0.07    +0.222    18.137
ATOM     26  O   UNL d   1       5.070  13.532 -15.320 -0.13 -0.03    -0.303    18.137
ATOM     27  H   UNL d   1       5.229  13.616 -14.357 +0.08 +0.03    +0.222    18.137
ATOM     28  O   UNL d   1      11.316  13.581 -12.400 -0.09 -0.01    -0.278    18.137
ATOM     29  P   UNL d   1      12.423  14.726 -12.415 -0.01 -0.01    +0.473    18.137
ATOM     30  O   UNL d   1      12.320  15.731 -11.326 -0.04 +0.01    -0.228    18.137
ATOM     31  O   UNL d   1      13.749  13.832 -12.455 -0.01 +0.01    -0.303    18.137
ATOM     32  H   UNL d   1      13.778  13.277 -11.642 +0.04 -0.00    +0.222    18.137
ATOM     33  O   UNL d   1      12.320  15.271 -13.908 -0.00 +0.01    -0.303    18.137
ATOM     34  H   UNL d   1      11.368  15.409 -14.135 +0.02 -0.00    +0.222    18.137
ATOM     35  O   UNL d   1       6.703  13.365 -12.796 -0.24 -0.05    -0.278    18.137
ATOM     36  P   UNL d   1       5.846  14.687 -12.545 -0.23 -0.01    +0.473    18.137
ATOM     37  O   UNL d   1       4.455  14.466 -12.039 -0.40 +0.01    -0.228    18.137
ATOM     38  O   UNL d   1       6.784  15.499 -11.547 -0.20 +0.03    -0.303    18.137
ATOM     39  H   UNL d   1       7.471  15.971 -12.065 +0.08 -0.01    +0.222    18.137
ATOM     40  O   UNL d   1       5.997  15.459 -13.927 -0.06 +0.02    -0.303    18.137
ATOM     41  H   UNL d   1       6.907  15.379 -14.291 +0.06 -0.00    +0.222    18.137
ATOM     42  O   UNL d   1       8.955  15.209 -12.645 -0.09 -0.00    -0.278    18.137
ATOM     43  P   UNL d   1       9.228  16.155 -13.900 -0.00 -0.01    +0.473    18.137
ATOM     44  O   UNL d   1       9.479  15.498 -15.214 -0.01 +0.00    -0.228    18.137
ATOM     45  O   UNL d   1       7.968  17.126 -13.888 -0.01 +0.02    -0.303    18.137
ATOM     46  H   UNL d   1       7.306  16.845 -13.224 +0.04 -0.02    +0.222    18.137
ATOM     47  O   UNL d   1      10.393  17.126 -13.380 -0.00 +0.01    -0.303    18.137
ATOM     48  H   UNL d   1      11.007  16.618 -12.811 +0.02 -0.01    +0.222    18.137
TER
ENDMDL
MODEL       95
USER    Run = 95
USER    Cluster Rank = 60
USER    Number of conformations in this cluster = 1
USER  
USER    RMSD from reference structure       = 10.580 A
USER  
USER    Estimated Free Energy of Binding    =   +3.17 kcal/mol  [=(1)+(2)+(3)-(4)]
USER    
USER    (1) Final Intermolecular Energy     =   -3.99 kcal/mol
USER        vdW + Hbond + desolv Energy     =   -3.93 kcal/mol
USER        Electrostatic Energy            =   -0.06 kcal/mol
USER    (2) Final Total Internal Energy     =  -14.34 kcal/mol
USER    (3) Torsional Free Energy           =   +7.16 kcal/mol
USER    (4) Unbound System's Energy  [=(2)] =  -14.34 kcal/mol
USER    
USER    
USER  
USER    DPF = D:/Protein_go_brrr/autodock/final/mut_K82N/IHP/dock.dpf
USER    NEWDPF move	IHP_ideal_opt.pdbqt
USER    NEWDPF about	0.035000 0.082000 -0.065000
USER    NEWDPF tran0	12.982008 -4.348506 2.062200
USER    NEWDPF axisangle0	0.796539 0.573924 0.190100 -110.902240
USER    NEWDPF quaternion0	0.656063 0.472708 0.156574 -0.567109
USER    NEWDPF dihe0	119.42 43.82 108.35 102.02 -20.43 -167.86 25.60 -92.74 54.31 -37.40 -38.83 -127.93 151.70 97.44 -30.40 -128.35 164.79 -43.44 31.53 -10.06 -180.00 20.64 8.99 -178.94 
USER  
USER                              x       y       z    vdW   Elec        q     RMS 
ATOM      1  C   UNL d   1      13.807  -3.900   0.612 -0.07 +0.01    +0.194    10.580
ATOM      2  C   UNL d   1      12.548  -4.749   0.421 -0.13 -0.00    +0.194    10.580
ATOM      3  C   UNL d   1      12.476  -5.892   1.436 -0.16 -0.00    +0.194    10.580
ATOM      4  C   UNL d   1      12.645  -5.426   2.880 -0.01 +0.01    +0.194    10.580
ATOM      5  C   UNL d   1      13.823  -4.484   3.095 -0.12 +0.01    +0.194    10.580
ATOM      6  C   UNL d   1      13.930  -3.377   2.044 -0.11 +0.00    +0.194    10.580
ATOM      7  O   UNL d   1      13.714  -2.764  -0.250 -0.08 -0.05    -0.278    10.580
ATOM      8  P   UNL d   1      14.328  -2.874  -1.721 -0.04 +0.16    +0.473    10.580
ATOM      9  O   UNL d   1      14.692  -1.577  -2.352 -0.08 -0.14    -0.228    10.580
ATOM     10  O   UNL d   1      15.572  -3.859  -1.547 -0.00 -0.03    -0.303    10.580
ATOM     11  H   UNL d   1      16.021  -3.673  -0.701 +0.02 +0.02    +0.222    10.580
ATOM     12  O   UNL d   1      13.301  -3.776  -2.531 -0.15 -0.12    -0.303    10.580
ATOM     13  H   UNL d   1      12.545  -4.086  -1.983 +0.06 +0.07    +0.222    10.580
ATOM     14  O   UNL d   1      11.394  -3.916   0.589 -0.21 +0.06    -0.278    10.580
ATOM     15  P   UNL d   1      10.384  -3.835  -0.650 -0.22 -0.03    +0.473    10.580
ATOM     16  O   UNL d   1       8.953  -3.532  -0.332 -0.44 +0.05    -0.228    10.580
ATOM     17  O   UNL d   1      11.043  -2.755  -1.618 -0.87 -0.15    -0.303    10.580
ATOM     18  H   UNL d   1      11.960  -2.555  -1.349 +0.04 +0.13    +0.222    10.580
ATOM     19  O   UNL d   1      10.636  -5.182  -1.457 -0.13 -0.02    -0.303    10.580
ATOM     20  H   UNL d   1      10.729  -5.948  -0.860 +0.10 +0.00    +0.222    10.580
ATOM     21  O   UNL d   1      15.233  -2.812   2.172 -0.02 -0.01    -0.278    10.580
ATOM     22  P   UNL d   1      16.493  -3.583   1.569 +0.02 +0.01    +0.473    10.580
ATOM     23  O   UNL d   1      16.260  -4.889   0.887 -0.00 -0.01    -0.228    10.580
ATOM     24  O   UNL d   1      17.154  -2.460   0.654 +0.01 -0.01    -0.303    10.580
ATOM     25  H   UNL d   1      16.718  -2.492  -0.236 +0.01 +0.01    +0.222    10.580
ATOM     26  O   UNL d   1      17.488  -3.614   2.826 +0.00 -0.00    -0.303    10.580
ATOM     27  H   UNL d   1      16.979  -3.440   3.643 +0.01 +0.00    +0.222    10.580
ATOM     28  O   UNL d   1      11.168  -6.443   1.367 -0.25 +0.01    -0.278    10.580
ATOM     29  P   UNL d   1      10.963  -8.018   1.247 -0.18 -0.00    +0.473    10.580
ATOM     30  O   UNL d   1       9.696  -8.453   0.606 -0.26 +0.01    -0.228    10.580
ATOM     31  O   UNL d   1      12.326  -8.421   0.511 -0.04 -0.01    -0.303    10.580
ATOM     32  H   UNL d   1      13.054  -8.416   1.174 +0.05 +0.01    +0.222    10.580
ATOM     33  O   UNL d   1      11.216  -8.503   2.743 -0.25 -0.02    -0.303    10.580
ATOM     34  H   UNL d   1      11.899  -7.921   3.158 +0.09 +0.02    +0.222    10.580
ATOM     35  O   UNL d   1      13.587  -3.850   4.350 -0.14 -0.03    -0.278    10.580
ATOM     36  P   UNL d   1      14.793  -3.604   5.365 -0.09 +0.03    +0.473    10.580
ATOM     37  O   UNL d   1      14.423  -3.590   6.815 -0.17 -0.02    -0.228    10.580
ATOM     38  O   UNL d   1      15.804  -4.765   4.959 -0.01 -0.01    -0.303    10.580
ATOM     39  H   UNL d   1      15.328  -5.430   4.416 +0.04 +0.01    +0.222    10.580
ATOM     40  O   UNL d   1      15.466  -2.287   4.780 -0.03 -0.01    -0.303    10.580
ATOM     41  H   UNL d   1      16.038  -2.484   4.005 +0.02 +0.01    +0.222    10.580
ATOM     42  O   UNL d   1      12.893  -6.596   3.666 -0.14 -0.03    -0.278    10.580
ATOM     43  P   UNL d   1      14.285  -7.357   3.501 -0.03 +0.02    +0.473    10.580
ATOM     44  O   UNL d   1      15.282  -6.768   2.563 -0.01 -0.00    -0.228    10.580
ATOM     45  O   UNL d   1      14.797  -7.478   5.003 -0.03 -0.01    -0.303    10.580
ATOM     46  H   UNL d   1      15.588  -6.923   5.157 +0.03 +0.01    +0.222    10.580
ATOM     47  O   UNL d   1      13.844  -8.865   3.185 -0.03 -0.02    -0.303    10.580
ATOM     48  H   UNL d   1      13.193  -8.864   2.452 +0.05 +0.01    +0.222    10.580
TER
ENDMDL
MODEL        5
USER    Run = 5
USER    Cluster Rank = 61
USER    Number of conformations in this cluster = 1
USER  
USER    RMSD from reference structure       = 19.487 A
USER  
USER    Estimated Free Energy of Binding    =   +3.18 kcal/mol  [=(1)+(2)+(3)-(4)]
USER    
USER    (1) Final Intermolecular Energy     =   -3.98 kcal/mol
USER        vdW + Hbond + desolv Energy     =   -3.95 kcal/mol
USER        Electrostatic Energy            =   -0.03 kcal/mol
USER    (2) Final Total Internal Energy     =  -15.10 kcal/mol
USER    (3) Torsional Free Energy           =   +7.16 kcal/mol
USER    (4) Unbound System's Energy  [=(2)] =  -15.10 kcal/mol
USER    
USER    
USER  
USER    DPF = D:/Protein_go_brrr/autodock/final/mut_K82N/IHP/dock.dpf
USER    NEWDPF move	IHP_ideal_opt.pdbqt
USER    NEWDPF about	0.035000 0.082000 -0.065000
USER    NEWDPF tran0	-6.035221 21.857872 2.607996
USER    NEWDPF axisangle0	0.075897 -0.610377 -0.788467 -150.860142
USER    NEWDPF quaternion0	0.073457 -0.590748 -0.763111 -0.251561
USER    NEWDPF dihe0	148.87 178.55 176.97 -33.45 100.97 64.15 -112.85 -49.48 -3.92 40.96 53.64 -120.59 -87.62 176.03 -119.78 -130.72 157.52 124.57 56.00 15.41 -3.19 -1.41 -22.70 -2.34 
USER  
USER                              x       y       z    vdW   Elec        q     RMS 
ATOM      1  C   UNL d   1      -7.704  22.108   2.237 -0.12 +0.00    +0.194    19.487
ATOM      2  C   UNL d   1      -6.715  22.517   1.144 -0.12 -0.01    +0.194    19.487
ATOM      3  C   UNL d   1      -5.508  23.260   1.721 -0.08 -0.02    +0.194    19.487
ATOM      4  C   UNL d   1      -4.828  22.507   2.862 -0.14 -0.01    +0.194    19.487
ATOM      5  C   UNL d   1      -5.791  21.980   3.918 -0.11 +0.00    +0.194    19.487
ATOM      6  C   UNL d   1      -7.029  21.291   3.340 -0.09 -0.00    +0.194    19.487
ATOM      7  O   UNL d   1      -8.705  21.277   1.644 -0.12 -0.03    -0.278    19.487
ATOM      8  P   UNL d   1      -9.699  21.930   0.577 -0.05 +0.04    +0.473    19.487
ATOM      9  O   UNL d   1     -10.091  23.337   0.859 -0.02 -0.00    -0.228    19.487
ATOM     10  O   UNL d   1      -8.940  21.756  -0.815 -0.08 -0.03    -0.303    19.487
ATOM     11  H   UNL d   1      -8.031  21.441  -0.655 +0.07 +0.02    +0.222    19.487
ATOM     12  O   UNL d   1     -10.893  20.891   0.436 -0.07 -0.04    -0.303    19.487
ATOM     13  H   UNL d   1     -11.780  21.316   0.474 +0.03 +0.02    +0.222    19.487
ATOM     14  O   UNL d   1      -6.249  21.341   0.471 -0.23 +0.00    -0.278    19.487
ATOM     15  P   UNL d   1      -5.917  21.492  -1.088 -0.19 -0.03    +0.473    19.487
ATOM     16  O   UNL d   1      -6.549  20.495  -2.009 -0.32 -0.00    -0.228    19.487
ATOM     17  O   UNL d   1      -6.328  22.993  -1.428 -0.04 +0.03    -0.303    19.487
ATOM     18  H   UNL d   1      -5.624  23.617  -1.167 +0.07 -0.04    +0.222    19.487
ATOM     19  O   UNL d   1      -4.330  21.573  -1.150 -0.30 +0.08    -0.303    19.487
ATOM     20  H   UNL d   1      -4.015  22.496  -1.136 +0.12 -0.07    +0.222    19.487
ATOM     21  O   UNL d   1      -7.968  21.170   4.405 -0.08 -0.03    -0.278    19.487
ATOM     22  P   UNL d   1      -8.217  19.748   5.084 -0.12 +0.16    +0.473    19.487
ATOM     23  O   UNL d   1      -9.274  18.867   4.509 -0.16 -0.07    -0.228    19.487
ATOM     24  O   UNL d   1      -6.752  19.124   5.077 -0.66 -0.27    -0.303    19.487
ATOM     25  H   UNL d   1      -6.104  19.859   5.224 -0.18 +0.13    +0.222    19.487
ATOM     26  O   UNL d   1      -8.398  20.150   6.625 -0.02 -0.09    -0.303    19.487
ATOM     27  H   UNL d   1      -7.622  19.837   7.133 +0.04 +0.11    +0.222    19.487
ATOM     28  O   UNL d   1      -4.530  23.351   0.693 -0.08 +0.05    -0.278    19.487
ATOM     29  P   UNL d   1      -4.211  24.753   0.008 -0.01 -0.13    +0.473    19.487
ATOM     30  O   UNL d   1      -3.620  24.681  -1.353 -0.13 +0.13    -0.228    19.487
ATOM     31  O   UNL d   1      -5.639  25.461   0.143 -0.00 +0.05    -0.303    19.487
ATOM     32  H   UNL d   1      -6.302  24.929  -0.354 +0.03 -0.03    +0.222    19.487
ATOM     33  O   UNL d   1      -3.348  25.484   1.129 -0.02 +0.07    -0.303    19.487
ATOM     34  H   UNL d   1      -3.126  24.832   1.839 +0.05 -0.05    +0.222    19.487
ATOM     35  O   UNL d   1      -5.063  20.993   4.647 -0.06 -0.06    -0.278    19.487
ATOM     36  P   UNL d   1      -4.578  21.288   6.137 -0.06 +0.12    +0.473    19.487
ATOM     37  O   UNL d   1      -3.433  20.456   6.620 -0.14 -0.08    -0.228    19.487
ATOM     38  O   UNL d   1      -4.273  22.850   6.078 -0.02 -0.01    -0.303    19.487
ATOM     39  H   UNL d   1      -3.440  22.995   5.581 +0.05 -0.01    +0.222    19.487
ATOM     40  O   UNL d   1      -5.936  21.194   6.961 -0.03 -0.09    -0.303    19.487
ATOM     41  H   UNL d   1      -6.703  20.999   6.378 +0.04 +0.07    +0.222    19.487
ATOM     42  O   UNL d   1      -3.958  23.439   3.513 -0.06 +0.03    -0.278    19.487
ATOM     43  P   UNL d   1      -2.381  23.208   3.431 -0.13 -0.10    +0.473    19.487
ATOM     44  O   UNL d   1      -1.501  24.304   3.924 -0.12 +0.06    -0.228    19.487
ATOM     45  O   UNL d   1      -2.191  21.826   4.197 -0.17 +0.05    -0.303    19.487
ATOM     46  H   UNL d   1      -2.959  21.624   4.768 +0.08 +0.01    +0.222    19.487
ATOM     47  O   UNL d   1      -2.153  22.770   1.906 -0.25 +0.09    -0.303    19.487
ATOM     48  H   UNL d   1      -2.484  23.477   1.315 +0.09 -0.06    +0.222    19.487
TER
ENDMDL
MODEL      100
USER    Run = 100
USER    Cluster Rank = 62
USER    Number of conformations in this cluster = 1
USER  
USER    RMSD from reference structure       = 13.122 A
USER  
USER    Estimated Free Energy of Binding    =   +3.31 kcal/mol  [=(1)+(2)+(3)-(4)]
USER    
USER    (1) Final Intermolecular Energy     =   -3.85 kcal/mol
USER        vdW + Hbond + desolv Energy     =   -3.56 kcal/mol
USER        Electrostatic Energy            =   -0.29 kcal/mol
USER    (2) Final Total Internal Energy     =  -14.67 kcal/mol
USER    (3) Torsional Free Energy           =   +7.16 kcal/mol
USER    (4) Unbound System's Energy  [=(2)] =  -14.67 kcal/mol
USER    
USER    
USER  
USER    DPF = D:/Protein_go_brrr/autodock/final/mut_K82N/IHP/dock.dpf
USER    NEWDPF move	IHP_ideal_opt.pdbqt
USER    NEWDPF about	0.035000 0.082000 -0.065000
USER    NEWDPF tran0	-11.743746 7.553711 -9.465204
USER    NEWDPF axisangle0	-0.488347 -0.823163 0.289690 71.657092
USER    NEWDPF quaternion0	-0.285859 -0.481848 0.169573 0.810772
USER    NEWDPF dihe0	74.63 -9.20 116.50 126.65 123.29 169.52 -36.93 -150.74 143.07 -18.45 -147.11 -175.23 -175.57 81.79 40.03 139.23 -172.63 158.90 35.07 -13.55 -174.96 -25.60 17.74 -173.79 
USER  
USER                              x       y       z    vdW   Elec        q     RMS 
ATOM      1  C   UNL d   1     -11.092   6.367 -10.538 -0.04 +0.06    +0.194    13.122
ATOM      2  C   UNL d   1     -12.384   5.971  -9.820 -0.03 +0.09    +0.194    13.122
ATOM      3  C   UNL d   1     -12.358   6.372  -8.344 -0.05 +0.15    +0.194    13.122
ATOM      4  C   UNL d   1     -12.003   7.841  -8.126 -0.03 +0.09    +0.194    13.122
ATOM      5  C   UNL d   1     -10.786   8.309  -8.914 -0.03 +0.06    +0.194    13.122
ATOM      6  C   UNL d   1     -10.783   7.855 -10.375 -0.02 +0.05    +0.194    13.122
ATOM      7  O   UNL d   1     -11.264   6.117 -11.935 -0.03 -0.06    -0.278    13.122
ATOM      8  P   UNL d   1     -10.918   4.661 -12.494 -0.09 +0.14    +0.473    13.122
ATOM      9  O   UNL d   1      -9.917   4.630 -13.596 -0.22 -0.06    -0.228    13.122
ATOM     10  O   UNL d   1     -10.454   3.850 -11.201 -0.09 -0.11    -0.303    13.122
ATOM     11  H   UNL d   1      -9.513   4.033 -11.021 +0.07 +0.07    +0.222    13.122
ATOM     12  O   UNL d   1     -12.325   3.998 -12.816 -0.07 -0.12    -0.303    13.122
ATOM     13  H   UNL d   1     -12.939   4.005 -12.048 +0.03 +0.08    +0.222    13.122
ATOM     14  O   UNL d   1     -13.489   6.628 -10.452 +0.00 -0.08    -0.278    13.122
ATOM     15  P   UNL d   1     -14.599   5.684 -11.117 +0.01 +0.11    +0.473    13.122
ATOM     16  O   UNL d   1     -16.028   6.067 -10.893 +0.00 -0.04    -0.228    13.122
ATOM     17  O   UNL d   1     -14.204   5.648 -12.660 +0.00 -0.07    -0.303    13.122
ATOM     18  H   UNL d   1     -13.268   5.896 -12.789 +0.02 +0.05    +0.222    13.122
ATOM     19  O   UNL d   1     -14.201   4.216 -10.651 -0.00 -0.10    -0.303    13.122
ATOM     20  H   UNL d   1     -14.312   4.100  -9.689 +0.01 +0.09    +0.222    13.122
ATOM     21  O   UNL d   1      -9.461   8.064 -10.868 -0.03 -0.04    -0.278    13.122
ATOM     22  P   UNL d   1      -8.331   6.973 -10.590 -0.06 +0.07    +0.473    13.122
ATOM     23  O   UNL d   1      -8.427   5.663 -11.295 -0.13 -0.04    -0.228    13.122
ATOM     24  O   UNL d   1      -7.002   7.797 -10.890 -0.12 -0.01    -0.303    13.122
ATOM     25  H   UNL d   1      -6.995   8.595 -10.302 +0.10 +0.00    +0.222    13.122
ATOM     26  O   UNL d   1      -8.326   6.911  -8.988 -0.10 -0.08    -0.303    13.122
ATOM     27  H   UNL d   1      -8.941   7.587  -8.638 +0.07 +0.07    +0.222    13.122
ATOM     28  O   UNL d   1     -13.677   6.223  -7.836 -0.04 -0.19    -0.278    13.122
ATOM     29  P   UNL d   1     -14.182   4.807  -7.309 -0.02 +0.46    +0.473    13.122
ATOM     30  O   UNL d   1     -14.453   4.726  -5.851 -0.25 -0.25    -0.228    13.122
ATOM     31  O   UNL d   1     -15.422   4.569  -8.293 -0.00 -0.12    -0.303    13.122
ATOM     32  H   UNL d   1     -15.355   5.205  -9.042 +0.01 +0.07    +0.222    13.122
ATOM     33  O   UNL d   1     -13.076   3.821  -7.892 -0.08 -0.47    -0.303    13.122
ATOM     34  H   UNL d   1     -13.373   3.492  -8.776 +0.02 +0.18    +0.222    13.122
ATOM     35  O   UNL d   1     -10.852   9.734  -8.917 -0.02 -0.07    -0.278    13.122
ATOM     36  P   UNL d   1      -9.513  10.601  -8.938 -0.08 +0.11    +0.473    13.122
ATOM     37  O   UNL d   1      -9.411  11.655  -7.882 -0.18 -0.06    -0.228    13.122
ATOM     38  O   UNL d   1      -8.392   9.472  -8.846 -0.12 -0.05    -0.303    13.122
ATOM     39  H   UNL d   1      -8.339   9.002  -9.706 +0.08 +0.03    +0.222    13.122
ATOM     40  O   UNL d   1      -9.445  11.085 -10.451 -0.58 -0.11    -0.303    13.122
ATOM     41  H   UNL d   1      -9.401  10.327 -11.075 +0.05 +0.04    +0.222    13.122
ATOM     42  O   UNL d   1     -11.688   7.990  -6.737 -0.05 -0.16    -0.278    13.122
ATOM     43  P   UNL d   1     -10.287   7.447  -6.202 -0.06 +0.39    +0.473    13.122
ATOM     44  O   UNL d   1     -10.195   7.092  -4.758 -0.67 -0.21    -0.228    13.122
ATOM     45  O   UNL d   1      -9.980   6.238  -7.190 -0.52 -0.36    -0.303    13.122
ATOM     46  H   UNL d   1      -9.035   6.210  -7.438 +0.07 +0.17    +0.222    13.122
ATOM     47  O   UNL d   1      -9.246   8.555  -6.710 -0.40 -0.13    -0.303    13.122
ATOM     48  H   UNL d   1      -9.737   9.282  -7.148 +0.09 +0.07    +0.222    13.122
TER
ENDMDL
MODEL       22
USER    Run = 22
USER    Cluster Rank = 63
USER    Number of conformations in this cluster = 1
USER  
USER    RMSD from reference structure       = 18.343 A
USER  
USER    Estimated Free Energy of Binding    =   +3.34 kcal/mol  [=(1)+(2)+(3)-(4)]
USER    
USER    (1) Final Intermolecular Energy     =   -3.82 kcal/mol
USER        vdW + Hbond + desolv Energy     =   -3.58 kcal/mol
USER        Electrostatic Energy            =   -0.24 kcal/mol
USER    (2) Final Total Internal Energy     =  -15.53 kcal/mol
USER    (3) Torsional Free Energy           =   +7.16 kcal/mol
USER    (4) Unbound System's Energy  [=(2)] =  -15.53 kcal/mol
USER    
USER    
USER  
USER    DPF = D:/Protein_go_brrr/autodock/final/mut_K82N/IHP/dock.dpf
USER    NEWDPF move	IHP_ideal_opt.pdbqt
USER    NEWDPF about	0.035000 0.082000 -0.065000
USER    NEWDPF tran0	-7.326420 -20.008290 3.751829
USER    NEWDPF axisangle0	0.519612 -0.659815 -0.542814 -145.659127
USER    NEWDPF quaternion0	0.496454 -0.630408 -0.518621 -0.295215
USER    NEWDPF dihe0	-140.04 -23.63 141.01 -20.94 2.92 -138.46 0.76 -96.65 13.78 92.31 106.13 158.81 68.15 73.62 -57.24 -81.11 -44.73 -145.04 -27.31 -39.36 -4.85 25.64 166.10 -12.38 
USER  
USER                              x       y       z    vdW   Elec        q     RMS 
ATOM      1  C   UNL d   1      -8.161 -20.863   2.504 -0.01 -0.03    +0.194    18.343
ATOM      2  C   UNL d   1      -7.161 -19.808   2.027 -0.06 -0.04    +0.194    18.343
ATOM      3  C   UNL d   1      -7.261 -18.521   2.849 -0.09 -0.06    +0.194    18.343
ATOM      4  C   UNL d   1      -7.173 -18.761   4.354 -0.05 -0.07    +0.194    18.343
ATOM      5  C   UNL d   1      -8.071 -19.884   4.857 -0.00 -0.03    +0.194    18.343
ATOM      6  C   UNL d   1      -8.018 -21.150   4.000 -0.00 -0.03    +0.194    18.343
ATOM      7  O   UNL d   1      -7.889 -22.082   1.809 -0.00 +0.03    -0.278    18.343
ATOM      8  P   UNL d   1      -9.104 -23.080   1.521 +0.00 -0.03    +0.473    18.343
ATOM      9  O   UNL d   1      -9.363 -23.359   0.083 +0.00 +0.01    -0.228    18.343
ATOM     10  O   UNL d   1      -8.737 -24.387   2.359 +0.00 +0.02    -0.303    18.343
ATOM     11  H   UNL d   1      -8.699 -24.167   3.309 +0.00 -0.01    +0.222    18.343
ATOM     12  O   UNL d   1     -10.327 -22.489   2.345 +0.00 +0.02    -0.303    18.343
ATOM     13  H   UNL d   1     -10.210 -22.567   3.319 +0.00 -0.02    +0.222    18.343
ATOM     14  O   UNL d   1      -5.833 -20.331   2.157 -0.09 +0.10    -0.278    18.343
ATOM     15  P   UNL d   1      -5.228 -21.072   0.873 -0.06 -0.09    +0.473    18.343
ATOM     16  O   UNL d   1      -3.871 -20.630   0.420 -0.15 +0.05    -0.228    18.343
ATOM     17  O   UNL d   1      -5.278 -22.617   1.257 -0.01 +0.04    -0.303    18.343
ATOM     18  H   UNL d   1      -6.137 -22.853   1.657 +0.01 -0.03    +0.222    18.343
ATOM     19  O   UNL d   1      -6.380 -20.977  -0.220 -0.03 +0.03    -0.303    18.343
ATOM     20  H   UNL d   1      -7.063 -21.660  -0.084 +0.03 -0.02    +0.222    18.343
ATOM     21  O   UNL d   1      -9.133 -21.953   4.381 +0.00 +0.03    -0.278    18.343
ATOM     22  P   UNL d   1      -8.899 -23.276   5.240 +0.00 -0.03    +0.473    18.343
ATOM     23  O   UNL d   1      -7.587 -23.974   5.117 +0.00 +0.02    -0.228    18.343
ATOM     24  O   UNL d   1      -9.253 -22.777   6.709 +0.00 +0.02    -0.303    18.343
ATOM     25  H   UNL d   1      -8.603 -22.073   6.961 +0.00 -0.02    +0.222    18.343
ATOM     26  O   UNL d   1     -10.194 -24.142   4.864 +0.00 +0.02    -0.303    18.343
ATOM     27  H   UNL d   1     -10.314 -24.136   3.892 +0.00 -0.01    +0.222    18.343
ATOM     28  O   UNL d   1      -6.131 -17.720   2.528 -0.18 +0.13    -0.278    18.343
ATOM     29  P   UNL d   1      -6.299 -16.157   2.274 -0.27 -0.07    +0.473    18.343
ATOM     30  O   UNL d   1      -6.176 -15.721   0.859 -0.53 -0.02    -0.228    18.343
ATOM     31  O   UNL d   1      -7.708 -15.908   2.990 -0.23 +0.07    -0.303    18.343
ATOM     32  H   UNL d   1      -7.664 -16.270   3.905 +0.07 -0.07    +0.222    18.343
ATOM     33  O   UNL d   1      -5.263 -15.537   3.311 -0.97 +0.07    -0.303    18.343
ATOM     34  H   UNL d   1      -5.279 -16.073   4.141 +0.04 -0.13    +0.222    18.343
ATOM     35  O   UNL d   1      -7.571 -20.230   6.148 +0.00 +0.04    -0.278    18.343
ATOM     36  P   UNL d   1      -6.099 -20.822   6.308 +0.00 -0.08    +0.473    18.343
ATOM     37  O   UNL d   1      -5.327 -20.984   5.038 -0.05 +0.08    -0.228    18.343
ATOM     38  O   UNL d   1      -5.449 -19.803   7.345 -0.01 +0.03    -0.303    18.343
ATOM     39  H   UNL d   1      -5.518 -18.892   6.986 +0.03 -0.04    +0.222    18.343
ATOM     40  O   UNL d   1      -6.353 -22.135   7.170 +0.00 +0.03    -0.303    18.343
ATOM     41  H   UNL d   1      -7.064 -22.693   6.783 +0.00 -0.02    +0.222    18.343
ATOM     42  O   UNL d   1      -7.610 -17.555   4.991 -0.04 +0.08    -0.278    18.343
ATOM     43  P   UNL d   1      -6.634 -16.831   6.024 -0.03 -0.13    +0.473    18.343
ATOM     44  O   UNL d   1      -6.871 -17.068   7.475 -0.02 +0.03    -0.228    18.343
ATOM     45  O   UNL d   1      -5.194 -17.282   5.518 -0.07 +0.21    -0.303    18.343
ATOM     46  H   UNL d   1      -5.174 -17.390   4.546 -0.41 -0.32    +0.222    18.343
ATOM     47  O   UNL d   1      -6.678 -15.299   5.557 -0.13 +0.12    -0.303    18.343
ATOM     48  H   UNL d   1      -6.961 -15.255   4.620 -0.27 -0.11    +0.222    18.343
TER
ENDMDL
MODEL       85
USER    Run = 85
USER    Cluster Rank = 64
USER    Number of conformations in this cluster = 1
USER  
USER    RMSD from reference structure       = 21.281 A
USER  
USER    Estimated Free Energy of Binding    =   +3.35 kcal/mol  [=(1)+(2)+(3)-(4)]
USER    
USER    (1) Final Intermolecular Energy     =   -3.81 kcal/mol
USER        vdW + Hbond + desolv Energy     =   -3.73 kcal/mol
USER        Electrostatic Energy            =   -0.09 kcal/mol
USER    (2) Final Total Internal Energy     =  -15.48 kcal/mol
USER    (3) Torsional Free Energy           =   +7.16 kcal/mol
USER    (4) Unbound System's Energy  [=(2)] =  -15.48 kcal/mol
USER    
USER    
USER  
USER    DPF = D:/Protein_go_brrr/autodock/final/mut_K82N/IHP/dock.dpf
USER    NEWDPF move	IHP_ideal_opt.pdbqt
USER    NEWDPF about	0.035000 0.082000 -0.065000
USER    NEWDPF tran0	-7.493480 3.510853 -21.528059
USER    NEWDPF axisangle0	-0.113677 -0.415916 0.902270 87.748040
USER    NEWDPF quaternion0	-0.078787 -0.288261 0.625341 0.720865
USER    NEWDPF dihe0	-135.70 -22.72 173.55 -10.86 11.08 151.84 -30.12 -167.68 109.09 136.01 15.72 143.92 51.61 173.36 -178.36 -56.02 108.46 176.54 -14.46 16.26 -22.55 10.46 165.68 -10.66 
USER  
USER                              x       y       z    vdW   Elec        q     RMS 
ATOM      1  C   UNL d   1      -8.019   1.881 -21.303 -0.14 -0.04    +0.194    21.281
ATOM      2  C   UNL d   1      -8.962   2.959 -20.766 -0.19 +0.00    +0.194    21.281
ATOM      3  C   UNL d   1      -8.199   4.067 -20.037 -0.21 -0.01    +0.194    21.281
ATOM      4  C   UNL d   1      -7.059   4.656 -20.863 -0.22 -0.03    +0.194    21.281
ATOM      5  C   UNL d   1      -6.159   3.613 -21.513 -0.13 -0.04    +0.194    21.281
ATOM      6  C   UNL d   1      -6.922   2.472 -22.190 -0.16 -0.05    +0.194    21.281
ATOM      7  O   UNL d   1      -8.783   0.983 -22.112 -0.08 +0.03    -0.278    21.281
ATOM      8  P   UNL d   1      -8.521  -0.586 -21.960 -0.09 -0.10    +0.473    21.281
ATOM      9  O   UNL d   1      -9.550  -1.324 -21.179 -0.11 +0.03    -0.228    21.281
ATOM     10  O   UNL d   1      -8.383  -1.102 -23.463 -0.02 +0.06    -0.303    21.281
ATOM     11  H   UNL d   1      -7.579  -0.725 -23.866 +0.03 -0.05    +0.222    21.281
ATOM     12  O   UNL d   1      -7.028  -0.706 -21.429 -0.13 +0.14    -0.303    21.281
ATOM     13  H   UNL d   1      -6.359  -0.426 -22.093 -0.05 -0.10    +0.222    21.281
ATOM     14  O   UNL d   1      -9.676   3.543 -21.863 -0.04 -0.00    -0.278    21.281
ATOM     15  P   UNL d   1     -11.166   4.046 -21.559 -0.02 +0.04    +0.473    21.281
ATOM     16  O   UNL d   1     -12.230   3.613 -22.518 -0.01 -0.02    -0.228    21.281
ATOM     17  O   UNL d   1     -11.443   3.560 -20.068 -0.09 -0.10    -0.303    21.281
ATOM     18  H   UNL d   1     -11.004   4.145 -19.420 +0.04 +0.07    +0.222    21.281
ATOM     19  O   UNL d   1     -11.020   5.618 -21.361 -0.01 -0.01    -0.303    21.281
ATOM     20  H   UNL d   1     -10.560   5.836 -20.530 +0.03 +0.01    +0.222    21.281
ATOM     21  O   UNL d   1      -5.977   1.433 -22.436 -0.13 +0.11    -0.278    21.281
ATOM     22  P   UNL d   1      -5.795   0.863 -23.915 -0.05 -0.11    +0.473    21.281
ATOM     23  O   UNL d   1      -5.424  -0.573 -24.076 -0.04 +0.06    -0.228    21.281
ATOM     24  O   UNL d   1      -7.172   1.277 -24.596 -0.01 +0.05    -0.303    21.281
ATOM     25  H   UNL d   1      -7.910   0.913 -24.044 +0.03 -0.03    +0.222    21.281
ATOM     26  O   UNL d   1      -4.778   1.927 -24.550 -0.04 +0.06    -0.303    21.281
ATOM     27  H   UNL d   1      -4.832   2.765 -24.046 +0.03 -0.04    +0.222    21.281
ATOM     28  O   UNL d   1      -9.105   5.141 -19.823 -0.11 -0.01    -0.278    21.281
ATOM     29  P   UNL d   1      -9.414   5.651 -18.346 -0.12 +0.03    +0.473    21.281
ATOM     30  O   UNL d   1     -10.425   4.863 -17.595 -0.17 -0.07    -0.228    21.281
ATOM     31  O   UNL d   1      -7.930   5.687 -17.747 -0.14 +0.05    -0.303    21.281
ATOM     32  H   UNL d   1      -7.291   5.740 -18.495 -0.35 -0.08    +0.222    21.281
ATOM     33  O   UNL d   1      -9.734   7.192 -18.584 -0.03 -0.00    -0.303    21.281
ATOM     34  H   UNL d   1      -8.988   7.734 -18.229 +0.04 -0.01    +0.222    21.281
ATOM     35  O   UNL d   1      -5.442   4.303 -22.535 -0.67 +0.01    -0.278    21.281
ATOM     36  P   UNL d   1      -6.220   4.941 -23.773 -0.02 -0.05    +0.473    21.281
ATOM     37  O   UNL d   1      -5.556   6.118 -24.414 -0.01 +0.02    -0.228    21.281
ATOM     38  O   UNL d   1      -6.391   3.683 -24.734 -0.01 +0.03    -0.303    21.281
ATOM     39  H   UNL d   1      -6.593   2.890 -24.192 +0.03 -0.03    +0.222    21.281
ATOM     40  O   UNL d   1      -7.677   5.169 -23.178 -0.01 +0.03    -0.303    21.281
ATOM     41  H   UNL d   1      -7.788   6.080 -22.826 +0.02 -0.02    +0.222    21.281
ATOM     42  O   UNL d   1      -6.243   5.414 -19.963 -0.20 +0.09    -0.278    21.281
ATOM     43  P   UNL d   1      -6.013   6.966 -20.251 -0.08 -0.10    +0.473    21.281
ATOM     44  O   UNL d   1      -4.636   7.503 -20.060 -0.10 +0.05    -0.228    21.281
ATOM     45  O   UNL d   1      -6.579   7.134 -21.728 -0.02 +0.04    -0.303    21.281
ATOM     46  H   UNL d   1      -6.123   6.539 -22.356 +0.03 -0.02    +0.222    21.281
ATOM     47  O   UNL d   1      -7.158   7.673 -19.380 -0.05 +0.05    -0.303    21.281
ATOM     48  H   UNL d   1      -7.970   7.126 -19.410 +0.04 -0.02    +0.222    21.281
TER
ENDMDL
MODEL       34
USER    Run = 34
USER    Cluster Rank = 65
USER    Number of conformations in this cluster = 1
USER  
USER    RMSD from reference structure       = 19.738 A
USER  
USER    Estimated Free Energy of Binding    =   +3.39 kcal/mol  [=(1)+(2)+(3)-(4)]
USER    
USER    (1) Final Intermolecular Energy     =   -3.77 kcal/mol
USER        vdW + Hbond + desolv Energy     =   -3.72 kcal/mol
USER        Electrostatic Energy            =   -0.06 kcal/mol
USER    (2) Final Total Internal Energy     =  -12.65 kcal/mol
USER    (3) Torsional Free Energy           =   +7.16 kcal/mol
USER    (4) Unbound System's Energy  [=(2)] =  -12.65 kcal/mol
USER    
USER    
USER  
USER    DPF = D:/Protein_go_brrr/autodock/final/mut_K82N/IHP/dock.dpf
USER    NEWDPF move	IHP_ideal_opt.pdbqt
USER    NEWDPF about	0.035000 0.082000 -0.065000
USER    NEWDPF tran0	10.779192 -13.554347 15.811551
USER    NEWDPF axisangle0	-0.162826 -0.783240 -0.600019 173.465090
USER    NEWDPF quaternion0	-0.162561 -0.781967 -0.599043 0.056997
USER    NEWDPF dihe0	75.92 73.75 80.27 174.92 124.70 86.86 -77.76 -7.65 21.43 67.66 53.11 103.87 -172.15 -123.70 -179.94 37.00 -58.98 170.18 -28.93 -41.25 11.86 -58.21 -173.36 20.12 
USER  
USER                              x       y       z    vdW   Elec        q     RMS 
ATOM      1  C   UNL d   1       9.660 -12.628  14.877 -0.13 -0.01    +0.194    19.738
ATOM      2  C   UNL d   1      10.580 -13.553  14.079 -0.12 -0.03    +0.194    19.738
ATOM      3  C   UNL d   1      12.020 -13.501  14.592 -0.08 -0.01    +0.194    19.738
ATOM      4  C   UNL d   1      12.132 -13.733  16.097 -0.05 -0.01    +0.194    19.738
ATOM      5  C   UNL d   1      11.152 -12.913  16.926 -0.07 -0.01    +0.194    19.738
ATOM      6  C   UNL d   1       9.723 -12.916  16.378 -0.10 -0.01    +0.194    19.738
ATOM      7  O   UNL d   1       8.315 -12.862  14.455 -0.21 +0.04    -0.278    19.738
ATOM      8  P   UNL d   1       7.266 -11.661  14.556 -0.25 -0.05    +0.473    19.738
ATOM      9  O   UNL d   1       6.083 -11.928  15.419 -0.26 +0.03    -0.228    19.738
ATOM     10  O   UNL d   1       8.142 -10.425  15.056 -0.25 +0.00    -0.303    19.738
ATOM     11  H   UNL d   1       8.252 -10.472  16.024 +0.11 +0.00    +0.222    19.738
ATOM     12  O   UNL d   1       6.952 -11.260  13.051 -0.41 +0.04    -0.303    19.738
ATOM     13  H   UNL d   1       7.047 -12.011  12.424 +0.20 -0.02    +0.222    19.738
ATOM     14  O   UNL d   1      10.102 -14.900  14.196 -0.08 +0.06    -0.278    19.738
ATOM     15  P   UNL d   1       9.053 -15.386  13.088 -0.18 -0.14    +0.473    19.738
ATOM     16  O   UNL d   1       7.699 -14.750  13.121 -0.35 +0.07    -0.228    19.738
ATOM     17  O   UNL d   1       9.811 -15.152  11.707 -0.20 +0.13    -0.303    19.738
ATOM     18  H   UNL d   1      10.585 -14.569  11.825 +0.08 -0.09    +0.222    19.738
ATOM     19  O   UNL d   1       9.068 -16.973  13.197 -0.82 +0.12    -0.303    19.738
ATOM     20  H   UNL d   1       8.208 -17.322  13.495 -0.28 -0.22    +0.222    19.738
ATOM     21  O   UNL d   1       9.027 -11.861  17.036 -0.08 +0.01    -0.278    19.738
ATOM     22  P   UNL d   1       8.248 -12.154  18.397 -0.01 -0.02    +0.473    19.738
ATOM     23  O   UNL d   1       7.036 -11.341  18.705 -0.04 +0.01    -0.228    19.738
ATOM     24  O   UNL d   1       7.992 -13.722  18.294 -0.04 +0.03    -0.303    19.738
ATOM     25  H   UNL d   1       8.870 -14.173  18.210 +0.03 -0.02    +0.222    19.738
ATOM     26  O   UNL d   1       9.434 -12.083  19.473 -0.01 +0.01    -0.303    19.738
ATOM     27  H   UNL d   1       9.853 -12.964  19.549 +0.01 -0.01    +0.222    19.738
ATOM     28  O   UNL d   1      12.729 -14.577  13.990 -0.02 +0.03    -0.278    19.738
ATOM     29  P   UNL d   1      12.707 -14.770  12.410 +0.01 -0.06    +0.473    19.738
ATOM     30  O   UNL d   1      12.136 -13.639  11.634 -0.08 +0.05    -0.228    19.738
ATOM     31  O   UNL d   1      14.246 -15.125  12.150 -0.00 +0.02    -0.303    19.738
ATOM     32  H   UNL d   1      14.786 -14.725  12.871 +0.01 -0.01    +0.222    19.738
ATOM     33  O   UNL d   1      11.989 -16.183  12.256 -0.02 +0.05    -0.303    19.738
ATOM     34  H   UNL d   1      11.147 -16.173  12.773 +0.06 -0.05    +0.222    19.738
ATOM     35  O   UNL d   1      11.111 -13.539  18.207 -0.02 +0.01    -0.278    19.738
ATOM     36  P   UNL d   1      11.054 -15.128  18.325 -0.00 -0.04    +0.473    19.738
ATOM     37  O   UNL d   1      10.707 -15.857  17.066 -0.02 +0.03    -0.228    19.738
ATOM     38  O   UNL d   1      12.501 -15.465  18.898 -0.00 +0.02    -0.303    19.738
ATOM     39  H   UNL d   1      13.176 -14.992  18.364 +0.01 -0.01    +0.222    19.738
ATOM     40  O   UNL d   1      10.090 -15.342  19.572 -0.01 +0.03    -0.303    19.738
ATOM     41  H   UNL d   1       9.474 -14.585  19.690 +0.01 -0.02    +0.222    19.738
ATOM     42  O   UNL d   1      13.450 -13.329  16.482 -0.04 +0.01    -0.278    19.738
ATOM     43  P   UNL d   1      14.621 -14.413  16.478 -0.01 -0.02    +0.473    19.738
ATOM     44  O   UNL d   1      15.656 -14.310  17.544 -0.00 +0.01    -0.228    19.738
ATOM     45  O   UNL d   1      13.823 -15.789  16.476 -0.00 +0.02    -0.303    19.738
ATOM     46  H   UNL d   1      12.904 -15.670  16.789 +0.01 -0.02    +0.222    19.738
ATOM     47  O   UNL d   1      15.170 -14.353  14.973 -0.01 +0.01    -0.303    19.738
ATOM     48  H   UNL d   1      14.551 -14.833  14.384 +0.01 -0.01    +0.222    19.738
TER
ENDMDL
MODEL        7
USER    Run = 7
USER    Cluster Rank = 66
USER    Number of conformations in this cluster = 1
USER  
USER    RMSD from reference structure       = 15.686 A
USER  
USER    Estimated Free Energy of Binding    =   +3.46 kcal/mol  [=(1)+(2)+(3)-(4)]
USER    
USER    (1) Final Intermolecular Energy     =   -3.70 kcal/mol
USER        vdW + Hbond + desolv Energy     =   -3.61 kcal/mol
USER        Electrostatic Energy            =   -0.09 kcal/mol
USER    (2) Final Total Internal Energy     =  -13.55 kcal/mol
USER    (3) Torsional Free Energy           =   +7.16 kcal/mol
USER    (4) Unbound System's Energy  [=(2)] =  -13.55 kcal/mol
USER    
USER    
USER  
USER    DPF = D:/Protein_go_brrr/autodock/final/mut_K82N/IHP/dock.dpf
USER    NEWDPF move	IHP_ideal_opt.pdbqt
USER    NEWDPF about	0.035000 0.082000 -0.065000
USER    NEWDPF tran0	6.455653 -12.403029 -11.858536
USER    NEWDPF axisangle0	0.429429 -0.770473 -0.471128 164.676421
USER    NEWDPF quaternion0	0.425595 -0.763595 -0.466922 0.133325
USER    NEWDPF dihe0	123.32 42.23 165.95 8.86 19.42 179.88 -20.94 103.95 177.25 27.47 -2.48 179.96 -30.52 75.47 160.27 161.92 93.33 161.31 24.04 -34.45 -30.33 -35.61 9.97 -179.95 
USER  
USER                              x       y       z    vdW   Elec        q     RMS 
ATOM      1  C   UNL d   1       6.236 -12.587 -13.562 -0.09 -0.02    +0.194    15.686
ATOM      2  C   UNL d   1       7.681 -12.398 -13.099 -0.06 -0.02    +0.194    15.686
ATOM      3  C   UNL d   1       7.797 -11.307 -12.033 -0.05 -0.01    +0.194    15.686
ATOM      4  C   UNL d   1       6.837 -11.506 -10.862 -0.05 -0.01    +0.194    15.686
ATOM      5  C   UNL d   1       5.404 -11.811 -11.279 -0.10 -0.01    +0.194    15.686
ATOM      6  C   UNL d   1       5.292 -12.858 -12.390 -0.08 -0.01    +0.194    15.686
ATOM      7  O   UNL d   1       6.188 -13.729 -14.421 -0.06 +0.03    -0.278    15.686
ATOM      8  P   UNL d   1       6.203 -13.492 -16.000 -0.08 -0.09    +0.473    15.686
ATOM      9  O   UNL d   1       6.749 -12.178 -16.436 -0.15 +0.07    -0.228    15.686
ATOM     10  O   UNL d   1       7.027 -14.734 -16.570 -0.01 +0.04    -0.303    15.686
ATOM     11  H   UNL d   1       7.728 -14.979 -15.937 +0.01 -0.02    +0.222    15.686
ATOM     12  O   UNL d   1       4.726 -13.824 -16.482 -0.10 +0.06    -0.303    15.686
ATOM     13  H   UNL d   1       4.144 -14.139 -15.754 +0.05 -0.04    +0.222    15.686
ATOM     14  O   UNL d   1       8.159 -13.631 -12.545 -0.00 +0.02    -0.278    15.686
ATOM     15  P   UNL d   1       9.017 -14.568 -13.518 +0.01 -0.03    +0.473    15.686
ATOM     16  O   UNL d   1      10.315 -15.085 -12.981 +0.00 +0.01    -0.228    15.686
ATOM     17  O   UNL d   1       8.009 -15.733 -13.924 -0.00 +0.02    -0.303    15.686
ATOM     18  H   UNL d   1       7.305 -15.400 -14.513 +0.01 -0.02    +0.222    15.686
ATOM     19  O   UNL d   1       9.116 -13.745 -14.876 -0.00 +0.03    -0.303    15.686
ATOM     20  H   UNL d   1       8.241 -13.441 -15.178 +0.02 -0.03    +0.222    15.686
ATOM     21  O   UNL d   1       3.962 -12.780 -12.897 -0.14 +0.03    -0.278    15.686
ATOM     22  P   UNL d   1       3.115 -14.116 -13.106 -0.08 -0.04    +0.473    15.686
ATOM     23  O   UNL d   1       1.827 -14.024 -13.853 -0.16 +0.04    -0.228    15.686
ATOM     24  O   UNL d   1       4.195 -15.088 -13.755 -0.02 +0.02    -0.303    15.686
ATOM     25  H   UNL d   1       4.663 -14.592 -14.474 +0.04 -0.02    +0.222    15.686
ATOM     26  O   UNL d   1       3.020 -14.679 -11.608 -0.09 -0.01    -0.303    15.686
ATOM     27  H   UNL d   1       3.409 -14.025 -10.993 +0.06 +0.01    +0.222    15.686
ATOM     28  O   UNL d   1       9.100 -11.393 -11.471 -0.00 +0.02    -0.278    15.686
ATOM     29  P   UNL d   1      10.364 -10.867 -12.285 +0.01 -0.04    +0.473    15.686
ATOM     30  O   UNL d   1      11.340 -10.065 -11.504 -0.00 +0.02    -0.228    15.686
ATOM     31  O   UNL d   1      10.888 -12.245 -12.908 +0.00 +0.02    -0.303    15.686
ATOM     32  H   UNL d   1      10.115 -12.838 -13.052 +0.01 -0.02    +0.222    15.686
ATOM     33  O   UNL d   1       9.682 -10.153 -13.534 -0.02 +0.03    -0.303    15.686
ATOM     34  H   UNL d   1      10.344  -9.558 -13.965 +0.01 -0.03    +0.222    15.686
ATOM     35  O   UNL d   1       4.772 -12.356 -10.123 -0.06 -0.01    -0.278    15.686
ATOM     36  P   UNL d   1       3.266 -11.967  -9.770 -0.17 +0.03    +0.473    15.686
ATOM     37  O   UNL d   1       2.398 -13.095  -9.313 -0.60 -0.06    -0.228    15.686
ATOM     38  O   UNL d   1       3.471 -10.818  -8.687 -0.20 -0.01    -0.303    15.686
ATOM     39  H   UNL d   1       3.247  -9.952  -9.090 -0.17 -0.07    +0.222    15.686
ATOM     40  O   UNL d   1       2.803 -11.183 -11.075 -0.25 +0.01    -0.303    15.686
ATOM     41  H   UNL d   1       3.567 -10.938 -11.643 +0.12 -0.02    +0.222    15.686
ATOM     42  O   UNL d   1       6.810 -10.274 -10.134 -0.08 +0.02    -0.278    15.686
ATOM     43  P   UNL d   1       6.134  -8.995 -10.806 -0.14 -0.05    +0.473    15.686
ATOM     44  O   UNL d   1       6.622  -7.655 -10.378 -0.17 +0.04    -0.228    15.686
ATOM     45  O   UNL d   1       6.308  -9.285 -12.361 -0.60 +0.00    -0.303    15.686
ATOM     46  H   UNL d   1       7.229  -9.130 -12.653 +0.05 -0.01    +0.222    15.686
ATOM     47  O   UNL d   1       4.566  -9.259 -10.600 -0.29 +0.04    -0.303    15.686
ATOM     48  H   UNL d   1       4.441 -10.118 -10.145 +0.09 -0.02    +0.222    15.686
TER
ENDMDL
MODEL       10
USER    Run = 10
USER    Cluster Rank = 67
USER    Number of conformations in this cluster = 1
USER  
USER    RMSD from reference structure       = 19.489 A
USER  
USER    Estimated Free Energy of Binding    =   +3.47 kcal/mol  [=(1)+(2)+(3)-(4)]
USER    
USER    (1) Final Intermolecular Energy     =   -3.68 kcal/mol
USER        vdW + Hbond + desolv Energy     =   -3.51 kcal/mol
USER        Electrostatic Energy            =   -0.18 kcal/mol
USER    (2) Final Total Internal Energy     =  -14.28 kcal/mol
USER    (3) Torsional Free Energy           =   +7.16 kcal/mol
USER    (4) Unbound System's Energy  [=(2)] =  -14.28 kcal/mol
USER    
USER    
USER  
USER    DPF = D:/Protein_go_brrr/autodock/final/mut_K82N/IHP/dock.dpf
USER    NEWDPF move	IHP_ideal_opt.pdbqt
USER    NEWDPF about	0.035000 0.082000 -0.065000
USER    NEWDPF tran0	-3.827509 -13.125685 -18.023556
USER    NEWDPF axisangle0	0.508362 -0.857446 -0.079713 154.082309
USER    NEWDPF quaternion0	0.495415 -0.835608 -0.077683 0.224251
USER    NEWDPF dihe0	-120.44 -21.28 170.50 32.72 5.51 -179.93 -147.89 12.11 148.98 56.95 -131.46 177.78 -167.04 -179.01 174.00 8.24 82.60 160.19 51.18 -0.85 -180.00 -21.59 10.20 179.90 
USER  
USER                              x       y       z    vdW   Elec        q     RMS 
ATOM      1  C   UNL d   1      -3.338 -14.282 -19.209 +0.00 -0.02    +0.194    19.489
ATOM      2  C   UNL d   1      -2.244 -13.822 -18.244 -0.03 -0.03    +0.194    19.489
ATOM      3  C   UNL d   1      -2.290 -12.310 -18.015 -0.12 -0.06    +0.194    19.489
ATOM      4  C   UNL d   1      -3.671 -11.805 -17.606 -0.11 +0.05    +0.194    19.489
ATOM      5  C   UNL d   1      -4.807 -12.332 -18.474 -0.07 +0.05    +0.194    19.489
ATOM      6  C   UNL d   1      -4.727 -13.834 -18.753 -0.02 +0.01    +0.194    19.489
ATOM      7  O   UNL d   1      -3.338 -15.712 -19.234 +0.00 +0.02    -0.278    19.489
ATOM      8  P   UNL d   1      -2.123 -16.459 -19.954 +0.01 -0.06    +0.473    19.489
ATOM      9  O   UNL d   1      -2.492 -17.246 -21.162 +0.00 +0.03    -0.228    19.489
ATOM     10  O   UNL d   1      -1.079 -15.292 -20.261 +0.00 +0.07    -0.303    19.489
ATOM     11  H   UNL d   1      -0.554 -15.104 -19.460 +0.02 -0.06    +0.222    19.489
ATOM     12  O   UNL d   1      -1.390 -17.265 -18.797 +0.00 +0.03    -0.303    19.489
ATOM     13  H   UNL d   1      -0.964 -16.680 -18.131 +0.01 -0.03    +0.222    19.489
ATOM     14  O   UNL d   1      -2.426 -14.480 -16.984 -0.03 +0.01    -0.278    19.489
ATOM     15  P   UNL d   1      -1.133 -15.177 -16.347 -0.02 -0.05    +0.473    19.489
ATOM     16  O   UNL d   1      -1.243 -16.636 -16.031 -0.02 +0.01    -0.228    19.489
ATOM     17  O   UNL d   1       0.031 -14.856 -17.385 -0.02 +0.06    -0.303    19.489
ATOM     18  H   UNL d   1       0.317 -13.925 -17.316 +0.07 -0.07    +0.222    19.489
ATOM     19  O   UNL d   1      -0.739 -14.239 -15.124 -0.06 +0.04    -0.303    19.489
ATOM     20  H   UNL d   1      -1.029 -13.319 -15.267 +0.07 -0.04    +0.222    19.489
ATOM     21  O   UNL d   1      -5.626 -14.103 -19.826 +0.00 +0.00    -0.278    19.489
ATOM     22  P   UNL d   1      -5.203 -13.746 -21.322 +0.01 -0.06    +0.473    19.489
ATOM     23  O   UNL d   1      -6.283 -13.511 -22.324 +0.00 +0.03    -0.228    19.489
ATOM     24  O   UNL d   1      -4.221 -12.513 -21.098 +0.00 +0.07    -0.303    19.489
ATOM     25  H   UNL d   1      -4.732 -11.789 -20.654 +0.02 -0.05    +0.222    19.489
ATOM     26  O   UNL d   1      -4.176 -14.929 -21.661 +0.00 +0.04    -0.303    19.489
ATOM     27  H   UNL d   1      -4.170 -15.571 -20.922 +0.00 -0.02    +0.222    19.489
ATOM     28  O   UNL d   1      -1.439 -12.017 -16.914 -0.20 +0.10    -0.278    19.489
ATOM     29  P   UNL d   1       0.106 -11.712 -17.150 -0.20 -0.36    +0.473    19.489
ATOM     30  O   UNL d   1       0.652 -12.147 -18.461 -0.18 +0.24    -0.228    19.489
ATOM     31  O   UNL d   1       0.131 -10.142 -16.838 -0.79 +0.26    -0.303    19.489
ATOM     32  H   UNL d   1       0.064  -9.652 -17.689 -0.46 -0.37    +0.222    19.489
ATOM     33  O   UNL d   1       0.773 -12.340 -15.848 -0.25 +0.15    -0.303    19.489
ATOM     34  H   UNL d   1       0.725 -13.326 -15.906 +0.08 -0.07    +0.222    19.489
ATOM     35  O   UNL d   1      -6.001 -12.107 -17.727 -0.45 -0.30    -0.278    19.489
ATOM     36  P   UNL d   1      -7.332 -11.627 -18.463 -0.05 +0.14    +0.473    19.489
ATOM     37  O   UNL d   1      -8.549 -12.455 -18.200 -0.03 -0.03    -0.228    19.489
ATOM     38  O   UNL d   1      -7.449 -10.117 -17.972 -0.33 -0.04    -0.303    19.489
ATOM     39  H   UNL d   1      -6.830  -9.561 -18.492 +0.05 -0.02    +0.222    19.489
ATOM     40  O   UNL d   1      -6.857 -11.502 -19.976 -0.00 +0.02    -0.303    19.489
ATOM     41  H   UNL d   1      -6.000 -11.959 -20.128 +0.02 -0.01    +0.222    19.489
ATOM     42  O   UNL d   1      -3.653 -10.381 -17.755 -0.15 -0.01    -0.278    19.489
ATOM     43  P   UNL d   1      -3.574  -9.761 -19.223 -0.09 -0.24    +0.473    19.489
ATOM     44  O   UNL d   1      -2.978  -8.402 -19.362 -0.20 +0.21    -0.228    19.489
ATOM     45  O   UNL d   1      -2.811 -10.893 -20.040 -0.06 +0.21    -0.303    19.489
ATOM     46  H   UNL d   1      -3.017 -10.846 -20.995 +0.03 -0.13    +0.222    19.489
ATOM     47  O   UNL d   1      -5.073  -9.918 -19.769 -0.03 +0.08    -0.303    19.489
ATOM     48  H   UNL d   1      -5.612 -10.388 -19.099 +0.05 -0.00    +0.222    19.489
TER
ENDMDL
MODEL       90
USER    Run = 90
USER    Cluster Rank = 68
USER    Number of conformations in this cluster = 1
USER  
USER    RMSD from reference structure       = 21.719 A
USER  
USER    Estimated Free Energy of Binding    =   +3.54 kcal/mol  [=(1)+(2)+(3)-(4)]
USER    
USER    (1) Final Intermolecular Energy     =   -3.62 kcal/mol
USER        vdW + Hbond + desolv Energy     =   -3.56 kcal/mol
USER        Electrostatic Energy            =   -0.06 kcal/mol
USER    (2) Final Total Internal Energy     =  -13.65 kcal/mol
USER    (3) Torsional Free Energy           =   +7.16 kcal/mol
USER    (4) Unbound System's Energy  [=(2)] =  -13.65 kcal/mol
USER    
USER    
USER  
USER    DPF = D:/Protein_go_brrr/autodock/final/mut_K82N/IHP/dock.dpf
USER    NEWDPF move	IHP_ideal_opt.pdbqt
USER    NEWDPF about	0.035000 0.082000 -0.065000
USER    NEWDPF tran0	-10.835622 2.975870 -20.786941
USER    NEWDPF axisangle0	0.743447 0.643982 -0.180485 169.641445
USER    NEWDPF quaternion0	0.740411 0.641352 -0.179748 0.090272
USER    NEWDPF dihe0	179.94 -143.31 45.80 37.35 117.33 160.36 35.90 -78.14 123.20 65.36 138.00 110.70 70.22 163.90 -108.61 95.96 -123.93 48.38 10.13 -21.84 -13.30 -22.89 -6.90 -17.66 
USER  
USER                              x       y       z    vdW   Elec        q     RMS 
ATOM      1  C   UNL d   1     -11.811   4.273 -21.379 -0.03 +0.02    +0.194    21.719
ATOM      2  C   UNL d   1     -12.548   3.212 -20.559 -0.07 +0.06    +0.194    21.719
ATOM      3  C   UNL d   1     -12.107   1.797 -20.937 -0.08 +0.07    +0.194    21.719
ATOM      4  C   UNL d   1     -10.593   1.608 -20.897 -0.12 +0.05    +0.194    21.719
ATOM      5  C   UNL d   1      -9.811   2.707 -21.605 -0.09 +0.01    +0.194    21.719
ATOM      6  C   UNL d   1     -10.293   4.121 -21.275 -0.06 +0.01    +0.194    21.719
ATOM      7  O   UNL d   1     -12.148   5.558 -20.851 -0.01 -0.03    -0.278    21.719
ATOM      8  P   UNL d   1     -13.022   6.544 -21.754 +0.00 +0.02    +0.473    21.719
ATOM      9  O   UNL d   1     -14.305   6.987 -21.144 +0.00 -0.01    -0.228    21.719
ATOM     10  O   UNL d   1     -12.031   7.752 -22.079 +0.00 +0.00    -0.303    21.719
ATOM     11  H   UNL d   1     -11.108   7.454 -21.977 +0.00 -0.00    +0.222    21.719
ATOM     12  O   UNL d   1     -13.138   5.820 -23.163 +0.00 -0.00    -0.303    21.719
ATOM     13  H   UNL d   1     -13.767   6.265 -23.775 +0.00 -0.00    +0.222    21.719
ATOM     14  O   UNL d   1     -12.271   3.421 -19.169 -0.12 -0.18    -0.278    21.719
ATOM     15  P   UNL d   1     -13.482   3.961 -18.271 -0.07 +0.32    +0.473    21.719
ATOM     16  O   UNL d   1     -13.144   4.980 -17.229 -0.07 -0.11    -0.228    21.719
ATOM     17  O   UNL d   1     -14.545   4.492 -19.332 -0.01 -0.09    -0.303    21.719
ATOM     18  H   UNL d   1     -14.125   5.086 -19.983 +0.01 +0.04    +0.222    21.719
ATOM     19  O   UNL d   1     -14.197   2.644 -17.735 -0.35 -0.45    -0.303    21.719
ATOM     20  H   UNL d   1     -14.007   1.874 -18.303 +0.01 +0.38    +0.222    21.719
ATOM     21  O   UNL d   1      -9.718   4.990 -22.247 -0.01 +0.00    -0.278    21.719
ATOM     22  P   UNL d   1      -8.674   6.108 -21.792 -0.00 -0.03    +0.473    21.719
ATOM     23  O   UNL d   1      -9.205   7.355 -21.169 -0.01 +0.01    -0.228    21.719
ATOM     24  O   UNL d   1      -7.682   5.271 -20.871 -0.09 +0.03    -0.303    21.719
ATOM     25  H   UNL d   1      -7.391   4.471 -21.378 +0.06 -0.03    +0.222    21.719
ATOM     26  O   UNL d   1      -7.804   6.303 -23.124 -0.00 +0.02    -0.303    21.719
ATOM     27  H   UNL d   1      -7.990   5.565 -23.741 +0.02 -0.02    +0.222    21.719
ATOM     28  O   UNL d   1     -12.625   0.910 -19.953 -0.05 -0.22    -0.278    21.719
ATOM     29  P   UNL d   1     -14.084   0.293 -20.114 -0.05 +0.27    +0.473    21.719
ATOM     30  O   UNL d   1     -14.240  -0.708 -21.201 -0.01 -0.05    -0.228    21.719
ATOM     31  O   UNL d   1     -14.339  -0.215 -18.618 -0.42 -0.42    -0.303    21.719
ATOM     32  H   UNL d   1     -14.726   0.525 -18.097 +0.00 +0.35    +0.222    21.719
ATOM     33  O   UNL d   1     -14.991   1.598 -20.201 -0.02 -0.12    -0.303    21.719
ATOM     34  H   UNL d   1     -14.487   2.365 -19.835 +0.01 +0.11    +0.222    21.719
ATOM     35  O   UNL d   1      -8.472   2.597 -21.129 -0.17 +0.02    -0.278    21.719
ATOM     36  P   UNL d   1      -7.266   2.400 -22.155 -0.09 -0.11    +0.473    21.719
ATOM     37  O   UNL d   1      -7.076   1.008 -22.667 -0.12 +0.07    -0.228    21.719
ATOM     38  O   UNL d   1      -7.619   3.470 -23.281 -0.03 +0.03    -0.303    21.719
ATOM     39  H   UNL d   1      -7.752   4.347 -22.861 +0.04 -0.02    +0.222    21.719
ATOM     40  O   UNL d   1      -6.045   3.055 -21.374 -0.38 +0.10    -0.303    21.719
ATOM     41  H   UNL d   1      -6.195   3.061 -20.403 -0.49 -0.11    +0.222    21.719
ATOM     42  O   UNL d   1     -10.310   0.382 -21.581 -0.07 -0.02    -0.278    21.719
ATOM     43  P   UNL d   1      -9.397  -0.710 -20.861 -0.13 -0.03    +0.473    21.719
ATOM     44  O   UNL d   1     -10.086  -1.783 -20.092 -0.14 +0.01    -0.228    21.719
ATOM     45  O   UNL d   1      -8.487  -1.244 -22.052 -0.08 +0.08    -0.303    21.719
ATOM     46  H   UNL d   1      -7.898  -0.543 -22.395 +0.05 -0.06    +0.222    21.719
ATOM     47  O   UNL d   1      -8.354   0.177 -20.027 -0.22 +0.04    -0.303    21.719
ATOM     48  H   UNL d   1      -7.737   0.619 -20.648 -0.11 -0.09    +0.222    21.719
TER
ENDMDL
MODEL       94
USER    Run = 94
USER    Cluster Rank = 69
USER    Number of conformations in this cluster = 1
USER  
USER    RMSD from reference structure       = 12.539 A
USER  
USER    Estimated Free Energy of Binding    =   +3.55 kcal/mol  [=(1)+(2)+(3)-(4)]
USER    
USER    (1) Final Intermolecular Energy     =   -3.61 kcal/mol
USER        vdW + Hbond + desolv Energy     =   -3.49 kcal/mol
USER        Electrostatic Energy            =   -0.12 kcal/mol
USER    (2) Final Total Internal Energy     =  -11.97 kcal/mol
USER    (3) Torsional Free Energy           =   +7.16 kcal/mol
USER    (4) Unbound System's Energy  [=(2)] =  -11.97 kcal/mol
USER    
USER    
USER  
USER    DPF = D:/Protein_go_brrr/autodock/final/mut_K82N/IHP/dock.dpf
USER    NEWDPF move	IHP_ideal_opt.pdbqt
USER    NEWDPF about	0.035000 0.082000 -0.065000
USER    NEWDPF tran0	-13.784420 -8.895517 -0.239759
USER    NEWDPF axisangle0	-0.880793 0.443952 0.164649 129.735465
USER    NEWDPF quaternion0	-0.797409 0.401923 0.149061 0.424709
USER    NEWDPF dihe0	-173.92 27.78 -28.48 90.74 -2.55 -5.14 -172.58 36.75 5.10 80.76 -38.12 -43.88 -91.75 -175.85 -75.67 65.05 -88.45 -93.15 40.12 -7.20 60.41 153.09 -176.56 -140.72 
USER  
USER                              x       y       z    vdW   Elec        q     RMS 
ATOM      1  C   UNL d   1     -12.993 -10.018  -1.288 -0.09 -0.05    +0.194    12.539
ATOM      2  C   UNL d   1     -13.155  -8.600  -1.839 -0.05 -0.06    +0.194    12.539
ATOM      3  C   UNL d   1     -14.546  -8.034  -1.546 -0.01 -0.05    +0.194    12.539
ATOM      4  C   UNL d   1     -14.937  -8.129  -0.073 -0.02 -0.06    +0.194    12.539
ATOM      5  C   UNL d   1     -14.684  -9.496   0.549 -0.03 -0.05    +0.194    12.539
ATOM      6  C   UNL d   1     -13.316 -10.090   0.205 -0.09 -0.05    +0.194    12.539
ATOM      7  O   UNL d   1     -11.626 -10.404  -1.448 -0.18 +0.08    -0.278    12.539
ATOM      8  P   UNL d   1     -11.158 -10.968  -2.867 -0.16 -0.10    +0.473    12.539
ATOM      9  O   UNL d   1     -12.128 -11.876  -3.537 -0.07 +0.03    -0.228    12.539
ATOM     10  O   UNL d   1     -10.835  -9.657  -3.717 -0.19 +0.07    -0.303    12.539
ATOM     11  H   UNL d   1     -10.562  -8.938  -3.117 +0.06 -0.06    +0.222    12.539
ATOM     12  O   UNL d   1      -9.707 -11.566  -2.616 -0.15 +0.11    -0.303    12.539
ATOM     13  H   UNL d   1      -9.296 -11.243  -1.782 -0.44 -0.12    +0.222    12.539
ATOM     14  O   UNL d   1     -12.178  -7.747  -1.229 -0.13 +0.16    -0.278    12.539
ATOM     15  P   UNL d   1     -11.209  -6.945  -2.220 -0.11 -0.28    +0.473    12.539
ATOM     16  O   UNL d   1      -9.742  -7.205  -2.082 -0.18 +0.11    -0.228    12.539
ATOM     17  O   UNL d   1     -11.765  -7.295  -3.672 -0.08 +0.10    -0.303    12.539
ATOM     18  H   UNL d   1     -11.063  -7.675  -4.235 +0.01 -0.08    +0.222    12.539
ATOM     19  O   UNL d   1     -11.654  -5.426  -2.066 -0.10 +0.30    -0.303    12.539
ATOM     20  H   UNL d   1     -11.988  -5.237  -1.170 -0.24 -0.40    +0.222    12.539
ATOM     21  O   UNL d   1     -13.366 -11.471   0.556 -0.10 +0.05    -0.278    12.539
ATOM     22  P   UNL d   1     -14.063 -11.916   1.920 +0.03 -0.04    +0.473    12.539
ATOM     23  O   UNL d   1     -13.745 -11.149   3.158 -0.10 +0.04    -0.228    12.539
ATOM     24  O   UNL d   1     -15.602 -11.918   1.513 -0.01 +0.03    -0.303    12.539
ATOM     25  H   UNL d   1     -15.881 -10.980   1.358 +0.01 -0.03    +0.222    12.539
ATOM     26  O   UNL d   1     -13.729 -13.484   1.959 -0.65 -0.01    -0.303    12.539
ATOM     27  H   UNL d   1     -14.126 -13.877   2.763 +0.02 -0.01    +0.222    12.539
ATOM     28  O   UNL d   1     -14.513  -6.643  -1.839 -0.01 +0.10    -0.278    12.539
ATOM     29  P   UNL d   1     -14.262  -5.582  -0.677 -0.04 -0.29    +0.473    12.539
ATOM     30  O   UNL d   1     -13.260  -5.978   0.346 -0.09 +0.29    -0.228    12.539
ATOM     31  O   UNL d   1     -13.932  -4.283  -1.552 -0.04 +0.17    -0.303    12.539
ATOM     32  H   UNL d   1     -13.031  -3.965  -1.314 -0.04 -0.21    +0.222    12.539
ATOM     33  O   UNL d   1     -15.740  -5.294  -0.162 -0.01 +0.10    -0.303    12.539
ATOM     34  H   UNL d   1     -15.925  -5.867   0.621 +0.01 -0.07    +0.222    12.539
ATOM     35  O   UNL d   1     -14.710  -9.291   1.959 -0.03 +0.08    -0.278    12.539
ATOM     36  P   UNL d   1     -13.920  -8.066   2.609 -0.05 -0.25    +0.473    12.539
ATOM     37  O   UNL d   1     -12.538  -7.839   2.083 -0.18 +0.23    -0.228    12.539
ATOM     38  O   UNL d   1     -14.924  -6.857   2.352 -0.03 +0.15    -0.303    12.539
ATOM     39  H   UNL d   1     -15.006  -6.707   1.386 +0.02 -0.11    +0.222    12.539
ATOM     40  O   UNL d   1     -14.061  -8.358   4.166 -0.02 +0.11    -0.303    12.539
ATOM     41  H   UNL d   1     -13.980  -9.317   4.366 +0.04 -0.06    +0.222    12.539
ATOM     42  O   UNL d   1     -16.346  -7.888  -0.001 +0.00 +0.06    -0.278    12.539
ATOM     43  P   UNL d   1     -17.321  -9.107   0.325 +0.01 -0.06    +0.473    12.539
ATOM     44  O   UNL d   1     -17.119 -10.371  -0.436 -0.00 +0.03    -0.228    12.539
ATOM     45  O   UNL d   1     -17.169  -9.264   1.901 +0.00 +0.04    -0.303    12.539
ATOM     46  H   UNL d   1     -16.706 -10.094   2.135 +0.01 -0.03    +0.222    12.539
ATOM     47  O   UNL d   1     -18.780  -8.453   0.203 +0.00 +0.03    -0.303    12.539
ATOM     48  H   UNL d   1     -19.362  -9.054  -0.306 +0.00 -0.02    +0.222    12.539
TER
ENDMDL
MODEL        4
USER    Run = 4
USER    Cluster Rank = 70
USER    Number of conformations in this cluster = 1
USER  
USER    RMSD from reference structure       = 18.197 A
USER  
USER    Estimated Free Energy of Binding    =   +3.66 kcal/mol  [=(1)+(2)+(3)-(4)]
USER    
USER    (1) Final Intermolecular Energy     =   -3.50 kcal/mol
USER        vdW + Hbond + desolv Energy     =   -3.52 kcal/mol
USER        Electrostatic Energy            =   +0.02 kcal/mol
USER    (2) Final Total Internal Energy     =  -13.64 kcal/mol
USER    (3) Torsional Free Energy           =   +7.16 kcal/mol
USER    (4) Unbound System's Energy  [=(2)] =  -13.64 kcal/mol
USER    
USER    
USER  
USER    DPF = D:/Protein_go_brrr/autodock/final/mut_K82N/IHP/dock.dpf
USER    NEWDPF move	IHP_ideal_opt.pdbqt
USER    NEWDPF about	0.035000 0.082000 -0.065000
USER    NEWDPF tran0	13.954170 2.436693 16.354208
USER    NEWDPF axisangle0	0.793442 0.442219 0.418202 -104.780136
USER    NEWDPF quaternion0	0.628552 0.350319 0.331293 -0.610282
USER    NEWDPF dihe0	120.45 108.43 131.82 10.38 30.22 -24.66 -54.69 -0.76 122.07 69.20 96.95 69.27 -79.96 36.47 -66.94 -170.12 151.63 169.93 -145.83 -26.65 -163.09 -27.90 -173.60 32.42 
USER  
USER                              x       y       z    vdW   Elec        q     RMS 
ATOM      1  C   UNL d   1      15.260   3.081  15.425 -0.01 -0.00    +0.194    18.197
ATOM      2  C   UNL d   1      14.252   2.231  14.648 -0.03 -0.01    +0.194    18.197
ATOM      3  C   UNL d   1      13.860   0.970  15.421 -0.08 -0.01    +0.194    18.197
ATOM      4  C   UNL d   1      13.395   1.258  16.846 -0.10 -0.01    +0.194    18.197
ATOM      5  C   UNL d   1      14.313   2.195  17.621 -0.03 +0.00    +0.194    18.197
ATOM      6  C   UNL d   1      14.755   3.426  16.826 -0.01 +0.00    +0.194    18.197
ATOM      7  O   UNL d   1      15.441   4.312  14.722 -0.00 +0.01    -0.278    18.197
ATOM      8  P   UNL d   1      14.513   5.552  15.111 +0.00 -0.01    +0.473    18.197
ATOM      9  O   UNL d   1      13.173   5.193  15.650 -0.02 +0.00    -0.228    18.197
ATOM     10  O   UNL d   1      15.399   6.390  16.140 +0.00 +0.00    -0.303    18.197
ATOM     11  H   UNL d   1      15.905   5.780  16.709 +0.00 +0.00    +0.222    18.197
ATOM     12  O   UNL d   1      14.517   6.490  13.829 -0.00 +0.01    -0.303    18.197
ATOM     13  H   UNL d   1      14.118   6.063  13.038 +0.01 -0.01    +0.222    18.197
ATOM     14  O   UNL d   1      13.071   3.008  14.412 -0.03 +0.02    -0.278    18.197
ATOM     15  P   UNL d   1      12.866   3.564  12.925 -0.03 -0.03    +0.473    18.197
ATOM     16  O   UNL d   1      12.073   2.705  11.990 -0.12 +0.02    -0.228    18.197
ATOM     17  O   UNL d   1      12.221   5.006  13.135 -0.05 +0.02    -0.303    18.197
ATOM     18  H   UNL d   1      12.591   5.444  13.925 +0.04 -0.01    +0.222    18.197
ATOM     19  O   UNL d   1      14.332   3.939  12.435 -0.01 +0.01    -0.303    18.197
ATOM     20  H   UNL d   1      14.803   4.484  13.092 +0.01 -0.01    +0.222    18.197
ATOM     21  O   UNL d   1      15.850   4.003  17.535 -0.00 -0.01    -0.278    18.197
ATOM     22  P   UNL d   1      17.345   3.620  17.130 +0.00 +0.00    +0.473    18.197
ATOM     23  O   UNL d   1      17.623   2.217  16.707 -0.00 -0.00    -0.228    18.197
ATOM     24  O   UNL d   1      17.679   4.726  16.036 +0.00 +0.00    -0.303    18.197
ATOM     25  H   UNL d   1      16.855   4.905  15.517 +0.00 -0.00    +0.222    18.197
ATOM     26  O   UNL d   1      18.171   4.148  18.399 +0.00 -0.01    -0.303    18.197
ATOM     27  H   UNL d   1      19.048   3.715  18.414 +0.00 +0.00    +0.222    18.197
ATOM     28  O   UNL d   1      12.734   0.399  14.765 -0.15 +0.06    -0.278    18.197
ATOM     29  P   UNL d   1      12.934  -0.536  13.492 -0.23 -0.13    +0.473    18.197
ATOM     30  O   UNL d   1      11.761  -1.365  13.116 -0.41 +0.12    -0.228    18.197
ATOM     31  O   UNL d   1      13.429   0.549  12.424 -0.12 +0.07    -0.303    18.197
ATOM     32  H   UNL d   1      13.411   1.438  12.848 +0.07 -0.03    +0.222    18.197
ATOM     33  O   UNL d   1      14.277  -1.310  13.854 -0.20 +0.03    -0.303    18.197
ATOM     34  H   UNL d   1      14.149  -1.796  14.705 +0.08 -0.00    +0.222    18.197
ATOM     35  O   UNL d   1      13.544   2.664  18.727 -0.05 -0.03    -0.278    18.197
ATOM     36  P   UNL d   1      12.024   3.102  18.522 -0.13 +0.04    +0.473    18.197
ATOM     37  O   UNL d   1      11.432   3.912  19.631 -0.21 -0.06    -0.228    18.197
ATOM     38  O   UNL d   1      12.088   3.856  17.121 -0.09 -0.00    -0.303    18.197
ATOM     39  H   UNL d   1      12.527   3.275  16.463 +0.07 -0.01    +0.222    18.197
ATOM     40  O   UNL d   1      11.315   1.719  18.180 -0.15 +0.02    -0.303    18.197
ATOM     41  H   UNL d   1      11.790   0.958  18.581 +0.07 +0.00    +0.222    18.197
ATOM     42  O   UNL d   1      13.388   0.007  17.541 -0.10 +0.01    -0.278    18.197
ATOM     43  P   UNL d   1      12.172  -0.999  17.306 -0.30 -0.05    +0.473    18.197
ATOM     44  O   UNL d   1      11.712  -1.804  18.472 -0.39 +0.01    -0.228    18.197
ATOM     45  O   UNL d   1      11.052  -0.053  16.686 -0.30 +0.13    -0.303    18.197
ATOM     46  H   UNL d   1      11.445   0.735  16.260 +0.05 -0.07    +0.222    18.197
ATOM     47  O   UNL d   1      12.635  -1.840  16.023 -0.20 +0.02    -0.303    18.197
ATOM     48  H   UNL d   1      12.059  -1.614  15.264 -0.37 -0.09    +0.222    18.197
TER
ENDMDL
MODEL       96
USER    Run = 96
USER    Cluster Rank = 71
USER    Number of conformations in this cluster = 1
USER  
USER    RMSD from reference structure       = 10.581 A
USER  
USER    Estimated Free Energy of Binding    =   +3.71 kcal/mol  [=(1)+(2)+(3)-(4)]
USER    
USER    (1) Final Intermolecular Energy     =   -3.44 kcal/mol
USER        vdW + Hbond + desolv Energy     =   -3.24 kcal/mol
USER        Electrostatic Energy            =   -0.20 kcal/mol
USER    (2) Final Total Internal Energy     =  -14.43 kcal/mol
USER    (3) Torsional Free Energy           =   +7.16 kcal/mol
USER    (4) Unbound System's Energy  [=(2)] =  -14.43 kcal/mol
USER    
USER    
USER  
USER    DPF = D:/Protein_go_brrr/autodock/final/mut_K82N/IHP/dock.dpf
USER    NEWDPF move	IHP_ideal_opt.pdbqt
USER    NEWDPF about	0.035000 0.082000 -0.065000
USER    NEWDPF tran0	-13.865268 1.763537 -2.289932
USER    NEWDPF axisangle0	-0.484752 0.870290 -0.087236 99.572933
USER    NEWDPF quaternion0	-0.370178 0.664592 -0.066617 0.645638
USER    NEWDPF dihe0	-160.51 -16.61 60.10 104.27 -7.48 -123.36 26.81 -77.69 136.44 -38.50 25.52 -168.05 41.33 -79.52 -47.92 93.92 90.03 160.58 -140.14 -20.91 27.47 -27.38 -37.04 11.82 
USER  
USER                              x       y       z    vdW   Elec        q     RMS 
ATOM      1  C   UNL d   1     -13.857   0.170  -1.623 -0.04 +0.00    +0.194    10.581
ATOM      2  C   UNL d   1     -13.228   0.309  -3.011 -0.08 +0.04    +0.194    10.581
ATOM      3  C   UNL d   1     -14.067   1.204  -3.926 -0.08 +0.08    +0.194    10.581
ATOM      4  C   UNL d   1     -14.399   2.558  -3.304 -0.08 +0.10    +0.194    10.581
ATOM      5  C   UNL d   1     -14.922   2.473  -1.876 -0.05 +0.04    +0.194    10.581
ATOM      6  C   UNL d   1     -14.119   1.531  -0.977 -0.06 +0.02    +0.194    10.581
ATOM      7  O   UNL d   1     -12.935  -0.530  -0.784 -0.05 +0.05    -0.278    10.581
ATOM      8  P   UNL d   1     -11.988   0.322   0.179 -0.15 -0.07    +0.473    10.581
ATOM      9  O   UNL d   1     -12.515   0.537   1.554 -0.12 +0.03    -0.228    10.581
ATOM     10  O   UNL d   1     -10.601  -0.467   0.155 -0.24 +0.11    -0.303    10.581
ATOM     11  H   UNL d   1     -10.405  -0.756  -0.756 +0.08 -0.08    +0.222    10.581
ATOM     12  O   UNL d   1     -11.637   1.635  -0.643 -0.19 -0.04    -0.303    10.581
ATOM     13  H   UNL d   1     -11.149   1.450  -1.477 +0.07 +0.05    +0.222    10.581
ATOM     14  O   UNL d   1     -11.924   0.889  -2.877 -0.11 -0.12    -0.278    10.581
ATOM     15  P   UNL d   1     -10.680  -0.068  -3.193 -0.18 +0.09    +0.473    10.581
ATOM     16  O   UNL d   1     -10.911  -1.540  -3.052 -0.16 +0.03    -0.228    10.581
ATOM     17  O   UNL d   1     -10.235   0.348  -4.665 -0.18 -0.16    -0.303    10.581
ATOM     18  H   UNL d   1     -11.008   0.582  -5.213 +0.06 +0.18    +0.222    10.581
ATOM     19  O   UNL d   1      -9.490   0.526  -2.319 -0.27 -0.01    -0.303    10.581
ATOM     20  H   UNL d   1      -9.782   0.744  -1.415 -0.29 -0.04    +0.222    10.581
ATOM     21  O   UNL d   1     -14.910   1.296   0.186 -0.01 -0.00    -0.278    10.581
ATOM     22  P   UNL d   1     -15.041   2.433   1.297 +0.00 +0.03    +0.473    10.581
ATOM     23  O   UNL d   1     -14.037   3.536   1.300 -0.06 -0.03    -0.228    10.581
ATOM     24  O   UNL d   1     -16.549   2.905   1.103 -0.00 -0.02    -0.303    10.581
ATOM     25  H   UNL d   1     -16.601   3.437   0.269 +0.01 +0.02    +0.222    10.581
ATOM     26  O   UNL d   1     -15.136   1.565   2.642 -0.00 +0.00    -0.303    10.581
ATOM     27  H   UNL d   1     -14.307   1.057   2.755 +0.04 -0.01    +0.222    10.581
ATOM     28  O   UNL d   1     -13.282   1.498  -5.074 -0.04 -0.27    -0.278    10.581
ATOM     29  P   UNL d   1     -13.215   0.469  -6.288 -0.06 +0.28    +0.473    10.581
ATOM     30  O   UNL d   1     -14.476   0.302  -7.056 -0.02 -0.08    -0.228    10.581
ATOM     31  O   UNL d   1     -11.954   1.054  -7.081 -0.47 -0.34    -0.303    10.581
ATOM     32  H   UNL d   1     -11.133   0.765  -6.621 +0.05 +0.21    +0.222    10.581
ATOM     33  O   UNL d   1     -12.619  -0.832  -5.591 -0.06 -0.08    -0.303    10.581
ATOM     34  H   UNL d   1     -12.190  -0.572  -4.740 +0.05 +0.06    +0.222    10.581
ATOM     35  O   UNL d   1     -14.785   3.786  -1.335 -0.04 -0.06    -0.278    10.581
ATOM     36  P   UNL d   1     -16.004   4.813  -1.400 -0.00 +0.08    +0.473    10.581
ATOM     37  O   UNL d   1     -16.285   5.561  -0.136 -0.01 -0.03    -0.228    10.581
ATOM     38  O   UNL d   1     -15.586   5.737  -2.628 -0.01 -0.08    -0.303    10.581
ATOM     39  H   UNL d   1     -15.602   5.204  -3.452 +0.02 +0.08    +0.222    10.581
ATOM     40  O   UNL d   1     -17.178   3.912  -1.982 -0.00 -0.04    -0.303    10.581
ATOM     41  H   UNL d   1     -17.112   3.812  -2.958 +0.01 +0.03    +0.222    10.581
ATOM     42  O   UNL d   1     -15.439   3.136  -4.100 -0.04 -0.12    -0.278    10.581
ATOM     43  P   UNL d   1     -15.054   4.229  -5.196 -0.05 +0.33    +0.473    10.581
ATOM     44  O   UNL d   1     -16.099   5.222  -5.572 -0.01 -0.08    -0.228    10.581
ATOM     45  O   UNL d   1     -13.729   4.874  -4.596 -0.37 -0.44    -0.303    10.581
ATOM     46  H   UNL d   1     -13.838   5.100  -3.650 +0.02 +0.19    +0.222    10.581
ATOM     47  O   UNL d   1     -14.470   3.348  -6.402 -0.07 -0.31    -0.303    10.581
ATOM     48  H   UNL d   1     -14.661   2.403  -6.232 +0.01 +0.16    +0.222    10.581
TER
ENDMDL
MODEL       97
USER    Run = 97
USER    Cluster Rank = 72
USER    Number of conformations in this cluster = 1
USER  
USER    RMSD from reference structure       = 16.217 A
USER  
USER    Estimated Free Energy of Binding    =   +3.72 kcal/mol  [=(1)+(2)+(3)-(4)]
USER    
USER    (1) Final Intermolecular Energy     =   -3.44 kcal/mol
USER        vdW + Hbond + desolv Energy     =   -3.50 kcal/mol
USER        Electrostatic Energy            =   +0.06 kcal/mol
USER    (2) Final Total Internal Energy     =  -14.98 kcal/mol
USER    (3) Torsional Free Energy           =   +7.16 kcal/mol
USER    (4) Unbound System's Energy  [=(2)] =  -14.98 kcal/mol
USER    
USER    
USER  
USER    DPF = D:/Protein_go_brrr/autodock/final/mut_K82N/IHP/dock.dpf
USER    NEWDPF move	IHP_ideal_opt.pdbqt
USER    NEWDPF about	0.035000 0.082000 -0.065000
USER    NEWDPF tran0	-10.350129 -17.468928 0.186383
USER    NEWDPF axisangle0	0.974285 0.012314 0.224982 117.268320
USER    NEWDPF quaternion0	0.831904 0.010515 0.192103 0.520501
USER    NEWDPF dihe0	-115.75 -46.33 164.24 -5.70 30.29 -166.76 -42.28 -25.00 43.87 75.83 -3.64 -104.04 60.60 171.89 170.55 -35.42 -9.53 -53.20 -22.50 15.49 -13.16 3.74 -15.94 -179.45 
USER  
USER                              x       y       z    vdW   Elec        q     RMS 
ATOM      1  C   UNL d   1      -9.139 -16.603   1.062 -0.14 -0.01    +0.194    16.217
ATOM      2  C   UNL d   1     -10.583 -16.328   1.484 -0.06 -0.02    +0.194    16.217
ATOM      3  C   UNL d   1     -11.507 -16.171   0.275 -0.08 -0.01    +0.194    16.217
ATOM      4  C   UNL d   1     -11.405 -17.330  -0.714 -0.03 -0.01    +0.194    16.217
ATOM      5  C   UNL d   1      -9.976 -17.714  -1.075 -0.08 +0.00    +0.194    16.217
ATOM      6  C   UNL d   1      -9.037 -17.810   0.129 -0.08 -0.01    +0.194    16.217
ATOM      7  O   UNL d   1      -8.381 -16.906   2.236 -0.11 +0.04    -0.278    16.217
ATOM      8  P   UNL d   1      -6.860 -16.424   2.303 -0.27 -0.08    +0.473    16.217
ATOM      9  O   UNL d   1      -6.578 -15.362   3.307 -0.37 +0.06    -0.228    16.217
ATOM     10  O   UNL d   1      -6.039 -17.767   2.562 -0.11 +0.16    -0.303    16.217
ATOM     11  H   UNL d   1      -5.841 -18.198   1.710 +0.05 -0.07    +0.222    16.217
ATOM     12  O   UNL d   1      -6.469 -16.080   0.801 -0.42 -0.02    -0.303    16.217
ATOM     13  H   UNL d   1      -6.076 -16.843   0.321 +0.09 +0.01    +0.222    16.217
ATOM     14  O   UNL d   1     -11.054 -17.423   2.279 -0.02 +0.02    -0.278    16.217
ATOM     15  P   UNL d   1     -12.098 -17.068   3.441 -0.01 -0.04    +0.473    16.217
ATOM     16  O   UNL d   1     -11.828 -17.658   4.790 -0.01 +0.02    -0.228    16.217
ATOM     17  O   UNL d   1     -12.131 -15.476   3.458 -0.09 +0.03    -0.303    16.217
ATOM     18  H   UNL d   1     -12.547 -15.124   2.648 +0.02 -0.01    +0.222    16.217
ATOM     19  O   UNL d   1     -13.519 -17.411   2.815 -0.00 +0.02    -0.303    16.217
ATOM     20  H   UNL d   1     -13.733 -16.826   2.064 +0.01 -0.01    +0.222    16.217
ATOM     21  O   UNL d   1      -7.708 -17.831  -0.385 -0.14 -0.01    -0.278    16.217
ATOM     22  P   UNL d   1      -6.800 -19.127  -0.180 -0.11 -0.03    +0.473    16.217
ATOM     23  O   UNL d   1      -5.320 -18.975  -0.289 -0.17 +0.02    -0.228    16.217
ATOM     24  O   UNL d   1      -7.313 -19.665   1.227 -0.04 +0.05    -0.303    16.217
ATOM     25  H   UNL d   1      -7.528 -18.883   1.796 +0.06 -0.04    +0.222    16.217
ATOM     26  O   UNL d   1      -7.477 -20.164  -1.198 -0.03 +0.01    -0.303    16.217
ATOM     27  H   UNL d   1      -8.012 -19.669  -1.852 +0.04 -0.00    +0.222    16.217
ATOM     28  O   UNL d   1     -12.846 -16.199   0.752 -0.04 +0.02    -0.278    16.217
ATOM     29  P   UNL d   1     -13.769 -14.907   0.634 -0.04 -0.02    +0.473    16.217
ATOM     30  O   UNL d   1     -13.289 -13.707   1.366 -0.55 -0.02    -0.228    16.217
ATOM     31  O   UNL d   1     -13.883 -14.789  -0.958 -0.02 +0.02    -0.303    16.217
ATOM     32  H   UNL d   1     -13.498 -15.602  -1.361 +0.02 -0.01    +0.222    16.217
ATOM     33  O   UNL d   1     -15.197 -15.477   1.047 -0.00 +0.02    -0.303    16.217
ATOM     34  H   UNL d   1     -15.077 -16.178   1.733 +0.01 -0.01    +0.222    16.217
ATOM     35  O   UNL d   1     -10.059 -19.017  -1.648 -0.02 +0.01    -0.278    16.217
ATOM     36  P   UNL d   1      -9.686 -19.247  -3.182 -0.04 -0.01    +0.473    16.217
ATOM     37  O   UNL d   1      -8.577 -18.394  -3.711 -0.08 +0.00    -0.228    16.217
ATOM     38  O   UNL d   1      -9.382 -20.809  -3.214 -0.00 +0.01    -0.303    16.217
ATOM     39  H   UNL d   1      -9.092 -21.098  -2.322 +0.01 -0.01    +0.222    16.217
ATOM     40  O   UNL d   1     -11.100 -19.117  -3.899 -0.01 +0.01    -0.303    16.217
ATOM     41  H   UNL d   1     -11.676 -18.459  -3.451 +0.01 -0.00    +0.222    16.217
ATOM     42  O   UNL d   1     -12.044 -16.902  -1.921 -0.02 +0.01    -0.278    16.217
ATOM     43  P   UNL d   1     -11.350 -15.767  -2.801 -0.03 +0.00    +0.473    16.217
ATOM     44  O   UNL d   1     -10.153 -15.090  -2.228 -0.60 -0.02    -0.228    16.217
ATOM     45  O   UNL d   1     -11.079 -16.512  -4.181 -0.05 -0.01    -0.303    16.217
ATOM     46  H   UNL d   1     -10.308 -17.111  -4.118 +0.03 +0.01    +0.222    16.217
ATOM     47  O   UNL d   1     -12.572 -14.804  -3.186 -0.01 +0.02    -0.303    16.217
ATOM     48  H   UNL d   1     -12.821 -14.270  -2.403 +0.04 -0.02    +0.222    16.217
TER
ENDMDL
MODEL       71
USER    Run = 71
USER    Cluster Rank = 73
USER    Number of conformations in this cluster = 1
USER  
USER    RMSD from reference structure       = 13.643 A
USER  
USER    Estimated Free Energy of Binding    =   +3.72 kcal/mol  [=(1)+(2)+(3)-(4)]
USER    
USER    (1) Final Intermolecular Energy     =   -3.44 kcal/mol
USER        vdW + Hbond + desolv Energy     =   -3.32 kcal/mol
USER        Electrostatic Energy            =   -0.12 kcal/mol
USER    (2) Final Total Internal Energy     =  -14.37 kcal/mol
USER    (3) Torsional Free Energy           =   +7.16 kcal/mol
USER    (4) Unbound System's Energy  [=(2)] =  -14.37 kcal/mol
USER    
USER    
USER  
USER    DPF = D:/Protein_go_brrr/autodock/final/mut_K82N/IHP/dock.dpf
USER    NEWDPF move	IHP_ideal_opt.pdbqt
USER    NEWDPF about	0.035000 0.082000 -0.065000
USER    NEWDPF tran0	11.536635 -13.316541 2.215511
USER    NEWDPF axisangle0	-0.975832 0.218396 0.007464 155.240188
USER    NEWDPF quaternion0	-0.953141 0.213318 0.007290 0.214393
USER    NEWDPF dihe0	-105.05 3.84 79.28 114.85 52.56 -117.44 179.92 32.99 73.96 -6.12 -19.64 -105.48 -131.39 129.25 -66.35 8.44 160.69 -33.15 29.38 -7.53 151.43 1.17 -11.71 159.95 
USER  
USER                              x       y       z    vdW   Elec        q     RMS 
ATOM      1  C   UNL d   1      12.950 -13.425   1.229 -0.02 +0.02    +0.194    13.643
ATOM      2  C   UNL d   1      12.179 -12.107   1.136 -0.06 +0.02    +0.194    13.643
ATOM      3  C   UNL d   1      10.668 -12.338   1.067 -0.12 +0.03    +0.194    13.643
ATOM      4  C   UNL d   1      10.145 -13.236   2.186 -0.05 +0.07    +0.194    13.643
ATOM      5  C   UNL d   1      10.955 -14.510   2.390 -0.13 +0.06    +0.194    13.643
ATOM      6  C   UNL d   1      12.469 -14.286   2.397 -0.05 +0.04    +0.194    13.643
ATOM      7  O   UNL d   1      14.327 -13.121   1.463 -0.00 -0.02    -0.278    13.643
ATOM      8  P   UNL d   1      15.303 -13.000   0.203 +0.00 +0.01    +0.473    13.643
ATOM      9  O   UNL d   1      15.776 -14.295  -0.355 +0.00 -0.00    -0.228    13.643
ATOM     10  O   UNL d   1      14.474 -12.129  -0.845 -0.00 -0.01    -0.303    13.643
ATOM     11  H   UNL d   1      14.747 -11.195  -0.784 +0.00 +0.00    +0.222    13.643
ATOM     12  O   UNL d   1      16.437 -11.983   0.656 -0.00 -0.00    -0.303    13.643
ATOM     13  H   UNL d   1      16.088 -11.217   1.164 +0.00 +0.00    +0.222    13.643
ATOM     14  O   UNL d   1      12.467 -11.315   2.295 -0.07 -0.04    -0.278    13.643
ATOM     15  P   UNL d   1      13.045  -9.845   2.032 -0.03 +0.03    +0.473    13.643
ATOM     16  O   UNL d   1      13.450  -9.056   3.238 -0.06 -0.01    -0.228    13.643
ATOM     17  O   UNL d   1      14.249 -10.078   1.014 -0.01 -0.01    -0.303    13.643
ATOM     18  H   UNL d   1      14.517 -11.017   0.997 +0.01 +0.01    +0.222    13.643
ATOM     19  O   UNL d   1      11.962  -9.156   1.093 -0.07 -0.01    -0.303    13.643
ATOM     20  H   UNL d   1      11.071  -9.183   1.489 +0.09 +0.01    +0.222    13.643
ATOM     21  O   UNL d   1      13.075 -15.568   2.250 -0.01 -0.04    -0.278    13.643
ATOM     22  P   UNL d   1      12.580 -16.551   1.095 +0.01 +0.04    +0.473    13.643
ATOM     23  O   UNL d   1      11.127 -16.563   0.756 -0.04 -0.03    -0.228    13.643
ATOM     24  O   UNL d   1      13.542 -16.151  -0.108 -0.00 -0.01    -0.303    13.643
ATOM     25  H   UNL d   1      13.989 -15.298   0.125 +0.00 +0.01    +0.222    13.643
ATOM     26  O   UNL d   1      13.203 -17.950   1.567 -0.00 -0.02    -0.303    13.643
ATOM     27  H   UNL d   1      12.749 -18.246   2.382 +0.02 +0.02    +0.222    13.643
ATOM     28  O   UNL d   1      10.033 -11.081   1.263 -0.17 -0.05    -0.278    13.643
ATOM     29  P   UNL d   1       9.243 -10.384   0.068 -0.16 +0.04    +0.473    13.643
ATOM     30  O   UNL d   1       9.554 -10.897  -1.291 -0.10 -0.02    -0.228    13.643
ATOM     31  O   UNL d   1       7.740 -10.564   0.586 -0.12 -0.02    -0.303    13.643
ATOM     32  H   UNL d   1       7.206 -10.972  -0.134 +0.01 +0.01    +0.222    13.643
ATOM     33  O   UNL d   1       9.526  -8.841   0.337 -0.16 -0.00    -0.303    13.643
ATOM     34  H   UNL d   1      10.330  -8.568  -0.170 +0.09 +0.00    +0.222    13.643
ATOM     35  O   UNL d   1      10.596 -14.994   3.682 -0.09 -0.20    -0.278    13.643
ATOM     36  P   UNL d   1       9.915 -16.428   3.843 -0.13 +0.22    +0.473    13.643
ATOM     37  O   UNL d   1       9.072 -16.607   5.065 -0.69 -0.15    -0.228    13.643
ATOM     38  O   UNL d   1       9.119 -16.566   2.471 -0.13 -0.08    -0.303    13.643
ATOM     39  H   UNL d   1       9.315 -15.788   1.906 +0.07 +0.06    +0.222    13.643
ATOM     40  O   UNL d   1      11.152 -17.412   3.669 -0.04 -0.07    -0.303    13.643
ATOM     41  H   UNL d   1      11.696 -17.178   2.884 +0.04 +0.04    +0.222    13.643
ATOM     42  O   UNL d   1       8.822 -13.634   1.813 -0.25 -0.08    -0.278    13.643
ATOM     43  P   UNL d   1       8.572 -14.203   0.344 -0.17 +0.11    +0.473    13.643
ATOM     44  O   UNL d   1       9.769 -14.560  -0.467 -0.06 -0.03    -0.228    13.643
ATOM     45  O   UNL d   1       7.577 -15.418   0.605 -0.66 -0.13    -0.303    13.643
ATOM     46  H   UNL d   1       8.062 -16.260   0.719 +0.08 +0.08    +0.222    13.643
ATOM     47  O   UNL d   1       7.593 -13.115  -0.309 -0.20 -0.06    -0.303    13.643
ATOM     48  H   UNL d   1       8.103 -12.304  -0.513 +0.12 +0.03    +0.222    13.643
TER
ENDMDL
MODEL       99
USER    Run = 99
USER    Cluster Rank = 74
USER    Number of conformations in this cluster = 1
USER  
USER    RMSD from reference structure       = 14.582 A
USER  
USER    Estimated Free Energy of Binding    =   +3.87 kcal/mol  [=(1)+(2)+(3)-(4)]
USER    
USER    (1) Final Intermolecular Energy     =   -3.29 kcal/mol
USER        vdW + Hbond + desolv Energy     =   -3.05 kcal/mol
USER        Electrostatic Energy            =   -0.24 kcal/mol
USER    (2) Final Total Internal Energy     =  -14.11 kcal/mol
USER    (3) Torsional Free Energy           =   +7.16 kcal/mol
USER    (4) Unbound System's Energy  [=(2)] =  -14.11 kcal/mol
USER    
USER    
USER  
USER    DPF = D:/Protein_go_brrr/autodock/final/mut_K82N/IHP/dock.dpf
USER    NEWDPF move	IHP_ideal_opt.pdbqt
USER    NEWDPF about	0.035000 0.082000 -0.065000
USER    NEWDPF tran0	-12.984667 11.858368 2.323792
USER    NEWDPF axisangle0	0.110929 -0.602331 -0.790501 -137.789562
USER    NEWDPF quaternion0	0.103488 -0.561927 -0.737475 -0.360082
USER    NEWDPF dihe0	-156.01 30.16 145.14 134.37 65.36 135.75 -121.43 -155.49 132.56 -65.93 10.75 -146.85 -120.41 93.84 -96.28 -116.05 -125.28 -5.92 34.76 -16.81 -16.57 -31.23 -2.26 162.86 
USER  
USER                              x       y       z    vdW   Elec        q     RMS 
ATOM      1  C   UNL d   1     -14.695  11.741   2.112 -0.03 +0.02    +0.194    14.582
ATOM      2  C   UNL d   1     -13.925  12.358   0.943 -0.06 +0.02    +0.194    14.582
ATOM      3  C   UNL d   1     -12.858  13.344   1.425 -0.13 +0.02    +0.194    14.582
ATOM      4  C   UNL d   1     -11.928  12.754   2.481 -0.13 +0.02    +0.194    14.582
ATOM      5  C   UNL d   1     -12.650  12.027   3.609 -0.09 +0.02    +0.194    14.582
ATOM      6  C   UNL d   1     -13.759  11.088   3.130 -0.06 +0.03    +0.194    14.582
ATOM      7  O   UNL d   1     -15.544  10.714   1.594 -0.01 -0.03    -0.278    14.582
ATOM      8  P   UNL d   1     -17.004  11.119   1.089 +0.00 +0.03    +0.473    14.582
ATOM      9  O   UNL d   1     -17.948  11.540   2.160 +0.00 -0.01    -0.228    14.582
ATOM     10  O   UNL d   1     -16.736  12.259   0.005 -0.00 -0.02    -0.303    14.582
ATOM     11  H   UNL d   1     -16.018  11.979  -0.593 +0.01 +0.02    +0.222    14.582
ATOM     12  O   UNL d   1     -17.480   9.904   0.183 -0.00 -0.02    -0.303    14.582
ATOM     13  H   UNL d   1     -16.745   9.303  -0.073 +0.01 +0.02    +0.222    14.582
ATOM     14  O   UNL d   1     -13.281  11.313   0.204 -0.04 -0.04    -0.278    14.582
ATOM     15  P   UNL d   1     -13.786  11.082  -1.298 -0.03 +0.07    +0.473    14.582
ATOM     16  O   UNL d   1     -12.773  10.576  -2.277 -0.10 -0.04    -0.228    14.582
ATOM     17  O   UNL d   1     -15.035  10.106  -1.141 -0.01 -0.04    -0.303    14.582
ATOM     18  H   UNL d   1     -15.654  10.434  -0.461 +0.01 +0.02    +0.222    14.582
ATOM     19  O   UNL d   1     -14.496  12.449  -1.692 -0.02 -0.04    -0.303    14.582
ATOM     20  H   UNL d   1     -13.847  13.156  -1.867 +0.04 +0.03    +0.222    14.582
ATOM     21  O   UNL d   1     -14.546  10.762   4.273 -0.02 -0.06    -0.278    14.582
ATOM     22  P   UNL d   1     -14.665   9.243   4.747 -0.04 +0.26    +0.473    14.582
ATOM     23  O   UNL d   1     -15.365   8.278   3.850 -0.08 -0.09    -0.228    14.582
ATOM     24  O   UNL d   1     -13.147   8.882   5.062 -0.46 -0.38    -0.303    14.582
ATOM     25  H   UNL d   1     -12.593   9.679   4.865 +0.06 +0.11    +0.222    14.582
ATOM     26  O   UNL d   1     -15.279   9.408   6.218 -0.14 -0.13    -0.303    14.582
ATOM     27  H   UNL d   1     -14.875  10.188   6.650 +0.02 +0.06    +0.222    14.582
ATOM     28  O   UNL d   1     -12.024  13.648   0.314 -0.16 -0.03    -0.278    14.582
ATOM     29  P   UNL d   1     -12.498  14.700  -0.784 -0.17 +0.08    +0.473    14.582
ATOM     30  O   UNL d   1     -12.138  14.367  -2.186 -0.22 -0.06    -0.228    14.582
ATOM     31  O   UNL d   1     -14.057  14.784  -0.435 -0.03 -0.04    -0.303    14.582
ATOM     32  H   UNL d   1     -14.482  13.932  -0.687 +0.03 +0.02    +0.222    14.582
ATOM     33  O   UNL d   1     -11.932  16.069  -0.201 -0.16 -0.07    -0.303    14.582
ATOM     34  H   UNL d   1     -12.651  16.526   0.301 +0.05 +0.04    +0.222    14.582
ATOM     35  O   UNL d   1     -11.662  11.220   4.245 -0.13 -0.04    -0.278    14.582
ATOM     36  P   UNL d   1     -11.460  11.291   5.826 -0.09 +0.01    +0.473    14.582
ATOM     37  O   UNL d   1     -10.638  12.439   6.320 -0.07 -0.01    -0.228    14.582
ATOM     38  O   UNL d   1     -12.966  11.292   6.346 -0.04 -0.02    -0.303    14.582
ATOM     39  H   UNL d   1     -13.397  10.451   6.082 +0.04 +0.06    +0.222    14.582
ATOM     40  O   UNL d   1     -10.938   9.828   6.168 -0.22 +0.06    -0.303    14.582
ATOM     41  H   UNL d   1     -11.623   9.296   6.629 -0.20 -0.09    +0.222    14.582
ATOM     42  O   UNL d   1     -11.222  13.851   3.071 -0.20 -0.03    -0.278    14.582
ATOM     43  P   UNL d   1     -12.054  15.094   3.625 -0.07 +0.06    +0.473    14.582
ATOM     44  O   UNL d   1     -13.329  14.804   4.338 -0.02 -0.02    -0.228    14.582
ATOM     45  O   UNL d   1     -10.978  15.869   4.505 -0.09 -0.06    -0.303    14.582
ATOM     46  H   UNL d   1     -10.662  15.320   5.250 +0.06 +0.04    +0.222    14.582
ATOM     47  O   UNL d   1     -12.179  16.051   2.346 -0.10 -0.05    -0.303    14.582
ATOM     48  H   UNL d   1     -12.218  15.502   1.535 +0.06 +0.03    +0.222    14.582
TER
ENDMDL
MODEL       75
USER    Run = 75
USER    Cluster Rank = 75
USER    Number of conformations in this cluster = 1
USER  
USER    RMSD from reference structure       = 19.760 A
USER  
USER    Estimated Free Energy of Binding    =   +3.88 kcal/mol  [=(1)+(2)+(3)-(4)]
USER    
USER    (1) Final Intermolecular Energy     =   -3.28 kcal/mol
USER        vdW + Hbond + desolv Energy     =   -3.36 kcal/mol
USER        Electrostatic Energy            =   +0.08 kcal/mol
USER    (2) Final Total Internal Energy     =  -14.61 kcal/mol
USER    (3) Torsional Free Energy           =   +7.16 kcal/mol
USER    (4) Unbound System's Energy  [=(2)] =  -14.61 kcal/mol
USER    
USER    
USER  
USER    DPF = D:/Protein_go_brrr/autodock/final/mut_K82N/IHP/dock.dpf
USER    NEWDPF move	IHP_ideal_opt.pdbqt
USER    NEWDPF about	0.035000 0.082000 -0.065000
USER    NEWDPF tran0	9.774672 -13.163318 17.109843
USER    NEWDPF axisangle0	0.344280 0.247380 -0.905690 -146.721584
USER    NEWDPF quaternion0	0.329864 0.237022 -0.867766 -0.286344
USER    NEWDPF dihe0	-166.20 -22.34 70.51 90.75 99.08 87.69 24.97 -63.51 71.53 -61.31 -52.00 179.97 47.58 -79.57 179.64 90.34 60.91 6.58 -143.92 -17.86 13.59 -29.00 -176.91 169.26 
USER  
USER                              x       y       z    vdW   Elec        q     RMS 
ATOM      1  C   UNL d   1       8.074 -13.422  16.950 -0.11 -0.02    +0.194    19.760
ATOM      2  C   UNL d   1       8.482 -12.194  17.765 -0.07 -0.01    +0.194    19.760
ATOM      3  C   UNL d   1       9.641 -12.503  18.715 -0.04 -0.01    +0.194    19.760
ATOM      4  C   UNL d   1      10.833 -13.155  18.018 -0.04 -0.01    +0.194    19.760
ATOM      5  C   UNL d   1      10.459 -14.314  17.103 -0.04 -0.02    +0.194    19.760
ATOM      6  C   UNL d   1       9.260 -14.025  16.196 -0.10 -0.02    +0.194    19.760
ATOM      7  O   UNL d   1       7.114 -13.011  15.974 -0.19 +0.03    -0.278    19.760
ATOM      8  P   UNL d   1       7.634 -12.614  14.517 -0.21 -0.06    +0.473    19.760
ATOM      9  O   UNL d   1       7.497 -13.679  13.486 -0.30 +0.05    -0.228    19.760
ATOM     10  O   UNL d   1       6.820 -11.288  14.164 -0.32 +0.03    -0.303    19.760
ATOM     11  H   UNL d   1       6.699 -10.754  14.970 +0.15 -0.01    +0.222    19.760
ATOM     12  O   UNL d   1       9.103 -12.052  14.742 -0.14 +0.02    -0.303    19.760
ATOM     13  H   UNL d   1       9.119 -11.201  15.236 +0.11 +0.01    +0.222    19.760
ATOM     14  O   UNL d   1       8.891 -11.153  16.869 -0.12 -0.00    -0.278    19.760
ATOM     15  P   UNL d   1       7.968  -9.846  16.821 -0.18 +0.01    +0.473    19.760
ATOM     16  O   UNL d   1       6.541 -10.015  17.238 -0.14 +0.00    -0.228    19.760
ATOM     17  O   UNL d   1       8.751  -8.785  17.715 -0.47 -0.06    -0.303    19.760
ATOM     18  H   UNL d   1       9.323  -9.231  18.369 +0.07 +0.03    +0.222    19.760
ATOM     19  O   UNL d   1       8.191  -9.257  15.360 -0.27 -0.01    -0.303    19.760
ATOM     20  H   UNL d   1       8.375  -9.962  14.711 +0.13 +0.01    +0.222    19.760
ATOM     21  O   UNL d   1       8.829 -15.279  15.672 -0.11 +0.06    -0.278    19.760
ATOM     22  P   UNL d   1       9.464 -15.832  14.317 -0.13 -0.14    +0.473    19.760
ATOM     23  O   UNL d   1       8.622 -16.702  13.447 -0.79 +0.11    -0.228    19.760
ATOM     24  O   UNL d   1       9.975 -14.493  13.627 -0.10 +0.07    -0.303    19.760
ATOM     25  H   UNL d   1      10.259 -13.867  14.341 +0.08 -0.03    +0.222    19.760
ATOM     26  O   UNL d   1      10.835 -16.479  14.841 -0.03 +0.07    -0.303    19.760
ATOM     27  H   UNL d   1      11.526 -15.786  14.873 +0.04 -0.03    +0.222    19.760
ATOM     28  O   UNL d   1      10.127 -11.265  19.215 -0.03 -0.00    -0.278    19.760
ATOM     29  P   UNL d   1       9.392 -10.543  20.430 -0.01 +0.00    +0.473    19.760
ATOM     30  O   UNL d   1       9.418 -11.277  21.722 -0.00 +0.00    -0.228    19.760
ATOM     31  O   UNL d   1      10.120  -9.118  20.390 -0.04 -0.01    -0.303    19.760
ATOM     32  H   UNL d   1       9.744  -8.595  19.645 +0.05 +0.02    +0.222    19.760
ATOM     33  O   UNL d   1       7.960 -10.224  19.812 -0.02 +0.00    -0.303    19.760
ATOM     34  H   UNL d   1       7.955 -10.488  18.860 +0.05 -0.00    +0.222    19.760
ATOM     35  O   UNL d   1      11.587 -14.517  16.255 -0.02 +0.02    -0.278    19.760
ATOM     36  P   UNL d   1      12.299 -13.275  15.551 -0.04 -0.02    +0.473    19.760
ATOM     37  O   UNL d   1      13.613 -12.867  16.138 -0.06 +0.00    -0.228    19.760
ATOM     38  O   UNL d   1      12.381 -13.761  14.037 -0.04 +0.02    -0.303    19.760
ATOM     39  H   UNL d   1      11.964 -14.646  13.961 +0.05 -0.03    +0.222    19.760
ATOM     40  O   UNL d   1      11.143 -12.182  15.540 -0.01 -0.01    -0.303    19.760
ATOM     41  H   UNL d   1      10.734 -12.095  14.651 +0.09 +0.00    +0.222    19.760
ATOM     42  O   UNL d   1      11.676 -13.685  19.046 -0.01 +0.01    -0.278    19.760
ATOM     43  P   UNL d   1      11.071 -14.753  20.064 -0.00 -0.03    +0.473    19.760
ATOM     44  O   UNL d   1      10.390 -15.945  19.486 -0.01 +0.02    -0.228    19.760
ATOM     45  O   UNL d   1      12.320 -15.102  20.987 -0.00 +0.01    -0.303    19.760
ATOM     46  H   UNL d   1      12.495 -16.064  21.004 +0.00 -0.01    +0.222    19.760
ATOM     47  O   UNL d   1      10.179 -13.857  21.049 -0.00 +0.01    -0.303    19.760
ATOM     48  H   UNL d   1      10.252 -12.916  20.784 +0.01 -0.01    +0.222    19.760
TER
ENDMDL
MODEL        6
USER    Run = 6
USER    Cluster Rank = 76
USER    Number of conformations in this cluster = 1
USER  
USER    RMSD from reference structure       = 15.139 A
USER  
USER    Estimated Free Energy of Binding    =   +3.91 kcal/mol  [=(1)+(2)+(3)-(4)]
USER    
USER    (1) Final Intermolecular Energy     =   -3.25 kcal/mol
USER        vdW + Hbond + desolv Energy     =   -3.20 kcal/mol
USER        Electrostatic Energy            =   -0.05 kcal/mol
USER    (2) Final Total Internal Energy     =  -14.18 kcal/mol
USER    (3) Torsional Free Energy           =   +7.16 kcal/mol
USER    (4) Unbound System's Energy  [=(2)] =  -14.18 kcal/mol
USER    
USER    
USER  
USER    DPF = D:/Protein_go_brrr/autodock/final/mut_K82N/IHP/dock.dpf
USER    NEWDPF move	IHP_ideal_opt.pdbqt
USER    NEWDPF about	0.035000 0.082000 -0.065000
USER    NEWDPF tran0	9.412380 15.564622 2.692508
USER    NEWDPF axisangle0	0.296789 0.207272 0.932177 -110.371108
USER    NEWDPF quaternion0	0.243665 0.170172 0.765323 -0.570921
USER    NEWDPF dihe0	-177.77 -28.14 165.51 13.78 -16.58 136.19 -92.77 1.46 113.08 -57.84 60.18 -54.03 68.72 177.37 -172.49 1.39 168.89 -88.32 38.37 10.10 169.84 -10.31 21.35 -176.42 
USER  
USER                              x       y       z    vdW   Elec        q     RMS 
ATOM      1  C   UNL d   1      10.276  17.007   3.089 -0.10 -0.01    +0.194    15.139
ATOM      2  C   UNL d   1      10.989  16.053   2.129 -0.11 -0.01    +0.194    15.139
ATOM      3  C   UNL d   1      10.854  14.595   2.575 -0.14 +0.00    +0.194    15.139
ATOM      4  C   UNL d   1       9.408  14.178   2.837 -0.18 +0.01    +0.194    15.139
ATOM      5  C   UNL d   1       8.625  15.161   3.697 -0.15 +0.01    +0.194    15.139
ATOM      6  C   UNL d   1       8.809  16.624   3.289 -0.11 -0.00    +0.194    15.139
ATOM      7  O   UNL d   1      10.301  18.317   2.516 -0.09 +0.02    -0.278    15.139
ATOM      8  P   UNL d   1      11.598  19.220   2.743 -0.03 -0.03    +0.473    15.139
ATOM      9  O   UNL d   1      12.297  19.645   1.499 -0.02 +0.02    -0.228    15.139
ATOM     10  O   UNL d   1      11.068  20.446   3.615 -0.02 +0.03    -0.303    15.139
ATOM     11  H   UNL d   1      10.268  20.178   4.104 +0.03 -0.03    +0.222    15.139
ATOM     12  O   UNL d   1      12.480  18.420   3.795 -0.01 +0.02    -0.303    15.139
ATOM     13  H   UNL d   1      12.114  18.451   4.708 +0.01 -0.01    +0.222    15.139
ATOM     14  O   UNL d   1      10.412  16.187   0.824 -0.13 +0.02    -0.278    15.139
ATOM     15  P   UNL d   1      11.423  16.112  -0.416 -0.14 -0.07    +0.473    15.139
ATOM     16  O   UNL d   1      11.367  17.239  -1.398 -0.11 +0.03    -0.228    15.139
ATOM     17  O   UNL d   1      12.856  15.954   0.262 -0.04 +0.03    -0.303    15.139
ATOM     18  H   UNL d   1      12.954  15.076   0.679 +0.04 -0.02    +0.222    15.139
ATOM     19  O   UNL d   1      11.196  14.660  -1.025 -0.26 +0.07    -0.303    15.139
ATOM     20  H   UNL d   1      11.174  13.976  -0.330 +0.06 -0.02    +0.222    15.139
ATOM     21  O   UNL d   1       8.313  17.418   4.365 -0.10 +0.02    -0.278    15.139
ATOM     22  P   UNL d   1       9.077  17.420   5.765 -0.00 -0.03    +0.473    15.139
ATOM     23  O   UNL d   1       8.261  17.470   7.013 -0.01 +0.02    -0.228    15.139
ATOM     24  O   UNL d   1      10.010  16.138   5.629 -0.01 -0.01    -0.303    15.139
ATOM     25  H   UNL d   1       9.472  15.339   5.861 +0.04 +0.02    +0.222    15.139
ATOM     26  O   UNL d   1      10.125  18.616   5.562 -0.01 +0.03    -0.303    15.139
ATOM     27  H   UNL d   1      10.457  18.600   4.642 +0.02 -0.02    +0.222    15.139
ATOM     28  O   UNL d   1      11.294  13.776   1.500 -0.18 +0.00    -0.278    15.139
ATOM     29  P   UNL d   1      12.756  13.144   1.516 -0.09 -0.01    +0.473    15.139
ATOM     30  O   UNL d   1      13.759  13.871   2.336 -0.03 +0.01    -0.228    15.139
ATOM     31  O   UNL d   1      12.408  11.645   1.955 -0.10 -0.01    -0.303    15.139
ATOM     32  H   UNL d   1      11.718  11.677   2.659 +0.06 +0.01    +0.222    15.139
ATOM     33  O   UNL d   1      13.071  12.991  -0.037 -0.15 +0.02    -0.303    15.139
ATOM     34  H   UNL d   1      13.046  13.885  -0.460 +0.06 -0.02    +0.222    15.139
ATOM     35  O   UNL d   1       7.250  14.840   3.496 -0.21 -0.02    -0.278    15.139
ATOM     36  P   UNL d   1       6.179  15.135   4.642 -0.19 +0.03    +0.473    15.139
ATOM     37  O   UNL d   1       5.045  14.164   4.731 -0.32 -0.02    -0.228    15.139
ATOM     38  O   UNL d   1       7.099  15.190   5.941 -0.08 -0.04    -0.303    15.139
ATOM     39  H   UNL d   1       7.913  15.698   5.737 +0.06 +0.02    +0.222    15.139
ATOM     40  O   UNL d   1       5.806  16.658   4.373 -0.21 +0.02    -0.303    15.139
ATOM     41  H   UNL d   1       6.288  17.263   4.980 +0.09 -0.03    +0.222    15.139
ATOM     42  O   UNL d   1       9.458  12.939   3.552 -0.12 -0.05    -0.278    15.139
ATOM     43  P   UNL d   1       9.921  12.948   5.078 -0.08 +0.14    +0.473    15.139
ATOM     44  O   UNL d   1      11.087  13.802   5.437 -0.03 -0.03    -0.228    15.139
ATOM     45  O   UNL d   1       8.579  13.321   5.848 -0.10 -0.16    -0.303    15.139
ATOM     46  H   UNL d   1       7.891  13.644   5.232 +0.07 +0.09    +0.222    15.139
ATOM     47  O   UNL d   1      10.072  11.390   5.424 -0.12 -0.17    -0.303    15.139
ATOM     48  H   UNL d   1      10.974  11.222   5.767 +0.04 +0.08    +0.222    15.139
TER
ENDMDL
MODEL       83
USER    Run = 83
USER    Cluster Rank = 77
USER    Number of conformations in this cluster = 1
USER  
USER    RMSD from reference structure       = 18.842 A
USER  
USER    Estimated Free Energy of Binding    =   +3.92 kcal/mol  [=(1)+(2)+(3)-(4)]
USER    
USER    (1) Final Intermolecular Energy     =   -3.24 kcal/mol
USER        vdW + Hbond + desolv Energy     =   -3.25 kcal/mol
USER        Electrostatic Energy            =   +0.01 kcal/mol
USER    (2) Final Total Internal Energy     =  -13.65 kcal/mol
USER    (3) Torsional Free Energy           =   +7.16 kcal/mol
USER    (4) Unbound System's Energy  [=(2)] =  -13.65 kcal/mol
USER    
USER    
USER  
USER    DPF = D:/Protein_go_brrr/autodock/final/mut_K82N/IHP/dock.dpf
USER    NEWDPF move	IHP_ideal_opt.pdbqt
USER    NEWDPF about	0.035000 0.082000 -0.065000
USER    NEWDPF tran0	8.105043 14.584697 -13.901900
USER    NEWDPF axisangle0	0.008353 0.611178 -0.791449 145.759383
USER    NEWDPF quaternion0	0.007983 0.584095 -0.756379 0.294379
USER    NEWDPF dihe0	-99.43 -17.92 142.45 14.02 143.16 80.33 -108.94 28.30 14.99 104.82 50.61 70.01 90.49 -142.48 178.92 60.10 -78.79 -88.81 -30.74 3.08 17.22 151.37 178.10 -132.02 
USER  
USER                              x       y       z    vdW   Elec        q     RMS 
ATOM      1  C   UNL d   1       7.175  14.587 -12.446 -0.20 +0.01    +0.194    18.842
ATOM      2  C   UNL d   1       8.688  14.460 -12.263 -0.16 +0.01    +0.194    18.842
ATOM      3  C   UNL d   1       9.301  13.488 -13.273 -0.12 +0.02    +0.194    18.842
ATOM      4  C   UNL d   1       8.919  13.800 -14.718 -0.06 +0.02    +0.194    18.842
ATOM      5  C   UNL d   1       7.430  14.048 -14.926 -0.09 +0.02    +0.194    18.842
ATOM      6  C   UNL d   1       6.804  14.972 -13.879 -0.11 +0.00    +0.194    18.842
ATOM      7  O   UNL d   1       6.708  15.633 -11.590 -0.20 +0.03    -0.278    18.842
ATOM      8  P   UNL d   1       5.197  15.576 -11.077 -0.24 -0.09    +0.473    18.842
ATOM      9  O   UNL d   1       4.989  16.024  -9.673 -0.26 +0.08    -0.228    18.842
ATOM     10  O   UNL d   1       4.394  16.453 -12.141 -0.12 +0.06    -0.303    18.842
ATOM     11  H   UNL d   1       3.917  15.866 -12.756 +0.09 -0.04    +0.222    18.842
ATOM     12  O   UNL d   1       4.700  14.106 -11.417 -0.53 +0.01    -0.303    18.842
ATOM     13  H   UNL d   1       4.692  13.915 -12.382 +0.10 +0.01    +0.222    18.842
ATOM     14  O   UNL d   1       9.291  15.748 -12.446 -0.06 +0.00    -0.278    18.842
ATOM     15  P   UNL d   1      10.395  16.181 -11.370 -0.06 -0.01    +0.473    18.842
ATOM     16  O   UNL d   1       9.897  16.854 -10.130 -0.12 +0.01    -0.228    18.842
ATOM     17  O   UNL d   1      11.188  14.833 -11.065 -0.10 -0.01    -0.303    18.842
ATOM     18  H   UNL d   1      11.420  14.367 -11.891 +0.06 +0.00    +0.222    18.842
ATOM     19  O   UNL d   1      11.468  17.000 -12.211 -0.01 +0.01    -0.303    18.842
ATOM     20  H   UNL d   1      11.698  16.545 -13.043 +0.02 -0.01    +0.222    18.842
ATOM     21  O   UNL d   1       5.390  14.831 -13.997 -0.12 +0.01    -0.278    18.842
ATOM     22  P   UNL d   1       4.595  15.701 -15.072 -0.03 -0.08    +0.473    18.842
ATOM     23  O   UNL d   1       3.176  16.057 -14.779 -0.13 +0.09    -0.228    18.842
ATOM     24  O   UNL d   1       5.568  16.945 -15.268 -0.01 +0.04    -0.303    18.842
ATOM     25  H   UNL d   1       6.321  16.659 -15.845 +0.02 -0.02    +0.222    18.842
ATOM     26  O   UNL d   1       4.847  14.867 -16.418 -0.04 +0.04    -0.303    18.842
ATOM     27  H   UNL d   1       5.627  15.235 -16.882 +0.03 -0.02    +0.222    18.842
ATOM     28  O   UNL d   1      10.714  13.643 -13.215 -0.07 -0.02    -0.278    18.842
ATOM     29  P   UNL d   1      11.467  14.556 -14.280 +0.00 -0.00    +0.473    18.842
ATOM     30  O   UNL d   1      10.716  15.751 -14.745 -0.01 +0.01    -0.228    18.842
ATOM     31  O   UNL d   1      12.840  14.819 -13.502 -0.01 +0.01    -0.303    18.842
ATOM     32  H   UNL d   1      12.634  15.234 -12.632 +0.02 -0.01    +0.222    18.842
ATOM     33  O   UNL d   1      11.889  13.495 -15.390 -0.00 -0.00    -0.303    18.842
ATOM     34  H   UNL d   1      11.149  13.396 -16.037 +0.01 +0.00    +0.222    18.842
ATOM     35  O   UNL d   1       7.320  14.706 -16.186 -0.01 -0.00    -0.278    18.842
ATOM     36  P   UNL d   1       8.203  15.996 -16.501 +0.00 -0.02    +0.473    18.842
ATOM     37  O   UNL d   1       8.469  16.895 -15.335 -0.00 +0.01    -0.228    18.842
ATOM     38  O   UNL d   1       9.511  15.348 -17.139 +0.00 +0.01    -0.303    18.842
ATOM     39  H   UNL d   1       9.879  14.687 -16.514 +0.01 -0.00    +0.222    18.842
ATOM     40  O   UNL d   1       7.444  16.632 -17.745 -0.00 +0.02    -0.303    18.842
ATOM     41  H   UNL d   1       6.532  16.913 -17.511 +0.00 -0.02    +0.222    18.842
ATOM     42  O   UNL d   1       9.267  12.650 -15.496 -0.04 -0.04    -0.278    18.842
ATOM     43  P   UNL d   1       8.110  11.842 -16.239 -0.03 +0.18    +0.473    18.842
ATOM     44  O   UNL d   1       6.854  11.586 -15.479 -0.64 -0.21    -0.228    18.842
ATOM     45  O   UNL d   1       7.901  12.680 -17.576 -0.02 -0.04    -0.303    18.842
ATOM     46  H   UNL d   1       8.216  13.601 -17.474 +0.02 +0.01    +0.222    18.842
ATOM     47  O   UNL d   1       8.865  10.539 -16.786 -0.06 -0.12    -0.303    18.842
ATOM     48  H   UNL d   1       8.916  10.582 -17.764 +0.02 +0.05    +0.222    18.842
TER
ENDMDL
MODEL       52
USER    Run = 52
USER    Cluster Rank = 78
USER    Number of conformations in this cluster = 1
USER  
USER    RMSD from reference structure       = 17.330 A
USER  
USER    Estimated Free Energy of Binding    =   +3.99 kcal/mol  [=(1)+(2)+(3)-(4)]
USER    
USER    (1) Final Intermolecular Energy     =   -3.16 kcal/mol
USER        vdW + Hbond + desolv Energy     =   -3.23 kcal/mol
USER        Electrostatic Energy            =   +0.07 kcal/mol
USER    (2) Final Total Internal Energy     =  -13.66 kcal/mol
USER    (3) Torsional Free Energy           =   +7.16 kcal/mol
USER    (4) Unbound System's Energy  [=(2)] =  -13.66 kcal/mol
USER    
USER    
USER  
USER    DPF = D:/Protein_go_brrr/autodock/final/mut_K82N/IHP/dock.dpf
USER    NEWDPF move	IHP_ideal_opt.pdbqt
USER    NEWDPF about	0.035000 0.082000 -0.065000
USER    NEWDPF tran0	11.040133 -18.515719 3.199603
USER    NEWDPF axisangle0	-0.053223 -0.858812 -0.509520 -100.534553
USER    NEWDPF quaternion0	-0.040930 -0.660456 -0.391838 -0.639207
USER    NEWDPF dihe0	153.48 -28.86 159.48 -8.00 -1.48 98.14 -65.23 10.86 82.79 -41.08 -132.58 -174.67 71.03 -179.02 178.03 145.14 179.91 159.52 46.52 10.21 -180.00 27.74 20.19 180.00 
USER  
USER                              x       y       z    vdW   Elec        q     RMS 
ATOM      1  C   UNL d   1       9.680 -19.237   3.983 -0.09 +0.02    +0.194    17.330
ATOM      2  C   UNL d   1       9.757 -19.444   2.469 -0.10 +0.02    +0.194    17.330
ATOM      3  C   UNL d   1      10.159 -18.159   1.741 -0.10 +0.02    +0.194    17.330
ATOM      4  C   UNL d   1      11.427 -17.521   2.303 -0.04 +0.03    +0.194    17.330
ATOM      5  C   UNL d   1      11.441 -17.400   3.821 -0.05 +0.04    +0.194    17.330
ATOM      6  C   UNL d   1      10.981 -18.666   4.548 -0.04 +0.03    +0.194    17.330
ATOM      7  O   UNL d   1       9.472 -20.511   4.597 -0.03 -0.01    -0.278    17.330
ATOM      8  P   UNL d   1       8.014 -21.160   4.525 -0.05 +0.01    +0.473    17.330
ATOM      9  O   UNL d   1       7.954 -22.508   3.897 -0.03 +0.00    -0.228    17.330
ATOM     10  O   UNL d   1       7.511 -21.150   6.038 -0.05 +0.00    -0.303    17.330
ATOM     11  H   UNL d   1       8.225 -20.826   6.618 +0.06 -0.00    +0.222    17.330
ATOM     12  O   UNL d   1       7.098 -20.044   3.862 -0.11 -0.03    -0.303    17.330
ATOM     13  H   UNL d   1       6.891 -19.302   4.473 +0.08 +0.03    +0.222    17.330
ATOM     14  O   UNL d   1      10.734 -20.454   2.185 -0.02 -0.01    -0.278    17.330
ATOM     15  P   UNL d   1      10.390 -21.468   0.995 -0.02 +0.00    +0.473    17.330
ATOM     16  O   UNL d   1      10.392 -22.926   1.334 -0.01 +0.00    -0.228    17.330
ATOM     17  O   UNL d   1       8.981 -20.963   0.451 -0.12 +0.00    -0.303    17.330
ATOM     18  H   UNL d   1       9.051 -20.064   0.075 +0.02 +0.00    +0.222    17.330
ATOM     19  O   UNL d   1      11.363 -21.038  -0.187 -0.01 -0.00    -0.303    17.330
ATOM     20  H   UNL d   1      11.132 -20.160  -0.542 +0.02 +0.00    +0.222    17.330
ATOM     21  O   UNL d   1      10.723 -18.294   5.900 -0.05 -0.05    -0.278    17.330
ATOM     22  P   UNL d   1       9.373 -17.526   6.265 -0.21 +0.14    +0.473    17.330
ATOM     23  O   UNL d   1       9.378 -16.613   7.445 -0.30 -0.06    -0.228    17.330
ATOM     24  O   UNL d   1       9.011 -16.827   4.882 -0.47 -0.14    -0.303    17.330
ATOM     25  H   UNL d   1       9.695 -16.135   4.698 +0.03 +0.21    +0.222    17.330
ATOM     26  O   UNL d   1       8.316 -18.731   6.314 -0.20 -0.01    -0.303    17.330
ATOM     27  H   UNL d   1       8.096 -19.003   5.400 +0.09 +0.02    +0.222    17.330
ATOM     28  O   UNL d   1      10.473 -18.508   0.399 -0.07 -0.02    -0.278    17.330
ATOM     29  P   UNL d   1       9.991 -17.585  -0.806 -0.06 +0.04    +0.473    17.330
ATOM     30  O   UNL d   1      11.074 -17.006  -1.642 -0.02 -0.01    -0.228    17.330
ATOM     31  O   UNL d   1       8.968 -18.581  -1.529 -0.05 -0.02    -0.303    17.330
ATOM     32  H   UNL d   1       9.107 -19.488  -1.170 +0.03 +0.01    +0.222    17.330
ATOM     33  O   UNL d   1       9.022 -16.557  -0.072 -0.12 -0.05    -0.303    17.330
ATOM     34  H   UNL d   1       9.563 -15.956   0.497 +0.06 +0.04    +0.222    17.330
ATOM     35  O   UNL d   1      12.805 -17.183   4.179 -0.01 -0.05    -0.278    17.330
ATOM     36  P   UNL d   1      13.169 -16.349   5.489 -0.02 +0.12    +0.473    17.330
ATOM     37  O   UNL d   1      14.264 -15.342   5.328 -0.01 -0.04    -0.228    17.330
ATOM     38  O   UNL d   1      11.758 -15.724   5.881 -0.28 -0.30    -0.303    17.330
ATOM     39  H   UNL d   1      11.054 -16.170   5.363 +0.05 +0.20    +0.222    17.330
ATOM     40  O   UNL d   1      13.394 -17.494   6.569 -0.00 -0.04    -0.303    17.330
ATOM     41  H   UNL d   1      12.545 -17.800   6.958 +0.03 +0.03    +0.222    17.330
ATOM     42  O   UNL d   1      11.492 -16.193   1.773 -0.03 -0.04    -0.278    17.330
ATOM     43  P   UNL d   1      10.423 -15.115   2.263 -0.11 +0.14    +0.473    17.330
ATOM     44  O   UNL d   1      10.122 -13.980   1.346 -0.12 -0.05    -0.228    17.330
ATOM     45  O   UNL d   1       9.159 -16.014   2.621 -0.22 -0.09    -0.303    17.330
ATOM     46  H   UNL d   1       8.589 -15.581   3.288 -0.49 +0.05    +0.222    17.330
ATOM     47  O   UNL d   1      10.955 -14.706   3.719 -0.01 -0.22    -0.303    17.330
ATOM     48  H   UNL d   1      11.807 -15.158   3.889 +0.04 +0.11    +0.222    17.330
TER
ENDMDL
MODEL       43
USER    Run = 43
USER    Cluster Rank = 79
USER    Number of conformations in this cluster = 1
USER  
USER    RMSD from reference structure       = 15.692 A
USER  
USER    Estimated Free Energy of Binding    =   +4.06 kcal/mol  [=(1)+(2)+(3)-(4)]
USER    
USER    (1) Final Intermolecular Energy     =   -3.09 kcal/mol
USER        vdW + Hbond + desolv Energy     =   -3.05 kcal/mol
USER        Electrostatic Energy            =   -0.04 kcal/mol
USER    (2) Final Total Internal Energy     =  -14.61 kcal/mol
USER    (3) Torsional Free Energy           =   +7.16 kcal/mol
USER    (4) Unbound System's Energy  [=(2)] =  -14.61 kcal/mol
USER    
USER    
USER  
USER    DPF = D:/Protein_go_brrr/autodock/final/mut_K82N/IHP/dock.dpf
USER    NEWDPF move	IHP_ideal_opt.pdbqt
USER    NEWDPF about	0.035000 0.082000 -0.065000
USER    NEWDPF tran0	-11.533047 -15.472726 5.272299
USER    NEWDPF axisangle0	0.418886 0.178194 -0.890383 -128.328077
USER    NEWDPF quaternion0	0.377016 0.160383 -0.801385 -0.435796
USER    NEWDPF dihe0	-165.24 27.46 95.11 99.36 -66.04 -180.00 -108.79 8.64 7.22 -22.66 6.28 146.33 23.63 -49.64 179.92 56.01 -120.19 -145.02 -129.92 -20.55 180.00 162.15 140.34 -50.05 
USER  
USER                              x       y       z    vdW   Elec        q     RMS 
ATOM      1  C   UNL d   1     -13.049 -16.155   4.802 -0.02 -0.02    +0.194    15.692
ATOM      2  C   UNL d   1     -13.117 -14.760   5.428 -0.03 -0.02    +0.194    15.692
ATOM      3  C   UNL d   1     -12.202 -14.642   6.648 -0.02 -0.02    +0.194    15.692
ATOM      4  C   UNL d   1     -10.766 -15.079   6.368 -0.06 -0.03    +0.194    15.692
ATOM      5  C   UNL d   1     -10.654 -16.413   5.640 -0.03 -0.03    +0.194    15.692
ATOM      6  C   UNL d   1     -11.614 -16.555   4.457 -0.04 -0.02    +0.194    15.692
ATOM      7  O   UNL d   1     -13.790 -16.132   3.580 -0.01 +0.02    -0.278    15.692
ATOM      8  P   UNL d   1     -12.984 -16.175   2.202 -0.04 -0.03    +0.473    15.692
ATOM      9  O   UNL d   1     -12.424 -17.505   1.839 -0.01 +0.02    -0.228    15.692
ATOM     10  O   UNL d   1     -14.023 -15.617   1.128 -0.03 +0.02    -0.303    15.692
ATOM     11  H   UNL d   1     -14.556 -14.905   1.528 +0.01 -0.01    +0.222    15.692
ATOM     12  O   UNL d   1     -11.935 -14.985   2.299 -0.20 +0.00    -0.303    15.692
ATOM     13  H   UNL d   1     -12.163 -14.327   2.994 +0.03 +0.01    +0.222    15.692
ATOM     14  O   UNL d   1     -12.708 -13.791   4.455 -0.12 +0.03    -0.278    15.692
ATOM     15  P   UNL d   1     -13.846 -12.809   3.901 -0.05 -0.04    +0.473    15.692
ATOM     16  O   UNL d   1     -15.191 -12.907   4.549 -0.01 +0.02    -0.228    15.692
ATOM     17  O   UNL d   1     -13.202 -11.358   4.031 -0.09 +0.05    -0.303    15.692
ATOM     18  H   UNL d   1     -12.304 -11.404   4.413 +0.04 -0.04    +0.222    15.692
ATOM     19  O   UNL d   1     -13.826 -13.027   2.326 -0.52 -0.00    -0.303    15.692
ATOM     20  H   UNL d   1     -13.698 -13.965   2.093 +0.02 +0.01    +0.222    15.692
ATOM     21  O   UNL d   1     -11.638 -17.938   4.110 -0.01 +0.03    -0.278    15.692
ATOM     22  P   UNL d   1     -12.486 -18.961   4.992 +0.00 -0.03    +0.473    15.692
ATOM     23  O   UNL d   1     -12.011 -20.372   5.086 +0.00 +0.02    -0.228    15.692
ATOM     24  O   UNL d   1     -12.578 -18.194   6.383 +0.00 +0.02    -0.303    15.692
ATOM     25  H   UNL d   1     -12.341 -18.832   7.103 +0.00 -0.02    +0.222    15.692
ATOM     26  O   UNL d   1     -13.962 -18.754   4.401 +0.00 +0.02    -0.303    15.692
ATOM     27  H   UNL d   1     -13.918 -18.154   3.629 +0.00 -0.01    +0.222    15.692
ATOM     28  O   UNL d   1     -12.117 -13.264   6.988 -0.03 +0.04    -0.278    15.692
ATOM     29  P   UNL d   1     -11.023 -12.332   6.301 -0.09 -0.08    +0.473    15.692
ATOM     30  O   UNL d   1     -10.631 -12.715   4.920 -0.26 +0.07    -0.228    15.692
ATOM     31  O   UNL d   1     -11.717 -10.902   6.488 -0.07 +0.05    -0.303    15.692
ATOM     32  H   UNL d   1     -12.607 -10.927   6.066 +0.04 -0.04    +0.222    15.692
ATOM     33  O   UNL d   1      -9.868 -12.308   7.397 -0.11 +0.05    -0.303    15.692
ATOM     34  H   UNL d   1      -9.467 -13.210   7.460 +0.03 -0.04    +0.222    15.692
ATOM     35  O   UNL d   1      -9.330 -16.457   5.114 -0.05 +0.06    -0.278    15.692
ATOM     36  P   UNL d   1      -9.019 -15.866   3.666 -0.11 -0.11    +0.473    15.692
ATOM     37  O   UNL d   1      -9.462 -16.713   2.515 -0.10 +0.03    -0.228    15.692
ATOM     38  O   UNL d   1      -9.724 -14.440   3.738 -0.11 +0.11    -0.303    15.692
ATOM     39  H   UNL d   1     -10.689 -14.565   3.863 +0.03 -0.05    +0.222    15.692
ATOM     40  O   UNL d   1      -7.467 -15.531   3.761 -0.18 +0.11    -0.303    15.692
ATOM     41  H   UNL d   1      -7.286 -14.830   4.426 -0.46 -0.15    +0.222    15.692
ATOM     42  O   UNL d   1     -10.125 -15.238   7.638 -0.02 +0.04    -0.278    15.692
ATOM     43  P   UNL d   1      -8.532 -15.242   7.703 -0.02 -0.08    +0.473    15.692
ATOM     44  O   UNL d   1      -7.851 -16.565   7.779 -0.01 +0.03    -0.228    15.692
ATOM     45  O   UNL d   1      -8.128 -14.375   6.431 +0.03 +0.13    -0.303    15.692
ATOM     46  H   UNL d   1      -8.368 -14.829   5.598 -0.42 -0.11    +0.222    15.692
ATOM     47  O   UNL d   1      -8.211 -14.229   8.903 -0.02 +0.04    -0.303    15.692
ATOM     48  H   UNL d   1      -8.876 -13.510   8.904 +0.03 -0.03    +0.222    15.692
TER
ENDMDL
MODEL       77
USER    Run = 77
USER    Cluster Rank = 80
USER    Number of conformations in this cluster = 1
USER  
USER    RMSD from reference structure       = 19.544 A
USER  
USER    Estimated Free Energy of Binding    =   +4.13 kcal/mol  [=(1)+(2)+(3)-(4)]
USER    
USER    (1) Final Intermolecular Energy     =   -3.02 kcal/mol
USER        vdW + Hbond + desolv Energy     =   -2.44 kcal/mol
USER        Electrostatic Energy            =   -0.58 kcal/mol
USER    (2) Final Total Internal Energy     =  -15.74 kcal/mol
USER    (3) Torsional Free Energy           =   +7.16 kcal/mol
USER    (4) Unbound System's Energy  [=(2)] =  -15.74 kcal/mol
USER    
USER    
USER  
USER    DPF = D:/Protein_go_brrr/autodock/final/mut_K82N/IHP/dock.dpf
USER    NEWDPF move	IHP_ideal_opt.pdbqt
USER    NEWDPF about	0.035000 0.082000 -0.065000
USER    NEWDPF tran0	12.413258 6.095954 -17.163454
USER    NEWDPF axisangle0	0.248290 0.967315 0.051515 164.468318
USER    NEWDPF quaternion0	0.246013 0.958443 0.051042 0.135125
USER    NEWDPF dihe0	66.24 117.83 168.65 -22.54 68.86 154.85 3.46 -110.96 111.84 82.77 20.61 -119.96 -82.16 32.88 69.98 -120.40 114.32 -54.72 -145.71 -26.86 23.70 26.95 -29.65 171.78 
USER  
USER                              x       y       z    vdW   Elec        q     RMS 
ATOM      1  C   UNL d   1      10.742   6.024 -17.593 +0.00 -0.01    +0.194    19.544
ATOM      2  C   UNL d   1      11.489   4.689 -17.619 +0.01 -0.03    +0.194    19.544
ATOM      3  C   UNL d   1      12.871   4.826 -18.263 +0.00 -0.02    +0.194    19.544
ATOM      4  C   UNL d   1      13.710   5.946 -17.653 +0.00 -0.02    +0.194    19.544
ATOM      5  C   UNL d   1      12.966   7.267 -17.502 +0.01 -0.01    +0.194    19.544
ATOM      6  C   UNL d   1      11.561   7.123 -16.915 +0.00 -0.00    +0.194    19.544
ATOM      7  O   UNL d   1       9.546   5.850 -16.829 -0.04 +0.01    -0.278    19.544
ATOM      8  P   UNL d   1       9.593   6.164 -15.264 -0.06 -0.00    +0.473    19.544
ATOM      9  O   UNL d   1      10.909   5.921 -14.611 -0.04 +0.05    -0.228    19.544
ATOM     10  O   UNL d   1       9.110   7.681 -15.158 -0.52 -0.24    -0.303    19.544
ATOM     11  H   UNL d   1       9.884   8.273 -15.194 +0.04 +0.09    +0.222    19.544
ATOM     12  O   UNL d   1       8.357   5.378 -14.647 -0.53 +0.11    -0.303    19.544
ATOM     13  H   UNL d   1       8.494   4.404 -14.620 -0.48 -0.50    +0.222    19.544
ATOM     14  O   UNL d   1      11.656   4.221 -16.275 -0.01 +0.08    -0.278    19.544
ATOM     15  P   UNL d   1      10.706   3.018 -15.813 +0.00 -0.32    +0.473    19.544
ATOM     16  O   UNL d   1      11.203   1.630 -16.075 -0.03 +0.11    -0.228    19.544
ATOM     17  O   UNL d   1      10.447   3.300 -14.267 +0.02 +0.37    -0.303    19.544
ATOM     18  H   UNL d   1       9.842   4.057 -14.144 -0.44 -0.35    +0.222    19.544
ATOM     19  O   UNL d   1       9.288   3.368 -16.444 -0.06 +0.25    -0.303    19.544
ATOM     20  H   UNL d   1       8.796   4.005 -15.893 -0.29 -0.25    +0.222    19.544
ATOM     21  O   UNL d   1      10.885   8.355 -17.154 -0.01 -0.02    -0.278    19.544
ATOM     22  P   UNL d   1      11.181   9.614 -16.220 +0.00 +0.05    +0.473    19.544
ATOM     23  O   UNL d   1      12.113  10.664 -16.725 -0.00 -0.01    -0.228    19.544
ATOM     24  O   UNL d   1       9.711  10.129 -15.893 -0.08 -0.11    -0.303    19.544
ATOM     25  H   UNL d   1       9.065   9.507 -16.316 +0.03 +0.14    +0.222    19.544
ATOM     26  O   UNL d   1      11.598   8.907 -14.843 -0.02 -0.02    -0.303    19.544
ATOM     27  H   UNL d   1      11.273   7.984 -14.844 +0.04 +0.01    +0.222    19.544
ATOM     28  O   UNL d   1      13.588   3.628 -17.996 +0.00 +0.04    -0.278    19.544
ATOM     29  P   UNL d   1      14.465   2.944 -19.136 +0.00 -0.05    +0.473    19.544
ATOM     30  O   UNL d   1      14.523   1.460 -19.096 +0.00 +0.03    -0.228    19.544
ATOM     31  O   UNL d   1      13.806   3.611 -20.433 +0.00 +0.03    -0.303    19.544
ATOM     32  H   UNL d   1      13.842   4.591 -20.334 +0.00 -0.02    +0.222    19.544
ATOM     33  O   UNL d   1      15.849   3.722 -19.004 +0.00 +0.03    -0.303    19.544
ATOM     34  H   UNL d   1      15.674   4.694 -19.028 +0.00 -0.02    +0.222    19.544
ATOM     35  O   UNL d   1      13.730   8.037 -16.576 +0.00 +0.01    -0.278    19.544
ATOM     36  P   UNL d   1      14.705   9.187 -17.098 +0.00 -0.02    +0.473    19.544
ATOM     37  O   UNL d   1      15.064  10.234 -16.092 +0.00 +0.01    -0.228    19.544
ATOM     38  O   UNL d   1      15.944   8.345 -17.637 +0.00 +0.02    -0.303    19.544
ATOM     39  H   UNL d   1      15.611   7.559 -18.122 +0.00 -0.01    +0.222    19.544
ATOM     40  O   UNL d   1      13.972   9.679 -18.421 +0.00 +0.01    -0.303    19.544
ATOM     41  H   UNL d   1      12.998   9.736 -18.298 +0.00 -0.01    +0.222    19.544
ATOM     42  O   UNL d   1      14.804   6.179 -18.547 +0.00 +0.02    -0.278    19.544
ATOM     43  P   UNL d   1      14.493   6.638 -20.042 +0.00 -0.03    +0.473    19.544
ATOM     44  O   UNL d   1      13.073   6.604 -20.490 +0.00 +0.02    -0.228    19.544
ATOM     45  O   UNL d   1      15.163   8.080 -20.110 +0.00 +0.02    -0.303    19.544
ATOM     46  H   UNL d   1      14.857   8.652 -19.378 +0.00 -0.01    +0.222    19.544
ATOM     47  O   UNL d   1      15.515   5.763 -20.914 +0.00 +0.02    -0.303    19.544
ATOM     48  H   UNL d   1      15.342   4.812 -20.755 +0.00 -0.02    +0.222    19.544
TER
ENDMDL
MODEL       41
USER    Run = 41
USER    Cluster Rank = 81
USER    Number of conformations in this cluster = 1
USER  
USER    RMSD from reference structure       = 15.410 A
USER  
USER    Estimated Free Energy of Binding    =   +4.18 kcal/mol  [=(1)+(2)+(3)-(4)]
USER    
USER    (1) Final Intermolecular Energy     =   -2.98 kcal/mol
USER        vdW + Hbond + desolv Energy     =   -2.92 kcal/mol
USER        Electrostatic Energy            =   -0.06 kcal/mol
USER    (2) Final Total Internal Energy     =  -14.15 kcal/mol
USER    (3) Torsional Free Energy           =   +7.16 kcal/mol
USER    (4) Unbound System's Energy  [=(2)] =  -14.15 kcal/mol
USER    
USER    
USER  
USER    DPF = D:/Protein_go_brrr/autodock/final/mut_K82N/IHP/dock.dpf
USER    NEWDPF move	IHP_ideal_opt.pdbqt
USER    NEWDPF about	0.035000 0.082000 -0.065000
USER    NEWDPF tran0	-12.163884 -13.882636 -5.244452
USER    NEWDPF axisangle0	-0.504957 -0.585582 0.634123 -117.557160
USER    NEWDPF quaternion0	-0.431824 -0.500773 0.542283 -0.518347
USER    NEWDPF dihe0	18.21 113.70 52.81 74.33 5.08 -172.58 -99.69 -7.88 17.18 95.70 161.30 172.86 -46.98 -81.54 177.96 43.83 -13.30 34.07 -165.28 -1.26 -2.36 -14.44 -23.38 5.43 
USER  
USER                              x       y       z    vdW   Elec        q     RMS 
ATOM      1  C   UNL d   1     -12.942 -12.746  -4.202 -0.02 -0.02    +0.194    15.410
ATOM      2  C   UNL d   1     -12.362 -13.984  -3.515 -0.04 -0.02    +0.194    15.410
ATOM      3  C   UNL d   1     -12.658 -15.261  -4.303 -0.02 -0.01    +0.194    15.410
ATOM      4  C   UNL d   1     -12.249 -15.170  -5.771 -0.03 -0.01    +0.194    15.410
ATOM      5  C   UNL d   1     -12.710 -13.896  -6.466 -0.02 -0.01    +0.194    15.410
ATOM      6  C   UNL d   1     -12.469 -12.624  -5.651 -0.05 -0.02    +0.194    15.410
ATOM      7  O   UNL d   1     -12.478 -11.589  -3.502 -0.04 +0.04    -0.278    15.410
ATOM      8  P   UNL d   1     -10.945 -11.170  -3.661 -0.10 -0.09    +0.473    15.410
ATOM      9  O   UNL d   1     -10.164 -11.988  -4.629 -0.22 +0.05    -0.228    15.410
ATOM     10  O   UNL d   1     -11.004  -9.624  -4.050 -0.19 +0.07    -0.303    15.410
ATOM     11  H   UNL d   1     -10.337  -9.434  -4.736 -0.17 -0.07    +0.222    15.410
ATOM     12  O   UNL d   1     -10.375 -11.118  -2.179 -0.28 +0.09    -0.303    15.410
ATOM     13  H   UNL d   1     -10.318 -12.005  -1.756 +0.05 -0.06    +0.222    15.410
ATOM     14  O   UNL d   1     -10.941 -13.834  -3.406 -0.12 +0.02    -0.278    15.410
ATOM     15  P   UNL d   1     -10.300 -14.104  -1.964 -0.15 -0.03    +0.473    15.410
ATOM     16  O   UNL d   1     -11.194 -13.893  -0.782 +0.02 +0.03    -0.228    15.410
ATOM     17  O   UNL d   1      -9.745 -15.595  -2.059 -0.68 -0.07    -0.303    15.410
ATOM     18  H   UNL d   1     -10.385 -16.180  -2.508 +0.05 +0.03    +0.222    15.410
ATOM     19  O   UNL d   1      -8.952 -13.261  -1.963 -0.31 +0.08    -0.303    15.410
ATOM     20  H   UNL d   1      -8.930 -12.617  -2.695 -0.37 -0.11    +0.222    15.410
ATOM     21  O   UNL d   1     -13.243 -11.592  -6.258 -0.01 +0.03    -0.278    15.410
ATOM     22  P   UNL d   1     -12.523 -10.479  -7.145 -0.05 -0.08    +0.473    15.410
ATOM     23  O   UNL d   1     -13.154  -9.130  -7.233 -0.07 +0.03    -0.228    15.410
ATOM     24  O   UNL d   1     -11.049 -10.488  -6.544 -0.16 +0.10    -0.303    15.410
ATOM     25  H   UNL d   1     -11.104 -10.238  -5.587 +0.04 -0.06    +0.222    15.410
ATOM     26  O   UNL d   1     -12.319 -11.252  -8.534 -0.05 +0.05    -0.303    15.410
ATOM     27  H   UNL d   1     -12.859 -12.068  -8.531 +0.03 -0.03    +0.222    15.410
ATOM     28  O   UNL d   1     -11.859 -16.300  -3.752 -0.03 +0.00    -0.278    15.410
ATOM     29  P   UNL d   1     -12.466 -17.291  -2.663 +0.00 -0.02    +0.473    15.410
ATOM     30  O   UNL d   1     -13.950 -17.327  -2.587 +0.00 +0.01    -0.228    15.410
ATOM     31  O   UNL d   1     -11.727 -18.648  -3.077 -0.00 +0.01    -0.303    15.410
ATOM     32  H   UNL d   1     -11.812 -18.767  -4.051 +0.01 -0.01    +0.222    15.410
ATOM     33  O   UNL d   1     -11.688 -16.855  -1.344 -0.02 +0.01    -0.303    15.410
ATOM     34  H   UNL d   1     -11.765 -15.875  -1.235 +0.04 -0.01    +0.222    15.410
ATOM     35  O   UNL d   1     -11.919 -13.792  -7.649 -0.03 +0.02    -0.278    15.410
ATOM     36  P   UNL d   1     -12.568 -14.076  -9.078 +0.01 -0.03    +0.473    15.410
ATOM     37  O   UNL d   1     -14.019 -13.736  -9.207 -0.00 +0.02    -0.228    15.410
ATOM     38  O   UNL d   1     -11.612 -13.243 -10.041 -0.02 +0.03    -0.303    15.410
ATOM     39  H   UNL d   1     -11.552 -12.320  -9.714 +0.05 -0.03    +0.222    15.410
ATOM     40  O   UNL d   1     -12.155 -15.589  -9.344 -0.00 +0.01    -0.303    15.410
ATOM     41  H   UNL d   1     -12.429 -16.177  -8.605 +0.01 -0.01    +0.222    15.410
ATOM     42  O   UNL d   1     -12.876 -16.267  -6.445 -0.00 +0.01    -0.278    15.410
ATOM     43  P   UNL d   1     -11.984 -17.516  -6.881 +0.01 -0.01    +0.473    15.410
ATOM     44  O   UNL d   1     -11.647 -18.518  -5.833 -0.01 +0.01    -0.228    15.410
ATOM     45  O   UNL d   1     -12.795 -18.111  -8.114 +0.00 +0.01    -0.303    15.410
ATOM     46  H   UNL d   1     -12.527 -17.690  -8.955 +0.00 -0.01    +0.222    15.410
ATOM     47  O   UNL d   1     -10.732 -16.833  -7.614 -0.02 +0.00    -0.303    15.410
ATOM     48  H   UNL d   1     -10.902 -15.874  -7.717 +0.03 -0.00    +0.222    15.410
TER
ENDMDL
MODEL       23
USER    Run = 23
USER    Cluster Rank = 82
USER    Number of conformations in this cluster = 1
USER  
USER    RMSD from reference structure       = 16.129 A
USER  
USER    Estimated Free Energy of Binding    =   +4.44 kcal/mol  [=(1)+(2)+(3)-(4)]
USER    
USER    (1) Final Intermolecular Energy     =   -2.71 kcal/mol
USER        vdW + Hbond + desolv Energy     =   -2.75 kcal/mol
USER        Electrostatic Energy            =   +0.03 kcal/mol
USER    (2) Final Total Internal Energy     =  -15.68 kcal/mol
USER    (3) Torsional Free Energy           =   +7.16 kcal/mol
USER    (4) Unbound System's Energy  [=(2)] =  -15.68 kcal/mol
USER    
USER    
USER  
USER    DPF = D:/Protein_go_brrr/autodock/final/mut_K82N/IHP/dock.dpf
USER    NEWDPF move	IHP_ideal_opt.pdbqt
USER    NEWDPF about	0.035000 0.082000 -0.065000
USER    NEWDPF tran0	16.340004 -6.059366 9.739150
USER    NEWDPF axisangle0	-0.317807 0.122620 0.940193 125.201102
USER    NEWDPF quaternion0	-0.282155 0.108865 0.834722 0.460191
USER    NEWDPF dihe0	95.71 119.97 144.77 26.03 123.45 149.04 -6.04 -120.79 29.68 21.00 99.28 148.32 -74.44 28.74 39.00 -79.29 146.95 -141.97 -148.42 -20.78 169.54 25.21 -8.04 -10.50 
USER  
USER                              x       y       z    vdW   Elec        q     RMS 
ATOM      1  C   UNL d   1      14.738  -6.670   9.529 -0.24 -0.00    +0.194    16.129
ATOM      2  C   UNL d   1      14.901  -5.161   9.335 -0.25 -0.00    +0.194    16.129
ATOM      3  C   UNL d   1      15.800  -4.546  10.409 -0.19 -0.00    +0.194    16.129
ATOM      4  C   UNL d   1      17.143  -5.259  10.550 -0.08 +0.00    +0.194    16.129
ATOM      5  C   UNL d   1      17.035  -6.776  10.630 -0.09 +0.00    +0.194    16.129
ATOM      6  C   UNL d   1      16.088  -7.385   9.595 -0.11 +0.00    +0.194    16.129
ATOM      7  O   UNL d   1      14.034  -7.191   8.399 -0.10 -0.01    -0.278    16.129
ATOM      8  P   UNL d   1      14.881  -7.663   7.129 -0.04 +0.02    +0.473    16.129
ATOM      9  O   UNL d   1      16.233  -7.052   7.009 -0.03 -0.00    -0.228    16.129
ATOM     10  O   UNL d   1      14.920  -9.252   7.259 -0.05 -0.01    -0.303    16.129
ATOM     11  H   UNL d   1      15.379  -9.502   8.082 +0.04 +0.01    +0.222    16.129
ATOM     12  O   UNL d   1      13.913  -7.454   5.886 -0.11 -0.02    -0.303    16.129
ATOM     13  H   UNL d   1      13.812  -6.510   5.631 +0.08 +0.02    +0.222    16.129
ATOM     14  O   UNL d   1      15.490  -4.916   8.052 -0.07 -0.00    -0.278    16.129
ATOM     15  P   UNL d   1      14.549  -4.231   6.952 -0.13 +0.03    +0.473    16.129
ATOM     16  O   UNL d   1      14.447  -2.739   6.989 -0.10 -0.01    -0.228    16.129
ATOM     17  O   UNL d   1      15.112  -4.777   5.565 -0.04 -0.01    -0.303    16.129
ATOM     18  H   UNL d   1      15.221  -5.747   5.588 +0.05 +0.01    +0.222    16.129
ATOM     19  O   UNL d   1      13.169  -5.015   7.066 -0.30 -0.04    -0.303    16.129
ATOM     20  H   UNL d   1      13.305  -5.952   7.298 +0.10 +0.02    +0.222    16.129
ATOM     21  O   UNL d   1      15.831  -8.725  10.010 -0.07 -0.00    -0.278    16.129
ATOM     22  P   UNL d   1      15.004  -8.995  11.347 -0.19 +0.00    +0.473    16.129
ATOM     23  O   UNL d   1      13.552  -8.653  11.360 -0.25 +0.02    -0.228    16.129
ATOM     24  O   UNL d   1      15.331 -10.527  11.628 -0.07 -0.00    -0.303    16.129
ATOM     25  H   UNL d   1      16.315 -10.625  11.698 +0.04 +0.00    +0.222    16.129
ATOM     26  O   UNL d   1      15.910  -8.257  12.445 -0.17 -0.02    -0.303    16.129
ATOM     27  H   UNL d   1      16.834  -8.215  12.124 +0.05 +0.01    +0.222    16.129
ATOM     28  O   UNL d   1      16.117  -3.223   9.997 -0.10 +0.01    -0.278    16.129
ATOM     29  P   UNL d   1      16.061  -2.020  11.040 -0.10 -0.04    +0.473    16.129
ATOM     30  O   UNL d   1      14.896  -1.109  10.905 -0.06 +0.06    -0.228    16.129
ATOM     31  O   UNL d   1      16.192  -2.834  12.411 -0.12 -0.00    -0.303    16.129
ATOM     32  H   UNL d   1      16.914  -3.496  12.315 +0.04 +0.01    +0.222    16.129
ATOM     33  O   UNL d   1      17.505  -1.370  10.877 -0.02 +0.01    -0.303    16.129
ATOM     34  H   UNL d   1      18.189  -2.039  11.126 +0.02 -0.00    +0.222    16.129
ATOM     35  O   UNL d   1      18.342  -7.273  10.347 -0.01 -0.00    -0.278    16.129
ATOM     36  P   UNL d   1      19.094  -8.205  11.400 -0.00 -0.00    +0.473    16.129
ATOM     37  O   UNL d   1      20.543  -8.450  11.126 -0.00 +0.00    -0.228    16.129
ATOM     38  O   UNL d   1      18.806  -7.447  12.771 -0.02 -0.00    -0.303    16.129
ATOM     39  H   UNL d   1      18.883  -6.480  12.625 +0.02 +0.00    +0.222    16.129
ATOM     40  O   UNL d   1      18.146  -9.481  11.462 -0.01 +0.00    -0.303    16.129
ATOM     41  H   UNL d   1      17.238  -9.276  11.146 +0.03 +0.00    +0.222    16.129
ATOM     42  O   UNL d   1      17.723  -4.812  11.780 -0.07 -0.01    -0.278    16.129
ATOM     43  P   UNL d   1      19.152  -4.104  11.746 -0.02 +0.00    +0.473    16.129
ATOM     44  O   UNL d   1      20.345  -4.952  12.025 -0.01 +0.00    -0.228    16.129
ATOM     45  O   UNL d   1      19.166  -3.412  10.314 -0.00 +0.00    -0.303    16.129
ATOM     46  H   UNL d   1      18.260  -3.215  10.003 +0.02 -0.00    +0.222    16.129
ATOM     47  O   UNL d   1      18.959  -2.842  12.716 -0.02 -0.00    -0.303    16.129
ATOM     48  H   UNL d   1      18.036  -2.522  12.649 +0.03 +0.00    +0.222    16.129
TER
ENDMDL
MODEL       42
USER    Run = 42
USER    Cluster Rank = 83
USER    Number of conformations in this cluster = 1
USER  
USER    RMSD from reference structure       = 22.282 A
USER  
USER    Estimated Free Energy of Binding    =   +4.52 kcal/mol  [=(1)+(2)+(3)-(4)]
USER    
USER    (1) Final Intermolecular Energy     =   -2.64 kcal/mol
USER        vdW + Hbond + desolv Energy     =   -2.28 kcal/mol
USER        Electrostatic Energy            =   -0.37 kcal/mol
USER    (2) Final Total Internal Energy     =  -13.57 kcal/mol
USER    (3) Torsional Free Energy           =   +7.16 kcal/mol
USER    (4) Unbound System's Energy  [=(2)] =  -13.57 kcal/mol
USER    
USER    
USER  
USER    DPF = D:/Protein_go_brrr/autodock/final/mut_K82N/IHP/dock.dpf
USER    NEWDPF move	IHP_ideal_opt.pdbqt
USER    NEWDPF about	0.035000 0.082000 -0.065000
USER    NEWDPF tran0	-10.939260 0.343734 -22.632136
USER    NEWDPF axisangle0	-0.054785 -0.023355 0.998225 -87.442905
USER    NEWDPF quaternion0	-0.037865 -0.016142 0.689926 -0.722708
USER    NEWDPF dihe0	-100.00 38.12 50.34 4.18 42.63 -127.29 -75.53 98.85 80.86 1.35 7.29 -166.23 -151.88 -172.78 -8.13 -166.72 180.00 152.13 33.47 -33.55 -41.35 -29.27 23.19 -180.00 
USER  
USER                              x       y       z    vdW   Elec        q     RMS 
ATOM      1  C   UNL d   1     -10.055   1.580 -21.812 -0.09 +0.01    +0.194    22.282
ATOM      2  C   UNL d   1      -9.286   0.286 -22.081 -0.09 -0.02    +0.194    22.282
ATOM      3  C   UNL d   1     -10.137  -0.951 -21.789 -0.06 -0.01    +0.194    22.282
ATOM      4  C   UNL d   1     -11.493  -0.928 -22.491 -0.02 +0.00    +0.194    22.282
ATOM      5  C   UNL d   1     -12.246   0.388 -22.344 -0.02 +0.02    +0.194    22.282
ATOM      6  C   UNL d   1     -11.378   1.627 -22.577 -0.02 +0.01    +0.194    22.282
ATOM      7  O   UNL d   1      -9.259   2.676 -22.270 -0.04 +0.01    -0.278    22.282
ATOM      8  P   UNL d   1      -8.219   3.336 -21.252 -0.14 -0.05    +0.473    22.282
ATOM      9  O   UNL d   1      -8.677   4.601 -20.615 -0.12 +0.01    -0.228    22.282
ATOM     10  O   UNL d   1      -7.918   2.176 -20.200 -0.13 +0.06    -0.303    22.282
ATOM     11  H   UNL d   1      -7.054   1.770 -20.400 -0.37 -0.19    +0.222    22.282
ATOM     12  O   UNL d   1      -6.851   3.420 -22.056 -0.18 +0.05    -0.303    22.282
ATOM     13  H   UNL d   1      -6.889   2.967 -22.929 +0.05 -0.04    +0.222    22.282
ATOM     14  O   UNL d   1      -8.893   0.255 -23.459 -0.02 +0.04    -0.278    22.282
ATOM     15  P   UNL d   1      -7.395   0.715 -23.788 -0.02 -0.09    +0.473    22.282
ATOM     16  O   UNL d   1      -7.238   1.925 -24.654 -0.02 +0.03    -0.228    22.282
ATOM     17  O   UNL d   1      -6.720   0.888 -22.355 -0.11 +0.12    -0.303    22.282
ATOM     18  H   UNL d   1      -7.308   1.376 -21.747 -0.12 -0.08    +0.222    22.282
ATOM     19  O   UNL d   1      -6.682  -0.605 -24.318 -0.01 +0.07    -0.303    22.282
ATOM     20  H   UNL d   1      -6.752  -1.335 -23.676 +0.04 -0.07    +0.222    22.282
ATOM     21  O   UNL d   1     -12.111   2.743 -22.077 -0.02 -0.03    -0.278    22.282
ATOM     22  P   UNL d   1     -12.029   4.147 -22.831 +0.00 +0.02    +0.473    22.282
ATOM     23  O   UNL d   1     -11.621   4.153 -24.265 -0.00 +0.00    -0.228    22.282
ATOM     24  O   UNL d   1     -13.472   4.755 -22.545 +0.00 -0.02    -0.303    22.282
ATOM     25  H   UNL d   1     -14.090   4.004 -22.353 +0.01 +0.02    +0.222    22.282
ATOM     26  O   UNL d   1     -11.107   4.999 -21.834 -0.01 -0.01    -0.303    22.282
ATOM     27  H   UNL d   1     -10.247   4.545 -21.725 +0.03 +0.01    +0.222    22.282
ATOM     28  O   UNL d   1      -9.454  -2.078 -22.323 -0.03 +0.06    -0.278    22.282
ATOM     29  P   UNL d   1      -8.267  -2.759 -21.510 -0.05 -0.26    +0.473    22.282
ATOM     30  O   UNL d   1      -7.825  -4.085 -22.011 -0.10 +0.15    -0.228    22.282
ATOM     31  O   UNL d   1      -7.191  -1.575 -21.542 -0.12 +0.15    -0.303    22.282
ATOM     32  H   UNL d   1      -7.383  -0.997 -22.317 +0.05 -0.08    +0.222    22.282
ATOM     33  O   UNL d   1      -8.810  -2.700 -20.014 -0.13 +0.21    -0.303    22.282
ATOM     34  H   UNL d   1      -8.346  -3.388 -19.477 -0.38 -0.37    +0.222    22.282
ATOM     35  O   UNL d   1     -13.245   0.378 -23.362 -0.00 -0.01    -0.278    22.282
ATOM     36  P   UNL d   1     -14.588   1.218 -23.179 +0.01 +0.03    +0.473    22.282
ATOM     37  O   UNL d   1     -15.849   0.509 -23.557 +0.00 -0.01    -0.228    22.282
ATOM     38  O   UNL d   1     -14.506   1.634 -21.644 -0.00 -0.06    -0.303    22.282
ATOM     39  H   UNL d   1     -13.611   1.422 -21.301 +0.01 +0.06    +0.222    22.282
ATOM     40  O   UNL d   1     -14.256   2.564 -23.958 +0.00 -0.01    -0.303    22.282
ATOM     41  H   UNL d   1     -13.333   2.861 -23.796 +0.00 +0.01    +0.222    22.282
ATOM     42  O   UNL d   1     -12.295  -1.943 -21.878 -0.01 -0.01    -0.278    22.282
ATOM     43  P   UNL d   1     -12.781  -1.736 -20.373 -0.03 +0.13    +0.473    22.282
ATOM     44  O   UNL d   1     -13.249  -2.941 -19.631 -0.02 -0.04    -0.228    22.282
ATOM     45  O   UNL d   1     -11.540  -1.000 -19.703 -0.01 -0.16    -0.303    22.282
ATOM     46  H   UNL d   1     -10.753  -1.581 -19.672 +0.05 +0.05    +0.222    22.282
ATOM     47  O   UNL d   1     -13.843  -0.542 -20.491 -0.04 -0.12    -0.303    22.282
ATOM     48  H   UNL d   1     -14.064  -0.399 -21.435 +0.01 +0.04    +0.222    22.282
TER
ENDMDL


AVSFLD: # AVS field file
AVSFLD: #
AVSFLD: # Created by AutoDock
AVSFLD: #
AVSFLD: ndim=2           # number of dimensions in the field
AVSFLD: nspace=1         # number of physical coordinates
AVSFLD: veclen=7         # vector size
AVSFLD: dim1=48          # atoms
AVSFLD: dim2=83          # conformations
AVSFLD: data=Real       # data type (byte,integer,Real,double)
AVSFLD: field=uniform    # field coordinate layout
AVSFLD: label= x y z vdW Elec q RMS
AVSFLD: variable 1 file = D:/Protein_go_brrr/autodock/final/mut_K82N/IHP/dock.dlg.pdb filetype = ascii offset = 5 stride = 12
AVSFLD: variable 2 file = D:/Protein_go_brrr/autodock/final/mut_K82N/IHP/dock.dlg.pdb filetype = ascii offset = 6 stride = 12
AVSFLD: variable 3 file = D:/Protein_go_brrr/autodock/final/mut_K82N/IHP/dock.dlg.pdb filetype = ascii offset = 7 stride = 12
AVSFLD: variable 4 file = D:/Protein_go_brrr/autodock/final/mut_K82N/IHP/dock.dlg.pdb filetype = ascii offset = 8 stride = 12
AVSFLD: variable 5 file = D:/Protein_go_brrr/autodock/final/mut_K82N/IHP/dock.dlg.pdb filetype = ascii offset = 9 stride = 12
AVSFLD: variable 6 file = D:/Protein_go_brrr/autodock/final/mut_K82N/IHP/dock.dlg.pdb filetype = ascii offset = 10 stride = 12
AVSFLD: variable 7 file = D:/Protein_go_brrr/autodock/final/mut_K82N/IHP/dock.dlg.pdb filetype = ascii offset = 11 stride = 12
AVSFLD: # end of file

>>> Closing the docking parameter file (DPF)...
This docking finished at:			9:18 12" p.m., 10/04/2025


________________________________________________________________________________

D:/autodockScripts/autodock4.exe: Successful Completion on "ACER"

Real= 29h 42m 40.48s,  CPU= 1m 15.31s,  System= 3m 02.75s
________________________________________________________________________________

