          AutoDock 4.2 Release 4.2.6   
         (C) 1989-2012 The Scripps Research Institute
        AutoDock comes with ABSOLUTELY NO WARRANTY.
        AutoDock is free software, and you are welcome
        to redistribute it under certain conditions;
        for details type 'autodock4 -C'

                     main.cc  $Revision: 1.213 $

                   Compiled on Jul 18 2014 at 15:34:58


This file was created at:			0:26 36" a.m., 10/02/2025
                   on host:		"ACER"
Current Working Directory = "D:\Protein_go_brrr\autodock\final\AncMH_nat\IHP"

      ________________________________________________________________

                   SETTING UP DEFAULT PARAMETER LIBRARY
      ________________________________________________________________


Random number generator was seeded with values 123992, 1759357596.
Docking parameter file (DPF) used for this docking:		D:/Protein_go_brrr/autodock/final/AncMH_nat/IHP/dock.dpf
DPF> autodock_parameter_version 4.2       # used by autodock to validate parameter set

	Autodock parameter version 4.2.
DPF> outlev 1                             # diagnostic output level

Output Level = 1  ADT-COMPATIBLE OUTPUT DURING DOCKING.
DPF> intelec                              # calculate internal electrostatics

Electrostatic energies will be calculated for all non-bonds between moving atoms.
DPF> seed pid time                        # seeds for random generator

Random number generator was seeded with values 123992, 1759357596.
DPF> ligand_types P C HD OA               # atoms types in ligand

DPF> fld opt_AncMH_nat.maps.fld           # grid_data_file

Opening Grid Map Dimensions file:		opt_AncMH_nat.maps.fld
Grid Point Spacing =				0.425 Angstroms

Even Number of User-specified Grid Points =	126 x-points
						126 y-points
						126 z-points

Coordinates of Central Grid Point of Maps =	(-1.644, 0.366, 1.789)
Macromolecule file used to create Grid Maps =	opt_AncMH_nat.pdbqt
Grid Parameter file used to create Grid Maps =	D:/Protein_go_brrr/autodock/final/AncMH_nat/IHP/grid.gpf
Minimum coordinates in grid = (-28.419, -26.409, -24.986)
Maximum coordinates in grid = (25.131, 27.141, 28.564)

DPF> map opt_AncMH_nat.P.map              # atom-specific affinity map

DPF> map opt_AncMH_nat.C.map              # atom-specific affinity map

DPF> map opt_AncMH_nat.HD.map             # atom-specific affinity map

DPF> map opt_AncMH_nat.OA.map             # atom-specific affinity map

DPF> elecmap opt_AncMH_nat.e.map          # electrostatics map

DPF> desolvmap opt_AncMH_nat.d.map        # desolvation map

DPF> move IHP_ideal_opt.pdbqt             # small molecule

1,4-interactions will be _ignored_ in the non-bonded internal energy calculation.

Ligand PDBQT file = "IHP_ideal_opt.pdbqt"

INPUT LIGAND PDBQT FILE:
________________________

INPUT-LIGAND-PDBQT: REMARK  24 active torsions:
INPUT-LIGAND-PDBQT: REMARK  status: ('A' for Active; 'I' for Inactive)
INPUT-LIGAND-PDBQT: REMARK    1  A    between atoms: C_1  and  O_7 
INPUT-LIGAND-PDBQT: REMARK    2  A    between atoms: C_2  and  O_12 
INPUT-LIGAND-PDBQT: REMARK    3  A    between atoms: C_3  and  O_17 
INPUT-LIGAND-PDBQT: REMARK    4  A    between atoms: C_4  and  O_22 
INPUT-LIGAND-PDBQT: REMARK    5  A    between atoms: C_5  and  O_27 
INPUT-LIGAND-PDBQT: REMARK    6  A    between atoms: C_6  and  O_32 
INPUT-LIGAND-PDBQT: REMARK    7  A    between atoms: O_7  and  P_8 
INPUT-LIGAND-PDBQT: REMARK    8  A    between atoms: P_8  and  O_10 
INPUT-LIGAND-PDBQT: REMARK    9  A    between atoms: P_8  and  O_11 
INPUT-LIGAND-PDBQT: REMARK   10  A    between atoms: O_12  and  P_13 
INPUT-LIGAND-PDBQT: REMARK   11  A    between atoms: P_13  and  O_15 
INPUT-LIGAND-PDBQT: REMARK   12  A    between atoms: P_13  and  O_16 
INPUT-LIGAND-PDBQT: REMARK   13  A    between atoms: O_17  and  P_18 
INPUT-LIGAND-PDBQT: REMARK   14  A    between atoms: P_18  and  O_20 
INPUT-LIGAND-PDBQT: REMARK   15  A    between atoms: P_18  and  O_21 
INPUT-LIGAND-PDBQT: REMARK   16  A    between atoms: O_22  and  P_23 
INPUT-LIGAND-PDBQT: REMARK   17  A    between atoms: P_23  and  O_25 
INPUT-LIGAND-PDBQT: REMARK   18  A    between atoms: P_23  and  O_26 
INPUT-LIGAND-PDBQT: REMARK   19  A    between atoms: O_27  and  P_28 
INPUT-LIGAND-PDBQT: REMARK   20  A    between atoms: P_28  and  O_30 
INPUT-LIGAND-PDBQT: REMARK   21  A    between atoms: P_28  and  O_31 
INPUT-LIGAND-PDBQT: REMARK   22  A    between atoms: O_32  and  P_33 
INPUT-LIGAND-PDBQT: REMARK   23  A    between atoms: P_33  and  O_35 
INPUT-LIGAND-PDBQT: REMARK   24  A    between atoms: P_33  and  O_36 
INPUT-LIGAND-PDBQT: ROOT
INPUT-LIGAND-PDBQT: ATOM      1  C   UNL d   1       1.288  -0.806   0.726  0.00  0.00     0.194 C 
INPUT-LIGAND-PDBQT: ATOM      2  C   UNL d   1       0.040  -1.610   0.357  0.00  0.00     0.194 C 
INPUT-LIGAND-PDBQT: ATOM      3  C   UNL d   1      -1.244  -0.840   0.673  0.00  0.00     0.194 C 
INPUT-LIGAND-PDBQT: ATOM      4  C   UNL d   1      -1.265   0.565   0.076  0.00  0.00     0.194 C 
INPUT-LIGAND-PDBQT: ATOM      5  C   UNL d   1       0.009   1.363   0.322  0.00  0.00     0.194 C 
INPUT-LIGAND-PDBQT: ATOM      6  C   UNL d   1       1.294   0.573   0.065  0.00  0.00     0.194 C 
INPUT-LIGAND-PDBQT: ENDROOT
INPUT-LIGAND-PDBQT: BRANCH   1   7
INPUT-LIGAND-PDBQT: ATOM      7  O   UNL d   1       2.433  -1.514   0.245  0.00  0.00    -0.278 OA
INPUT-LIGAND-PDBQT: BRANCH   7   8
INPUT-LIGAND-PDBQT: ATOM      8  P   UNL d   1       3.563  -1.932   1.294  0.00  0.00     0.473 P 
INPUT-LIGAND-PDBQT: ATOM      9  O   UNL d   1       3.071  -2.662   2.494  0.00  0.00    -0.228 OA
INPUT-LIGAND-PDBQT: BRANCH   8  10
INPUT-LIGAND-PDBQT: ATOM     10  O   UNL d   1       4.602  -2.777   0.427  0.00  0.00    -0.303 OA
INPUT-LIGAND-PDBQT: ATOM     11  H   UNL d   1       5.122  -3.357   1.014  0.00  0.00     0.222 HD
INPUT-LIGAND-PDBQT: ENDBRANCH   8  10
INPUT-LIGAND-PDBQT: BRANCH   8  12
INPUT-LIGAND-PDBQT: ATOM     12  O   UNL d   1       4.376  -0.597   1.579  0.00  0.00    -0.303 OA
INPUT-LIGAND-PDBQT: ATOM     13  H   UNL d   1       4.592  -0.095   0.761  0.00  0.00     0.222 HD
INPUT-LIGAND-PDBQT: ENDBRANCH   8  12
INPUT-LIGAND-PDBQT: ENDBRANCH   7   8
INPUT-LIGAND-PDBQT: ENDBRANCH   1   7
INPUT-LIGAND-PDBQT: BRANCH   2  14
INPUT-LIGAND-PDBQT: ATOM     14  O   UNL d   1       0.067  -1.896  -1.047  0.00  0.00    -0.278 OA
INPUT-LIGAND-PDBQT: BRANCH  14  15
INPUT-LIGAND-PDBQT: ATOM     15  P   UNL d   1      -0.217  -3.413  -1.474  0.00  0.00     0.473 P 
INPUT-LIGAND-PDBQT: ATOM     16  O   UNL d   1      -1.497  -4.019  -0.990  0.00  0.00    -0.228 OA
INPUT-LIGAND-PDBQT: BRANCH  15  17
INPUT-LIGAND-PDBQT: ATOM     17  O   UNL d   1      -0.104  -3.396  -3.063  0.00  0.00    -0.303 OA
INPUT-LIGAND-PDBQT: ATOM     18  H   UNL d   1      -0.983  -3.299  -3.477  0.00  0.00     0.222 HD
INPUT-LIGAND-PDBQT: ENDBRANCH  15  17
INPUT-LIGAND-PDBQT: BRANCH  15  19
INPUT-LIGAND-PDBQT: ATOM     19  O   UNL d   1       1.108  -4.194  -1.068  0.00  0.00    -0.303 OA
INPUT-LIGAND-PDBQT: ATOM     20  H   UNL d   1       1.891  -3.839  -1.528  0.00  0.00     0.222 HD
INPUT-LIGAND-PDBQT: ENDBRANCH  15  19
INPUT-LIGAND-PDBQT: ENDBRANCH  14  15
INPUT-LIGAND-PDBQT: ENDBRANCH   2  14
INPUT-LIGAND-PDBQT: BRANCH   6  21
INPUT-LIGAND-PDBQT: ATOM     21  O   UNL d   1       2.359   1.315   0.655  0.00  0.00    -0.278 OA
INPUT-LIGAND-PDBQT: BRANCH  21  22
INPUT-LIGAND-PDBQT: ATOM     22  P   UNL d   1       3.322   2.189  -0.269  0.00  0.00     0.473 P 
INPUT-LIGAND-PDBQT: ATOM     23  O   UNL d   1       2.760   2.769  -1.523  0.00  0.00    -0.228 OA
INPUT-LIGAND-PDBQT: BRANCH  22  24
INPUT-LIGAND-PDBQT: ATOM     24  O   UNL d   1       3.885   3.258   0.767  0.00  0.00    -0.303 OA
INPUT-LIGAND-PDBQT: ATOM     25  H   UNL d   1       3.131   3.831   1.059  0.00  0.00     0.222 HD
INPUT-LIGAND-PDBQT: ENDBRANCH  22  24
INPUT-LIGAND-PDBQT: BRANCH  22  26
INPUT-LIGAND-PDBQT: ATOM     26  O   UNL d   1       4.578   1.209  -0.449  0.00  0.00    -0.303 OA
INPUT-LIGAND-PDBQT: ATOM     27  H   UNL d   1       5.288   1.681  -0.930  0.00  0.00     0.222 HD
INPUT-LIGAND-PDBQT: ENDBRANCH  22  26
INPUT-LIGAND-PDBQT: ENDBRANCH  21  22
INPUT-LIGAND-PDBQT: ENDBRANCH   6  21
INPUT-LIGAND-PDBQT: BRANCH   3  28
INPUT-LIGAND-PDBQT: ATOM     28  O   UNL d   1      -2.321  -1.530   0.052  0.00  0.00    -0.278 OA
INPUT-LIGAND-PDBQT: BRANCH  28  29
INPUT-LIGAND-PDBQT: ATOM     29  P   UNL d   1      -3.402  -2.296   0.936  0.00  0.00     0.473 P 
INPUT-LIGAND-PDBQT: ATOM     30  O   UNL d   1      -2.932  -2.753   2.269  0.00  0.00    -0.228 OA
INPUT-LIGAND-PDBQT: BRANCH  29  31
INPUT-LIGAND-PDBQT: ATOM     31  O   UNL d   1      -4.591  -1.225   0.913  0.00  0.00    -0.303 OA
INPUT-LIGAND-PDBQT: ATOM     32  H   UNL d   1      -4.772  -0.977  -0.023  0.00  0.00     0.222 HD
INPUT-LIGAND-PDBQT: ENDBRANCH  29  31
INPUT-LIGAND-PDBQT: BRANCH  29  33
INPUT-LIGAND-PDBQT: ATOM     33  O   UNL d   1      -3.920  -3.418  -0.068  0.00  0.00    -0.303 OA
INPUT-LIGAND-PDBQT: ATOM     34  H   UNL d   1      -3.155  -3.980  -0.344  0.00  0.00     0.222 HD
INPUT-LIGAND-PDBQT: ENDBRANCH  29  33
INPUT-LIGAND-PDBQT: ENDBRANCH  28  29
INPUT-LIGAND-PDBQT: ENDBRANCH   3  28
INPUT-LIGAND-PDBQT: BRANCH   5  35
INPUT-LIGAND-PDBQT: ATOM     35  O   UNL d   1      -0.019   2.436  -0.617  0.00  0.00    -0.278 OA
INPUT-LIGAND-PDBQT: BRANCH  35  36
INPUT-LIGAND-PDBQT: ATOM     36  P   UNL d   1       0.242   3.934  -0.135  0.00  0.00     0.473 P 
INPUT-LIGAND-PDBQT: ATOM     37  O   UNL d   1       1.386   4.117   0.811  0.00  0.00    -0.228 OA
INPUT-LIGAND-PDBQT: BRANCH  36  38
INPUT-LIGAND-PDBQT: ATOM     38  O   UNL d   1       0.411   4.698  -1.522  0.00  0.00    -0.303 OA
INPUT-LIGAND-PDBQT: ATOM     39  H   UNL d   1       1.257   4.425  -1.938  0.00  0.00     0.222 HD
INPUT-LIGAND-PDBQT: ENDBRANCH  36  38
INPUT-LIGAND-PDBQT: BRANCH  36  40
INPUT-LIGAND-PDBQT: ATOM     40  O   UNL d   1      -1.196   4.382   0.376  0.00  0.00    -0.303 OA
INPUT-LIGAND-PDBQT: ATOM     41  H   UNL d   1      -1.909   4.073  -0.226  0.00  0.00     0.222 HD
INPUT-LIGAND-PDBQT: ENDBRANCH  36  40
INPUT-LIGAND-PDBQT: ENDBRANCH  35  36
INPUT-LIGAND-PDBQT: ENDBRANCH   5  35
INPUT-LIGAND-PDBQT: BRANCH   4  42
INPUT-LIGAND-PDBQT: ATOM     42  O   UNL d   1      -2.334   1.271   0.715  0.00  0.00    -0.278 OA
INPUT-LIGAND-PDBQT: BRANCH  42  43
INPUT-LIGAND-PDBQT: ATOM     43  P   UNL d   1      -3.625   1.654  -0.140  0.00  0.00     0.473 P 
INPUT-LIGAND-PDBQT: ATOM     44  O   UNL d   1      -4.208   0.598  -1.014  0.00  0.00    -0.228 OA
INPUT-LIGAND-PDBQT: BRANCH  43  45
INPUT-LIGAND-PDBQT: ATOM     45  O   UNL d   1      -4.625   2.208   0.967  0.00  0.00    -0.303 OA
INPUT-LIGAND-PDBQT: ATOM     46  H   UNL d   1      -4.983   1.485   1.520  0.00  0.00     0.222 HD
INPUT-LIGAND-PDBQT: ENDBRANCH  43  45
INPUT-LIGAND-PDBQT: BRANCH  43  47
INPUT-LIGAND-PDBQT: ATOM     47  O   UNL d   1      -3.184   3.003  -0.885  0.00  0.00    -0.303 OA
INPUT-LIGAND-PDBQT: ATOM     48  H   UNL d   1      -3.918   3.311  -1.456  0.00  0.00     0.222 HD
INPUT-LIGAND-PDBQT: ENDBRANCH  43  47
INPUT-LIGAND-PDBQT: ENDBRANCH  42  43
INPUT-LIGAND-PDBQT: ENDBRANCH   4  42
INPUT-LIGAND-PDBQT: TORSDOF 24
________________________________________________________________________________

Total charge on ligand                               =	-0.006 e
REMARK  24 active torsions:
REMARK  status: ('A' for Active; 'I' for Inactive)
REMARK    1  A    between atoms: C_1  and  O_7 
REMARK    2  A    between atoms: C_2  and  O_12 
REMARK    3  A    between atoms: C_3  and  O_17 
REMARK    4  A    between atoms: C_4  and  O_22 
REMARK    5  A    between atoms: C_5  and  O_27 
REMARK    6  A    between atoms: C_6  and  O_32 
REMARK    7  A    between atoms: O_7  and  P_8 
REMARK    8  A    between atoms: P_8  and  O_10 
REMARK    9  A    between atoms: P_8  and  O_11 
REMARK   10  A    between atoms: O_12  and  P_13 
REMARK   11  A    between atoms: P_13  and  O_15 
REMARK   12  A    between atoms: P_13  and  O_16 
REMARK   13  A    between atoms: O_17  and  P_18 
REMARK   14  A    between atoms: P_18  and  O_20 
REMARK   15  A    between atoms: P_18  and  O_21 
REMARK   16  A    between atoms: O_22  and  P_23 
REMARK   17  A    between atoms: P_23  and  O_25 
REMARK   18  A    between atoms: P_23  and  O_26 
REMARK   19  A    between atoms: O_27  and  P_28 
REMARK   20  A    between atoms: P_28  and  O_30 
REMARK   21  A    between atoms: P_28  and  O_31 
REMARK   22  A    between atoms: O_32  and  P_33 
REMARK   23  A    between atoms: P_33  and  O_35 
REMARK   24  A    between atoms: P_33  and  O_36 


Number of Rotatable Bonds in Small Molecule =	24 torsions
Number of atoms in ligand:  48

Number of non-hydrogen atoms in ligand:  36

Number of vibrational degrees of freedom of ligand:  138


Number of torsional degrees of freedom = 24
Estimated loss of torsional free energy upon binding = +7.1592 kcal/mol


DPF> about 0.035 0.082 -0.065            # small molecule center

Small molecule center of rotation =	(+0.035, +0.082, -0.065)

DPF> tran0 random                         # initial coordinates/A or random

Initial translation =			(13.691, -5.035, 20.645) Angstroms
DPF> quaternion0 random                   # initial orientation

Each run will begin with a new, random initial orientation.
Initial quaternion,  (x,y,z,w) =	( -0.830, 0.038, 0.556, -0.005 ),
DPF> dihe0 random                         # initial dihedrals (relative) or random

DPF> torsdof 24                            # torsional degrees of freedom

Number of torsional degrees of freedom = 24
Free energy coefficient for torsional degrees of freedom = 0.2983, the factory default value.

Estimated loss of torsional free energy upon binding = +7.1592 kcal/mol

DPF> rmstol 2.0                           # cluster_tolerance/A

Maximum RMS tolerance for conformational cluster analysis = 2.00 Angstroms
DPF> extnrg 1000.0                        # external grid energy

External grid energy (beyond grid map walls) = 1000.00

DPF> e0max 0.0 10000                      # max initial energy; max number of retries

Using user-specified maximum number of retries for simanneal initialization, 10000 retries.
If the simanneal initial energy is greater than e0max, 0.000,
then a new, random initial state will be created.

DPF> ga_pop_size 150                      # number of individuals in population

A population of 150 individuals will be used
DPF> ga_num_evals 25000000                # maximum number of energy evaluations

There will be at most 25000000 function evaluations used.
DPF> ga_num_generations 27000             # maximum number of generations

The GA will run for at most 27000 generations.
DPF> ga_elitism 1                         # number of top individuals to survive to next generation

The 1 best will be preserved each GA generation.
DPF> ga_mutation_rate 0.02                # rate of gene mutation

The mutation rate is 0.020000.
DPF> ga_crossover_rate 0.8                # rate of crossover

The crossover rate is 0.800000.
DPF> ga_window_size 10                    # 

The GA's selection window is 10 generations.
DPF> ga_cauchy_alpha 0.0                  # Alpha parameter of Cauchy distribution

The alpha parameter (for the Cauchy distribution) is being set to 0.000000.
DPF> ga_cauchy_beta 1.0                   # Beta parameter Cauchy distribution

The beta parameter (for the Cauchy distribution) is being set to 1.000000.
DPF> set_ga                               # set the above parameters for GA or LGA

DPF> sw_max_its 300                       # iterations of Solis & Wets local search

Solis & Wets algorithms will perform at most 300 iterations.
DPF> sw_max_succ 4                        # consecutive successes before changing rho

Solis & Wets algorithms expand rho every 4 in a row successes.
DPF> sw_max_fail 4                        # consecutive failures before changing rho

Solis & Wets algorithms contract rho every 4 in a row failures.
DPF> sw_rho 1.0                           # size of local search space to sample

rho is set to 1.000000.
DPF> sw_lb_rho 0.01                       # lower bound on rho

rho will never get smaller than 0.010000.
DPF> ls_search_freq 0.06                  # probability of performing local search on individual

Local search will be performed with frequency 0.060000.
DPF> set_psw1                             # set the above pseudo-Solis & Wets parameters

Creating a new Local Search object using the pseudo-Solis-Wets algorithm (pSW1) with the current settings.

DPF> unbound_model bound                  # state of unbound ligand

DPF> ga_run 100                           # do this many hybrid GA-LS runs

centering ligand on specified point: 0.035 0.082 -0.065
Furthest true ligand atom from "about" center is 6.234 Angstroms (maxrad).
Number of requested GA dockings = 100 runs
Unbound model to be used is 'same as bound' [AutoDock 4.2 default].

	BEGINNING GENETIC ALGORITHM DOCKING 1 of 100
Run: 1 Seed: 1017748084 1181807377 [ Run 1 of 100 GA/GALS ]
Beginning LAMARCKIAN GENETIC ALGORITHM (LGA), with a maximum of 25000000 energy evaluations.

Final-Value: -19.218


	FINAL GENETIC ALGORITHM DOCKED STATE
	_______________________________________________


Detailed state:  trans -15.388 -10.960 -5.182 quatxyzw -0.054436 0.218430 0.746440 -0.626221 center 0.035 0.082 -0.065 ntor 24 92.4734 108.5926 127.5731 -176.7990 96.2105 108.5263 -74.4120 -24.5811 81.8976 67.6424 -161.4817 137.2092 -39.3665 75.4672 47.8905 168.4107 114.7765 164.3992 37.9424 -19.8497 179.6685 -24.2034 -4.7324 173.8947
State:	-15.388 -10.960  -5.182  -0.070  0.280  0.957 -102.456     92.47  108.59  127.57 -176.80   96.21  108.53  -74.41  -24.58   81.90   67.64 -161.48  137.21  -39.37   75.47   47.89  168.41  114.78  164.40   37.94  -19.85  179.67  -24.20   -4.73  173.89

DOCKED: MODEL        1
DOCKED: USER    Run = 1
DOCKED: USER    DPF = D:/Protein_go_brrr/autodock/final/AncMH_nat/IHP/dock.dpf
DOCKED: USER  
DOCKED: USER    Estimated Free Energy of Binding    =   +2.65 kcal/mol  [=(1)+(2)+(3)-(4)]
DOCKED: USER    
DOCKED: USER    (1) Final Intermolecular Energy     =   -4.51 kcal/mol
DOCKED: USER        vdW + Hbond + desolv Energy     =   -4.36 kcal/mol
DOCKED: USER        Electrostatic Energy            =   -0.15 kcal/mol
DOCKED: USER    (2) Final Total Internal Energy     =  -14.71 kcal/mol
DOCKED: USER    (3) Torsional Free Energy           =   +7.16 kcal/mol
DOCKED: USER    (4) Unbound System's Energy  [=(2)] =  -14.71 kcal/mol
DOCKED: USER    
DOCKED: USER    
DOCKED: USER    NEWDPF move IHP_ideal_opt.pdbqt
DOCKED: USER    NEWDPF about 0.035000 0.082000 -0.065000
DOCKED: USER    NEWDPF tran0 -15.387575 -10.960202 -5.181873
DOCKED: USER    NEWDPF quaternion0 -0.054436 0.218430 0.746440 -0.626221
DOCKED: USER    NEWDPF axisangle0 -0.069822 0.280166 0.957409 -102.456263
DOCKED: USER    NEWDPF quat0 -0.069822 0.280166 0.957409 -102.456263
DOCKED: USER    NEWDPF dihe0 92.47 108.59 127.57 -176.80 96.21 108.53 -74.41 -24.58 81.90 67.64 -161.48 137.21 -39.37 75.47 47.89 168.41 114.78 164.40 37.94 -19.85 179.67 -24.20 -4.73 173.89 
DOCKED: USER  keepresnum = 1 
DOCKED: USER  
DOCKED: REMARK  24 active torsions:
DOCKED: REMARK  status: ('A' for Active; 'I' for Inactive)
DOCKED: REMARK    1  A    between atoms: C_1  and  O_7 
DOCKED: REMARK    2  A    between atoms: C_2  and  O_12 
DOCKED: REMARK    3  A    between atoms: C_3  and  O_17 
DOCKED: REMARK    4  A    between atoms: C_4  and  O_22 
DOCKED: REMARK    5  A    between atoms: C_5  and  O_27 
DOCKED: REMARK    6  A    between atoms: C_6  and  O_32 
DOCKED: REMARK    7  A    between atoms: O_7  and  P_8 
DOCKED: REMARK    8  A    between atoms: P_8  and  O_10 
DOCKED: REMARK    9  A    between atoms: P_8  and  O_11 
DOCKED: REMARK   10  A    between atoms: O_12  and  P_13 
DOCKED: REMARK   11  A    between atoms: P_13  and  O_15 
DOCKED: REMARK   12  A    between atoms: P_13  and  O_16 
DOCKED: REMARK   13  A    between atoms: O_17  and  P_18 
DOCKED: REMARK   14  A    between atoms: P_18  and  O_20 
DOCKED: REMARK   15  A    between atoms: P_18  and  O_21 
DOCKED: REMARK   16  A    between atoms: O_22  and  P_23 
DOCKED: REMARK   17  A    between atoms: P_23  and  O_25 
DOCKED: REMARK   18  A    between atoms: P_23  and  O_26 
DOCKED: REMARK   19  A    between atoms: O_27  and  P_28 
DOCKED: REMARK   20  A    between atoms: P_28  and  O_30 
DOCKED: REMARK   21  A    between atoms: P_28  and  O_31 
DOCKED: REMARK   22  A    between atoms: O_32  and  P_33 
DOCKED: REMARK   23  A    between atoms: P_33  and  O_35 
DOCKED: REMARK   24  A    between atoms: P_33  and  O_36 
DOCKED: USER                              x       y       z     vdW  Elec       q    Type
DOCKED: USER                           _______ _______ _______ _____ _____    ______ ____
DOCKED: ROOT
DOCKED: ATOM      1  C   UNL d   1     -14.647  -9.400  -5.145 -0.05 +0.06    +0.194 C 
DOCKED: ATOM      2  C   UNL d   1     -13.685 -10.586  -5.241 -0.08 +0.03    +0.194 C 
DOCKED: ATOM      3  C   UNL d   1     -14.093 -11.724  -4.303 -0.10 +0.02    +0.194 C 
DOCKED: ATOM      4  C   UNL d   1     -15.551 -12.147  -4.469 -0.04 +0.02    +0.194 C 
DOCKED: ATOM      5  C   UNL d   1     -16.536 -10.985  -4.494 -0.01 +0.03    +0.194 C 
DOCKED: ATOM      6  C   UNL d   1     -16.097  -9.821  -5.385 -0.01 +0.05    +0.194 C 
DOCKED: ENDROOT
DOCKED: BRANCH   1   7
DOCKED: ATOM      7  O   UNL d   1     -14.301  -8.461  -6.166 -0.03 -0.11    -0.278 OA
DOCKED: BRANCH   7   8
DOCKED: ATOM      8  P   UNL d   1     -13.143  -7.403  -5.864 -0.11 +0.25    +0.473 P 
DOCKED: ATOM      9  O   UNL d   1     -12.338  -7.681  -4.643 -0.29 -0.10    -0.228 OA
DOCKED: BRANCH   8  10
DOCKED: ATOM     10  O   UNL d   1     -12.273  -7.390  -7.200 -0.28 -0.31    -0.303 OA
DOCKED: ATOM     11  H   UNL d   1     -11.849  -8.260  -7.323 +0.05 +0.36    +0.222 HD
DOCKED: ENDBRANCH   8  10
DOCKED: BRANCH   8  12
DOCKED: ATOM     12  O   UNL d   1     -13.856  -5.984  -5.917 -0.06 -0.16    -0.303 OA
DOCKED: ATOM     13  H   UNL d   1     -14.542  -5.871  -5.221 +0.06 +0.14    +0.222 HD
DOCKED: ENDBRANCH   8  12
DOCKED: ENDBRANCH   7   8
DOCKED: ENDBRANCH   1   7
DOCKED: BRANCH   2  14
DOCKED: ATOM     14  O   UNL d   1     -13.687 -11.080  -6.586 -0.02 -0.05    -0.278 OA
DOCKED: BRANCH  14  15
DOCKED: ATOM     15  P   UNL d   1     -12.341 -10.869  -7.428 -0.08 +0.15    +0.473 P 
DOCKED: ATOM     16  O   UNL d   1     -11.801 -12.067  -8.143 -0.06 -0.02    -0.228 OA
DOCKED: BRANCH  15  17
DOCKED: ATOM     17  O   UNL d   1     -12.686  -9.665  -8.413 -0.52 -0.30    -0.303 OA
DOCKED: ATOM     18  H   UNL d   1     -13.318  -9.044  -8.002 +0.03 +0.16    +0.222 HD
DOCKED: ENDBRANCH  15  17
DOCKED: BRANCH  15  19
DOCKED: ATOM     19  O   UNL d   1     -11.341 -10.170  -6.407 -0.20 -0.03    -0.303 OA
DOCKED: ATOM     20  H   UNL d   1     -10.515 -10.679  -6.307 -0.46 -0.23    +0.222 HD
DOCKED: ENDBRANCH  15  19
DOCKED: ENDBRANCH  14  15
DOCKED: ENDBRANCH   2  14
DOCKED: BRANCH   6  21
DOCKED: ATOM     21  O   UNL d   1     -16.919  -8.707  -5.041 -0.01 -0.09    -0.278 OA
DOCKED: BRANCH  21  22
DOCKED: ATOM     22  P   UNL d   1     -16.618  -7.883  -3.709 -0.04 +0.28    +0.473 P 
DOCKED: ATOM     23  O   UNL d   1     -15.493  -6.903  -3.725 -0.40 -0.23    -0.228 OA
DOCKED: BRANCH  22  24
DOCKED: ATOM     24  O   UNL d   1     -18.045  -7.256  -3.385 -0.05 -0.17    -0.303 OA
DOCKED: ATOM     25  H   UNL d   1     -18.738  -7.878  -3.724 +0.01 +0.08    +0.222 HD
DOCKED: ENDBRANCH  22  24
DOCKED: BRANCH  22  26
DOCKED: ATOM     26  O   UNL d   1     -16.516  -9.054  -2.618 -0.06 -0.14    -0.303 OA
DOCKED: ATOM     27  H   UNL d   1     -17.390  -9.484  -2.525 +0.04 +0.08    +0.222 HD
DOCKED: ENDBRANCH  22  26
DOCKED: ENDBRANCH  21  22
DOCKED: ENDBRANCH   6  21
DOCKED: BRANCH   3  28
DOCKED: ATOM     28  O   UNL d   1     -13.326 -12.867  -4.656 -0.07 +0.00    -0.278 OA
DOCKED: BRANCH  28  29
DOCKED: ATOM     29  P   UNL d   1     -11.877 -13.087  -4.032 -0.23 -0.10    +0.473 P 
DOCKED: ATOM     30  O   UNL d   1     -11.526 -14.494  -3.710 -0.24 +0.01    -0.228 OA
DOCKED: BRANCH  29  31
DOCKED: ATOM     31  O   UNL d   1     -10.982 -12.350  -5.135 -0.17 +0.25    -0.303 OA
DOCKED: ATOM     32  H   UNL d   1     -11.485 -12.324  -5.982 +0.03 -0.11    +0.222 HD
DOCKED: ENDBRANCH  29  31
DOCKED: BRANCH  29  33
DOCKED: ATOM     33  O   UNL d   1     -11.872 -12.050  -2.824 -0.27 +0.05    -0.303 OA
DOCKED: ATOM     34  H   UNL d   1     -12.783 -11.997  -2.443 -0.27 -0.02    +0.222 HD
DOCKED: ENDBRANCH  29  33
DOCKED: ENDBRANCH  28  29
DOCKED: ENDBRANCH   3  28
DOCKED: BRANCH   5  35
DOCKED: ATOM     35  O   UNL d   1     -17.739 -11.510  -5.052 -0.00 -0.04    -0.278 OA
DOCKED: BRANCH  35  36
DOCKED: ATOM     36  P   UNL d   1     -19.121 -11.360  -4.269 +0.00 +0.06    +0.473 P 
DOCKED: ATOM     37  O   UNL d   1     -20.354 -11.487  -5.106 +0.00 -0.02    -0.228 OA
DOCKED: BRANCH  36  38
DOCKED: ATOM     38  O   UNL d   1     -18.978 -12.474  -3.139 -0.00 -0.03    -0.303 OA
DOCKED: ATOM     39  H   UNL d   1     -18.050 -12.791  -3.116 +0.02 +0.03    +0.222 HD
DOCKED: ENDBRANCH  36  38
DOCKED: BRANCH  36  40
DOCKED: ATOM     40  O   UNL d   1     -18.919  -9.991  -3.484 +0.00 -0.06    -0.303 OA
DOCKED: ATOM     41  H   UNL d   1     -18.277  -9.402  -3.938 +0.01 +0.06    +0.222 HD
DOCKED: ENDBRANCH  36  40
DOCKED: ENDBRANCH  35  36
DOCKED: ENDBRANCH   5  35
DOCKED: BRANCH   4  42
DOCKED: ATOM     42  O   UNL d   1     -15.880 -12.954  -3.334 -0.05 -0.03    -0.278 OA
DOCKED: BRANCH  42  43
DOCKED: ATOM     43  P   UNL d   1     -15.831 -12.298  -1.881 -0.11 +0.08    +0.473 P 
DOCKED: ATOM     44  O   UNL d   1     -15.494 -13.189  -0.736 -0.22 -0.04    -0.228 OA
DOCKED: BRANCH  43  45
DOCKED: ATOM     45  O   UNL d   1     -14.822 -11.084  -2.080 -0.10 -0.06    -0.303 OA
DOCKED: ATOM     46  H   UNL d   1     -15.221 -10.236  -1.798 +0.09 +0.07    +0.222 HD
DOCKED: ENDBRANCH  43  45
DOCKED: BRANCH  43  47
DOCKED: ATOM     47  O   UNL d   1     -17.238 -11.537  -1.774 -0.03 -0.06    -0.303 OA
DOCKED: ATOM     48  H   UNL d   1     -17.414 -11.065  -2.614 +0.03 +0.05    +0.222 HD
DOCKED: ENDBRANCH  43  47
DOCKED: ENDBRANCH  42  43
DOCKED: ENDBRANCH   4  42
DOCKED: TORSDOF 24
DOCKED: TER
DOCKED: ENDMDL
________________________________________________________________________________


	BEGINNING GENETIC ALGORITHM DOCKING 2 of 100
Run: 2 Seed: 1688708355 857164428 [ Run 2 of 100 GA/GALS ]
Beginning LAMARCKIAN GENETIC ALGORITHM (LGA), with a maximum of 25000000 energy evaluations.

Final-Value: -18.822


	FINAL GENETIC ALGORITHM DOCKED STATE
	_______________________________________________


Detailed state:  trans -15.780 16.016 5.010 quatxyzw 0.558928 -0.226320 -0.766548 0.220868 center 0.035 0.082 -0.065 ntor 24 -85.4712 12.1118 122.6118 33.1109 19.6861 -168.7841 5.0180 -78.6202 117.6377 -48.1367 11.9265 142.6350 66.5146 -106.0740 -42.3028 -37.0777 165.5976 -72.5077 19.9964 -8.2144 174.3565 144.8725 19.0464 -148.8999
State:	-15.780  16.016   5.010   0.573 -0.232 -0.786 154.480    -85.47   12.11  122.61   33.11   19.69 -168.78    5.02  -78.62  117.64  -48.14   11.93  142.63   66.51 -106.07  -42.30  -37.08  165.60  -72.51   20.00   -8.21  174.36  144.87   19.05 -148.90

DOCKED: MODEL        2
DOCKED: USER    Run = 2
DOCKED: USER    DPF = D:/Protein_go_brrr/autodock/final/AncMH_nat/IHP/dock.dpf
DOCKED: USER  
DOCKED: USER    Estimated Free Energy of Binding    =   +2.87 kcal/mol  [=(1)+(2)+(3)-(4)]
DOCKED: USER    
DOCKED: USER    (1) Final Intermolecular Energy     =   -4.29 kcal/mol
DOCKED: USER        vdW + Hbond + desolv Energy     =   -3.99 kcal/mol
DOCKED: USER        Electrostatic Energy            =   -0.30 kcal/mol
DOCKED: USER    (2) Final Total Internal Energy     =  -14.53 kcal/mol
DOCKED: USER    (3) Torsional Free Energy           =   +7.16 kcal/mol
DOCKED: USER    (4) Unbound System's Energy  [=(2)] =  -14.53 kcal/mol
DOCKED: USER    
DOCKED: USER    
DOCKED: USER    NEWDPF move IHP_ideal_opt.pdbqt
DOCKED: USER    NEWDPF about 0.035000 0.082000 -0.065000
DOCKED: USER    NEWDPF tran0 -15.779740 16.015735 5.009850
DOCKED: USER    NEWDPF quaternion0 0.558928 -0.226320 -0.766548 0.220868
DOCKED: USER    NEWDPF axisangle0 0.573081 -0.232051 -0.785958 154.479948
DOCKED: USER    NEWDPF quat0 0.573081 -0.232051 -0.785958 154.479948
DOCKED: USER    NEWDPF dihe0 -85.47 12.11 122.61 33.11 19.69 -168.78 5.02 -78.62 117.64 -48.14 11.93 142.63 66.51 -106.07 -42.30 -37.08 165.60 -72.51 20.00 -8.21 174.36 144.87 19.05 -148.90 
DOCKED: USER  keepresnum = 1 
DOCKED: USER  
DOCKED: REMARK  24 active torsions:
DOCKED: REMARK  status: ('A' for Active; 'I' for Inactive)
DOCKED: REMARK    1  A    between atoms: C_1  and  O_7 
DOCKED: REMARK    2  A    between atoms: C_2  and  O_12 
DOCKED: REMARK    3  A    between atoms: C_3  and  O_17 
DOCKED: REMARK    4  A    between atoms: C_4  and  O_22 
DOCKED: REMARK    5  A    between atoms: C_5  and  O_27 
DOCKED: REMARK    6  A    between atoms: C_6  and  O_32 
DOCKED: REMARK    7  A    between atoms: O_7  and  P_8 
DOCKED: REMARK    8  A    between atoms: P_8  and  O_10 
DOCKED: REMARK    9  A    between atoms: P_8  and  O_11 
DOCKED: REMARK   10  A    between atoms: O_12  and  P_13 
DOCKED: REMARK   11  A    between atoms: P_13  and  O_15 
DOCKED: REMARK   12  A    between atoms: P_13  and  O_16 
DOCKED: REMARK   13  A    between atoms: O_17  and  P_18 
DOCKED: REMARK   14  A    between atoms: P_18  and  O_20 
DOCKED: REMARK   15  A    between atoms: P_18  and  O_21 
DOCKED: REMARK   16  A    between atoms: O_22  and  P_23 
DOCKED: REMARK   17  A    between atoms: P_23  and  O_25 
DOCKED: REMARK   18  A    between atoms: P_23  and  O_26 
DOCKED: REMARK   19  A    between atoms: O_27  and  P_28 
DOCKED: REMARK   20  A    between atoms: P_28  and  O_30 
DOCKED: REMARK   21  A    between atoms: P_28  and  O_31 
DOCKED: REMARK   22  A    between atoms: O_32  and  P_33 
DOCKED: REMARK   23  A    between atoms: P_33  and  O_35 
DOCKED: REMARK   24  A    between atoms: P_33  and  O_36 
DOCKED: USER                              x       y       z     vdW  Elec       q    Type
DOCKED: USER                           _______ _______ _______ _____ _____    ______ ____
DOCKED: ROOT
DOCKED: ATOM      1  C   UNL d   1     -16.201  17.303   3.938 -0.08 -0.09    +0.194 C 
DOCKED: ATOM      2  C   UNL d   1     -15.100  17.620   4.951 -0.08 -0.06    +0.194 C 
DOCKED: ATOM      3  C   UNL d   1     -15.438  17.082   6.343 -0.07 -0.05    +0.194 C 
DOCKED: ATOM      4  C   UNL d   1     -15.811  15.602   6.341 -0.14 -0.04    +0.194 C 
DOCKED: ATOM      5  C   UNL d   1     -16.823  15.219   5.268 -0.16 -0.07    +0.194 C 
DOCKED: ATOM      6  C   UNL d   1     -16.518  15.808   3.890 +0.07 -0.16    +0.194 C 
DOCKED: ENDROOT
DOCKED: BRANCH   1   7
DOCKED: ATOM      7  O   UNL d   1     -15.736  17.682   2.640 -0.12 +0.13    -0.278 OA
DOCKED: BRANCH   7   8
DOCKED: ATOM      8  P   UNL d   1     -16.278  19.045   2.007 -0.06 +0.11    +0.473 P 
DOCKED: ATOM      9  O   UNL d   1     -15.237  20.072   1.734 -0.62 -0.20    -0.228 OA
DOCKED: BRANCH   8  10
DOCKED: ATOM     10  O   UNL d   1     -17.060  18.579   0.697 -0.04 -0.04    -0.303 OA
DOCKED: ATOM     11  H   UNL d   1     -18.005  18.804   0.783 +0.02 +0.01    +0.222 HD
DOCKED: ENDBRANCH   8  10
DOCKED: BRANCH   8  12
DOCKED: ATOM     12  O   UNL d   1     -17.466  19.498   2.960 -0.00 -0.01    -0.303 OA
DOCKED: ATOM     13  H   UNL d   1     -17.960  18.741   3.348 +0.02 -0.01    +0.222 HD
DOCKED: ENDBRANCH   8  12
DOCKED: ENDBRANCH   7   8
DOCKED: ENDBRANCH   1   7
DOCKED: BRANCH   2  14
DOCKED: ATOM     14  O   UNL d   1     -13.875  17.018   4.513 -0.12 +0.17    -0.278 OA
DOCKED: BRANCH  14  15
DOCKED: ATOM     15  P   UNL d   1     -12.623  17.998   4.322 -0.09 -0.04    +0.473 P 
DOCKED: ATOM     16  O   UNL d   1     -12.851  19.226   3.498 -0.11 -0.10    -0.228 OA
DOCKED: BRANCH  15  17
DOCKED: ATOM     17  O   UNL d   1     -12.161  18.330   5.810 -0.04 +0.05    -0.303 OA
DOCKED: ATOM     18  H   UNL d   1     -12.402  17.609   6.423 +0.08 -0.06    +0.222 HD
DOCKED: ENDBRANCH  15  17
DOCKED: BRANCH  15  19
DOCKED: ATOM     19  O   UNL d   1     -11.448  17.048   3.827 -0.19 +0.03    -0.303 OA
DOCKED: ATOM     20  H   UNL d   1     -11.571  16.131   4.135 +0.08 -0.07    +0.222 HD
DOCKED: ENDBRANCH  15  19
DOCKED: ENDBRANCH  14  15
DOCKED: ENDBRANCH   2  14
DOCKED: BRANCH   6  21
DOCKED: ATOM     21  O   UNL d   1     -17.699  15.656   3.106 -0.10 +0.16    -0.278 OA
DOCKED: BRANCH  21  22
DOCKED: ATOM     22  P   UNL d   1     -18.975  16.563   3.412 +0.00 -0.09    +0.473 P 
DOCKED: ATOM     23  O   UNL d   1     -18.993  17.349   4.680 -0.00 +0.03    -0.228 OA
DOCKED: BRANCH  22  24
DOCKED: ATOM     24  O   UNL d   1     -19.081  17.435   2.085 -0.00 +0.04    -0.303 OA
DOCKED: ATOM     25  H   UNL d   1     -18.176  17.775   1.866 +0.02 -0.03    +0.222 HD
DOCKED: ENDBRANCH  22  24
DOCKED: BRANCH  22  26
DOCKED: ATOM     26  O   UNL d   1     -20.174  15.517   3.217 -0.00 +0.03    -0.303 OA
DOCKED: ATOM     27  H   UNL d   1     -19.814  14.607   3.246 +0.02 -0.03    +0.222 HD
DOCKED: ENDBRANCH  22  26
DOCKED: ENDBRANCH  21  22
DOCKED: ENDBRANCH   6  21
DOCKED: BRANCH   3  28
DOCKED: ATOM     28  O   UNL d   1     -14.261  17.173   7.135 -0.05 +0.08    -0.278 OA
DOCKED: BRANCH  28  29
DOCKED: ATOM     29  P   UNL d   1     -13.409  15.868   7.464 -0.15 -0.15    +0.473 P 
DOCKED: ATOM     30  O   UNL d   1     -14.110  14.831   8.264 -0.76 +0.06    -0.228 OA
DOCKED: BRANCH  29  31
DOCKED: ATOM     31  O   UNL d   1     -12.947  15.457   5.988 -0.22 +0.08    -0.303 OA
DOCKED: ATOM     32  H   UNL d   1     -12.468  16.217   5.586 +0.10 -0.07    +0.222 HD
DOCKED: ENDBRANCH  29  31
DOCKED: BRANCH  29  33
DOCKED: ATOM     33  O   UNL d   1     -12.081  16.484   8.090 -0.21 +0.15    -0.303 OA
DOCKED: ATOM     34  H   UNL d   1     -12.009  17.432   7.819 +0.09 -0.11    +0.222 HD
DOCKED: ENDBRANCH  29  33
DOCKED: ENDBRANCH  28  29
DOCKED: ENDBRANCH   3  28
DOCKED: BRANCH   5  35
DOCKED: ATOM     35  O   UNL d   1     -16.740  13.800   5.147 -0.20 +0.07    -0.278 OA
DOCKED: BRANCH  35  36
DOCKED: ATOM     36  P   UNL d   1     -18.023  12.952   4.726 -0.13 -0.08    +0.473 P 
DOCKED: ATOM     37  O   UNL d   1     -18.082  11.559   5.270 -0.33 -0.02    -0.228 OA
DOCKED: BRANCH  36  38
DOCKED: ATOM     38  O   UNL d   1     -19.211  13.895   5.212 -0.03 +0.03    -0.303 OA
DOCKED: ATOM     39  H   UNL d   1     -19.038  14.812   4.907 +0.03 -0.03    +0.222 HD
DOCKED: ENDBRANCH  36  38
DOCKED: BRANCH  36  40
DOCKED: ATOM     40  O   UNL d   1     -18.031  13.110   3.143 -0.11 +0.15    -0.303 OA
DOCKED: ATOM     41  H   UNL d   1     -18.550  13.895   2.859 +0.04 -0.09    +0.222 HD
DOCKED: ENDBRANCH  36  40
DOCKED: ENDBRANCH  35  36
DOCKED: ENDBRANCH   5  35
DOCKED: BRANCH   4  42
DOCKED: ATOM     42  O   UNL d   1     -16.416  15.325   7.608 -0.24 +0.04    -0.278 OA
DOCKED: BRANCH  42  43
DOCKED: ATOM     43  P   UNL d   1     -18.007  15.257   7.706 -0.06 -0.06    +0.473 P 
DOCKED: ATOM     44  O   UNL d   1     -18.790  16.043   6.713 -0.02 +0.02    -0.228 OA
DOCKED: BRANCH  43  45
DOCKED: ATOM     45  O   UNL d   1     -18.292  13.691   7.667 -0.06 +0.02    -0.303 OA
DOCKED: ATOM     46  H   UNL d   1     -17.974  13.290   6.834 +0.06 -0.02    +0.222 HD
DOCKED: ENDBRANCH  43  45
DOCKED: BRANCH  43  47
DOCKED: ATOM     47  O   UNL d   1     -18.294  15.602   9.244 -0.04 +0.03    -0.303 OA
DOCKED: ATOM     48  H   UNL d   1     -17.608  15.182   9.803 +0.02 -0.04    +0.222 HD
DOCKED: ENDBRANCH  43  47
DOCKED: ENDBRANCH  42  43
DOCKED: ENDBRANCH   4  42
DOCKED: TORSDOF 24
DOCKED: TER
DOCKED: ENDMDL
________________________________________________________________________________


	BEGINNING GENETIC ALGORITHM DOCKING 3 of 100
Run: 3 Seed: 1829931574 1626306787 [ Run 3 of 100 GA/GALS ]
Beginning LAMARCKIAN GENETIC ALGORITHM (LGA), with a maximum of 25000000 energy evaluations.

Final-Value: -17.819


	FINAL GENETIC ALGORITHM DOCKED STATE
	_______________________________________________


Detailed state:  trans 0.997 -11.069 -15.955 quatxyzw 0.638091 0.528228 -0.484734 -0.280800 center 0.035 0.082 -0.065 ntor 24 -163.3334 53.6718 92.4450 93.1165 53.9322 -20.8122 -46.0713 -34.1179 -11.3774 29.1962 179.5658 138.9528 15.9840 89.4065 -60.6513 29.0234 163.1222 179.9081 -129.8758 -15.3835 -173.2787 -34.0128 -176.5562 34.9647
State:	  0.997 -11.069 -15.955   0.665  0.550 -0.505 -147.384   -163.33   53.67   92.44   93.12   53.93  -20.81  -46.07  -34.12  -11.38   29.20  179.57  138.95   15.98   89.41  -60.65   29.02  163.12  179.91 -129.88  -15.38 -173.28  -34.01 -176.56   34.96

DOCKED: MODEL        3
DOCKED: USER    Run = 3
DOCKED: USER    DPF = D:/Protein_go_brrr/autodock/final/AncMH_nat/IHP/dock.dpf
DOCKED: USER  
DOCKED: USER    Estimated Free Energy of Binding    =   +3.69 kcal/mol  [=(1)+(2)+(3)-(4)]
DOCKED: USER    
DOCKED: USER    (1) Final Intermolecular Energy     =   -3.47 kcal/mol
DOCKED: USER        vdW + Hbond + desolv Energy     =   -3.29 kcal/mol
DOCKED: USER        Electrostatic Energy            =   -0.18 kcal/mol
DOCKED: USER    (2) Final Total Internal Energy     =  -14.35 kcal/mol
DOCKED: USER    (3) Torsional Free Energy           =   +7.16 kcal/mol
DOCKED: USER    (4) Unbound System's Energy  [=(2)] =  -14.35 kcal/mol
DOCKED: USER    
DOCKED: USER    
DOCKED: USER    NEWDPF move IHP_ideal_opt.pdbqt
DOCKED: USER    NEWDPF about 0.035000 0.082000 -0.065000
DOCKED: USER    NEWDPF tran0 0.996573 -11.069176 -15.954600
DOCKED: USER    NEWDPF quaternion0 0.638091 0.528228 -0.484734 -0.280800
DOCKED: USER    NEWDPF axisangle0 0.664840 0.550371 -0.505054 -147.384105
DOCKED: USER    NEWDPF quat0 0.664840 0.550371 -0.505054 -147.384105
DOCKED: USER    NEWDPF dihe0 -163.33 53.67 92.44 93.12 53.93 -20.81 -46.07 -34.12 -11.38 29.20 179.57 138.95 15.98 89.41 -60.65 29.02 163.12 179.91 -129.88 -15.38 -173.28 -34.01 -176.56 34.96 
DOCKED: USER  keepresnum = 1 
DOCKED: USER  
DOCKED: REMARK  24 active torsions:
DOCKED: REMARK  status: ('A' for Active; 'I' for Inactive)
DOCKED: REMARK    1  A    between atoms: C_1  and  O_7 
DOCKED: REMARK    2  A    between atoms: C_2  and  O_12 
DOCKED: REMARK    3  A    between atoms: C_3  and  O_17 
DOCKED: REMARK    4  A    between atoms: C_4  and  O_22 
DOCKED: REMARK    5  A    between atoms: C_5  and  O_27 
DOCKED: REMARK    6  A    between atoms: C_6  and  O_32 
DOCKED: REMARK    7  A    between atoms: O_7  and  P_8 
DOCKED: REMARK    8  A    between atoms: P_8  and  O_10 
DOCKED: REMARK    9  A    between atoms: P_8  and  O_11 
DOCKED: REMARK   10  A    between atoms: O_12  and  P_13 
DOCKED: REMARK   11  A    between atoms: P_13  and  O_15 
DOCKED: REMARK   12  A    between atoms: P_13  and  O_16 
DOCKED: REMARK   13  A    between atoms: O_17  and  P_18 
DOCKED: REMARK   14  A    between atoms: P_18  and  O_20 
DOCKED: REMARK   15  A    between atoms: P_18  and  O_21 
DOCKED: REMARK   16  A    between atoms: O_22  and  P_23 
DOCKED: REMARK   17  A    between atoms: P_23  and  O_25 
DOCKED: REMARK   18  A    between atoms: P_23  and  O_26 
DOCKED: REMARK   19  A    between atoms: O_27  and  P_28 
DOCKED: REMARK   20  A    between atoms: P_28  and  O_30 
DOCKED: REMARK   21  A    between atoms: P_28  and  O_31 
DOCKED: REMARK   22  A    between atoms: O_32  and  P_33 
DOCKED: REMARK   23  A    between atoms: P_33  and  O_35 
DOCKED: REMARK   24  A    between atoms: P_33  and  O_36 
DOCKED: USER                              x       y       z     vdW  Elec       q    Type
DOCKED: USER                           _______ _______ _______ _____ _____    ______ ____
DOCKED: ROOT
DOCKED: ATOM      1  C   UNL d   1      -0.134 -11.002 -17.259 -0.01 -0.02    +0.194 C 
DOCKED: ATOM      2  C   UNL d   1      -0.741 -10.954 -15.856 -0.04 -0.02    +0.194 C 
DOCKED: ATOM      3  C   UNL d   1      -0.078 -11.964 -14.917 -0.07 -0.03    +0.194 C 
DOCKED: ATOM      4  C   UNL d   1       1.445 -11.852 -14.892 -0.07 -0.03    +0.194 C 
DOCKED: ATOM      5  C   UNL d   1       2.085 -11.781 -16.272 -0.02 -0.02    +0.194 C 
DOCKED: ATOM      6  C   UNL d   1       1.384 -10.816 -17.231 -0.01 -0.02    +0.194 C 
DOCKED: ENDROOT
DOCKED: BRANCH   1   7
DOCKED: ATOM      7  O   UNL d   1      -0.681  -9.922 -18.019 -0.00 +0.02    -0.278 OA
DOCKED: BRANCH   7   8
DOCKED: ATOM      8  P   UNL d   1       0.261  -8.675 -18.353 +0.00 -0.03    +0.473 P 
DOCKED: ATOM      9  O   UNL d   1       1.383  -8.963 -19.286 -0.00 +0.02    -0.228 OA
DOCKED: BRANCH   8  10
DOCKED: ATOM     10  O   UNL d   1      -0.746  -7.567 -18.905 -0.00 +0.02    -0.303 OA
DOCKED: ATOM     11  H   UNL d   1      -1.575  -7.593 -18.391 +0.01 -0.01    +0.222 HD
DOCKED: ENDBRANCH   8  10
DOCKED: BRANCH   8  12
DOCKED: ATOM     12  O   UNL d   1       0.670  -8.077 -16.939 -0.02 +0.02    -0.303 OA
DOCKED: ATOM     13  H   UNL d   1       0.392  -8.644 -16.185 +0.04 -0.02    +0.222 HD
DOCKED: ENDBRANCH   8  12
DOCKED: ENDBRANCH   7   8
DOCKED: ENDBRANCH   1   7
DOCKED: BRANCH   2  14
DOCKED: ATOM     14  O   UNL d   1      -0.560  -9.639 -15.314 -0.09 +0.04    -0.278 OA
DOCKED: BRANCH  14  15
DOCKED: ATOM     15  P   UNL d   1      -1.890  -8.800 -15.013 -0.08 -0.06    +0.473 P 
DOCKED: ATOM     16  O   UNL d   1      -1.862  -7.904 -13.815 -0.26 +0.04    -0.228 OA
DOCKED: BRANCH  15  17
DOCKED: ATOM     17  O   UNL d   1      -2.166  -8.011 -16.368 -0.02 +0.02    -0.303 OA
DOCKED: ATOM     18  H   UNL d   1      -1.459  -8.175 -17.021 +0.03 -0.01    +0.222 HD
DOCKED: ENDBRANCH  15  17
DOCKED: BRANCH  15  19
DOCKED: ATOM     19  O   UNL d   1      -3.055  -9.884 -15.031 -0.03 +0.03    -0.303 OA
DOCKED: ATOM     20  H   UNL d   1      -2.750 -10.747 -14.696 +0.03 -0.03    +0.222 HD
DOCKED: ENDBRANCH  15  19
DOCKED: ENDBRANCH  14  15
DOCKED: ENDBRANCH   2  14
DOCKED: BRANCH   6  21
DOCKED: ATOM     21  O   UNL d   1       1.867 -11.112 -18.539 -0.00 +0.02    -0.278 OA
DOCKED: BRANCH  21  22
DOCKED: ATOM     22  P   UNL d   1       1.193 -12.286 -19.385 -0.00 -0.03    +0.473 P 
DOCKED: ATOM     23  O   UNL d   1       0.614 -13.444 -18.645 +0.00 +0.01    -0.228 OA
DOCKED: BRANCH  22  24
DOCKED: ATOM     24  O   UNL d   1       0.155 -11.483 -20.286 +0.00 +0.02    -0.303 OA
DOCKED: ATOM     25  H   UNL d   1       0.087 -10.561 -19.930 +0.00 -0.01    +0.222 HD
DOCKED: ENDBRANCH  22  24
DOCKED: BRANCH  22  26
DOCKED: ATOM     26  O   UNL d   1       2.349 -12.632 -20.440 +0.00 +0.02    -0.303 OA
DOCKED: ATOM     27  H   UNL d   1       2.152 -13.493 -20.863 +0.00 -0.01    +0.222 HD
DOCKED: ENDBRANCH  22  26
DOCKED: ENDBRANCH  21  22
DOCKED: ENDBRANCH   6  21
DOCKED: BRANCH   3  28
DOCKED: ATOM     28  O   UNL d   1      -0.501 -11.660 -13.594 -0.14 +0.10    -0.278 OA
DOCKED: BRANCH  28  29
DOCKED: ATOM     29  P   UNL d   1      -1.960 -12.067 -13.102 -0.07 -0.14    +0.473 P 
DOCKED: ATOM     30  O   UNL d   1      -2.777 -12.826 -14.083 -0.02 +0.03    -0.228 OA
DOCKED: BRANCH  29  31
DOCKED: ATOM     31  O   UNL d   1      -1.595 -12.809 -11.732 -0.09 +0.15    -0.303 OA
DOCKED: ATOM     32  H   UNL d   1      -0.629 -12.711 -11.569 -0.44 -0.20    +0.222 HD
DOCKED: ENDBRANCH  29  31
DOCKED: BRANCH  29  33
DOCKED: ATOM     33  O   UNL d   1      -2.545 -10.674 -12.602 -0.02 +0.12    -0.303 OA
DOCKED: ATOM     34  H   UNL d   1      -2.078  -9.941 -13.074 -0.42 -0.10    +0.222 HD
DOCKED: ENDBRANCH  29  33
DOCKED: ENDBRANCH  28  29
DOCKED: ENDBRANCH   3  28
DOCKED: BRANCH   5  35
DOCKED: ATOM     35  O   UNL d   1       3.403 -11.280 -16.062 -0.01 +0.02    -0.278 OA
DOCKED: BRANCH  35  36
DOCKED: ATOM     36  P   UNL d   1       3.644 -10.023 -15.109 -0.02 -0.04    +0.473 P 
DOCKED: ATOM     37  O   UNL d   1       4.850  -9.196 -15.425 -0.04 +0.02    -0.228 OA
DOCKED: BRANCH  36  38
DOCKED: ATOM     38  O   UNL d   1       2.263  -9.242 -15.244 -0.07 +0.02    -0.303 OA
DOCKED: ATOM     39  H   UNL d   1       2.274  -8.708 -16.068 +0.04 -0.02    +0.222 HD
DOCKED: ENDBRANCH  36  38
DOCKED: BRANCH  36  40
DOCKED: ATOM     40  O   UNL d   1       3.575 -10.676 -13.661 -0.08 +0.02    -0.303 OA
DOCKED: ATOM     41  H   UNL d   1       3.220 -11.591 -13.691 +0.04 -0.02    +0.222 HD
DOCKED: ENDBRANCH  36  40
DOCKED: ENDBRANCH  35  36
DOCKED: ENDBRANCH   5  35
DOCKED: BRANCH   4  42
DOCKED: ATOM     42  O   UNL d   1       1.937 -13.038 -14.260 -0.04 +0.04    -0.278 OA
DOCKED: BRANCH  42  43
DOCKED: ATOM     43  P   UNL d   1       1.823 -13.172 -12.674 -0.08 -0.10    +0.473 P 
DOCKED: ATOM     44  O   UNL d   1       3.023 -13.658 -11.938 -0.67 +0.01    -0.228 OA
DOCKED: BRANCH  43  45
DOCKED: ATOM     45  O   UNL d   1       1.334 -11.722 -12.236 -0.18 +0.12    -0.303 OA
DOCKED: ATOM     46  H   UNL d   1       0.393 -11.726 -11.971 -0.26 -0.18    +0.222 HD
DOCKED: ENDBRANCH  43  45
DOCKED: BRANCH  43  47
DOCKED: ATOM     47  O   UNL d   1       0.490 -14.039 -12.474 -0.10 +0.10    -0.303 OA
DOCKED: ATOM     48  H   UNL d   1      -0.198 -13.721 -13.095 +0.02 -0.06    +0.222 HD
DOCKED: ENDBRANCH  43  47
DOCKED: ENDBRANCH  42  43
DOCKED: ENDBRANCH   4  42
DOCKED: TORSDOF 24
DOCKED: TER
DOCKED: ENDMDL
________________________________________________________________________________


	BEGINNING GENETIC ALGORITHM DOCKING 4 of 100
Run: 4 Seed: 663215573 539995173 [ Run 4 of 100 GA/GALS ]
Beginning LAMARCKIAN GENETIC ALGORITHM (LGA), with a maximum of 25000000 energy evaluations.

Final-Value: -17.124


	FINAL GENETIC ALGORITHM DOCKED STATE
	_______________________________________________


Detailed state:  trans 9.770 20.036 2.008 quatxyzw 0.406561 0.215243 0.811526 0.360284 center 0.035 0.082 -0.065 ntor 24 -170.1455 -149.5790 147.9897 23.9465 11.6801 -38.5036 170.7654 -105.5297 71.3687 98.8451 55.0067 -12.7053 89.8822 -138.6815 -103.7061 -54.2158 39.3193 -83.4837 -2.3789 -1.8355 -8.7560 148.8563 -175.5342 -154.4984
State:	  9.770  20.036   2.008   0.436  0.231  0.870 137.765   -170.15 -149.58  147.99   23.95   11.68  -38.50  170.77 -105.53   71.37   98.85   55.01  -12.71   89.88 -138.68 -103.71  -54.22   39.32  -83.48   -2.38   -1.84   -8.76  148.86 -175.53 -154.50

DOCKED: MODEL        4
DOCKED: USER    Run = 4
DOCKED: USER    DPF = D:/Protein_go_brrr/autodock/final/AncMH_nat/IHP/dock.dpf
DOCKED: USER  
DOCKED: USER    Estimated Free Energy of Binding    =   +2.67 kcal/mol  [=(1)+(2)+(3)-(4)]
DOCKED: USER    
DOCKED: USER    (1) Final Intermolecular Energy     =   -4.49 kcal/mol
DOCKED: USER        vdW + Hbond + desolv Energy     =   -4.11 kcal/mol
DOCKED: USER        Electrostatic Energy            =   -0.38 kcal/mol
DOCKED: USER    (2) Final Total Internal Energy     =  -12.64 kcal/mol
DOCKED: USER    (3) Torsional Free Energy           =   +7.16 kcal/mol
DOCKED: USER    (4) Unbound System's Energy  [=(2)] =  -12.64 kcal/mol
DOCKED: USER    
DOCKED: USER    
DOCKED: USER    NEWDPF move IHP_ideal_opt.pdbqt
DOCKED: USER    NEWDPF about 0.035000 0.082000 -0.065000
DOCKED: USER    NEWDPF tran0 9.770328 20.036299 2.008092
DOCKED: USER    NEWDPF quaternion0 0.406561 0.215243 0.811526 0.360284
DOCKED: USER    NEWDPF axisangle0 0.435830 0.230739 0.869949 137.764710
DOCKED: USER    NEWDPF quat0 0.435830 0.230739 0.869949 137.764710
DOCKED: USER    NEWDPF dihe0 -170.15 -149.58 147.99 23.95 11.68 -38.50 170.77 -105.53 71.37 98.85 55.01 -12.71 89.88 -138.68 -103.71 -54.22 39.32 -83.48 -2.38 -1.84 -8.76 148.86 -175.53 -154.50 
DOCKED: USER  keepresnum = 1 
DOCKED: USER  
DOCKED: REMARK  24 active torsions:
DOCKED: REMARK  status: ('A' for Active; 'I' for Inactive)
DOCKED: REMARK    1  A    between atoms: C_1  and  O_7 
DOCKED: REMARK    2  A    between atoms: C_2  and  O_12 
DOCKED: REMARK    3  A    between atoms: C_3  and  O_17 
DOCKED: REMARK    4  A    between atoms: C_4  and  O_22 
DOCKED: REMARK    5  A    between atoms: C_5  and  O_27 
DOCKED: REMARK    6  A    between atoms: C_6  and  O_32 
DOCKED: REMARK    7  A    between atoms: O_7  and  P_8 
DOCKED: REMARK    8  A    between atoms: P_8  and  O_10 
DOCKED: REMARK    9  A    between atoms: P_8  and  O_11 
DOCKED: REMARK   10  A    between atoms: O_12  and  P_13 
DOCKED: REMARK   11  A    between atoms: P_13  and  O_15 
DOCKED: REMARK   12  A    between atoms: P_13  and  O_16 
DOCKED: REMARK   13  A    between atoms: O_17  and  P_18 
DOCKED: REMARK   14  A    between atoms: P_18  and  O_20 
DOCKED: REMARK   15  A    between atoms: P_18  and  O_21 
DOCKED: REMARK   16  A    between atoms: O_22  and  P_23 
DOCKED: REMARK   17  A    between atoms: P_23  and  O_25 
DOCKED: REMARK   18  A    between atoms: P_23  and  O_26 
DOCKED: REMARK   19  A    between atoms: O_27  and  P_28 
DOCKED: REMARK   20  A    between atoms: P_28  and  O_30 
DOCKED: REMARK   21  A    between atoms: P_28  and  O_31 
DOCKED: REMARK   22  A    between atoms: O_32  and  P_33 
DOCKED: REMARK   23  A    between atoms: P_33  and  O_35 
DOCKED: REMARK   24  A    between atoms: P_33  and  O_36 
DOCKED: USER                              x       y       z     vdW  Elec       q    Type
DOCKED: USER                           _______ _______ _______ _____ _____    ______ ____
DOCKED: ROOT
DOCKED: ATOM      1  C   UNL d   1       8.981  20.606   3.435 -0.09 +0.07    +0.194 C 
DOCKED: ATOM      2  C   UNL d   1       8.696  21.401   2.160 -0.07 +0.05    +0.194 C 
DOCKED: ATOM      3  C   UNL d   1       9.966  21.632   1.339 -0.02 +0.02    +0.194 C 
DOCKED: ATOM      4  C   UNL d   1      10.741  20.347   1.057 -0.04 +0.01    +0.194 C 
DOCKED: ATOM      5  C   UNL d   1      10.950  19.466   2.282 -0.04 +0.02    +0.194 C 
DOCKED: ATOM      6  C   UNL d   1       9.693  19.286   3.137 -0.12 +0.05    +0.194 C 
DOCKED: ENDROOT
DOCKED: BRANCH   1   7
DOCKED: ATOM      7  O   UNL d   1       7.731  20.287   4.051 -0.21 -0.28    -0.278 OA
DOCKED: BRANCH   7   8
DOCKED: ATOM      8  P   UNL d   1       7.503  20.718   5.572 -0.04 +0.41    +0.473 P 
DOCKED: ATOM      9  O   UNL d   1       6.132  21.201   5.892 -0.08 -0.27    -0.228 OA
DOCKED: BRANCH   8  10
DOCKED: ATOM     10  O   UNL d   1       7.923  19.425   6.408 -0.11 -0.18    -0.303 OA
DOCKED: ATOM     11  H   UNL d   1       8.634  18.950   5.939 +0.03 +0.10    +0.222 HD
DOCKED: ENDBRANCH   8  10
DOCKED: BRANCH   8  12
DOCKED: ATOM     12  O   UNL d   1       8.687  21.725   5.899 -0.00 -0.10    -0.303 OA
DOCKED: ATOM     13  H   UNL d   1       8.538  22.241   6.723 +0.01 +0.05    +0.222 HD
DOCKED: ENDBRANCH   8  12
DOCKED: ENDBRANCH   7   8
DOCKED: ENDBRANCH   1   7
DOCKED: BRANCH   2  14
DOCKED: ATOM     14  O   UNL d   1       7.759  20.674   1.356 -0.10 -0.07    -0.278 OA
DOCKED: BRANCH  14  15
DOCKED: ATOM     15  P   UNL d   1       6.483  21.487   0.831 -0.02 +0.17    +0.473 P 
DOCKED: ATOM     16  O   UNL d   1       5.331  21.614   1.777 -0.72 -0.22    -0.228 OA
DOCKED: BRANCH  15  17
DOCKED: ATOM     17  O   UNL d   1       7.078  22.898   0.389 -0.01 -0.06    -0.303 OA
DOCKED: ATOM     18  H   UNL d   1       7.831  22.786  -0.222 +0.03 +0.03    +0.222 HD
DOCKED: ENDBRANCH  15  17
DOCKED: BRANCH  15  19
DOCKED: ATOM     19  O   UNL d   1       6.145  20.828  -0.577 -0.15 -0.05    -0.303 OA
DOCKED: ATOM     20  H   UNL d   1       6.953  20.563  -1.054 +0.04 +0.02    +0.222 HD
DOCKED: ENDBRANCH  15  19
DOCKED: ENDBRANCH  14  15
DOCKED: ENDBRANCH   2  14
DOCKED: BRANCH   6  21
DOCKED: ATOM     21  O   UNL d   1      10.118  18.748   4.387 -0.04 -0.06    -0.278 OA
DOCKED: BRANCH  21  22
DOCKED: ATOM     22  P   UNL d   1       9.736  17.248   4.774 -0.08 +0.11    +0.473 P 
DOCKED: ATOM     23  O   UNL d   1       8.325  16.958   5.160 -0.18 -0.10    -0.228 OA
DOCKED: BRANCH  22  24
DOCKED: ATOM     24  O   UNL d   1      10.262  16.441   3.508 -0.13 -0.05    -0.303 OA
DOCKED: ATOM     25  H   UNL d   1       9.854  16.839   2.697 +0.05 +0.05    +0.222 HD
DOCKED: ENDBRANCH  22  24
DOCKED: BRANCH  22  26
DOCKED: ATOM     26  O   UNL d   1      10.850  16.902   5.874 -0.02 -0.03    -0.303 OA
DOCKED: ATOM     27  H   UNL d   1      10.470  16.289   6.536 +0.02 +0.02    +0.222 HD
DOCKED: ENDBRANCH  22  26
DOCKED: ENDBRANCH  21  22
DOCKED: ENDBRANCH   6  21
DOCKED: BRANCH   3  28
DOCKED: ATOM     28  O   UNL d   1       9.570  22.121   0.065 -0.01 -0.02    -0.278 OA
DOCKED: BRANCH  28  29
DOCKED: ATOM     29  P   UNL d   1       9.516  21.143  -1.191 -0.05 +0.01    +0.473 P 
DOCKED: ATOM     30  O   UNL d   1      10.821  20.866  -1.844 -0.05 -0.00    -0.228 OA
DOCKED: BRANCH  29  31
DOCKED: ATOM     31  O   UNL d   1       8.750  19.897  -0.542 -0.15 +0.01    -0.303 OA
DOCKED: ATOM     32  H   UNL d   1       9.186  19.067  -0.845 -0.55 -0.06    +0.222 HD
DOCKED: ENDBRANCH  29  31
DOCKED: BRANCH  29  33
DOCKED: ATOM     33  O   UNL d   1       8.390  21.818  -2.092 -0.05 -0.02    -0.303 OA
DOCKED: ATOM     34  H   UNL d   1       7.615  22.044  -1.521 +0.03 +0.02    +0.222 HD
DOCKED: ENDBRANCH  29  33
DOCKED: ENDBRANCH  28  29
DOCKED: ENDBRANCH   3  28
DOCKED: BRANCH   5  35
DOCKED: ATOM     35  O   UNL d   1      11.302  18.179   1.778 -0.06 -0.03    -0.278 OA
DOCKED: BRANCH  35  36
DOCKED: ATOM     36  P   UNL d   1      10.491  17.541   0.563 -0.18 +0.06    +0.473 P 
DOCKED: ATOM     37  O   UNL d   1      10.925  17.975  -0.801 -0.23 +0.02    -0.228 OA
DOCKED: BRANCH  36  38
DOCKED: ATOM     38  O   UNL d   1      10.662  15.982   0.838 -0.27 -0.05    -0.303 OA
DOCKED: ATOM     39  H   UNL d   1      11.183  15.857   1.661 +0.06 +0.03    +0.222 HD
DOCKED: ENDBRANCH  36  38
DOCKED: BRANCH  36  40
DOCKED: ATOM     40  O   UNL d   1       8.982  17.838   0.968 -0.45 -0.09    -0.303 OA
DOCKED: ATOM     41  H   UNL d   1       8.823  18.798   1.102 -0.06 +0.03    +0.222 HD
DOCKED: ENDBRANCH  36  40
DOCKED: ENDBRANCH  35  36
DOCKED: ENDBRANCH   5  35
DOCKED: BRANCH   4  42
DOCKED: ATOM     42  O   UNL d   1      12.038  20.738   0.594 -0.00 -0.01    -0.278 OA
DOCKED: BRANCH  42  43
DOCKED: ATOM     43  P   UNL d   1      13.234  20.841   1.646 +0.01 +0.01    +0.473 P 
DOCKED: ATOM     44  O   UNL d   1      12.913  21.372   3.000 +0.00 -0.01    -0.228 OA
DOCKED: BRANCH  43  45
DOCKED: ATOM     45  O   UNL d   1      13.824  19.363   1.649 +0.00 -0.00    -0.303 OA
DOCKED: ATOM     46  H   UNL d   1      13.187  18.722   1.273 +0.02 +0.01    +0.222 HD
DOCKED: ENDBRANCH  43  45
DOCKED: BRANCH  43  47
DOCKED: ATOM     47  O   UNL d   1      14.364  21.641   0.838 +0.00 +0.00    -0.303 OA
DOCKED: ATOM     48  H   UNL d   1      15.053  21.946   1.464 +0.00 -0.00    +0.222 HD
DOCKED: ENDBRANCH  43  47
DOCKED: ENDBRANCH  42  43
DOCKED: ENDBRANCH   4  42
DOCKED: TORSDOF 24
DOCKED: TER
DOCKED: ENDMDL
________________________________________________________________________________


	BEGINNING GENETIC ALGORITHM DOCKING 5 of 100
Run: 5 Seed: 1491593792 1130349787 [ Run 5 of 100 GA/GALS ]
Beginning LAMARCKIAN GENETIC ALGORITHM (LGA), with a maximum of 25000000 energy evaluations.

Final-Value: -16.863


	FINAL GENETIC ALGORITHM DOCKED STATE
	_______________________________________________


Detailed state:  trans -10.166 -9.316 18.645 quatxyzw -0.091836 -0.848103 0.231674 -0.467562 center 0.035 0.082 -0.065 ntor 24 120.4110 72.6696 169.3749 -27.7116 21.8257 -135.8472 73.6732 -63.1319 81.3418 60.0423 -12.9947 81.0101 27.0705 82.1698 6.9515 -159.3159 3.7928 149.9813 1.4875 -47.1432 148.4182 3.6756 118.5113 -179.1040
State:	-10.166  -9.316  18.645  -0.104 -0.959  0.262 -124.248    120.41   72.67  169.37  -27.71   21.83 -135.85   73.67  -63.13   81.34   60.04  -12.99   81.01   27.07   82.17    6.95 -159.32    3.79  149.98    1.49  -47.14  148.42    3.68  118.51 -179.10

DOCKED: MODEL        5
DOCKED: USER    Run = 5
DOCKED: USER    DPF = D:/Protein_go_brrr/autodock/final/AncMH_nat/IHP/dock.dpf
DOCKED: USER  
DOCKED: USER    Estimated Free Energy of Binding    =   +1.92 kcal/mol  [=(1)+(2)+(3)-(4)]
DOCKED: USER    
DOCKED: USER    (1) Final Intermolecular Energy     =   -5.24 kcal/mol
DOCKED: USER        vdW + Hbond + desolv Energy     =   -4.96 kcal/mol
DOCKED: USER        Electrostatic Energy            =   -0.28 kcal/mol
DOCKED: USER    (2) Final Total Internal Energy     =  -11.63 kcal/mol
DOCKED: USER    (3) Torsional Free Energy           =   +7.16 kcal/mol
DOCKED: USER    (4) Unbound System's Energy  [=(2)] =  -11.63 kcal/mol
DOCKED: USER    
DOCKED: USER    
DOCKED: USER    NEWDPF move IHP_ideal_opt.pdbqt
DOCKED: USER    NEWDPF about 0.035000 0.082000 -0.065000
DOCKED: USER    NEWDPF tran0 -10.166268 -9.316143 18.644771
DOCKED: USER    NEWDPF quaternion0 -0.091836 -0.848103 0.231674 -0.467562
DOCKED: USER    NEWDPF axisangle0 -0.103892 -0.959436 0.262086 -124.247684
DOCKED: USER    NEWDPF quat0 -0.103892 -0.959436 0.262086 -124.247684
DOCKED: USER    NEWDPF dihe0 120.41 72.67 169.37 -27.71 21.83 -135.85 73.67 -63.13 81.34 60.04 -12.99 81.01 27.07 82.17 6.95 -159.32 3.79 149.98 1.49 -47.14 148.42 3.68 118.51 -179.10 
DOCKED: USER  keepresnum = 1 
DOCKED: USER  
DOCKED: REMARK  24 active torsions:
DOCKED: REMARK  status: ('A' for Active; 'I' for Inactive)
DOCKED: REMARK    1  A    between atoms: C_1  and  O_7 
DOCKED: REMARK    2  A    between atoms: C_2  and  O_12 
DOCKED: REMARK    3  A    between atoms: C_3  and  O_17 
DOCKED: REMARK    4  A    between atoms: C_4  and  O_22 
DOCKED: REMARK    5  A    between atoms: C_5  and  O_27 
DOCKED: REMARK    6  A    between atoms: C_6  and  O_32 
DOCKED: REMARK    7  A    between atoms: O_7  and  P_8 
DOCKED: REMARK    8  A    between atoms: P_8  and  O_10 
DOCKED: REMARK    9  A    between atoms: P_8  and  O_11 
DOCKED: REMARK   10  A    between atoms: O_12  and  P_13 
DOCKED: REMARK   11  A    between atoms: P_13  and  O_15 
DOCKED: REMARK   12  A    between atoms: P_13  and  O_16 
DOCKED: REMARK   13  A    between atoms: O_17  and  P_18 
DOCKED: REMARK   14  A    between atoms: P_18  and  O_20 
DOCKED: REMARK   15  A    between atoms: P_18  and  O_21 
DOCKED: REMARK   16  A    between atoms: O_22  and  P_23 
DOCKED: REMARK   17  A    between atoms: P_23  and  O_25 
DOCKED: REMARK   18  A    between atoms: P_23  and  O_26 
DOCKED: REMARK   19  A    between atoms: O_27  and  P_28 
DOCKED: REMARK   20  A    between atoms: P_28  and  O_30 
DOCKED: REMARK   21  A    between atoms: P_28  and  O_31 
DOCKED: REMARK   22  A    between atoms: O_32  and  P_33 
DOCKED: REMARK   23  A    between atoms: P_33  and  O_35 
DOCKED: REMARK   24  A    between atoms: P_33  and  O_36 
DOCKED: USER                              x       y       z     vdW  Elec       q    Type
DOCKED: USER                           _______ _______ _______ _____ _____    ______ ____
DOCKED: ROOT
DOCKED: ATOM      1  C   UNL d   1     -11.457  -9.870  19.650 -0.03 +0.02    +0.194 C 
DOCKED: ATOM      2  C   UNL d   1     -10.419 -10.926  19.267 -0.03 +0.02    +0.194 C 
DOCKED: ATOM      3  C   UNL d   1     -10.029 -10.827  17.790 -0.11 +0.04    +0.194 C 
DOCKED: ATOM      4  C   UNL d   1      -9.604  -9.421  17.374 -0.20 +0.04    +0.194 C 
DOCKED: ATOM      5  C   UNL d   1     -10.553  -8.323  17.836 -0.19 +0.04    +0.194 C 
DOCKED: ATOM      6  C   UNL d   1     -10.992  -8.457  19.295 -0.06 +0.03    +0.194 C 
DOCKED: ENDROOT
DOCKED: BRANCH   1   7
DOCKED: ATOM      7  O   UNL d   1     -11.637  -9.916  21.068 -0.00 -0.02    -0.278 OA
DOCKED: BRANCH   7   8
DOCKED: ATOM      8  P   UNL d   1     -13.098 -10.219  21.638 +0.01 +0.04    +0.473 P 
DOCKED: ATOM      9  O   UNL d   1     -13.503 -11.651  21.608 -0.00 -0.01    -0.228 OA
DOCKED: BRANCH   8  10
DOCKED: ATOM     10  O   UNL d   1     -13.075  -9.604  23.109 +0.00 -0.01    -0.303 OA
DOCKED: ATOM     11  H   UNL d   1     -12.199  -9.753  23.512 +0.00 +0.00    +0.222 HD
DOCKED: ENDBRANCH   8  10
DOCKED: BRANCH   8  12
DOCKED: ATOM     12  O   UNL d   1     -14.058  -9.211  20.871 -0.01 -0.06    -0.303 OA
DOCKED: ATOM     13  H   UNL d   1     -13.719  -8.956  19.984 +0.03 +0.07    +0.222 HD
DOCKED: ENDBRANCH   8  12
DOCKED: ENDBRANCH   7   8
DOCKED: ENDBRANCH   1   7
DOCKED: BRANCH   2  14
DOCKED: ATOM     14  O   UNL d   1      -9.243 -10.735  20.063 -0.01 -0.01    -0.278 OA
DOCKED: BRANCH  14  15
DOCKED: ATOM     15  P   UNL d   1      -9.244 -11.411  21.515 +0.00 -0.00    +0.473 P 
DOCKED: ATOM     16  O   UNL d   1      -7.980 -12.089  21.941 -0.00 +0.01    -0.228 OA
DOCKED: BRANCH  15  17
DOCKED: ATOM     17  O   UNL d   1      -9.672 -10.229  22.493 -0.00 +0.00    -0.303 OA
DOCKED: ATOM     18  H   UNL d   1     -10.623 -10.027  22.405 +0.00 +0.00    +0.222 HD
DOCKED: ENDBRANCH  15  17
DOCKED: BRANCH  15  19
DOCKED: ATOM     19  O   UNL d   1     -10.548 -12.323  21.526 +0.00 +0.00    -0.303 OA
DOCKED: ATOM     20  H   UNL d   1     -11.334 -11.823  21.814 +0.00 +0.00    +0.222 HD
DOCKED: ENDBRANCH  15  19
DOCKED: ENDBRANCH  14  15
DOCKED: ENDBRANCH   2  14
DOCKED: BRANCH   6  21
DOCKED: ATOM     21  O   UNL d   1     -12.112  -7.592  19.471 -0.05 -0.07    -0.278 OA
DOCKED: BRANCH  21  22
DOCKED: ATOM     22  P   UNL d   1     -13.288  -7.591  18.393 -0.10 +0.29    +0.473 P 
DOCKED: ATOM     23  O   UNL d   1     -13.676  -8.890  17.772 -0.14 -0.17    -0.228 OA
DOCKED: BRANCH  22  24
DOCKED: ATOM     24  O   UNL d   1     -14.455  -6.855  19.186 -0.09 -0.23    -0.303 OA
DOCKED: ATOM     25  H   UNL d   1     -14.487  -7.228  20.104 +0.03 +0.10    +0.222 HD
DOCKED: ENDBRANCH  22  24
DOCKED: BRANCH  22  26
DOCKED: ATOM     26  O   UNL d   1     -12.802  -6.445  17.382 -0.22 -0.18    -0.303 OA
DOCKED: ATOM     27  H   UNL d   1     -11.871  -6.613  17.129 +0.11 +0.10    +0.222 HD
DOCKED: ENDBRANCH  22  26
DOCKED: ENDBRANCH  21  22
DOCKED: ENDBRANCH   6  21
DOCKED: BRANCH   3  28
DOCKED: ATOM     28  O   UNL d   1      -8.880 -11.641  17.595 -0.09 -0.08    -0.278 OA
DOCKED: BRANCH  28  29
DOCKED: ATOM     29  P   UNL d   1      -8.961 -12.940  16.676 -0.13 +0.25    +0.473 P 
DOCKED: ATOM     30  O   UNL d   1      -7.673 -13.644  16.447 -0.27 -0.11    -0.228 OA
DOCKED: BRANCH  29  31
DOCKED: ATOM     31  O   UNL d   1     -10.107 -13.753  17.442 -0.10 -0.01    -0.303 OA
DOCKED: ATOM     32  H   UNL d   1     -10.820 -13.972  16.799 -0.17 -0.03    +0.222 HD
DOCKED: ENDBRANCH  29  31
DOCKED: BRANCH  29  33
DOCKED: ATOM     33  O   UNL d   1      -9.720 -12.391  15.389 -0.20 -0.47    -0.303 OA
DOCKED: ATOM     34  H   UNL d   1      -9.978 -11.449  15.545 +0.04 +0.23    +0.222 HD
DOCKED: ENDBRANCH  29  33
DOCKED: ENDBRANCH  28  29
DOCKED: ENDBRANCH   3  28
DOCKED: BRANCH   5  35
DOCKED: ATOM     35  O   UNL d   1      -9.819  -7.105  17.728 -0.26 -0.03    -0.278 OA
DOCKED: BRANCH  35  36
DOCKED: ATOM     36  P   UNL d   1      -9.375  -6.315  19.041 -0.18 +0.02    +0.473 P 
DOCKED: ATOM     37  O   UNL d   1      -8.725  -7.143  20.104 -0.08 +0.00    -0.228 OA
DOCKED: BRANCH  36  38
DOCKED: ATOM     38  O   UNL d   1      -8.441  -5.176  18.436 -0.32 +0.02    -0.303 OA
DOCKED: ATOM     39  H   UNL d   1      -8.544  -5.161  17.460 -0.33 -0.03    +0.222 HD
DOCKED: ENDBRANCH  36  38
DOCKED: BRANCH  36  40
DOCKED: ATOM     40  O   UNL d   1     -10.708  -5.545  19.441 -0.13 -0.03    -0.303 OA
DOCKED: ATOM     41  H   UNL d   1     -11.500  -5.940  19.012 +0.07 +0.05    +0.222 HD
DOCKED: ENDBRANCH  36  40
DOCKED: ENDBRANCH  35  36
DOCKED: ENDBRANCH   5  35
DOCKED: BRANCH   4  42
DOCKED: ATOM     42  O   UNL d   1      -9.597  -9.397  15.942 -0.26 -0.12    -0.278 OA
DOCKED: BRANCH  42  43
DOCKED: ATOM     43  P   UNL d   1     -10.987  -9.466  15.163 -0.25 +0.23    +0.473 P 
DOCKED: ATOM     44  O   UNL d   1     -10.946  -9.799  13.712 -0.49 -0.15    -0.228 OA
DOCKED: BRANCH  43  45
DOCKED: ATOM     45  O   UNL d   1     -11.829 -10.492  16.042 -0.19 -0.12    -0.303 OA
DOCKED: ATOM     46  H   UNL d   1     -11.654 -11.417  15.777 -0.30 +0.06    +0.222 HD
DOCKED: ENDBRANCH  43  45
DOCKED: BRANCH  43  47
DOCKED: ATOM     47  O   UNL d   1     -11.685  -8.071  15.534 -0.37 -0.11    -0.303 OA
DOCKED: ATOM     48  H   UNL d   1     -12.341  -8.218  16.246 +0.12 +0.12    +0.222 HD
DOCKED: ENDBRANCH  43  47
DOCKED: ENDBRANCH  42  43
DOCKED: ENDBRANCH   4  42
DOCKED: TORSDOF 24
DOCKED: TER
DOCKED: ENDMDL
________________________________________________________________________________


	BEGINNING GENETIC ALGORITHM DOCKING 6 of 100
Run: 6 Seed: 1400745929 1258450559 [ Run 6 of 100 GA/GALS ]
Beginning LAMARCKIAN GENETIC ALGORITHM (LGA), with a maximum of 25000000 energy evaluations.

Final-Value: -18.722


	FINAL GENETIC ALGORITHM DOCKED STATE
	_______________________________________________


Detailed state:  trans -10.284 0.762 -12.347 quatxyzw 0.478873 0.835370 -0.007429 0.269784 center 0.035 0.082 -0.065 ntor 24 -141.6048 -30.7974 164.0265 6.7914 -173.4256 103.0357 -4.6961 -160.2533 139.1822 -17.2801 -43.7559 125.3722 75.3852 -179.9002 168.4487 107.6343 27.8521 -157.0073 -18.2535 10.2099 -6.7317 -4.2822 173.3187 4.7572
State:	-10.284   0.762 -12.347   0.497  0.868 -0.008 148.697   -141.60  -30.80  164.03    6.79 -173.43  103.04   -4.70 -160.25  139.18  -17.28  -43.76  125.37   75.39 -179.90  168.45  107.63   27.85 -157.01  -18.25   10.21   -6.73   -4.28  173.32    4.76

DOCKED: MODEL        6
DOCKED: USER    Run = 6
DOCKED: USER    DPF = D:/Protein_go_brrr/autodock/final/AncMH_nat/IHP/dock.dpf
DOCKED: USER  
DOCKED: USER    Estimated Free Energy of Binding    =   +2.65 kcal/mol  [=(1)+(2)+(3)-(4)]
DOCKED: USER    
DOCKED: USER    (1) Final Intermolecular Energy     =   -4.51 kcal/mol
DOCKED: USER        vdW + Hbond + desolv Energy     =   -3.38 kcal/mol
DOCKED: USER        Electrostatic Energy            =   -1.13 kcal/mol
DOCKED: USER    (2) Final Total Internal Energy     =  -14.21 kcal/mol
DOCKED: USER    (3) Torsional Free Energy           =   +7.16 kcal/mol
DOCKED: USER    (4) Unbound System's Energy  [=(2)] =  -14.21 kcal/mol
DOCKED: USER    
DOCKED: USER    
DOCKED: USER    NEWDPF move IHP_ideal_opt.pdbqt
DOCKED: USER    NEWDPF about 0.035000 0.082000 -0.065000
DOCKED: USER    NEWDPF tran0 -10.283987 0.761824 -12.347166
DOCKED: USER    NEWDPF quaternion0 0.478873 0.835370 -0.007429 0.269784
DOCKED: USER    NEWDPF axisangle0 0.497313 0.867537 -0.007715 148.697213
DOCKED: USER    NEWDPF quat0 0.497313 0.867537 -0.007715 148.697213
DOCKED: USER    NEWDPF dihe0 -141.60 -30.80 164.03 6.79 -173.43 103.04 -4.70 -160.25 139.18 -17.28 -43.76 125.37 75.39 -179.90 168.45 107.63 27.85 -157.01 -18.25 10.21 -6.73 -4.28 173.32 4.76 
DOCKED: USER  keepresnum = 1 
DOCKED: USER  
DOCKED: REMARK  24 active torsions:
DOCKED: REMARK  status: ('A' for Active; 'I' for Inactive)
DOCKED: REMARK    1  A    between atoms: C_1  and  O_7 
DOCKED: REMARK    2  A    between atoms: C_2  and  O_12 
DOCKED: REMARK    3  A    between atoms: C_3  and  O_17 
DOCKED: REMARK    4  A    between atoms: C_4  and  O_22 
DOCKED: REMARK    5  A    between atoms: C_5  and  O_27 
DOCKED: REMARK    6  A    between atoms: C_6  and  O_32 
DOCKED: REMARK    7  A    between atoms: O_7  and  P_8 
DOCKED: REMARK    8  A    between atoms: P_8  and  O_10 
DOCKED: REMARK    9  A    between atoms: P_8  and  O_11 
DOCKED: REMARK   10  A    between atoms: O_12  and  P_13 
DOCKED: REMARK   11  A    between atoms: P_13  and  O_15 
DOCKED: REMARK   12  A    between atoms: P_13  and  O_16 
DOCKED: REMARK   13  A    between atoms: O_17  and  P_18 
DOCKED: REMARK   14  A    between atoms: P_18  and  O_20 
DOCKED: REMARK   15  A    between atoms: P_18  and  O_21 
DOCKED: REMARK   16  A    between atoms: O_22  and  P_23 
DOCKED: REMARK   17  A    between atoms: P_23  and  O_25 
DOCKED: REMARK   18  A    between atoms: P_23  and  O_26 
DOCKED: REMARK   19  A    between atoms: O_27  and  P_28 
DOCKED: REMARK   20  A    between atoms: P_28  and  O_30 
DOCKED: REMARK   21  A    between atoms: P_28  and  O_31 
DOCKED: REMARK   22  A    between atoms: O_32  and  P_33 
DOCKED: REMARK   23  A    between atoms: P_33  and  O_35 
DOCKED: REMARK   24  A    between atoms: P_33  and  O_36 
DOCKED: USER                              x       y       z     vdW  Elec       q    Type
DOCKED: USER                           _______ _______ _______ _____ _____    ______ ____
DOCKED: ROOT
DOCKED: ATOM      1  C   UNL d   1     -11.849   1.483 -12.227 +0.00 -0.03    +0.194 C 
DOCKED: ATOM      2  C   UNL d   1     -11.826  -0.046 -12.247 +0.01 -0.02    +0.194 C 
DOCKED: ATOM      3  C   UNL d   1     -10.850  -0.584 -13.295 +0.01 -0.01    +0.194 C 
DOCKED: ATOM      4  C   UNL d   1      -9.450   0.013 -13.175 -0.01 -0.03    +0.194 C 
DOCKED: ATOM      5  C   UNL d   1      -9.431   1.529 -13.036 -0.02 -0.05    +0.194 C 
DOCKED: ATOM      6  C   UNL d   1     -10.451   2.072 -12.033 -0.02 -0.07    +0.194 C 
DOCKED: ENDROOT
DOCKED: BRANCH   1   7
DOCKED: ATOM      7  O   UNL d   1     -12.646   1.902 -11.116 -0.00 +0.05    -0.278 OA
DOCKED: BRANCH   7   8
DOCKED: ATOM      8  P   UNL d   1     -13.609   3.163 -11.305 +0.01 -0.07    +0.473 P 
DOCKED: ATOM      9  O   UNL d   1     -15.031   2.931 -10.933 +0.00 +0.01    -0.228 OA
DOCKED: BRANCH   8  10
DOCKED: ATOM     10  O   UNL d   1     -12.914   4.313 -10.446 -0.00 +0.08    -0.303 OA
DOCKED: ATOM     11  H   UNL d   1     -12.021   4.488 -10.796 +0.02 -0.09    +0.222 HD
DOCKED: ENDBRANCH   8  10
DOCKED: BRANCH   8  12
DOCKED: ATOM     12  O   UNL d   1     -13.353   3.658 -12.793 +0.00 +0.04    -0.303 OA
DOCKED: ATOM     13  H   UNL d   1     -12.507   4.148 -12.896 +0.01 -0.04    +0.222 HD
DOCKED: ENDBRANCH   8  12
DOCKED: ENDBRANCH   7   8
DOCKED: ENDBRANCH   1   7
DOCKED: BRANCH   2  14
DOCKED: ATOM     14  O   UNL d   1     -11.422  -0.525 -10.958 -0.00 +0.03    -0.278 OA
DOCKED: BRANCH  14  15
DOCKED: ATOM     15  P   UNL d   1     -12.158  -1.840 -10.420 +0.01 +0.02    +0.473 P 
DOCKED: ATOM     16  O   UNL d   1     -12.828  -1.737  -9.086 -0.01 -0.02    -0.228 OA
DOCKED: BRANCH  15  17
DOCKED: ATOM     17  O   UNL d   1     -13.169  -2.225 -11.590 +0.00 -0.02    -0.303 OA
DOCKED: ATOM     18  H   UNL d   1     -12.688  -2.526 -12.385 +0.01 +0.01    +0.222 HD
DOCKED: ENDBRANCH  15  17
DOCKED: BRANCH  15  19
DOCKED: ATOM     19  O   UNL d   1     -11.065  -2.989 -10.551 -0.02 -0.04    -0.303 OA
DOCKED: ATOM     20  H   UNL d   1     -10.693  -3.031 -11.451 +0.03 +0.02    +0.222 HD
DOCKED: ENDBRANCH  15  19
DOCKED: ENDBRANCH  14  15
DOCKED: ENDBRANCH   2  14
DOCKED: BRANCH   6  21
DOCKED: ATOM     21  O   UNL d   1     -10.552   3.475 -12.265 -0.02 +0.12    -0.278 OA
DOCKED: BRANCH  21  22
DOCKED: ATOM     22  P   UNL d   1      -9.952   4.499 -11.199 -0.02 -0.41    +0.473 P 
DOCKED: ATOM     23  O   UNL d   1     -10.425   5.914 -11.238 -0.07 +0.12    -0.228 OA
DOCKED: BRANCH  22  24
DOCKED: ATOM     24  O   UNL d   1     -10.228   3.740  -9.828 -0.04 +0.45    -0.303 OA
DOCKED: ATOM     25  H   UNL d   1      -9.357   3.590  -9.379 -0.31 -0.72    +0.222 HD
DOCKED: ENDBRANCH  22  24
DOCKED: BRANCH  22  26
DOCKED: ATOM     26  O   UNL d   1      -8.375   4.280 -11.388 -0.08 +0.41    -0.303 OA
DOCKED: ATOM     27  H   UNL d   1      -8.127   3.404 -11.029 -0.41 -0.42    +0.222 HD
DOCKED: ENDBRANCH  22  26
DOCKED: ENDBRANCH  21  22
DOCKED: ENDBRANCH   6  21
DOCKED: BRANCH   3  28
DOCKED: ATOM     28  O   UNL d   1     -10.688  -1.976 -13.056 -0.00 +0.00    -0.278 OA
DOCKED: BRANCH  28  29
DOCKED: ATOM     29  P   UNL d   1     -11.362  -3.043 -14.028 +0.01 +0.02    +0.473 P 
DOCKED: ATOM     30  O   UNL d   1     -10.614  -3.331 -15.279 -0.00 -0.01    -0.228 OA
DOCKED: BRANCH  29  31
DOCKED: ATOM     31  O   UNL d   1     -11.567  -4.259 -13.008 +0.00 -0.04    -0.303 OA
DOCKED: ATOM     32  H   UNL d   1     -11.965  -3.909 -12.178 +0.01 +0.04    +0.222 HD
DOCKED: ENDBRANCH  29  31
DOCKED: BRANCH  29  33
DOCKED: ATOM     33  O   UNL d   1     -12.837  -2.465 -14.188 +0.00 -0.01    -0.303 OA
DOCKED: ATOM     34  H   UNL d   1     -13.447  -2.977 -13.603 +0.00 +0.01    +0.222 HD
DOCKED: ENDBRANCH  29  33
DOCKED: ENDBRANCH  28  29
DOCKED: ENDBRANCH   3  28
DOCKED: BRANCH   5  35
DOCKED: ATOM     35  O   UNL d   1      -8.136   1.857 -12.537 -0.18 +0.12    -0.278 OA
DOCKED: BRANCH  35  36
DOCKED: ATOM     36  P   UNL d   1      -7.607   1.203 -11.182 -0.11 -0.30    +0.473 P 
DOCKED: ATOM     37  O   UNL d   1      -7.243  -0.246 -11.263 -0.15 +0.07    -0.228 OA
DOCKED: BRANCH  36  38
DOCKED: ATOM     38  O   UNL d   1      -6.393   2.163 -10.808 -0.28 +0.29    -0.303 OA
DOCKED: ATOM     39  H   UNL d   1      -6.746   3.042 -10.550 -0.46 -0.46    +0.222 HD
DOCKED: ENDBRANCH  36  38
DOCKED: BRANCH  36  40
DOCKED: ATOM     40  O   UNL d   1      -8.745   1.604 -10.145 -0.10 +0.35    -0.303 OA
DOCKED: ATOM     41  H   UNL d   1      -8.853   2.579 -10.082 -0.51 -0.48    +0.222 HD
DOCKED: ENDBRANCH  36  40
DOCKED: ENDBRANCH  35  36
DOCKED: ENDBRANCH   5  35
DOCKED: BRANCH   4  42
DOCKED: ATOM     42  O   UNL d   1      -8.757  -0.308 -14.386 -0.01 +0.03    -0.278 OA
DOCKED: BRANCH  42  43
DOCKED: ATOM     43  P   UNL d   1      -7.627  -1.433 -14.354 -0.03 -0.04    +0.473 P 
DOCKED: ATOM     44  O   UNL d   1      -6.216  -0.995 -14.552 -0.11 +0.02    -0.228 OA
DOCKED: BRANCH  43  45
DOCKED: ATOM     45  O   UNL d   1      -7.894  -2.156 -12.963 -0.00 +0.06    -0.303 OA
DOCKED: ATOM     46  H   UNL d   1      -7.135  -2.055 -12.355 -0.49 -0.10    +0.222 HD
DOCKED: ENDBRANCH  43  45
DOCKED: BRANCH  43  47
DOCKED: ATOM     47  O   UNL d   1      -8.166  -2.523 -15.398 -0.03 +0.00    -0.303 OA
DOCKED: ATOM     48  H   UNL d   1      -9.066  -2.805 -15.134 +0.01 -0.00    +0.222 HD
DOCKED: ENDBRANCH  43  47
DOCKED: ENDBRANCH  42  43
DOCKED: ENDBRANCH   4  42
DOCKED: TORSDOF 24
DOCKED: TER
DOCKED: ENDMDL
________________________________________________________________________________


	BEGINNING GENETIC ALGORITHM DOCKING 7 of 100
Run: 7 Seed: 977797858 102889212 [ Run 7 of 100 GA/GALS ]
Beginning LAMARCKIAN GENETIC ALGORITHM (LGA), with a maximum of 25000000 energy evaluations.

Final-Value: -18.495


	FINAL GENETIC ALGORITHM DOCKED STATE
	_______________________________________________


Detailed state:  trans -7.376 19.035 4.063 quatxyzw -0.075700 0.213175 -0.899282 -0.374323 center 0.035 0.082 -0.065 ntor 24 102.5817 90.9691 62.4835 88.8557 167.0082 -143.6705 -109.1632 -22.1139 25.1276 54.6779 63.2973 128.8235 -72.4490 -70.0099 66.0270 60.5577 -46.1011 167.5111 -147.5641 -20.6663 16.1700 -26.6032 175.8724 10.0894
State:	 -7.376  19.035   4.063  -0.082  0.230 -0.970 -136.035    102.58   90.97   62.48   88.86  167.01 -143.67 -109.16  -22.11   25.13   54.68   63.30  128.82  -72.45  -70.01   66.03   60.56  -46.10  167.51 -147.56  -20.67   16.17  -26.60  175.87   10.09

DOCKED: MODEL        7
DOCKED: USER    Run = 7
DOCKED: USER    DPF = D:/Protein_go_brrr/autodock/final/AncMH_nat/IHP/dock.dpf
DOCKED: USER  
DOCKED: USER    Estimated Free Energy of Binding    =   +3.89 kcal/mol  [=(1)+(2)+(3)-(4)]
DOCKED: USER    
DOCKED: USER    (1) Final Intermolecular Energy     =   -3.27 kcal/mol
DOCKED: USER        vdW + Hbond + desolv Energy     =   -3.22 kcal/mol
DOCKED: USER        Electrostatic Energy            =   -0.05 kcal/mol
DOCKED: USER    (2) Final Total Internal Energy     =  -15.22 kcal/mol
DOCKED: USER    (3) Torsional Free Energy           =   +7.16 kcal/mol
DOCKED: USER    (4) Unbound System's Energy  [=(2)] =  -15.22 kcal/mol
DOCKED: USER    
DOCKED: USER    
DOCKED: USER    NEWDPF move IHP_ideal_opt.pdbqt
DOCKED: USER    NEWDPF about 0.035000 0.082000 -0.065000
DOCKED: USER    NEWDPF tran0 -7.376286 19.034985 4.063091
DOCKED: USER    NEWDPF quaternion0 -0.075700 0.213175 -0.899282 -0.374323
DOCKED: USER    NEWDPF axisangle0 -0.081635 0.229888 -0.969787 -136.035041
DOCKED: USER    NEWDPF quat0 -0.081635 0.229888 -0.969787 -136.035041
DOCKED: USER    NEWDPF dihe0 102.58 90.97 62.48 88.86 167.01 -143.67 -109.16 -22.11 25.13 54.68 63.30 128.82 -72.45 -70.01 66.03 60.56 -46.10 167.51 -147.56 -20.67 16.17 -26.60 175.87 10.09 
DOCKED: USER  keepresnum = 1 
DOCKED: USER  
DOCKED: REMARK  24 active torsions:
DOCKED: REMARK  status: ('A' for Active; 'I' for Inactive)
DOCKED: REMARK    1  A    between atoms: C_1  and  O_7 
DOCKED: REMARK    2  A    between atoms: C_2  and  O_12 
DOCKED: REMARK    3  A    between atoms: C_3  and  O_17 
DOCKED: REMARK    4  A    between atoms: C_4  and  O_22 
DOCKED: REMARK    5  A    between atoms: C_5  and  O_27 
DOCKED: REMARK    6  A    between atoms: C_6  and  O_32 
DOCKED: REMARK    7  A    between atoms: O_7  and  P_8 
DOCKED: REMARK    8  A    between atoms: P_8  and  O_10 
DOCKED: REMARK    9  A    between atoms: P_8  and  O_11 
DOCKED: REMARK   10  A    between atoms: O_12  and  P_13 
DOCKED: REMARK   11  A    between atoms: P_13  and  O_15 
DOCKED: REMARK   12  A    between atoms: P_13  and  O_16 
DOCKED: REMARK   13  A    between atoms: O_17  and  P_18 
DOCKED: REMARK   14  A    between atoms: P_18  and  O_20 
DOCKED: REMARK   15  A    between atoms: P_18  and  O_21 
DOCKED: REMARK   16  A    between atoms: O_22  and  P_23 
DOCKED: REMARK   17  A    between atoms: P_23  and  O_25 
DOCKED: REMARK   18  A    between atoms: P_23  and  O_26 
DOCKED: REMARK   19  A    between atoms: O_27  and  P_28 
DOCKED: REMARK   20  A    between atoms: P_28  and  O_30 
DOCKED: REMARK   21  A    between atoms: P_28  and  O_31 
DOCKED: REMARK   22  A    between atoms: O_32  and  P_33 
DOCKED: REMARK   23  A    between atoms: P_33  and  O_35 
DOCKED: REMARK   24  A    between atoms: P_33  and  O_36 
DOCKED: USER                              x       y       z     vdW  Elec       q    Type
DOCKED: USER                           _______ _______ _______ _____ _____    ______ ____
DOCKED: ROOT
DOCKED: ATOM      1  C   UNL d   1      -8.599  18.451   5.135 -0.15 -0.02    +0.194 C 
DOCKED: ATOM      2  C   UNL d   1      -8.340  19.958   5.186 -0.05 -0.00    +0.194 C 
DOCKED: ATOM      3  C   UNL d   1      -6.843  20.276   5.161 -0.05 +0.01    +0.194 C 
DOCKED: ATOM      4  C   UNL d   1      -6.104  19.602   4.008 -0.07 +0.01    +0.194 C 
DOCKED: ATOM      5  C   UNL d   1      -6.422  18.121   3.847 -0.06 -0.02    +0.194 C 
DOCKED: ATOM      6  C   UNL d   1      -7.915  17.795   3.934 -0.15 -0.02    +0.194 C 
DOCKED: ENDROOT
DOCKED: BRANCH   1   7
DOCKED: ATOM      7  O   UNL d   1     -10.006  18.246   4.988 -0.09 +0.02    -0.278 OA
DOCKED: BRANCH   7   8
DOCKED: ATOM      8  P   UNL d   1     -10.611  18.163   3.511 -0.07 +0.10    +0.473 P 
DOCKED: ATOM      9  O   UNL d   1      -9.768  18.774   2.449 -0.13 -0.10    -0.228 OA
DOCKED: BRANCH   8  10
DOCKED: ATOM     10  O   UNL d   1     -10.872  16.605   3.287 -0.21 +0.01    -0.303 OA
DOCKED: ATOM     11  H   UNL d   1     -10.046  16.110   3.440 +0.13 -0.01    +0.222 HD
DOCKED: ENDBRANCH   8  10
DOCKED: BRANCH   8  12
DOCKED: ATOM     12  O   UNL d   1     -12.089  18.732   3.638 -0.10 -0.09    -0.303 OA
DOCKED: ATOM     13  H   UNL d   1     -12.138  19.563   4.163 +0.04 +0.05    +0.222 HD
DOCKED: ENDBRANCH   8  12
DOCKED: ENDBRANCH   7   8
DOCKED: ENDBRANCH   1   7
DOCKED: BRANCH   2  14
DOCKED: ATOM     14  O   UNL d   1      -8.957  20.577   4.051 -0.01 -0.03    -0.278 OA
DOCKED: BRANCH  14  15
DOCKED: ATOM     15  P   UNL d   1     -10.223  21.513   4.347 +0.01 +0.05    +0.473 P 
DOCKED: ATOM     16  O   UNL d   1     -10.845  21.393   5.703 -0.00 +0.00    -0.228 OA
DOCKED: BRANCH  15  17
DOCKED: ATOM     17  O   UNL d   1      -9.698  22.984   4.036 +0.00 -0.03    -0.303 OA
DOCKED: ATOM     18  H   UNL d   1      -8.752  23.075   4.261 +0.00 +0.01    +0.222 HD
DOCKED: ENDBRANCH  15  17
DOCKED: BRANCH  15  19
DOCKED: ATOM     19  O   UNL d   1     -11.201  21.256   3.119 -0.03 -0.11    -0.303 OA
DOCKED: ATOM     20  H   UNL d   1     -11.094  20.358   2.754 +0.02 +0.13    +0.222 HD
DOCKED: ENDBRANCH  15  19
DOCKED: ENDBRANCH  14  15
DOCKED: ENDBRANCH   2  14
DOCKED: BRANCH   6  21
DOCKED: ATOM     21  O   UNL d   1      -8.019  16.385   4.112 -0.07 +0.09    -0.278 OA
DOCKED: BRANCH  21  22
DOCKED: ATOM     22  P   UNL d   1      -8.028  15.424   2.838 -0.30 -0.03    +0.473 P 
DOCKED: ATOM     23  O   UNL d   1      -6.741  14.798   2.419 -0.94 -0.01    -0.228 OA
DOCKED: BRANCH  22  24
DOCKED: ATOM     24  O   UNL d   1      -9.180  14.393   3.216 -0.40 +0.03    -0.303 OA
DOCKED: ATOM     25  H   UNL d   1     -10.001  14.655   2.727 +0.05 -0.02    +0.222 HD
DOCKED: ENDBRANCH  22  24
DOCKED: BRANCH  22  26
DOCKED: ATOM     26  O   UNL d   1      -8.753  16.343   1.743 -0.03 -0.06    -0.303 OA
DOCKED: ATOM     27  H   UNL d   1      -8.407  17.257   1.809 +0.11 +0.04    +0.222 HD
DOCKED: ENDBRANCH  22  26
DOCKED: ENDBRANCH  21  22
DOCKED: ENDBRANCH   6  21
DOCKED: BRANCH   3  28
DOCKED: ATOM     28  O   UNL d   1      -6.706  21.673   4.933 -0.00 -0.02    -0.278 OA
DOCKED: BRANCH  28  29
DOCKED: ATOM     29  P   UNL d   1      -6.796  22.699   6.147 +0.01 +0.03    +0.473 P 
DOCKED: ATOM     30  O   UNL d   1      -6.240  22.216   7.437 -0.02 -0.03    -0.228 OA
DOCKED: BRANCH  29  31
DOCKED: ATOM     31  O   UNL d   1      -6.093  23.976   5.486 +0.00 -0.02    -0.303 OA
DOCKED: ATOM     32  H   UNL d   1      -5.188  23.720   5.194 +0.00 +0.02    +0.222 HD
DOCKED: ENDBRANCH  29  31
DOCKED: BRANCH  29  33
DOCKED: ATOM     33  O   UNL d   1      -8.337  23.099   6.133 -0.00 -0.01    -0.303 OA
DOCKED: ATOM     34  H   UNL d   1      -8.873  22.303   5.897 +0.01 +0.00    +0.222 HD
DOCKED: ENDBRANCH  29  33
DOCKED: ENDBRANCH  28  29
DOCKED: ENDBRANCH   3  28
DOCKED: BRANCH   5  35
DOCKED: ATOM     35  O   UNL d   1      -5.992  17.773   2.533 -0.23 -0.00    -0.278 OA
DOCKED: BRANCH  35  36
DOCKED: ATOM     36  P   UNL d   1      -6.505  18.605   1.272 -0.09 +0.03    +0.473 P 
DOCKED: ATOM     37  O   UNL d   1      -7.467  19.709   1.576 -0.04 -0.03    -0.228 OA
DOCKED: BRANCH  36  38
DOCKED: ATOM     38  O   UNL d   1      -5.134  19.092   0.624 -0.12 +0.01    -0.303 OA
DOCKED: ATOM     39  H   UNL d   1      -4.543  19.425   1.334 +0.06 +0.00    +0.222 HD
DOCKED: ENDBRANCH  36  38
DOCKED: BRANCH  36  40
DOCKED: ATOM     40  O   UNL d   1      -7.006  17.459   0.290 -0.25 -0.03    -0.303 OA
DOCKED: ATOM     41  H   UNL d   1      -7.078  16.593   0.748 +0.13 +0.03    +0.222 HD
DOCKED: ENDBRANCH  36  40
DOCKED: ENDBRANCH  35  36
DOCKED: ENDBRANCH   5  35
DOCKED: BRANCH   4  42
DOCKED: ATOM     42  O   UNL d   1      -4.706  19.704   4.296 -0.06 -0.03    -0.278 OA
DOCKED: BRANCH  42  43
DOCKED: ATOM     43  P   UNL d   1      -3.846  20.826   3.557 -0.01 +0.05    +0.473 P 
DOCKED: ATOM     44  O   UNL d   1      -2.426  20.505   3.239 -0.08 -0.03    -0.228 OA
DOCKED: BRANCH  43  45
DOCKED: ATOM     45  O   UNL d   1      -4.737  21.168   2.284 -0.01 -0.02    -0.303 OA
DOCKED: ATOM     46  H   UNL d   1      -5.473  20.532   2.182 +0.04 +0.01    +0.222 HD
DOCKED: ENDBRANCH  43  45
DOCKED: BRANCH  43  47
DOCKED: ATOM     47  O   UNL d   1      -4.073  22.123   4.472 -0.00 -0.04    -0.303 OA
DOCKED: ATOM     48  H   UNL d   1      -5.034  22.263   4.599 +0.01 +0.02    +0.222 HD
DOCKED: ENDBRANCH  43  47
DOCKED: ENDBRANCH  42  43
DOCKED: ENDBRANCH   4  42
DOCKED: TORSDOF 24
DOCKED: TER
DOCKED: ENDMDL
________________________________________________________________________________


	BEGINNING GENETIC ALGORITHM DOCKING 8 of 100
Run: 8 Seed: 1792279068 101788948 [ Run 8 of 100 GA/GALS ]
Beginning LAMARCKIAN GENETIC ALGORITHM (LGA), with a maximum of 25000000 energy evaluations.

Final-Value: -17.905


	FINAL GENETIC ALGORITHM DOCKED STATE
	_______________________________________________


Detailed state:  trans 2.345 19.379 -4.056 quatxyzw -0.292426 -0.912910 -0.274309 0.076399 center 0.035 0.082 -0.065 ntor 24 87.9418 -114.8804 -160.4318 10.6252 171.4596 134.3270 111.0909 13.5202 40.8074 114.3672 44.1312 -22.2062 -78.0599 -179.8902 -166.6942 -5.4705 -71.7870 -92.1810 -150.0423 9.9088 18.2673 -14.2416 -165.5009 -140.9821
State:	  2.345  19.379  -4.056  -0.293 -0.916 -0.275 171.237     87.94 -114.88 -160.43   10.63  171.46  134.33  111.09   13.52   40.81  114.37   44.13  -22.21  -78.06 -179.89 -166.69   -5.47  -71.79  -92.18 -150.04    9.91   18.27  -14.24 -165.50 -140.98

DOCKED: MODEL        8
DOCKED: USER    Run = 8
DOCKED: USER    DPF = D:/Protein_go_brrr/autodock/final/AncMH_nat/IHP/dock.dpf
DOCKED: USER  
DOCKED: USER    Estimated Free Energy of Binding    =   +1.68 kcal/mol  [=(1)+(2)+(3)-(4)]
DOCKED: USER    
DOCKED: USER    (1) Final Intermolecular Energy     =   -5.48 kcal/mol
DOCKED: USER        vdW + Hbond + desolv Energy     =   -5.25 kcal/mol
DOCKED: USER        Electrostatic Energy            =   -0.23 kcal/mol
DOCKED: USER    (2) Final Total Internal Energy     =  -12.42 kcal/mol
DOCKED: USER    (3) Torsional Free Energy           =   +7.16 kcal/mol
DOCKED: USER    (4) Unbound System's Energy  [=(2)] =  -12.42 kcal/mol
DOCKED: USER    
DOCKED: USER    
DOCKED: USER    NEWDPF move IHP_ideal_opt.pdbqt
DOCKED: USER    NEWDPF about 0.035000 0.082000 -0.065000
DOCKED: USER    NEWDPF tran0 2.344790 19.379198 -4.056009
DOCKED: USER    NEWDPF quaternion0 -0.292426 -0.912910 -0.274309 0.076399
DOCKED: USER    NEWDPF axisangle0 -0.293283 -0.915586 -0.275113 171.236779
DOCKED: USER    NEWDPF quat0 -0.293283 -0.915586 -0.275113 171.236779
DOCKED: USER    NEWDPF dihe0 87.94 -114.88 -160.43 10.63 171.46 134.33 111.09 13.52 40.81 114.37 44.13 -22.21 -78.06 -179.89 -166.69 -5.47 -71.79 -92.18 -150.04 9.91 18.27 -14.24 -165.50 -140.98 
DOCKED: USER  keepresnum = 1 
DOCKED: USER  
DOCKED: REMARK  24 active torsions:
DOCKED: REMARK  status: ('A' for Active; 'I' for Inactive)
DOCKED: REMARK    1  A    between atoms: C_1  and  O_7 
DOCKED: REMARK    2  A    between atoms: C_2  and  O_12 
DOCKED: REMARK    3  A    between atoms: C_3  and  O_17 
DOCKED: REMARK    4  A    between atoms: C_4  and  O_22 
DOCKED: REMARK    5  A    between atoms: C_5  and  O_27 
DOCKED: REMARK    6  A    between atoms: C_6  and  O_32 
DOCKED: REMARK    7  A    between atoms: O_7  and  P_8 
DOCKED: REMARK    8  A    between atoms: P_8  and  O_10 
DOCKED: REMARK    9  A    between atoms: P_8  and  O_11 
DOCKED: REMARK   10  A    between atoms: O_12  and  P_13 
DOCKED: REMARK   11  A    between atoms: P_13  and  O_15 
DOCKED: REMARK   12  A    between atoms: P_13  and  O_16 
DOCKED: REMARK   13  A    between atoms: O_17  and  P_18 
DOCKED: REMARK   14  A    between atoms: P_18  and  O_20 
DOCKED: REMARK   15  A    between atoms: P_18  and  O_21 
DOCKED: REMARK   16  A    between atoms: O_22  and  P_23 
DOCKED: REMARK   17  A    between atoms: P_23  and  O_25 
DOCKED: REMARK   18  A    between atoms: P_23  and  O_26 
DOCKED: REMARK   19  A    between atoms: O_27  and  P_28 
DOCKED: REMARK   20  A    between atoms: P_28  and  O_30 
DOCKED: REMARK   21  A    between atoms: P_28  and  O_31 
DOCKED: REMARK   22  A    between atoms: O_32  and  P_33 
DOCKED: REMARK   23  A    between atoms: P_33  and  O_35 
DOCKED: REMARK   24  A    between atoms: P_33  and  O_36 
DOCKED: USER                              x       y       z     vdW  Elec       q    Type
DOCKED: USER                           _______ _______ _______ _____ _____    ______ ____
DOCKED: ROOT
DOCKED: ATOM      1  C   UNL d   1       1.121  19.859  -5.177 -0.02 -0.00    +0.194 C 
DOCKED: ATOM      2  C   UNL d   1       1.635  18.427  -5.332 -0.07 -0.00    +0.194 C 
DOCKED: ATOM      3  C   UNL d   1       3.158  18.354  -5.204 -0.07 +0.01    +0.194 C 
DOCKED: ATOM      4  C   UNL d   1       3.687  19.023  -3.938 -0.09 +0.02    +0.194 C 
DOCKED: ATOM      5  C   UNL d   1       3.112  20.410  -3.682 -0.03 +0.01    +0.194 C 
DOCKED: ATOM      6  C   UNL d   1       1.596  20.497  -3.871 -0.01 +0.01    +0.194 C 
DOCKED: ENDROOT
DOCKED: BRANCH   1   7
DOCKED: ATOM      7  O   UNL d   1      -0.307  19.819  -5.136 -0.02 +0.00    -0.278 OA
DOCKED: BRANCH   7   8
DOCKED: ATOM      8  P   UNL d   1      -1.021  19.598  -3.724 -0.02 +0.02    +0.473 P 
DOCKED: ATOM      9  O   UNL d   1      -0.208  18.866  -2.714 -0.09 -0.02    -0.228 OA
DOCKED: BRANCH   8  10
DOCKED: ATOM     10  O   UNL d   1      -1.422  21.070  -3.259 -0.01 -0.01    -0.303 OA
DOCKED: ATOM     11  H   UNL d   1      -0.617  21.572  -3.031 +0.02 +0.01    +0.222 HD
DOCKED: ENDBRANCH   8  10
DOCKED: BRANCH   8  12
DOCKED: ATOM     12  O   UNL d   1      -2.435  18.961  -4.070 -0.13 -0.03    -0.303 OA
DOCKED: ATOM     13  H   UNL d   1      -3.090  19.060  -3.343 -0.12 +0.01    +0.222 HD
DOCKED: ENDBRANCH   8  12
DOCKED: ENDBRANCH   7   8
DOCKED: ENDBRANCH   1   7
DOCKED: BRANCH   2  14
DOCKED: ATOM     14  O   UNL d   1       1.051  17.608  -4.312 -0.08 -0.01    -0.278 OA
DOCKED: BRANCH  14  15
DOCKED: ATOM     15  P   UNL d   1       0.631  16.123  -4.739 -0.23 +0.01    +0.473 P 
DOCKED: ATOM     16  O   UNL d   1      -0.793  15.731  -4.497 -0.32 -0.06    -0.228 OA
DOCKED: BRANCH  15  17
DOCKED: ATOM     17  O   UNL d   1       1.044  16.029  -6.274 -0.36 +0.05    -0.303 OA
DOCKED: ATOM     18  H   UNL d   1       1.864  15.510  -6.387 -0.33 -0.08    +0.222 HD
DOCKED: ENDBRANCH  15  17
DOCKED: BRANCH  15  19
DOCKED: ATOM     19  O   UNL d   1       1.724  15.190  -4.056 -0.14 +0.00    -0.303 OA
DOCKED: ATOM     20  H   UNL d   1       2.629  15.507  -4.232 +0.15 +0.00    +0.222 HD
DOCKED: ENDBRANCH  15  19
DOCKED: ENDBRANCH  14  15
DOCKED: ENDBRANCH   2  14
DOCKED: BRANCH   6  21
DOCKED: ATOM     21  O   UNL d   1       1.268  21.882  -3.938 -0.00 -0.01    -0.278 OA
DOCKED: BRANCH  21  22
DOCKED: ATOM     22  P   UNL d   1       1.055  22.712  -2.592 +0.00 +0.02    +0.473 P 
DOCKED: ATOM     23  O   UNL d   1      -0.100  23.654  -2.520 -0.00 -0.01    -0.228 OA
DOCKED: BRANCH  22  24
DOCKED: ATOM     24  O   UNL d   1       1.043  21.557  -1.497 -0.02 -0.03    -0.303 OA
DOCKED: ATOM     25  H   UNL d   1       1.907  21.584  -1.012 +0.03 +0.03    +0.222 HD
DOCKED: ENDBRANCH  22  24
DOCKED: BRANCH  22  26
DOCKED: ATOM     26  O   UNL d   1       2.505  23.359  -2.375 -0.00 -0.02    -0.303 OA
DOCKED: ATOM     27  H   UNL d   1       3.190  22.700  -2.608 +0.02 +0.02    +0.222 HD
DOCKED: ENDBRANCH  22  26
DOCKED: ENDBRANCH  21  22
DOCKED: ENDBRANCH   6  21
DOCKED: BRANCH   3  28
DOCKED: ATOM     28  O   UNL d   1       3.512  16.982  -5.083 -0.16 -0.02    -0.278 OA
DOCKED: BRANCH  28  29
DOCKED: ATOM     29  P   UNL d   1       3.971  16.153  -6.363 -0.26 +0.04    +0.473 P 
DOCKED: ATOM     30  O   UNL d   1       3.353  16.568  -7.649 -0.31 -0.01    -0.228 OA
DOCKED: BRANCH  29  31
DOCKED: ATOM     31  O   UNL d   1       5.559  16.303  -6.239 -0.47 -0.04    -0.303 OA
DOCKED: ATOM     32  H   UNL d   1       5.984  15.615  -6.802 -0.47 -0.02    +0.222 HD
DOCKED: ENDBRANCH  29  31
DOCKED: BRANCH  29  33
DOCKED: ATOM     33  O   UNL d   1       3.721  14.652  -5.896 -0.38 +0.01    -0.303 OA
DOCKED: ATOM     34  H   UNL d   1       2.748  14.479  -5.877 -0.35 -0.08    +0.222 HD
DOCKED: ENDBRANCH  29  33
DOCKED: ENDBRANCH  28  29
DOCKED: ENDBRANCH   3  28
DOCKED: BRANCH   5  35
DOCKED: ATOM     35  O   UNL d   1       3.382  20.693  -2.310 -0.04 -0.03    -0.278 OA
DOCKED: BRANCH  35  36
DOCKED: ATOM     36  P   UNL d   1       3.346  19.525  -1.225 -0.17 +0.09    +0.473 P 
DOCKED: ATOM     37  O   UNL d   1       2.451  18.371  -1.548 -0.20 -0.02    -0.228 OA
DOCKED: BRANCH  36  38
DOCKED: ATOM     38  O   UNL d   1       4.888  19.143  -1.107 -0.29 -0.05    -0.303 OA
DOCKED: ATOM     39  H   UNL d   1       5.331  19.326  -1.964 +0.07 +0.05    +0.222 HD
DOCKED: ENDBRANCH  36  38
DOCKED: BRANCH  36  40
DOCKED: ATOM     40  O   UNL d   1       3.044  20.319   0.119 -0.15 -0.13    -0.303 OA
DOCKED: ATOM     41  H   UNL d   1       2.114  20.635   0.155 +0.03 +0.07    +0.222 HD
DOCKED: ENDBRANCH  36  40
DOCKED: ENDBRANCH  35  36
DOCKED: ENDBRANCH   5  35
DOCKED: BRANCH   4  42
DOCKED: ATOM     42  O   UNL d   1       5.100  19.178  -4.111 -0.08 -0.05    -0.278 OA
DOCKED: BRANCH  42  43
DOCKED: ATOM     43  P   UNL d   1       5.690  20.638  -4.364 -0.02 +0.05    +0.473 P 
DOCKED: ATOM     44  O   UNL d   1       5.002  21.491  -5.372 -0.01 -0.01    -0.228 OA
DOCKED: BRANCH  43  45
DOCKED: ATOM     45  O   UNL d   1       5.725  21.259  -2.899 -0.05 -0.03    -0.303 OA
DOCKED: ATOM     46  H   UNL d   1       5.026  20.877  -2.331 +0.05 +0.03    +0.222 HD
DOCKED: ENDBRANCH  43  45
DOCKED: BRANCH  43  47
DOCKED: ATOM     47  O   UNL d   1       7.246  20.361  -4.637 -0.06 -0.05    -0.303 OA
DOCKED: ATOM     48  H   UNL d   1       7.619  21.105  -5.153 +0.03 +0.02    +0.222 HD
DOCKED: ENDBRANCH  43  47
DOCKED: ENDBRANCH  42  43
DOCKED: ENDBRANCH   4  42
DOCKED: TORSDOF 24
DOCKED: TER
DOCKED: ENDMDL
________________________________________________________________________________


	BEGINNING GENETIC ALGORITHM DOCKING 9 of 100
Run: 9 Seed: 831674037 292933207 [ Run 9 of 100 GA/GALS ]
Beginning LAMARCKIAN GENETIC ALGORITHM (LGA), with a maximum of 25000000 energy evaluations.

Final-Value: -16.280


	FINAL GENETIC ALGORITHM DOCKED STATE
	_______________________________________________


Detailed state:  trans 7.684 0.364 -16.866 quatxyzw 0.313657 0.629722 0.561031 -0.436249 center 0.035 0.082 -0.065 ntor 24 -171.8521 2.2104 27.8338 -4.1996 20.6131 153.2653 164.4473 -6.3503 78.1490 125.9042 101.3144 -116.8126 23.5358 177.4367 146.8532 16.8966 46.9279 90.1848 -1.7865 -42.7794 -20.0808 -59.2429 180.0000 10.4858
State:	  7.684   0.364 -16.866   0.349  0.700  0.623 -128.270   -171.85    2.21   27.83   -4.20   20.61  153.27  164.45   -6.35   78.15  125.90  101.31 -116.81   23.54  177.44  146.85   16.90   46.93   90.18   -1.79  -42.78  -20.08  -59.24  180.00   10.49

DOCKED: MODEL        9
DOCKED: USER    Run = 9
DOCKED: USER    DPF = D:/Protein_go_brrr/autodock/final/AncMH_nat/IHP/dock.dpf
DOCKED: USER  
DOCKED: USER    Estimated Free Energy of Binding    =   +4.25 kcal/mol  [=(1)+(2)+(3)-(4)]
DOCKED: USER    
DOCKED: USER    (1) Final Intermolecular Energy     =   -2.91 kcal/mol
DOCKED: USER        vdW + Hbond + desolv Energy     =   -2.58 kcal/mol
DOCKED: USER        Electrostatic Energy            =   -0.33 kcal/mol
DOCKED: USER    (2) Final Total Internal Energy     =  -13.37 kcal/mol
DOCKED: USER    (3) Torsional Free Energy           =   +7.16 kcal/mol
DOCKED: USER    (4) Unbound System's Energy  [=(2)] =  -13.37 kcal/mol
DOCKED: USER    
DOCKED: USER    
DOCKED: USER    NEWDPF move IHP_ideal_opt.pdbqt
DOCKED: USER    NEWDPF about 0.035000 0.082000 -0.065000
DOCKED: USER    NEWDPF tran0 7.683932 0.363742 -16.865553
DOCKED: USER    NEWDPF quaternion0 0.313657 0.629722 0.561031 -0.436249
DOCKED: USER    NEWDPF axisangle0 0.348575 0.699827 0.623489 -128.270373
DOCKED: USER    NEWDPF quat0 0.348575 0.699827 0.623489 -128.270373
DOCKED: USER    NEWDPF dihe0 -171.85 2.21 27.83 -4.20 20.61 153.27 164.45 -6.35 78.15 125.90 101.31 -116.81 23.54 177.44 146.85 16.90 46.93 90.18 -1.79 -42.78 -20.08 -59.24 180.00 10.49 
DOCKED: USER  keepresnum = 1 
DOCKED: USER  
DOCKED: REMARK  24 active torsions:
DOCKED: REMARK  status: ('A' for Active; 'I' for Inactive)
DOCKED: REMARK    1  A    between atoms: C_1  and  O_7 
DOCKED: REMARK    2  A    between atoms: C_2  and  O_12 
DOCKED: REMARK    3  A    between atoms: C_3  and  O_17 
DOCKED: REMARK    4  A    between atoms: C_4  and  O_22 
DOCKED: REMARK    5  A    between atoms: C_5  and  O_27 
DOCKED: REMARK    6  A    between atoms: C_6  and  O_32 
DOCKED: REMARK    7  A    between atoms: O_7  and  P_8 
DOCKED: REMARK    8  A    between atoms: P_8  and  O_10 
DOCKED: REMARK    9  A    between atoms: P_8  and  O_11 
DOCKED: REMARK   10  A    between atoms: O_12  and  P_13 
DOCKED: REMARK   11  A    between atoms: P_13  and  O_15 
DOCKED: REMARK   12  A    between atoms: P_13  and  O_16 
DOCKED: REMARK   13  A    between atoms: O_17  and  P_18 
DOCKED: REMARK   14  A    between atoms: P_18  and  O_20 
DOCKED: REMARK   15  A    between atoms: P_18  and  O_21 
DOCKED: REMARK   16  A    between atoms: O_22  and  P_23 
DOCKED: REMARK   17  A    between atoms: P_23  and  O_25 
DOCKED: REMARK   18  A    between atoms: P_23  and  O_26 
DOCKED: REMARK   19  A    between atoms: O_27  and  P_28 
DOCKED: REMARK   20  A    between atoms: P_28  and  O_30 
DOCKED: REMARK   21  A    between atoms: P_28  and  O_31 
DOCKED: REMARK   22  A    between atoms: O_32  and  P_33 
DOCKED: REMARK   23  A    between atoms: P_33  and  O_35 
DOCKED: REMARK   24  A    between atoms: P_33  and  O_36 
DOCKED: USER                              x       y       z     vdW  Elec       q    Type
DOCKED: USER                           _______ _______ _______ _____ _____    ______ ____
DOCKED: ROOT
DOCKED: ATOM      1  C   UNL d   1       7.951   1.660 -17.975 -0.03 -0.09    +0.194 C 
DOCKED: ATOM      2  C   UNL d   1       8.222   0.257 -18.521 -0.01 -0.07    +0.194 C 
DOCKED: ATOM      3  C   UNL d   1       8.977  -0.608 -17.509 -0.02 -0.08    +0.194 C 
DOCKED: ATOM      4  C   UNL d   1       8.315  -0.641 -16.134 -0.10 -0.10    +0.194 C 
DOCKED: ATOM      5  C   UNL d   1       7.923   0.731 -15.601 -0.02 -0.20    +0.194 C 
DOCKED: ATOM      6  C   UNL d   1       7.223   1.619 -16.632 -0.09 -0.12    +0.194 C 
DOCKED: ENDROOT
DOCKED: BRANCH   1   7
DOCKED: ATOM      7  O   UNL d   1       7.101   2.342 -18.900 -0.00 +0.09    -0.278 OA
DOCKED: BRANCH   7   8
DOCKED: ATOM      8  P   UNL d   1       7.589   3.744 -19.490 +0.01 -0.14    +0.473 P 
DOCKED: ATOM      9  O   UNL d   1       8.653   3.657 -20.526 +0.00 +0.06    -0.228 OA
DOCKED: BRANCH   8  10
DOCKED: ATOM     10  O   UNL d   1       6.249   4.428 -20.021 +0.00 +0.06    -0.303 OA
DOCKED: ATOM     11  H   UNL d   1       5.494   4.132 -19.479 +0.01 -0.04    +0.222 HD
DOCKED: ENDBRANCH   8  10
DOCKED: BRANCH   8  12
DOCKED: ATOM     12  O   UNL d   1       7.933   4.630 -18.216 -0.01 +0.13    -0.303 OA
DOCKED: ATOM     13  H   UNL d   1       7.264   4.550 -17.499 +0.05 -0.09    +0.222 HD
DOCKED: ENDBRANCH   8  12
DOCKED: ENDBRANCH   7   8
DOCKED: ENDBRANCH   1   7
DOCKED: BRANCH   2  14
DOCKED: ATOM     14  O   UNL d   1       6.972  -0.377 -18.821 -0.00 +0.07    -0.278 OA
DOCKED: BRANCH  14  15
DOCKED: ATOM     15  P   UNL d   1       6.385  -0.141 -20.292 +0.00 -0.08    +0.473 P 
DOCKED: ATOM     16  O   UNL d   1       4.979   0.364 -20.382 +0.00 +0.03    -0.228 OA
DOCKED: BRANCH  15  17
DOCKED: ATOM     17  O   UNL d   1       7.438   0.838 -20.977 +0.00 +0.06    -0.303 OA
DOCKED: ATOM     18  H   UNL d   1       7.420   1.721 -20.561 +0.00 -0.05    +0.222 HD
DOCKED: ENDBRANCH  15  17
DOCKED: BRANCH  15  19
DOCKED: ATOM     19  O   UNL d   1       6.674  -1.506 -21.057 +0.00 +0.04    -0.303 OA
DOCKED: ATOM     20  H   UNL d   1       7.630  -1.676 -21.143 +0.00 -0.03    +0.222 HD
DOCKED: ENDBRANCH  15  19
DOCKED: ENDBRANCH  14  15
DOCKED: ENDBRANCH   2  14
DOCKED: BRANCH   6  21
DOCKED: ATOM     21  O   UNL d   1       7.234   2.945 -16.109 -0.12 +0.22    -0.278 OA
DOCKED: BRANCH  21  22
DOCKED: ATOM     22  P   UNL d   1       5.859   3.725 -15.898 -0.09 -0.16    +0.473 P 
DOCKED: ATOM     23  O   UNL d   1       5.906   5.085 -15.286 -0.14 +0.03    -0.228 OA
DOCKED: BRANCH  22  24
DOCKED: ATOM     24  O   UNL d   1       5.228   3.673 -17.358 -0.02 +0.07    -0.303 OA
DOCKED: ATOM     25  H   UNL d   1       5.937   3.907 -18.009 +0.03 -0.06    +0.222 HD
DOCKED: ENDBRANCH  22  24
DOCKED: BRANCH  22  26
DOCKED: ATOM     26  O   UNL d   1       4.981   2.633 -15.118 -0.17 +0.08    -0.303 OA
DOCKED: ATOM     27  H   UNL d   1       5.358   1.744 -15.278 +0.09 -0.08    +0.222 HD
DOCKED: ENDBRANCH  22  26
DOCKED: ENDBRANCH  21  22
DOCKED: ENDBRANCH   6  21
DOCKED: BRANCH   3  28
DOCKED: ATOM     28  O   UNL d   1       8.937  -1.950 -17.979 -0.00 +0.07    -0.278 OA
DOCKED: BRANCH  28  29
DOCKED: ATOM     29  P   UNL d   1       9.377  -2.293 -19.471 +0.00 -0.09    +0.473 P 
DOCKED: ATOM     30  O   UNL d   1       9.611  -1.122 -20.355 +0.00 +0.05    -0.228 OA
DOCKED: BRANCH  29  31
DOCKED: ATOM     31  O   UNL d   1      10.629  -3.246 -19.181 +0.00 +0.05    -0.303 OA
DOCKED: ATOM     32  H   UNL d   1      11.315  -3.081 -19.869 +0.00 -0.04    +0.222 HD
DOCKED: ENDBRANCH  29  31
DOCKED: BRANCH  29  33
DOCKED: ATOM     33  O   UNL d   1       8.249  -3.321 -19.923 +0.00 +0.04    -0.303 OA
DOCKED: ATOM     34  H   UNL d   1       7.362  -2.918 -19.759 +0.00 -0.03    +0.222 HD
DOCKED: ENDBRANCH  29  33
DOCKED: ENDBRANCH  28  29
DOCKED: ENDBRANCH   3  28
DOCKED: BRANCH   5  35
DOCKED: ATOM     35  O   UNL d   1       6.987   0.486 -14.553 -0.28 +0.21    -0.278 OA
DOCKED: BRANCH  35  36
DOCKED: ATOM     36  P   UNL d   1       5.748  -0.490 -14.792 -0.17 -0.15    +0.473 P 
DOCKED: ATOM     37  O   UNL d   1       5.981  -1.925 -14.441 -0.21 +0.04    -0.228 OA
DOCKED: BRANCH  36  38
DOCKED: ATOM     38  O   UNL d   1       4.606   0.216 -13.936 -0.20 +0.09    -0.303 OA
DOCKED: ATOM     39  H   UNL d   1       4.932   1.088 -13.624 -0.12 -0.13    +0.222 HD
DOCKED: ENDBRANCH  36  38
DOCKED: BRANCH  36  40
DOCKED: ATOM     40  O   UNL d   1       5.350  -0.171 -16.299 -0.04 +0.08    -0.303 OA
DOCKED: ATOM     41  H   UNL d   1       5.894  -0.686 -16.936 +0.04 -0.05    +0.222 HD
DOCKED: ENDBRANCH  36  40
DOCKED: ENDBRANCH  35  36
DOCKED: ENDBRANCH   5  35
DOCKED: BRANCH   4  42
DOCKED: ATOM     42  O   UNL d   1       9.276  -1.187 -15.224 -0.14 +0.15    -0.278 OA
DOCKED: BRANCH  42  43
DOCKED: ATOM     43  P   UNL d   1       9.152  -2.720 -14.799 -0.11 -0.06    +0.473 P 
DOCKED: ATOM     44  O   UNL d   1      10.402  -3.530 -14.776 -0.11 -0.03    -0.228 OA
DOCKED: BRANCH  43  45
DOCKED: ATOM     45  O   UNL d   1       8.405  -2.634 -13.397 -0.21 +0.04    -0.303 OA
DOCKED: ATOM     46  H   UNL d   1       7.836  -1.840 -13.342 -0.40 -0.10    +0.222 HD
DOCKED: ENDBRANCH  43  45
DOCKED: BRANCH  43  47
DOCKED: ATOM     47  O   UNL d   1       7.988  -3.272 -15.754 -0.05 +0.04    -0.303 OA
DOCKED: ATOM     48  H   UNL d   1       8.273  -3.193 -16.688 +0.04 -0.04    +0.222 HD
DOCKED: ENDBRANCH  43  47
DOCKED: ENDBRANCH  42  43
DOCKED: ENDBRANCH   4  42
DOCKED: TORSDOF 24
DOCKED: TER
DOCKED: ENDMDL
________________________________________________________________________________


	BEGINNING GENETIC ALGORITHM DOCKING 10 of 100
Run: 10 Seed: 184335547 214824498 [ Run 10 of 100 GA/GALS ]
Beginning LAMARCKIAN GENETIC ALGORITHM (LGA), with a maximum of 25000000 energy evaluations.

Final-Value: -21.117


	FINAL GENETIC ALGORITHM DOCKED STATE
	_______________________________________________


Detailed state:  trans -9.277 7.697 17.358 quatxyzw 0.879480 0.074504 0.362006 -0.299858 center 0.035 0.082 -0.065 ntor 24 123.3209 102.5077 54.1944 57.6372 29.8743 -130.7858 -133.0737 29.7891 71.1349 130.6371 -31.9060 179.5010 148.5697 156.8451 -13.3617 65.1463 67.9670 -152.3718 7.4296 -17.9606 -30.2235 157.8940 28.6954 -60.0165
State:	 -9.277   7.697  17.358   0.922  0.078  0.379 -145.102    123.32  102.51   54.19   57.64   29.87 -130.79 -133.07   29.79   71.13  130.64  -31.91  179.50  148.57  156.85  -13.36   65.15   67.97 -152.37    7.43  -17.96  -30.22  157.89   28.70  -60.02

DOCKED: MODEL       10
DOCKED: USER    Run = 10
DOCKED: USER    DPF = D:/Protein_go_brrr/autodock/final/AncMH_nat/IHP/dock.dpf
DOCKED: USER  
DOCKED: USER    Estimated Free Energy of Binding    =   +1.39 kcal/mol  [=(1)+(2)+(3)-(4)]
DOCKED: USER    
DOCKED: USER    (1) Final Intermolecular Energy     =   -5.77 kcal/mol
DOCKED: USER        vdW + Hbond + desolv Energy     =   -5.43 kcal/mol
DOCKED: USER        Electrostatic Energy            =   -0.34 kcal/mol
DOCKED: USER    (2) Final Total Internal Energy     =  -15.35 kcal/mol
DOCKED: USER    (3) Torsional Free Energy           =   +7.16 kcal/mol
DOCKED: USER    (4) Unbound System's Energy  [=(2)] =  -15.35 kcal/mol
DOCKED: USER    
DOCKED: USER    
DOCKED: USER    NEWDPF move IHP_ideal_opt.pdbqt
DOCKED: USER    NEWDPF about 0.035000 0.082000 -0.065000
DOCKED: USER    NEWDPF tran0 -9.276515 7.697167 17.358362
DOCKED: USER    NEWDPF quaternion0 0.879480 0.074504 0.362006 -0.299858
DOCKED: USER    NEWDPF axisangle0 0.921903 0.078098 0.379468 -145.101831
DOCKED: USER    NEWDPF quat0 0.921903 0.078098 0.379468 -145.101831
DOCKED: USER    NEWDPF dihe0 123.32 102.51 54.19 57.64 29.87 -130.79 -133.07 29.79 71.13 130.64 -31.91 179.50 148.57 156.85 -13.36 65.15 67.97 -152.37 7.43 -17.96 -30.22 157.89 28.70 -60.02 
DOCKED: USER  keepresnum = 1 
DOCKED: USER  
DOCKED: REMARK  24 active torsions:
DOCKED: REMARK  status: ('A' for Active; 'I' for Inactive)
DOCKED: REMARK    1  A    between atoms: C_1  and  O_7 
DOCKED: REMARK    2  A    between atoms: C_2  and  O_12 
DOCKED: REMARK    3  A    between atoms: C_3  and  O_17 
DOCKED: REMARK    4  A    between atoms: C_4  and  O_22 
DOCKED: REMARK    5  A    between atoms: C_5  and  O_27 
DOCKED: REMARK    6  A    between atoms: C_6  and  O_32 
DOCKED: REMARK    7  A    between atoms: O_7  and  P_8 
DOCKED: REMARK    8  A    between atoms: P_8  and  O_10 
DOCKED: REMARK    9  A    between atoms: P_8  and  O_11 
DOCKED: REMARK   10  A    between atoms: O_12  and  P_13 
DOCKED: REMARK   11  A    between atoms: P_13  and  O_15 
DOCKED: REMARK   12  A    between atoms: P_13  and  O_16 
DOCKED: REMARK   13  A    between atoms: O_17  and  P_18 
DOCKED: REMARK   14  A    between atoms: P_18  and  O_20 
DOCKED: REMARK   15  A    between atoms: P_18  and  O_21 
DOCKED: REMARK   16  A    between atoms: O_22  and  P_23 
DOCKED: REMARK   17  A    between atoms: P_23  and  O_25 
DOCKED: REMARK   18  A    between atoms: P_23  and  O_26 
DOCKED: REMARK   19  A    between atoms: O_27  and  P_28 
DOCKED: REMARK   20  A    between atoms: P_28  and  O_30 
DOCKED: REMARK   21  A    between atoms: P_28  and  O_31 
DOCKED: REMARK   22  A    between atoms: O_32  and  P_33 
DOCKED: REMARK   23  A    between atoms: P_33  and  O_35 
DOCKED: REMARK   24  A    between atoms: P_33  and  O_36 
DOCKED: USER                              x       y       z     vdW  Elec       q    Type
DOCKED: USER                           _______ _______ _______ _____ _____    ______ ____
DOCKED: ROOT
DOCKED: ATOM      1  C   UNL d   1      -7.750   8.477  17.143 -0.22 -0.12    +0.194 C 
DOCKED: ATOM      2  C   UNL d   1      -8.840   8.868  16.142 -0.27 -0.06    +0.194 C 
DOCKED: ATOM      3  C   UNL d   1      -9.624   7.648  15.653 -0.39 -0.06    +0.194 C 
DOCKED: ATOM      4  C   UNL d   1     -10.167   6.787  16.791 -0.26 -0.06    +0.194 C 
DOCKED: ATOM      5  C   UNL d   1      -9.142   6.468  17.872 -0.16 -0.11    +0.194 C 
DOCKED: ATOM      6  C   UNL d   1      -8.315   7.677  18.317 -0.12 -0.13    +0.194 C 
DOCKED: ENDROOT
DOCKED: BRANCH   1   7
DOCKED: ATOM      7  O   UNL d   1      -7.185   9.677  17.677 -0.10 +0.12    -0.278 OA
DOCKED: BRANCH   7   8
DOCKED: ATOM      8  P   UNL d   1      -5.652   9.999  17.363 -0.10 -0.22    +0.473 P 
DOCKED: ATOM      9  O   UNL d   1      -5.007  10.963  18.295 -0.03 +0.06    -0.228 OA
DOCKED: BRANCH   8  10
DOCKED: ATOM     10  O   UNL d   1      -4.950   8.567  17.355 -0.20 +0.34    -0.303 OA
DOCKED: ATOM     11  H   UNL d   1      -5.376   7.990  18.017 -0.13 -0.35    +0.222 HD
DOCKED: ENDBRANCH   8  10
DOCKED: BRANCH   8  12
DOCKED: ATOM     12  O   UNL d   1      -5.620  10.393  15.824 -0.12 +0.09    -0.303 OA
DOCKED: ATOM     13  H   UNL d   1      -6.211  11.150  15.608 +0.09 -0.05    +0.222 HD
DOCKED: ENDBRANCH   8  12
DOCKED: ENDBRANCH   7   8
DOCKED: ENDBRANCH   1   7
DOCKED: BRANCH   2  14
DOCKED: ATOM     14  O   UNL d   1      -9.752   9.774  16.775 -0.09 +0.06    -0.278 OA
DOCKED: BRANCH  14  15
DOCKED: ATOM     15  P   UNL d   1      -9.784  11.271  16.208 -0.12 -0.09    +0.473 P 
DOCKED: ATOM     16  O   UNL d   1     -10.081  12.357  17.194 -0.06 +0.05    -0.228 OA
DOCKED: BRANCH  15  17
DOCKED: ATOM     17  O   UNL d   1      -8.366  11.448  15.503 -0.23 +0.06    -0.303 OA
DOCKED: ATOM     18  H   UNL d   1      -7.654  11.051  16.040 +0.08 -0.05    +0.222 HD
DOCKED: ENDBRANCH  15  17
DOCKED: BRANCH  15  19
DOCKED: ATOM     19  O   UNL d   1     -10.758  11.199  14.953 -0.16 +0.05    -0.303 OA
DOCKED: ATOM     20  H   UNL d   1     -11.078  10.291  14.796 +0.11 -0.03    +0.222 HD
DOCKED: ENDBRANCH  15  19
DOCKED: ENDBRANCH  14  15
DOCKED: ENDBRANCH   2  14
DOCKED: BRANCH   6  21
DOCKED: ATOM     21  O   UNL d   1      -7.203   7.168  19.049 +0.11 +0.37    -0.278 OA
DOCKED: BRANCH  21  22
DOCKED: ATOM     22  P   UNL d   1      -6.820   7.813  20.457 -0.03 -0.28    +0.473 P 
DOCKED: ATOM     23  O   UNL d   1      -7.837   8.660  21.145 -0.01 +0.07    -0.228 OA
DOCKED: BRANCH  22  24
DOCKED: ATOM     24  O   UNL d   1      -6.346   6.537  21.282 -0.04 +0.18    -0.303 OA
DOCKED: ATOM     25  H   UNL d   1      -6.914   5.770  21.017 +0.00 -0.15    +0.222 HD
DOCKED: ENDBRANCH  22  24
DOCKED: BRANCH  22  26
DOCKED: ATOM     26  O   UNL d   1      -5.424   8.527  20.119 -0.04 +0.18    -0.303 OA
DOCKED: ATOM     27  H   UNL d   1      -5.549   9.134  19.362 +0.03 -0.12    +0.222 HD
DOCKED: ENDBRANCH  22  26
DOCKED: ENDBRANCH  21  22
DOCKED: ENDBRANCH   6  21
DOCKED: BRANCH   3  28
DOCKED: ATOM     28  O   UNL d   1     -10.770   8.126  14.961 -0.32 +0.05    -0.278 OA
DOCKED: BRANCH  28  29
DOCKED: ATOM     29  P   UNL d   1     -12.143   8.351  15.737 -0.15 -0.02    +0.473 P 
DOCKED: ATOM     30  O   UNL d   1     -12.020   8.920  17.104 -0.05 +0.01    -0.228 OA
DOCKED: BRANCH  29  31
DOCKED: ATOM     31  O   UNL d   1     -12.936   9.224  14.655 -0.22 -0.00    -0.303 OA
DOCKED: ATOM     32  H   UNL d   1     -12.643  10.161  14.732 +0.11 -0.01    +0.222 HD
DOCKED: ENDBRANCH  29  31
DOCKED: BRANCH  29  33
DOCKED: ATOM     33  O   UNL d   1     -12.835   6.922  15.612 -0.13 -0.01    -0.303 OA
DOCKED: ATOM     34  H   UNL d   1     -12.553   6.361  16.375 +0.05 -0.01    +0.222 HD
DOCKED: ENDBRANCH  29  33
DOCKED: ENDBRANCH  28  29
DOCKED: ENDBRANCH   3  28
DOCKED: BRANCH   5  35
DOCKED: ATOM     35  O   UNL d   1      -9.894   6.035  19.003 -0.05 +0.09    -0.278 OA
DOCKED: BRANCH  35  36
DOCKED: ATOM     36  P   UNL d   1      -9.202   5.161  20.144 -0.02 -0.18    +0.473 P 
DOCKED: ATOM     37  O   UNL d   1      -9.051   5.835  21.470 -0.01 +0.06    -0.228 OA
DOCKED: BRANCH  36  38
DOCKED: ATOM     38  O   UNL d   1     -10.127   3.866  20.169 -0.01 +0.07    -0.303 OA
DOCKED: ATOM     39  H   UNL d   1     -10.828   3.958  19.488 +0.05 -0.04    +0.222 HD
DOCKED: ENDBRANCH  36  38
DOCKED: BRANCH  36  40
DOCKED: ATOM     40  O   UNL d   1      -7.869   4.666  19.430 -0.05 +0.29    -0.303 OA
DOCKED: ATOM     41  H   UNL d   1      -7.131   5.303  19.556 -0.52 -0.36    +0.222 HD
DOCKED: ENDBRANCH  36  40
DOCKED: ENDBRANCH  35  36
DOCKED: ENDBRANCH   5  35
DOCKED: BRANCH   4  42
DOCKED: ATOM     42  O   UNL d   1     -10.569   5.541  16.212 -0.31 +0.09    -0.278 OA
DOCKED: BRANCH  42  43
DOCKED: ATOM     43  P   UNL d   1     -11.379   4.499  17.108 -0.17 -0.09    +0.473 P 
DOCKED: ATOM     44  O   UNL d   1     -10.652   3.286  17.576 -0.57 +0.02    -0.228 OA
DOCKED: BRANCH  43  45
DOCKED: ATOM     45  O   UNL d   1     -11.941   5.414  18.283 -0.04 +0.03    -0.303 OA
DOCKED: ATOM     46  H   UNL d   1     -11.446   5.273  19.115 +0.05 -0.03    +0.222 HD
DOCKED: ENDBRANCH  43  45
DOCKED: BRANCH  43  47
DOCKED: ATOM     47  O   UNL d   1     -12.702   4.225  16.247 -0.13 +0.07    -0.303 OA
DOCKED: ATOM     48  H   UNL d   1     -12.677   4.771  15.434 -0.47 -0.12    +0.222 HD
DOCKED: ENDBRANCH  43  47
DOCKED: ENDBRANCH  42  43
DOCKED: ENDBRANCH   4  42
DOCKED: TORSDOF 24
DOCKED: TER
DOCKED: ENDMDL
________________________________________________________________________________


	BEGINNING GENETIC ALGORITHM DOCKING 11 of 100
Run: 11 Seed: 1128951246 1834437312 [ Run 11 of 100 GA/GALS ]
Beginning LAMARCKIAN GENETIC ALGORITHM (LGA), with a maximum of 25000000 energy evaluations.

Final-Value: -17.928


	FINAL GENETIC ALGORITHM DOCKED STATE
	_______________________________________________


Detailed state:  trans -19.622 -2.423 9.366 quatxyzw 0.739466 -0.603753 0.006502 0.297707 center 0.035 0.082 -0.065 ntor 24 156.7225 97.8876 56.0179 36.1163 44.7821 65.8273 -139.2408 -14.2185 16.2573 -162.0301 67.9230 -170.4764 148.4952 129.8675 101.3120 17.5546 -88.8411 -7.6673 15.8869 -26.9647 164.4151 -33.2010 11.0483 148.9132
State:	-19.622  -2.423   9.366   0.775 -0.632  0.007 145.360    156.72   97.89   56.02   36.12   44.78   65.83 -139.24  -14.22   16.26 -162.03   67.92 -170.48  148.50  129.87  101.31   17.55  -88.84   -7.67   15.89  -26.96  164.42  -33.20   11.05  148.91

DOCKED: MODEL       11
DOCKED: USER    Run = 11
DOCKED: USER    DPF = D:/Protein_go_brrr/autodock/final/AncMH_nat/IHP/dock.dpf
DOCKED: USER  
DOCKED: USER    Estimated Free Energy of Binding    =   +0.78 kcal/mol  [=(1)+(2)+(3)-(4)]
DOCKED: USER    
DOCKED: USER    (1) Final Intermolecular Energy     =   -6.38 kcal/mol
DOCKED: USER        vdW + Hbond + desolv Energy     =   -6.10 kcal/mol
DOCKED: USER        Electrostatic Energy            =   -0.28 kcal/mol
DOCKED: USER    (2) Final Total Internal Energy     =  -11.55 kcal/mol
DOCKED: USER    (3) Torsional Free Energy           =   +7.16 kcal/mol
DOCKED: USER    (4) Unbound System's Energy  [=(2)] =  -11.55 kcal/mol
DOCKED: USER    
DOCKED: USER    
DOCKED: USER    NEWDPF move IHP_ideal_opt.pdbqt
DOCKED: USER    NEWDPF about 0.035000 0.082000 -0.065000
DOCKED: USER    NEWDPF tran0 -19.621777 -2.423009 9.365801
DOCKED: USER    NEWDPF quaternion0 0.739466 -0.603753 0.006502 0.297707
DOCKED: USER    NEWDPF axisangle0 0.774588 -0.632429 0.006810 145.360078
DOCKED: USER    NEWDPF quat0 0.774588 -0.632429 0.006810 145.360078
DOCKED: USER    NEWDPF dihe0 156.72 97.89 56.02 36.12 44.78 65.83 -139.24 -14.22 16.26 -162.03 67.92 -170.48 148.50 129.87 101.31 17.55 -88.84 -7.67 15.89 -26.96 164.42 -33.20 11.05 148.91 
DOCKED: USER  keepresnum = 1 
DOCKED: USER  
DOCKED: REMARK  24 active torsions:
DOCKED: REMARK  status: ('A' for Active; 'I' for Inactive)
DOCKED: REMARK    1  A    between atoms: C_1  and  O_7 
DOCKED: REMARK    2  A    between atoms: C_2  and  O_12 
DOCKED: REMARK    3  A    between atoms: C_3  and  O_17 
DOCKED: REMARK    4  A    between atoms: C_4  and  O_22 
DOCKED: REMARK    5  A    between atoms: C_5  and  O_27 
DOCKED: REMARK    6  A    between atoms: C_6  and  O_32 
DOCKED: REMARK    7  A    between atoms: O_7  and  P_8 
DOCKED: REMARK    8  A    between atoms: P_8  and  O_10 
DOCKED: REMARK    9  A    between atoms: P_8  and  O_11 
DOCKED: REMARK   10  A    between atoms: O_12  and  P_13 
DOCKED: REMARK   11  A    between atoms: P_13  and  O_15 
DOCKED: REMARK   12  A    between atoms: P_13  and  O_16 
DOCKED: REMARK   13  A    between atoms: O_17  and  P_18 
DOCKED: REMARK   14  A    between atoms: P_18  and  O_20 
DOCKED: REMARK   15  A    between atoms: P_18  and  O_21 
DOCKED: REMARK   16  A    between atoms: O_22  and  P_23 
DOCKED: REMARK   17  A    between atoms: P_23  and  O_25 
DOCKED: REMARK   18  A    between atoms: P_23  and  O_26 
DOCKED: REMARK   19  A    between atoms: O_27  and  P_28 
DOCKED: REMARK   20  A    between atoms: P_28  and  O_30 
DOCKED: REMARK   21  A    between atoms: P_28  and  O_31 
DOCKED: REMARK   22  A    between atoms: O_32  and  P_33 
DOCKED: REMARK   23  A    between atoms: P_33  and  O_35 
DOCKED: REMARK   24  A    between atoms: P_33  and  O_36 
DOCKED: USER                              x       y       z     vdW  Elec       q    Type
DOCKED: USER                           _______ _______ _______ _____ _____    ______ ____
DOCKED: ROOT
DOCKED: ATOM      1  C   UNL d   1     -18.201  -3.121   8.675 -0.13 +0.05    +0.194 C 
DOCKED: ATOM      2  C   UNL d   1     -17.960  -2.086   9.775 -0.10 +0.04    +0.194 C 
DOCKED: ATOM      3  C   UNL d   1     -18.876  -0.870   9.619 -0.04 +0.05    +0.194 C 
DOCKED: ATOM      4  C   UNL d   1     -20.351  -1.241   9.488 -0.01 +0.05    +0.194 C 
DOCKED: ATOM      5  C   UNL d   1     -20.625  -2.352   8.482 -0.01 +0.06    +0.194 C 
DOCKED: ATOM      6  C   UNL d   1     -19.669  -3.542   8.598 -0.10 +0.05    +0.194 C 
DOCKED: ENDROOT
DOCKED: BRANCH   1   7
DOCKED: ATOM      7  O   UNL d   1     -17.439  -4.290   8.987 -0.08 -0.02    -0.278 OA
DOCKED: BRANCH   7   8
DOCKED: ATOM      8  P   UNL d   1     -16.128  -4.594   8.126 -0.24 +0.11    +0.473 P 
DOCKED: ATOM      9  O   UNL d   1     -15.659  -6.006   8.168 -0.98 -0.10    -0.228 OA
DOCKED: BRANCH   8  10
DOCKED: ATOM     10  O   UNL d   1     -16.509  -4.103   6.656 -0.12 -0.09    -0.303 OA
DOCKED: ATOM     11  H   UNL d   1     -17.425  -3.768   6.650 +0.07 +0.07    +0.222 HD
DOCKED: ENDBRANCH   8  10
DOCKED: BRANCH   8  12
DOCKED: ATOM     12  O   UNL d   1     -15.072  -3.498   8.580 -0.28 -0.02    -0.303 OA
DOCKED: ATOM     13  H   UNL d   1     -14.946  -3.464   9.555 -0.44 -0.04    +0.222 HD
DOCKED: ENDBRANCH   8  12
DOCKED: ENDBRANCH   7   8
DOCKED: ENDBRANCH   1   7
DOCKED: BRANCH   2  14
DOCKED: ATOM     14  O   UNL d   1     -18.217  -2.691  11.049 -0.08 -0.06    -0.278 OA
DOCKED: BRANCH  14  15
DOCKED: ATOM     15  P   UNL d   1     -16.936  -3.076  11.930 -0.15 +0.12    +0.473 P 
DOCKED: ATOM     16  O   UNL d   1     -17.195  -3.818  13.203 -0.20 -0.10    -0.228 OA
DOCKED: BRANCH  15  17
DOCKED: ATOM     17  O   UNL d   1     -16.002  -3.883  10.923 -0.69 -0.12    -0.303 OA
DOCKED: ATOM     18  H   UNL d   1     -16.529  -4.474  10.352 -0.38 +0.08    +0.222 HD
DOCKED: ENDBRANCH  15  17
DOCKED: BRANCH  15  19
DOCKED: ATOM     19  O   UNL d   1     -16.136  -1.710  12.083 -0.16 -0.03    -0.303 OA
DOCKED: ATOM     20  H   UNL d   1     -16.347  -1.085  11.364 +0.10 +0.02    +0.222 HD
DOCKED: ENDBRANCH  15  19
DOCKED: ENDBRANCH  14  15
DOCKED: ENDBRANCH   2  14
DOCKED: BRANCH   6  21
DOCKED: ATOM     21  O   UNL d   1     -19.823  -4.311   7.408 -0.37 -0.10    -0.278 OA
DOCKED: BRANCH  21  22
DOCKED: ATOM     22  P   UNL d   1     -19.471  -3.661   5.994 +0.04 +0.21    +0.473 P 
DOCKED: ATOM     23  O   UNL d   1     -18.604  -4.435   5.059 -0.37 -0.11    -0.228 OA
DOCKED: BRANCH  22  24
DOCKED: ATOM     24  O   UNL d   1     -20.916  -3.310   5.429 -0.04 -0.12    -0.303 OA
DOCKED: ATOM     25  H   UNL d   1     -21.578  -3.875   5.902 +0.02 +0.07    +0.222 HD
DOCKED: ENDBRANCH  22  24
DOCKED: BRANCH  22  26
DOCKED: ATOM     26  O   UNL d   1     -18.924  -2.218   6.427 -0.02 -0.14    -0.303 OA
DOCKED: ATOM     27  H   UNL d   1     -19.583  -1.537   6.181 +0.04 +0.13    +0.222 HD
DOCKED: ENDBRANCH  22  26
DOCKED: ENDBRANCH  21  22
DOCKED: ENDBRANCH   6  21
DOCKED: BRANCH   3  28
DOCKED: ATOM     28  O   UNL d   1     -18.784  -0.109  10.816 -0.03 -0.06    -0.278 OA
DOCKED: BRANCH  28  29
DOCKED: ATOM     29  P   UNL d   1     -17.519   0.823  11.081 -0.13 +0.05    +0.473 P 
DOCKED: ATOM     30  O   UNL d   1     -16.403   0.680  10.111 -0.48 -0.04    -0.228 OA
DOCKED: BRANCH  29  31
DOCKED: ATOM     31  O   UNL d   1     -18.237   2.252  11.156 -0.04 +0.00    -0.303 OA
DOCKED: ATOM     32  H   UNL d   1     -18.298   2.621  10.245 -0.39 -0.05    +0.222 HD
DOCKED: ENDBRANCH  29  31
DOCKED: BRANCH  29  33
DOCKED: ATOM     33  O   UNL d   1     -17.190   0.514  12.608 -0.07 -0.03    -0.303 OA
DOCKED: ATOM     34  H   UNL d   1     -17.232  -0.463  12.754 +0.08 +0.03    +0.222 HD
DOCKED: ENDBRANCH  29  33
DOCKED: ENDBRANCH  28  29
DOCKED: ENDBRANCH   3  28
DOCKED: BRANCH   5  35
DOCKED: ATOM     35  O   UNL d   1     -21.933  -2.834   8.784 -0.00 -0.07    -0.278 OA
DOCKED: BRANCH  35  36
DOCKED: ATOM     36  P   UNL d   1     -22.928  -3.249   7.608 +0.01 +0.11    +0.473 P 
DOCKED: ATOM     37  O   UNL d   1     -22.991  -2.303   6.452 -0.00 -0.07    -0.228 OA
DOCKED: BRANCH  36  38
DOCKED: ATOM     38  O   UNL d   1     -22.402  -4.705   7.235 -0.03 -0.07    -0.303 OA
DOCKED: ATOM     39  H   UNL d   1     -21.440  -4.660   7.043 +0.02 +0.06    +0.222 HD
DOCKED: ENDBRANCH  36  38
DOCKED: BRANCH  36  40
DOCKED: ATOM     40  O   UNL d   1     -24.285  -3.522   8.392 +0.00 -0.05    -0.303 OA
DOCKED: ATOM     41  H   UNL d   1     -25.069  -3.425   7.808 +0.00 +0.03    +0.222 HD
DOCKED: ENDBRANCH  36  40
DOCKED: ENDBRANCH  35  36
DOCKED: ENDBRANCH   5  35
DOCKED: BRANCH   4  42
DOCKED: ATOM     42  O   UNL d   1     -21.033  -0.073   9.020 -0.02 -0.10    -0.278 OA
DOCKED: BRANCH  42  43
DOCKED: ATOM     43  P   UNL d   1     -20.311   0.864   7.949 -0.02 +0.29    +0.473 P 
DOCKED: ATOM     44  O   UNL d   1     -19.507   0.198   6.887 -0.11 -0.18    -0.228 OA
DOCKED: BRANCH  43  45
DOCKED: ATOM     45  O   UNL d   1     -21.511   1.751   7.397 -0.06 -0.25    -0.303 OA
DOCKED: ATOM     46  H   UNL d   1     -22.369   1.464   7.768 +0.02 +0.12    +0.222 HD
DOCKED: ENDBRANCH  43  45
DOCKED: BRANCH  43  47
DOCKED: ATOM     47  O   UNL d   1     -19.518   1.918   8.859 -0.18 -0.13    -0.303 OA
DOCKED: ATOM     48  H   UNL d   1     -19.568   1.637   9.797 +0.06 +0.06    +0.222 HD
DOCKED: ENDBRANCH  43  47
DOCKED: ENDBRANCH  42  43
DOCKED: ENDBRANCH   4  42
DOCKED: TORSDOF 24
DOCKED: TER
DOCKED: ENDMDL
________________________________________________________________________________


	BEGINNING GENETIC ALGORITHM DOCKING 12 of 100
Run: 12 Seed: 1048004644 1770085029 [ Run 12 of 100 GA/GALS ]
Beginning LAMARCKIAN GENETIC ALGORITHM (LGA), with a maximum of 25000000 energy evaluations.

Final-Value: -21.047


	FINAL GENETIC ALGORITHM DOCKED STATE
	_______________________________________________


Detailed state:  trans 1.654 18.748 -7.528 quatxyzw -0.135054 -0.397495 -0.868590 -0.263267 center 0.035 0.082 -0.065 ntor 24 168.8633 17.3056 65.9901 56.9746 0.7002 -162.2559 -139.7493 5.1795 37.3874 131.1357 151.9908 -128.3293 30.2050 148.8404 6.9550 46.7632 -37.2850 90.9873 6.1195 -20.9935 -21.5689 160.4039 23.1788 -32.7388
State:	  1.654  18.748  -7.528  -0.140 -0.412 -0.900 -149.472    168.86   17.31   65.99   56.97    0.70 -162.26 -139.75    5.18   37.39  131.14  151.99 -128.33   30.20  148.84    6.95   46.76  -37.29   90.99    6.12  -20.99  -21.57  160.40   23.18  -32.74

DOCKED: MODEL       12
DOCKED: USER    Run = 12
DOCKED: USER    DPF = D:/Protein_go_brrr/autodock/final/AncMH_nat/IHP/dock.dpf
DOCKED: USER  
DOCKED: USER    Estimated Free Energy of Binding    =   +0.55 kcal/mol  [=(1)+(2)+(3)-(4)]
DOCKED: USER    
DOCKED: USER    (1) Final Intermolecular Energy     =   -6.61 kcal/mol
DOCKED: USER        vdW + Hbond + desolv Energy     =   -6.50 kcal/mol
DOCKED: USER        Electrostatic Energy            =   -0.11 kcal/mol
DOCKED: USER    (2) Final Total Internal Energy     =  -14.43 kcal/mol
DOCKED: USER    (3) Torsional Free Energy           =   +7.16 kcal/mol
DOCKED: USER    (4) Unbound System's Energy  [=(2)] =  -14.43 kcal/mol
DOCKED: USER    
DOCKED: USER    
DOCKED: USER    NEWDPF move IHP_ideal_opt.pdbqt
DOCKED: USER    NEWDPF about 0.035000 0.082000 -0.065000
DOCKED: USER    NEWDPF tran0 1.653601 18.747580 -7.528453
DOCKED: USER    NEWDPF quaternion0 -0.135054 -0.397495 -0.868590 -0.263267
DOCKED: USER    NEWDPF axisangle0 -0.139993 -0.412030 -0.900352 -149.472053
DOCKED: USER    NEWDPF quat0 -0.139993 -0.412030 -0.900352 -149.472053
DOCKED: USER    NEWDPF dihe0 168.86 17.31 65.99 56.97 0.70 -162.26 -139.75 5.18 37.39 131.14 151.99 -128.33 30.20 148.84 6.95 46.76 -37.29 90.99 6.12 -20.99 -21.57 160.40 23.18 -32.74 
DOCKED: USER  keepresnum = 1 
DOCKED: USER  
DOCKED: REMARK  24 active torsions:
DOCKED: REMARK  status: ('A' for Active; 'I' for Inactive)
DOCKED: REMARK    1  A    between atoms: C_1  and  O_7 
DOCKED: REMARK    2  A    between atoms: C_2  and  O_12 
DOCKED: REMARK    3  A    between atoms: C_3  and  O_17 
DOCKED: REMARK    4  A    between atoms: C_4  and  O_22 
DOCKED: REMARK    5  A    between atoms: C_5  and  O_27 
DOCKED: REMARK    6  A    between atoms: C_6  and  O_32 
DOCKED: REMARK    7  A    between atoms: O_7  and  P_8 
DOCKED: REMARK    8  A    between atoms: P_8  and  O_10 
DOCKED: REMARK    9  A    between atoms: P_8  and  O_11 
DOCKED: REMARK   10  A    between atoms: O_12  and  P_13 
DOCKED: REMARK   11  A    between atoms: P_13  and  O_15 
DOCKED: REMARK   12  A    between atoms: P_13  and  O_16 
DOCKED: REMARK   13  A    between atoms: O_17  and  P_18 
DOCKED: REMARK   14  A    between atoms: P_18  and  O_20 
DOCKED: REMARK   15  A    between atoms: P_18  and  O_21 
DOCKED: REMARK   16  A    between atoms: O_22  and  P_23 
DOCKED: REMARK   17  A    between atoms: P_23  and  O_25 
DOCKED: REMARK   18  A    between atoms: P_23  and  O_26 
DOCKED: REMARK   19  A    between atoms: O_27  and  P_28 
DOCKED: REMARK   20  A    between atoms: P_28  and  O_30 
DOCKED: REMARK   21  A    between atoms: P_28  and  O_31 
DOCKED: REMARK   22  A    between atoms: O_32  and  P_33 
DOCKED: REMARK   23  A    between atoms: P_33  and  O_35 
DOCKED: REMARK   24  A    between atoms: P_33  and  O_36 
DOCKED: USER                              x       y       z     vdW  Elec       q    Type
DOCKED: USER                           _______ _______ _______ _____ _____    ______ ____
DOCKED: ROOT
DOCKED: ATOM      1  C   UNL d   1       0.139  19.396  -7.010 -0.08 -0.03    +0.194 C 
DOCKED: ATOM      2  C   UNL d   1       0.705  19.990  -8.301 -0.06 -0.03    +0.194 C 
DOCKED: ATOM      3  C   UNL d   1       2.207  20.260  -8.189 -0.03 -0.02    +0.194 C 
DOCKED: ATOM      4  C   UNL d   1       3.002  19.047  -7.715 -0.06 -0.01    +0.194 C 
DOCKED: ATOM      5  C   UNL d   1       2.408  18.353  -6.496 -0.09 -0.01    +0.194 C 
DOCKED: ATOM      6  C   UNL d   1       0.896  18.138  -6.581 -0.12 -0.03    +0.194 C 
DOCKED: ENDROOT
DOCKED: BRANCH   1   7
DOCKED: ATOM      7  O   UNL d   1      -1.218  19.015  -7.252 -0.12 +0.06    -0.278 OA
DOCKED: BRANCH   7   8
DOCKED: ATOM      8  P   UNL d   1      -2.372  19.755  -6.432 -0.09 -0.03    +0.473 P 
DOCKED: ATOM      9  O   UNL d   1      -2.785  21.077  -6.978 -0.03 +0.01    -0.228 OA
DOCKED: BRANCH   8  10
DOCKED: ATOM     10  O   UNL d   1      -3.562  18.693  -6.393 -0.20 +0.03    -0.303 OA
DOCKED: ATOM     11  H   UNL d   1      -3.238  17.828  -6.707 -0.30 -0.02    +0.222 HD
DOCKED: ENDBRANCH   8  10
DOCKED: BRANCH   8  12
DOCKED: ATOM     12  O   UNL d   1      -1.874  19.752  -4.923 -0.04 -0.00    -0.303 OA
DOCKED: ATOM     13  H   UNL d   1      -1.281  18.996  -4.715 +0.08 +0.01    +0.222 HD
DOCKED: ENDBRANCH   8  12
DOCKED: ENDBRANCH   7   8
DOCKED: ENDBRANCH   1   7
DOCKED: BRANCH   2  14
DOCKED: ATOM     14  O   UNL d   1       0.485  19.067  -9.375 -0.02 +0.10    -0.278 OA
DOCKED: BRANCH  14  15
DOCKED: ATOM     15  P   UNL d   1      -0.584  19.502 -10.485 -0.04 -0.11    +0.473 P 
DOCKED: ATOM     16  O   UNL d   1      -1.235  18.399 -11.259 -0.17 +0.05    -0.228 OA
DOCKED: BRANCH  15  17
DOCKED: ATOM     17  O   UNL d   1      -1.632  20.396  -9.684 -0.06 +0.04    -0.303 OA
DOCKED: ATOM     18  H   UNL d   1      -1.694  20.114  -8.751 +0.03 -0.03    +0.222 HD
DOCKED: ENDBRANCH  15  17
DOCKED: BRANCH  15  19
DOCKED: ATOM     19  O   UNL d   1       0.171  20.598 -11.356 -0.02 +0.04    -0.303 OA
DOCKED: ATOM     20  H   UNL d   1       1.062  20.785 -11.007 +0.02 -0.03    +0.222 HD
DOCKED: ENDBRANCH  15  19
DOCKED: ENDBRANCH  14  15
DOCKED: ENDBRANCH   2  14
DOCKED: BRANCH   6  21
DOCKED: ATOM     21  O   UNL d   1       0.451  17.810  -5.267 -0.12 +0.01    -0.278 OA
DOCKED: BRANCH  21  22
DOCKED: ATOM     22  P   UNL d   1      -0.351  16.454  -5.018 -0.25 +0.05    +0.473 P 
DOCKED: ATOM     23  O   UNL d   1       0.054  15.244  -5.790 -1.02 -0.02    -0.228 OA
DOCKED: BRANCH  22  24
DOCKED: ATOM     24  O   UNL d   1      -0.248  16.301  -3.437 -0.27 -0.05    -0.303 OA
DOCKED: ATOM     25  H   UNL d   1       0.704  16.158  -3.202 +0.14 +0.02    +0.222 HD
DOCKED: ENDBRANCH  22  24
DOCKED: BRANCH  22  26
DOCKED: ATOM     26  O   UNL d   1      -1.869  16.933  -5.207 -0.66 -0.07    -0.303 OA
DOCKED: ATOM     27  H   UNL d   1      -1.885  17.739  -5.762 +0.09 +0.01    +0.222 HD
DOCKED: ENDBRANCH  22  26
DOCKED: ENDBRANCH  21  22
DOCKED: ENDBRANCH   6  21
DOCKED: BRANCH   3  28
DOCKED: ATOM     28  O   UNL d   1       2.690  20.540  -9.497 -0.01 +0.03    -0.278 OA
DOCKED: BRANCH  28  29
DOCKED: ATOM     29  P   UNL d   1       3.195  19.359 -10.438 -0.05 -0.08    +0.473 P 
DOCKED: ATOM     30  O   UNL d   1       2.697  18.004 -10.089 -0.21 +0.08    -0.228 OA
DOCKED: BRANCH  29  31
DOCKED: ATOM     31  O   UNL d   1       2.773  19.942 -11.868 -0.01 +0.06    -0.303 OA
DOCKED: ATOM     32  H   UNL d   1       1.847  19.665 -12.059 +0.03 -0.05    +0.222 HD
DOCKED: ENDBRANCH  29  31
DOCKED: BRANCH  29  33
DOCKED: ATOM     33  O   UNL d   1       4.773  19.572 -10.424 -0.02 +0.03    -0.303 OA
DOCKED: ATOM     34  H   UNL d   1       5.108  19.427  -9.505 +0.05 -0.00    +0.222 HD
DOCKED: ENDBRANCH  29  33
DOCKED: ENDBRANCH  28  29
DOCKED: ENDBRANCH   3  28
DOCKED: BRANCH   5  35
DOCKED: ATOM     35  O   UNL d   1       3.013  17.062  -6.452 -0.14 +0.01    -0.278 OA
DOCKED: BRANCH  35  36
DOCKED: ATOM     36  P   UNL d   1       3.156  16.287  -5.065 -0.19 +0.01    +0.473 P 
DOCKED: ATOM     37  O   UNL d   1       2.476  16.927  -3.896 -0.14 -0.01    -0.228 OA
DOCKED: BRANCH  36  38
DOCKED: ATOM     38  O   UNL d   1       2.595  14.844  -5.439 -0.26 +0.06    -0.303 OA
DOCKED: ATOM     39  H   UNL d   1       1.892  14.939  -6.117 -0.40 -0.11    +0.222 HD
DOCKED: ENDBRANCH  36  38
DOCKED: BRANCH  36  40
DOCKED: ATOM     40  O   UNL d   1       4.728  16.071  -4.956 -0.89 -0.10    -0.303 OA
DOCKED: ATOM     41  H   UNL d   1       5.168  16.823  -4.501 +0.09 +0.10    +0.222 HD
DOCKED: ENDBRANCH  36  40
DOCKED: ENDBRANCH  35  36
DOCKED: ENDBRANCH   5  35
DOCKED: BRANCH   4  42
DOCKED: ATOM     42  O   UNL d   1       4.299  19.522  -7.339 -0.01 -0.00    -0.278 OA
DOCKED: BRANCH  42  43
DOCKED: ATOM     43  P   UNL d   1       5.571  18.605  -7.628 -0.05 +0.04    +0.473 P 
DOCKED: ATOM     44  O   UNL d   1       6.785  19.268  -8.181 -0.05 -0.00    -0.228 OA
DOCKED: BRANCH  43  45
DOCKED: ATOM     45  O   UNL d   1       5.805  17.881  -6.230 -0.19 -0.03    -0.303 OA
DOCKED: ATOM     46  H   UNL d   1       5.182  17.137  -6.104 +0.07 +0.03    +0.222 HD
DOCKED: ENDBRANCH  43  45
DOCKED: BRANCH  43  47
DOCKED: ATOM     47  O   UNL d   1       4.969  17.413  -8.516 -0.67 -0.18    -0.303 OA
DOCKED: ATOM     48  H   UNL d   1       4.451  17.792  -9.255 +0.06 +0.08    +0.222 HD
DOCKED: ENDBRANCH  43  47
DOCKED: ENDBRANCH  42  43
DOCKED: ENDBRANCH   4  42
DOCKED: TORSDOF 24
DOCKED: TER
DOCKED: ENDMDL
________________________________________________________________________________


	BEGINNING GENETIC ALGORITHM DOCKING 13 of 100
Run: 13 Seed: 503771318 609713833 [ Run 13 of 100 GA/GALS ]
Beginning LAMARCKIAN GENETIC ALGORITHM (LGA), with a maximum of 25000000 energy evaluations.

Final-Value: -17.504


	FINAL GENETIC ALGORITHM DOCKED STATE
	_______________________________________________


Detailed state:  trans -13.508 -19.589 2.253 quatxyzw 0.040112 -0.617333 0.784757 -0.038038 center 0.035 0.082 -0.065 ntor 24 -122.5639 -16.9195 153.1734 159.9079 124.7000 105.6642 -49.8317 -11.8825 86.5707 -15.1861 38.5052 -105.0600 83.1890 82.9830 -142.9528 167.5632 -131.9220 -14.4060 -21.0282 -30.9691 5.8408 -26.6522 -19.4003 139.1604
State:	-13.508 -19.589   2.253   0.040 -0.618  0.785 -175.640   -122.56  -16.92  153.17  159.91  124.70  105.66  -49.83  -11.88   86.57  -15.19   38.51 -105.06   83.19   82.98 -142.95  167.56 -131.92  -14.41  -21.03  -30.97    5.84  -26.65  -19.40  139.16

DOCKED: MODEL       13
DOCKED: USER    Run = 13
DOCKED: USER    DPF = D:/Protein_go_brrr/autodock/final/AncMH_nat/IHP/dock.dpf
DOCKED: USER  
DOCKED: USER    Estimated Free Energy of Binding    =   +3.52 kcal/mol  [=(1)+(2)+(3)-(4)]
DOCKED: USER    
DOCKED: USER    (1) Final Intermolecular Energy     =   -3.64 kcal/mol
DOCKED: USER        vdW + Hbond + desolv Energy     =   -3.61 kcal/mol
DOCKED: USER        Electrostatic Energy            =   -0.03 kcal/mol
DOCKED: USER    (2) Final Total Internal Energy     =  -13.86 kcal/mol
DOCKED: USER    (3) Torsional Free Energy           =   +7.16 kcal/mol
DOCKED: USER    (4) Unbound System's Energy  [=(2)] =  -13.86 kcal/mol
DOCKED: USER    
DOCKED: USER    
DOCKED: USER    NEWDPF move IHP_ideal_opt.pdbqt
DOCKED: USER    NEWDPF about 0.035000 0.082000 -0.065000
DOCKED: USER    NEWDPF tran0 -13.507637 -19.588699 2.253418
DOCKED: USER    NEWDPF quaternion0 0.040112 -0.617333 0.784757 -0.038038
DOCKED: USER    NEWDPF axisangle0 0.040141 -0.617780 0.785325 -175.640136
DOCKED: USER    NEWDPF quat0 0.040141 -0.617780 0.785325 -175.640136
DOCKED: USER    NEWDPF dihe0 -122.56 -16.92 153.17 159.91 124.70 105.66 -49.83 -11.88 86.57 -15.19 38.51 -105.06 83.19 82.98 -142.95 167.56 -131.92 -14.41 -21.03 -30.97 5.84 -26.65 -19.40 139.16 
DOCKED: USER  keepresnum = 1 
DOCKED: USER  
DOCKED: REMARK  24 active torsions:
DOCKED: REMARK  status: ('A' for Active; 'I' for Inactive)
DOCKED: REMARK    1  A    between atoms: C_1  and  O_7 
DOCKED: REMARK    2  A    between atoms: C_2  and  O_12 
DOCKED: REMARK    3  A    between atoms: C_3  and  O_17 
DOCKED: REMARK    4  A    between atoms: C_4  and  O_22 
DOCKED: REMARK    5  A    between atoms: C_5  and  O_27 
DOCKED: REMARK    6  A    between atoms: C_6  and  O_32 
DOCKED: REMARK    7  A    between atoms: O_7  and  P_8 
DOCKED: REMARK    8  A    between atoms: P_8  and  O_10 
DOCKED: REMARK    9  A    between atoms: P_8  and  O_11 
DOCKED: REMARK   10  A    between atoms: O_12  and  P_13 
DOCKED: REMARK   11  A    between atoms: P_13  and  O_15 
DOCKED: REMARK   12  A    between atoms: P_13  and  O_16 
DOCKED: REMARK   13  A    between atoms: O_17  and  P_18 
DOCKED: REMARK   14  A    between atoms: P_18  and  O_20 
DOCKED: REMARK   15  A    between atoms: P_18  and  O_21 
DOCKED: REMARK   16  A    between atoms: O_22  and  P_23 
DOCKED: REMARK   17  A    between atoms: P_23  and  O_25 
DOCKED: REMARK   18  A    between atoms: P_23  and  O_26 
DOCKED: REMARK   19  A    between atoms: O_27  and  P_28 
DOCKED: REMARK   20  A    between atoms: P_28  and  O_30 
DOCKED: REMARK   21  A    between atoms: P_28  and  O_31 
DOCKED: REMARK   22  A    between atoms: O_32  and  P_33 
DOCKED: REMARK   23  A    between atoms: P_33  and  O_35 
DOCKED: REMARK   24  A    between atoms: P_33  and  O_36 
DOCKED: USER                              x       y       z     vdW  Elec       q    Type
DOCKED: USER                           _______ _______ _______ _____ _____    ______ ____
DOCKED: ROOT
DOCKED: ATOM      1  C   UNL d   1     -14.643 -20.136   3.434 -0.05 -0.00    +0.194 C 
DOCKED: ATOM      2  C   UNL d   1     -13.321 -19.601   3.987 -0.12 -0.00    +0.194 C 
DOCKED: ATOM      3  C   UNL d   1     -12.124 -20.102   3.176 -0.17 -0.01    +0.194 C 
DOCKED: ATOM      4  C   UNL d   1     -12.266 -19.852   1.677 -0.11 +0.00    +0.194 C 
DOCKED: ATOM      5  C   UNL d   1     -13.616 -20.266   1.104 -0.09 +0.01    +0.194 C 
DOCKED: ATOM      6  C   UNL d   1     -14.810 -19.818   1.948 -0.08 +0.01    +0.194 C 
DOCKED: ENDROOT
DOCKED: BRANCH   1   7
DOCKED: ATOM      7  O   UNL d   1     -15.712 -19.491   4.131 -0.03 +0.00    -0.278 OA
DOCKED: BRANCH   7   8
DOCKED: ATOM      8  P   UNL d   1     -17.024 -20.339   4.463 +0.01 -0.01    +0.473 P 
DOCKED: ATOM      9  O   UNL d   1     -17.545 -20.181   5.848 -0.00 +0.01    -0.228 OA
DOCKED: BRANCH   8  10
DOCKED: ATOM     10  O   UNL d   1     -18.068 -19.889   3.344 -0.00 +0.00    -0.303 OA
DOCKED: ATOM     11  H   UNL d   1     -17.876 -20.357   2.510 +0.01 -0.00    +0.222 HD
DOCKED: ENDBRANCH   8  10
DOCKED: BRANCH   8  12
DOCKED: ATOM     12  O   UNL d   1     -16.679 -21.825   4.017 -0.00 +0.01    -0.303 OA
DOCKED: ATOM     13  H   UNL d   1     -16.494 -21.905   3.054 +0.01 -0.01    +0.222 HD
DOCKED: ENDBRANCH   8  12
DOCKED: ENDBRANCH   7   8
DOCKED: ENDBRANCH   1   7
DOCKED: BRANCH   2  14
DOCKED: ATOM     14  O   UNL d   1     -13.339 -18.169   3.937 -0.22 -0.01    -0.278 OA
DOCKED: BRANCH  14  15
DOCKED: ATOM     15  P   UNL d   1     -13.662 -17.409   5.309 -0.19 +0.00    +0.473 P 
DOCKED: ATOM     16  O   UNL d   1     -12.846 -16.191   5.611 -0.62 -0.03    -0.228 OA
DOCKED: BRANCH  15  17
DOCKED: ATOM     17  O   UNL d   1     -15.222 -17.101   5.223 -0.68 -0.05    -0.303 OA
DOCKED: ATOM     18  H   UNL d   1     -15.737 -17.921   5.101 +0.05 +0.01    +0.222 HD
DOCKED: ENDBRANCH  15  17
DOCKED: BRANCH  15  19
DOCKED: ATOM     19  O   UNL d   1     -13.623 -18.552   6.415 -0.06 +0.02    -0.303 OA
DOCKED: ATOM     20  H   UNL d   1     -12.777 -18.555   6.901 +0.10 -0.03    +0.222 HD
DOCKED: ENDBRANCH  15  19
DOCKED: ENDBRANCH  14  15
DOCKED: ENDBRANCH   2  14
DOCKED: BRANCH   6  21
DOCKED: ATOM     21  O   UNL d   1     -15.941 -20.555   1.487 -0.02 -0.00    -0.278 OA
DOCKED: BRANCH  21  22
DOCKED: ATOM     22  P   UNL d   1     -16.932 -19.900   0.423 -0.02 +0.01    +0.473 P 
DOCKED: ATOM     23  O   UNL d   1     -18.321 -19.575   0.860 -0.01 -0.00    -0.228 OA
DOCKED: BRANCH  22  24
DOCKED: ATOM     24  O   UNL d   1     -16.085 -18.653  -0.087 -0.07 -0.02    -0.303 OA
DOCKED: ATOM     25  H   UNL d   1     -15.233 -18.992  -0.464 +0.03 +0.02    +0.222 HD
DOCKED: ENDBRANCH  22  24
DOCKED: BRANCH  22  26
DOCKED: ATOM     26  O   UNL d   1     -16.803 -20.915  -0.811 -0.01 -0.01    -0.303 OA
DOCKED: ATOM     27  H   UNL d   1     -15.907 -20.839  -1.198 +0.01 +0.01    +0.222 HD
DOCKED: ENDBRANCH  22  26
DOCKED: ENDBRANCH  21  22
DOCKED: ENDBRANCH   6  21
DOCKED: BRANCH   3  28
DOCKED: ATOM     28  O   UNL d   1     -10.988 -19.348   3.579 -0.26 +0.01    -0.278 OA
DOCKED: BRANCH  28  29
DOCKED: ATOM     29  P   UNL d   1     -10.157 -19.771   4.870 -0.21 -0.10    +0.473 P 
DOCKED: ATOM     30  O   UNL d   1      -8.684 -19.614   4.763 -0.31 +0.07    -0.228 OA
DOCKED: BRANCH  29  31
DOCKED: ATOM     31  O   UNL d   1     -10.902 -18.894   5.982 -0.25 +0.06    -0.303 OA
DOCKED: ATOM     32  H   UNL d   1     -11.639 -18.401   5.551 +0.12 -0.02    +0.222 HD
DOCKED: ENDBRANCH  29  31
DOCKED: BRANCH  29  33
DOCKED: ATOM     33  O   UNL d   1     -10.706 -21.239   5.154 -0.07 +0.08    -0.303 OA
DOCKED: ATOM     34  H   UNL d   1     -10.711 -21.749   4.307 +0.06 -0.04    +0.222 HD
DOCKED: ENDBRANCH  29  33
DOCKED: ENDBRANCH  28  29
DOCKED: ENDBRANCH   3  28
DOCKED: BRANCH   5  35
DOCKED: ATOM     35  O   UNL d   1     -13.720 -19.606  -0.156 -0.07 -0.03    -0.278 OA
DOCKED: BRANCH  35  36
DOCKED: ATOM     36  P   UNL d   1     -13.674 -20.446  -1.511 -0.04 +0.03    +0.473 P 
DOCKED: ATOM     37  O   UNL d   1     -12.309 -20.698  -2.068 -0.04 -0.02    -0.228 OA
DOCKED: BRANCH  36  38
DOCKED: ATOM     38  O   UNL d   1     -14.469 -21.765  -1.104 -0.01 -0.01    -0.303 OA
DOCKED: ATOM     39  H   UNL d   1     -14.973 -21.594  -0.279 +0.01 +0.00    +0.222 HD
DOCKED: ENDBRANCH  36  38
DOCKED: BRANCH  36  40
DOCKED: ATOM     40  O   UNL d   1     -14.697 -19.654  -2.436 -0.04 -0.02    -0.303 OA
DOCKED: ATOM     41  H   UNL d   1     -15.587 -19.589  -2.024 +0.02 +0.01    +0.222 HD
DOCKED: ENDBRANCH  36  40
DOCKED: ENDBRANCH  35  36
DOCKED: ENDBRANCH   5  35
DOCKED: BRANCH   4  42
DOCKED: ATOM     42  O   UNL d   1     -11.271 -20.650   1.028 -0.13 +0.00    -0.278 OA
DOCKED: BRANCH  42  43
DOCKED: ATOM     43  P   UNL d   1     -10.782 -21.996   1.730 -0.04 -0.02    +0.473 P 
DOCKED: ATOM     44  O   UNL d   1     -11.770 -22.733   2.566 -0.02 +0.02    -0.228 OA
DOCKED: BRANCH  43  45
DOCKED: ATOM     45  O   UNL d   1     -10.206 -22.838   0.509 -0.01 +0.00    -0.303 OA
DOCKED: ATOM     46  H   UNL d   1     -10.717 -22.678  -0.309 +0.02 +0.01    +0.222 HD
DOCKED: ENDBRANCH  43  45
DOCKED: BRANCH  43  47
DOCKED: ATOM     47  O   UNL d   1      -9.437 -21.550   2.481 -0.10 +0.02    -0.303 OA
DOCKED: ATOM     48  H   UNL d   1      -9.669 -21.015   3.268 +0.08 -0.02    +0.222 HD
DOCKED: ENDBRANCH  43  47
DOCKED: ENDBRANCH  42  43
DOCKED: ENDBRANCH   4  42
DOCKED: TORSDOF 24
DOCKED: TER
DOCKED: ENDMDL
________________________________________________________________________________


	BEGINNING GENETIC ALGORITHM DOCKING 14 of 100
Run: 14 Seed: 68278708 1693017285 [ Run 14 of 100 GA/GALS ]
Beginning LAMARCKIAN GENETIC ALGORITHM (LGA), with a maximum of 25000000 energy evaluations.

Final-Value: -19.683


	FINAL GENETIC ALGORITHM DOCKED STATE
	_______________________________________________


Detailed state:  trans 13.791 -10.093 -9.053 quatxyzw -0.186909 -0.583521 0.366095 0.700387 center 0.035 0.082 -0.065 ntor 24 171.2973 -13.2535 149.9963 -26.7607 60.5240 -128.8264 8.6947 168.2028 30.8993 28.7102 -24.4466 -106.4712 34.3117 175.1606 127.1048 -102.6635 167.6488 -37.0327 -7.9152 12.2200 -10.7388 -4.7704 -11.8791 156.3702
State:	 13.791 -10.093  -9.053  -0.262 -0.818  0.513 91.084    171.30  -13.25  150.00  -26.76   60.52 -128.83    8.69  168.20   30.90   28.71  -24.45 -106.47   34.31  175.16  127.10 -102.66  167.65  -37.03   -7.92   12.22  -10.74   -4.77  -11.88  156.37

DOCKED: MODEL       14
DOCKED: USER    Run = 14
DOCKED: USER    DPF = D:/Protein_go_brrr/autodock/final/AncMH_nat/IHP/dock.dpf
DOCKED: USER  
DOCKED: USER    Estimated Free Energy of Binding    =   +3.00 kcal/mol  [=(1)+(2)+(3)-(4)]
DOCKED: USER    
DOCKED: USER    (1) Final Intermolecular Energy     =   -4.16 kcal/mol
DOCKED: USER        vdW + Hbond + desolv Energy     =   -4.09 kcal/mol
DOCKED: USER        Electrostatic Energy            =   -0.07 kcal/mol
DOCKED: USER    (2) Final Total Internal Energy     =  -15.52 kcal/mol
DOCKED: USER    (3) Torsional Free Energy           =   +7.16 kcal/mol
DOCKED: USER    (4) Unbound System's Energy  [=(2)] =  -15.52 kcal/mol
DOCKED: USER    
DOCKED: USER    
DOCKED: USER    NEWDPF move IHP_ideal_opt.pdbqt
DOCKED: USER    NEWDPF about 0.035000 0.082000 -0.065000
DOCKED: USER    NEWDPF tran0 13.790878 -10.092520 -9.053024
DOCKED: USER    NEWDPF quaternion0 -0.186909 -0.583521 0.366095 0.700387
DOCKED: USER    NEWDPF axisangle0 -0.261864 -0.817528 0.512909 91.083801
DOCKED: USER    NEWDPF quat0 -0.261864 -0.817528 0.512909 91.083801
DOCKED: USER    NEWDPF dihe0 171.30 -13.25 150.00 -26.76 60.52 -128.83 8.69 168.20 30.90 28.71 -24.45 -106.47 34.31 175.16 127.10 -102.66 167.65 -37.03 -7.92 12.22 -10.74 -4.77 -11.88 156.37 
DOCKED: USER  keepresnum = 1 
DOCKED: USER  
DOCKED: REMARK  24 active torsions:
DOCKED: REMARK  status: ('A' for Active; 'I' for Inactive)
DOCKED: REMARK    1  A    between atoms: C_1  and  O_7 
DOCKED: REMARK    2  A    between atoms: C_2  and  O_12 
DOCKED: REMARK    3  A    between atoms: C_3  and  O_17 
DOCKED: REMARK    4  A    between atoms: C_4  and  O_22 
DOCKED: REMARK    5  A    between atoms: C_5  and  O_27 
DOCKED: REMARK    6  A    between atoms: C_6  and  O_32 
DOCKED: REMARK    7  A    between atoms: O_7  and  P_8 
DOCKED: REMARK    8  A    between atoms: P_8  and  O_10 
DOCKED: REMARK    9  A    between atoms: P_8  and  O_11 
DOCKED: REMARK   10  A    between atoms: O_12  and  P_13 
DOCKED: REMARK   11  A    between atoms: P_13  and  O_15 
DOCKED: REMARK   12  A    between atoms: P_13  and  O_16 
DOCKED: REMARK   13  A    between atoms: O_17  and  P_18 
DOCKED: REMARK   14  A    between atoms: P_18  and  O_20 
DOCKED: REMARK   15  A    between atoms: P_18  and  O_21 
DOCKED: REMARK   16  A    between atoms: O_22  and  P_23 
DOCKED: REMARK   17  A    between atoms: P_23  and  O_25 
DOCKED: REMARK   18  A    between atoms: P_23  and  O_26 
DOCKED: REMARK   19  A    between atoms: O_27  and  P_28 
DOCKED: REMARK   20  A    between atoms: P_28  and  O_30 
DOCKED: REMARK   21  A    between atoms: P_28  and  O_31 
DOCKED: REMARK   22  A    between atoms: O_32  and  P_33 
DOCKED: REMARK   23  A    between atoms: P_33  and  O_35 
DOCKED: REMARK   24  A    between atoms: P_33  and  O_36 
DOCKED: USER                              x       y       z     vdW  Elec       q    Type
DOCKED: USER                           _______ _______ _______ _____ _____    ______ ____
DOCKED: ROOT
DOCKED: ATOM      1  C   UNL d   1      13.744 -11.595  -9.905 -0.01 -0.06    +0.194 C 
DOCKED: ATOM      2  C   UNL d   1      12.842 -11.505  -8.673 -0.04 -0.06    +0.194 C 
DOCKED: ATOM      3  C   UNL d   1      13.554 -10.835  -7.496 -0.13 -0.07    +0.194 C 
DOCKED: ATOM      4  C   UNL d   1      14.174  -9.487  -7.857 -0.27 -0.10    +0.194 C 
DOCKED: ATOM      5  C   UNL d   1      14.989  -9.503  -9.144 -0.16 -0.11    +0.194 C 
DOCKED: ATOM      6  C   UNL d   1      14.302 -10.228 -10.303 -0.06 -0.10    +0.194 C 
DOCKED: ENDROOT
DOCKED: BRANCH   1   7
DOCKED: ATOM      7  O   UNL d   1      12.957 -12.069 -11.000 -0.00 +0.07    -0.278 OA
DOCKED: BRANCH   7   8
DOCKED: ATOM      8  P   UNL d   1      13.521 -13.286 -11.868 +0.01 -0.08    +0.473 P 
DOCKED: ATOM      9  O   UNL d   1      13.206 -14.640 -11.337 +0.00 +0.03    -0.228 OA
DOCKED: BRANCH   8  10
DOCKED: ATOM     10  O   UNL d   1      12.926 -13.029 -13.326 +0.00 +0.04    -0.303 OA
DOCKED: ATOM     11  H   UNL d   1      12.568 -12.123 -13.378 +0.01 -0.04    +0.222 HD
DOCKED: ENDBRANCH   8  10
DOCKED: BRANCH   8  12
DOCKED: ATOM     12  O   UNL d   1      15.063 -12.964 -12.077 +0.00 +0.05    -0.303 OA
DOCKED: ATOM     13  H   UNL d   1      15.220 -12.103 -12.526 +0.00 -0.04    +0.222 HD
DOCKED: ENDBRANCH   8  12
DOCKED: ENDBRANCH   7   8
DOCKED: ENDBRANCH   1   7
DOCKED: BRANCH   2  14
DOCKED: ATOM     14  O   UNL d   1      11.678 -10.735  -9.001 -0.07 +0.12    -0.278 OA
DOCKED: BRANCH  14  15
DOCKED: ATOM     15  P   UNL d   1      10.300 -11.198  -8.330 -0.07 -0.15    +0.473 P 
DOCKED: ATOM     16  O   UNL d   1       9.134 -11.382  -9.249 -0.06 +0.05    -0.228 OA
DOCKED: BRANCH  15  17
DOCKED: ATOM     17  O   UNL d   1      10.681 -12.530  -7.543 -0.04 +0.08    -0.303 OA
DOCKED: ATOM     18  H   UNL d   1      11.427 -12.376  -6.932 +0.05 -0.06    +0.222 HD
DOCKED: ENDBRANCH  15  17
DOCKED: BRANCH  15  19
DOCKED: ATOM     19  O   UNL d   1      10.077 -10.173  -7.135 -0.18 +0.15    -0.303 OA
DOCKED: ATOM     20  H   UNL d   1      10.529 -10.464  -6.321 -0.47 -0.16    +0.222 HD
DOCKED: ENDBRANCH  15  19
DOCKED: ENDBRANCH  14  15
DOCKED: ENDBRANCH   2  14
DOCKED: BRANCH   6  21
DOCKED: ATOM     21  O   UNL d   1      15.301 -10.457 -11.295 -0.01 +0.09    -0.278 OA
DOCKED: BRANCH  21  22
DOCKED: ATOM     22  P   UNL d   1      15.209  -9.705 -12.699 +0.00 -0.16    +0.473 P 
DOCKED: ATOM     23  O   UNL d   1      16.460  -9.540 -13.494 -0.00 +0.05    -0.228 OA
DOCKED: BRANCH  22  24
DOCKED: ATOM     24  O   UNL d   1      14.056 -10.523 -13.432 +0.00 +0.07    -0.303 OA
DOCKED: ATOM     25  H   UNL d   1      13.809 -11.290 -12.856 +0.01 -0.05    +0.222 HD
DOCKED: ENDBRANCH  22  24
DOCKED: BRANCH  22  26
DOCKED: ATOM     26  O   UNL d   1      14.449  -8.352 -12.295 -0.09 +0.21    -0.303 OA
DOCKED: ATOM     27  H   UNL d   1      14.960  -7.893 -11.598 -0.08 -0.23    +0.222 HD
DOCKED: ENDBRANCH  22  26
DOCKED: ENDBRANCH  21  22
DOCKED: ENDBRANCH   6  21
DOCKED: BRANCH   3  28
DOCKED: ATOM     28  O   UNL d   1      12.572 -10.546  -6.509 -0.22 +0.11    -0.278 OA
DOCKED: BRANCH  28  29
DOCKED: ATOM     29  P   UNL d   1      12.488 -11.419  -5.179 -0.17 -0.16    +0.473 P 
DOCKED: ATOM     30  O   UNL d   1      11.143 -11.960  -4.852 -0.14 +0.10    -0.228 OA
DOCKED: BRANCH  29  31
DOCKED: ATOM     31  O   UNL d   1      13.647 -12.483  -5.470 -0.03 +0.06    -0.303 OA
DOCKED: ATOM     32  H   UNL d   1      14.498 -11.998  -5.577 +0.05 -0.04    +0.222 HD
DOCKED: ENDBRANCH  29  31
DOCKED: BRANCH  29  33
DOCKED: ATOM     33  O   UNL d   1      13.156 -10.454  -4.104 -0.25 +0.09    -0.303 OA
DOCKED: ATOM     34  H   UNL d   1      13.815 -10.969  -3.576 +0.08 -0.05    +0.222 HD
DOCKED: ENDBRANCH  29  33
DOCKED: ENDBRANCH  28  29
DOCKED: ENDBRANCH   3  28
DOCKED: BRANCH   5  35
DOCKED: ATOM     35  O   UNL d   1      15.133  -8.138  -9.528 -0.14 +0.29    -0.278 OA
DOCKED: BRANCH  35  36
DOCKED: ATOM     36  P   UNL d   1      16.582  -7.479  -9.631 -0.11 -0.31    +0.473 P 
DOCKED: ATOM     37  O   UNL d   1      16.653  -6.022  -9.300 -0.11 +0.19    -0.228 OA
DOCKED: BRANCH  36  38
DOCKED: ATOM     38  O   UNL d   1      17.434  -8.412  -8.661 -0.11 +0.08    -0.303 OA
DOCKED: ATOM     39  H   UNL d   1      16.891  -8.640  -7.876 +0.05 -0.04    +0.222 HD
DOCKED: ENDBRANCH  36  38
DOCKED: BRANCH  36  40
DOCKED: ATOM     40  O   UNL d   1      17.050  -7.912 -11.088 -0.05 +0.14    -0.303 OA
DOCKED: ATOM     41  H   UNL d   1      16.470  -8.611 -11.464 +0.03 -0.10    +0.222 HD
DOCKED: ENDBRANCH  36  40
DOCKED: ENDBRANCH  35  36
DOCKED: ENDBRANCH   5  35
DOCKED: BRANCH   4  42
DOCKED: ATOM     42  O   UNL d   1      15.070  -9.145  -6.795 -0.48 +0.05    -0.278 OA
DOCKED: BRANCH  42  43
DOCKED: ATOM     43  P   UNL d   1      16.060 -10.261  -6.231 -0.05 -0.02    +0.473 P 
DOCKED: ATOM     44  O   UNL d   1      16.137 -11.549  -6.975 -0.03 +0.03    -0.228 OA
DOCKED: BRANCH  43  45
DOCKED: ATOM     45  O   UNL d   1      17.444  -9.483  -6.132 -0.32 -0.00    -0.303 OA
DOCKED: ATOM     46  H   UNL d   1      18.008  -9.654  -6.913 +0.04 -0.02    +0.222 HD
DOCKED: ENDBRANCH  43  45
DOCKED: BRANCH  43  47
DOCKED: ATOM     47  O   UNL d   1      15.641 -10.378  -4.689 -0.49 -0.00    -0.303 OA
DOCKED: ATOM     48  H   UNL d   1      14.775 -10.831  -4.623 +0.06 -0.02    +0.222 HD
DOCKED: ENDBRANCH  43  47
DOCKED: ENDBRANCH  42  43
DOCKED: ENDBRANCH   4  42
DOCKED: TORSDOF 24
DOCKED: TER
DOCKED: ENDMDL
________________________________________________________________________________


	BEGINNING GENETIC ALGORITHM DOCKING 15 of 100
Run: 15 Seed: 1877732681 1503977604 [ Run 15 of 100 GA/GALS ]
Beginning LAMARCKIAN GENETIC ALGORITHM (LGA), with a maximum of 25000000 energy evaluations.

Final-Value: -18.292


	FINAL GENETIC ALGORITHM DOCKED STATE
	_______________________________________________


Detailed state:  trans 8.768 22.198 5.032 quatxyzw 0.192076 -0.874133 0.316628 0.314237 center 0.035 0.082 -0.065 ntor 24 173.8575 -125.6261 157.8690 7.1093 124.6104 129.9980 -69.5256 0.2395 21.1884 106.6697 118.6436 63.8409 -102.2252 179.3625 -177.8684 1.9231 -52.6478 -140.4215 51.4898 9.9689 -0.9702 -8.0618 166.3427 3.4152
State:	  8.768  22.198   5.032   0.202 -0.921  0.334 143.370    173.86 -125.63  157.87    7.11  124.61  130.00  -69.53    0.24   21.19  106.67  118.64   63.84 -102.23  179.36 -177.87    1.92  -52.65 -140.42   51.49    9.97   -0.97   -8.06  166.34    3.42

DOCKED: MODEL       15
DOCKED: USER    Run = 15
DOCKED: USER    DPF = D:/Protein_go_brrr/autodock/final/AncMH_nat/IHP/dock.dpf
DOCKED: USER  
DOCKED: USER    Estimated Free Energy of Binding    =   +4.42 kcal/mol  [=(1)+(2)+(3)-(4)]
DOCKED: USER    
DOCKED: USER    (1) Final Intermolecular Energy     =   -2.74 kcal/mol
DOCKED: USER        vdW + Hbond + desolv Energy     =   -2.39 kcal/mol
DOCKED: USER        Electrostatic Energy            =   -0.35 kcal/mol
DOCKED: USER    (2) Final Total Internal Energy     =  -15.55 kcal/mol
DOCKED: USER    (3) Torsional Free Energy           =   +7.16 kcal/mol
DOCKED: USER    (4) Unbound System's Energy  [=(2)] =  -15.55 kcal/mol
DOCKED: USER    
DOCKED: USER    
DOCKED: USER    NEWDPF move IHP_ideal_opt.pdbqt
DOCKED: USER    NEWDPF about 0.035000 0.082000 -0.065000
DOCKED: USER    NEWDPF tran0 8.768422 22.198036 5.031664
DOCKED: USER    NEWDPF quaternion0 0.192076 -0.874133 0.316628 0.314237
DOCKED: USER    NEWDPF axisangle0 0.202325 -0.920775 0.333523 143.370424
DOCKED: USER    NEWDPF quat0 0.202325 -0.920775 0.333523 143.370424
DOCKED: USER    NEWDPF dihe0 173.86 -125.63 157.87 7.11 124.61 130.00 -69.53 0.24 21.19 106.67 118.64 63.84 -102.23 179.36 -177.87 1.92 -52.65 -140.42 51.49 9.97 -0.97 -8.06 166.34 3.42 
DOCKED: USER  keepresnum = 1 
DOCKED: USER  
DOCKED: REMARK  24 active torsions:
DOCKED: REMARK  status: ('A' for Active; 'I' for Inactive)
DOCKED: REMARK    1  A    between atoms: C_1  and  O_7 
DOCKED: REMARK    2  A    between atoms: C_2  and  O_12 
DOCKED: REMARK    3  A    between atoms: C_3  and  O_17 
DOCKED: REMARK    4  A    between atoms: C_4  and  O_22 
DOCKED: REMARK    5  A    between atoms: C_5  and  O_27 
DOCKED: REMARK    6  A    between atoms: C_6  and  O_32 
DOCKED: REMARK    7  A    between atoms: O_7  and  P_8 
DOCKED: REMARK    8  A    between atoms: P_8  and  O_10 
DOCKED: REMARK    9  A    between atoms: P_8  and  O_11 
DOCKED: REMARK   10  A    between atoms: O_12  and  P_13 
DOCKED: REMARK   11  A    between atoms: P_13  and  O_15 
DOCKED: REMARK   12  A    between atoms: P_13  and  O_16 
DOCKED: REMARK   13  A    between atoms: O_17  and  P_18 
DOCKED: REMARK   14  A    between atoms: P_18  and  O_20 
DOCKED: REMARK   15  A    between atoms: P_18  and  O_21 
DOCKED: REMARK   16  A    between atoms: O_22  and  P_23 
DOCKED: REMARK   17  A    between atoms: P_23  and  O_25 
DOCKED: REMARK   18  A    between atoms: P_23  and  O_26 
DOCKED: REMARK   19  A    between atoms: O_27  and  P_28 
DOCKED: REMARK   20  A    between atoms: P_28  and  O_30 
DOCKED: REMARK   21  A    between atoms: P_28  and  O_31 
DOCKED: REMARK   22  A    between atoms: O_32  and  P_33 
DOCKED: REMARK   23  A    between atoms: P_33  and  O_35 
DOCKED: REMARK   24  A    between atoms: P_33  and  O_36 
DOCKED: USER                              x       y       z     vdW  Elec       q    Type
DOCKED: USER                           _______ _______ _______ _____ _____    ______ ____
DOCKED: ROOT
DOCKED: ATOM      1  C   UNL d   1       8.508  20.541   4.618 -0.09 +0.11    +0.194 C 
DOCKED: ATOM      2  C   UNL d   1       9.279  20.785   5.916 -0.01 +0.06    +0.194 C 
DOCKED: ATOM      3  C   UNL d   1      10.322  21.894   5.756 +0.00 +0.03    +0.194 C 
DOCKED: ATOM      4  C   UNL d   1       9.744  23.183   5.177 +0.01 +0.03    +0.194 C 
DOCKED: ATOM      5  C   UNL d   1       8.872  22.974   3.946 -0.00 +0.04    +0.194 C 
DOCKED: ATOM      6  C   UNL d   1       7.871  21.825   4.084 -0.07 +0.11    +0.194 C 
DOCKED: ENDROOT
DOCKED: BRANCH   1   7
DOCKED: ATOM      7  O   UNL d   1       7.447  19.623   4.895 -0.49 -0.39    -0.278 OA
DOCKED: BRANCH   7   8
DOCKED: ATOM      8  P   UNL d   1       7.821  18.098   5.191 -0.13 +0.38    +0.473 P 
DOCKED: ATOM      9  O   UNL d   1       8.720  17.463   4.189 -0.22 -0.09    -0.228 OA
DOCKED: BRANCH   8  10
DOCKED: ATOM     10  O   UNL d   1       8.442  18.131   6.661 -0.04 -0.11    -0.303 OA
DOCKED: ATOM     11  H   UNL d   1       8.211  18.973   7.095 +0.02 +0.09    +0.222 HD
DOCKED: ENDBRANCH   8  10
DOCKED: BRANCH   8  12
DOCKED: ATOM     12  O   UNL d   1       6.429  17.372   5.434 -0.44 -0.37    -0.303 OA
DOCKED: ATOM     13  H   UNL d   1       6.528  16.452   5.768 +0.06 +0.14    +0.222 HD
DOCKED: ENDBRANCH   8  12
DOCKED: ENDBRANCH   7   8
DOCKED: ENDBRANCH   1   7
DOCKED: BRANCH   2  14
DOCKED: ATOM     14  O   UNL d   1       8.357  21.171   6.943 -0.00 -0.09    -0.278 OA
DOCKED: BRANCH  14  15
DOCKED: ATOM     15  P   UNL d   1       8.636  20.593   8.410 +0.01 +0.09    +0.473 P 
DOCKED: ATOM     16  O   UNL d   1       7.515  19.847   9.063 +0.00 -0.05    -0.228 OA
DOCKED: BRANCH  15  17
DOCKED: ATOM     17  O   UNL d   1       9.948  19.706   8.234 +0.00 -0.04    -0.303 OA
DOCKED: ATOM     18  H   UNL d   1      10.705  20.251   7.947 +0.00 +0.02    +0.222 HD
DOCKED: ENDBRANCH  15  17
DOCKED: BRANCH  15  19
DOCKED: ATOM     19  O   UNL d   1       9.199  21.837   9.226 +0.00 -0.03    -0.303 OA
DOCKED: ATOM     20  H   UNL d   1       9.948  22.260   8.766 +0.00 +0.02    +0.222 HD
DOCKED: ENDBRANCH  15  19
DOCKED: ENDBRANCH  14  15
DOCKED: ENDBRANCH   2  14
DOCKED: BRANCH   6  21
DOCKED: ATOM     21  O   UNL d   1       7.389  21.538   2.773 -0.17 -0.18    -0.278 OA
DOCKED: BRANCH  21  22
DOCKED: ATOM     22  P   UNL d   1       5.939  22.038   2.336 -0.03 +0.42    +0.473 P 
DOCKED: ATOM     23  O   UNL d   1       5.166  21.201   1.373 -0.66 -0.20    -0.228 OA
DOCKED: BRANCH  22  24
DOCKED: ATOM     24  O   UNL d   1       5.232  22.259   3.745 -0.20 -0.38    -0.303 OA
DOCKED: ATOM     25  H   UNL d   1       5.766  22.919   4.257 +0.02 +0.16    +0.222 HD
DOCKED: ENDBRANCH  22  24
DOCKED: BRANCH  22  26
DOCKED: ATOM     26  O   UNL d   1       6.238  23.544   1.875 -0.02 -0.10    -0.303 OA
DOCKED: ATOM     27  H   UNL d   1       6.830  23.968   2.529 +0.01 +0.06    +0.222 HD
DOCKED: ENDBRANCH  22  26
DOCKED: ENDBRANCH  21  22
DOCKED: ENDBRANCH   6  21
DOCKED: BRANCH   3  28
DOCKED: ATOM     28  O   UNL d   1      10.784  22.238   7.056 +0.00 -0.02    -0.278 OA
DOCKED: BRANCH  28  29
DOCKED: ATOM     29  P   UNL d   1      12.197  21.713   7.572 +0.00 +0.02    +0.473 P 
DOCKED: ATOM     30  O   UNL d   1      12.698  20.476   6.919 +0.00 -0.01    -0.228 OA
DOCKED: BRANCH  29  31
DOCKED: ATOM     31  O   UNL d   1      13.073  23.039   7.386 +0.00 -0.00    -0.303 OA
DOCKED: ATOM     32  H   UNL d   1      12.597  23.645   6.772 +0.00 +0.00    +0.222 HD
DOCKED: ENDBRANCH  29  31
DOCKED: BRANCH  29  33
DOCKED: ATOM     33  O   UNL d   1      11.976  21.655   9.148 +0.00 -0.01    -0.303 OA
DOCKED: ATOM     34  H   UNL d   1      11.226  21.042   9.345 +0.00 +0.01    +0.222 HD
DOCKED: ENDBRANCH  29  33
DOCKED: ENDBRANCH  28  29
DOCKED: ENDBRANCH   3  28
DOCKED: BRANCH   5  35
DOCKED: ATOM     35  O   UNL d   1       8.115  24.174   3.800 +0.00 -0.05    -0.278 OA
DOCKED: BRANCH  35  36
DOCKED: ATOM     36  P   UNL d   1       7.081  24.616   4.931 +0.01 +0.10    +0.473 P 
DOCKED: ATOM     37  O   UNL d   1       6.837  23.610   6.010 -0.00 -0.07    -0.228 OA
DOCKED: BRANCH  36  38
DOCKED: ATOM     38  O   UNL d   1       7.721  25.982   5.442 +0.00 -0.03    -0.303 OA
DOCKED: ATOM     39  H   UNL d   1       8.675  25.842   5.621 +0.00 +0.02    +0.222 HD
DOCKED: ENDBRANCH  36  38
DOCKED: BRANCH  36  40
DOCKED: ATOM     40  O   UNL d   1       5.821  25.079   4.077 +0.00 -0.06    -0.303 OA
DOCKED: ATOM     41  H   UNL d   1       5.421  24.330   3.583 +0.01 +0.07    +0.222 HD
DOCKED: ENDBRANCH  36  40
DOCKED: ENDBRANCH  35  36
DOCKED: ENDBRANCH   5  35
DOCKED: BRANCH   4  42
DOCKED: ATOM     42  O   UNL d   1      10.855  23.990   4.774 +0.00 -0.02    -0.278 OA
DOCKED: BRANCH  42  43
DOCKED: ATOM     43  P   UNL d   1      11.220  25.284   5.632 +0.00 +0.02    +0.473 P 
DOCKED: ATOM     44  O   UNL d   1      10.659  26.588   5.181 +0.00 -0.01    -0.228 OA
DOCKED: BRANCH  43  45
DOCKED: ATOM     45  O   UNL d   1      10.785  24.862   7.103 +0.00 -0.01    -0.303 OA
DOCKED: ATOM     46  H   UNL d   1      11.093  23.960   7.323 +0.00 +0.01    +0.222 HD
DOCKED: ENDBRANCH  43  45
DOCKED: BRANCH  43  47
DOCKED: ATOM     47  O   UNL d   1      12.819  25.218   5.734 +0.00 -0.00    -0.303 OA
DOCKED: ATOM     48  H   UNL d   1      13.078  25.120   6.673 +0.00 +0.00    +0.222 HD
DOCKED: ENDBRANCH  43  47
DOCKED: ENDBRANCH  42  43
DOCKED: ENDBRANCH   4  42
DOCKED: TORSDOF 24
DOCKED: TER
DOCKED: ENDMDL
________________________________________________________________________________


	BEGINNING GENETIC ALGORITHM DOCKING 16 of 100
Run: 16 Seed: 525177686 1983424269 [ Run 16 of 100 GA/GALS ]
Beginning LAMARCKIAN GENETIC ALGORITHM (LGA), with a maximum of 25000000 energy evaluations.

Final-Value: -16.809


	FINAL GENETIC ALGORITHM DOCKED STATE
	_______________________________________________


Detailed state:  trans -1.771 -6.582 -15.376 quatxyzw 0.138371 0.967742 -0.184657 -0.101147 center 0.035 0.082 -0.065 ntor 24 80.6458 50.4656 6.5479 44.5637 66.6997 -155.3628 -54.9583 82.8780 14.9812 71.1965 139.6671 123.9579 -179.9928 -178.2587 -34.6624 -180.0000 -179.8075 55.6052 -14.9531 -45.8166 -21.5262 -30.7807 -29.1237 -10.1986
State:	 -1.771  -6.582 -15.376   0.139  0.973 -0.186 -168.390     80.65   50.47    6.55   44.56   66.70 -155.36  -54.96   82.88   14.98   71.20  139.67  123.96 -179.99 -178.26  -34.66 -180.00 -179.81   55.61  -14.95  -45.82  -21.53  -30.78  -29.12  -10.20

DOCKED: MODEL       16
DOCKED: USER    Run = 16
DOCKED: USER    DPF = D:/Protein_go_brrr/autodock/final/AncMH_nat/IHP/dock.dpf
DOCKED: USER  
DOCKED: USER    Estimated Free Energy of Binding    =   +3.38 kcal/mol  [=(1)+(2)+(3)-(4)]
DOCKED: USER    
DOCKED: USER    (1) Final Intermolecular Energy     =   -3.78 kcal/mol
DOCKED: USER        vdW + Hbond + desolv Energy     =   -3.63 kcal/mol
DOCKED: USER        Electrostatic Energy            =   -0.15 kcal/mol
DOCKED: USER    (2) Final Total Internal Energy     =  -13.03 kcal/mol
DOCKED: USER    (3) Torsional Free Energy           =   +7.16 kcal/mol
DOCKED: USER    (4) Unbound System's Energy  [=(2)] =  -13.03 kcal/mol
DOCKED: USER    
DOCKED: USER    
DOCKED: USER    NEWDPF move IHP_ideal_opt.pdbqt
DOCKED: USER    NEWDPF about 0.035000 0.082000 -0.065000
DOCKED: USER    NEWDPF tran0 -1.770840 -6.581867 -15.376476
DOCKED: USER    NEWDPF quaternion0 0.138371 0.967742 -0.184657 -0.101147
DOCKED: USER    NEWDPF axisangle0 0.139084 0.972731 -0.185609 -168.389543
DOCKED: USER    NEWDPF quat0 0.139084 0.972731 -0.185609 -168.389543
DOCKED: USER    NEWDPF dihe0 80.65 50.47 6.55 44.56 66.70 -155.36 -54.96 82.88 14.98 71.20 139.67 123.96 -179.99 -178.26 -34.66 -180.00 -179.81 55.61 -14.95 -45.82 -21.53 -30.78 -29.12 -10.20 
DOCKED: USER  keepresnum = 1 
DOCKED: USER  
DOCKED: REMARK  24 active torsions:
DOCKED: REMARK  status: ('A' for Active; 'I' for Inactive)
DOCKED: REMARK    1  A    between atoms: C_1  and  O_7 
DOCKED: REMARK    2  A    between atoms: C_2  and  O_12 
DOCKED: REMARK    3  A    between atoms: C_3  and  O_17 
DOCKED: REMARK    4  A    between atoms: C_4  and  O_22 
DOCKED: REMARK    5  A    between atoms: C_5  and  O_27 
DOCKED: REMARK    6  A    between atoms: C_6  and  O_32 
DOCKED: REMARK    7  A    between atoms: O_7  and  P_8 
DOCKED: REMARK    8  A    between atoms: P_8  and  O_10 
DOCKED: REMARK    9  A    between atoms: P_8  and  O_11 
DOCKED: REMARK   10  A    between atoms: O_12  and  P_13 
DOCKED: REMARK   11  A    between atoms: P_13  and  O_15 
DOCKED: REMARK   12  A    between atoms: P_13  and  O_16 
DOCKED: REMARK   13  A    between atoms: O_17  and  P_18 
DOCKED: REMARK   14  A    between atoms: P_18  and  O_20 
DOCKED: REMARK   15  A    between atoms: P_18  and  O_21 
DOCKED: REMARK   16  A    between atoms: O_22  and  P_23 
DOCKED: REMARK   17  A    between atoms: P_23  and  O_25 
DOCKED: REMARK   18  A    between atoms: P_23  and  O_26 
DOCKED: REMARK   19  A    between atoms: O_27  and  P_28 
DOCKED: REMARK   20  A    between atoms: P_28  and  O_30 
DOCKED: REMARK   21  A    between atoms: P_28  and  O_31 
DOCKED: REMARK   22  A    between atoms: O_32  and  P_33 
DOCKED: REMARK   23  A    between atoms: P_33  and  O_35 
DOCKED: REMARK   24  A    between atoms: P_33  and  O_36 
DOCKED: USER                              x       y       z     vdW  Elec       q    Type
DOCKED: USER                           _______ _______ _______ _____ _____    ______ ____
DOCKED: ROOT
DOCKED: ATOM      1  C   UNL d   1      -3.107  -7.391 -16.114 -0.05 -0.01    +0.194 C 
DOCKED: ATOM      2  C   UNL d   1      -2.231  -8.255 -15.205 -0.11 -0.02    +0.194 C 
DOCKED: ATOM      3  C   UNL d   1      -0.742  -7.985 -15.430 -0.13 -0.02    +0.194 C 
DOCKED: ATOM      4  C   UNL d   1      -0.379  -6.504 -15.343 -0.19 -0.01    +0.194 C 
DOCKED: ATOM      5  C   UNL d   1      -1.299  -5.592 -16.145 -0.11 -0.01    +0.194 C 
DOCKED: ATOM      6  C   UNL d   1      -2.787  -5.903 -15.968 -0.10 -0.00    +0.194 C 
DOCKED: ENDROOT
DOCKED: BRANCH   1   7
DOCKED: ATOM      7  O   UNL d   1      -4.470  -7.575 -15.725 -0.03 +0.00    -0.278 OA
DOCKED: BRANCH   7   8
DOCKED: ATOM      8  P   UNL d   1      -5.572  -7.735 -16.871 +0.00 -0.00    +0.473 P 
DOCKED: ATOM      9  O   UNL d   1      -6.745  -6.828 -16.750 -0.01 -0.00    -0.228 OA
DOCKED: BRANCH   8  10
DOCKED: ATOM     10  O   UNL d   1      -4.754  -7.526 -18.225 -0.00 +0.01    -0.303 OA
DOCKED: ATOM     11  H   UNL d   1      -4.581  -6.576 -18.360 +0.01 -0.01    +0.222 HD
DOCKED: ENDBRANCH   8  10
DOCKED: BRANCH   8  12
DOCKED: ATOM     12  O   UNL d   1      -5.898  -9.289 -16.916 +0.00 +0.00    -0.303 OA
DOCKED: ATOM     13  H   UNL d   1      -5.444  -9.799 -16.208 +0.01 -0.00    +0.222 HD
DOCKED: ENDBRANCH   8  12
DOCKED: ENDBRANCH   7   8
DOCKED: ENDBRANCH   1   7
DOCKED: BRANCH   2  14
DOCKED: ATOM     14  O   UNL d   1      -2.547  -7.963 -13.838 -0.20 +0.04    -0.278 OA
DOCKED: BRANCH  14  15
DOCKED: ATOM     15  P   UNL d   1      -3.773  -8.770 -13.199 -0.10 -0.05    +0.473 P 
DOCKED: ATOM     16  O   UNL d   1      -4.896  -7.954 -12.639 -0.11 -0.00    -0.228 OA
DOCKED: BRANCH  15  17
DOCKED: ATOM     17  O   UNL d   1      -4.243  -9.749 -14.365 -0.02 +0.02    -0.303 OA
DOCKED: ATOM     18  H   UNL d   1      -4.915  -9.323 -14.932 +0.03 -0.00    +0.222 HD
DOCKED: ENDBRANCH  15  17
DOCKED: BRANCH  15  19
DOCKED: ATOM     19  O   UNL d   1      -3.092  -9.788 -12.183 -0.11 +0.09    -0.303 OA
DOCKED: ATOM     20  H   UNL d   1      -2.134  -9.869 -12.342 -0.36 -0.16    +0.222 HD
DOCKED: ENDBRANCH  15  19
DOCKED: ENDBRANCH  14  15
DOCKED: ENDBRANCH   2  14
DOCKED: BRANCH   6  21
DOCKED: ATOM     21  O   UNL d   1      -3.478  -5.222 -17.013 -0.05 +0.00    -0.278 OA
DOCKED: BRANCH  21  22
DOCKED: ATOM     22  P   UNL d   1      -4.645  -4.196 -16.653 -0.08 +0.02    +0.473 P 
DOCKED: ATOM     23  O   UNL d   1      -5.046  -4.058 -15.223 -0.46 -0.08    -0.228 OA
DOCKED: BRANCH  22  24
DOCKED: ATOM     24  O   UNL d   1      -4.120  -2.855 -17.331 -0.04 +0.00    -0.303 OA
DOCKED: ATOM     25  H   UNL d   1      -3.254  -3.051 -17.771 +0.02 -0.01    +0.222 HD
DOCKED: ENDBRANCH  22  24
DOCKED: BRANCH  22  26
DOCKED: ATOM     26  O   UNL d   1      -5.801  -4.649 -17.667 -0.01 -0.00    -0.303 OA
DOCKED: ATOM     27  H   UNL d   1      -5.722  -5.610 -17.836 +0.01 -0.00    +0.222 HD
DOCKED: ENDBRANCH  22  26
DOCKED: ENDBRANCH  21  22
DOCKED: ENDBRANCH   6  21
DOCKED: BRANCH   3  28
DOCKED: ATOM     28  O   UNL d   1      -0.028  -8.610 -14.370 -0.11 +0.03    -0.278 OA
DOCKED: BRANCH  28  29
DOCKED: ATOM     29  P   UNL d   1       0.262 -10.176 -14.410 -0.03 -0.09    +0.473 P 
DOCKED: ATOM     30  O   UNL d   1       1.455 -10.626 -13.649 -0.14 +0.04    -0.228 OA
DOCKED: BRANCH  29  31
DOCKED: ATOM     31  O   UNL d   1      -1.159 -10.735 -13.930 -0.11 +0.10    -0.303 OA
DOCKED: ATOM     32  H   UNL d   1      -1.740  -9.970 -13.711 -0.20 -0.08    +0.222 HD
DOCKED: ENDBRANCH  29  31
DOCKED: BRANCH  29  33
DOCKED: ATOM     33  O   UNL d   1       0.248 -10.478 -15.973 -0.03 +0.03    -0.303 OA
DOCKED: ATOM     34  H   UNL d   1       0.950 -11.145 -16.178 +0.02 -0.02    +0.222 HD
DOCKED: ENDBRANCH  29  33
DOCKED: ENDBRANCH  28  29
DOCKED: ENDBRANCH   3  28
DOCKED: BRANCH   5  35
DOCKED: ATOM     35  O   UNL d   1      -1.081  -4.278 -15.636 -0.12 +0.01    -0.278 OA
DOCKED: BRANCH  35  36
DOCKED: ATOM     36  P   UNL d   1      -0.162  -3.248 -16.434 -0.05 -0.03    +0.473 P 
DOCKED: ATOM     37  O   UNL d   1       0.815  -2.478 -15.604 -0.11 +0.02    -0.228 OA
DOCKED: BRANCH  36  38
DOCKED: ATOM     38  O   UNL d   1       0.508  -4.190 -17.529 -0.02 +0.02    -0.303 OA
DOCKED: ATOM     39  H   UNL d   1       0.953  -4.940 -17.078 +0.04 -0.02    +0.222 HD
DOCKED: ENDBRANCH  36  38
DOCKED: BRANCH  36  40
DOCKED: ATOM     40  O   UNL d   1      -1.232  -2.406 -17.258 -0.03 +0.02    -0.303 OA
DOCKED: ATOM     41  H   UNL d   1      -2.094  -2.354 -16.788 +0.03 -0.01    +0.222 HD
DOCKED: ENDBRANCH  36  40
DOCKED: ENDBRANCH  35  36
DOCKED: ENDBRANCH   5  35
DOCKED: BRANCH   4  42
DOCKED: ATOM     42  O   UNL d   1       0.935  -6.366 -15.894 -0.09 +0.02    -0.278 OA
DOCKED: BRANCH  42  43
DOCKED: ATOM     43  P   UNL d   1       2.093  -5.756 -14.983 -0.13 -0.07    +0.473 P 
DOCKED: ATOM     44  O   UNL d   1       3.059  -6.710 -14.371 -0.11 +0.03    -0.228 OA
DOCKED: BRANCH  43  45
DOCKED: ATOM     45  O   UNL d   1       2.762  -4.678 -15.943 -0.08 +0.04    -0.303 OA
DOCKED: ATOM     46  H   UNL d   1       2.149  -3.941 -16.136 +0.06 -0.02    +0.222 HD
DOCKED: ENDBRANCH  43  45
DOCKED: BRANCH  43  47
DOCKED: ATOM     47  O   UNL d   1       1.295  -4.823 -13.952 -0.32 +0.07    -0.303 OA
DOCKED: ATOM     48  H   UNL d   1       0.770  -4.165 -14.452 +0.08 -0.03    +0.222 HD
DOCKED: ENDBRANCH  43  47
DOCKED: ENDBRANCH  42  43
DOCKED: ENDBRANCH   4  42
DOCKED: TORSDOF 24
DOCKED: TER
DOCKED: ENDMDL
________________________________________________________________________________


	BEGINNING GENETIC ALGORITHM DOCKING 17 of 100
Run: 17 Seed: 2078480492 1118915851 [ Run 17 of 100 GA/GALS ]
Beginning LAMARCKIAN GENETIC ALGORITHM (LGA), with a maximum of 25000000 energy evaluations.

Final-Value: -15.792


	FINAL GENETIC ALGORITHM DOCKED STATE
	_______________________________________________


Detailed state:  trans -1.668 -15.921 16.083 quatxyzw 0.240175 0.910131 -0.258166 0.217551 center 0.035 0.082 -0.065 ntor 24 94.6511 67.2639 26.0975 29.6163 -163.2998 -82.4729 53.5887 -122.0722 44.2144 125.1187 68.6456 -105.2308 21.7536 178.9529 29.4860 -89.8843 49.4866 112.6285 5.1247 -36.5408 79.3345 -27.9596 -178.8510 160.9876
State:	 -1.668 -15.921  16.083   0.246  0.932 -0.265 154.869     94.65   67.26   26.10   29.62 -163.30  -82.47   53.59 -122.07   44.21  125.12   68.65 -105.23   21.75  178.95   29.49  -89.88   49.49  112.63    5.12  -36.54   79.33  -27.96 -178.85  160.99

DOCKED: MODEL       17
DOCKED: USER    Run = 17
DOCKED: USER    DPF = D:/Protein_go_brrr/autodock/final/AncMH_nat/IHP/dock.dpf
DOCKED: USER  
DOCKED: USER    Estimated Free Energy of Binding    =   +1.51 kcal/mol  [=(1)+(2)+(3)-(4)]
DOCKED: USER    
DOCKED: USER    (1) Final Intermolecular Energy     =   -5.65 kcal/mol
DOCKED: USER        vdW + Hbond + desolv Energy     =   -5.34 kcal/mol
DOCKED: USER        Electrostatic Energy            =   -0.32 kcal/mol
DOCKED: USER    (2) Final Total Internal Energy     =  -10.14 kcal/mol
DOCKED: USER    (3) Torsional Free Energy           =   +7.16 kcal/mol
DOCKED: USER    (4) Unbound System's Energy  [=(2)] =  -10.14 kcal/mol
DOCKED: USER    
DOCKED: USER    
DOCKED: USER    NEWDPF move IHP_ideal_opt.pdbqt
DOCKED: USER    NEWDPF about 0.035000 0.082000 -0.065000
DOCKED: USER    NEWDPF tran0 -1.667946 -15.921342 16.082603
DOCKED: USER    NEWDPF quaternion0 0.240175 0.910131 -0.258166 0.217551
DOCKED: USER    NEWDPF axisangle0 0.246068 0.932464 -0.264501 154.869482
DOCKED: USER    NEWDPF quat0 0.246068 0.932464 -0.264501 154.869482
DOCKED: USER    NEWDPF dihe0 94.65 67.26 26.10 29.62 -163.30 -82.47 53.59 -122.07 44.21 125.12 68.65 -105.23 21.75 178.95 29.49 -89.88 49.49 112.63 5.12 -36.54 79.33 -27.96 -178.85 160.99 
DOCKED: USER  keepresnum = 1 
DOCKED: USER  
DOCKED: REMARK  24 active torsions:
DOCKED: REMARK  status: ('A' for Active; 'I' for Inactive)
DOCKED: REMARK    1  A    between atoms: C_1  and  O_7 
DOCKED: REMARK    2  A    between atoms: C_2  and  O_12 
DOCKED: REMARK    3  A    between atoms: C_3  and  O_17 
DOCKED: REMARK    4  A    between atoms: C_4  and  O_22 
DOCKED: REMARK    5  A    between atoms: C_5  and  O_27 
DOCKED: REMARK    6  A    between atoms: C_6  and  O_32 
DOCKED: REMARK    7  A    between atoms: O_7  and  P_8 
DOCKED: REMARK    8  A    between atoms: P_8  and  O_10 
DOCKED: REMARK    9  A    between atoms: P_8  and  O_11 
DOCKED: REMARK   10  A    between atoms: O_12  and  P_13 
DOCKED: REMARK   11  A    between atoms: P_13  and  O_15 
DOCKED: REMARK   12  A    between atoms: P_13  and  O_16 
DOCKED: REMARK   13  A    between atoms: O_17  and  P_18 
DOCKED: REMARK   14  A    between atoms: P_18  and  O_20 
DOCKED: REMARK   15  A    between atoms: P_18  and  O_21 
DOCKED: REMARK   16  A    between atoms: O_22  and  P_23 
DOCKED: REMARK   17  A    between atoms: P_23  and  O_25 
DOCKED: REMARK   18  A    between atoms: P_23  and  O_26 
DOCKED: REMARK   19  A    between atoms: O_27  and  P_28 
DOCKED: REMARK   20  A    between atoms: P_28  and  O_30 
DOCKED: REMARK   21  A    between atoms: P_28  and  O_31 
DOCKED: REMARK   22  A    between atoms: O_32  and  P_33 
DOCKED: REMARK   23  A    between atoms: P_33  and  O_35 
DOCKED: REMARK   24  A    between atoms: P_33  and  O_36 
DOCKED: USER                              x       y       z     vdW  Elec       q    Type
DOCKED: USER                           _______ _______ _______ _____ _____    ______ ____
DOCKED: ROOT
DOCKED: ATOM      1  C   UNL d   1      -3.358 -16.189  16.323 -0.11 -0.03    +0.194 C 
DOCKED: ATOM      2  C   UNL d   1      -2.441 -17.344  16.730 -0.06 -0.02    +0.194 C 
DOCKED: ATOM      3  C   UNL d   1      -1.341 -17.587  15.695 -0.07 -0.01    +0.194 C 
DOCKED: ATOM      4  C   UNL d   1      -0.557 -16.324  15.343 -0.07 -0.02    +0.194 C 
DOCKED: ATOM      5  C   UNL d   1      -1.433 -15.115  15.041 -0.16 -0.02    +0.194 C 
DOCKED: ATOM      6  C   UNL d   1      -2.571 -14.908  16.043 -0.11 -0.02    +0.194 C 
DOCKED: ENDROOT
DOCKED: BRANCH   1   7
DOCKED: ATOM      7  O   UNL d   1      -4.242 -15.916  17.412 -0.06 +0.02    -0.278 OA
DOCKED: BRANCH   7   8
DOCKED: ATOM      8  P   UNL d   1      -5.811 -16.113  17.184 -0.08 -0.01    +0.473 P 
DOCKED: ATOM      9  O   UNL d   1      -6.266 -17.529  17.118 -0.11 +0.01    -0.228 OA
DOCKED: BRANCH   8  10
DOCKED: ATOM     10  O   UNL d   1      -6.481 -15.293  18.377 -0.03 +0.01    -0.303 OA
DOCKED: ATOM     11  H   UNL d   1      -6.226 -15.691  19.231 +0.02 -0.01    +0.222 HD
DOCKED: ENDBRANCH   8  10
DOCKED: BRANCH   8  12
DOCKED: ATOM     12  O   UNL d   1      -6.161 -15.212  15.923 -0.15 -0.02    -0.303 OA
DOCKED: ATOM     13  H   UNL d   1      -5.380 -15.022  15.357 -0.45 -0.03    +0.222 HD
DOCKED: ENDBRANCH   8  12
DOCKED: ENDBRANCH   7   8
DOCKED: ENDBRANCH   1   7
DOCKED: BRANCH   2  14
DOCKED: ATOM     14  O   UNL d   1      -1.825 -17.031  17.986 -0.01 +0.02    -0.278 OA
DOCKED: BRANCH  14  15
DOCKED: ATOM     15  P   UNL d   1      -2.543 -17.604  19.297 +0.00 -0.04    +0.473 P 
DOCKED: ATOM     16  O   UNL d   1      -2.895 -16.610  20.359 -0.00 +0.02    -0.228 OA
DOCKED: BRANCH  15  17
DOCKED: ATOM     17  O   UNL d   1      -3.813 -18.384  18.735 -0.01 +0.02    -0.303 OA
DOCKED: ATOM     18  H   UNL d   1      -4.475 -17.763  18.374 +0.03 -0.02    +0.222 HD
DOCKED: ENDBRANCH  15  17
DOCKED: BRANCH  15  19
DOCKED: ATOM     19  O   UNL d   1      -1.612 -18.807  19.765 -0.00 +0.02    -0.303 OA
DOCKED: ATOM     20  H   UNL d   1      -1.161 -19.228  19.011 +0.00 -0.02    +0.222 HD
DOCKED: ENDBRANCH  15  19
DOCKED: ENDBRANCH  14  15
DOCKED: ENDBRANCH   2  14
DOCKED: BRANCH   6  21
DOCKED: ATOM     21  O   UNL d   1      -3.478 -13.981  15.451 -0.14 +0.03    -0.278 OA
DOCKED: BRANCH  21  22
DOCKED: ATOM     22  P   UNL d   1      -2.963 -12.985  14.315 -0.25 -0.08    +0.473 P 
DOCKED: ATOM     23  O   UNL d   1      -2.393 -13.572  13.068 -0.37 +0.04    -0.228 OA
DOCKED: BRANCH  22  24
DOCKED: ATOM     24  O   UNL d   1      -4.238 -12.058  14.094 -0.30 +0.02    -0.303 OA
DOCKED: ATOM     25  H   UNL d   1      -3.941 -11.113  14.126 -0.32 -0.12    +0.222 HD
DOCKED: ENDBRANCH  22  24
DOCKED: BRANCH  22  26
DOCKED: ATOM     26  O   UNL d   1      -1.991 -12.019  15.146 -0.33 +0.09    -0.303 OA
DOCKED: ATOM     27  H   UNL d   1      -1.061 -12.264  14.965 -0.25 -0.08    +0.222 HD
DOCKED: ENDBRANCH  22  26
DOCKED: ENDBRANCH  21  22
DOCKED: ENDBRANCH   6  21
DOCKED: BRANCH   3  28
DOCKED: ATOM     28  O   UNL d   1      -0.391 -18.470  16.277 -0.01 +0.02    -0.278 OA
DOCKED: BRANCH  28  29
DOCKED: ATOM     29  P   UNL d   1      -0.643 -20.043  16.267 -0.00 -0.04    +0.473 P 
DOCKED: ATOM     30  O   UNL d   1      -0.810 -20.673  17.602 -0.01 +0.02    -0.228 OA
DOCKED: BRANCH  29  31
DOCKED: ATOM     31  O   UNL d   1      -1.890 -20.119  15.267 -0.06 +0.02    -0.303 OA
DOCKED: ATOM     32  H   UNL d   1      -1.576 -20.463  14.399 +0.04 -0.01    +0.222 HD
DOCKED: ENDBRANCH  29  31
DOCKED: BRANCH  29  33
DOCKED: ATOM     33  O   UNL d   1       0.561 -20.568  15.368 -0.00 +0.03    -0.303 OA
DOCKED: ATOM     34  H   UNL d   1       0.469 -20.194  14.457 +0.03 -0.02    +0.222 HD
DOCKED: ENDBRANCH  29  33
DOCKED: ENDBRANCH  28  29
DOCKED: ENDBRANCH   3  28
DOCKED: BRANCH   5  35
DOCKED: ATOM     35  O   UNL d   1      -0.574 -13.981  15.142 -0.17 +0.05    -0.278 OA
DOCKED: BRANCH  35  36
DOCKED: ATOM     36  P   UNL d   1       0.386 -13.808  16.404 -0.08 -0.09    +0.473 P 
DOCKED: ATOM     37  O   UNL d   1       1.775 -14.337  16.236 -0.07 +0.04    -0.228 OA
DOCKED: BRANCH  36  38
DOCKED: ATOM     38  O   UNL d   1       0.310 -12.238  16.659 -0.14 +0.11    -0.303 OA
DOCKED: ATOM     39  H   UNL d   1       0.089 -11.786  15.816 -0.50 -0.17    +0.222 HD
DOCKED: ENDBRANCH  36  38
DOCKED: BRANCH  36  40
DOCKED: ATOM     40  O   UNL d   1      -0.486 -14.429  17.581 -0.02 +0.04    -0.303 OA
DOCKED: ATOM     41  H   UNL d   1      -0.400 -15.407  17.620 +0.02 -0.02    +0.222 HD
DOCKED: ENDBRANCH  36  40
DOCKED: ENDBRANCH  35  36
DOCKED: ENDBRANCH   5  35
DOCKED: BRANCH   4  42
DOCKED: ATOM     42  O   UNL d   1       0.184 -16.615  14.153 -0.07 +0.02    -0.278 OA
DOCKED: BRANCH  42  43
DOCKED: ATOM     43  P   UNL d   1      -0.576 -17.261  12.909 -0.14 +0.04    +0.473 P 
DOCKED: ATOM     44  O   UNL d   1       0.048 -17.104  11.565 -0.33 -0.04    -0.228 OA
DOCKED: BRANCH  43  45
DOCKED: ATOM     45  O   UNL d   1      -0.768 -18.774  13.364 -0.17 -0.01    -0.303 OA
DOCKED: ATOM     46  H   UNL d   1      -0.330 -18.948  14.222 +0.05 -0.01    +0.222 HD
DOCKED: ENDBRANCH  43  45
DOCKED: BRANCH  43  47
DOCKED: ATOM     47  O   UNL d   1      -2.066 -16.687  13.051 -0.41 -0.02    -0.303 OA
DOCKED: ATOM     48  H   UNL d   1      -2.074 -15.742  12.794 +0.08 -0.01    +0.222 HD
DOCKED: ENDBRANCH  43  47
DOCKED: ENDBRANCH  42  43
DOCKED: ENDBRANCH   4  42
DOCKED: TORSDOF 24
DOCKED: TER
DOCKED: ENDMDL
________________________________________________________________________________


	BEGINNING GENETIC ALGORITHM DOCKING 18 of 100
Run: 18 Seed: 632724444 1514936715 [ Run 18 of 100 GA/GALS ]
Beginning LAMARCKIAN GENETIC ALGORITHM (LGA), with a maximum of 25000000 energy evaluations.

Final-Value: -19.473


	FINAL GENETIC ALGORITHM DOCKED STATE
	_______________________________________________


Detailed state:  trans 14.369 15.276 -0.141 quatxyzw 0.780772 -0.089674 0.278327 0.552166 center 0.035 0.082 -0.065 ntor 24 -155.5326 -56.2875 101.9070 117.5376 22.5922 -154.1106 -114.1556 58.1990 33.2466 16.6909 153.7368 151.5195 -131.4503 109.1070 149.6721 42.2358 165.6500 -156.9462 37.6057 -5.0412 -20.8489 158.5138 -9.9209 -35.2725
State:	 14.369  15.276  -0.141   0.936 -0.108  0.334 112.968   -155.53  -56.29  101.91  117.54   22.59 -154.11 -114.16   58.20   33.25   16.69  153.74  151.52 -131.45  109.11  149.67   42.24  165.65 -156.95   37.61   -5.04  -20.85  158.51   -9.92  -35.27

DOCKED: MODEL       18
DOCKED: USER    Run = 18
DOCKED: USER    DPF = D:/Protein_go_brrr/autodock/final/AncMH_nat/IHP/dock.dpf
DOCKED: USER  
DOCKED: USER    Estimated Free Energy of Binding    =   +2.52 kcal/mol  [=(1)+(2)+(3)-(4)]
DOCKED: USER    
DOCKED: USER    (1) Final Intermolecular Energy     =   -4.64 kcal/mol
DOCKED: USER        vdW + Hbond + desolv Energy     =   -4.42 kcal/mol
DOCKED: USER        Electrostatic Energy            =   -0.21 kcal/mol
DOCKED: USER    (2) Final Total Internal Energy     =  -14.84 kcal/mol
DOCKED: USER    (3) Torsional Free Energy           =   +7.16 kcal/mol
DOCKED: USER    (4) Unbound System's Energy  [=(2)] =  -14.84 kcal/mol
DOCKED: USER    
DOCKED: USER    
DOCKED: USER    NEWDPF move IHP_ideal_opt.pdbqt
DOCKED: USER    NEWDPF about 0.035000 0.082000 -0.065000
DOCKED: USER    NEWDPF tran0 14.369195 15.276176 -0.140704
DOCKED: USER    NEWDPF quaternion0 0.780772 -0.089674 0.278327 0.552166
DOCKED: USER    NEWDPF axisangle0 0.936476 -0.107557 0.333832 112.968486
DOCKED: USER    NEWDPF quat0 0.936476 -0.107557 0.333832 112.968486
DOCKED: USER    NEWDPF dihe0 -155.53 -56.29 101.91 117.54 22.59 -154.11 -114.16 58.20 33.25 16.69 153.74 151.52 -131.45 109.11 149.67 42.24 165.65 -156.95 37.61 -5.04 -20.85 158.51 -9.92 -35.27 
DOCKED: USER  keepresnum = 1 
DOCKED: USER  
DOCKED: REMARK  24 active torsions:
DOCKED: REMARK  status: ('A' for Active; 'I' for Inactive)
DOCKED: REMARK    1  A    between atoms: C_1  and  O_7 
DOCKED: REMARK    2  A    between atoms: C_2  and  O_12 
DOCKED: REMARK    3  A    between atoms: C_3  and  O_17 
DOCKED: REMARK    4  A    between atoms: C_4  and  O_22 
DOCKED: REMARK    5  A    between atoms: C_5  and  O_27 
DOCKED: REMARK    6  A    between atoms: C_6  and  O_32 
DOCKED: REMARK    7  A    between atoms: O_7  and  P_8 
DOCKED: REMARK    8  A    between atoms: P_8  and  O_10 
DOCKED: REMARK    9  A    between atoms: P_8  and  O_11 
DOCKED: REMARK   10  A    between atoms: O_12  and  P_13 
DOCKED: REMARK   11  A    between atoms: P_13  and  O_15 
DOCKED: REMARK   12  A    between atoms: P_13  and  O_16 
DOCKED: REMARK   13  A    between atoms: O_17  and  P_18 
DOCKED: REMARK   14  A    between atoms: P_18  and  O_20 
DOCKED: REMARK   15  A    between atoms: P_18  and  O_21 
DOCKED: REMARK   16  A    between atoms: O_22  and  P_23 
DOCKED: REMARK   17  A    between atoms: P_23  and  O_25 
DOCKED: REMARK   18  A    between atoms: P_23  and  O_26 
DOCKED: REMARK   19  A    between atoms: O_27  and  P_28 
DOCKED: REMARK   20  A    between atoms: P_28  and  O_30 
DOCKED: REMARK   21  A    between atoms: P_28  and  O_31 
DOCKED: REMARK   22  A    between atoms: O_32  and  P_33 
DOCKED: REMARK   23  A    between atoms: P_33  and  O_35 
DOCKED: REMARK   24  A    between atoms: P_33  and  O_36 
DOCKED: USER                              x       y       z     vdW  Elec       q    Type
DOCKED: USER                           _______ _______ _______ _____ _____    ______ ____
DOCKED: ROOT
DOCKED: ATOM      1  C   UNL d   1      15.681  15.690   0.904 -0.00 +0.01    +0.194 C 
DOCKED: ATOM      2  C   UNL d   1      14.315  16.250   1.305 -0.01 +0.01    +0.194 C 
DOCKED: ATOM      3  C   UNL d   1      13.548  16.793   0.097 -0.02 +0.01    +0.194 C 
DOCKED: ATOM      4  C   UNL d   1      13.448  15.792  -1.051 -0.08 +0.04    +0.194 C 
DOCKED: ATOM      5  C   UNL d   1      14.769  15.123  -1.409 -0.05 +0.05    +0.194 C 
DOCKED: ATOM      6  C   UNL d   1      15.564  14.635  -0.197 -0.03 +0.04    +0.194 C 
DOCKED: ENDROOT
DOCKED: BRANCH   1   7
DOCKED: ATOM      7  O   UNL d   1      16.255  15.052   2.047 -0.00 -0.00    -0.278 OA
DOCKED: BRANCH   7   8
DOCKED: ATOM      8  P   UNL d   1      17.064  15.951   3.092 +0.00 -0.01    +0.473 P 
DOCKED: ATOM      9  O   UNL d   1      18.457  16.285   2.691 +0.00 +0.01    -0.228 OA
DOCKED: BRANCH   8  10
DOCKED: ATOM     10  O   UNL d   1      16.142  17.237   3.290 +0.00 +0.00    -0.303 OA
DOCKED: ATOM     11  H   UNL d   1      15.217  16.959   3.429 +0.00 -0.00    +0.222 HD
DOCKED: ENDBRANCH   8  10
DOCKED: BRANCH   8  12
DOCKED: ATOM     12  O   UNL d   1      16.902  15.208   4.487 +0.00 +0.01    -0.303 OA
DOCKED: ATOM     13  H   UNL d   1      16.228  15.624   5.070 +0.00 -0.01    +0.222 HD
DOCKED: ENDBRANCH   8  12
DOCKED: ENDBRANCH   7   8
DOCKED: ENDBRANCH   1   7
DOCKED: BRANCH   2  14
DOCKED: ATOM     14  O   UNL d   1      13.541  15.204   1.905 -0.03 -0.03    -0.278 OA
DOCKED: BRANCH  14  15
DOCKED: ATOM     15  P   UNL d   1      12.927  15.509   3.353 -0.02 +0.02    +0.473 P 
DOCKED: ATOM     16  O   UNL d   1      11.843  14.593   3.829 -0.08 -0.01    -0.228 OA
DOCKED: BRANCH  15  17
DOCKED: ATOM     17  O   UNL d   1      14.195  15.521   4.317 -0.01 -0.00    -0.303 OA
DOCKED: ATOM     18  H   UNL d   1      15.024  15.442   3.808 +0.01 -0.00    +0.222 HD
DOCKED: ENDBRANCH  15  17
DOCKED: BRANCH  15  19
DOCKED: ATOM     19  O   UNL d   1      12.547  17.053   3.305 -0.02 -0.02    -0.303 OA
DOCKED: ATOM     20  H   UNL d   1      11.924  17.249   2.582 +0.04 +0.02    +0.222 HD
DOCKED: ENDBRANCH  15  19
DOCKED: ENDBRANCH  14  15
DOCKED: ENDBRANCH   2  14
DOCKED: BRANCH   6  21
DOCKED: ATOM     21  O   UNL d   1      16.886  14.360  -0.655 -0.00 -0.03    -0.278 OA
DOCKED: BRANCH  21  22
DOCKED: ATOM     22  P   UNL d   1      17.511  12.907  -0.445 +0.00 +0.03    +0.473 P 
DOCKED: ATOM     23  O   UNL d   1      18.895  12.657  -0.941 +0.00 +0.01    -0.228 OA
DOCKED: BRANCH  22  24
DOCKED: ATOM     24  O   UNL d   1      17.314  12.691   1.120 -0.00 -0.00    -0.303 OA
DOCKED: ATOM     25  H   UNL d   1      17.566  13.531   1.581 +0.01 -0.00    +0.222 HD
DOCKED: ENDBRANCH  22  24
DOCKED: BRANCH  22  26
DOCKED: ATOM     26  O   UNL d   1      16.365  11.968  -1.056 -0.12 -0.10    -0.303 OA
DOCKED: ATOM     27  H   UNL d   1      15.915  12.442  -1.785 +0.03 +0.14    +0.222 HD
DOCKED: ENDBRANCH  22  26
DOCKED: ENDBRANCH  21  22
DOCKED: ENDBRANCH   6  21
DOCKED: BRANCH   3  28
DOCKED: ATOM     28  O   UNL d   1      12.209  17.028   0.512 -0.05 -0.02    -0.278 OA
DOCKED: BRANCH  28  29
DOCKED: ATOM     29  P   UNL d   1      11.109  15.886   0.365 -0.17 +0.06    +0.473 P 
DOCKED: ATOM     30  O   UNL d   1      11.635  14.514   0.146 -0.24 -0.07    -0.228 OA
DOCKED: BRANCH  29  31
DOCKED: ATOM     31  O   UNL d   1      10.266  16.136   1.702 -0.19 -0.07    -0.303 OA
DOCKED: ATOM     32  H   UNL d   1      10.855  15.984   2.477 +0.05 +0.03    +0.222 HD
DOCKED: ENDBRANCH  29  31
DOCKED: BRANCH  29  33
DOCKED: ATOM     33  O   UNL d   1      10.158  16.481  -0.766 -0.65 -0.01    -0.303 OA
DOCKED: ATOM     34  H   UNL d   1      10.181  15.882  -1.552 -0.44 -0.09    +0.222 HD
DOCKED: ENDBRANCH  29  33
DOCKED: ENDBRANCH  28  29
DOCKED: ENDBRANCH   3  28
DOCKED: BRANCH   5  35
DOCKED: ATOM     35  O   UNL d   1      14.424  13.971  -2.176 -0.19 -0.25    -0.278 OA
DOCKED: BRANCH  35  36
DOCKED: ATOM     36  P   UNL d   1      14.967  13.805  -3.667 -0.03 +0.20    +0.473 P 
DOCKED: ATOM     37  O   UNL d   1      14.081  13.036  -4.594 -0.25 -0.04    -0.228 OA
DOCKED: BRANCH  36  38
DOCKED: ATOM     38  O   UNL d   1      15.208  15.320  -4.097 -0.03 -0.02    -0.303 OA
DOCKED: ATOM     39  H   UNL d   1      14.501  15.879  -3.709 +0.05 +0.02    +0.222 HD
DOCKED: ENDBRANCH  36  38
DOCKED: BRANCH  36  40
DOCKED: ATOM     40  O   UNL d   1      16.434  13.236  -3.432 -0.06 -0.06    -0.303 OA
DOCKED: ATOM     41  H   UNL d   1      16.786  13.489  -2.550 +0.02 +0.04    +0.222 HD
DOCKED: ENDBRANCH  36  40
DOCKED: ENDBRANCH  35  36
DOCKED: ENDBRANCH   5  35
DOCKED: BRANCH   4  42
DOCKED: ATOM     42  O   UNL d   1      13.021  16.525  -2.204 -0.05 -0.02    -0.278 OA
DOCKED: BRANCH  42  43
DOCKED: ATOM     43  P   UNL d   1      12.077  15.805  -3.270 -0.24 -0.01    +0.473 P 
DOCKED: ATOM     44  O   UNL d   1      12.658  15.504  -4.608 -0.18 +0.01    -0.228 OA
DOCKED: BRANCH  43  45
DOCKED: ATOM     45  O   UNL d   1      11.571  14.522  -2.477 -0.54 -0.08    -0.303 OA
DOCKED: ATOM     46  H   UNL d   1      10.832  14.742  -1.874 -0.35 -0.03    +0.222 HD
DOCKED: ENDBRANCH  43  45
DOCKED: BRANCH  43  47
DOCKED: ATOM     47  O   UNL d   1      10.764  16.724  -3.276 -0.10 +0.08    -0.303 OA
DOCKED: ATOM     48  H   UNL d   1      10.653  17.135  -2.394 -0.42 -0.08    +0.222 HD
DOCKED: ENDBRANCH  43  47
DOCKED: ENDBRANCH  42  43
DOCKED: ENDBRANCH   4  42
DOCKED: TORSDOF 24
DOCKED: TER
DOCKED: ENDMDL
________________________________________________________________________________


	BEGINNING GENETIC ALGORITHM DOCKING 19 of 100
Run: 19 Seed: 1622834909 819667170 [ Run 19 of 100 GA/GALS ]
Beginning LAMARCKIAN GENETIC ALGORITHM (LGA), with a maximum of 25000000 energy evaluations.

Final-Value: -16.406


	FINAL GENETIC ALGORITHM DOCKED STATE
	_______________________________________________


Detailed state:  trans -2.308 -15.723 16.444 quatxyzw 0.401755 0.221326 -0.786817 0.412949 center 0.035 0.082 -0.065 ntor 24 153.4246 116.6809 139.1287 -5.8379 110.7628 -153.9676 -169.2375 -26.4863 93.5212 -34.9673 -145.4728 -164.5410 -92.3919 56.5018 27.2058 168.2941 109.1049 155.4955 -121.6374 -33.9537 -174.8879 13.7776 153.0188 -172.5787
State:	 -2.308 -15.723  16.444   0.441  0.243 -0.864 131.220    153.42  116.68  139.13   -5.84  110.76 -153.97 -169.24  -26.49   93.52  -34.97 -145.47 -164.54  -92.39   56.50   27.21  168.29  109.10  155.50 -121.64  -33.95 -174.89   13.78  153.02 -172.58

DOCKED: MODEL       19
DOCKED: USER    Run = 19
DOCKED: USER    DPF = D:/Protein_go_brrr/autodock/final/AncMH_nat/IHP/dock.dpf
DOCKED: USER  
DOCKED: USER    Estimated Free Energy of Binding    =   +1.98 kcal/mol  [=(1)+(2)+(3)-(4)]
DOCKED: USER    
DOCKED: USER    (1) Final Intermolecular Energy     =   -5.18 kcal/mol
DOCKED: USER        vdW + Hbond + desolv Energy     =   -5.00 kcal/mol
DOCKED: USER        Electrostatic Energy            =   -0.18 kcal/mol
DOCKED: USER    (2) Final Total Internal Energy     =  -11.22 kcal/mol
DOCKED: USER    (3) Torsional Free Energy           =   +7.16 kcal/mol
DOCKED: USER    (4) Unbound System's Energy  [=(2)] =  -11.22 kcal/mol
DOCKED: USER    
DOCKED: USER    
DOCKED: USER    NEWDPF move IHP_ideal_opt.pdbqt
DOCKED: USER    NEWDPF about 0.035000 0.082000 -0.065000
DOCKED: USER    NEWDPF tran0 -2.308161 -15.723443 16.443729
DOCKED: USER    NEWDPF quaternion0 0.401755 0.221326 -0.786817 0.412949
DOCKED: USER    NEWDPF axisangle0 0.441123 0.243014 -0.863918 131.219557
DOCKED: USER    NEWDPF quat0 0.441123 0.243014 -0.863918 131.219557
DOCKED: USER    NEWDPF dihe0 153.42 116.68 139.13 -5.84 110.76 -153.97 -169.24 -26.49 93.52 -34.97 -145.47 -164.54 -92.39 56.50 27.21 168.29 109.10 155.50 -121.64 -33.95 -174.89 13.78 153.02 -172.58 
DOCKED: USER  keepresnum = 1 
DOCKED: USER  
DOCKED: REMARK  24 active torsions:
DOCKED: REMARK  status: ('A' for Active; 'I' for Inactive)
DOCKED: REMARK    1  A    between atoms: C_1  and  O_7 
DOCKED: REMARK    2  A    between atoms: C_2  and  O_12 
DOCKED: REMARK    3  A    between atoms: C_3  and  O_17 
DOCKED: REMARK    4  A    between atoms: C_4  and  O_22 
DOCKED: REMARK    5  A    between atoms: C_5  and  O_27 
DOCKED: REMARK    6  A    between atoms: C_6  and  O_32 
DOCKED: REMARK    7  A    between atoms: O_7  and  P_8 
DOCKED: REMARK    8  A    between atoms: P_8  and  O_10 
DOCKED: REMARK    9  A    between atoms: P_8  and  O_11 
DOCKED: REMARK   10  A    between atoms: O_12  and  P_13 
DOCKED: REMARK   11  A    between atoms: P_13  and  O_15 
DOCKED: REMARK   12  A    between atoms: P_13  and  O_16 
DOCKED: REMARK   13  A    between atoms: O_17  and  P_18 
DOCKED: REMARK   14  A    between atoms: P_18  and  O_20 
DOCKED: REMARK   15  A    between atoms: P_18  and  O_21 
DOCKED: REMARK   16  A    between atoms: O_22  and  P_23 
DOCKED: REMARK   17  A    between atoms: P_23  and  O_25 
DOCKED: REMARK   18  A    between atoms: P_23  and  O_26 
DOCKED: REMARK   19  A    between atoms: O_27  and  P_28 
DOCKED: REMARK   20  A    between atoms: P_28  and  O_30 
DOCKED: REMARK   21  A    between atoms: P_28  and  O_31 
DOCKED: REMARK   22  A    between atoms: O_32  and  P_33 
DOCKED: REMARK   23  A    between atoms: P_33  and  O_35 
DOCKED: REMARK   24  A    between atoms: P_33  and  O_36 
DOCKED: USER                              x       y       z     vdW  Elec       q    Type
DOCKED: USER                           _______ _______ _______ _____ _____    ______ ____
DOCKED: ROOT
DOCKED: ATOM      1  C   UNL d   1      -2.955 -14.201  16.943 -0.08 -0.02    +0.194 C 
DOCKED: ATOM      2  C   UNL d   1      -1.855 -14.777  17.837 -0.03 -0.02    +0.194 C 
DOCKED: ATOM      3  C   UNL d   1      -2.045 -16.277  18.073 -0.02 -0.02    +0.194 C 
DOCKED: ATOM      4  C   UNL d   1      -2.214 -17.073  16.781 -0.05 -0.02    +0.194 C 
DOCKED: ATOM      5  C   UNL d   1      -3.219 -16.470  15.808 -0.12 -0.03    +0.194 C 
DOCKED: ATOM      6  C   UNL d   1      -3.069 -14.959  15.619 -0.14 -0.03    +0.194 C 
DOCKED: ENDROOT
DOCKED: BRANCH   1   7
DOCKED: ATOM      7  O   UNL d   1      -2.614 -12.848  16.631 -0.14 +0.03    -0.278 OA
DOCKED: BRANCH   7   8
DOCKED: ATOM      8  P   UNL d   1      -2.316 -12.472  15.107 -0.22 -0.11    +0.473 P 
DOCKED: ATOM      9  O   UNL d   1      -1.522 -13.479  14.352 -0.30 +0.04    -0.228 OA
DOCKED: BRANCH   8  10
DOCKED: ATOM     10  O   UNL d   1      -3.762 -12.217  14.483 -0.28 +0.04    -0.303 OA
DOCKED: ATOM     11  H   UNL d   1      -4.446 -12.418  15.149 +0.12 +0.01    +0.222 HD
DOCKED: ENDBRANCH   8  10
DOCKED: BRANCH   8  12
DOCKED: ATOM     12  O   UNL d   1      -1.710 -11.004  15.155 -0.02 +0.15    -0.303 OA
DOCKED: ATOM     13  H   UNL d   1      -0.799 -10.975  15.525 -0.34 -0.18    +0.222 HD
DOCKED: ENDBRANCH   8  12
DOCKED: ENDBRANCH   7   8
DOCKED: ENDBRANCH   1   7
DOCKED: BRANCH   2  14
DOCKED: ATOM     14  O   UNL d   1      -0.585 -14.571  17.206 -0.03 +0.04    -0.278 OA
DOCKED: BRANCH  14  15
DOCKED: ATOM     15  P   UNL d   1       0.259 -13.300  17.693 -0.05 -0.09    +0.473 P 
DOCKED: ATOM     16  O   UNL d   1       1.522 -13.581  18.445 -0.02 +0.04    -0.228 OA
DOCKED: BRANCH  15  17
DOCKED: ATOM     17  O   UNL d   1       0.506 -12.465  16.360 -0.11 +0.12    -0.303 OA
DOCKED: ATOM     18  H   UNL d   1      -0.304 -12.420  15.817 -0.29 -0.09    +0.222 HD
DOCKED: ENDBRANCH  15  17
DOCKED: BRANCH  15  19
DOCKED: ATOM     19  O   UNL d   1      -0.802 -12.387  18.450 -0.08 +0.05    -0.303 OA
DOCKED: ATOM     20  H   UNL d   1      -1.483 -12.046  17.841 +0.06 -0.04    +0.222 HD
DOCKED: ENDBRANCH  15  19
DOCKED: ENDBRANCH  14  15
DOCKED: ENDBRANCH   2  14
DOCKED: BRANCH   6  21
DOCKED: ATOM     21  O   UNL d   1      -4.258 -14.503  14.978 -0.03 +0.06    -0.278 OA
DOCKED: BRANCH  21  22
DOCKED: ATOM     22  P   UNL d   1      -5.561 -14.203  15.847 -0.10 +0.05    +0.473 P 
DOCKED: ATOM     23  O   UNL d   1      -5.457 -13.206  16.952 -0.10 -0.02    -0.228 OA
DOCKED: BRANCH  22  24
DOCKED: ATOM     24  O   UNL d   1      -6.627 -13.842  14.722 -0.35 -0.24    -0.303 OA
DOCKED: ATOM     25  H   UNL d   1      -6.542 -14.508  13.992 -0.30 +0.11    +0.222 HD
DOCKED: ENDBRANCH  22  24
DOCKED: BRANCH  22  26
DOCKED: ATOM     26  O   UNL d   1      -6.016 -15.679  16.274 -0.16 -0.00    -0.303 OA
DOCKED: ATOM     27  H   UNL d   1      -5.223 -16.245  16.369 -0.02 -0.02    +0.222 HD
DOCKED: ENDBRANCH  22  26
DOCKED: ENDBRANCH  21  22
DOCKED: ENDBRANCH   6  21
DOCKED: BRANCH   3  28
DOCKED: ATOM     28  O   UNL d   1      -0.851 -16.771  18.667 -0.00 +0.02    -0.278 OA
DOCKED: BRANCH  28  29
DOCKED: ATOM     29  P   UNL d   1      -0.905 -17.548  20.056 -0.00 -0.04    +0.473 P 
DOCKED: ATOM     30  O   UNL d   1       0.032 -18.693  20.186 +0.00 +0.02    -0.228 OA
DOCKED: BRANCH  29  31
DOCKED: ATOM     31  O   UNL d   1      -0.703 -16.325  21.068 +0.00 +0.02    -0.303 OA
DOCKED: ATOM     32  H   UNL d   1       0.132 -16.469  21.571 +0.00 -0.02    +0.222 HD
DOCKED: ENDBRANCH  29  31
DOCKED: BRANCH  29  33
DOCKED: ATOM     33  O   UNL d   1      -2.458 -17.869  20.199 -0.00 +0.02    -0.303 OA
DOCKED: ATOM     34  H   UNL d   1      -2.841 -18.012  19.298 +0.01 -0.02    +0.222 HD
DOCKED: ENDBRANCH  29  33
DOCKED: ENDBRANCH  28  29
DOCKED: ENDBRANCH   3  28
DOCKED: BRANCH   5  35
DOCKED: ATOM     35  O   UNL d   1      -2.951 -17.080  14.547 -0.18 +0.05    -0.278 OA
DOCKED: BRANCH  35  36
DOCKED: ATOM     36  P   UNL d   1      -1.694 -16.617  13.681 -0.20 -0.01    +0.473 P 
DOCKED: ATOM     37  O   UNL d   1      -1.138 -17.647  12.751 -0.77 -0.05    -0.228 OA
DOCKED: BRANCH  36  38
DOCKED: ATOM     38  O   UNL d   1      -2.259 -15.317  12.956 -0.33 +0.03    -0.303 OA
DOCKED: ATOM     39  H   UNL d   1      -3.003 -14.953  13.482 -0.12 -0.05    +0.222 HD
DOCKED: ENDBRANCH  36  38
DOCKED: BRANCH  36  40
DOCKED: ATOM     40  O   UNL d   1      -0.711 -16.040  14.790 -0.07 +0.03    -0.303 OA
DOCKED: ATOM     41  H   UNL d   1      -0.991 -15.149  15.097 +0.07 -0.03    +0.222 HD
DOCKED: ENDBRANCH  36  40
DOCKED: ENDBRANCH  35  36
DOCKED: ENDBRANCH   5  35
DOCKED: BRANCH   4  42
DOCKED: ATOM     42  O   UNL d   1      -2.709 -18.364  17.152 -0.03 +0.02    -0.278 OA
DOCKED: BRANCH  42  43
DOCKED: ATOM     43  P   UNL d   1      -4.244 -18.515  17.556 -0.04 -0.03    +0.473 P 
DOCKED: ATOM     44  O   UNL d   1      -4.625 -19.697  18.378 -0.02 +0.02    -0.228 OA
DOCKED: BRANCH  43  45
DOCKED: ATOM     45  O   UNL d   1      -4.564 -17.115  18.241 -0.03 +0.02    -0.303 OA
DOCKED: ATOM     46  H   UNL d   1      -5.460 -16.798  18.008 +0.03 -0.01    +0.222 HD
DOCKED: ENDBRANCH  43  45
DOCKED: BRANCH  43  47
DOCKED: ATOM     47  O   UNL d   1      -5.008 -18.373  16.153 -0.18 +0.01    -0.303 OA
DOCKED: ATOM     48  H   UNL d   1      -4.362 -18.467  15.423 +0.04 -0.01    +0.222 HD
DOCKED: ENDBRANCH  43  47
DOCKED: ENDBRANCH  42  43
DOCKED: ENDBRANCH   4  42
DOCKED: TORSDOF 24
DOCKED: TER
DOCKED: ENDMDL
________________________________________________________________________________


	BEGINNING GENETIC ALGORITHM DOCKING 20 of 100
Run: 20 Seed: 560416908 1746421642 [ Run 20 of 100 GA/GALS ]
Beginning LAMARCKIAN GENETIC ALGORITHM (LGA), with a maximum of 25000000 energy evaluations.

Final-Value: -20.130


	FINAL GENETIC ALGORITHM DOCKED STATE
	_______________________________________________


Detailed state:  trans -17.604 -1.601 5.822 quatxyzw -0.473431 -0.411314 -0.708787 -0.322963 center 0.035 0.082 -0.065 ntor 24 87.9549 106.9102 35.7289 93.0749 -39.8944 -179.4079 -25.6548 -38.0513 130.2081 -87.1784 126.6007 110.5520 -42.4907 -90.5156 -147.3610 -27.9605 -148.8580 58.0345 -166.4433 6.2160 -19.4881 10.9788 -5.0238 -20.5480
State:	-17.604  -1.601   5.822  -0.500 -0.435 -0.749 -142.316     87.95  106.91   35.73   93.07  -39.89 -179.41  -25.65  -38.05  130.21  -87.18  126.60  110.55  -42.49  -90.52 -147.36  -27.96 -148.86   58.03 -166.44    6.22  -19.49   10.98   -5.02  -20.55

DOCKED: MODEL       20
DOCKED: USER    Run = 20
DOCKED: USER    DPF = D:/Protein_go_brrr/autodock/final/AncMH_nat/IHP/dock.dpf
DOCKED: USER  
DOCKED: USER    Estimated Free Energy of Binding    =   +1.05 kcal/mol  [=(1)+(2)+(3)-(4)]
DOCKED: USER    
DOCKED: USER    (1) Final Intermolecular Energy     =   -6.11 kcal/mol
DOCKED: USER        vdW + Hbond + desolv Energy     =   -5.56 kcal/mol
DOCKED: USER        Electrostatic Energy            =   -0.54 kcal/mol
DOCKED: USER    (2) Final Total Internal Energy     =  -14.02 kcal/mol
DOCKED: USER    (3) Torsional Free Energy           =   +7.16 kcal/mol
DOCKED: USER    (4) Unbound System's Energy  [=(2)] =  -14.02 kcal/mol
DOCKED: USER    
DOCKED: USER    
DOCKED: USER    NEWDPF move IHP_ideal_opt.pdbqt
DOCKED: USER    NEWDPF about 0.035000 0.082000 -0.065000
DOCKED: USER    NEWDPF tran0 -17.603789 -1.600769 5.821791
DOCKED: USER    NEWDPF quaternion0 -0.473431 -0.411314 -0.708787 -0.322963
DOCKED: USER    NEWDPF axisangle0 -0.500237 -0.434604 -0.748920 -142.315580
DOCKED: USER    NEWDPF quat0 -0.500237 -0.434604 -0.748920 -142.315580
DOCKED: USER    NEWDPF dihe0 87.95 106.91 35.73 93.07 -39.89 -179.41 -25.65 -38.05 130.21 -87.18 126.60 110.55 -42.49 -90.52 -147.36 -27.96 -148.86 58.03 -166.44 6.22 -19.49 10.98 -5.02 -20.55 
DOCKED: USER  keepresnum = 1 
DOCKED: USER  
DOCKED: REMARK  24 active torsions:
DOCKED: REMARK  status: ('A' for Active; 'I' for Inactive)
DOCKED: REMARK    1  A    between atoms: C_1  and  O_7 
DOCKED: REMARK    2  A    between atoms: C_2  and  O_12 
DOCKED: REMARK    3  A    between atoms: C_3  and  O_17 
DOCKED: REMARK    4  A    between atoms: C_4  and  O_22 
DOCKED: REMARK    5  A    between atoms: C_5  and  O_27 
DOCKED: REMARK    6  A    between atoms: C_6  and  O_32 
DOCKED: REMARK    7  A    between atoms: O_7  and  P_8 
DOCKED: REMARK    8  A    between atoms: P_8  and  O_10 
DOCKED: REMARK    9  A    between atoms: P_8  and  O_11 
DOCKED: REMARK   10  A    between atoms: O_12  and  P_13 
DOCKED: REMARK   11  A    between atoms: P_13  and  O_15 
DOCKED: REMARK   12  A    between atoms: P_13  and  O_16 
DOCKED: REMARK   13  A    between atoms: O_17  and  P_18 
DOCKED: REMARK   14  A    between atoms: P_18  and  O_20 
DOCKED: REMARK   15  A    between atoms: P_18  and  O_21 
DOCKED: REMARK   16  A    between atoms: O_22  and  P_23 
DOCKED: REMARK   17  A    between atoms: P_23  and  O_25 
DOCKED: REMARK   18  A    between atoms: P_23  and  O_26 
DOCKED: REMARK   19  A    between atoms: O_27  and  P_28 
DOCKED: REMARK   20  A    between atoms: P_28  and  O_30 
DOCKED: REMARK   21  A    between atoms: P_28  and  O_31 
DOCKED: REMARK   22  A    between atoms: O_32  and  P_33 
DOCKED: REMARK   23  A    between atoms: P_33  and  O_35 
DOCKED: REMARK   24  A    between atoms: P_33  and  O_36 
DOCKED: USER                              x       y       z     vdW  Elec       q    Type
DOCKED: USER                           _______ _______ _______ _____ _____    ______ ____
DOCKED: ROOT
DOCKED: ATOM      1  C   UNL d   1     -18.465  -0.581   6.918 -0.13 +0.11    +0.194 C 
DOCKED: ATOM      2  C   UNL d   1     -18.868  -0.459   5.447 -0.10 +0.18    +0.194 C 
DOCKED: ATOM      3  C   UNL d   1     -17.647  -0.440   4.525 -0.10 +0.18    +0.194 C 
DOCKED: ATOM      4  C   UNL d   1     -16.691  -1.605   4.768 -0.07 +0.12    +0.194 C 
DOCKED: ATOM      5  C   UNL d   1     -16.353  -1.835   6.235 -0.10 +0.08    +0.194 C 
DOCKED: ATOM      6  C   UNL d   1     -17.567  -1.794   7.165 -0.09 +0.08    +0.194 C 
DOCKED: ENDROOT
DOCKED: BRANCH   1   7
DOCKED: ATOM      7  O   UNL d   1     -19.653  -0.766   7.692 -0.04 -0.13    -0.278 OA
DOCKED: BRANCH   7   8
DOCKED: ATOM      8  P   UNL d   1     -20.421  -2.162   7.581 +0.01 +0.17    +0.473 P 
DOCKED: ATOM      9  O   UNL d   1     -19.696  -3.224   6.831 -0.12 -0.09    -0.228 OA
DOCKED: BRANCH   8  10
DOCKED: ATOM     10  O   UNL d   1     -20.723  -2.559   9.097 -0.01 -0.08    -0.303 OA
DOCKED: ATOM     11  H   UNL d   1     -19.889  -2.794   9.545 +0.04 +0.06    +0.222 HD
DOCKED: ENDBRANCH   8  10
DOCKED: BRANCH   8  12
DOCKED: ATOM     12  O   UNL d   1     -21.869  -1.795   7.039 -0.00 -0.12    -0.303 OA
DOCKED: ATOM     13  H   UNL d   1     -21.853  -1.375   6.150 +0.02 +0.11    +0.222 HD
DOCKED: ENDBRANCH   8  12
DOCKED: ENDBRANCH   7   8
DOCKED: ENDBRANCH   1   7
DOCKED: BRANCH   2  14
DOCKED: ATOM     14  O   UNL d   1     -19.689  -1.580   5.094 -0.03 -0.19    -0.278 OA
DOCKED: BRANCH  14  15
DOCKED: ATOM     15  P   UNL d   1     -20.970  -1.270   4.184 -0.02 +0.38    +0.473 P 
DOCKED: ATOM     16  O   UNL d   1     -21.666   0.033   4.425 -0.56 -0.33    -0.228 OA
DOCKED: BRANCH  15  17
DOCKED: ATOM     17  O   UNL d   1     -20.430  -1.415   2.692 -0.01 -0.24    -0.303 OA
DOCKED: ATOM     18  H   UNL d   1     -19.707  -0.782   2.517 +0.03 +0.23    +0.222 HD
DOCKED: ENDBRANCH  15  17
DOCKED: BRANCH  15  19
DOCKED: ATOM     19  O   UNL d   1     -21.878  -2.568   4.322 +0.00 -0.13    -0.303 OA
DOCKED: ATOM     20  H   UNL d   1     -21.800  -2.970   5.207 +0.02 +0.08    +0.222 HD
DOCKED: ENDBRANCH  15  19
DOCKED: ENDBRANCH  14  15
DOCKED: ENDBRANCH   2  14
DOCKED: BRANCH   6  21
DOCKED: ATOM     21  O   UNL d   1     -17.065  -1.678   8.494 -0.10 -0.07    -0.278 OA
DOCKED: BRANCH  21  22
DOCKED: ATOM     22  P   UNL d   1     -17.440  -2.784   9.582 -0.11 +0.09    +0.473 P 
DOCKED: ATOM     23  O   UNL d   1     -18.225  -2.359  10.776 -0.08 -0.05    -0.228 OA
DOCKED: BRANCH  22  24
DOCKED: ATOM     24  O   UNL d   1     -18.138  -3.898   8.685 -0.15 -0.06    -0.303 OA
DOCKED: ATOM     25  H   UNL d   1     -19.114  -3.861   8.852 +0.03 +0.06    +0.222 HD
DOCKED: ENDBRANCH  22  24
DOCKED: BRANCH  22  26
DOCKED: ATOM     26  O   UNL d   1     -16.010  -3.446   9.879 -0.76 -0.04    -0.303 OA
DOCKED: ATOM     27  H   UNL d   1     -15.317  -2.938   9.411 -0.38 -0.02    +0.222 HD
DOCKED: ENDBRANCH  22  26
DOCKED: ENDBRANCH  21  22
DOCKED: ENDBRANCH   6  21
DOCKED: BRANCH   3  28
DOCKED: ATOM     28  O   UNL d   1     -18.114  -0.605   3.193 -0.08 -0.30    -0.278 OA
DOCKED: BRANCH  28  29
DOCKED: ATOM     29  P   UNL d   1     -17.801   0.498   2.088 -0.10 +0.75    +0.473 P 
DOCKED: ATOM     30  O   UNL d   1     -18.202   1.886   2.437 -0.62 -0.57    -0.228 OA
DOCKED: BRANCH  29  31
DOCKED: ATOM     31  O   UNL d   1     -16.241   0.229   1.857 -0.42 -0.56    -0.303 OA
DOCKED: ATOM     32  H   UNL d   1     -16.047  -0.709   2.088 +0.06 +0.28    +0.222 HD
DOCKED: ENDBRANCH  29  31
DOCKED: BRANCH  29  33
DOCKED: ATOM     33  O   UNL d   1     -18.464  -0.136   0.786 -0.04 -0.34    -0.303 OA
DOCKED: ATOM     34  H   UNL d   1     -19.139  -0.802   1.062 +0.03 +0.20    +0.222 HD
DOCKED: ENDBRANCH  29  33
DOCKED: ENDBRANCH  28  29
DOCKED: ENDBRANCH   3  28
DOCKED: BRANCH   5  35
DOCKED: ATOM     35  O   UNL d   1     -15.815  -3.154   6.306 -0.09 -0.09    -0.278 OA
DOCKED: BRANCH  35  36
DOCKED: ATOM     36  P   UNL d   1     -14.383  -3.405   6.964 -0.16 +0.11    +0.473 P 
DOCKED: ATOM     37  O   UNL d   1     -13.269  -3.669   6.001 -0.12 -0.06    -0.228 OA
DOCKED: BRANCH  36  38
DOCKED: ATOM     38  O   UNL d   1     -14.192  -2.089   7.841 -0.26 -0.02    -0.303 OA
DOCKED: ATOM     39  H   UNL d   1     -14.917  -2.036   8.501 -0.08 +0.01    +0.222 HD
DOCKED: ENDBRANCH  36  38
DOCKED: BRANCH  36  40
DOCKED: ATOM     40  O   UNL d   1     -14.695  -4.538   8.035 -0.35 -0.08    -0.303 OA
DOCKED: ATOM     41  H   UNL d   1     -14.353  -4.301   8.926 -0.23 +0.04    +0.222 HD
DOCKED: ENDBRANCH  36  40
DOCKED: ENDBRANCH  35  36
DOCKED: ENDBRANCH   5  35
DOCKED: BRANCH   4  42
DOCKED: ATOM     42  O   UNL d   1     -15.467  -1.284   4.099 -0.10 -0.19    -0.278 OA
DOCKED: BRANCH  42  43
DOCKED: ATOM     43  P   UNL d   1     -14.791  -2.381   3.159 -0.10 +0.39    +0.473 P 
DOCKED: ATOM     44  O   UNL d   1     -14.932  -2.205   1.686 -0.17 -0.27    -0.228 OA
DOCKED: BRANCH  43  45
DOCKED: ATOM     45  O   UNL d   1     -13.285  -2.399   3.671 -0.06 -0.18    -0.303 OA
DOCKED: ATOM     46  H   UNL d   1     -13.237  -2.544   4.637 +0.11 +0.09    +0.222 HD
DOCKED: ENDBRANCH  43  45
DOCKED: BRANCH  43  47
DOCKED: ATOM     47  O   UNL d   1     -15.352  -3.763   3.747 -0.09 -0.21    -0.303 OA
DOCKED: ATOM     48  H   UNL d   1     -14.944  -3.931   4.621 +0.12 +0.11    +0.222 HD
DOCKED: ENDBRANCH  43  47
DOCKED: ENDBRANCH  42  43
DOCKED: ENDBRANCH   4  42
DOCKED: TORSDOF 24
DOCKED: TER
DOCKED: ENDMDL
________________________________________________________________________________


	BEGINNING GENETIC ALGORITHM DOCKING 21 of 100
Run: 21 Seed: 1400057727 2118838265 [ Run 21 of 100 GA/GALS ]
Beginning LAMARCKIAN GENETIC ALGORITHM (LGA), with a maximum of 25000000 energy evaluations.

Final-Value: -17.042


	FINAL GENETIC ALGORITHM DOCKED STATE
	_______________________________________________


Detailed state:  trans -14.429 7.822 -4.480 quatxyzw -0.455441 -0.004871 -0.785725 -0.418553 center 0.035 0.082 -0.065 ntor 24 129.1865 85.2801 12.4105 161.1973 -23.8050 -120.3069 -23.0878 -120.5570 167.8548 140.0494 -5.4033 -90.9194 -61.9174 -82.1869 -65.7878 78.6684 68.3272 -79.7750 45.9267 3.5502 -169.3554 -14.2013 31.6714 -155.9240
State:	-14.429   7.822  -4.480  -0.501 -0.005 -0.865 -130.514    129.19   85.28   12.41  161.20  -23.80 -120.31  -23.09 -120.56  167.85  140.05   -5.40  -90.92  -61.92  -82.19  -65.79   78.67   68.33  -79.78   45.93    3.55 -169.36  -14.20   31.67 -155.92

DOCKED: MODEL       21
DOCKED: USER    Run = 21
DOCKED: USER    DPF = D:/Protein_go_brrr/autodock/final/AncMH_nat/IHP/dock.dpf
DOCKED: USER  
DOCKED: USER    Estimated Free Energy of Binding    =   +3.15 kcal/mol  [=(1)+(2)+(3)-(4)]
DOCKED: USER    
DOCKED: USER    (1) Final Intermolecular Energy     =   -4.00 kcal/mol
DOCKED: USER        vdW + Hbond + desolv Energy     =   -3.91 kcal/mol
DOCKED: USER        Electrostatic Energy            =   -0.10 kcal/mol
DOCKED: USER    (2) Final Total Internal Energy     =  -13.04 kcal/mol
DOCKED: USER    (3) Torsional Free Energy           =   +7.16 kcal/mol
DOCKED: USER    (4) Unbound System's Energy  [=(2)] =  -13.04 kcal/mol
DOCKED: USER    
DOCKED: USER    
DOCKED: USER    NEWDPF move IHP_ideal_opt.pdbqt
DOCKED: USER    NEWDPF about 0.035000 0.082000 -0.065000
DOCKED: USER    NEWDPF tran0 -14.429183 7.822447 -4.479659
DOCKED: USER    NEWDPF quaternion0 -0.455441 -0.004871 -0.785725 -0.418553
DOCKED: USER    NEWDPF axisangle0 -0.501481 -0.005363 -0.865152 -130.513519
DOCKED: USER    NEWDPF quat0 -0.501481 -0.005363 -0.865152 -130.513519
DOCKED: USER    NEWDPF dihe0 129.19 85.28 12.41 161.20 -23.80 -120.31 -23.09 -120.56 167.85 140.05 -5.40 -90.92 -61.92 -82.19 -65.79 78.67 68.33 -79.78 45.93 3.55 -169.36 -14.20 31.67 -155.92 
DOCKED: USER  keepresnum = 1 
DOCKED: USER  
DOCKED: REMARK  24 active torsions:
DOCKED: REMARK  status: ('A' for Active; 'I' for Inactive)
DOCKED: REMARK    1  A    between atoms: C_1  and  O_7 
DOCKED: REMARK    2  A    between atoms: C_2  and  O_12 
DOCKED: REMARK    3  A    between atoms: C_3  and  O_17 
DOCKED: REMARK    4  A    between atoms: C_4  and  O_22 
DOCKED: REMARK    5  A    between atoms: C_5  and  O_27 
DOCKED: REMARK    6  A    between atoms: C_6  and  O_32 
DOCKED: REMARK    7  A    between atoms: O_7  and  P_8 
DOCKED: REMARK    8  A    between atoms: P_8  and  O_10 
DOCKED: REMARK    9  A    between atoms: P_8  and  O_11 
DOCKED: REMARK   10  A    between atoms: O_12  and  P_13 
DOCKED: REMARK   11  A    between atoms: P_13  and  O_15 
DOCKED: REMARK   12  A    between atoms: P_13  and  O_16 
DOCKED: REMARK   13  A    between atoms: O_17  and  P_18 
DOCKED: REMARK   14  A    between atoms: P_18  and  O_20 
DOCKED: REMARK   15  A    between atoms: P_18  and  O_21 
DOCKED: REMARK   16  A    between atoms: O_22  and  P_23 
DOCKED: REMARK   17  A    between atoms: P_23  and  O_25 
DOCKED: REMARK   18  A    between atoms: P_23  and  O_26 
DOCKED: REMARK   19  A    between atoms: O_27  and  P_28 
DOCKED: REMARK   20  A    between atoms: P_28  and  O_30 
DOCKED: REMARK   21  A    between atoms: P_28  and  O_31 
DOCKED: REMARK   22  A    between atoms: O_32  and  P_33 
DOCKED: REMARK   23  A    between atoms: P_33  and  O_35 
DOCKED: REMARK   24  A    between atoms: P_33  and  O_36 
DOCKED: USER                              x       y       z     vdW  Elec       q    Type
DOCKED: USER                           _______ _______ _______ _____ _____    ______ ____
DOCKED: ROOT
DOCKED: ATOM      1  C   UNL d   1     -14.748   7.888  -2.783 -0.13 +0.03    +0.194 C 
DOCKED: ATOM      2  C   UNL d   1     -15.250   9.082  -3.597 -0.06 +0.01    +0.194 C 
DOCKED: ATOM      3  C   UNL d   1     -14.214   9.544  -4.624 -0.04 +0.00    +0.194 C 
DOCKED: ATOM      4  C   UNL d   1     -13.704   8.413  -5.513 -0.08 -0.01    +0.194 C 
DOCKED: ATOM      5  C   UNL d   1     -13.299   7.158  -4.751 -0.08 -0.00    +0.194 C 
DOCKED: ATOM      6  C   UNL d   1     -14.307   6.732  -3.681 -0.08 +0.03    +0.194 C 
DOCKED: ENDROOT
DOCKED: BRANCH   1   7
DOCKED: ATOM      7  O   UNL d   1     -15.828   7.413  -1.976 -0.08 -0.08    -0.278 OA
DOCKED: BRANCH   7   8
DOCKED: ATOM      8  P   UNL d   1     -16.215   8.238  -0.663 -0.13 +0.09    +0.473 P 
DOCKED: ATOM      9  O   UNL d   1     -15.248   9.302  -0.279 -0.23 +0.01    -0.228 OA
DOCKED: BRANCH   8  10
DOCKED: ATOM     10  O   UNL d   1     -17.675   8.799  -0.976 -0.03 -0.04    -0.303 OA
DOCKED: ATOM     11  H   UNL d   1     -17.781   8.919  -1.938 +0.03 +0.03    +0.222 HD
DOCKED: ENDBRANCH   8  10
DOCKED: BRANCH   8  12
DOCKED: ATOM     12  O   UNL d   1     -16.512   7.137   0.443 -0.16 -0.15    -0.303 OA
DOCKED: ATOM     13  H   UNL d   1     -15.884   6.380   0.412 +0.08 +0.18    +0.222 HD
DOCKED: ENDBRANCH   8  12
DOCKED: ENDBRANCH   7   8
DOCKED: ENDBRANCH   1   7
DOCKED: BRANCH   2  14
DOCKED: ATOM     14  O   UNL d   1     -16.445   8.705  -4.292 -0.03 -0.02    -0.278 OA
DOCKED: BRANCH  14  15
DOCKED: ATOM     15  P   UNL d   1     -17.657   9.750  -4.253 -0.01 +0.02    +0.473 P 
DOCKED: ATOM     16  O   UNL d   1     -17.713  10.671  -3.074 -0.03 -0.00    -0.228 OA
DOCKED: BRANCH  15  17
DOCKED: ATOM     17  O   UNL d   1     -17.544  10.528  -5.638 -0.01 -0.00    -0.303 OA
DOCKED: ATOM     18  H   UNL d   1     -16.893  11.254  -5.582 +0.01 +0.00    +0.222 HD
DOCKED: ENDBRANCH  15  17
DOCKED: BRANCH  15  19
DOCKED: ATOM     19  O   UNL d   1     -18.955   8.862  -4.491 -0.00 -0.02    -0.303 OA
DOCKED: ATOM     20  H   UNL d   1     -19.430   8.686  -3.657 +0.00 +0.02    +0.222 HD
DOCKED: ENDBRANCH  15  19
DOCKED: ENDBRANCH  14  15
DOCKED: ENDBRANCH   2  14
DOCKED: BRANCH   6  21
DOCKED: ATOM     21  O   UNL d   1     -13.646   5.783  -2.846 -0.07 -0.08    -0.278 OA
DOCKED: BRANCH  21  22
DOCKED: ATOM     22  P   UNL d   1     -12.808   6.287  -1.586 -0.23 +0.15    +0.473 P 
DOCKED: ATOM     23  O   UNL d   1     -12.061   7.572  -1.703 -0.36 -0.02    -0.228 OA
DOCKED: BRANCH  22  24
DOCKED: ATOM     24  O   UNL d   1     -13.904   6.255  -0.432 -0.23 -0.18    -0.303 OA
DOCKED: ATOM     25  H   UNL d   1     -14.353   7.138  -0.409 +0.09 +0.08    +0.222 HD
DOCKED: ENDBRANCH  22  24
DOCKED: BRANCH  22  26
DOCKED: ATOM     26  O   UNL d   1     -11.928   4.991  -1.241 -0.17 -0.13    -0.303 OA
DOCKED: ATOM     27  H   UNL d   1     -11.306   4.821  -1.977 +0.10 +0.05    +0.222 HD
DOCKED: ENDBRANCH  22  26
DOCKED: ENDBRANCH  21  22
DOCKED: ENDBRANCH   6  21
DOCKED: BRANCH   3  28
DOCKED: ATOM     28  O   UNL d   1     -14.860  10.454  -5.505 -0.07 +0.00    -0.278 OA
DOCKED: BRANCH  28  29
DOCKED: ATOM     29  P   UNL d   1     -14.746  12.025  -5.264 -0.06 -0.01    +0.473 P 
DOCKED: ATOM     30  O   UNL d   1     -13.365  12.552  -5.122 -0.18 +0.02    -0.228 OA
DOCKED: BRANCH  29  31
DOCKED: ATOM     31  O   UNL d   1     -15.605  12.560  -6.504 -0.01 +0.01    -0.303 OA
DOCKED: ATOM     32  H   UNL d   1     -16.280  11.881  -6.735 +0.01 -0.00    +0.222 HD
DOCKED: ENDBRANCH  29  31
DOCKED: BRANCH  29  33
DOCKED: ATOM     33  O   UNL d   1     -15.731  12.246  -4.033 -0.07 +0.01    -0.303 OA
DOCKED: ATOM     34  H   UNL d   1     -16.645  11.978  -4.300 +0.03 -0.00    +0.222 HD
DOCKED: ENDBRANCH  29  33
DOCKED: ENDBRANCH  28  29
DOCKED: ENDBRANCH   3  28
DOCKED: BRANCH   5  35
DOCKED: ATOM     35  O   UNL d   1     -13.251   6.114  -5.721 -0.02 +0.03    -0.278 OA
DOCKED: BRANCH  35  36
DOCKED: ATOM     36  P   UNL d   1     -12.470   4.759  -5.407 -0.01 -0.10    +0.473 P 
DOCKED: ATOM     37  O   UNL d   1     -13.323   3.538  -5.275 -0.02 -0.00    -0.228 OA
DOCKED: BRANCH  36  38
DOCKED: ATOM     38  O   UNL d   1     -11.423   4.700  -6.606 -0.07 +0.28    -0.303 OA
DOCKED: ATOM     39  H   UNL d   1     -10.560   5.048  -6.296 -0.42 -0.34    +0.222 HD
DOCKED: ENDBRANCH  36  38
DOCKED: BRANCH  36  40
DOCKED: ATOM     40  O   UNL d   1     -11.586   5.161  -4.147 -0.06 +0.04    -0.303 OA
DOCKED: ATOM     41  H   UNL d   1     -12.001   4.872  -3.304 +0.08 +0.02    +0.222 HD
DOCKED: ENDBRANCH  36  40
DOCKED: ENDBRANCH  35  36
DOCKED: ENDBRANCH   5  35
DOCKED: BRANCH   4  42
DOCKED: ATOM     42  O   UNL d   1     -12.531   8.901  -6.173 -0.08 +0.03    -0.278 OA
DOCKED: BRANCH  42  43
DOCKED: ATOM     43  P   UNL d   1     -11.105   8.630  -5.511 -0.19 -0.10    +0.473 P 
DOCKED: ATOM     44  O   UNL d   1     -11.029   8.618  -4.024 -0.23 +0.04    -0.228 OA
DOCKED: BRANCH  43  45
DOCKED: ATOM     45  O   UNL d   1     -10.656   7.265  -6.196 -0.15 +0.13    -0.303 OA
DOCKED: ATOM     46  H   UNL d   1     -11.103   6.496  -5.789 +0.08 -0.10    +0.222 HD
DOCKED: ENDBRANCH  43  45
DOCKED: BRANCH  43  47
DOCKED: ATOM     47  O   UNL d   1     -10.153   9.690  -6.244 -0.26 +0.06    -0.303 OA
DOCKED: ATOM     48  H   UNL d   1     -10.172  10.537  -5.751 -0.30 -0.07    +0.222 HD
DOCKED: ENDBRANCH  43  47
DOCKED: ENDBRANCH  42  43
DOCKED: ENDBRANCH   4  42
DOCKED: TORSDOF 24
DOCKED: TER
DOCKED: ENDMDL
________________________________________________________________________________


	BEGINNING GENETIC ALGORITHM DOCKING 22 of 100
Run: 22 Seed: 1065128875 1517969004 [ Run 22 of 100 GA/GALS ]
Beginning LAMARCKIAN GENETIC ALGORITHM (LGA), with a maximum of 25000000 energy evaluations.

Final-Value: -19.101


	FINAL GENETIC ALGORITHM DOCKED STATE
	_______________________________________________


Detailed state:  trans 3.847 17.961 -5.202 quatxyzw -0.690797 -0.311272 -0.038019 -0.651509 center 0.035 0.082 -0.065 ntor 24 -125.5122 37.6633 64.2785 154.2602 3.1709 -179.9942 16.8299 176.3074 152.6968 124.7173 32.5423 -123.9448 -154.5311 79.4691 173.3170 -76.5592 80.3596 -78.7075 58.3614 14.4668 178.1265 15.0967 14.7592 179.9533
State:	  3.847  17.961  -5.202  -0.911 -0.410 -0.050 -98.689   -125.51   37.66   64.28  154.26    3.17 -179.99   16.83  176.31  152.70  124.72   32.54 -123.94 -154.53   79.47  173.32  -76.56   80.36  -78.71   58.36   14.47  178.13   15.10   14.76  179.95

DOCKED: MODEL       22
DOCKED: USER    Run = 22
DOCKED: USER    DPF = D:/Protein_go_brrr/autodock/final/AncMH_nat/IHP/dock.dpf
DOCKED: USER  
DOCKED: USER    Estimated Free Energy of Binding    =   +0.68 kcal/mol  [=(1)+(2)+(3)-(4)]
DOCKED: USER    
DOCKED: USER    (1) Final Intermolecular Energy     =   -6.48 kcal/mol
DOCKED: USER        vdW + Hbond + desolv Energy     =   -6.06 kcal/mol
DOCKED: USER        Electrostatic Energy            =   -0.42 kcal/mol
DOCKED: USER    (2) Final Total Internal Energy     =  -12.62 kcal/mol
DOCKED: USER    (3) Torsional Free Energy           =   +7.16 kcal/mol
DOCKED: USER    (4) Unbound System's Energy  [=(2)] =  -12.62 kcal/mol
DOCKED: USER    
DOCKED: USER    
DOCKED: USER    NEWDPF move IHP_ideal_opt.pdbqt
DOCKED: USER    NEWDPF about 0.035000 0.082000 -0.065000
DOCKED: USER    NEWDPF tran0 3.846816 17.961099 -5.202462
DOCKED: USER    NEWDPF quaternion0 -0.690797 -0.311272 -0.038019 -0.651509
DOCKED: USER    NEWDPF axisangle0 -0.910572 -0.410301 -0.050115 -98.689110
DOCKED: USER    NEWDPF quat0 -0.910572 -0.410301 -0.050115 -98.689110
DOCKED: USER    NEWDPF dihe0 -125.51 37.66 64.28 154.26 3.17 -179.99 16.83 176.31 152.70 124.72 32.54 -123.94 -154.53 79.47 173.32 -76.56 80.36 -78.71 58.36 14.47 178.13 15.10 14.76 179.95 
DOCKED: USER  keepresnum = 1 
DOCKED: USER  
DOCKED: REMARK  24 active torsions:
DOCKED: REMARK  status: ('A' for Active; 'I' for Inactive)
DOCKED: REMARK    1  A    between atoms: C_1  and  O_7 
DOCKED: REMARK    2  A    between atoms: C_2  and  O_12 
DOCKED: REMARK    3  A    between atoms: C_3  and  O_17 
DOCKED: REMARK    4  A    between atoms: C_4  and  O_22 
DOCKED: REMARK    5  A    between atoms: C_5  and  O_27 
DOCKED: REMARK    6  A    between atoms: C_6  and  O_32 
DOCKED: REMARK    7  A    between atoms: O_7  and  P_8 
DOCKED: REMARK    8  A    between atoms: P_8  and  O_10 
DOCKED: REMARK    9  A    between atoms: P_8  and  O_11 
DOCKED: REMARK   10  A    between atoms: O_12  and  P_13 
DOCKED: REMARK   11  A    between atoms: P_13  and  O_15 
DOCKED: REMARK   12  A    between atoms: P_13  and  O_16 
DOCKED: REMARK   13  A    between atoms: O_17  and  P_18 
DOCKED: REMARK   14  A    between atoms: P_18  and  O_20 
DOCKED: REMARK   15  A    between atoms: P_18  and  O_21 
DOCKED: REMARK   16  A    between atoms: O_22  and  P_23 
DOCKED: REMARK   17  A    between atoms: P_23  and  O_25 
DOCKED: REMARK   18  A    between atoms: P_23  and  O_26 
DOCKED: REMARK   19  A    between atoms: O_27  and  P_28 
DOCKED: REMARK   20  A    between atoms: P_28  and  O_30 
DOCKED: REMARK   21  A    between atoms: P_28  and  O_31 
DOCKED: REMARK   22  A    between atoms: O_32  and  P_33 
DOCKED: REMARK   23  A    between atoms: P_33  and  O_35 
DOCKED: REMARK   24  A    between atoms: P_33  and  O_36 
DOCKED: USER                              x       y       z     vdW  Elec       q    Type
DOCKED: USER                           _______ _______ _______ _____ _____    ______ ____
DOCKED: ROOT
DOCKED: ATOM      1  C   UNL d   1       4.148  19.131  -3.967 -0.10 +0.02    +0.194 C 
DOCKED: ATOM      2  C   UNL d   1       2.890  18.281  -3.780 -0.10 +0.01    +0.194 C 
DOCKED: ATOM      3  C   UNL d   1       2.117  18.117  -5.090 -0.08 -0.00    +0.194 C 
DOCKED: ATOM      4  C   UNL d   1       2.984  17.617  -6.242 -0.13 -0.00    +0.194 C 
DOCKED: ATOM      5  C   UNL d   1       4.304  18.363  -6.394 -0.09 +0.01    +0.194 C 
DOCKED: ATOM      6  C   UNL d   1       5.048  18.581  -5.075 -0.12 +0.03    +0.194 C 
DOCKED: ENDROOT
DOCKED: BRANCH   1   7
DOCKED: ATOM      7  O   UNL d   1       4.898  19.092  -2.751 -0.07 -0.06    -0.278 OA
DOCKED: BRANCH   7   8
DOCKED: ATOM      8  P   UNL d   1       4.247  19.725  -1.437 -0.19 +0.09    +0.473 P 
DOCKED: ATOM      9  O   UNL d   1       4.773  21.064  -1.055 -0.11 -0.05    -0.228 OA
DOCKED: BRANCH   8  10
DOCKED: ATOM     10  O   UNL d   1       2.682  19.729  -1.745 -0.08 -0.04    -0.303 OA
DOCKED: ATOM     11  H   UNL d   1       2.326  18.827  -1.641 +0.07 +0.03    +0.222 HD
DOCKED: ENDBRANCH   8  10
DOCKED: BRANCH   8  12
DOCKED: ATOM     12  O   UNL d   1       4.365  18.591  -0.330 -0.31 -0.07    -0.303 OA
DOCKED: ATOM     13  H   UNL d   1       4.685  17.733  -0.690 -0.15 -0.01    +0.222 HD
DOCKED: ENDBRANCH   8  12
DOCKED: ENDBRANCH   7   8
DOCKED: ENDBRANCH   1   7
DOCKED: BRANCH   2  14
DOCKED: ATOM     14  O   UNL d   1       3.271  16.982  -3.309 -0.19 -0.02    -0.278 OA
DOCKED: BRANCH  14  15
DOCKED: ATOM     15  P   UNL d   1       2.258  16.262  -2.298 -0.22 +0.02    +0.473 P 
DOCKED: ATOM     16  O   UNL d   1       1.963  14.818  -2.557 -0.20 -0.01    -0.228 OA
DOCKED: BRANCH  15  17
DOCKED: ATOM     17  O   UNL d   1       2.900  16.513  -0.862 -0.30 +0.01    -0.303 OA
DOCKED: ATOM     18  H   UNL d   1       3.874  16.555  -0.914 -0.37 -0.08    +0.222 HD
DOCKED: ENDBRANCH  15  17
DOCKED: BRANCH  15  19
DOCKED: ATOM     19  O   UNL d   1       0.991  17.223  -2.255 -0.17 -0.02    -0.303 OA
DOCKED: ATOM     20  H   UNL d   1       0.305  16.944  -2.889 +0.12 +0.02    +0.222 HD
DOCKED: ENDBRANCH  15  19
DOCKED: ENDBRANCH  14  15
DOCKED: ENDBRANCH   2  14
DOCKED: BRANCH   6  21
DOCKED: ATOM     21  O   UNL d   1       6.051  19.563  -5.325 -0.08 -0.03    -0.278 OA
DOCKED: BRANCH  21  22
DOCKED: ATOM     22  P   UNL d   1       5.640  21.099  -5.459 -0.01 +0.02    +0.473 P 
DOCKED: ATOM     23  O   UNL d   1       6.546  22.007  -6.220 -0.01 -0.00    -0.228 OA
DOCKED: BRANCH  22  24
DOCKED: ATOM     24  O   UNL d   1       4.162  20.990  -6.041 -0.00 -0.00    -0.303 OA
DOCKED: ATOM     25  H   UNL d   1       4.212  20.556  -6.930 +0.03 -0.00    +0.222 HD
DOCKED: ENDBRANCH  22  24
DOCKED: BRANCH  22  26
DOCKED: ATOM     26  O   UNL d   1       5.366  21.497  -3.931 -0.02 -0.02    -0.303 OA
DOCKED: ATOM     27  H   UNL d   1       5.612  20.746  -3.353 +0.04 +0.03    +0.222 HD
DOCKED: ENDBRANCH  22  26
DOCKED: ENDBRANCH  21  22
DOCKED: ENDBRANCH   6  21
DOCKED: BRANCH   3  28
DOCKED: ATOM     28  O   UNL d   1       1.140  17.104  -4.886 -0.13 +0.00    -0.278 OA
DOCKED: BRANCH  28  29
DOCKED: ATOM     29  P   UNL d   1      -0.396  17.394  -5.193 -0.22 +0.01    +0.473 P 
DOCKED: ATOM     30  O   UNL d   1      -1.249  17.650  -4.004 -0.31 -0.04    -0.228 OA
DOCKED: BRANCH  29  31
DOCKED: ATOM     31  O   UNL d   1      -0.249  18.586  -6.251 -0.12 +0.04    -0.303 OA
DOCKED: ATOM     32  H   UNL d   1       0.141  18.224  -7.079 -0.18 -0.07    +0.222 HD
DOCKED: ENDBRANCH  29  31
DOCKED: BRANCH  29  33
DOCKED: ATOM     33  O   UNL d   1      -0.793  16.156  -6.111 -0.51 -0.04    -0.303 OA
DOCKED: ATOM     34  H   UNL d   1      -1.168  16.493  -6.961 -0.04 -0.03    +0.222 HD
DOCKED: ENDBRANCH  29  33
DOCKED: ENDBRANCH  28  29
DOCKED: ENDBRANCH   3  28
DOCKED: BRANCH   5  35
DOCKED: ATOM     35  O   UNL d   1       5.127  17.531  -7.209 -0.20 -0.05    -0.278 OA
DOCKED: BRANCH  35  36
DOCKED: ATOM     36  P   UNL d   1       6.152  18.180  -8.245 -0.08 +0.08    +0.473 P 
DOCKED: ATOM     37  O   UNL d   1       7.577  17.751  -8.097 -0.21 +0.01    -0.228 OA
DOCKED: BRANCH  36  38
DOCKED: ATOM     38  O   UNL d   1       5.493  17.792  -9.641 -0.58 -0.20    -0.303 OA
DOCKED: ATOM     39  H   UNL d   1       4.788  18.440  -9.855 +0.06 +0.03    +0.222 HD
DOCKED: ENDBRANCH  36  38
DOCKED: BRANCH  36  40
DOCKED: ATOM     40  O   UNL d   1       5.847  19.734  -8.096 -0.01 -0.00    -0.303 OA
DOCKED: ATOM     41  H   UNL d   1       6.324  20.127  -7.332 +0.04 +0.00    +0.222 HD
DOCKED: ENDBRANCH  36  40
DOCKED: ENDBRANCH  35  36
DOCKED: ENDBRANCH   5  35
DOCKED: BRANCH   4  42
DOCKED: ATOM     42  O   UNL d   1       2.239  17.831  -7.445 -0.15 +0.03    -0.278 OA
DOCKED: BRANCH  42  43
DOCKED: ATOM     43  P   UNL d   1       1.986  19.326  -7.941 -0.04 -0.06    +0.473 P 
DOCKED: ATOM     44  O   UNL d   1       1.830  20.378  -6.898 -0.02 +0.01    -0.228 OA
DOCKED: BRANCH  43  45
DOCKED: ATOM     45  O   UNL d   1       3.200  19.573  -8.939 -0.03 +0.03    -0.303 OA
DOCKED: ATOM     46  H   UNL d   1       4.032  19.192  -8.592 +0.05 -0.00    +0.222 HD
DOCKED: ENDBRANCH  43  45
DOCKED: BRANCH  43  47
DOCKED: ATOM     47  O   UNL d   1       0.755  19.172  -8.957 -0.06 +0.10    -0.303 OA
DOCKED: ATOM     48  H   UNL d   1       0.013  18.726  -8.499 -0.48 -0.13    +0.222 HD
DOCKED: ENDBRANCH  43  47
DOCKED: ENDBRANCH  42  43
DOCKED: ENDBRANCH   4  42
DOCKED: TORSDOF 24
DOCKED: TER
DOCKED: ENDMDL
________________________________________________________________________________


	BEGINNING GENETIC ALGORITHM DOCKING 23 of 100
Run: 23 Seed: 757027590 81808029 [ Run 23 of 100 GA/GALS ]
Beginning LAMARCKIAN GENETIC ALGORITHM (LGA), with a maximum of 25000000 energy evaluations.

Final-Value: -16.117


	FINAL GENETIC ALGORITHM DOCKED STATE
	_______________________________________________


Detailed state:  trans -8.795 17.299 -13.488 quatxyzw -0.160758 -0.480430 -0.782685 0.361591 center 0.035 0.082 -0.065 ntor 24 92.5533 83.2385 12.7754 14.9778 -15.2157 164.3726 17.8972 -104.2973 26.2994 27.9904 -179.8963 -154.7676 -54.7434 -179.9911 -166.9485 108.9771 155.1778 -0.1798 2.3367 -38.9870 -38.4637 -39.5609 -8.9331 -12.5142
State:	 -8.795  17.299 -13.488  -0.172 -0.515 -0.839 137.604     92.55   83.24   12.78   14.98  -15.22  164.37   17.90 -104.30   26.30   27.99 -179.90 -154.77  -54.74 -179.99 -166.95  108.98  155.18   -0.18    2.34  -38.99  -38.46  -39.56   -8.93  -12.51

DOCKED: MODEL       23
DOCKED: USER    Run = 23
DOCKED: USER    DPF = D:/Protein_go_brrr/autodock/final/AncMH_nat/IHP/dock.dpf
DOCKED: USER  
DOCKED: USER    Estimated Free Energy of Binding    =   +5.12 kcal/mol  [=(1)+(2)+(3)-(4)]
DOCKED: USER    
DOCKED: USER    (1) Final Intermolecular Energy     =   -2.03 kcal/mol
DOCKED: USER        vdW + Hbond + desolv Energy     =   -1.95 kcal/mol
DOCKED: USER        Electrostatic Energy            =   -0.09 kcal/mol
DOCKED: USER    (2) Final Total Internal Energy     =  -14.08 kcal/mol
DOCKED: USER    (3) Torsional Free Energy           =   +7.16 kcal/mol
DOCKED: USER    (4) Unbound System's Energy  [=(2)] =  -14.08 kcal/mol
DOCKED: USER    
DOCKED: USER    
DOCKED: USER    NEWDPF move IHP_ideal_opt.pdbqt
DOCKED: USER    NEWDPF about 0.035000 0.082000 -0.065000
DOCKED: USER    NEWDPF tran0 -8.794552 17.298963 -13.488016
DOCKED: USER    NEWDPF quaternion0 -0.160758 -0.480430 -0.782685 0.361591
DOCKED: USER    NEWDPF axisangle0 -0.172425 -0.515296 -0.839488 137.604151
DOCKED: USER    NEWDPF quat0 -0.172425 -0.515296 -0.839488 137.604151
DOCKED: USER    NEWDPF dihe0 92.55 83.24 12.78 14.98 -15.22 164.37 17.90 -104.30 26.30 27.99 -179.90 -154.77 -54.74 -179.99 -166.95 108.98 155.18 -0.18 2.34 -38.99 -38.46 -39.56 -8.93 -12.51 
DOCKED: USER  keepresnum = 1 
DOCKED: USER  
DOCKED: REMARK  24 active torsions:
DOCKED: REMARK  status: ('A' for Active; 'I' for Inactive)
DOCKED: REMARK    1  A    between atoms: C_1  and  O_7 
DOCKED: REMARK    2  A    between atoms: C_2  and  O_12 
DOCKED: REMARK    3  A    between atoms: C_3  and  O_17 
DOCKED: REMARK    4  A    between atoms: C_4  and  O_22 
DOCKED: REMARK    5  A    between atoms: C_5  and  O_27 
DOCKED: REMARK    6  A    between atoms: C_6  and  O_32 
DOCKED: REMARK    7  A    between atoms: O_7  and  P_8 
DOCKED: REMARK    8  A    between atoms: P_8  and  O_10 
DOCKED: REMARK    9  A    between atoms: P_8  and  O_11 
DOCKED: REMARK   10  A    between atoms: O_12  and  P_13 
DOCKED: REMARK   11  A    between atoms: P_13  and  O_15 
DOCKED: REMARK   12  A    between atoms: P_13  and  O_16 
DOCKED: REMARK   13  A    between atoms: O_17  and  P_18 
DOCKED: REMARK   14  A    between atoms: P_18  and  O_20 
DOCKED: REMARK   15  A    between atoms: P_18  and  O_21 
DOCKED: REMARK   16  A    between atoms: O_22  and  P_23 
DOCKED: REMARK   17  A    between atoms: P_23  and  O_25 
DOCKED: REMARK   18  A    between atoms: P_23  and  O_26 
DOCKED: REMARK   19  A    between atoms: O_27  and  P_28 
DOCKED: REMARK   20  A    between atoms: P_28  and  O_30 
DOCKED: REMARK   21  A    between atoms: P_28  and  O_31 
DOCKED: REMARK   22  A    between atoms: O_32  and  P_33 
DOCKED: REMARK   23  A    between atoms: P_33  and  O_35 
DOCKED: REMARK   24  A    between atoms: P_33  and  O_36 
DOCKED: USER                              x       y       z     vdW  Elec       q    Type
DOCKED: USER                           _______ _______ _______ _____ _____    ______ ____
DOCKED: ROOT
DOCKED: ATOM      1  C   UNL d   1      -8.816  18.951 -13.994 +0.00 -0.00    +0.194 C 
DOCKED: ATOM      2  C   UNL d   1      -7.849  18.039 -14.752 +0.00 -0.00    +0.194 C 
DOCKED: ATOM      3  C   UNL d   1      -7.095  17.102 -13.807 -0.03 +0.00    +0.194 C 
DOCKED: ATOM      4  C   UNL d   1      -8.016  16.318 -12.875 -0.05 +0.01    +0.194 C 
DOCKED: ATOM      5  C   UNL d   1      -9.072  17.172 -12.185 -0.04 +0.00    +0.194 C 
DOCKED: ATOM      6  C   UNL d   1      -9.783  18.153 -13.119 -0.00 -0.00    +0.194 C 
DOCKED: ENDROOT
DOCKED: BRANCH   1   7
DOCKED: ATOM      7  O   UNL d   1      -9.599  19.666 -14.953 +0.00 +0.01    -0.278 OA
DOCKED: BRANCH   7   8
DOCKED: ATOM      8  P   UNL d   1      -9.531  21.262 -14.950 +0.00 -0.01    +0.473 P 
DOCKED: ATOM      9  O   UNL d   1      -8.690  21.855 -13.875 +0.00 +0.00    -0.228 OA
DOCKED: BRANCH   8  10
DOCKED: ATOM     10  O   UNL d   1      -9.025  21.630 -16.418 +0.00 +0.01    -0.303 OA
DOCKED: ATOM     11  H   UNL d   1      -8.116  21.297 -16.543 +0.00 -0.01    +0.222 HD
DOCKED: ENDBRANCH   8  10
DOCKED: BRANCH   8  12
DOCKED: ATOM     12  O   UNL d   1     -11.045  21.740 -14.990 +0.00 +0.01    -0.303 OA
DOCKED: ATOM     13  H   UNL d   1     -11.642  21.176 -14.449 +0.00 -0.00    +0.222 HD
DOCKED: ENDBRANCH   8  12
DOCKED: ENDBRANCH   7   8
DOCKED: ENDBRANCH   1   7
DOCKED: BRANCH   2  14
DOCKED: ATOM     14  O   UNL d   1      -8.591  17.245 -15.687 +0.00 +0.01    -0.278 OA
DOCKED: BRANCH  14  15
DOCKED: ATOM     15  P   UNL d   1      -8.734  17.832 -17.169 +0.00 -0.02    +0.473 P 
DOCKED: ATOM     16  O   UNL d   1     -10.126  17.990 -17.698 +0.00 +0.01    -0.228 OA
DOCKED: BRANCH  15  17
DOCKED: ATOM     17  O   UNL d   1      -7.933  19.209 -17.121 +0.00 +0.01    -0.303 OA
DOCKED: ATOM     18  H   UNL d   1      -8.488  19.926 -16.759 +0.00 -0.01    +0.222 HD
DOCKED: ENDBRANCH  15  17
DOCKED: BRANCH  15  19
DOCKED: ATOM     19  O   UNL d   1      -7.764  16.929 -18.049 +0.00 +0.01    -0.303 OA
DOCKED: ATOM     20  H   UNL d   1      -6.904  16.792 -17.611 +0.00 -0.01    +0.222 HD
DOCKED: ENDBRANCH  15  19
DOCKED: ENDBRANCH  14  15
DOCKED: ENDBRANCH   2  14
DOCKED: BRANCH   6  21
DOCKED: ATOM     21  O   UNL d   1     -10.467  19.090 -12.290 +0.00 +0.00    -0.278 OA
DOCKED: BRANCH  21  22
DOCKED: ATOM     22  P   UNL d   1     -11.920  19.602 -12.704 +0.01 -0.00    +0.473 P 
DOCKED: ATOM     23  O   UNL d   1     -12.221  21.056 -12.564 +0.00 +0.00    -0.228 OA
DOCKED: BRANCH  22  24
DOCKED: ATOM     24  O   UNL d   1     -12.056  19.031 -14.183 +0.00 +0.00    -0.303 OA
DOCKED: ATOM     25  H   UNL d   1     -11.581  19.648 -14.797 +0.00 -0.00    +0.222 HD
DOCKED: ENDBRANCH  22  24
DOCKED: BRANCH  22  26
DOCKED: ATOM     26  O   UNL d   1     -12.864  18.605 -11.876 +0.00 +0.00    -0.303 OA
DOCKED: ATOM     27  H   UNL d   1     -12.318  17.890 -11.491 +0.01 +0.00    +0.222 HD
DOCKED: ENDBRANCH  22  26
DOCKED: ENDBRANCH  21  22
DOCKED: ENDBRANCH   6  21
DOCKED: BRANCH   3  28
DOCKED: ATOM     28  O   UNL d   1      -6.443  16.122 -14.605 -0.01 +0.01    -0.278 OA
DOCKED: BRANCH  28  29
DOCKED: ATOM     29  P   UNL d   1      -5.191  16.521 -15.505 +0.01 -0.03    +0.473 P 
DOCKED: ATOM     30  O   UNL d   1      -3.882  16.554 -14.803 -0.01 +0.02    -0.228 OA
DOCKED: BRANCH  29  31
DOCKED: ATOM     31  O   UNL d   1      -5.351  15.460 -16.692 +0.00 +0.02    -0.303 OA
DOCKED: ATOM     32  H   UNL d   1      -6.147  15.699 -17.222 +0.00 -0.01    +0.222 HD
DOCKED: ENDBRANCH  29  31
DOCKED: BRANCH  29  33
DOCKED: ATOM     33  O   UNL d   1      -5.681  17.878 -16.177 +0.00 +0.01    -0.303 OA
DOCKED: ATOM     34  H   UNL d   1      -6.609  17.760 -16.499 +0.00 -0.01    +0.222 HD
DOCKED: ENDBRANCH  29  33
DOCKED: ENDBRANCH  28  29
DOCKED: ENDBRANCH   3  28
DOCKED: BRANCH   5  35
DOCKED: ATOM     35  O   UNL d   1     -10.057  16.257 -11.707 -0.02 -0.00    -0.278 OA
DOCKED: BRANCH  35  36
DOCKED: ATOM     36  P   UNL d   1     -10.410  16.194 -10.153 -0.04 +0.01    +0.473 P 
DOCKED: ATOM     37  O   UNL d   1     -11.086  14.941  -9.696 -0.07 +0.00    -0.228 OA
DOCKED: BRANCH  36  38
DOCKED: ATOM     38  O   UNL d   1      -8.988  16.452  -9.485 -0.25 -0.05    -0.303 OA
DOCKED: ATOM     39  H   UNL d   1      -8.310  15.923  -9.958 +0.05 +0.02    +0.222 HD
DOCKED: ENDBRANCH  36  38
DOCKED: BRANCH  36  40
DOCKED: ATOM     40  O   UNL d   1     -11.193  17.560  -9.927 -0.01 -0.01    -0.303 OA
DOCKED: ATOM     41  H   UNL d   1     -11.081  18.174 -10.686 +0.02 +0.00    +0.222 HD
DOCKED: ENDBRANCH  36  40
DOCKED: ENDBRANCH  35  36
DOCKED: ENDBRANCH   5  35
DOCKED: BRANCH   4  42
DOCKED: ATOM     42  O   UNL d   1      -7.190  15.759 -11.849 -0.41 -0.06    -0.278 OA
DOCKED: BRANCH  42  43
DOCKED: ATOM     43  P   UNL d   1      -7.209  14.181 -11.617 -0.09 +0.01    +0.473 P 
DOCKED: ATOM     44  O   UNL d   1      -7.131  13.309 -12.823 -0.12 +0.01    -0.228 OA
DOCKED: BRANCH  43  45
DOCKED: ATOM     45  O   UNL d   1      -6.022  13.965 -10.580 -0.38 -0.02    -0.303 OA
DOCKED: ATOM     46  H   UNL d   1      -6.361  13.758  -9.686 -0.41 -0.06    +0.222 HD
DOCKED: ENDBRANCH  43  45
DOCKED: BRANCH  43  47
DOCKED: ATOM     47  O   UNL d   1      -8.497  13.963 -10.688 -0.17 +0.03    -0.303 OA
DOCKED: ATOM     48  H   UNL d   1      -9.121  14.707 -10.821 +0.05 -0.01    +0.222 HD
DOCKED: ENDBRANCH  43  47
DOCKED: ENDBRANCH  42  43
DOCKED: ENDBRANCH   4  42
DOCKED: TORSDOF 24
DOCKED: TER
DOCKED: ENDMDL
________________________________________________________________________________


	BEGINNING GENETIC ALGORITHM DOCKING 24 of 100
Run: 24 Seed: 2049527991 1911569420 [ Run 24 of 100 GA/GALS ]
Beginning LAMARCKIAN GENETIC ALGORITHM (LGA), with a maximum of 25000000 energy evaluations.

Final-Value: -19.256


	FINAL GENETIC ALGORITHM DOCKED STATE
	_______________________________________________


Detailed state:  trans -13.284 12.908 15.567 quatxyzw 0.108268 0.556687 0.661616 0.490553 center 0.035 0.082 -0.065 ntor 24 106.2494 100.8969 47.5030 109.2518 100.9804 73.6051 21.1110 -92.8614 40.9117 72.9697 78.0700 -115.1975 -77.1046 -74.9040 179.8368 103.6679 -66.4702 -93.8209 -144.3775 -32.0650 16.9812 -34.5734 -179.9439 -130.7996
State:	-13.284  12.908  15.567   0.124  0.639  0.759 121.246    106.25  100.90   47.50  109.25  100.98   73.61   21.11  -92.86   40.91   72.97   78.07 -115.20  -77.10  -74.90  179.84  103.67  -66.47  -93.82 -144.38  -32.06   16.98  -34.57 -179.94 -130.80

DOCKED: MODEL       24
DOCKED: USER    Run = 24
DOCKED: USER    DPF = D:/Protein_go_brrr/autodock/final/AncMH_nat/IHP/dock.dpf
DOCKED: USER  
DOCKED: USER    Estimated Free Energy of Binding    =   +1.88 kcal/mol  [=(1)+(2)+(3)-(4)]
DOCKED: USER    
DOCKED: USER    (1) Final Intermolecular Energy     =   -5.28 kcal/mol
DOCKED: USER        vdW + Hbond + desolv Energy     =   -4.97 kcal/mol
DOCKED: USER        Electrostatic Energy            =   -0.32 kcal/mol
DOCKED: USER    (2) Final Total Internal Energy     =  -13.97 kcal/mol
DOCKED: USER    (3) Torsional Free Energy           =   +7.16 kcal/mol
DOCKED: USER    (4) Unbound System's Energy  [=(2)] =  -13.97 kcal/mol
DOCKED: USER    
DOCKED: USER    
DOCKED: USER    NEWDPF move IHP_ideal_opt.pdbqt
DOCKED: USER    NEWDPF about 0.035000 0.082000 -0.065000
DOCKED: USER    NEWDPF tran0 -13.283796 12.908233 15.566501
DOCKED: USER    NEWDPF quaternion0 0.108268 0.556687 0.661616 0.490553
DOCKED: USER    NEWDPF axisangle0 0.124244 0.638833 0.759247 121.246100
DOCKED: USER    NEWDPF quat0 0.124244 0.638833 0.759247 121.246100
DOCKED: USER    NEWDPF dihe0 106.25 100.90 47.50 109.25 100.98 73.61 21.11 -92.86 40.91 72.97 78.07 -115.20 -77.10 -74.90 179.84 103.67 -66.47 -93.82 -144.38 -32.06 16.98 -34.57 -179.94 -130.80 
DOCKED: USER  keepresnum = 1 
DOCKED: USER  
DOCKED: REMARK  24 active torsions:
DOCKED: REMARK  status: ('A' for Active; 'I' for Inactive)
DOCKED: REMARK    1  A    between atoms: C_1  and  O_7 
DOCKED: REMARK    2  A    between atoms: C_2  and  O_12 
DOCKED: REMARK    3  A    between atoms: C_3  and  O_17 
DOCKED: REMARK    4  A    between atoms: C_4  and  O_22 
DOCKED: REMARK    5  A    between atoms: C_5  and  O_27 
DOCKED: REMARK    6  A    between atoms: C_6  and  O_32 
DOCKED: REMARK    7  A    between atoms: O_7  and  P_8 
DOCKED: REMARK    8  A    between atoms: P_8  and  O_10 
DOCKED: REMARK    9  A    between atoms: P_8  and  O_11 
DOCKED: REMARK   10  A    between atoms: O_12  and  P_13 
DOCKED: REMARK   11  A    between atoms: P_13  and  O_15 
DOCKED: REMARK   12  A    between atoms: P_13  and  O_16 
DOCKED: REMARK   13  A    between atoms: O_17  and  P_18 
DOCKED: REMARK   14  A    between atoms: P_18  and  O_20 
DOCKED: REMARK   15  A    between atoms: P_18  and  O_21 
DOCKED: REMARK   16  A    between atoms: O_22  and  P_23 
DOCKED: REMARK   17  A    between atoms: P_23  and  O_25 
DOCKED: REMARK   18  A    between atoms: P_23  and  O_26 
DOCKED: REMARK   19  A    between atoms: O_27  and  P_28 
DOCKED: REMARK   20  A    between atoms: P_28  and  O_30 
DOCKED: REMARK   21  A    between atoms: P_28  and  O_31 
DOCKED: REMARK   22  A    between atoms: O_32  and  P_33 
DOCKED: REMARK   23  A    between atoms: P_33  and  O_35 
DOCKED: REMARK   24  A    between atoms: P_33  and  O_36 
DOCKED: USER                              x       y       z     vdW  Elec       q    Type
DOCKED: USER                           _______ _______ _______ _____ _____    ______ ____
DOCKED: ROOT
DOCKED: ATOM      1  C   UNL d   1     -14.907  12.823  16.153 -0.01 -0.00    +0.194 C 
DOCKED: ATOM      2  C   UNL d   1     -14.759  13.090  14.654 -0.04 -0.02    +0.194 C 
DOCKED: ATOM      3  C   UNL d   1     -13.657  14.113  14.367 -0.10 -0.06    +0.194 C 
DOCKED: ATOM      4  C   UNL d   1     -12.325  13.763  15.025 -0.15 -0.07    +0.194 C 
DOCKED: ATOM      5  C   UNL d   1     -12.441  13.378  16.494 -0.06 -0.04    +0.194 C 
DOCKED: ATOM      6  C   UNL d   1     -13.582  12.402  16.790 -0.02 -0.01    +0.194 C 
DOCKED: ENDROOT
DOCKED: BRANCH   1   7
DOCKED: ATOM      7  O   UNL d   1     -15.825  11.741  16.324 -0.02 -0.04    -0.278 OA
DOCKED: BRANCH   7   8
DOCKED: ATOM      8  P   UNL d   1     -15.239  10.258  16.432 -0.06 +0.14    +0.473 P 
DOCKED: ATOM      9  O   UNL d   1     -13.918  10.052  15.778 -0.09 -0.03    -0.228 OA
DOCKED: BRANCH   8  10
DOCKED: ATOM     10  O   UNL d   1     -15.216   9.965  18.001 -0.02 -0.07    -0.303 OA
DOCKED: ATOM     11  H   UNL d   1     -14.757  10.691  18.462 +0.01 +0.02    +0.222 HD
DOCKED: ENDBRANCH   8  10
DOCKED: BRANCH   8  12
DOCKED: ATOM     12  O   UNL d   1     -16.415   9.313  15.935 -0.35 -0.33    -0.303 OA
DOCKED: ATOM     13  H   UNL d   1     -16.739   9.542  15.034 +0.04 +0.26    +0.222 HD
DOCKED: ENDBRANCH   8  12
DOCKED: ENDBRANCH   7   8
DOCKED: ENDBRANCH   1   7
DOCKED: BRANCH   2  14
DOCKED: ATOM     14  O   UNL d   1     -14.426  11.864  13.991 -0.08 +0.02    -0.278 OA
DOCKED: BRANCH  14  15
DOCKED: ATOM     15  P   UNL d   1     -15.629  11.092  13.268 -0.19 +0.03    +0.473 P 
DOCKED: ATOM     16  O   UNL d   1     -17.015  11.447  13.707 -0.11 -0.06    -0.228 OA
DOCKED: BRANCH  15  17
DOCKED: ATOM     17  O   UNL d   1     -15.385  11.361  11.717 -0.08 +0.08    -0.303 OA
DOCKED: ATOM     18  H   UNL d   1     -15.220  12.308  11.546 -0.47 -0.11    +0.222 HD
DOCKED: ENDBRANCH  15  17
DOCKED: BRANCH  15  19
DOCKED: ATOM     19  O   UNL d   1     -15.244   9.554  13.391 -0.27 -0.06    -0.303 OA
DOCKED: ATOM     20  H   UNL d   1     -15.001   9.314  14.304 +0.08 +0.08    +0.222 HD
DOCKED: ENDBRANCH  15  19
DOCKED: ENDBRANCH  14  15
DOCKED: ENDBRANCH   2  14
DOCKED: BRANCH   6  21
DOCKED: ATOM     21  O   UNL d   1     -13.776  12.411  18.203 -0.00 +0.01    -0.278 OA
DOCKED: BRANCH  21  22
DOCKED: ATOM     22  P   UNL d   1     -12.889  11.464  19.130 +0.00 -0.02    +0.473 P 
DOCKED: ATOM     23  O   UNL d   1     -13.485  10.963  20.402 +0.00 +0.00    -0.228 OA
DOCKED: BRANCH  22  24
DOCKED: ATOM     24  O   UNL d   1     -12.448  10.327  18.107 -0.01 +0.01    -0.303 OA
DOCKED: ATOM     25  H   UNL d   1     -12.318  10.746  17.218 +0.04 -0.01    +0.222 HD
DOCKED: ENDBRANCH  22  24
DOCKED: BRANCH  22  26
DOCKED: ATOM     26  O   UNL d   1     -11.541  12.320  19.275 -0.00 +0.03    -0.303 OA
DOCKED: ATOM     27  H   UNL d   1     -10.866  11.964  18.662 +0.02 -0.03    +0.222 HD
DOCKED: ENDBRANCH  22  26
DOCKED: ENDBRANCH  21  22
DOCKED: ENDBRANCH   6  21
DOCKED: BRANCH   3  28
DOCKED: ATOM     28  O   UNL d   1     -13.405  14.089  12.968 -0.17 +0.12    -0.278 OA
DOCKED: BRANCH  28  29
DOCKED: ATOM     29  P   UNL d   1     -14.418  14.786  11.955 -0.11 -0.23    +0.473 P 
DOCKED: ATOM     30  O   UNL d   1     -14.321  16.266  11.869 -0.11 +0.15    -0.228 OA
DOCKED: BRANCH  29  31
DOCKED: ATOM     31  O   UNL d   1     -14.096  13.958  10.624 -0.15 +0.20    -0.303 OA
DOCKED: ATOM     32  H   UNL d   1     -14.471  13.052  10.719 -0.40 -0.18    +0.222 HD
DOCKED: ENDBRANCH  29  31
DOCKED: BRANCH  29  33
DOCKED: ATOM     33  O   UNL d   1     -15.818  14.182  12.415 -0.06 +0.08    -0.303 OA
DOCKED: ATOM     34  H   UNL d   1     -15.680  13.255  12.729 +0.05 -0.05    +0.222 HD
DOCKED: ENDBRANCH  29  33
DOCKED: ENDBRANCH  28  29
DOCKED: ENDBRANCH   3  28
DOCKED: BRANCH   5  35
DOCKED: ATOM     35  O   UNL d   1     -11.223  12.709  16.816 -0.06 +0.06    -0.278 OA
DOCKED: BRANCH  35  36
DOCKED: ATOM     36  P   UNL d   1     -10.677  11.537  15.883 -0.12 -0.09    +0.473 P 
DOCKED: ATOM     37  O   UNL d   1     -11.703  10.865  15.026 -0.18 +0.03    -0.228 OA
DOCKED: BRANCH  36  38
DOCKED: ATOM     38  O   UNL d   1      -9.527  12.277  15.068 -0.17 +0.09    -0.303 OA
DOCKED: ATOM     39  H   UNL d   1      -9.755  13.228  14.983 -0.52 -0.16    +0.222 HD
DOCKED: ENDBRANCH  36  38
DOCKED: BRANCH  36  40
DOCKED: ATOM     40  O   UNL d   1      -9.887  10.621  16.915 -0.06 +0.06    -0.303 OA
DOCKED: ATOM     41  H   UNL d   1     -10.290  10.650  17.811 +0.04 -0.04    +0.222 HD
DOCKED: ENDBRANCH  36  40
DOCKED: ENDBRANCH  35  36
DOCKED: ENDBRANCH   5  35
DOCKED: BRANCH   4  42
DOCKED: ATOM     42  O   UNL d   1     -11.510  14.938  14.961 +0.05 +0.22    -0.278 OA
DOCKED: BRANCH  42  43
DOCKED: ATOM     43  P   UNL d   1     -11.026  15.616  16.321 -0.06 -0.29    +0.473 P 
DOCKED: ATOM     44  O   UNL d   1     -12.053  15.849  17.375 -0.04 +0.08    -0.228 OA
DOCKED: BRANCH  43  45
DOCKED: ATOM     45  O   UNL d   1      -9.829  14.672  16.776 -0.09 +0.14    -0.303 OA
DOCKED: ATOM     46  H   UNL d   1      -9.637  13.989  16.103 -0.33 -0.13    +0.222 HD
DOCKED: ENDBRANCH  43  45
DOCKED: BRANCH  43  47
DOCKED: ATOM     47  O   UNL d   1     -10.240  16.921  15.821 -0.18 +0.33    -0.303 OA
DOCKED: ATOM     48  H   UNL d   1     -10.867  17.520  15.365 -0.34 -0.42    +0.222 HD
DOCKED: ENDBRANCH  43  47
DOCKED: ENDBRANCH  42  43
DOCKED: ENDBRANCH   4  42
DOCKED: TORSDOF 24
DOCKED: TER
DOCKED: ENDMDL
________________________________________________________________________________


	BEGINNING GENETIC ALGORITHM DOCKING 25 of 100
Run: 25 Seed: 1537190145 1474918141 [ Run 25 of 100 GA/GALS ]
Beginning LAMARCKIAN GENETIC ALGORITHM (LGA), with a maximum of 25000000 energy evaluations.

Final-Value: -16.626


	FINAL GENETIC ALGORITHM DOCKED STATE
	_______________________________________________


Detailed state:  trans 3.700 -13.548 16.806 quatxyzw -0.263123 0.202394 0.636381 -0.696292 center 0.035 0.082 -0.065 ntor 24 -160.8657 -22.2080 53.4201 82.6031 104.0585 133.8118 10.7157 -126.8569 96.7671 -35.9853 -137.5990 164.6599 15.6949 117.5962 57.8901 -115.7171 -139.2783 -179.9587 -138.1212 -17.8298 -180.0000 17.4925 -11.3379 169.8871
State:	  3.700 -13.548  16.806  -0.367  0.282  0.887 -91.740   -160.87  -22.21   53.42   82.60  104.06  133.81   10.72 -126.86   96.77  -35.99 -137.60  164.66   15.69  117.60   57.89 -115.72 -139.28 -179.96 -138.12  -17.83 -180.00   17.49  -11.34  169.89

DOCKED: MODEL       25
DOCKED: USER    Run = 25
DOCKED: USER    DPF = D:/Protein_go_brrr/autodock/final/AncMH_nat/IHP/dock.dpf
DOCKED: USER  
DOCKED: USER    Estimated Free Energy of Binding    =   +3.93 kcal/mol  [=(1)+(2)+(3)-(4)]
DOCKED: USER    
DOCKED: USER    (1) Final Intermolecular Energy     =   -3.22 kcal/mol
DOCKED: USER        vdW + Hbond + desolv Energy     =   -3.16 kcal/mol
DOCKED: USER        Electrostatic Energy            =   -0.07 kcal/mol
DOCKED: USER    (2) Final Total Internal Energy     =  -13.40 kcal/mol
DOCKED: USER    (3) Torsional Free Energy           =   +7.16 kcal/mol
DOCKED: USER    (4) Unbound System's Energy  [=(2)] =  -13.40 kcal/mol
DOCKED: USER    
DOCKED: USER    
DOCKED: USER    NEWDPF move IHP_ideal_opt.pdbqt
DOCKED: USER    NEWDPF about 0.035000 0.082000 -0.065000
DOCKED: USER    NEWDPF tran0 3.699731 -13.548176 16.806129
DOCKED: USER    NEWDPF quaternion0 -0.263123 0.202394 0.636381 -0.696292
DOCKED: USER    NEWDPF axisangle0 -0.366590 0.281980 0.886622 -91.739548
DOCKED: USER    NEWDPF quat0 -0.366590 0.281980 0.886622 -91.739548
DOCKED: USER    NEWDPF dihe0 -160.87 -22.21 53.42 82.60 104.06 133.81 10.72 -126.86 96.77 -35.99 -137.60 164.66 15.69 117.60 57.89 -115.72 -139.28 -179.96 -138.12 -17.83 -180.00 17.49 -11.34 169.89 
DOCKED: USER  keepresnum = 1 
DOCKED: USER  
DOCKED: REMARK  24 active torsions:
DOCKED: REMARK  status: ('A' for Active; 'I' for Inactive)
DOCKED: REMARK    1  A    between atoms: C_1  and  O_7 
DOCKED: REMARK    2  A    between atoms: C_2  and  O_12 
DOCKED: REMARK    3  A    between atoms: C_3  and  O_17 
DOCKED: REMARK    4  A    between atoms: C_4  and  O_22 
DOCKED: REMARK    5  A    between atoms: C_5  and  O_27 
DOCKED: REMARK    6  A    between atoms: C_6  and  O_32 
DOCKED: REMARK    7  A    between atoms: O_7  and  P_8 
DOCKED: REMARK    8  A    between atoms: P_8  and  O_10 
DOCKED: REMARK    9  A    between atoms: P_8  and  O_11 
DOCKED: REMARK   10  A    between atoms: O_12  and  P_13 
DOCKED: REMARK   11  A    between atoms: P_13  and  O_15 
DOCKED: REMARK   12  A    between atoms: P_13  and  O_16 
DOCKED: REMARK   13  A    between atoms: O_17  and  P_18 
DOCKED: REMARK   14  A    between atoms: P_18  and  O_20 
DOCKED: REMARK   15  A    between atoms: P_18  and  O_21 
DOCKED: REMARK   16  A    between atoms: O_22  and  P_23 
DOCKED: REMARK   17  A    between atoms: P_23  and  O_25 
DOCKED: REMARK   18  A    between atoms: P_23  and  O_26 
DOCKED: REMARK   19  A    between atoms: O_27  and  P_28 
DOCKED: REMARK   20  A    between atoms: P_28  and  O_30 
DOCKED: REMARK   21  A    between atoms: P_28  and  O_31 
DOCKED: REMARK   22  A    between atoms: O_32  and  P_33 
DOCKED: REMARK   23  A    between atoms: P_33  and  O_35 
DOCKED: REMARK   24  A    between atoms: P_33  and  O_36 
DOCKED: USER                              x       y       z     vdW  Elec       q    Type
DOCKED: USER                           _______ _______ _______ _____ _____    ______ ____
DOCKED: ROOT
DOCKED: ATOM      1  C   UNL d   1       4.675 -12.123  16.747 -0.04 -0.04    +0.194 C 
DOCKED: ATOM      2  C   UNL d   1       5.358 -13.368  17.316 -0.01 -0.03    +0.194 C 
DOCKED: ATOM      3  C   UNL d   1       4.438 -14.132  18.271 -0.01 -0.03    +0.194 C 
DOCKED: ATOM      4  C   UNL d   1       3.072 -14.449  17.665 -0.02 -0.03    +0.194 C 
DOCKED: ATOM      5  C   UNL d   1       2.405 -13.261  16.984 -0.08 -0.04    +0.194 C 
DOCKED: ATOM      6  C   UNL d   1       3.342 -12.460  16.078 -0.12 -0.05    +0.194 C 
DOCKED: ENDROOT
DOCKED: BRANCH   1   7
DOCKED: ATOM      7  O   UNL d   1       5.527 -11.567  15.743 -0.04 +0.06    -0.278 OA
DOCKED: BRANCH   7   8
DOCKED: ATOM      8  P   UNL d   1       5.205 -11.888  14.211 -0.09 -0.13    +0.473 P 
DOCKED: ATOM      9  O   UNL d   1       3.943 -11.292  13.694 -0.28 +0.07    -0.228 OA
DOCKED: BRANCH   8  10
DOCKED: ATOM     10  O   UNL d   1       6.502 -11.386  13.430 -0.07 +0.11    -0.303 OA
DOCKED: ATOM     11  H   UNL d   1       7.302 -11.635  13.930 +0.03 -0.06    +0.222 HD
DOCKED: ENDBRANCH   8  10
DOCKED: BRANCH   8  12
DOCKED: ATOM     12  O   UNL d   1       5.330 -13.466  14.084 -0.03 +0.05    -0.303 OA
DOCKED: ATOM     13  H   UNL d   1       6.250 -13.791  14.204 +0.02 -0.04    +0.222 HD
DOCKED: ENDBRANCH   8  12
DOCKED: ENDBRANCH   7   8
DOCKED: ENDBRANCH   1   7
DOCKED: BRANCH   2  14
DOCKED: ATOM     14  O   UNL d   1       5.719 -14.238  16.236 -0.01 +0.04    -0.278 OA
DOCKED: BRANCH  14  15
DOCKED: ATOM     15  P   UNL d   1       7.286 -14.452  15.982 -0.00 -0.06    +0.473 P 
DOCKED: ATOM     16  O   UNL d   1       7.667 -15.479  14.963 -0.00 +0.03    -0.228 OA
DOCKED: BRANCH  15  17
DOCKED: ATOM     17  O   UNL d   1       7.822 -12.995  15.622 -0.00 +0.05    -0.303 OA
DOCKED: ATOM     18  H   UNL d   1       7.207 -12.533  15.020 +0.02 -0.04    +0.222 HD
DOCKED: ENDBRANCH  15  17
DOCKED: BRANCH  15  19
DOCKED: ATOM     19  O   UNL d   1       7.897 -14.667  17.435 +0.00 +0.03    -0.303 OA
DOCKED: ATOM     20  H   UNL d   1       7.223 -14.977  18.068 +0.00 -0.02    +0.222 HD
DOCKED: ENDBRANCH  15  19
DOCKED: ENDBRANCH  14  15
DOCKED: ENDBRANCH   2  14
DOCKED: BRANCH   6  21
DOCKED: ATOM     21  O   UNL d   1       2.689 -11.223  15.800 -0.14 +0.13    -0.278 OA
DOCKED: BRANCH  21  22
DOCKED: ATOM     22  P   UNL d   1       2.678 -10.069  16.901 -0.13 -0.20    +0.473 P 
DOCKED: ATOM     23  O   UNL d   1       3.816  -9.105  16.922 -0.17 +0.09    -0.228 OA
DOCKED: BRANCH  22  24
DOCKED: ATOM     24  O   UNL d   1       1.249  -9.409  16.667 -0.22 +0.20    -0.303 OA
DOCKED: ATOM     25  H   UNL d   1       0.606 -10.133  16.458 -0.43 -0.17    +0.222 HD
DOCKED: ENDBRANCH  22  24
DOCKED: BRANCH  22  26
DOCKED: ATOM     26  O   UNL d   1       2.440 -10.906  18.248 -0.06 +0.08    -0.303 OA
DOCKED: ATOM     27  H   UNL d   1       1.785 -11.612  18.076 +0.05 -0.06    +0.222 HD
DOCKED: ENDBRANCH  22  26
DOCKED: ENDBRANCH  21  22
DOCKED: ENDBRANCH   6  21
DOCKED: BRANCH   3  28
DOCKED: ATOM     28  O   UNL d   1       5.039 -15.395  18.526 -0.00 +0.03    -0.278 OA
DOCKED: BRANCH  28  29
DOCKED: ATOM     29  P   UNL d   1       5.258 -15.895  20.022 +0.00 -0.05    +0.473 P 
DOCKED: ATOM     30  O   UNL d   1       6.526 -16.625  20.275 +0.00 +0.02    -0.228 OA
DOCKED: BRANCH  29  31
DOCKED: ATOM     31  O   UNL d   1       5.043 -14.518  20.810 +0.00 +0.03    -0.303 OA
DOCKED: ATOM     32  H   UNL d   1       4.122 -14.206  20.653 +0.00 -0.02    +0.222 HD
DOCKED: ENDBRANCH  29  31
DOCKED: BRANCH  29  33
DOCKED: ATOM     33  O   UNL d   1       3.904 -16.681  20.313 +0.00 +0.03    -0.303 OA
DOCKED: ATOM     34  H   UNL d   1       3.157 -16.034  20.341 +0.00 -0.02    +0.222 HD
DOCKED: ENDBRANCH  29  33
DOCKED: ENDBRANCH  28  29
DOCKED: ENDBRANCH   3  28
DOCKED: BRANCH   5  35
DOCKED: ATOM     35  O   UNL d   1       1.386 -13.813  16.153 -0.10 +0.06    -0.278 OA
DOCKED: BRANCH  35  36
DOCKED: ATOM     36  P   UNL d   1      -0.143 -13.427  16.389 -0.10 -0.10    +0.473 P 
DOCKED: ATOM     37  O   UNL d   1      -0.923 -14.374  17.245 -0.04 +0.03    -0.228 OA
DOCKED: BRANCH  36  38
DOCKED: ATOM     38  O   UNL d   1      -0.019 -11.956  16.987 -0.17 +0.11    -0.303 OA
DOCKED: ATOM     39  H   UNL d   1       0.812 -11.546  16.662 -0.31 -0.12    +0.222 HD
DOCKED: ENDBRANCH  36  38
DOCKED: BRANCH  36  40
DOCKED: ATOM     40  O   UNL d   1      -0.668 -13.194  14.906 -0.20 +0.07    -0.303 OA
DOCKED: ATOM     41  H   UNL d   1      -0.384 -12.323  14.551 -0.44 -0.09    +0.222 HD
DOCKED: ENDBRANCH  36  40
DOCKED: ENDBRANCH  35  36
DOCKED: ENDBRANCH   5  35
DOCKED: BRANCH   4  42
DOCKED: ATOM     42  O   UNL d   1       2.222 -14.847  18.746 -0.00 +0.03    -0.278 OA
DOCKED: BRANCH  42  43
DOCKED: ATOM     43  P   UNL d   1       1.977 -13.830  19.950 -0.00 -0.06    +0.473 P 
DOCKED: ATOM     44  O   UNL d   1       2.072 -14.370  21.335 -0.00 +0.02    -0.228 OA
DOCKED: BRANCH  43  45
DOCKED: ATOM     45  O   UNL d   1       3.009 -12.661  19.634 -0.00 +0.05    -0.303 OA
DOCKED: ATOM     46  H   UNL d   1       2.680 -11.797  19.954 +0.02 -0.04    +0.222 HD
DOCKED: ENDBRANCH  43  45
DOCKED: BRANCH  43  47
DOCKED: ATOM     47  O   UNL d   1       0.580 -13.142  19.570 -0.01 +0.04    -0.303 OA
DOCKED: ATOM     48  H   UNL d   1       0.384 -13.310  18.625 +0.03 -0.03    +0.222 HD
DOCKED: ENDBRANCH  43  47
DOCKED: ENDBRANCH  42  43
DOCKED: ENDBRANCH   4  42
DOCKED: TORSDOF 24
DOCKED: TER
DOCKED: ENDMDL
________________________________________________________________________________


	BEGINNING GENETIC ALGORITHM DOCKING 26 of 100
Run: 26 Seed: 2091160425 417152242 [ Run 26 of 100 GA/GALS ]
Beginning LAMARCKIAN GENETIC ALGORITHM (LGA), with a maximum of 25000000 energy evaluations.

Final-Value: -20.999


	FINAL GENETIC ALGORITHM DOCKED STATE
	_______________________________________________


Detailed state:  trans -16.245 0.331 13.161 quatxyzw -0.855852 -0.347555 -0.381759 -0.031356 center 0.035 0.082 -0.065 ntor 24 108.1312 121.6629 50.9460 83.6241 95.4611 113.8010 24.2718 -68.5408 29.7288 61.9712 -4.9129 27.3975 -63.5983 140.6911 180.0000 90.5626 -32.8400 -124.1853 -154.5758 -14.7848 4.6619 -14.3047 176.6998 -38.2945
State:	-16.245   0.331  13.161  -0.856 -0.348 -0.382 -176.406    108.13  121.66   50.95   83.62   95.46  113.80   24.27  -68.54   29.73   61.97   -4.91   27.40  -63.60  140.69  180.00   90.56  -32.84 -124.19 -154.58  -14.78    4.66  -14.30  176.70  -38.29

DOCKED: MODEL       26
DOCKED: USER    Run = 26
DOCKED: USER    DPF = D:/Protein_go_brrr/autodock/final/AncMH_nat/IHP/dock.dpf
DOCKED: USER  
DOCKED: USER    Estimated Free Energy of Binding    =   +1.10 kcal/mol  [=(1)+(2)+(3)-(4)]
DOCKED: USER    
DOCKED: USER    (1) Final Intermolecular Energy     =   -6.06 kcal/mol
DOCKED: USER        vdW + Hbond + desolv Energy     =   -5.87 kcal/mol
DOCKED: USER        Electrostatic Energy            =   -0.20 kcal/mol
DOCKED: USER    (2) Final Total Internal Energy     =  -14.94 kcal/mol
DOCKED: USER    (3) Torsional Free Energy           =   +7.16 kcal/mol
DOCKED: USER    (4) Unbound System's Energy  [=(2)] =  -14.94 kcal/mol
DOCKED: USER    
DOCKED: USER    
DOCKED: USER    NEWDPF move IHP_ideal_opt.pdbqt
DOCKED: USER    NEWDPF about 0.035000 0.082000 -0.065000
DOCKED: USER    NEWDPF tran0 -16.245223 0.330845 13.161395
DOCKED: USER    NEWDPF quaternion0 -0.855852 -0.347555 -0.381759 -0.031356
DOCKED: USER    NEWDPF axisangle0 -0.856273 -0.347726 -0.381947 -176.406299
DOCKED: USER    NEWDPF quat0 -0.856273 -0.347726 -0.381947 -176.406299
DOCKED: USER    NEWDPF dihe0 108.13 121.66 50.95 83.62 95.46 113.80 24.27 -68.54 29.73 61.97 -4.91 27.40 -63.60 140.69 180.00 90.56 -32.84 -124.19 -154.58 -14.78 4.66 -14.30 176.70 -38.29 
DOCKED: USER  keepresnum = 1 
DOCKED: USER  
DOCKED: REMARK  24 active torsions:
DOCKED: REMARK  status: ('A' for Active; 'I' for Inactive)
DOCKED: REMARK    1  A    between atoms: C_1  and  O_7 
DOCKED: REMARK    2  A    between atoms: C_2  and  O_12 
DOCKED: REMARK    3  A    between atoms: C_3  and  O_17 
DOCKED: REMARK    4  A    between atoms: C_4  and  O_22 
DOCKED: REMARK    5  A    between atoms: C_5  and  O_27 
DOCKED: REMARK    6  A    between atoms: C_6  and  O_32 
DOCKED: REMARK    7  A    between atoms: O_7  and  P_8 
DOCKED: REMARK    8  A    between atoms: P_8  and  O_10 
DOCKED: REMARK    9  A    between atoms: P_8  and  O_11 
DOCKED: REMARK   10  A    between atoms: O_12  and  P_13 
DOCKED: REMARK   11  A    between atoms: P_13  and  O_15 
DOCKED: REMARK   12  A    between atoms: P_13  and  O_16 
DOCKED: REMARK   13  A    between atoms: O_17  and  P_18 
DOCKED: REMARK   14  A    between atoms: P_18  and  O_20 
DOCKED: REMARK   15  A    between atoms: P_18  and  O_21 
DOCKED: REMARK   16  A    between atoms: O_22  and  P_23 
DOCKED: REMARK   17  A    between atoms: P_23  and  O_25 
DOCKED: REMARK   18  A    between atoms: P_23  and  O_26 
DOCKED: REMARK   19  A    between atoms: O_27  and  P_28 
DOCKED: REMARK   20  A    between atoms: P_28  and  O_30 
DOCKED: REMARK   21  A    between atoms: P_28  and  O_31 
DOCKED: REMARK   22  A    between atoms: O_32  and  P_33 
DOCKED: REMARK   23  A    between atoms: P_33  and  O_35 
DOCKED: REMARK   24  A    between atoms: P_33  and  O_36 
DOCKED: USER                              x       y       z     vdW  Elec       q    Type
DOCKED: USER                           _______ _______ _______ _____ _____    ______ ____
DOCKED: ROOT
DOCKED: ATOM      1  C   UNL d   1     -15.710   1.970  13.261 -0.15 -0.01    +0.194 C 
DOCKED: ATOM      2  C   UNL d   1     -17.023   1.748  12.508 -0.23 +0.01    +0.194 C 
DOCKED: ATOM      3  C   UNL d   1     -16.947   0.533  11.581 -0.19 +0.02    +0.194 C 
DOCKED: ATOM      4  C   UNL d   1     -16.464  -0.732  12.286 -0.15 +0.02    +0.194 C 
DOCKED: ATOM      5  C   UNL d   1     -15.220  -0.530  13.142 -0.28 +0.01    +0.194 C 
DOCKED: ATOM      6  C   UNL d   1     -15.271   0.720  14.024 -0.23 +0.00    +0.194 C 
DOCKED: ENDROOT
DOCKED: BRANCH   1   7
DOCKED: ATOM      7  O   UNL d   1     -15.917   3.006  14.224 -0.23 -0.04    -0.278 OA
DOCKED: BRANCH   7   8
DOCKED: ATOM      8  P   UNL d   1     -16.573   2.617  15.628 -0.09 +0.12    +0.473 P 
DOCKED: ATOM      9  O   UNL d   1     -17.161   1.252  15.693 -0.04 -0.04    -0.228 OA
DOCKED: BRANCH   8  10
DOCKED: ATOM     10  O   UNL d   1     -15.396   2.845  16.680 -0.07 -0.05    -0.303 OA
DOCKED: ATOM     11  H   UNL d   1     -14.587   2.398  16.368 +0.08 +0.01    +0.222 HD
DOCKED: ENDBRANCH   8  10
DOCKED: BRANCH   8  12
DOCKED: ATOM     12  O   UNL d   1     -17.560   3.815  15.969 -0.13 -0.19    -0.303 OA
DOCKED: ATOM     13  H   UNL d   1     -18.396   3.784  15.451 +0.03 +0.16    +0.222 HD
DOCKED: ENDBRANCH   8  12
DOCKED: ENDBRANCH   7   8
DOCKED: ENDBRANCH   1   7
DOCKED: BRANCH   2  14
DOCKED: ATOM     14  O   UNL d   1     -18.075   1.532  13.458 -0.06 -0.05    -0.278 OA
DOCKED: BRANCH  14  15
DOCKED: ATOM     15  P   UNL d   1     -19.253   2.616  13.480 -0.06 +0.14    +0.473 P 
DOCKED: ATOM     16  O   UNL d   1     -20.141   2.619  14.685 -0.03 -0.08    -0.228 OA
DOCKED: BRANCH  15  17
DOCKED: ATOM     17  O   UNL d   1     -18.506   4.006  13.260 -0.18 -0.16    -0.303 OA
DOCKED: ATOM     18  H   UNL d   1     -17.705   4.066  13.816 +0.06 +0.14    +0.222 HD
DOCKED: ENDBRANCH  15  17
DOCKED: BRANCH  15  19
DOCKED: ATOM     19  O   UNL d   1     -19.992   2.426  12.084 -0.05 -0.07    -0.303 OA
DOCKED: ATOM     20  H   UNL d   1     -19.854   1.532  11.722 +0.05 +0.04    +0.222 HD
DOCKED: ENDBRANCH  15  19
DOCKED: ENDBRANCH  14  15
DOCKED: ENDBRANCH   2  14
DOCKED: BRANCH   6  21
DOCKED: ATOM     21  O   UNL d   1     -13.942   0.955  14.483 -0.27 +0.01    -0.278 OA
DOCKED: BRANCH  21  22
DOCKED: ATOM     22  P   UNL d   1     -13.504   0.448  15.931 -0.19 +0.00    +0.473 P 
DOCKED: ATOM     23  O   UNL d   1     -12.460   1.223  16.662 -0.25 +0.01    -0.228 OA
DOCKED: BRANCH  22  24
DOCKED: ATOM     24  O   UNL d   1     -14.905   0.346  16.678 -0.05 -0.02    -0.303 OA
DOCKED: ATOM     25  H   UNL d   1     -15.601   0.144  16.002 +0.07 +0.02    +0.222 HD
DOCKED: ENDBRANCH  22  24
DOCKED: BRANCH  22  26
DOCKED: ATOM     26  O   UNL d   1     -13.166  -1.093  15.648 -0.35 -0.01    -0.303 OA
DOCKED: ATOM     27  H   UNL d   1     -13.969  -1.542  15.312 -0.01 -0.01    +0.222 HD
DOCKED: ENDBRANCH  22  26
DOCKED: ENDBRANCH  21  22
DOCKED: ENDBRANCH   6  21
DOCKED: BRANCH   3  28
DOCKED: ATOM     28  O   UNL d   1     -18.269   0.242  11.147 -0.06 -0.05    -0.278 OA
DOCKED: BRANCH  28  29
DOCKED: ATOM     29  P   UNL d   1     -18.795   0.791   9.747 -0.10 +0.12    +0.473 P 
DOCKED: ATOM     30  O   UNL d   1     -18.098   0.258   8.548 -0.20 -0.09    -0.228 OA
DOCKED: BRANCH  29  31
DOCKED: ATOM     31  O   UNL d   1     -20.355   0.461   9.886 -0.02 -0.09    -0.303 OA
DOCKED: ATOM     32  H   UNL d   1     -20.762   1.124  10.491 +0.04 +0.06    +0.222 HD
DOCKED: ENDBRANCH  29  31
DOCKED: BRANCH  29  33
DOCKED: ATOM     33  O   UNL d   1     -18.747   2.367   9.966 +0.11 -0.01    -0.303 OA
DOCKED: ATOM     34  H   UNL d   1     -18.564   2.553  10.920 -0.28 -0.01    +0.222 HD
DOCKED: ENDBRANCH  29  33
DOCKED: ENDBRANCH  28  29
DOCKED: ENDBRANCH   3  28
DOCKED: BRANCH   5  35
DOCKED: ATOM     35  O   UNL d   1     -15.162  -1.657  14.013 -0.22 -0.01    -0.278 OA
DOCKED: BRANCH  35  36
DOCKED: ATOM     36  P   UNL d   1     -16.426  -2.051  14.903 -0.06 +0.11    +0.473 P 
DOCKED: ATOM     37  O   UNL d   1     -17.701  -1.350  14.559 -0.02 -0.05    -0.228 OA
DOCKED: BRANCH  36  38
DOCKED: ATOM     38  O   UNL d   1     -16.477  -3.632  14.715 -0.18 -0.16    -0.303 OA
DOCKED: ATOM     39  H   UNL d   1     -16.277  -3.850  13.779 +0.06 +0.10    +0.222 HD
DOCKED: ENDBRANCH  36  38
DOCKED: BRANCH  36  40
DOCKED: ATOM     40  O   UNL d   1     -15.873  -1.860  16.382 -0.06 -0.06    -0.303 OA
DOCKED: ATOM     41  H   UNL d   1     -15.084  -1.275  16.403 +0.07 +0.03    +0.222 HD
DOCKED: ENDBRANCH  36  40
DOCKED: ENDBRANCH  35  36
DOCKED: ENDBRANCH   5  35
DOCKED: BRANCH   4  42
DOCKED: ATOM     42  O   UNL d   1     -16.123  -1.672  11.262 -0.17 -0.01    -0.278 OA
DOCKED: BRANCH  42  43
DOCKED: ATOM     43  P   UNL d   1     -16.294  -3.230  11.558 -0.04 +0.10    +0.473 P 
DOCKED: ATOM     44  O   UNL d   1     -15.242  -3.894  12.378 -0.43 -0.05    -0.228 OA
DOCKED: BRANCH  43  45
DOCKED: ATOM     45  O   UNL d   1     -17.754  -3.308  12.187 -0.12 -0.09    -0.303 OA
DOCKED: ATOM     46  H   UNL d   1     -17.757  -3.021  13.122 +0.06 +0.07    +0.222 HD
DOCKED: ENDBRANCH  43  45
DOCKED: BRANCH  43  47
DOCKED: ATOM     47  O   UNL d   1     -16.533  -3.856  10.102 -0.79 -0.07    -0.303 OA
DOCKED: ATOM     48  H   UNL d   1     -17.049  -4.684  10.187 -0.47 -0.02    +0.222 HD
DOCKED: ENDBRANCH  43  47
DOCKED: ENDBRANCH  42  43
DOCKED: ENDBRANCH   4  42
DOCKED: TORSDOF 24
DOCKED: TER
DOCKED: ENDMDL
________________________________________________________________________________


	BEGINNING GENETIC ALGORITHM DOCKING 27 of 100
Run: 27 Seed: 2062349946 16038255 [ Run 27 of 100 GA/GALS ]
Beginning LAMARCKIAN GENETIC ALGORITHM (LGA), with a maximum of 25000000 energy evaluations.

Final-Value: -17.506


	FINAL GENETIC ALGORITHM DOCKED STATE
	_______________________________________________


Detailed state:  trans -11.450 -15.754 -3.765 quatxyzw 0.035932 0.986983 -0.084959 0.131743 center 0.035 0.082 -0.065 ntor 24 25.5147 -171.2167 -152.6169 132.6186 26.6894 -167.0631 24.5262 -134.6134 147.4830 85.7364 83.8169 148.9246 -65.6584 -70.0836 -38.9903 -124.0385 44.6191 -83.8815 76.1236 6.5169 159.8436 42.1490 25.5503 -176.6933
State:	-11.450 -15.754  -3.765   0.036  0.996 -0.086 164.859     25.51 -171.22 -152.62  132.62   26.69 -167.06   24.53 -134.61  147.48   85.74   83.82  148.92  -65.66  -70.08  -38.99 -124.04   44.62  -83.88   76.12    6.52  159.84   42.15   25.55 -176.69

DOCKED: MODEL       27
DOCKED: USER    Run = 27
DOCKED: USER    DPF = D:/Protein_go_brrr/autodock/final/AncMH_nat/IHP/dock.dpf
DOCKED: USER  
DOCKED: USER    Estimated Free Energy of Binding    =   +0.11 kcal/mol  [=(1)+(2)+(3)-(4)]
DOCKED: USER    
DOCKED: USER    (1) Final Intermolecular Energy     =   -7.05 kcal/mol
DOCKED: USER        vdW + Hbond + desolv Energy     =   -6.07 kcal/mol
DOCKED: USER        Electrostatic Energy            =   -0.98 kcal/mol
DOCKED: USER    (2) Final Total Internal Energy     =  -10.45 kcal/mol
DOCKED: USER    (3) Torsional Free Energy           =   +7.16 kcal/mol
DOCKED: USER    (4) Unbound System's Energy  [=(2)] =  -10.45 kcal/mol
DOCKED: USER    
DOCKED: USER    
DOCKED: USER    NEWDPF move IHP_ideal_opt.pdbqt
DOCKED: USER    NEWDPF about 0.035000 0.082000 -0.065000
DOCKED: USER    NEWDPF tran0 -11.449732 -15.754371 -3.764662
DOCKED: USER    NEWDPF quaternion0 0.035932 0.986983 -0.084959 0.131743
DOCKED: USER    NEWDPF axisangle0 0.036248 0.995661 -0.085706 164.859340
DOCKED: USER    NEWDPF quat0 0.036248 0.995661 -0.085706 164.859340
DOCKED: USER    NEWDPF dihe0 25.51 -171.22 -152.62 132.62 26.69 -167.06 24.53 -134.61 147.48 85.74 83.82 148.92 -65.66 -70.08 -38.99 -124.04 44.62 -83.88 76.12 6.52 159.84 42.15 25.55 -176.69 
DOCKED: USER  keepresnum = 1 
DOCKED: USER  
DOCKED: REMARK  24 active torsions:
DOCKED: REMARK  status: ('A' for Active; 'I' for Inactive)
DOCKED: REMARK    1  A    between atoms: C_1  and  O_7 
DOCKED: REMARK    2  A    between atoms: C_2  and  O_12 
DOCKED: REMARK    3  A    between atoms: C_3  and  O_17 
DOCKED: REMARK    4  A    between atoms: C_4  and  O_22 
DOCKED: REMARK    5  A    between atoms: C_5  and  O_27 
DOCKED: REMARK    6  A    between atoms: C_6  and  O_32 
DOCKED: REMARK    7  A    between atoms: O_7  and  P_8 
DOCKED: REMARK    8  A    between atoms: P_8  and  O_10 
DOCKED: REMARK    9  A    between atoms: P_8  and  O_11 
DOCKED: REMARK   10  A    between atoms: O_12  and  P_13 
DOCKED: REMARK   11  A    between atoms: P_13  and  O_15 
DOCKED: REMARK   12  A    between atoms: P_13  and  O_16 
DOCKED: REMARK   13  A    between atoms: O_17  and  P_18 
DOCKED: REMARK   14  A    between atoms: P_18  and  O_20 
DOCKED: REMARK   15  A    between atoms: P_18  and  O_21 
DOCKED: REMARK   16  A    between atoms: O_22  and  P_23 
DOCKED: REMARK   17  A    between atoms: P_23  and  O_25 
DOCKED: REMARK   18  A    between atoms: P_23  and  O_26 
DOCKED: REMARK   19  A    between atoms: O_27  and  P_28 
DOCKED: REMARK   20  A    between atoms: P_28  and  O_30 
DOCKED: REMARK   21  A    between atoms: P_28  and  O_31 
DOCKED: REMARK   22  A    between atoms: O_32  and  P_33 
DOCKED: REMARK   23  A    between atoms: P_33  and  O_35 
DOCKED: REMARK   24  A    between atoms: P_33  and  O_36 
DOCKED: USER                              x       y       z     vdW  Elec       q    Type
DOCKED: USER                           _______ _______ _______ _____ _____    ______ ____
DOCKED: ROOT
DOCKED: ATOM      1  C   UNL d   1     -12.910 -16.636  -4.041 -0.10 +0.02    +0.194 C 
DOCKED: ATOM      2  C   UNL d   1     -11.649 -17.484  -3.865 -0.12 +0.04    +0.194 C 
DOCKED: ATOM      3  C   UNL d   1     -10.460 -16.897  -4.628 -0.12 +0.05    +0.194 C 
DOCKED: ATOM      4  C   UNL d   1     -10.212 -15.423  -4.314 -0.20 -0.01    +0.194 C 
DOCKED: ATOM      5  C   UNL d   1     -11.466 -14.559  -4.366 -0.20 -0.03    +0.194 C 
DOCKED: ATOM      6  C   UNL d   1     -12.673 -15.175  -3.656 -0.15 +0.02    +0.194 C 
DOCKED: ENDROOT
DOCKED: BRANCH   1   7
DOCKED: ATOM      7  O   UNL d   1     -13.918 -17.148  -3.168 -0.09 -0.04    -0.278 OA
DOCKED: BRANCH   7   8
DOCKED: ATOM      8  P   UNL d   1     -14.157 -18.728  -3.128 -0.04 +0.04    +0.473 P 
DOCKED: ATOM      9  O   UNL d   1     -13.529 -19.489  -4.242 -0.02 -0.02    -0.228 OA
DOCKED: BRANCH   8  10
DOCKED: ATOM     10  O   UNL d   1     -13.622 -19.164  -1.690 -0.07 -0.04    -0.303 OA
DOCKED: ATOM     11  H   UNL d   1     -13.040 -19.941  -1.779 +0.04 +0.02    +0.222 HD
DOCKED: ENDBRANCH   8  10
DOCKED: BRANCH   8  12
DOCKED: ATOM     12  O   UNL d   1     -15.727 -18.904  -2.966 -0.03 -0.02    -0.303 OA
DOCKED: ATOM     13  H   UNL d   1     -16.082 -19.676  -3.463 +0.01 +0.01    +0.222 HD
DOCKED: ENDBRANCH   8  12
DOCKED: ENDBRANCH   7   8
DOCKED: ENDBRANCH   1   7
DOCKED: BRANCH   2  14
DOCKED: ATOM     14  O   UNL d   1     -11.315 -17.540  -2.472 -0.23 -0.11    -0.278 OA
DOCKED: BRANCH  14  15
DOCKED: ATOM     15  P   UNL d   1     -10.845 -18.963  -1.906 -0.16 +0.18    +0.473 P 
DOCKED: ATOM     16  O   UNL d   1     -11.115 -20.153  -2.772 -0.05 -0.05    -0.228 OA
DOCKED: BRANCH  15  17
DOCKED: ATOM     17  O   UNL d   1      -9.296 -18.764  -1.596 -0.67 -0.40    -0.303 OA
DOCKED: ATOM     18  H   UNL d   1      -9.124 -18.787  -0.635 -0.49 +0.14    +0.222 HD
DOCKED: ENDBRANCH  15  17
DOCKED: BRANCH  15  19
DOCKED: ATOM     19  O   UNL d   1     -11.459 -19.028  -0.440 -0.16 -0.03    -0.303 OA
DOCKED: ATOM     20  H   UNL d   1     -12.424 -19.165  -0.458 +0.05 +0.03    +0.222 HD
DOCKED: ENDBRANCH  15  19
DOCKED: ENDBRANCH  14  15
DOCKED: ENDBRANCH   2  14
DOCKED: BRANCH   6  21
DOCKED: ATOM     21  O   UNL d   1     -13.819 -14.439  -4.078 -0.09 -0.02    -0.278 OA
DOCKED: BRANCH  21  22
DOCKED: ATOM     22  P   UNL d   1     -14.170 -14.342  -5.631 +0.00 +0.01    +0.473 P 
DOCKED: ATOM     23  O   UNL d   1     -13.172 -14.859  -6.612 -0.01 +0.00    -0.228 OA
DOCKED: BRANCH  22  24
DOCKED: ATOM     24  O   UNL d   1     -15.593 -15.053  -5.688 -0.01 -0.02    -0.303 OA
DOCKED: ATOM     25  H   UNL d   1     -15.574 -15.831  -5.074 +0.02 +0.01    +0.222 HD
DOCKED: ENDBRANCH  22  24
DOCKED: BRANCH  22  26
DOCKED: ATOM     26  O   UNL d   1     -14.565 -12.796  -5.779 -0.01 -0.02    -0.303 OA
DOCKED: ATOM     27  H   UNL d   1     -14.208 -12.298  -5.016 +0.05 +0.02    +0.222 HD
DOCKED: ENDBRANCH  22  26
DOCKED: ENDBRANCH  21  22
DOCKED: ENDBRANCH   6  21
DOCKED: BRANCH   3  28
DOCKED: ATOM     28  O   UNL d   1      -9.291 -17.577  -4.189 -0.16 -0.25    -0.278 OA
DOCKED: BRANCH  28  29
DOCKED: ATOM     29  P   UNL d   1      -8.030 -17.714  -5.152 +0.06 +0.36    +0.473 P 
DOCKED: ATOM     30  O   UNL d   1      -7.201 -18.930  -4.952 -0.10 -0.18    -0.228 OA
DOCKED: BRANCH  29  31
DOCKED: ATOM     31  O   UNL d   1      -8.745 -17.548  -6.574 -0.02 -0.03    -0.303 OA
DOCKED: ATOM     32  H   UNL d   1      -8.955 -16.595  -6.710 +0.03 -0.02    +0.222 HD
DOCKED: ENDBRANCH  29  31
DOCKED: BRANCH  29  33
DOCKED: ATOM     33  O   UNL d   1      -7.306 -16.309  -4.956 -0.61 -0.19    -0.303 OA
DOCKED: ATOM     34  H   UNL d   1      -7.811 -15.617  -5.449 -0.24 -0.11    +0.222 HD
DOCKED: ENDBRANCH  29  33
DOCKED: ENDBRANCH  28  29
DOCKED: ENDBRANCH   3  28
DOCKED: BRANCH   5  35
DOCKED: ATOM     35  O   UNL d   1     -11.137 -13.358  -3.671 -0.32 +0.08    -0.278 OA
DOCKED: BRANCH  35  36
DOCKED: ATOM     36  P   UNL d   1     -11.933 -12.009  -3.973 -0.22 -0.10    +0.473 P 
DOCKED: ATOM     37  O   UNL d   1     -13.162 -11.788  -3.149 -0.22 -0.00    -0.228 OA
DOCKED: BRANCH  36  38
DOCKED: ATOM     38  O   UNL d   1     -10.800 -10.909  -3.767 -0.26 +0.14    -0.303 OA
DOCKED: ATOM     39  H   UNL d   1     -10.217 -10.898  -4.556 -0.06 -0.29    +0.222 HD
DOCKED: ENDBRANCH  36  38
DOCKED: BRANCH  36  40
DOCKED: ATOM     40  O   UNL d   1     -12.123 -12.073  -5.550 -0.10 +0.07    -0.303 OA
DOCKED: ATOM     41  H   UNL d   1     -12.399 -12.968  -5.848 +0.06 -0.04    +0.222 HD
DOCKED: ENDBRANCH  36  40
DOCKED: ENDBRANCH  35  36
DOCKED: ENDBRANCH   5  35
DOCKED: BRANCH   4  42
DOCKED: ATOM     42  O   UNL d   1      -9.319 -14.930  -5.319 -0.06 +0.24    -0.278 OA
DOCKED: BRANCH  42  43
DOCKED: ATOM     43  P   UNL d   1      -9.868 -14.715  -6.801 -0.02 -0.28    +0.473 P 
DOCKED: ATOM     44  O   UNL d   1     -10.833 -15.719  -7.329 -0.02 +0.03    -0.228 OA
DOCKED: BRANCH  43  45
DOCKED: ATOM     45  O   UNL d   1     -10.437 -13.230  -6.749 -0.09 +0.27    -0.303 OA
DOCKED: ATOM     46  H   UNL d   1     -10.170 -12.772  -5.927 -0.43 -0.38    +0.222 HD
DOCKED: ENDBRANCH  43  45
DOCKED: BRANCH  43  47
DOCKED: ATOM     47  O   UNL d   1      -8.530 -14.521  -7.662 -0.09 +0.22    -0.303 OA
DOCKED: ATOM     48  H   UNL d   1      -7.850 -14.084  -7.109 -0.34 -0.33    +0.222 HD
DOCKED: ENDBRANCH  43  47
DOCKED: ENDBRANCH  42  43
DOCKED: ENDBRANCH   4  42
DOCKED: TORSDOF 24
DOCKED: TER
DOCKED: ENDMDL
________________________________________________________________________________


	BEGINNING GENETIC ALGORITHM DOCKING 28 of 100
Run: 28 Seed: 1888764542 593718127 [ Run 28 of 100 GA/GALS ]
Beginning LAMARCKIAN GENETIC ALGORITHM (LGA), with a maximum of 25000000 energy evaluations.

Final-Value: -15.884


	FINAL GENETIC ALGORITHM DOCKED STATE
	_______________________________________________


Detailed state:  trans -11.127 -14.355 19.552 quatxyzw -0.915340 0.090341 0.064043 -0.387155 center 0.035 0.082 -0.065 ntor 24 94.9422 -87.1100 115.1517 6.2786 -138.0340 56.9463 -125.5041 15.5338 -12.8773 -161.8251 -5.0821 91.6164 -50.0120 57.3754 124.5690 70.9084 -91.5318 -93.0228 55.5369 0.2015 142.8336 148.1688 -167.0778 -175.1640
State:	-11.127 -14.355  19.552  -0.993  0.098  0.069 -134.445     94.94  -87.11  115.15    6.28 -138.03   56.95 -125.50   15.53  -12.88 -161.83   -5.08   91.62  -50.01   57.38  124.57   70.91  -91.53  -93.02   55.54    0.20  142.83  148.17 -167.08 -175.16

DOCKED: MODEL       28
DOCKED: USER    Run = 28
DOCKED: USER    DPF = D:/Protein_go_brrr/autodock/final/AncMH_nat/IHP/dock.dpf
DOCKED: USER  
DOCKED: USER    Estimated Free Energy of Binding    =   +3.18 kcal/mol  [=(1)+(2)+(3)-(4)]
DOCKED: USER    
DOCKED: USER    (1) Final Intermolecular Energy     =   -3.98 kcal/mol
DOCKED: USER        vdW + Hbond + desolv Energy     =   -3.39 kcal/mol
DOCKED: USER        Electrostatic Energy            =   -0.59 kcal/mol
DOCKED: USER    (2) Final Total Internal Energy     =  -11.91 kcal/mol
DOCKED: USER    (3) Torsional Free Energy           =   +7.16 kcal/mol
DOCKED: USER    (4) Unbound System's Energy  [=(2)] =  -11.91 kcal/mol
DOCKED: USER    
DOCKED: USER    
DOCKED: USER    NEWDPF move IHP_ideal_opt.pdbqt
DOCKED: USER    NEWDPF about 0.035000 0.082000 -0.065000
DOCKED: USER    NEWDPF tran0 -11.126895 -14.355113 19.551964
DOCKED: USER    NEWDPF quaternion0 -0.915340 0.090341 0.064043 -0.387155
DOCKED: USER    NEWDPF axisangle0 -0.992761 0.097982 0.069460 -134.444827
DOCKED: USER    NEWDPF quat0 -0.992761 0.097982 0.069460 -134.444827
DOCKED: USER    NEWDPF dihe0 94.94 -87.11 115.15 6.28 -138.03 56.95 -125.50 15.53 -12.88 -161.83 -5.08 91.62 -50.01 57.38 124.57 70.91 -91.53 -93.02 55.54 0.20 142.83 148.17 -167.08 -175.16 
DOCKED: USER  keepresnum = 1 
DOCKED: USER  
DOCKED: REMARK  24 active torsions:
DOCKED: REMARK  status: ('A' for Active; 'I' for Inactive)
DOCKED: REMARK    1  A    between atoms: C_1  and  O_7 
DOCKED: REMARK    2  A    between atoms: C_2  and  O_12 
DOCKED: REMARK    3  A    between atoms: C_3  and  O_17 
DOCKED: REMARK    4  A    between atoms: C_4  and  O_22 
DOCKED: REMARK    5  A    between atoms: C_5  and  O_27 
DOCKED: REMARK    6  A    between atoms: C_6  and  O_32 
DOCKED: REMARK    7  A    between atoms: O_7  and  P_8 
DOCKED: REMARK    8  A    between atoms: P_8  and  O_10 
DOCKED: REMARK    9  A    between atoms: P_8  and  O_11 
DOCKED: REMARK   10  A    between atoms: O_12  and  P_13 
DOCKED: REMARK   11  A    between atoms: P_13  and  O_15 
DOCKED: REMARK   12  A    between atoms: P_13  and  O_16 
DOCKED: REMARK   13  A    between atoms: O_17  and  P_18 
DOCKED: REMARK   14  A    between atoms: P_18  and  O_20 
DOCKED: REMARK   15  A    between atoms: P_18  and  O_21 
DOCKED: REMARK   16  A    between atoms: O_22  and  P_23 
DOCKED: REMARK   17  A    between atoms: P_23  and  O_25 
DOCKED: REMARK   18  A    between atoms: P_23  and  O_26 
DOCKED: REMARK   19  A    between atoms: O_27  and  P_28 
DOCKED: REMARK   20  A    between atoms: P_28  and  O_30 
DOCKED: REMARK   21  A    between atoms: P_28  and  O_31 
DOCKED: REMARK   22  A    between atoms: O_32  and  P_33 
DOCKED: REMARK   23  A    between atoms: P_33  and  O_35 
DOCKED: REMARK   24  A    between atoms: P_33  and  O_36 
DOCKED: USER                              x       y       z     vdW  Elec       q    Type
DOCKED: USER                           _______ _______ _______ _____ _____    ______ ____
DOCKED: ROOT
DOCKED: ATOM      1  C   UNL d   1      -9.751 -13.323  19.389 -0.01 +0.00    +0.194 C 
DOCKED: ATOM      2  C   UNL d   1     -10.778 -12.895  20.439 -0.00 -0.00    +0.194 C 
DOCKED: ATOM      3  C   UNL d   1     -12.211 -13.045  19.923 -0.01 -0.00    +0.194 C 
DOCKED: ATOM      4  C   UNL d   1     -12.506 -14.433  19.361 -0.03 -0.02    +0.194 C 
DOCKED: ATOM      5  C   UNL d   1     -11.446 -14.949  18.396 -0.07 -0.03    +0.194 C 
DOCKED: ATOM      6  C   UNL d   1     -10.010 -14.743  18.884 -0.03 -0.01    +0.194 C 
DOCKED: ENDROOT
DOCKED: BRANCH   1   7
DOCKED: ATOM      7  O   UNL d   1      -8.459 -13.318  20.001 -0.00 -0.00    -0.278 OA
DOCKED: BRANCH   7   8
DOCKED: ATOM      8  P   UNL d   1      -7.838 -11.917  20.452 +0.01 -0.00    +0.473 P 
DOCKED: ATOM      9  O   UNL d   1      -8.710 -10.734  20.214 -0.01 -0.00    -0.228 OA
DOCKED: BRANCH   8  10
DOCKED: ATOM     10  O   UNL d   1      -7.477 -12.131  21.991 -0.00 +0.01    -0.303 OA
DOCKED: ATOM     11  H   UNL d   1      -8.293 -12.305  22.497 +0.00 -0.01    +0.222 HD
DOCKED: ENDBRANCH   8  10
DOCKED: BRANCH   8  12
DOCKED: ATOM     12  O   UNL d   1      -6.401 -11.866  19.777 -0.02 +0.00    -0.303 OA
DOCKED: ATOM     13  H   UNL d   1      -5.691 -11.597  20.402 +0.03 -0.01    +0.222 HD
DOCKED: ENDBRANCH   8  12
DOCKED: ENDBRANCH   7   8
DOCKED: ENDBRANCH   1   7
DOCKED: BRANCH   2  14
DOCKED: ATOM     14  O   UNL d   1     -10.624 -13.713  21.605 +0.00 +0.01    -0.278 OA
DOCKED: BRANCH  14  15
DOCKED: ATOM     15  P   UNL d   1     -10.560 -12.951  23.011 +0.00 -0.01    +0.473 P 
DOCKED: ATOM     16  O   UNL d   1     -11.706 -13.172  23.948 +0.00 +0.01    -0.228 OA
DOCKED: BRANCH  15  17
DOCKED: ATOM     17  O   UNL d   1      -9.161 -13.397  23.630 +0.00 +0.01    -0.303 OA
DOCKED: ATOM     18  H   UNL d   1      -8.565 -13.742  22.939 +0.00 -0.01    +0.222 HD
DOCKED: ENDBRANCH  15  17
DOCKED: BRANCH  15  19
DOCKED: ATOM     19  O   UNL d   1     -10.270 -11.435  22.628 +0.00 +0.00    -0.303 OA
DOCKED: ATOM     20  H   UNL d   1      -9.486 -11.351  22.054 +0.00 -0.00    +0.222 HD
DOCKED: ENDBRANCH  15  19
DOCKED: ENDBRANCH  14  15
DOCKED: ENDBRANCH   2  14
DOCKED: BRANCH   6  21
DOCKED: ATOM     21  O   UNL d   1      -9.159 -14.949  17.759 -0.08 +0.01    -0.278 OA
DOCKED: BRANCH  21  22
DOCKED: ATOM     22  P   UNL d   1      -9.585 -14.383  16.329 -0.18 +0.06    +0.473 P 
DOCKED: ATOM     23  O   UNL d   1      -8.510 -14.090  15.338 -0.50 -0.21    -0.228 OA
DOCKED: BRANCH  22  24
DOCKED: ATOM     24  O   UNL d   1     -10.652 -15.466  15.856 -0.26 +0.10    -0.303 OA
DOCKED: ATOM     25  H   UNL d   1     -11.254 -15.037  15.196 -0.50 -0.12    +0.222 HD
DOCKED: ENDBRANCH  22  24
DOCKED: BRANCH  22  26
DOCKED: ATOM     26  O   UNL d   1     -10.524 -13.149  16.734 -0.10 -0.02    -0.303 OA
DOCKED: ATOM     27  H   UNL d   1     -11.431 -13.313  16.406 -0.40 -0.09    +0.222 HD
DOCKED: ENDBRANCH  22  26
DOCKED: ENDBRANCH  21  22
DOCKED: ENDBRANCH   6  21
DOCKED: BRANCH   3  28
DOCKED: ATOM     28  O   UNL d   1     -13.084 -12.896  21.036 -0.00 +0.00    -0.278 OA
DOCKED: BRANCH  28  29
DOCKED: ATOM     29  P   UNL d   1     -13.730 -14.176  21.729 +0.00 -0.02    +0.473 P 
DOCKED: ATOM     30  O   UNL d   1     -12.800 -15.307  21.978 +0.00 +0.01    -0.228 OA
DOCKED: BRANCH  29  31
DOCKED: ATOM     31  O   UNL d   1     -14.400 -13.491  23.011 +0.00 +0.01    -0.303 OA
DOCKED: ATOM     32  H   UNL d   1     -13.687 -13.255  23.649 +0.00 -0.00    +0.222 HD
DOCKED: ENDBRANCH  29  31
DOCKED: BRANCH  29  33
DOCKED: ATOM     33  O   UNL d   1     -14.983 -14.467  20.791 -0.00 +0.03    -0.303 OA
DOCKED: ATOM     34  H   UNL d   1     -14.665 -14.868  19.946 +0.02 -0.03    +0.222 HD
DOCKED: ENDBRANCH  29  33
DOCKED: ENDBRANCH  28  29
DOCKED: ENDBRANCH   3  28
DOCKED: BRANCH   5  35
DOCKED: ATOM     35  O   UNL d   1     -11.660 -16.356  18.303 -0.04 +0.05    -0.278 OA
DOCKED: BRANCH  35  36
DOCKED: ATOM     36  P   UNL d   1     -12.114 -17.188  19.586 +0.01 -0.06    +0.473 P 
DOCKED: ATOM     37  O   UNL d   1     -11.343 -16.914  20.838 -0.00 +0.02    -0.228 OA
DOCKED: BRANCH  36  38
DOCKED: ATOM     38  O   UNL d   1     -13.662 -16.825  19.678 -0.00 +0.05    -0.303 OA
DOCKED: ATOM     39  H   UNL d   1     -13.763 -15.966  20.142 +0.02 -0.03    +0.222 HD
DOCKED: ENDBRANCH  36  38
DOCKED: BRANCH  36  40
DOCKED: ATOM     40  O   UNL d   1     -12.103 -18.683  19.044 -0.00 +0.04    -0.303 OA
DOCKED: ATOM     41  H   UNL d   1     -11.998 -19.334  19.773 +0.01 -0.02    +0.222 HD
DOCKED: ENDBRANCH  36  40
DOCKED: ENDBRANCH  35  36
DOCKED: ENDBRANCH   5  35
DOCKED: BRANCH   4  42
DOCKED: ATOM     42  O   UNL d   1     -13.730 -14.332  18.627 -0.05 +0.07    -0.278 OA
DOCKED: BRANCH  42  43
DOCKED: ATOM     43  P   UNL d   1     -13.723 -13.595  17.212 -0.10 -0.19    +0.473 P 
DOCKED: ATOM     44  O   UNL d   1     -13.035 -12.276  17.129 -0.22 +0.01    -0.228 OA
DOCKED: BRANCH  43  45
DOCKED: ATOM     45  O   UNL d   1     -13.123 -14.705  16.243 -0.01 +0.22    -0.303 OA
DOCKED: ATOM     46  H   UNL d   1     -12.151 -14.770  16.332 -0.28 -0.12    +0.222 HD
DOCKED: ENDBRANCH  43  45
DOCKED: BRANCH  43  47
DOCKED: ATOM     47  O   UNL d   1     -15.269 -13.596  16.791 -0.14 +0.28    -0.303 OA
DOCKED: ATOM     48  H   UNL d   1     -15.467 -14.414  16.290 -0.43 -0.55    +0.222 HD
DOCKED: ENDBRANCH  43  47
DOCKED: ENDBRANCH  42  43
DOCKED: ENDBRANCH   4  42
DOCKED: TORSDOF 24
DOCKED: TER
DOCKED: ENDMDL
________________________________________________________________________________


	BEGINNING GENETIC ALGORITHM DOCKING 29 of 100
Run: 29 Seed: 2048085663 1308659504 [ Run 29 of 100 GA/GALS ]
Beginning LAMARCKIAN GENETIC ALGORITHM (LGA), with a maximum of 25000000 energy evaluations.

Final-Value: -16.910


	FINAL GENETIC ALGORITHM DOCKED STATE
	_______________________________________________


Detailed state:  trans -10.626 0.661 -9.575 quatxyzw 0.314443 0.204391 0.889770 -0.260113 center 0.035 0.082 -0.065 ntor 24 130.2867 108.9042 -10.8449 121.9047 97.8238 -77.5025 -42.1407 -124.7195 32.7950 -17.4903 155.9173 89.8659 -75.8041 -79.8480 75.6674 176.6915 159.4498 84.5944 -144.0295 -34.1506 -179.6428 -25.3735 9.5378 -37.0362
State:	-10.626   0.661  -9.575   0.326  0.212  0.921 -149.846    130.29  108.90  -10.84  121.90   97.82  -77.50  -42.14 -124.72   32.80  -17.49  155.92   89.87  -75.80  -79.85   75.67  176.69  159.45   84.59 -144.03  -34.15 -179.64  -25.37    9.54  -37.04

DOCKED: MODEL       29
DOCKED: USER    Run = 29
DOCKED: USER    DPF = D:/Protein_go_brrr/autodock/final/AncMH_nat/IHP/dock.dpf
DOCKED: USER  
DOCKED: USER    Estimated Free Energy of Binding    =   +2.22 kcal/mol  [=(1)+(2)+(3)-(4)]
DOCKED: USER    
DOCKED: USER    (1) Final Intermolecular Energy     =   -4.94 kcal/mol
DOCKED: USER        vdW + Hbond + desolv Energy     =   -4.03 kcal/mol
DOCKED: USER        Electrostatic Energy            =   -0.91 kcal/mol
DOCKED: USER    (2) Final Total Internal Energy     =  -11.97 kcal/mol
DOCKED: USER    (3) Torsional Free Energy           =   +7.16 kcal/mol
DOCKED: USER    (4) Unbound System's Energy  [=(2)] =  -11.97 kcal/mol
DOCKED: USER    
DOCKED: USER    
DOCKED: USER    NEWDPF move IHP_ideal_opt.pdbqt
DOCKED: USER    NEWDPF about 0.035000 0.082000 -0.065000
DOCKED: USER    NEWDPF tran0 -10.626453 0.660770 -9.574557
DOCKED: USER    NEWDPF quaternion0 0.314443 0.204391 0.889770 -0.260113
DOCKED: USER    NEWDPF axisangle0 0.325653 0.211677 0.921490 -149.846503
DOCKED: USER    NEWDPF quat0 0.325653 0.211677 0.921490 -149.846503
DOCKED: USER    NEWDPF dihe0 130.29 108.90 -10.84 121.90 97.82 -77.50 -42.14 -124.72 32.80 -17.49 155.92 89.87 -75.80 -79.85 75.67 176.69 159.45 84.59 -144.03 -34.15 -179.64 -25.37 9.54 -37.04 
DOCKED: USER  keepresnum = 1 
DOCKED: USER  
DOCKED: REMARK  24 active torsions:
DOCKED: REMARK  status: ('A' for Active; 'I' for Inactive)
DOCKED: REMARK    1  A    between atoms: C_1  and  O_7 
DOCKED: REMARK    2  A    between atoms: C_2  and  O_12 
DOCKED: REMARK    3  A    between atoms: C_3  and  O_17 
DOCKED: REMARK    4  A    between atoms: C_4  and  O_22 
DOCKED: REMARK    5  A    between atoms: C_5  and  O_27 
DOCKED: REMARK    6  A    between atoms: C_6  and  O_32 
DOCKED: REMARK    7  A    between atoms: O_7  and  P_8 
DOCKED: REMARK    8  A    between atoms: P_8  and  O_10 
DOCKED: REMARK    9  A    between atoms: P_8  and  O_11 
DOCKED: REMARK   10  A    between atoms: O_12  and  P_13 
DOCKED: REMARK   11  A    between atoms: P_13  and  O_15 
DOCKED: REMARK   12  A    between atoms: P_13  and  O_16 
DOCKED: REMARK   13  A    between atoms: O_17  and  P_18 
DOCKED: REMARK   14  A    between atoms: P_18  and  O_20 
DOCKED: REMARK   15  A    between atoms: P_18  and  O_21 
DOCKED: REMARK   16  A    between atoms: O_22  and  P_23 
DOCKED: REMARK   17  A    between atoms: P_23  and  O_25 
DOCKED: REMARK   18  A    between atoms: P_23  and  O_26 
DOCKED: REMARK   19  A    between atoms: O_27  and  P_28 
DOCKED: REMARK   20  A    between atoms: P_28  and  O_30 
DOCKED: REMARK   21  A    between atoms: P_28  and  O_31 
DOCKED: REMARK   22  A    between atoms: O_32  and  P_33 
DOCKED: REMARK   23  A    between atoms: P_33  and  O_35 
DOCKED: REMARK   24  A    between atoms: P_33  and  O_36 
DOCKED: USER                              x       y       z     vdW  Elec       q    Type
DOCKED: USER                           _______ _______ _______ _____ _____    ______ ____
DOCKED: ROOT
DOCKED: ATOM      1  C   UNL d   1     -10.639   2.254  -8.906 -0.07 -0.20    +0.194 C 
DOCKED: ATOM      2  C   UNL d   1      -9.783   2.070 -10.161 -0.05 -0.20    +0.194 C 
DOCKED: ATOM      3  C   UNL d   1      -8.974   0.772 -10.110 -0.15 -0.12    +0.194 C 
DOCKED: ATOM      4  C   UNL d   1      -9.827  -0.457  -9.808 -0.09 -0.04    +0.194 C 
DOCKED: ATOM      5  C   UNL d   1     -10.780  -0.278  -8.633 -0.09 -0.04    +0.194 C 
DOCKED: ATOM      6  C   UNL d   1     -11.544   1.048  -8.652 -0.07 -0.07    +0.194 C 
DOCKED: ENDROOT
DOCKED: BRANCH   1   7
DOCKED: ATOM      7  O   UNL d   1     -11.486   3.388  -9.106 -0.08 +0.22    -0.278 OA
DOCKED: BRANCH   7   8
DOCKED: ATOM      8  P   UNL d   1     -12.954   3.145  -9.686 -0.00 -0.13    +0.473 P 
DOCKED: ATOM      9  O   UNL d   1     -13.123   1.894 -10.474 -0.00 +0.04    -0.228 OA
DOCKED: BRANCH   8  10
DOCKED: ATOM     10  O   UNL d   1     -13.894   3.207  -8.398 -0.00 +0.04    -0.303 OA
DOCKED: ATOM     11  H   UNL d   1     -13.386   2.936  -7.610 +0.02 -0.04    +0.222 HD
DOCKED: ENDBRANCH   8  10
DOCKED: BRANCH   8  12
DOCKED: ATOM     12  O   UNL d   1     -13.330   4.494 -10.437 -0.00 +0.06    -0.303 OA
DOCKED: ATOM     13  H   UNL d   1     -12.746   4.683 -11.206 +0.01 -0.05    +0.222 HD
DOCKED: ENDBRANCH   8  12
DOCKED: ENDBRANCH   7   8
DOCKED: ENDBRANCH   1   7
DOCKED: BRANCH   2  14
DOCKED: ATOM     14  O   UNL d   1     -10.640   2.028 -11.309 -0.03 +0.13    -0.278 OA
DOCKED: BRANCH  14  15
DOCKED: ATOM     15  P   UNL d   1     -10.812   3.396 -12.124 -0.01 -0.19    +0.473 P 
DOCKED: ATOM     16  O   UNL d   1     -10.565   4.664 -11.369 -0.07 +0.14    -0.228 OA
DOCKED: BRANCH  15  17
DOCKED: ATOM     17  O   UNL d   1      -9.842   3.225 -13.376 -0.01 +0.10    -0.303 OA
DOCKED: ATOM     18  H   UNL d   1      -9.043   3.778 -13.281 +0.04 -0.10    +0.222 HD
DOCKED: ENDBRANCH  15  17
DOCKED: BRANCH  15  19
DOCKED: ATOM     19  O   UNL d   1     -12.243   3.273 -12.809 +0.00 +0.06    -0.303 OA
DOCKED: ATOM     20  H   UNL d   1     -12.955   3.204 -12.146 +0.01 -0.04    +0.222 HD
DOCKED: ENDBRANCH  15  19
DOCKED: ENDBRANCH  14  15
DOCKED: ENDBRANCH   2  14
DOCKED: BRANCH   6  21
DOCKED: ATOM     21  O   UNL d   1     -12.109   1.216  -7.354 -0.04 +0.07    -0.278 OA
DOCKED: BRANCH  21  22
DOCKED: ATOM     22  P   UNL d   1     -11.189   1.709  -6.147 -0.10 -0.20    +0.473 P 
DOCKED: ATOM     23  O   UNL d   1     -11.345   3.114  -5.671 -0.11 +0.13    -0.228 OA
DOCKED: BRANCH  22  24
DOCKED: ATOM     24  O   UNL d   1     -11.473   0.596  -5.046 -0.12 -0.00    -0.303 OA
DOCKED: ATOM     25  H   UNL d   1     -11.653  -0.260  -5.512 +0.08 +0.02    +0.222 HD
DOCKED: ENDBRANCH  22  24
DOCKED: BRANCH  22  26
DOCKED: ATOM     26  O   UNL d   1      -9.728   1.300  -6.663 -0.18 +0.21    -0.303 OA
DOCKED: ATOM     27  H   UNL d   1      -9.234   2.110  -6.906 -0.31 -0.41    +0.222 HD
DOCKED: ENDBRANCH  22  26
DOCKED: ENDBRANCH  21  22
DOCKED: ENDBRANCH   6  21
DOCKED: BRANCH   3  28
DOCKED: ATOM     28  O   UNL d   1      -8.438   0.550 -11.408 -0.06 +0.11    -0.278 OA
DOCKED: BRANCH  28  29
DOCKED: ATOM     29  P   UNL d   1      -7.065   1.232 -11.840 -0.05 -0.19    +0.473 P 
DOCKED: ATOM     30  O   UNL d   1      -6.264   0.481 -12.840 -0.29 +0.04    -0.228 OA
DOCKED: BRANCH  29  31
DOCKED: ATOM     31  O   UNL d   1      -7.595   2.679 -12.272 -0.58 +0.19    -0.303 OA
DOCKED: ATOM     32  H   UNL d   1      -8.539   2.760 -12.003 +0.03 -0.17    +0.222 HD
DOCKED: ENDBRANCH  29  31
DOCKED: BRANCH  29  33
DOCKED: ATOM     33  O   UNL d   1      -6.376   1.515 -10.432 -0.30 +0.24    -0.303 OA
DOCKED: ATOM     34  H   UNL d   1      -6.913   2.184  -9.941 -0.30 -0.44    +0.222 HD
DOCKED: ENDBRANCH  29  33
DOCKED: ENDBRANCH  28  29
DOCKED: ENDBRANCH   3  28
DOCKED: BRANCH   5  35
DOCKED: ATOM     35  O   UNL d   1     -11.745  -1.320  -8.754 -0.04 +0.00    -0.278 OA
DOCKED: BRANCH  35  36
DOCKED: ATOM     36  P   UNL d   1     -12.267  -2.089  -7.458 -0.04 +0.06    +0.473 P 
DOCKED: ATOM     37  O   UNL d   1     -12.808  -3.463  -7.697 -0.05 -0.06    -0.228 OA
DOCKED: BRANCH  36  38
DOCKED: ATOM     38  O   UNL d   1     -10.984  -2.047  -6.515 -0.14 -0.00    -0.303 OA
DOCKED: ATOM     39  H   UNL d   1     -10.178  -2.157  -7.065 -0.45 -0.07    +0.222 HD
DOCKED: ENDBRANCH  36  38
DOCKED: BRANCH  36  40
DOCKED: ATOM     40  O   UNL d   1     -13.255  -1.027  -6.807 -0.02 -0.04    -0.303 OA
DOCKED: ATOM     41  H   UNL d   1     -12.794  -0.186  -6.590 +0.05 +0.01    +0.222 HD
DOCKED: ENDBRANCH  36  40
DOCKED: ENDBRANCH  35  36
DOCKED: ENDBRANCH   5  35
DOCKED: BRANCH   4  42
DOCKED: ATOM     42  O   UNL d   1      -8.925  -1.513  -9.461 -0.09 -0.00    -0.278 OA
DOCKED: BRANCH  42  43
DOCKED: ATOM     43  P   UNL d   1      -9.319  -3.015  -9.824 -0.05 +0.07    +0.473 P 
DOCKED: ATOM     44  O   UNL d   1      -8.300  -3.842 -10.529 -0.16 -0.04    -0.228 OA
DOCKED: BRANCH  43  45
DOCKED: ATOM     45  O   UNL d   1      -9.776  -3.605  -8.418 -0.06 -0.04    -0.303 OA
DOCKED: ATOM     46  H   UNL d   1     -10.706  -3.375  -8.219 +0.01 +0.03    +0.222 HD
DOCKED: ENDBRANCH  43  45
DOCKED: BRANCH  43  47
DOCKED: ATOM     47  O   UNL d   1     -10.723  -2.853 -10.581 -0.02 -0.03    -0.303 OA
DOCKED: ATOM     48  H   UNL d   1     -11.451  -2.917  -9.928 +0.04 +0.03    +0.222 HD
DOCKED: ENDBRANCH  43  47
DOCKED: ENDBRANCH  42  43
DOCKED: ENDBRANCH   4  42
DOCKED: TORSDOF 24
DOCKED: TER
DOCKED: ENDMDL
________________________________________________________________________________


	BEGINNING GENETIC ALGORITHM DOCKING 30 of 100
Run: 30 Seed: 864761887 586260374 [ Run 30 of 100 GA/GALS ]
Beginning LAMARCKIAN GENETIC ALGORITHM (LGA), with a maximum of 25000000 energy evaluations.

Final-Value: -19.580


	FINAL GENETIC ALGORITHM DOCKED STATE
	_______________________________________________


Detailed state:  trans 7.545 -13.844 -3.107 quatxyzw 0.543386 0.184522 0.312233 -0.757096 center 0.035 0.082 -0.065 ntor 24 179.9952 -172.4182 85.3864 121.4801 32.9192 -124.3437 -101.6244 43.5075 -15.7029 134.5417 156.3382 154.2747 110.4657 -22.1757 2.9739 16.0245 -41.7254 172.7960 -1.0935 -36.3449 142.0643 -179.7416 -41.9563 -2.7308
State:	  7.545 -13.844  -3.107   0.832  0.282  0.478 -81.582    180.00 -172.42   85.39  121.48   32.92 -124.34 -101.62   43.51  -15.70  134.54  156.34  154.27  110.47  -22.18    2.97   16.02  -41.73  172.80   -1.09  -36.34  142.06 -179.74  -41.96   -2.73

DOCKED: MODEL       30
DOCKED: USER    Run = 30
DOCKED: USER    DPF = D:/Protein_go_brrr/autodock/final/AncMH_nat/IHP/dock.dpf
DOCKED: USER  
DOCKED: USER    Estimated Free Energy of Binding    =   +1.42 kcal/mol  [=(1)+(2)+(3)-(4)]
DOCKED: USER    
DOCKED: USER    (1) Final Intermolecular Energy     =   -5.74 kcal/mol
DOCKED: USER        vdW + Hbond + desolv Energy     =   -5.21 kcal/mol
DOCKED: USER        Electrostatic Energy            =   -0.53 kcal/mol
DOCKED: USER    (2) Final Total Internal Energy     =  -13.84 kcal/mol
DOCKED: USER    (3) Torsional Free Energy           =   +7.16 kcal/mol
DOCKED: USER    (4) Unbound System's Energy  [=(2)] =  -13.84 kcal/mol
DOCKED: USER    
DOCKED: USER    
DOCKED: USER    NEWDPF move IHP_ideal_opt.pdbqt
DOCKED: USER    NEWDPF about 0.035000 0.082000 -0.065000
DOCKED: USER    NEWDPF tran0 7.544793 -13.844440 -3.106976
DOCKED: USER    NEWDPF quaternion0 0.543386 0.184522 0.312233 -0.757096
DOCKED: USER    NEWDPF axisangle0 0.831750 0.282445 0.477929 -81.582289
DOCKED: USER    NEWDPF quat0 0.831750 0.282445 0.477929 -81.582289
DOCKED: USER    NEWDPF dihe0 180.00 -172.42 85.39 121.48 32.92 -124.34 -101.62 43.51 -15.70 134.54 156.34 154.27 110.47 -22.18 2.97 16.02 -41.73 172.80 -1.09 -36.34 142.06 -179.74 -41.96 -2.73 
DOCKED: USER  keepresnum = 1 
DOCKED: USER  
DOCKED: REMARK  24 active torsions:
DOCKED: REMARK  status: ('A' for Active; 'I' for Inactive)
DOCKED: REMARK    1  A    between atoms: C_1  and  O_7 
DOCKED: REMARK    2  A    between atoms: C_2  and  O_12 
DOCKED: REMARK    3  A    between atoms: C_3  and  O_17 
DOCKED: REMARK    4  A    between atoms: C_4  and  O_22 
DOCKED: REMARK    5  A    between atoms: C_5  and  O_27 
DOCKED: REMARK    6  A    between atoms: C_6  and  O_32 
DOCKED: REMARK    7  A    between atoms: O_7  and  P_8 
DOCKED: REMARK    8  A    between atoms: P_8  and  O_10 
DOCKED: REMARK    9  A    between atoms: P_8  and  O_11 
DOCKED: REMARK   10  A    between atoms: O_12  and  P_13 
DOCKED: REMARK   11  A    between atoms: P_13  and  O_15 
DOCKED: REMARK   12  A    between atoms: P_13  and  O_16 
DOCKED: REMARK   13  A    between atoms: O_17  and  P_18 
DOCKED: REMARK   14  A    between atoms: P_18  and  O_20 
DOCKED: REMARK   15  A    between atoms: P_18  and  O_21 
DOCKED: REMARK   16  A    between atoms: O_22  and  P_23 
DOCKED: REMARK   17  A    between atoms: P_23  and  O_25 
DOCKED: REMARK   18  A    between atoms: P_23  and  O_26 
DOCKED: REMARK   19  A    between atoms: O_27  and  P_28 
DOCKED: REMARK   20  A    between atoms: P_28  and  O_30 
DOCKED: REMARK   21  A    between atoms: P_28  and  O_31 
DOCKED: REMARK   22  A    between atoms: O_32  and  P_33 
DOCKED: REMARK   23  A    between atoms: P_33  and  O_35 
DOCKED: REMARK   24  A    between atoms: P_33  and  O_36 
DOCKED: USER                              x       y       z     vdW  Elec       q    Type
DOCKED: USER                           _______ _______ _______ _____ _____    ______ ____
DOCKED: ROOT
DOCKED: ATOM      1  C   UNL d   1       9.199 -13.751  -3.595 -0.15 -0.03    +0.194 C 
DOCKED: ATOM      2  C   UNL d   1       8.270 -14.503  -4.550 -0.06 -0.02    +0.194 C 
DOCKED: ATOM      3  C   UNL d   1       7.310 -15.426  -3.797 -0.04 -0.01    +0.194 C 
DOCKED: ATOM      4  C   UNL d   1       6.543 -14.716  -2.684 -0.10 +0.01    +0.194 C 
DOCKED: ATOM      5  C   UNL d   1       7.416 -13.861  -1.775 -0.16 +0.01    +0.194 C 
DOCKED: ATOM      6  C   UNL d   1       8.419 -12.983  -2.527 -0.21 -0.00    +0.194 C 
DOCKED: ENDROOT
DOCKED: BRANCH   1   7
DOCKED: ATOM      7  O   UNL d   1       9.938 -12.791  -4.355 -0.16 +0.08    -0.278 OA
DOCKED: BRANCH   7   8
DOCKED: ATOM      8  P   UNL d   1      11.534 -12.846  -4.300 -0.11 -0.14    +0.473 P 
DOCKED: ATOM      9  O   UNL d   1      12.228 -12.124  -5.400 -0.14 +0.07    -0.228 OA
DOCKED: BRANCH   8  10
DOCKED: ATOM     10  O   UNL d   1      11.891 -12.277  -2.852 -0.14 +0.13    -0.303 OA
DOCKED: ATOM     11  H   UNL d   1      11.120 -12.376  -2.263 -0.43 -0.13    +0.222 HD
DOCKED: ENDBRANCH   8  10
DOCKED: BRANCH   8  12
DOCKED: ATOM     12  O   UNL d   1      11.890 -14.387  -4.149 -0.02 +0.05    -0.303 OA
DOCKED: ATOM     13  H   UNL d   1      12.691 -14.649  -4.655 +0.02 -0.03    +0.222 HD
DOCKED: ENDBRANCH   8  12
DOCKED: ENDBRANCH   7   8
DOCKED: ENDBRANCH   1   7
DOCKED: BRANCH   2  14
DOCKED: ATOM     14  O   UNL d   1       7.499 -13.552  -5.296 -0.09 +0.02    -0.278 OA
DOCKED: BRANCH  14  15
DOCKED: ATOM     15  P   UNL d   1       8.065 -13.146  -6.738 -0.03 -0.07    +0.473 P 
DOCKED: ATOM     16  O   UNL d   1       8.790 -14.211  -7.500 -0.01 +0.03    -0.228 OA
DOCKED: BRANCH  15  17
DOCKED: ATOM     17  O   UNL d   1       6.788 -12.592  -7.513 -0.04 +0.03    -0.303 OA
DOCKED: ATOM     18  H   UNL d   1       5.968 -12.778  -7.017 +0.08 -0.02    +0.222 HD
DOCKED: ENDBRANCH  15  17
DOCKED: BRANCH  15  19
DOCKED: ATOM     19  O   UNL d   1       8.886 -11.808  -6.479 -0.06 +0.11    -0.303 OA
DOCKED: ATOM     20  H   UNL d   1       9.631 -11.955  -5.867 -0.42 -0.11    +0.222 HD
DOCKED: ENDBRANCH  15  19
DOCKED: ENDBRANCH  14  15
DOCKED: ENDBRANCH   2  14
DOCKED: BRANCH   6  21
DOCKED: ATOM     21  O   UNL d   1       9.367 -12.525  -1.565 -0.20 +0.07    -0.278 OA
DOCKED: BRANCH  21  22
DOCKED: ATOM     22  P   UNL d   1       9.881 -13.515  -0.425 -0.11 -0.11    +0.473 P 
DOCKED: ATOM     23  O   UNL d   1      10.005 -14.965  -0.754 -0.04 +0.03    -0.228 OA
DOCKED: BRANCH  22  24
DOCKED: ATOM     24  O   UNL d   1      11.237 -12.815   0.027 -0.11 +0.12    -0.303 OA
DOCKED: ATOM     25  H   UNL d   1      11.639 -12.380  -0.768 -0.43 -0.14    +0.222 HD
DOCKED: ENDBRANCH  22  24
DOCKED: BRANCH  22  26
DOCKED: ATOM     26  O   UNL d   1       8.900 -13.151   0.789 -0.16 +0.07    -0.303 OA
DOCKED: ATOM     27  H   UNL d   1       7.977 -13.344   0.526 +0.08 -0.03    +0.222 HD
DOCKED: ENDBRANCH  22  26
DOCKED: ENDBRANCH  21  22
DOCKED: ENDBRANCH   6  21
DOCKED: BRANCH   3  28
DOCKED: ATOM     28  O   UNL d   1       6.320 -15.859  -4.720 -0.02 +0.04    -0.278 OA
DOCKED: BRANCH  28  29
DOCKED: ATOM     29  P   UNL d   1       5.244 -14.831  -5.289 -0.07 -0.14    +0.473 P 
DOCKED: ATOM     30  O   UNL d   1       5.214 -13.503  -4.624 -0.12 -0.05    -0.228 OA
DOCKED: BRANCH  29  31
DOCKED: ATOM     31  O   UNL d   1       5.628 -14.857  -6.842 -0.03 +0.07    -0.303 OA
DOCKED: ATOM     32  H   UNL d   1       6.599 -14.719  -6.928 +0.04 -0.03    +0.222 HD
DOCKED: ENDBRANCH  29  31
DOCKED: BRANCH  29  33
DOCKED: ATOM     33  O   UNL d   1       3.905 -15.690  -5.243 -0.08 +0.27    -0.303 OA
DOCKED: ATOM     34  H   UNL d   1       3.368 -15.407  -4.463 -0.41 -0.38    +0.222 HD
DOCKED: ENDBRANCH  29  33
DOCKED: ENDBRANCH  28  29
DOCKED: ENDBRANCH   3  28
DOCKED: BRANCH   5  35
DOCKED: ATOM     35  O   UNL d   1       6.523 -12.985  -1.091 -0.12 -0.08    -0.278 OA
DOCKED: BRANCH  35  36
DOCKED: ATOM     36  P   UNL d   1       5.854 -13.433   0.287 -0.10 +0.09    +0.473 P 
DOCKED: ATOM     37  O   UNL d   1       6.280 -14.770   0.806 -0.04 -0.02    -0.228 OA
DOCKED: BRANCH  36  38
DOCKED: ATOM     38  O   UNL d   1       6.223 -12.213   1.241 -0.19 +0.01    -0.303 OA
DOCKED: ATOM     39  H   UNL d   1       7.115 -12.363   1.623 +0.09 -0.07    +0.222 HD
DOCKED: ENDBRANCH  36  38
DOCKED: BRANCH  36  40
DOCKED: ATOM     40  O   UNL d   1       4.304 -13.234  -0.007 -0.30 -0.15    -0.303 OA
DOCKED: ATOM     41  H   UNL d   1       3.886 -14.061  -0.337 +0.07 +0.09    +0.222 HD
DOCKED: ENDBRANCH  36  40
DOCKED: ENDBRANCH  35  36
DOCKED: ENDBRANCH   5  35
DOCKED: BRANCH   4  42
DOCKED: ATOM     42  O   UNL d   1       5.958 -15.736  -1.867 -0.03 -0.01    -0.278 OA
DOCKED: BRANCH  42  43
DOCKED: ATOM     43  P   UNL d   1       4.369 -15.876  -1.827 -0.06 -0.02    +0.473 P 
DOCKED: ATOM     44  O   UNL d   1       3.742 -16.204  -0.516 -0.05 -0.04    -0.228 OA
DOCKED: BRANCH  43  45
DOCKED: ATOM     45  O   UNL d   1       3.882 -14.497  -2.455 -0.06 -0.00    -0.303 OA
DOCKED: ATOM     46  H   UNL d   1       3.885 -14.528  -3.432 -0.47 -0.17    +0.222 HD
DOCKED: ENDBRANCH  43  45
DOCKED: BRANCH  43  47
DOCKED: ATOM     47  O   UNL d   1       4.061 -16.903  -3.017 -0.05 +0.08    -0.303 OA
DOCKED: ATOM     48  H   UNL d   1       4.772 -16.842  -3.689 +0.02 -0.06    +0.222 HD
DOCKED: ENDBRANCH  43  47
DOCKED: ENDBRANCH  42  43
DOCKED: ENDBRANCH   4  42
DOCKED: TORSDOF 24
DOCKED: TER
DOCKED: ENDMDL
________________________________________________________________________________


	BEGINNING GENETIC ALGORITHM DOCKING 31 of 100
Run: 31 Seed: 913834386 2132874031 [ Run 31 of 100 GA/GALS ]
Beginning LAMARCKIAN GENETIC ALGORITHM (LGA), with a maximum of 25000000 energy evaluations.

Final-Value: -20.190


	FINAL GENETIC ALGORITHM DOCKED STATE
	_______________________________________________


Detailed state:  trans -14.666 1.747 16.645 quatxyzw -0.336471 -0.161932 0.775712 -0.508760 center 0.035 0.082 -0.065 ntor 24 168.6538 -39.8854 51.4923 59.0861 100.7168 80.4867 -56.3142 7.4445 147.6838 33.5353 149.7318 -78.6883 111.6710 -72.9719 -104.5186 33.0103 161.7852 71.5866 8.8514 -5.0472 158.7045 -18.3533 -177.6169 31.2762
State:	-14.666   1.747  16.645  -0.391 -0.188  0.901 -118.837    168.65  -39.89   51.49   59.09  100.72   80.49  -56.31    7.44  147.68   33.54  149.73  -78.69  111.67  -72.97 -104.52   33.01  161.79   71.59    8.85   -5.05  158.70  -18.35 -177.62   31.28

DOCKED: MODEL       31
DOCKED: USER    Run = 31
DOCKED: USER    DPF = D:/Protein_go_brrr/autodock/final/AncMH_nat/IHP/dock.dpf
DOCKED: USER  
DOCKED: USER    Estimated Free Energy of Binding    =   +0.50 kcal/mol  [=(1)+(2)+(3)-(4)]
DOCKED: USER    
DOCKED: USER    (1) Final Intermolecular Energy     =   -6.66 kcal/mol
DOCKED: USER        vdW + Hbond + desolv Energy     =   -6.53 kcal/mol
DOCKED: USER        Electrostatic Energy            =   -0.13 kcal/mol
DOCKED: USER    (2) Final Total Internal Energy     =  -13.53 kcal/mol
DOCKED: USER    (3) Torsional Free Energy           =   +7.16 kcal/mol
DOCKED: USER    (4) Unbound System's Energy  [=(2)] =  -13.53 kcal/mol
DOCKED: USER    
DOCKED: USER    
DOCKED: USER    NEWDPF move IHP_ideal_opt.pdbqt
DOCKED: USER    NEWDPF about 0.035000 0.082000 -0.065000
DOCKED: USER    NEWDPF tran0 -14.665976 1.746994 16.644904
DOCKED: USER    NEWDPF quaternion0 -0.336471 -0.161932 0.775712 -0.508760
DOCKED: USER    NEWDPF axisangle0 -0.390832 -0.188094 0.901039 -118.837429
DOCKED: USER    NEWDPF quat0 -0.390832 -0.188094 0.901039 -118.837429
DOCKED: USER    NEWDPF dihe0 168.65 -39.89 51.49 59.09 100.72 80.49 -56.31 7.44 147.68 33.54 149.73 -78.69 111.67 -72.97 -104.52 33.01 161.79 71.59 8.85 -5.05 158.70 -18.35 -177.62 31.28 
DOCKED: USER  keepresnum = 1 
DOCKED: USER  
DOCKED: REMARK  24 active torsions:
DOCKED: REMARK  status: ('A' for Active; 'I' for Inactive)
DOCKED: REMARK    1  A    between atoms: C_1  and  O_7 
DOCKED: REMARK    2  A    between atoms: C_2  and  O_12 
DOCKED: REMARK    3  A    between atoms: C_3  and  O_17 
DOCKED: REMARK    4  A    between atoms: C_4  and  O_22 
DOCKED: REMARK    5  A    between atoms: C_5  and  O_27 
DOCKED: REMARK    6  A    between atoms: C_6  and  O_32 
DOCKED: REMARK    7  A    between atoms: O_7  and  P_8 
DOCKED: REMARK    8  A    between atoms: P_8  and  O_10 
DOCKED: REMARK    9  A    between atoms: P_8  and  O_11 
DOCKED: REMARK   10  A    between atoms: O_12  and  P_13 
DOCKED: REMARK   11  A    between atoms: P_13  and  O_15 
DOCKED: REMARK   12  A    between atoms: P_13  and  O_16 
DOCKED: REMARK   13  A    between atoms: O_17  and  P_18 
DOCKED: REMARK   14  A    between atoms: P_18  and  O_20 
DOCKED: REMARK   15  A    between atoms: P_18  and  O_21 
DOCKED: REMARK   16  A    between atoms: O_22  and  P_23 
DOCKED: REMARK   17  A    between atoms: P_23  and  O_25 
DOCKED: REMARK   18  A    between atoms: P_23  and  O_26 
DOCKED: REMARK   19  A    between atoms: O_27  and  P_28 
DOCKED: REMARK   20  A    between atoms: P_28  and  O_30 
DOCKED: REMARK   21  A    between atoms: P_28  and  O_31 
DOCKED: REMARK   22  A    between atoms: O_32  and  P_33 
DOCKED: REMARK   23  A    between atoms: P_33  and  O_35 
DOCKED: REMARK   24  A    between atoms: P_33  and  O_36 
DOCKED: USER                              x       y       z     vdW  Elec       q    Type
DOCKED: USER                           _______ _______ _______ _____ _____    ______ ____
DOCKED: ROOT
DOCKED: ATOM      1  C   UNL d   1     -14.926   3.326  17.295 -0.10 +0.02    +0.194 C 
DOCKED: ATOM      2  C   UNL d   1     -13.806   2.517  17.952 -0.08 +0.00    +0.194 C 
DOCKED: ATOM      3  C   UNL d   1     -14.218   1.062  18.181 -0.07 +0.00    +0.194 C 
DOCKED: ATOM      4  C   UNL d   1     -14.759   0.384  16.924 -0.10 +0.01    +0.194 C 
DOCKED: ATOM      5  C   UNL d   1     -15.797   1.208  16.173 -0.07 +0.02    +0.194 C 
DOCKED: ATOM      6  C   UNL d   1     -15.411   2.679  15.997 -0.16 +0.03    +0.194 C 
DOCKED: ENDROOT
DOCKED: BRANCH   1   7
DOCKED: ATOM      7  O   UNL d   1     -14.407   4.615  16.959 -0.14 -0.04    -0.278 OA
DOCKED: BRANCH   7   8
DOCKED: ATOM      8  P   UNL d   1     -14.990   5.891  17.723 -0.08 +0.14    +0.473 P 
DOCKED: ATOM      9  O   UNL d   1     -14.161   7.123  17.620 -0.09 -0.05    -0.228 OA
DOCKED: BRANCH   8  10
DOCKED: ATOM     10  O   UNL d   1     -16.455   6.068  17.118 -0.06 -0.27    -0.303 OA
DOCKED: ATOM     11  H   UNL d   1     -16.686   5.284  16.586 +0.04 +0.20    +0.222 HD
DOCKED: ENDBRANCH   8  10
DOCKED: BRANCH   8  12
DOCKED: ATOM     12  O   UNL d   1     -15.298   5.384  19.197 -0.01 -0.05    -0.303 OA
DOCKED: ATOM     13  H   UNL d   1     -16.182   4.961  19.283 +0.02 +0.05    +0.222 HD
DOCKED: ENDBRANCH   8  12
DOCKED: ENDBRANCH   7   8
DOCKED: ENDBRANCH   1   7
DOCKED: BRANCH   2  14
DOCKED: ATOM     14  O   UNL d   1     -12.654   2.537  17.099 -0.16 +0.02    -0.278 OA
DOCKED: BRANCH  14  15
DOCKED: ATOM     15  P   UNL d   1     -11.279   3.016  17.765 -0.14 -0.05    +0.473 P 
DOCKED: ATOM     16  O   UNL d   1     -11.383   3.768  19.055 -0.05 +0.03    -0.228 OA
DOCKED: BRANCH  15  17
DOCKED: ATOM     17  O   UNL d   1     -10.426   1.677  17.898 -0.25 +0.05    -0.303 OA
DOCKED: ATOM     18  H   UNL d   1     -10.973   0.944  18.240 -0.08 -0.08    +0.222 HD
DOCKED: ENDBRANCH  15  17
DOCKED: BRANCH  15  19
DOCKED: ATOM     19  O   UNL d   1     -10.511   3.768  16.593 -0.82 +0.02    -0.303 OA
DOCKED: ATOM     20  H   UNL d   1     -11.024   3.761  15.763 -0.45 -0.09    +0.222 HD
DOCKED: ENDBRANCH  15  19
DOCKED: ENDBRANCH  14  15
DOCKED: ENDBRANCH   2  14
DOCKED: BRANCH   6  21
DOCKED: ATOM     21  O   UNL d   1     -16.594   3.370  15.602 -0.13 -0.10    -0.278 OA
DOCKED: BRANCH  21  22
DOCKED: ATOM     22  P   UNL d   1     -17.899   3.295  16.517 -0.06 +0.21    +0.473 P 
DOCKED: ATOM     23  O   UNL d   1     -18.689   2.029  16.515 -0.02 -0.06    -0.228 OA
DOCKED: BRANCH  22  24
DOCKED: ATOM     24  O   UNL d   1     -17.324   3.721  17.939 -0.03 -0.10    -0.303 OA
DOCKED: ATOM     25  H   UNL d   1     -16.614   4.396  17.794 +0.03 +0.09    +0.222 HD
DOCKED: ENDBRANCH  22  24
DOCKED: BRANCH  22  26
DOCKED: ATOM     26  O   UNL d   1     -18.688   4.617  16.069 -0.56 -0.38    -0.303 OA
DOCKED: ATOM     27  H   UNL d   1     -18.455   5.350  16.673 +0.01 +0.37    +0.222 HD
DOCKED: ENDBRANCH  22  26
DOCKED: ENDBRANCH  21  22
DOCKED: ENDBRANCH   6  21
DOCKED: BRANCH   3  28
DOCKED: ATOM     28  O   UNL d   1     -13.047   0.334  18.528 -0.11 +0.04    -0.278 OA
DOCKED: BRANCH  28  29
DOCKED: ATOM     29  P   UNL d   1     -12.637   0.150  20.056 -0.01 -0.08    +0.473 P 
DOCKED: ATOM     30  O   UNL d   1     -13.630   0.635  21.048 -0.02 +0.01    -0.228 OA
DOCKED: BRANCH  29  31
DOCKED: ATOM     31  O   UNL d   1     -12.303  -1.415  20.068 +0.03 +0.09    -0.303 OA
DOCKED: ATOM     32  H   UNL d   1     -12.519  -1.789  19.183 -0.40 -0.07    +0.222 HD
DOCKED: ENDBRANCH  29  31
DOCKED: BRANCH  29  33
DOCKED: ATOM     33  O   UNL d   1     -11.192   0.818  20.097 -0.08 +0.08    -0.303 OA
DOCKED: ATOM     34  H   UNL d   1     -11.282   1.788  19.929 +0.04 -0.04    +0.222 HD
DOCKED: ENDBRANCH  29  33
DOCKED: ENDBRANCH  28  29
DOCKED: ENDBRANCH   3  28
DOCKED: BRANCH   5  35
DOCKED: ATOM     35  O   UNL d   1     -15.875   0.636  14.869 -0.07 -0.03    -0.278 OA
DOCKED: BRANCH  35  36
DOCKED: ATOM     36  P   UNL d   1     -14.543   0.304  14.055 -0.21 +0.00    +0.473 P 
DOCKED: ATOM     37  O   UNL d   1     -14.682   0.299  12.566 -0.34 +0.02    -0.228 OA
DOCKED: BRANCH  36  38
DOCKED: ATOM     38  O   UNL d   1     -13.536   1.403  14.615 -0.26 +0.03    -0.303 OA
DOCKED: ATOM     39  H   UNL d   1     -13.218   1.125  15.501 +0.11 -0.01    +0.222 HD
DOCKED: ENDBRANCH  36  38
DOCKED: BRANCH  36  40
DOCKED: ATOM     40  O   UNL d   1     -14.055  -1.047  14.739 -0.29 -0.00    -0.303 OA
DOCKED: ATOM     41  H   UNL d   1     -14.586  -1.263  15.537 +0.07 +0.01    +0.222 HD
DOCKED: ENDBRANCH  36  40
DOCKED: ENDBRANCH  35  36
DOCKED: ENDBRANCH   5  35
DOCKED: BRANCH   4  42
DOCKED: ATOM     42  O   UNL d   1     -15.404  -0.821  17.348 -0.04 -0.03    -0.278 OA
DOCKED: BRANCH  42  43
DOCKED: ATOM     43  P   UNL d   1     -14.511  -2.103  17.669 -0.12 +0.07    +0.473 P 
DOCKED: ATOM     44  O   UNL d   1     -14.535  -2.624  19.065 -0.07 -0.04    -0.228 OA
DOCKED: BRANCH  43  45
DOCKED: ATOM     45  O   UNL d   1     -14.996  -3.150  16.574 -0.16 -0.09    -0.303 OA
DOCKED: ATOM     46  H   UNL d   1     -14.617  -2.950  15.695 -0.32 -0.01    +0.222 HD
DOCKED: ENDBRANCH  43  45
DOCKED: BRANCH  43  47
DOCKED: ATOM     47  O   UNL d   1     -13.066  -1.692  17.110 -0.23 -0.00    -0.303 OA
DOCKED: ATOM     48  H   UNL d   1     -12.501  -1.402  17.856 -0.44 -0.06    +0.222 HD
DOCKED: ENDBRANCH  43  47
DOCKED: ENDBRANCH  42  43
DOCKED: ENDBRANCH   4  42
DOCKED: TORSDOF 24
DOCKED: TER
DOCKED: ENDMDL
________________________________________________________________________________


	BEGINNING GENETIC ALGORITHM DOCKING 32 of 100
Run: 32 Seed: 1549104977 2079105189 [ Run 32 of 100 GA/GALS ]
Beginning LAMARCKIAN GENETIC ALGORITHM (LGA), with a maximum of 25000000 energy evaluations.

Final-Value: -18.371


	FINAL GENETIC ALGORITHM DOCKED STATE
	_______________________________________________


Detailed state:  trans -9.292 19.985 5.663 quatxyzw -0.487951 -0.088928 -0.723644 0.479932 center 0.035 0.082 -0.065 ntor 24 -119.0243 5.2974 47.2168 43.1137 16.3662 -174.6183 -157.9575 1.5298 70.5641 -172.7706 97.9472 -139.8153 -140.2743 163.4516 -28.0799 50.0281 48.6355 94.4507 23.4792 -21.3152 165.3063 159.5847 15.9498 -35.0573
State:	 -9.292  19.985   5.663  -0.556 -0.101 -0.825 122.638   -119.02    5.30   47.22   43.11   16.37 -174.62 -157.96    1.53   70.56 -172.77   97.95 -139.82 -140.27  163.45  -28.08   50.03   48.64   94.45   23.48  -21.32  165.31  159.58   15.95  -35.06

DOCKED: MODEL       32
DOCKED: USER    Run = 32
DOCKED: USER    DPF = D:/Protein_go_brrr/autodock/final/AncMH_nat/IHP/dock.dpf
DOCKED: USER  
DOCKED: USER    Estimated Free Energy of Binding    =   +3.74 kcal/mol  [=(1)+(2)+(3)-(4)]
DOCKED: USER    
DOCKED: USER    (1) Final Intermolecular Energy     =   -3.42 kcal/mol
DOCKED: USER        vdW + Hbond + desolv Energy     =   -3.17 kcal/mol
DOCKED: USER        Electrostatic Energy            =   -0.24 kcal/mol
DOCKED: USER    (2) Final Total Internal Energy     =  -14.96 kcal/mol
DOCKED: USER    (3) Torsional Free Energy           =   +7.16 kcal/mol
DOCKED: USER    (4) Unbound System's Energy  [=(2)] =  -14.96 kcal/mol
DOCKED: USER    
DOCKED: USER    
DOCKED: USER    NEWDPF move IHP_ideal_opt.pdbqt
DOCKED: USER    NEWDPF about 0.035000 0.082000 -0.065000
DOCKED: USER    NEWDPF tran0 -9.292147 19.985355 5.662859
DOCKED: USER    NEWDPF quaternion0 -0.487951 -0.088928 -0.723644 0.479932
DOCKED: USER    NEWDPF axisangle0 -0.556193 -0.101365 -0.824848 122.638019
DOCKED: USER    NEWDPF quat0 -0.556193 -0.101365 -0.824848 122.638019
DOCKED: USER    NEWDPF dihe0 -119.02 5.30 47.22 43.11 16.37 -174.62 -157.96 1.53 70.56 -172.77 97.95 -139.82 -140.27 163.45 -28.08 50.03 48.64 94.45 23.48 -21.32 165.31 159.58 15.95 -35.06 
DOCKED: USER  keepresnum = 1 
DOCKED: USER  
DOCKED: REMARK  24 active torsions:
DOCKED: REMARK  status: ('A' for Active; 'I' for Inactive)
DOCKED: REMARK    1  A    between atoms: C_1  and  O_7 
DOCKED: REMARK    2  A    between atoms: C_2  and  O_12 
DOCKED: REMARK    3  A    between atoms: C_3  and  O_17 
DOCKED: REMARK    4  A    between atoms: C_4  and  O_22 
DOCKED: REMARK    5  A    between atoms: C_5  and  O_27 
DOCKED: REMARK    6  A    between atoms: C_6  and  O_32 
DOCKED: REMARK    7  A    between atoms: O_7  and  P_8 
DOCKED: REMARK    8  A    between atoms: P_8  and  O_10 
DOCKED: REMARK    9  A    between atoms: P_8  and  O_11 
DOCKED: REMARK   10  A    between atoms: O_12  and  P_13 
DOCKED: REMARK   11  A    between atoms: P_13  and  O_15 
DOCKED: REMARK   12  A    between atoms: P_13  and  O_16 
DOCKED: REMARK   13  A    between atoms: O_17  and  P_18 
DOCKED: REMARK   14  A    between atoms: P_18  and  O_20 
DOCKED: REMARK   15  A    between atoms: P_18  and  O_21 
DOCKED: REMARK   16  A    between atoms: O_22  and  P_23 
DOCKED: REMARK   17  A    between atoms: P_23  and  O_25 
DOCKED: REMARK   18  A    between atoms: P_23  and  O_26 
DOCKED: REMARK   19  A    between atoms: O_27  and  P_28 
DOCKED: REMARK   20  A    between atoms: P_28  and  O_30 
DOCKED: REMARK   21  A    between atoms: P_28  and  O_31 
DOCKED: REMARK   22  A    between atoms: O_32  and  P_33 
DOCKED: REMARK   23  A    between atoms: P_33  and  O_35 
DOCKED: REMARK   24  A    between atoms: P_33  and  O_36 
DOCKED: USER                              x       y       z     vdW  Elec       q    Type
DOCKED: USER                           _______ _______ _______ _____ _____    ______ ____
DOCKED: ROOT
DOCKED: ATOM      1  C   UNL d   1      -8.205  21.161   6.312 -0.02 -0.00    +0.194 C 
DOCKED: ATOM      2  C   UNL d   1      -7.930  20.732   4.870 -0.02 +0.01    +0.194 C 
DOCKED: ATOM      3  C   UNL d   1      -8.067  19.218   4.693 -0.09 -0.00    +0.194 C 
DOCKED: ATOM      4  C   UNL d   1      -9.392  18.669   5.216 -0.12 -0.02    +0.194 C 
DOCKED: ATOM      5  C   UNL d   1      -9.763  19.163   6.608 -0.11 -0.04    +0.194 C 
DOCKED: ATOM      6  C   UNL d   1      -9.567  20.668   6.804 -0.03 -0.02    +0.194 C 
DOCKED: ENDROOT
DOCKED: BRANCH   1   7
DOCKED: ATOM      7  O   UNL d   1      -8.228  22.589   6.356 -0.00 -0.00    -0.278 OA
DOCKED: BRANCH   7   8
DOCKED: ATOM      8  P   UNL d   1      -6.917  23.355   6.853 +0.01 +0.03    +0.473 P 
DOCKED: ATOM      9  O   UNL d   1      -6.838  23.583   8.322 -0.01 -0.01    -0.228 OA
DOCKED: BRANCH   8  10
DOCKED: ATOM     10  O   UNL d   1      -5.715  22.469   6.290 -0.00 -0.04    -0.303 OA
DOCKED: ATOM     11  H   UNL d   1      -5.538  22.711   5.362 +0.01 +0.02    +0.222 HD
DOCKED: ENDBRANCH   8  10
DOCKED: BRANCH   8  12
DOCKED: ATOM     12  O   UNL d   1      -6.827  24.654   5.944 +0.00 -0.01    -0.303 OA
DOCKED: ATOM     13  H   UNL d   1      -7.067  24.485   5.005 +0.00 +0.01    +0.222 HD
DOCKED: ENDBRANCH   8  12
DOCKED: ENDBRANCH   7   8
DOCKED: ENDBRANCH   1   7
DOCKED: BRANCH   2  14
DOCKED: ATOM     14  O   UNL d   1      -8.869  21.379   4.003 -0.00 -0.03    -0.278 OA
DOCKED: BRANCH  14  15
DOCKED: ATOM     15  P   UNL d   1      -8.285  22.512   3.033 +0.01 +0.05    +0.473 P 
DOCKED: ATOM     16  O   UNL d   1      -9.136  23.725   2.827 +0.00 -0.02    -0.228 OA
DOCKED: BRANCH  15  17
DOCKED: ATOM     17  O   UNL d   1      -6.859  22.856   3.654 +0.00 -0.02    -0.303 OA
DOCKED: ATOM     18  H   UNL d   1      -6.921  23.007   4.617 +0.00 +0.01    +0.222 HD
DOCKED: ENDBRANCH  15  17
DOCKED: BRANCH  15  19
DOCKED: ATOM     19  O   UNL d   1      -7.877  21.728   1.710 -0.00 -0.05    -0.303 OA
DOCKED: ATOM     20  H   UNL d   1      -7.817  20.767   1.864 +0.03 +0.04    +0.222 HD
DOCKED: ENDBRANCH  15  19
DOCKED: ENDBRANCH  14  15
DOCKED: ENDBRANCH   2  14
DOCKED: BRANCH   6  21
DOCKED: ATOM     21  O   UNL d   1      -9.618  20.911   8.208 -0.04 +0.07    -0.278 OA
DOCKED: BRANCH  21  22
DOCKED: ATOM     22  P   UNL d   1      -8.518  20.264   9.164 -0.13 -0.13    +0.473 P 
DOCKED: ATOM     23  O   UNL d   1      -7.432  19.453   8.541 -0.24 +0.02    -0.228 OA
DOCKED: BRANCH  22  24
DOCKED: ATOM     24  O   UNL d   1      -8.017  21.530   9.988 -0.08 +0.03    -0.303 OA
DOCKED: ATOM     25  H   UNL d   1      -7.804  22.252   9.344 +0.04 -0.00    +0.222 HD
DOCKED: ENDBRANCH  22  24
DOCKED: BRANCH  22  26
DOCKED: ATOM     26  O   UNL d   1      -9.430  19.506  10.243 +0.02 +0.33    -0.303 OA
DOCKED: ATOM     27  H   UNL d   1     -10.357  19.492   9.928 -0.13 -0.31    +0.222 HD
DOCKED: ENDBRANCH  22  26
DOCKED: ENDBRANCH  21  22
DOCKED: ENDBRANCH   6  21
DOCKED: BRANCH   3  28
DOCKED: ATOM     28  O   UNL d   1      -8.071  18.949   3.297 -0.05 -0.02    -0.278 OA
DOCKED: BRANCH  28  29
DOCKED: ATOM     29  P   UNL d   1      -9.442  18.927   2.486 -0.06 +0.16    +0.473 P 
DOCKED: ATOM     30  O   UNL d   1     -10.552  19.712   3.084 -0.09 -0.09    -0.228 OA
DOCKED: BRANCH  29  31
DOCKED: ATOM     31  O   UNL d   1      -8.920  19.388   1.045 -0.11 -0.13    -0.303 OA
DOCKED: ATOM     32  H   UNL d   1      -9.207  20.318   0.890 +0.03 +0.11    +0.222 HD
DOCKED: ENDBRANCH  29  31
DOCKED: BRANCH  29  33
DOCKED: ATOM     33  O   UNL d   1      -9.688  17.367   2.288 -0.11 -0.09    -0.303 OA
DOCKED: ATOM     34  H   UNL d   1      -9.764  16.938   3.176 +0.11 +0.02    +0.222 HD
DOCKED: ENDBRANCH  29  33
DOCKED: ENDBRANCH  28  29
DOCKED: ENDBRANCH   3  28
DOCKED: BRANCH   5  35
DOCKED: ATOM     35  O   UNL d   1     -11.156  18.898   6.754 -0.06 +0.07    -0.278 OA
DOCKED: BRANCH  35  36
DOCKED: ATOM     36  P   UNL d   1     -11.757  18.511   8.181 -0.10 -0.27    +0.473 P 
DOCKED: ATOM     37  O   UNL d   1     -12.284  19.653   8.990 -0.08 +0.15    -0.228 OA
DOCKED: BRANCH  36  38
DOCKED: ATOM     38  O   UNL d   1     -12.853  17.425   7.789 -0.08 +0.13    -0.303 OA
DOCKED: ATOM     39  H   UNL d   1     -12.846  17.298   6.816 +0.08 -0.07    +0.222 HD
DOCKED: ENDBRANCH  36  38
DOCKED: BRANCH  36  40
DOCKED: ATOM     40  O   UNL d   1     -10.581  17.654   8.823 -0.33 +0.30    -0.303 OA
DOCKED: ATOM     41  H   UNL d   1     -10.521  17.789   9.795 -0.48 -0.46    +0.222 HD
DOCKED: ENDBRANCH  36  40
DOCKED: ENDBRANCH  35  36
DOCKED: ENDBRANCH   5  35
DOCKED: BRANCH   4  42
DOCKED: ATOM     42  O   UNL d   1      -9.248  17.247   5.298 -0.22 +0.06    -0.278 OA
DOCKED: BRANCH  42  43
DOCKED: ATOM     43  P   UNL d   1     -10.517  16.325   5.007 -0.18 -0.08    +0.473 P 
DOCKED: ATOM     44  O   UNL d   1     -10.293  15.073   4.231 -0.41 +0.04    -0.228 OA
DOCKED: BRANCH  43  45
DOCKED: ATOM     45  O   UNL d   1     -11.118  16.090   6.462 -0.10 +0.06    -0.303 OA
DOCKED: ATOM     46  H   UNL d   1     -10.868  16.811   7.073 +0.08 -0.08    +0.222 HD
DOCKED: ENDBRANCH  43  45
DOCKED: BRANCH  43  47
DOCKED: ATOM     47  O   UNL d   1     -11.577  17.349   4.378 -0.14 +0.03    -0.303 OA
DOCKED: ATOM     48  H   UNL d   1     -11.110  17.974   3.785 +0.07 +0.03    +0.222 HD
DOCKED: ENDBRANCH  43  47
DOCKED: ENDBRANCH  42  43
DOCKED: ENDBRANCH   4  42
DOCKED: TORSDOF 24
DOCKED: TER
DOCKED: ENDMDL
________________________________________________________________________________


	BEGINNING GENETIC ALGORITHM DOCKING 33 of 100
Run: 33 Seed: 710803547 215876281 [ Run 33 of 100 GA/GALS ]
Beginning LAMARCKIAN GENETIC ALGORITHM (LGA), with a maximum of 25000000 energy evaluations.

Final-Value: -20.657


	FINAL GENETIC ALGORITHM DOCKED STATE
	_______________________________________________


Detailed state:  trans -6.938 -7.745 -12.905 quatxyzw 0.731570 -0.113287 -0.017188 -0.672069 center 0.035 0.082 -0.065 ntor 24 66.6612 96.7815 88.4019 168.0223 168.8131 -168.5993 -86.9528 -50.9782 -42.9257 -16.1168 174.0022 -99.3099 -77.7978 58.7953 78.5510 42.1775 170.8564 77.3900 -145.8348 -3.2224 22.7552 -12.3231 -175.9088 27.4583
State:	 -6.938  -7.745 -12.905   0.988 -0.153 -0.023 -95.546     66.66   96.78   88.40  168.02  168.81 -168.60  -86.95  -50.98  -42.93  -16.12  174.00  -99.31  -77.80   58.80   78.55   42.18  170.86   77.39 -145.83   -3.22   22.76  -12.32 -175.91   27.46

DOCKED: MODEL       33
DOCKED: USER    Run = 33
DOCKED: USER    DPF = D:/Protein_go_brrr/autodock/final/AncMH_nat/IHP/dock.dpf
DOCKED: USER  
DOCKED: USER    Estimated Free Energy of Binding    =   +1.45 kcal/mol  [=(1)+(2)+(3)-(4)]
DOCKED: USER    
DOCKED: USER    (1) Final Intermolecular Energy     =   -5.71 kcal/mol
DOCKED: USER        vdW + Hbond + desolv Energy     =   -5.38 kcal/mol
DOCKED: USER        Electrostatic Energy            =   -0.32 kcal/mol
DOCKED: USER    (2) Final Total Internal Energy     =  -14.95 kcal/mol
DOCKED: USER    (3) Torsional Free Energy           =   +7.16 kcal/mol
DOCKED: USER    (4) Unbound System's Energy  [=(2)] =  -14.95 kcal/mol
DOCKED: USER    
DOCKED: USER    
DOCKED: USER    NEWDPF move IHP_ideal_opt.pdbqt
DOCKED: USER    NEWDPF about 0.035000 0.082000 -0.065000
DOCKED: USER    NEWDPF tran0 -6.937818 -7.744905 -12.905364
DOCKED: USER    NEWDPF quaternion0 0.731570 -0.113287 -0.017188 -0.672069
DOCKED: USER    NEWDPF axisangle0 0.987955 -0.152989 -0.023212 -95.546172
DOCKED: USER    NEWDPF quat0 0.987955 -0.152989 -0.023212 -95.546172
DOCKED: USER    NEWDPF dihe0 66.66 96.78 88.40 168.02 168.81 -168.60 -86.95 -50.98 -42.93 -16.12 174.00 -99.31 -77.80 58.80 78.55 42.18 170.86 77.39 -145.83 -3.22 22.76 -12.32 -175.91 27.46 
DOCKED: USER  keepresnum = 1 
DOCKED: USER  
DOCKED: REMARK  24 active torsions:
DOCKED: REMARK  status: ('A' for Active; 'I' for Inactive)
DOCKED: REMARK    1  A    between atoms: C_1  and  O_7 
DOCKED: REMARK    2  A    between atoms: C_2  and  O_12 
DOCKED: REMARK    3  A    between atoms: C_3  and  O_17 
DOCKED: REMARK    4  A    between atoms: C_4  and  O_22 
DOCKED: REMARK    5  A    between atoms: C_5  and  O_27 
DOCKED: REMARK    6  A    between atoms: C_6  and  O_32 
DOCKED: REMARK    7  A    between atoms: O_7  and  P_8 
DOCKED: REMARK    8  A    between atoms: P_8  and  O_10 
DOCKED: REMARK    9  A    between atoms: P_8  and  O_11 
DOCKED: REMARK   10  A    between atoms: O_12  and  P_13 
DOCKED: REMARK   11  A    between atoms: P_13  and  O_15 
DOCKED: REMARK   12  A    between atoms: P_13  and  O_16 
DOCKED: REMARK   13  A    between atoms: O_17  and  P_18 
DOCKED: REMARK   14  A    between atoms: P_18  and  O_20 
DOCKED: REMARK   15  A    between atoms: P_18  and  O_21 
DOCKED: REMARK   16  A    between atoms: O_22  and  P_23 
DOCKED: REMARK   17  A    between atoms: P_23  and  O_25 
DOCKED: REMARK   18  A    between atoms: P_23  and  O_26 
DOCKED: REMARK   19  A    between atoms: O_27  and  P_28 
DOCKED: REMARK   20  A    between atoms: P_28  and  O_30 
DOCKED: REMARK   21  A    between atoms: P_28  and  O_31 
DOCKED: REMARK   22  A    between atoms: O_32  and  P_33 
DOCKED: REMARK   23  A    between atoms: P_33  and  O_35 
DOCKED: REMARK   24  A    between atoms: P_33  and  O_36 
DOCKED: USER                              x       y       z     vdW  Elec       q    Type
DOCKED: USER                           _______ _______ _______ _____ _____    ______ ____
DOCKED: ROOT
DOCKED: ATOM      1  C   UNL d   1      -5.731  -8.693 -13.699 -0.03 +0.01    +0.194 C 
DOCKED: ATOM      2  C   UNL d   1      -6.766  -8.039 -14.616 -0.01 +0.02    +0.194 C 
DOCKED: ATOM      3  C   UNL d   1      -8.183  -8.161 -14.049 -0.01 +0.04    +0.194 C 
DOCKED: ATOM      4  C   UNL d   1      -8.298  -7.672 -12.607 -0.05 +0.10    +0.194 C 
DOCKED: ATOM      5  C   UNL d   1      -7.215  -8.210 -11.681 -0.08 +0.10    +0.194 C 
DOCKED: ATOM      6  C   UNL d   1      -5.805  -8.145 -12.273 -0.08 +0.03    +0.194 C 
DOCKED: ENDROOT
DOCKED: BRANCH   1   7
DOCKED: ATOM      7  O   UNL d   1      -4.430  -8.388 -14.206 -0.04 +0.01    -0.278 OA
DOCKED: BRANCH   7   8
DOCKED: ATOM      8  P   UNL d   1      -3.687  -7.085 -13.656 -0.17 -0.03    +0.473 P 
DOCKED: ATOM      9  O   UNL d   1      -4.587  -6.008 -13.161 -0.13 +0.00    -0.228 OA
DOCKED: BRANCH   8  10
DOCKED: ATOM     10  O   UNL d   1      -2.702  -7.646 -12.534 -0.26 +0.08    -0.303 OA
DOCKED: ATOM     11  H   UNL d   1      -3.152  -7.634 -11.669 -0.20 -0.06    +0.222 HD
DOCKED: ENDBRANCH   8  10
DOCKED: BRANCH   8  12
DOCKED: ATOM     12  O   UNL d   1      -2.676  -6.669 -14.809 -0.14 +0.02    -0.303 OA
DOCKED: ATOM     13  H   UNL d   1      -3.106  -6.595 -15.691 +0.04 -0.01    +0.222 HD
DOCKED: ENDBRANCH   8  12
DOCKED: ENDBRANCH   7   8
DOCKED: ENDBRANCH   1   7
DOCKED: BRANCH   2  14
DOCKED: ATOM     14  O   UNL d   1      -6.450  -6.649 -14.760 -0.05 -0.02    -0.278 OA
DOCKED: BRANCH  14  15
DOCKED: ATOM     15  P   UNL d   1      -6.356  -6.087 -16.256 -0.03 +0.02    +0.473 P 
DOCKED: ATOM     16  O   UNL d   1      -7.385  -5.079 -16.662 -0.02 -0.01    -0.228 OA
DOCKED: BRANCH  15  17
DOCKED: ATOM     17  O   UNL d   1      -4.868  -5.531 -16.369 -0.06 -0.01    -0.303 OA
DOCKED: ATOM     18  H   UNL d   1      -4.419  -5.550 -15.502 +0.03 +0.01    +0.222 HD
DOCKED: ENDBRANCH  15  17
DOCKED: BRANCH  15  19
DOCKED: ATOM     19  O   UNL d   1      -6.279  -7.391 -17.165 -0.00 -0.00    -0.303 OA
DOCKED: ATOM     20  H   UNL d   1      -7.106  -7.534 -17.661 +0.00 +0.00    +0.222 HD
DOCKED: ENDBRANCH  15  19
DOCKED: ENDBRANCH  14  15
DOCKED: ENDBRANCH   2  14
DOCKED: BRANCH   6  21
DOCKED: ATOM     21  O   UNL d   1      -4.978  -8.977 -11.462 -0.08 -0.02    -0.278 OA
DOCKED: BRANCH  21  22
DOCKED: ATOM     22  P   UNL d   1      -4.430  -8.429 -10.068 -0.24 +0.06    +0.473 P 
DOCKED: ATOM     23  O   UNL d   1      -5.000  -8.999  -8.813 -0.77 -0.08    -0.228 OA
DOCKED: BRANCH  22  24
DOCKED: ATOM     24  O   UNL d   1      -2.859  -8.625 -10.237 -0.49 +0.03    -0.303 OA
DOCKED: ATOM     25  H   UNL d   1      -2.458  -7.741 -10.438 -0.41 -0.09    +0.222 HD
DOCKED: ENDBRANCH  22  24
DOCKED: BRANCH  22  26
DOCKED: ATOM     26  O   UNL d   1      -4.588  -6.844 -10.256 -0.29 -0.03    -0.303 OA
DOCKED: ATOM     27  H   UNL d   1      -5.202  -6.668 -10.997 +0.10 +0.02    +0.222 HD
DOCKED: ENDBRANCH  22  26
DOCKED: ENDBRANCH  21  22
DOCKED: ENDBRANCH   6  21
DOCKED: BRANCH   3  28
DOCKED: ATOM     28  O   UNL d   1      -9.023  -7.300 -14.808 +0.00 -0.04    -0.278 OA
DOCKED: BRANCH  28  29
DOCKED: ATOM     29  P   UNL d   1      -9.913  -7.884 -15.992 +0.01 +0.04    +0.473 P 
DOCKED: ATOM     30  O   UNL d   1     -10.091  -9.359 -15.993 +0.00 -0.02    -0.228 OA
DOCKED: BRANCH  29  31
DOCKED: ATOM     31  O   UNL d   1     -11.231  -6.993 -15.816 +0.00 -0.03    -0.303 OA
DOCKED: ATOM     32  H   UNL d   1     -11.373  -6.829 -14.855 +0.00 +0.03    +0.222 HD
DOCKED: ENDBRANCH  29  31
DOCKED: BRANCH  29  33
DOCKED: ATOM     33  O   UNL d   1      -9.224  -7.242 -17.276 +0.00 -0.01    -0.303 OA
DOCKED: ATOM     34  H   UNL d   1      -8.389  -6.790 -17.000 +0.01 +0.01    +0.222 HD
DOCKED: ENDBRANCH  29  33
DOCKED: ENDBRANCH  28  29
DOCKED: ENDBRANCH   3  28
DOCKED: BRANCH   5  35
DOCKED: ATOM     35  O   UNL d   1      -7.228  -7.361 -10.535 -0.11 -0.22    -0.278 OA
DOCKED: BRANCH  35  36
DOCKED: ATOM     36  P   UNL d   1      -7.297  -5.777 -10.708 -0.11 +0.19    +0.473 P 
DOCKED: ATOM     37  O   UNL d   1      -6.532  -4.984  -9.697 -0.28 -0.05    -0.228 OA
DOCKED: BRANCH  36  38
DOCKED: ATOM     38  O   UNL d   1      -6.790  -5.590 -12.206 -0.12 -0.02    -0.303 OA
DOCKED: ATOM     39  H   UNL d   1      -5.924  -5.128 -12.197 -0.50 -0.05    +0.222 HD
DOCKED: ENDBRANCH  36  38
DOCKED: BRANCH  36  40
DOCKED: ATOM     40  O   UNL d   1      -8.863  -5.513 -10.798 -0.09 -0.21    -0.303 OA
DOCKED: ATOM     41  H   UNL d   1      -9.275  -6.012 -11.538 +0.03 +0.16    +0.222 HD
DOCKED: ENDBRANCH  36  40
DOCKED: ENDBRANCH  35  36
DOCKED: ENDBRANCH   5  35
DOCKED: BRANCH   4  42
DOCKED: ATOM     42  O   UNL d   1      -9.553  -8.146 -12.108 -0.55 -0.30    -0.278 OA
DOCKED: BRANCH  42  43
DOCKED: ATOM     43  P   UNL d   1     -10.873  -7.306 -12.418 -0.02 +0.33    +0.473 P 
DOCKED: ATOM     44  O   UNL d   1     -11.986  -8.009 -13.116 -0.01 -0.08    -0.228 OA
DOCKED: BRANCH  43  45
DOCKED: ATOM     45  O   UNL d   1     -11.264  -6.729 -10.987 -0.20 -0.37    -0.303 OA
DOCKED: ATOM     46  H   UNL d   1     -10.991  -5.795 -10.891 +0.01 +0.18    +0.222 HD
DOCKED: ENDBRANCH  43  45
DOCKED: BRANCH  43  47
DOCKED: ATOM     47  O   UNL d   1     -10.311  -5.998 -13.154 -0.01 -0.10    -0.303 OA
DOCKED: ATOM     48  H   UNL d   1     -10.121  -6.212 -14.091 +0.01 +0.04    +0.222 HD
DOCKED: ENDBRANCH  43  47
DOCKED: ENDBRANCH  42  43
DOCKED: ENDBRANCH   4  42
DOCKED: TORSDOF 24
DOCKED: TER
DOCKED: ENDMDL
________________________________________________________________________________


	BEGINNING GENETIC ALGORITHM DOCKING 34 of 100
Run: 34 Seed: 1264624205 1134946278 [ Run 34 of 100 GA/GALS ]
Beginning LAMARCKIAN GENETIC ALGORITHM (LGA), with a maximum of 25000000 energy evaluations.

Final-Value: -17.368


	FINAL GENETIC ALGORITHM DOCKED STATE
	_______________________________________________


Detailed state:  trans 4.295 -1.305 -15.102 quatxyzw -0.201666 0.923969 0.186559 -0.266096 center 0.035 0.082 -0.065 ntor 24 -142.4847 -4.9079 131.9941 50.2364 64.4280 -110.5444 -28.6751 2.5980 95.7963 15.3524 119.6292 -64.4004 -143.8079 -150.5607 -63.0313 41.2498 158.6564 -117.9671 28.4699 -40.6221 149.2541 -51.6177 -19.2050 147.5821
State:	  4.295  -1.305 -15.102  -0.209  0.959  0.194 -149.136   -142.48   -4.91  131.99   50.24   64.43 -110.54  -28.68    2.60   95.80   15.35  119.63  -64.40 -143.81 -150.56  -63.03   41.25  158.66 -117.97   28.47  -40.62  149.25  -51.62  -19.20  147.58

DOCKED: MODEL       34
DOCKED: USER    Run = 34
DOCKED: USER    DPF = D:/Protein_go_brrr/autodock/final/AncMH_nat/IHP/dock.dpf
DOCKED: USER  
DOCKED: USER    Estimated Free Energy of Binding    =   +2.83 kcal/mol  [=(1)+(2)+(3)-(4)]
DOCKED: USER    
DOCKED: USER    (1) Final Intermolecular Energy     =   -4.33 kcal/mol
DOCKED: USER        vdW + Hbond + desolv Energy     =   -4.00 kcal/mol
DOCKED: USER        Electrostatic Energy            =   -0.33 kcal/mol
DOCKED: USER    (2) Final Total Internal Energy     =  -13.04 kcal/mol
DOCKED: USER    (3) Torsional Free Energy           =   +7.16 kcal/mol
DOCKED: USER    (4) Unbound System's Energy  [=(2)] =  -13.04 kcal/mol
DOCKED: USER    
DOCKED: USER    
DOCKED: USER    NEWDPF move IHP_ideal_opt.pdbqt
DOCKED: USER    NEWDPF about 0.035000 0.082000 -0.065000
DOCKED: USER    NEWDPF tran0 4.295125 -1.305418 -15.101834
DOCKED: USER    NEWDPF quaternion0 -0.201666 0.923969 0.186559 -0.266096
DOCKED: USER    NEWDPF axisangle0 -0.209209 0.958527 0.193537 -149.135857
DOCKED: USER    NEWDPF quat0 -0.209209 0.958527 0.193537 -149.135857
DOCKED: USER    NEWDPF dihe0 -142.48 -4.91 131.99 50.24 64.43 -110.54 -28.68 2.60 95.80 15.35 119.63 -64.40 -143.81 -150.56 -63.03 41.25 158.66 -117.97 28.47 -40.62 149.25 -51.62 -19.20 147.58 
DOCKED: USER  keepresnum = 1 
DOCKED: USER  
DOCKED: REMARK  24 active torsions:
DOCKED: REMARK  status: ('A' for Active; 'I' for Inactive)
DOCKED: REMARK    1  A    between atoms: C_1  and  O_7 
DOCKED: REMARK    2  A    between atoms: C_2  and  O_12 
DOCKED: REMARK    3  A    between atoms: C_3  and  O_17 
DOCKED: REMARK    4  A    between atoms: C_4  and  O_22 
DOCKED: REMARK    5  A    between atoms: C_5  and  O_27 
DOCKED: REMARK    6  A    between atoms: C_6  and  O_32 
DOCKED: REMARK    7  A    between atoms: O_7  and  P_8 
DOCKED: REMARK    8  A    between atoms: P_8  and  O_10 
DOCKED: REMARK    9  A    between atoms: P_8  and  O_11 
DOCKED: REMARK   10  A    between atoms: O_12  and  P_13 
DOCKED: REMARK   11  A    between atoms: P_13  and  O_15 
DOCKED: REMARK   12  A    between atoms: P_13  and  O_16 
DOCKED: REMARK   13  A    between atoms: O_17  and  P_18 
DOCKED: REMARK   14  A    between atoms: P_18  and  O_20 
DOCKED: REMARK   15  A    between atoms: P_18  and  O_21 
DOCKED: REMARK   16  A    between atoms: O_22  and  P_23 
DOCKED: REMARK   17  A    between atoms: P_23  and  O_25 
DOCKED: REMARK   18  A    between atoms: P_23  and  O_26 
DOCKED: REMARK   19  A    between atoms: O_27  and  P_28 
DOCKED: REMARK   20  A    between atoms: P_28  and  O_30 
DOCKED: REMARK   21  A    between atoms: P_28  and  O_31 
DOCKED: REMARK   22  A    between atoms: O_32  and  P_33 
DOCKED: REMARK   23  A    between atoms: P_33  and  O_35 
DOCKED: REMARK   24  A    between atoms: P_33  and  O_36 
DOCKED: USER                              x       y       z     vdW  Elec       q    Type
DOCKED: USER                           _______ _______ _______ _____ _____    ______ ____
DOCKED: ROOT
DOCKED: ATOM      1  C   UNL d   1       4.070  -2.044 -16.647 -0.05 -0.02    +0.194 C 
DOCKED: ATOM      2  C   UNL d   1       5.266  -2.553 -15.839 -0.11 -0.02    +0.194 C 
DOCKED: ATOM      3  C   UNL d   1       6.031  -1.405 -15.178 -0.18 -0.05    +0.194 C 
DOCKED: ATOM      4  C   UNL d   1       5.136  -0.476 -14.361 -0.02 -0.05    +0.194 C 
DOCKED: ATOM      5  C   UNL d   1       3.872  -0.036 -15.088 -0.15 -0.03    +0.194 C 
DOCKED: ATOM      6  C   UNL d   1       3.139  -1.174 -15.802 -0.09 -0.02    +0.194 C 
DOCKED: ENDROOT
DOCKED: BRANCH   1   7
DOCKED: ATOM      7  O   UNL d   1       3.314  -3.176 -17.085 -0.03 +0.03    -0.278 OA
DOCKED: BRANCH   7   8
DOCKED: ATOM      8  P   UNL d   1       3.615  -3.775 -18.535 +0.00 -0.05    +0.473 P 
DOCKED: ATOM      9  O   UNL d   1       2.774  -3.224 -19.632 -0.00 +0.02    -0.228 OA
DOCKED: BRANCH   8  10
DOCKED: ATOM     10  O   UNL d   1       5.174  -3.511 -18.746 -0.00 +0.04    -0.303 OA
DOCKED: ATOM     11  H   UNL d   1       5.680  -3.964 -18.046 +0.01 -0.03    +0.222 HD
DOCKED: ENDBRANCH   8  10
DOCKED: BRANCH   8  12
DOCKED: ATOM     12  O   UNL d   1       3.566  -5.352 -18.349 -0.00 +0.03    -0.303 OA
DOCKED: ATOM     13  H   UNL d   1       4.116  -5.668 -17.597 +0.02 -0.02    +0.222 HD
DOCKED: ENDBRANCH   8  12
DOCKED: ENDBRANCH   7   8
DOCKED: ENDBRANCH   1   7
DOCKED: BRANCH   2  14
DOCKED: ATOM     14  O   UNL d   1       4.795  -3.438 -14.815 -0.10 +0.02    -0.278 OA
DOCKED: BRANCH  14  15
DOCKED: ATOM     15  P   UNL d   1       4.716  -4.992 -15.192 -0.09 -0.06    +0.473 P 
DOCKED: ATOM     16  O   UNL d   1       3.393  -5.501 -15.672 -0.12 +0.03    -0.228 OA
DOCKED: BRANCH  15  17
DOCKED: ATOM     17  O   UNL d   1       5.879  -5.190 -16.263 -0.04 +0.03    -0.303 OA
DOCKED: ATOM     18  H   UNL d   1       6.653  -4.635 -16.048 +0.05 -0.02    +0.222 HD
DOCKED: ENDBRANCH  15  17
DOCKED: BRANCH  15  19
DOCKED: ATOM     19  O   UNL d   1       5.320  -5.739 -13.924 -0.22 +0.04    -0.303 OA
DOCKED: ATOM     20  H   UNL d   1       5.725  -5.113 -13.296 +0.10 -0.03    +0.222 HD
DOCKED: ENDBRANCH  15  19
DOCKED: ENDBRANCH  14  15
DOCKED: ENDBRANCH   2  14
DOCKED: BRANCH   6  21
DOCKED: ATOM     21  O   UNL d   1       2.207  -0.568 -16.695 -0.02 +0.03    -0.278 OA
DOCKED: BRANCH  21  22
DOCKED: ATOM     22  P   UNL d   1       2.677   0.630 -17.637 +0.01 -0.06    +0.473 P 
DOCKED: ATOM     23  O   UNL d   1       3.722   1.562 -17.123 -0.02 +0.04    -0.228 OA
DOCKED: BRANCH  22  24
DOCKED: ATOM     24  O   UNL d   1       3.070  -0.141 -18.973 -0.00 +0.04    -0.303 OA
DOCKED: ATOM     25  H   UNL d   1       2.936  -1.111 -18.819 +0.01 -0.02    +0.222 HD
DOCKED: ENDBRANCH  22  24
DOCKED: BRANCH  22  26
DOCKED: ATOM     26  O   UNL d   1       1.276   1.297 -18.039 +0.00 +0.03    -0.303 OA
DOCKED: ATOM     27  H   UNL d   1       0.935   1.811 -17.279 +0.02 -0.02    +0.222 HD
DOCKED: ENDBRANCH  22  26
DOCKED: ENDBRANCH  21  22
DOCKED: ENDBRANCH   6  21
DOCKED: BRANCH   3  28
DOCKED: ATOM     28  O   UNL d   1       6.935  -1.977 -14.241 -0.26 +0.07    -0.278 OA
DOCKED: BRANCH  28  29
DOCKED: ATOM     29  P   UNL d   1       8.043  -3.015 -14.723 -0.14 -0.06    +0.473 P 
DOCKED: ATOM     30  O   UNL d   1       8.288  -3.057 -16.187 -0.04 +0.04    -0.228 OA
DOCKED: BRANCH  29  31
DOCKED: ATOM     31  O   UNL d   1       9.267  -2.568 -13.794 -0.21 +0.01    -0.303 OA
DOCKED: ATOM     32  H   UNL d   1       8.908  -2.104 -13.003 -0.29 -0.05    +0.222 HD
DOCKED: ENDBRANCH  29  31
DOCKED: BRANCH  29  33
DOCKED: ATOM     33  O   UNL d   1       7.555  -4.367 -14.036 -0.20 -0.01    -0.303 OA
DOCKED: ATOM     34  H   UNL d   1       6.660  -4.599 -14.384 +0.08 -0.01    +0.222 HD
DOCKED: ENDBRANCH  29  33
DOCKED: ENDBRANCH  28  29
DOCKED: ENDBRANCH   3  28
DOCKED: BRANCH   5  35
DOCKED: ATOM     35  O   UNL d   1       2.996   0.458 -14.077 -0.21 +0.04    -0.278 OA
DOCKED: BRANCH  35  36
DOCKED: ATOM     36  P   UNL d   1       2.650   2.014 -14.002 -0.17 -0.05    +0.473 P 
DOCKED: ATOM     37  O   UNL d   1       2.197   2.510 -12.666 -0.38 +0.01    -0.228 OA
DOCKED: BRANCH  36  38
DOCKED: ATOM     38  O   UNL d   1       4.002   2.674 -14.522 -0.18 +0.04    -0.303 OA
DOCKED: ATOM     39  H   UNL d   1       4.470   2.035 -15.101 +0.08 -0.05    +0.222 HD
DOCKED: ENDBRANCH  36  38
DOCKED: BRANCH  36  40
DOCKED: ATOM     40  O   UNL d   1       1.642   2.196 -15.220 -0.04 +0.02    -0.303 OA
DOCKED: ATOM     41  H   UNL d   1       1.791   1.523 -15.920 +0.05 -0.02    +0.222 HD
DOCKED: ENDBRANCH  36  40
DOCKED: ENDBRANCH  35  36
DOCKED: ENDBRANCH   5  35
DOCKED: BRANCH   4  42
DOCKED: ATOM     42  O   UNL d   1       5.900   0.704 -14.092 -0.18 +0.16    -0.278 OA
DOCKED: BRANCH  42  43
DOCKED: ATOM     43  P   UNL d   1       6.897   1.250 -15.210 -0.13 -0.39    +0.473 P 
DOCKED: ATOM     44  O   UNL d   1       8.145   0.474 -15.456 -0.16 +0.24    -0.228 OA
DOCKED: BRANCH  43  45
DOCKED: ATOM     45  O   UNL d   1       5.953   1.385 -16.484 -0.04 +0.12    -0.303 OA
DOCKED: ATOM     46  H   UNL d   1       5.111   1.829 -16.260 +0.06 -0.06    +0.222 HD
DOCKED: ENDBRANCH  43  45
DOCKED: BRANCH  43  47
DOCKED: ATOM     47  O   UNL d   1       7.107   2.784 -14.797 -0.22 +0.34    -0.303 OA
DOCKED: ATOM     48  H   UNL d   1       8.041   2.923 -14.536 -0.40 -0.58    +0.222 HD
DOCKED: ENDBRANCH  43  47
DOCKED: ENDBRANCH  42  43
DOCKED: ENDBRANCH   4  42
DOCKED: TORSDOF 24
DOCKED: TER
DOCKED: ENDMDL
________________________________________________________________________________


	BEGINNING GENETIC ALGORITHM DOCKING 35 of 100
Run: 35 Seed: 1792600471 1272841022 [ Run 35 of 100 GA/GALS ]
Beginning LAMARCKIAN GENETIC ALGORITHM (LGA), with a maximum of 25000000 energy evaluations.

Final-Value: -19.209


	FINAL GENETIC ALGORITHM DOCKED STATE
	_______________________________________________


Detailed state:  trans 1.460 18.386 -6.323 quatxyzw 0.858312 0.215763 -0.337290 -0.320910 center 0.035 0.082 -0.065 ntor 24 103.1136 -17.2816 122.3783 114.5181 -13.0642 -139.5253 -43.8382 -40.7618 12.9452 13.1362 84.3599 -86.3730 152.9542 68.2412 -19.3935 18.5401 -179.9842 77.9881 -1.1333 6.9542 -21.0361 -20.0030 -25.5287 28.8072
State:	  1.460  18.386  -6.323   0.906  0.228 -0.356 -142.564    103.11  -17.28  122.38  114.52  -13.06 -139.53  -43.84  -40.76   12.95   13.14   84.36  -86.37  152.95   68.24  -19.39   18.54 -179.98   77.99   -1.13    6.95  -21.04  -20.00  -25.53   28.81

DOCKED: MODEL       35
DOCKED: USER    Run = 35
DOCKED: USER    DPF = D:/Protein_go_brrr/autodock/final/AncMH_nat/IHP/dock.dpf
DOCKED: USER  
DOCKED: USER    Estimated Free Energy of Binding    =   -0.18 kcal/mol  [=(1)+(2)+(3)-(4)]
DOCKED: USER    Estimated Inhibition Constant, Ki   =  737.75 mM (millimolar)  [Temperature = 298.15 K]
DOCKED: USER    
DOCKED: USER    (1) Final Intermolecular Energy     =   -7.34 kcal/mol
DOCKED: USER        vdW + Hbond + desolv Energy     =   -6.99 kcal/mol
DOCKED: USER        Electrostatic Energy            =   -0.35 kcal/mol
DOCKED: USER    (2) Final Total Internal Energy     =  -11.87 kcal/mol
DOCKED: USER    (3) Torsional Free Energy           =   +7.16 kcal/mol
DOCKED: USER    (4) Unbound System's Energy  [=(2)] =  -11.87 kcal/mol
DOCKED: USER    
DOCKED: USER    
DOCKED: USER    NEWDPF move IHP_ideal_opt.pdbqt
DOCKED: USER    NEWDPF about 0.035000 0.082000 -0.065000
DOCKED: USER    NEWDPF tran0 1.460058 18.385533 -6.323479
DOCKED: USER    NEWDPF quaternion0 0.858312 0.215763 -0.337290 -0.320910
DOCKED: USER    NEWDPF axisangle0 0.906243 0.227812 -0.356125 -142.564075
DOCKED: USER    NEWDPF quat0 0.906243 0.227812 -0.356125 -142.564075
DOCKED: USER    NEWDPF dihe0 103.11 -17.28 122.38 114.52 -13.06 -139.53 -43.84 -40.76 12.95 13.14 84.36 -86.37 152.95 68.24 -19.39 18.54 -179.98 77.99 -1.13 6.95 -21.04 -20.00 -25.53 28.81 
DOCKED: USER  keepresnum = 1 
DOCKED: USER  
DOCKED: REMARK  24 active torsions:
DOCKED: REMARK  status: ('A' for Active; 'I' for Inactive)
DOCKED: REMARK    1  A    between atoms: C_1  and  O_7 
DOCKED: REMARK    2  A    between atoms: C_2  and  O_12 
DOCKED: REMARK    3  A    between atoms: C_3  and  O_17 
DOCKED: REMARK    4  A    between atoms: C_4  and  O_22 
DOCKED: REMARK    5  A    between atoms: C_5  and  O_27 
DOCKED: REMARK    6  A    between atoms: C_6  and  O_32 
DOCKED: REMARK    7  A    between atoms: O_7  and  P_8 
DOCKED: REMARK    8  A    between atoms: P_8  and  O_10 
DOCKED: REMARK    9  A    between atoms: P_8  and  O_11 
DOCKED: REMARK   10  A    between atoms: O_12  and  P_13 
DOCKED: REMARK   11  A    between atoms: P_13  and  O_15 
DOCKED: REMARK   12  A    between atoms: P_13  and  O_16 
DOCKED: REMARK   13  A    between atoms: O_17  and  P_18 
DOCKED: REMARK   14  A    between atoms: P_18  and  O_20 
DOCKED: REMARK   15  A    between atoms: P_18  and  O_21 
DOCKED: REMARK   16  A    between atoms: O_22  and  P_23 
DOCKED: REMARK   17  A    between atoms: P_23  and  O_25 
DOCKED: REMARK   18  A    between atoms: P_23  and  O_26 
DOCKED: REMARK   19  A    between atoms: O_27  and  P_28 
DOCKED: REMARK   20  A    between atoms: P_28  and  O_30 
DOCKED: REMARK   21  A    between atoms: P_28  and  O_31 
DOCKED: REMARK   22  A    between atoms: O_32  and  P_33 
DOCKED: REMARK   23  A    between atoms: P_33  and  O_35 
DOCKED: REMARK   24  A    between atoms: P_33  and  O_36 
DOCKED: USER                              x       y       z     vdW  Elec       q    Type
DOCKED: USER                           _______ _______ _______ _____ _____    ______ ____
DOCKED: ROOT
DOCKED: ATOM      1  C   UNL d   1       1.442  18.650  -8.031 -0.03 -0.05    +0.194 C 
DOCKED: ATOM      2  C   UNL d   1       0.285  19.278  -7.252 -0.05 -0.04    +0.194 C 
DOCKED: ATOM      3  C   UNL d   1      -0.275  18.321  -6.198 -0.15 -0.02    +0.194 C 
DOCKED: ATOM      4  C   UNL d   1       0.798  17.749  -5.275 -0.16 -0.01    +0.194 C 
DOCKED: ATOM      5  C   UNL d   1       2.024  17.214  -6.005 -0.19 -0.01    +0.194 C 
DOCKED: ATOM      6  C   UNL d   1       2.546  18.145  -7.101 -0.13 -0.01    +0.194 C 
DOCKED: ENDROOT
DOCKED: BRANCH   1   7
DOCKED: ATOM      7  O   UNL d   1       2.016  19.657  -8.867 -0.06 +0.04    -0.278 OA
DOCKED: BRANCH   7   8
DOCKED: ATOM      8  P   UNL d   1       2.101  19.382 -10.438 -0.07 -0.10    +0.473 P 
DOCKED: ATOM      9  O   UNL d   1       3.165  20.137 -11.154 -0.02 +0.04    -0.228 OA
DOCKED: BRANCH   8  10
DOCKED: ATOM     10  O   UNL d   1       2.274  17.800 -10.544 -0.17 +0.15    -0.303 OA
DOCKED: ATOM     11  H   UNL d   1       3.040  17.518 -10.011 -0.15 -0.08    +0.222 HD
DOCKED: ENDBRANCH   8  10
DOCKED: BRANCH   8  12
DOCKED: ATOM     12  O   UNL d   1       0.621  19.592 -10.975 -0.08 +0.07    -0.303 OA
DOCKED: ATOM     13  H   UNL d   1      -0.023  18.955 -10.589 -0.08 -0.07    +0.222 HD
DOCKED: ENDBRANCH   8  12
DOCKED: ENDBRANCH   7   8
DOCKED: ENDBRANCH   1   7
DOCKED: BRANCH   2  14
DOCKED: ATOM     14  O   UNL d   1       0.754  20.461  -6.592 -0.02 +0.02    -0.278 OA
DOCKED: BRANCH  14  15
DOCKED: ATOM     15  P   UNL d   1      -0.224  21.729  -6.616 +0.01 -0.02    +0.473 P 
DOCKED: ATOM     16  O   UNL d   1      -0.605  22.309  -5.290 -0.00 +0.00    -0.228 OA
DOCKED: BRANCH  15  17
DOCKED: ATOM     17  O   UNL d   1       0.523  22.776  -7.556 -0.00 +0.01    -0.303 OA
DOCKED: ATOM     18  H   UNL d   1       1.104  22.322  -8.196 +0.01 -0.01    +0.222 HD
DOCKED: ENDBRANCH  15  17
DOCKED: BRANCH  15  19
DOCKED: ATOM     19  O   UNL d   1      -1.437  21.278  -7.541 -0.01 +0.02    -0.303 OA
DOCKED: ATOM     20  H   UNL d   1      -1.840  20.448  -7.227 +0.04 -0.02    +0.222 HD
DOCKED: ENDBRANCH  15  19
DOCKED: ENDBRANCH  14  15
DOCKED: ENDBRANCH   2  14
DOCKED: BRANCH   6  21
DOCKED: ATOM     21  O   UNL d   1       3.445  17.378  -7.899 -0.21 -0.01    -0.278 OA
DOCKED: BRANCH  21  22
DOCKED: ATOM     22  P   UNL d   1       4.948  17.875  -8.099 -0.07 +0.12    +0.473 P 
DOCKED: ATOM     23  O   UNL d   1       5.438  18.998  -7.248 -0.06 -0.01    -0.228 OA
DOCKED: BRANCH  22  24
DOCKED: ATOM     24  O   UNL d   1       5.763  16.517  -7.945 -0.34 -0.18    -0.303 OA
DOCKED: ATOM     25  H   UNL d   1       5.842  16.312  -6.978 -0.38 +0.01    +0.222 HD
DOCKED: ENDBRANCH  22  24
DOCKED: BRANCH  22  26
DOCKED: ATOM     26  O   UNL d   1       5.003  18.116  -9.683 -0.55 -0.11    -0.303 OA
DOCKED: ATOM     27  H   UNL d   1       4.208  18.615  -9.960 +0.05 -0.00    +0.222 HD
DOCKED: ENDBRANCH  22  26
DOCKED: ENDBRANCH  21  22
DOCKED: ENDBRANCH   6  21
DOCKED: BRANCH   3  28
DOCKED: ATOM     28  O   UNL d   1      -1.138  19.071  -5.353 -0.08 +0.00    -0.278 OA
DOCKED: BRANCH  28  29
DOCKED: ATOM     29  P   UNL d   1      -2.689  19.194  -5.692 -0.15 -0.00    +0.473 P 
DOCKED: ATOM     30  O   UNL d   1      -3.104  18.632  -7.003 -0.25 +0.03    -0.228 OA
DOCKED: BRANCH  29  31
DOCKED: ATOM     31  O   UNL d   1      -3.316  18.520  -4.383 -0.12 -0.05    -0.303 OA
DOCKED: ATOM     32  H   UNL d   1      -2.591  18.360  -3.735 +0.09 +0.06    +0.222 HD
DOCKED: ENDBRANCH  29  31
DOCKED: BRANCH  29  33
DOCKED: ATOM     33  O   UNL d   1      -2.962  20.745  -5.455 -0.02 +0.01    -0.303 OA
DOCKED: ATOM     34  H   UNL d   1      -2.099  21.228  -5.466 +0.03 -0.00    +0.222 HD
DOCKED: ENDBRANCH  29  33
DOCKED: ENDBRANCH  28  29
DOCKED: ENDBRANCH   3  28
DOCKED: BRANCH   5  35
DOCKED: ATOM     35  O   UNL d   1       3.048  17.112  -5.018 -0.11 -0.01    -0.278 OA
DOCKED: BRANCH  35  36
DOCKED: ATOM     36  P   UNL d   1       3.469  15.686  -4.441 -0.26 +0.04    +0.473 P 
DOCKED: ATOM     37  O   UNL d   1       3.645  15.617  -2.957 -0.41 -0.01    -0.228 OA
DOCKED: BRANCH  36  38
DOCKED: ATOM     38  O   UNL d   1       2.312  14.750  -5.007 -0.27 +0.04    -0.303 OA
DOCKED: ATOM     39  H   UNL d   1       1.444  15.094  -4.704 +0.11 -0.01    +0.222 HD
DOCKED: ENDBRANCH  36  38
DOCKED: BRANCH  36  40
DOCKED: ATOM     40  O   UNL d   1       4.732  15.316  -5.335 -0.76 -0.09    -0.303 OA
DOCKED: ATOM     41  H   UNL d   1       4.682  15.731  -6.225 +0.09 +0.04    +0.222 HD
DOCKED: ENDBRANCH  36  40
DOCKED: ENDBRANCH  35  36
DOCKED: ENDBRANCH   5  35
DOCKED: BRANCH   4  42
DOCKED: ATOM     42  O   UNL d   1       0.205  16.644  -4.584 -0.24 -0.02    -0.278 OA
DOCKED: BRANCH  42  43
DOCKED: ATOM     43  P   UNL d   1      -0.688  16.932  -3.294 -0.27 +0.08    +0.473 P 
DOCKED: ATOM     44  O   UNL d   1      -2.086  16.417  -3.298 -1.00 -0.12    -0.228 OA
DOCKED: BRANCH  43  45
DOCKED: ATOM     45  O   UNL d   1       0.212  16.361  -2.112 -0.65 -0.05    -0.303 OA
DOCKED: ATOM     46  H   UNL d   1       1.118  16.156  -2.419 +0.13 +0.02    +0.222 HD
DOCKED: ENDBRANCH  43  45
DOCKED: BRANCH  43  47
DOCKED: ATOM     47  O   UNL d   1      -0.534  18.514  -3.086 -0.08 -0.03    -0.303 OA
DOCKED: ATOM     48  H   UNL d   1      -1.263  18.973  -3.552 +0.08 +0.02    +0.222 HD
DOCKED: ENDBRANCH  43  47
DOCKED: ENDBRANCH  42  43
DOCKED: ENDBRANCH   4  42
DOCKED: TORSDOF 24
DOCKED: TER
DOCKED: ENDMDL
________________________________________________________________________________


	BEGINNING GENETIC ALGORITHM DOCKING 36 of 100
Run: 36 Seed: 2069514111 10812426 [ Run 36 of 100 GA/GALS ]
Beginning LAMARCKIAN GENETIC ALGORITHM (LGA), with a maximum of 25000000 energy evaluations.

Final-Value: -16.835


	FINAL GENETIC ALGORITHM DOCKED STATE
	_______________________________________________


Detailed state:  trans -15.382 -8.232 -7.052 quatxyzw 0.259156 0.524885 -0.764007 0.271343 center 0.035 0.082 -0.065 ntor 24 74.3695 121.2106 80.9372 65.4204 151.7989 -180.0000 -124.8775 -92.4836 130.7637 116.6560 -77.7766 -168.1347 -82.2303 -51.7060 175.6698 -45.7657 26.0273 152.5007 -148.9417 -5.8966 29.2555 145.7792 -171.2075 -163.5053
State:	-15.382  -8.232  -7.052   0.269  0.545 -0.794 148.512     74.37  121.21   80.94   65.42  151.80 -180.00 -124.88  -92.48  130.76  116.66  -77.78 -168.13  -82.23  -51.71  175.67  -45.77   26.03  152.50 -148.94   -5.90   29.26  145.78 -171.21 -163.51

DOCKED: MODEL       36
DOCKED: USER    Run = 36
DOCKED: USER    DPF = D:/Protein_go_brrr/autodock/final/AncMH_nat/IHP/dock.dpf
DOCKED: USER  
DOCKED: USER    Estimated Free Energy of Binding    =   +4.40 kcal/mol  [=(1)+(2)+(3)-(4)]
DOCKED: USER    
DOCKED: USER    (1) Final Intermolecular Energy     =   -2.76 kcal/mol
DOCKED: USER        vdW + Hbond + desolv Energy     =   -2.52 kcal/mol
DOCKED: USER        Electrostatic Energy            =   -0.23 kcal/mol
DOCKED: USER    (2) Final Total Internal Energy     =  -14.08 kcal/mol
DOCKED: USER    (3) Torsional Free Energy           =   +7.16 kcal/mol
DOCKED: USER    (4) Unbound System's Energy  [=(2)] =  -14.08 kcal/mol
DOCKED: USER    
DOCKED: USER    
DOCKED: USER    NEWDPF move IHP_ideal_opt.pdbqt
DOCKED: USER    NEWDPF about 0.035000 0.082000 -0.065000
DOCKED: USER    NEWDPF tran0 -15.381905 -8.232104 -7.052417
DOCKED: USER    NEWDPF quaternion0 0.259156 0.524885 -0.764007 0.271343
DOCKED: USER    NEWDPF axisangle0 0.269258 0.545345 -0.793788 148.511587
DOCKED: USER    NEWDPF quat0 0.269258 0.545345 -0.793788 148.511587
DOCKED: USER    NEWDPF dihe0 74.37 121.21 80.94 65.42 151.80 -180.00 -124.88 -92.48 130.76 116.66 -77.78 -168.13 -82.23 -51.71 175.67 -45.77 26.03 152.50 -148.94 -5.90 29.26 145.78 -171.21 -163.51 
DOCKED: USER  keepresnum = 1 
DOCKED: USER  
DOCKED: REMARK  24 active torsions:
DOCKED: REMARK  status: ('A' for Active; 'I' for Inactive)
DOCKED: REMARK    1  A    between atoms: C_1  and  O_7 
DOCKED: REMARK    2  A    between atoms: C_2  and  O_12 
DOCKED: REMARK    3  A    between atoms: C_3  and  O_17 
DOCKED: REMARK    4  A    between atoms: C_4  and  O_22 
DOCKED: REMARK    5  A    between atoms: C_5  and  O_27 
DOCKED: REMARK    6  A    between atoms: C_6  and  O_32 
DOCKED: REMARK    7  A    between atoms: O_7  and  P_8 
DOCKED: REMARK    8  A    between atoms: P_8  and  O_10 
DOCKED: REMARK    9  A    between atoms: P_8  and  O_11 
DOCKED: REMARK   10  A    between atoms: O_12  and  P_13 
DOCKED: REMARK   11  A    between atoms: P_13  and  O_15 
DOCKED: REMARK   12  A    between atoms: P_13  and  O_16 
DOCKED: REMARK   13  A    between atoms: O_17  and  P_18 
DOCKED: REMARK   14  A    between atoms: P_18  and  O_20 
DOCKED: REMARK   15  A    between atoms: P_18  and  O_21 
DOCKED: REMARK   16  A    between atoms: O_22  and  P_23 
DOCKED: REMARK   17  A    between atoms: P_23  and  O_25 
DOCKED: REMARK   18  A    between atoms: P_23  and  O_26 
DOCKED: REMARK   19  A    between atoms: O_27  and  P_28 
DOCKED: REMARK   20  A    between atoms: P_28  and  O_30 
DOCKED: REMARK   21  A    between atoms: P_28  and  O_31 
DOCKED: REMARK   22  A    between atoms: O_32  and  P_33 
DOCKED: REMARK   23  A    between atoms: P_33  and  O_35 
DOCKED: REMARK   24  A    between atoms: P_33  and  O_36 
DOCKED: USER                              x       y       z     vdW  Elec       q    Type
DOCKED: USER                           _______ _______ _______ _____ _____    ______ ____
DOCKED: ROOT
DOCKED: ATOM      1  C   UNL d   1     -16.694  -7.627  -6.106 -0.00 +0.06    +0.194 C 
DOCKED: ATOM      2  C   UNL d   1     -15.432  -7.997  -5.325 -0.04 +0.08    +0.194 C 
DOCKED: ATOM      3  C   UNL d   1     -14.834  -9.320  -5.809 -0.03 +0.06    +0.194 C 
DOCKED: ATOM      4  C   UNL d   1     -14.613  -9.364  -7.319 -0.02 +0.06    +0.194 C 
DOCKED: ATOM      5  C   UNL d   1     -15.809  -8.892  -8.135 +0.00 +0.05    +0.194 C 
DOCKED: ATOM      6  C   UNL d   1     -16.445  -7.602  -7.614 +0.01 +0.05    +0.194 C 
DOCKED: ENDROOT
DOCKED: BRANCH   1   7
DOCKED: ATOM      7  O   UNL d   1     -17.088  -6.309  -5.717 -0.02 -0.11    -0.278 OA
DOCKED: BRANCH   7   8
DOCKED: ATOM      8  P   UNL d   1     -16.476  -5.067  -6.514 +0.01 +0.17    +0.473 P 
DOCKED: ATOM      9  O   UNL d   1     -15.107  -5.280  -7.058 -0.02 -0.08    -0.228 OA
DOCKED: BRANCH   8  10
DOCKED: ATOM     10  O   UNL d   1     -17.560  -4.761  -7.644 +0.00 -0.07    -0.303 OA
DOCKED: ATOM     11  H   UNL d   1     -17.413  -5.351  -8.406 +0.00 +0.04    +0.222 HD
DOCKED: ENDBRANCH   8  10
DOCKED: BRANCH   8  12
DOCKED: ATOM     12  O   UNL d   1     -16.651  -3.824  -5.540 -0.02 -0.14    -0.303 OA
DOCKED: ATOM     13  H   UNL d   1     -15.998  -3.816  -4.804 +0.03 +0.16    +0.222 HD
DOCKED: ENDBRANCH   8  12
DOCKED: ENDBRANCH   7   8
DOCKED: ENDBRANCH   1   7
DOCKED: BRANCH   2  14
DOCKED: ATOM     14  O   UNL d   1     -14.454  -6.964  -5.500 -0.06 -0.14    -0.278 OA
DOCKED: BRANCH  14  15
DOCKED: ATOM     15  P   UNL d   1     -13.850  -6.317  -4.166 -0.16 +0.38    +0.473 P 
DOCKED: ATOM     16  O   UNL d   1     -14.297  -6.912  -2.868 -0.18 -0.26    -0.228 OA
DOCKED: BRANCH  15  17
DOCKED: ATOM     17  O   UNL d   1     -12.273  -6.403  -4.374 -0.33 -0.15    -0.303 OA
DOCKED: ATOM     18  H   UNL d   1     -12.047  -7.011  -5.104 +0.10 +0.11    +0.222 HD
DOCKED: ENDBRANCH  15  17
DOCKED: BRANCH  15  19
DOCKED: ATOM     19  O   UNL d   1     -14.108  -4.756  -4.330 -0.65 -0.35    -0.303 OA
DOCKED: ATOM     20  H   UNL d   1     -14.636  -4.559  -5.126 +0.05 +0.16    +0.222 HD
DOCKED: ENDBRANCH  15  19
DOCKED: ENDBRANCH  14  15
DOCKED: ENDBRANCH   2  14
DOCKED: BRANCH   6  21
DOCKED: ATOM     21  O   UNL d   1     -17.718  -7.485  -8.246 +0.00 -0.05    -0.278 OA
DOCKED: BRANCH  21  22
DOCKED: ATOM     22  P   UNL d   1     -17.802  -7.089  -9.790 +0.00 +0.06    +0.473 P 
DOCKED: ATOM     23  O   UNL d   1     -19.040  -6.415 -10.278 +0.00 -0.02    -0.228 OA
DOCKED: BRANCH  22  24
DOCKED: ATOM     24  O   UNL d   1     -16.464  -6.248  -9.983 +0.00 -0.05    -0.303 OA
DOCKED: ATOM     25  H   UNL d   1     -15.728  -6.881 -10.179 +0.01 +0.05    +0.222 HD
DOCKED: ENDBRANCH  22  24
DOCKED: BRANCH  22  26
DOCKED: ATOM     26  O   UNL d   1     -17.427  -8.475 -10.502 +0.00 -0.04    -0.303 OA
DOCKED: ATOM     27  H   UNL d   1     -17.351  -9.176  -9.823 +0.00 +0.03    +0.222 HD
DOCKED: ENDBRANCH  22  26
DOCKED: ENDBRANCH  21  22
DOCKED: ENDBRANCH   6  21
DOCKED: BRANCH   3  28
DOCKED: ATOM     28  O   UNL d   1     -13.539  -9.441  -5.234 -0.09 -0.08    -0.278 OA
DOCKED: BRANCH  28  29
DOCKED: ATOM     29  P   UNL d   1     -12.240  -9.169  -6.114 -0.11 +0.22    +0.473 P 
DOCKED: ATOM     30  O   UNL d   1     -11.927 -10.204  -7.132 -0.24 -0.12    -0.228 OA
DOCKED: BRANCH  29  31
DOCKED: ATOM     31  O   UNL d   1     -12.570  -7.698  -6.652 -0.17 -0.23    -0.303 OA
DOCKED: ATOM     32  H   UNL d   1     -13.276  -7.764  -7.335 +0.04 +0.15    +0.222 HD
DOCKED: ENDBRANCH  29  31
DOCKED: BRANCH  29  33
DOCKED: ATOM     33  O   UNL d   1     -11.134  -8.897  -5.002 -0.26 -0.06    -0.303 OA
DOCKED: ATOM     34  H   UNL d   1     -11.558  -8.448  -4.230 +0.10 +0.07    +0.222 HD
DOCKED: ENDBRANCH  29  33
DOCKED: ENDBRANCH  28  29
DOCKED: ENDBRANCH   3  28
DOCKED: BRANCH   5  35
DOCKED: ATOM     35  O   UNL d   1     -15.303  -8.614  -9.439 -0.00 -0.08    -0.278 OA
DOCKED: BRANCH  35  36
DOCKED: ATOM     36  P   UNL d   1     -13.893  -7.890  -9.617 -0.03 +0.27    +0.473 P 
DOCKED: ATOM     37  O   UNL d   1     -12.696  -8.710  -9.255 -0.48 -0.31    -0.228 OA
DOCKED: BRANCH  36  38
DOCKED: ATOM     38  O   UNL d   1     -13.945  -7.446 -11.146 -0.01 -0.12    -0.303 OA
DOCKED: ATOM     39  H   UNL d   1     -14.703  -6.837 -11.278 +0.01 +0.06    +0.222 HD
DOCKED: ENDBRANCH  36  38
DOCKED: BRANCH  36  40
DOCKED: ATOM     40  O   UNL d   1     -14.106  -6.532  -8.817 -0.02 -0.14    -0.303 OA
DOCKED: ATOM     41  H   UNL d   1     -14.083  -6.674  -7.845 +0.03 +0.10    +0.222 HD
DOCKED: ENDBRANCH  36  40
DOCKED: ENDBRANCH  35  36
DOCKED: ENDBRANCH   5  35
DOCKED: BRANCH   4  42
DOCKED: ATOM     42  O   UNL d   1     -14.381 -10.733  -7.665 -0.01 -0.07    -0.278 OA
DOCKED: BRANCH  42  43
DOCKED: ATOM     43  P   UNL d   1     -15.633 -11.683  -7.938 +0.01 +0.06    +0.473 P 
DOCKED: ATOM     44  O   UNL d   1     -15.404 -13.154  -7.882 +0.00 -0.02    -0.228 OA
DOCKED: BRANCH  43  45
DOCKED: ATOM     45  O   UNL d   1     -16.708 -11.151  -6.892 +0.00 -0.04    -0.303 OA
DOCKED: ATOM     46  H   UNL d   1     -17.318 -11.864  -6.612 +0.00 +0.02    +0.222 HD
DOCKED: ENDBRANCH  43  45
DOCKED: BRANCH  43  47
DOCKED: ATOM     47  O   UNL d   1     -16.220 -11.126  -9.321 +0.00 -0.04    -0.303 OA
DOCKED: ATOM     48  H   UNL d   1     -15.581 -10.494  -9.712 +0.00 +0.04    +0.222 HD
DOCKED: ENDBRANCH  43  47
DOCKED: ENDBRANCH  42  43
DOCKED: ENDBRANCH   4  42
DOCKED: TORSDOF 24
DOCKED: TER
DOCKED: ENDMDL
________________________________________________________________________________


	BEGINNING GENETIC ALGORITHM DOCKING 37 of 100
Run: 37 Seed: 498247371 262191484 [ Run 37 of 100 GA/GALS ]
Beginning LAMARCKIAN GENETIC ALGORITHM (LGA), with a maximum of 25000000 energy evaluations.

Final-Value: -16.925


	FINAL GENETIC ALGORITHM DOCKED STATE
	_______________________________________________


Detailed state:  trans -17.960 10.228 -1.212 quatxyzw 0.289460 0.377057 0.698573 0.534824 center 0.035 0.082 -0.065 ntor 24 91.4753 -167.2865 92.8421 141.7216 44.2216 39.5260 -48.4653 -111.7298 -9.7615 27.7598 -125.5190 69.5230 -77.9686 54.2727 130.9290 115.4177 6.8433 157.6495 66.0578 26.0702 140.4575 1.7602 120.4232 -177.1803
State:	-17.960  10.228  -1.212   0.343  0.446  0.827 115.336     91.48 -167.29   92.84  141.72   44.22   39.53  -48.47 -111.73   -9.76   27.76 -125.52   69.52  -77.97   54.27  130.93  115.42    6.84  157.65   66.06   26.07  140.46    1.76  120.42 -177.18

DOCKED: MODEL       37
DOCKED: USER    Run = 37
DOCKED: USER    DPF = D:/Protein_go_brrr/autodock/final/AncMH_nat/IHP/dock.dpf
DOCKED: USER  
DOCKED: USER    Estimated Free Energy of Binding    =   +2.51 kcal/mol  [=(1)+(2)+(3)-(4)]
DOCKED: USER    
DOCKED: USER    (1) Final Intermolecular Energy     =   -4.65 kcal/mol
DOCKED: USER        vdW + Hbond + desolv Energy     =   -3.86 kcal/mol
DOCKED: USER        Electrostatic Energy            =   -0.79 kcal/mol
DOCKED: USER    (2) Final Total Internal Energy     =  -12.28 kcal/mol
DOCKED: USER    (3) Torsional Free Energy           =   +7.16 kcal/mol
DOCKED: USER    (4) Unbound System's Energy  [=(2)] =  -12.28 kcal/mol
DOCKED: USER    
DOCKED: USER    
DOCKED: USER    NEWDPF move IHP_ideal_opt.pdbqt
DOCKED: USER    NEWDPF about 0.035000 0.082000 -0.065000
DOCKED: USER    NEWDPF tran0 -17.959756 10.227991 -1.211678
DOCKED: USER    NEWDPF quaternion0 0.289460 0.377057 0.698573 0.534824
DOCKED: USER    NEWDPF axisangle0 0.342571 0.446240 0.826749 115.336096
DOCKED: USER    NEWDPF quat0 0.342571 0.446240 0.826749 115.336096
DOCKED: USER    NEWDPF dihe0 91.48 -167.29 92.84 141.72 44.22 39.53 -48.47 -111.73 -9.76 27.76 -125.52 69.52 -77.97 54.27 130.93 115.42 6.84 157.65 66.06 26.07 140.46 1.76 120.42 -177.18 
DOCKED: USER  keepresnum = 1 
DOCKED: USER  
DOCKED: REMARK  24 active torsions:
DOCKED: REMARK  status: ('A' for Active; 'I' for Inactive)
DOCKED: REMARK    1  A    between atoms: C_1  and  O_7 
DOCKED: REMARK    2  A    between atoms: C_2  and  O_12 
DOCKED: REMARK    3  A    between atoms: C_3  and  O_17 
DOCKED: REMARK    4  A    between atoms: C_4  and  O_22 
DOCKED: REMARK    5  A    between atoms: C_5  and  O_27 
DOCKED: REMARK    6  A    between atoms: C_6  and  O_32 
DOCKED: REMARK    7  A    between atoms: O_7  and  P_8 
DOCKED: REMARK    8  A    between atoms: P_8  and  O_10 
DOCKED: REMARK    9  A    between atoms: P_8  and  O_11 
DOCKED: REMARK   10  A    between atoms: O_12  and  P_13 
DOCKED: REMARK   11  A    between atoms: P_13  and  O_15 
DOCKED: REMARK   12  A    between atoms: P_13  and  O_16 
DOCKED: REMARK   13  A    between atoms: O_17  and  P_18 
DOCKED: REMARK   14  A    between atoms: P_18  and  O_20 
DOCKED: REMARK   15  A    between atoms: P_18  and  O_21 
DOCKED: REMARK   16  A    between atoms: O_22  and  P_23 
DOCKED: REMARK   17  A    between atoms: P_23  and  O_25 
DOCKED: REMARK   18  A    between atoms: P_23  and  O_26 
DOCKED: REMARK   19  A    between atoms: O_27  and  P_28 
DOCKED: REMARK   20  A    between atoms: P_28  and  O_30 
DOCKED: REMARK   21  A    between atoms: P_28  and  O_31 
DOCKED: REMARK   22  A    between atoms: O_32  and  P_33 
DOCKED: REMARK   23  A    between atoms: P_33  and  O_35 
DOCKED: REMARK   24  A    between atoms: P_33  and  O_36 
DOCKED: USER                              x       y       z     vdW  Elec       q    Type
DOCKED: USER                           _______ _______ _______ _____ _____    ______ ____
DOCKED: ROOT
DOCKED: ATOM      1  C   UNL d   1     -19.142  10.354   0.041 -0.02 +0.00    +0.194 C 
DOCKED: ATOM      2  C   UNL d   1     -19.594  10.821  -1.344 -0.01 +0.00    +0.194 C 
DOCKED: ATOM      3  C   UNL d   1     -18.516  11.654  -2.041 -0.02 -0.01    +0.194 C 
DOCKED: ATOM      4  C   UNL d   1     -17.155  10.964  -2.080 -0.08 -0.01    +0.194 C 
DOCKED: ATOM      5  C   UNL d   1     -16.716  10.382  -0.742 -0.15 -0.02    +0.194 C 
DOCKED: ATOM      6  C   UNL d   1     -17.813   9.600  -0.017 -0.08 +0.01    +0.194 C 
DOCKED: ENDROOT
DOCKED: BRANCH   1   7
DOCKED: ATOM      7  O   UNL d   1     -20.125   9.448   0.549 -0.00 -0.04    -0.278 OA
DOCKED: BRANCH   7   8
DOCKED: ATOM      8  P   UNL d   1     -21.637   9.951   0.659 +0.01 +0.05    +0.473 P 
DOCKED: ATOM      9  O   UNL d   1     -21.803  11.422   0.814 +0.00 -0.01    -0.228 OA
DOCKED: BRANCH   8  10
DOCKED: ATOM     10  O   UNL d   1     -22.332   9.377  -0.657 +0.00 -0.03    -0.303 OA
DOCKED: ATOM     11  H   UNL d   1     -21.952   9.810  -1.444 +0.00 +0.02    +0.222 HD
DOCKED: ENDBRANCH   8  10
DOCKED: BRANCH   8  12
DOCKED: ATOM     12  O   UNL d   1     -22.288   9.055   1.797 +0.00 -0.06    -0.303 OA
DOCKED: ATOM     13  H   UNL d   1     -22.978   9.529   2.315 +0.00 +0.03    +0.222 HD
DOCKED: ENDBRANCH   8  12
DOCKED: ENDBRANCH   7   8
DOCKED: ENDBRANCH   1   7
DOCKED: BRANCH   2  14
DOCKED: ATOM     14  O   UNL d   1     -19.879   9.674  -2.154 -0.00 -0.02    -0.278 OA
DOCKED: BRANCH  14  15
DOCKED: ATOM     15  P   UNL d   1     -20.861   9.901  -3.398 +0.00 +0.03    +0.473 P 
DOCKED: ATOM     16  O   UNL d   1     -20.247   9.831  -4.761 -0.00 -0.01    -0.228 OA
DOCKED: BRANCH  15  17
DOCKED: ATOM     17  O   UNL d   1     -22.014   8.823  -3.183 +0.00 -0.03    -0.303 OA
DOCKED: ATOM     18  H   UNL d   1     -21.834   8.267  -2.401 +0.00 +0.03    +0.222 HD
DOCKED: ENDBRANCH  15  17
DOCKED: BRANCH  15  19
DOCKED: ATOM     19  O   UNL d   1     -21.623  11.256  -3.058 +0.00 -0.01    -0.303 OA
DOCKED: ATOM     20  H   UNL d   1     -21.091  12.038  -3.294 +0.00 +0.00    +0.222 HD
DOCKED: ENDBRANCH  15  19
DOCKED: ENDBRANCH  14  15
DOCKED: ENDBRANCH   2  14
DOCKED: BRANCH   6  21
DOCKED: ATOM     21  O   UNL d   1     -17.374   9.424   1.328 -0.11 -0.01    -0.278 OA
DOCKED: BRANCH  21  22
DOCKED: ATOM     22  P   UNL d   1     -16.589  10.601   2.065 -0.18 -0.16    +0.473 P 
DOCKED: ATOM     23  O   UNL d   1     -16.519  10.577   3.555 -0.33 +0.03    -0.228 OA
DOCKED: BRANCH  22  24
DOCKED: ATOM     24  O   UNL d   1     -15.177  10.561   1.331 -0.30 +0.17    -0.303 OA
DOCKED: ATOM     25  H   UNL d   1     -15.063   9.661   0.931 -0.35 -0.07    +0.222 HD
DOCKED: ENDBRANCH  22  24
DOCKED: BRANCH  22  26
DOCKED: ATOM     26  O   UNL d   1     -17.264  11.901   1.414 -0.11 +0.23    -0.303 OA
DOCKED: ATOM     27  H   UNL d   1     -16.563  12.538   1.166 -0.45 -0.43    +0.222 HD
DOCKED: ENDBRANCH  22  26
DOCKED: ENDBRANCH  21  22
DOCKED: ENDBRANCH   6  21
DOCKED: BRANCH   3  28
DOCKED: ATOM     28  O   UNL d   1     -18.903  11.803  -3.401 -0.01 +0.00    -0.278 OA
DOCKED: BRANCH  28  29
DOCKED: ATOM     29  P   UNL d   1     -19.320  13.233  -3.966 +0.00 -0.01    +0.473 P 
DOCKED: ATOM     30  O   UNL d   1     -18.210  14.052  -4.518 -0.00 +0.00    -0.228 OA
DOCKED: BRANCH  29  31
DOCKED: ATOM     31  O   UNL d   1     -20.480  12.804  -4.981 -0.00 -0.00    -0.303 OA
DOCKED: ATOM     32  H   UNL d   1     -20.615  11.830  -4.911 +0.00 +0.00    +0.222 HD
DOCKED: ENDBRANCH  29  31
DOCKED: BRANCH  29  33
DOCKED: ATOM     33  O   UNL d   1     -20.132  13.851  -2.744 +0.00 +0.01    -0.303 OA
DOCKED: ATOM     34  H   UNL d   1     -20.834  13.212  -2.469 +0.00 -0.00    +0.222 HD
DOCKED: ENDBRANCH  29  33
DOCKED: ENDBRANCH  28  29
DOCKED: ENDBRANCH   3  28
DOCKED: BRANCH   5  35
DOCKED: ATOM     35  O   UNL d   1     -15.673   9.457  -1.047 -0.14 -0.01    -0.278 OA
DOCKED: BRANCH  35  36
DOCKED: ATOM     36  P   UNL d   1     -15.924   7.888  -0.908 -0.14 +0.12    +0.473 P 
DOCKED: ATOM     37  O   UNL d   1     -17.143   7.366  -1.600 -0.05 -0.07    -0.228 OA
DOCKED: BRANCH  36  38
DOCKED: ATOM     38  O   UNL d   1     -14.554   7.289  -1.455 -0.19 -0.09    -0.303 OA
DOCKED: ATOM     39  H   UNL d   1     -14.567   7.300  -2.436 +0.07 +0.05    +0.222 HD
DOCKED: ENDBRANCH  36  38
DOCKED: BRANCH  36  40
DOCKED: ATOM     40  O   UNL d   1     -15.837   7.667   0.665 -0.22 -0.10    -0.303 OA
DOCKED: ATOM     41  H   UNL d   1     -15.449   8.447   1.121 -0.05 +0.01    +0.222 HD
DOCKED: ENDBRANCH  36  40
DOCKED: ENDBRANCH  35  36
DOCKED: ENDBRANCH   5  35
DOCKED: BRANCH   4  42
DOCKED: ATOM     42  O   UNL d   1     -16.194  11.963  -2.439 -0.11 +0.03    -0.278 OA
DOCKED: BRANCH  42  43
DOCKED: ATOM     43  P   UNL d   1     -15.814  13.087  -1.373 -0.11 -0.25    +0.473 P 
DOCKED: ATOM     44  O   UNL d   1     -15.265  14.370  -1.895 -0.19 +0.07    -0.228 OA
DOCKED: BRANCH  43  45
DOCKED: ATOM     45  O   UNL d   1     -17.159  13.245  -0.538 -0.09 +0.19    -0.303 OA
DOCKED: ATOM     46  H   UNL d   1     -16.997  13.680   0.323 -0.36 -0.28    +0.222 HD
DOCKED: ENDBRANCH  43  45
DOCKED: BRANCH  43  47
DOCKED: ATOM     47  O   UNL d   1     -14.876  12.304  -0.335 +0.29 +0.30    -0.303 OA
DOCKED: ATOM     48  H   UNL d   1     -15.343  12.222   0.522 -0.40 -0.45    +0.222 HD
DOCKED: ENDBRANCH  43  47
DOCKED: ENDBRANCH  42  43
DOCKED: ENDBRANCH   4  42
DOCKED: TORSDOF 24
DOCKED: TER
DOCKED: ENDMDL
________________________________________________________________________________


	BEGINNING GENETIC ALGORITHM DOCKING 38 of 100
Run: 38 Seed: 1845876606 801860461 [ Run 38 of 100 GA/GALS ]
Beginning LAMARCKIAN GENETIC ALGORITHM (LGA), with a maximum of 25000000 energy evaluations.

Final-Value: -18.850


	FINAL GENETIC ALGORITHM DOCKED STATE
	_______________________________________________


Detailed state:  trans -17.657 -4.714 4.815 quatxyzw -0.629811 -0.618828 -0.439576 -0.164811 center 0.035 0.082 -0.065 ntor 24 126.6669 124.0152 46.3120 7.6495 65.6728 -82.6759 -83.4180 -72.4775 29.3593 89.8391 105.1741 75.8790 87.6198 157.1639 118.1625 -0.7479 -67.7936 -132.6688 43.8035 -6.2612 -29.4478 12.5613 8.3769 -16.6297
State:	-17.657  -4.714   4.815  -0.639 -0.627 -0.446 -161.027    126.67  124.02   46.31    7.65   65.67  -82.68  -83.42  -72.48   29.36   89.84  105.17   75.88   87.62  157.16  118.16   -0.75  -67.79 -132.67   43.80   -6.26  -29.45   12.56    8.38  -16.63

DOCKED: MODEL       38
DOCKED: USER    Run = 38
DOCKED: USER    DPF = D:/Protein_go_brrr/autodock/final/AncMH_nat/IHP/dock.dpf
DOCKED: USER  
DOCKED: USER    Estimated Free Energy of Binding    =   +1.81 kcal/mol  [=(1)+(2)+(3)-(4)]
DOCKED: USER    
DOCKED: USER    (1) Final Intermolecular Energy     =   -5.35 kcal/mol
DOCKED: USER        vdW + Hbond + desolv Energy     =   -5.21 kcal/mol
DOCKED: USER        Electrostatic Energy            =   -0.14 kcal/mol
DOCKED: USER    (2) Final Total Internal Energy     =  -13.50 kcal/mol
DOCKED: USER    (3) Torsional Free Energy           =   +7.16 kcal/mol
DOCKED: USER    (4) Unbound System's Energy  [=(2)] =  -13.50 kcal/mol
DOCKED: USER    
DOCKED: USER    
DOCKED: USER    NEWDPF move IHP_ideal_opt.pdbqt
DOCKED: USER    NEWDPF about 0.035000 0.082000 -0.065000
DOCKED: USER    NEWDPF tran0 -17.656697 -4.713898 4.814730
DOCKED: USER    NEWDPF quaternion0 -0.629811 -0.618828 -0.439576 -0.164811
DOCKED: USER    NEWDPF axisangle0 -0.638543 -0.627408 -0.445671 -161.027476
DOCKED: USER    NEWDPF quat0 -0.638543 -0.627408 -0.445671 -161.027476
DOCKED: USER    NEWDPF dihe0 126.67 124.02 46.31 7.65 65.67 -82.68 -83.42 -72.48 29.36 89.84 105.17 75.88 87.62 157.16 118.16 -0.75 -67.79 -132.67 43.80 -6.26 -29.45 12.56 8.38 -16.63 
DOCKED: USER  keepresnum = 1 
DOCKED: USER  
DOCKED: REMARK  24 active torsions:
DOCKED: REMARK  status: ('A' for Active; 'I' for Inactive)
DOCKED: REMARK    1  A    between atoms: C_1  and  O_7 
DOCKED: REMARK    2  A    between atoms: C_2  and  O_12 
DOCKED: REMARK    3  A    between atoms: C_3  and  O_17 
DOCKED: REMARK    4  A    between atoms: C_4  and  O_22 
DOCKED: REMARK    5  A    between atoms: C_5  and  O_27 
DOCKED: REMARK    6  A    between atoms: C_6  and  O_32 
DOCKED: REMARK    7  A    between atoms: O_7  and  P_8 
DOCKED: REMARK    8  A    between atoms: P_8  and  O_10 
DOCKED: REMARK    9  A    between atoms: P_8  and  O_11 
DOCKED: REMARK   10  A    between atoms: O_12  and  P_13 
DOCKED: REMARK   11  A    between atoms: P_13  and  O_15 
DOCKED: REMARK   12  A    between atoms: P_13  and  O_16 
DOCKED: REMARK   13  A    between atoms: O_17  and  P_18 
DOCKED: REMARK   14  A    between atoms: P_18  and  O_20 
DOCKED: REMARK   15  A    between atoms: P_18  and  O_21 
DOCKED: REMARK   16  A    between atoms: O_22  and  P_23 
DOCKED: REMARK   17  A    between atoms: P_23  and  O_25 
DOCKED: REMARK   18  A    between atoms: P_23  and  O_26 
DOCKED: REMARK   19  A    between atoms: O_27  and  P_28 
DOCKED: REMARK   20  A    between atoms: P_28  and  O_30 
DOCKED: REMARK   21  A    between atoms: P_28  and  O_31 
DOCKED: REMARK   22  A    between atoms: O_32  and  P_33 
DOCKED: REMARK   23  A    between atoms: P_33  and  O_35 
DOCKED: REMARK   24  A    between atoms: P_33  and  O_36 
DOCKED: USER                              x       y       z     vdW  Elec       q    Type
DOCKED: USER                           _______ _______ _______ _____ _____    ______ ____
DOCKED: ROOT
DOCKED: ATOM      1  C   UNL d   1     -18.392  -3.165   5.023 -0.04 +0.10    +0.194 C 
DOCKED: ATOM      2  C   UNL d   1     -19.074  -4.089   4.013 -0.04 +0.09    +0.194 C 
DOCKED: ATOM      3  C   UNL d   1     -18.056  -4.805   3.123 -0.08 +0.11    +0.194 C 
DOCKED: ATOM      4  C   UNL d   1     -16.963  -5.520   3.913 -0.12 +0.10    +0.194 C 
DOCKED: ATOM      5  C   UNL d   1     -16.333  -4.670   5.010 -0.10 +0.09    +0.194 C 
DOCKED: ATOM      6  C   UNL d   1     -17.349  -3.906   5.861 -0.08 +0.08    +0.194 C 
DOCKED: ENDROOT
DOCKED: BRANCH   1   7
DOCKED: ATOM      7  O   UNL d   1     -19.389  -2.672   5.921 -0.04 -0.13    -0.278 OA
DOCKED: BRANCH   7   8
DOCKED: ATOM      8  P   UNL d   1     -20.331  -1.480   5.430 -0.02 +0.31    +0.473 P 
DOCKED: ATOM      9  O   UNL d   1     -21.763  -1.606   5.817 -0.02 -0.12    -0.228 OA
DOCKED: BRANCH   8  10
DOCKED: ATOM     10  O   UNL d   1     -19.635  -0.170   6.016 -0.08 -0.29    -0.303 OA
DOCKED: ATOM     11  H   UNL d   1     -19.187  -0.385   6.855 +0.05 +0.15    +0.222 HD
DOCKED: ENDBRANCH   8  10
DOCKED: BRANCH   8  12
DOCKED: ATOM     12  O   UNL d   1     -20.044  -1.341   3.873 -0.03 -0.25    -0.303 OA
DOCKED: ATOM     13  H   UNL d   1     -20.506  -2.021   3.333 +0.03 +0.14    +0.222 HD
DOCKED: ENDBRANCH   8  12
DOCKED: ENDBRANCH   7   8
DOCKED: ENDBRANCH   1   7
DOCKED: BRANCH   2  14
DOCKED: ATOM     14  O   UNL d   1     -19.833  -5.076   4.723 -0.42 -0.13    -0.278 OA
DOCKED: BRANCH  14  15
DOCKED: ATOM     15  P   UNL d   1     -21.384  -5.197   4.341 -0.04 +0.14    +0.473 P 
DOCKED: ATOM     16  O   UNL d   1     -22.319  -5.583   5.443 -0.06 -0.05    -0.228 OA
DOCKED: BRANCH  15  17
DOCKED: ATOM     17  O   UNL d   1     -21.736  -3.781   3.700 -0.00 -0.10    -0.303 OA
DOCKED: ATOM     18  H   UNL d   1     -21.429  -3.051   4.270 +0.02 +0.09    +0.222 HD
DOCKED: ENDBRANCH  15  17
DOCKED: BRANCH  15  19
DOCKED: ATOM     19  O   UNL d   1     -21.405  -6.141   3.061 -0.02 -0.08    -0.303 OA
DOCKED: ATOM     20  H   UNL d   1     -20.795  -5.825   2.369 +0.02 +0.07    +0.222 HD
DOCKED: ENDBRANCH  15  19
DOCKED: ENDBRANCH  14  15
DOCKED: ENDBRANCH   2  14
DOCKED: BRANCH   6  21
DOCKED: ATOM     21  O   UNL d   1     -16.619  -2.920   6.588 -0.07 -0.10    -0.278 OA
DOCKED: BRANCH  21  22
DOCKED: ATOM     22  P   UNL d   1     -16.856  -2.755   8.157 -0.10 +0.11    +0.473 P 
DOCKED: ATOM     23  O   UNL d   1     -15.707  -2.318   9.001 -0.22 -0.01    -0.228 OA
DOCKED: BRANCH  22  24
DOCKED: ATOM     24  O   UNL d   1     -18.119  -1.788   8.195 -0.04 -0.10    -0.303 OA
DOCKED: ATOM     25  H   UNL d   1     -18.373  -1.574   7.261 +0.07 +0.09    +0.222 HD
DOCKED: ENDBRANCH  22  24
DOCKED: BRANCH  22  26
DOCKED: ATOM     26  O   UNL d   1     -17.511  -4.169   8.537 -0.19 -0.05    -0.303 OA
DOCKED: ATOM     27  H   UNL d   1     -16.837  -4.728   8.975 -0.38 +0.01    +0.222 HD
DOCKED: ENDBRANCH  22  26
DOCKED: ENDBRANCH  21  22
DOCKED: ENDBRANCH   6  21
DOCKED: BRANCH   3  28
DOCKED: ATOM     28  O   UNL d   1     -18.747  -5.831   2.422 -0.05 -0.14    -0.278 OA
DOCKED: BRANCH  28  29
DOCKED: ATOM     29  P   UNL d   1     -18.726  -5.873   0.830 -0.03 +0.34    +0.473 P 
DOCKED: ATOM     30  O   UNL d   1     -18.529  -4.563   0.157 -0.09 -0.20    -0.228 OA
DOCKED: BRANCH  29  31
DOCKED: ATOM     31  O   UNL d   1     -17.601  -6.987   0.594 -0.64 -0.33    -0.303 OA
DOCKED: ATOM     32  H   UNL d   1     -16.947  -6.932   1.329 +0.05 +0.25    +0.222 HD
DOCKED: ENDBRANCH  29  31
DOCKED: BRANCH  29  33
DOCKED: ATOM     33  O   UNL d   1     -20.072  -6.656   0.498 -0.01 -0.12    -0.303 OA
DOCKED: ATOM     34  H   UNL d   1     -20.413  -7.074   1.327 +0.02 +0.07    +0.222 HD
DOCKED: ENDBRANCH  29  33
DOCKED: ENDBRANCH  28  29
DOCKED: ENDBRANCH   3  28
DOCKED: BRANCH   5  35
DOCKED: ATOM     35  O   UNL d   1     -15.666  -5.586   5.874 -0.01 -0.11    -0.278 OA
DOCKED: BRANCH  35  36
DOCKED: ATOM     36  P   UNL d   1     -14.227  -5.232   6.467 -0.20 +0.15    +0.473 P 
DOCKED: ATOM     37  O   UNL d   1     -13.433  -4.238   5.680 -0.27 -0.07    -0.228 OA
DOCKED: BRANCH  36  38
DOCKED: ATOM     38  O   UNL d   1     -14.590  -4.758   7.943 -0.34 -0.09    -0.303 OA
DOCKED: ATOM     39  H   UNL d   1     -15.404  -4.210   7.914 +0.12 +0.05    +0.222 HD
DOCKED: ENDBRANCH  36  38
DOCKED: BRANCH  36  40
DOCKED: ATOM     40  O   UNL d   1     -13.581  -6.670   6.674 -0.49 -0.11    -0.303 OA
DOCKED: ATOM     41  H   UNL d   1     -13.687  -7.235   5.876 +0.17 +0.08    +0.222 HD
DOCKED: ENDBRANCH  36  40
DOCKED: ENDBRANCH  35  36
DOCKED: ENDBRANCH   5  35
DOCKED: BRANCH   4  42
DOCKED: ATOM     42  O   UNL d   1     -15.924  -5.845   2.984 -0.51 -0.27    -0.278 OA
DOCKED: BRANCH  42  43
DOCKED: ATOM     43  P   UNL d   1     -15.399  -7.349   2.909 -0.17 +0.32    +0.473 P 
DOCKED: ATOM     44  O   UNL d   1     -14.311  -7.744   3.846 -0.38 -0.10    -0.228 OA
DOCKED: BRANCH  43  45
DOCKED: ATOM     45  O   UNL d   1     -16.737  -8.194   3.071 -0.16 -0.14    -0.303 OA
DOCKED: ATOM     46  H   UNL d   1     -17.504  -7.728   2.682 +0.07 +0.11    +0.222 HD
DOCKED: ENDBRANCH  43  45
DOCKED: BRANCH  43  47
DOCKED: ATOM     47  O   UNL d   1     -15.076  -7.547   1.351 -0.36 -0.31    -0.303 OA
DOCKED: ATOM     48  H   UNL d   1     -15.775  -8.099   0.944 +0.09 +0.19    +0.222 HD
DOCKED: ENDBRANCH  43  47
DOCKED: ENDBRANCH  42  43
DOCKED: ENDBRANCH   4  42
DOCKED: TORSDOF 24
DOCKED: TER
DOCKED: ENDMDL
________________________________________________________________________________


	BEGINNING GENETIC ALGORITHM DOCKING 39 of 100
Run: 39 Seed: 1976858074 1961472503 [ Run 39 of 100 GA/GALS ]
Beginning LAMARCKIAN GENETIC ALGORITHM (LGA), with a maximum of 25000000 energy evaluations.

Final-Value: -18.604


	FINAL GENETIC ALGORITHM DOCKED STATE
	_______________________________________________


Detailed state:  trans -17.140 -1.499 13.608 quatxyzw -0.344240 -0.439459 -0.311985 0.768791 center 0.035 0.082 -0.065 ntor 24 -159.5151 16.0045 77.4037 79.2775 -14.3368 -157.4775 0.0171 -145.1175 157.9716 13.9981 75.0668 68.8265 27.2578 -54.8099 174.2104 -46.4386 120.7518 -88.7778 -131.5912 -15.6287 -172.4006 143.2092 141.0553 -164.0197
State:	-17.140  -1.499  13.608  -0.538 -0.687 -0.488 79.509   -159.52   16.00   77.40   79.28  -14.34 -157.48    0.02 -145.12  157.97   14.00   75.07   68.83   27.26  -54.81  174.21  -46.44  120.75  -88.78 -131.59  -15.63 -172.40  143.21  141.06 -164.02

DOCKED: MODEL       39
DOCKED: USER    Run = 39
DOCKED: USER    DPF = D:/Protein_go_brrr/autodock/final/AncMH_nat/IHP/dock.dpf
DOCKED: USER  
DOCKED: USER    Estimated Free Energy of Binding    =   +2.19 kcal/mol  [=(1)+(2)+(3)-(4)]
DOCKED: USER    
DOCKED: USER    (1) Final Intermolecular Energy     =   -4.96 kcal/mol
DOCKED: USER        vdW + Hbond + desolv Energy     =   -4.83 kcal/mol
DOCKED: USER        Electrostatic Energy            =   -0.13 kcal/mol
DOCKED: USER    (2) Final Total Internal Energy     =  -13.64 kcal/mol
DOCKED: USER    (3) Torsional Free Energy           =   +7.16 kcal/mol
DOCKED: USER    (4) Unbound System's Energy  [=(2)] =  -13.64 kcal/mol
DOCKED: USER    
DOCKED: USER    
DOCKED: USER    NEWDPF move IHP_ideal_opt.pdbqt
DOCKED: USER    NEWDPF about 0.035000 0.082000 -0.065000
DOCKED: USER    NEWDPF tran0 -17.140314 -1.498709 13.607534
DOCKED: USER    NEWDPF quaternion0 -0.344240 -0.439459 -0.311985 0.768791
DOCKED: USER    NEWDPF axisangle0 -0.538295 -0.687192 -0.487858 79.509025
DOCKED: USER    NEWDPF quat0 -0.538295 -0.687192 -0.487858 79.509025
DOCKED: USER    NEWDPF dihe0 -159.52 16.00 77.40 79.28 -14.34 -157.48 0.02 -145.12 157.97 14.00 75.07 68.83 27.26 -54.81 174.21 -46.44 120.75 -88.78 -131.59 -15.63 -172.40 143.21 141.06 -164.02 
DOCKED: USER  keepresnum = 1 
DOCKED: USER  
DOCKED: REMARK  24 active torsions:
DOCKED: REMARK  status: ('A' for Active; 'I' for Inactive)
DOCKED: REMARK    1  A    between atoms: C_1  and  O_7 
DOCKED: REMARK    2  A    between atoms: C_2  and  O_12 
DOCKED: REMARK    3  A    between atoms: C_3  and  O_17 
DOCKED: REMARK    4  A    between atoms: C_4  and  O_22 
DOCKED: REMARK    5  A    between atoms: C_5  and  O_27 
DOCKED: REMARK    6  A    between atoms: C_6  and  O_32 
DOCKED: REMARK    7  A    between atoms: O_7  and  P_8 
DOCKED: REMARK    8  A    between atoms: P_8  and  O_10 
DOCKED: REMARK    9  A    between atoms: P_8  and  O_11 
DOCKED: REMARK   10  A    between atoms: O_12  and  P_13 
DOCKED: REMARK   11  A    between atoms: P_13  and  O_15 
DOCKED: REMARK   12  A    between atoms: P_13  and  O_16 
DOCKED: REMARK   13  A    between atoms: O_17  and  P_18 
DOCKED: REMARK   14  A    between atoms: P_18  and  O_20 
DOCKED: REMARK   15  A    between atoms: P_18  and  O_21 
DOCKED: REMARK   16  A    between atoms: O_22  and  P_23 
DOCKED: REMARK   17  A    between atoms: P_23  and  O_25 
DOCKED: REMARK   18  A    between atoms: P_23  and  O_26 
DOCKED: REMARK   19  A    between atoms: O_27  and  P_28 
DOCKED: REMARK   20  A    between atoms: P_28  and  O_30 
DOCKED: REMARK   21  A    between atoms: P_28  and  O_31 
DOCKED: REMARK   22  A    between atoms: O_32  and  P_33 
DOCKED: REMARK   23  A    between atoms: P_33  and  O_35 
DOCKED: REMARK   24  A    between atoms: P_33  and  O_36 
DOCKED: USER                              x       y       z     vdW  Elec       q    Type
DOCKED: USER                           _______ _______ _______ _____ _____    ______ ____
DOCKED: ROOT
DOCKED: ATOM      1  C   UNL d   1     -15.754  -1.225  12.615 -0.23 +0.01    +0.194 C 
DOCKED: ATOM      2  C   UNL d   1     -16.463  -2.564  12.405 -0.24 +0.03    +0.194 C 
DOCKED: ATOM      3  C   UNL d   1     -16.856  -3.211  13.734 -0.20 +0.07    +0.194 C 
DOCKED: ATOM      4  C   UNL d   1     -17.645  -2.277  14.648 -0.05 +0.06    +0.194 C 
DOCKED: ATOM      5  C   UNL d   1     -17.034  -0.890  14.795 -0.04 +0.03    +0.194 C 
DOCKED: ATOM      6  C   UNL d   1     -16.584  -0.268  13.471 -0.10 +0.02    +0.194 C 
DOCKED: ENDROOT
DOCKED: BRANCH   1   7
DOCKED: ATOM      7  O   UNL d   1     -15.577  -0.609  11.337 -0.22 -0.01    -0.278 OA
DOCKED: BRANCH   7   8
DOCKED: ATOM      8  P   UNL d   1     -16.508   0.632  10.956 -0.19 +0.04    +0.473 P 
DOCKED: ATOM      9  O   UNL d   1     -16.105   1.931  11.559 -0.23 +0.02    -0.228 OA
DOCKED: BRANCH   8  10
DOCKED: ATOM     10  O   UNL d   1     -16.498   0.649   9.361 -0.75 -0.10    -0.303 OA
DOCKED: ATOM     11  H   UNL d   1     -16.584  -0.262   9.024 +0.09 +0.07    +0.222 HD
DOCKED: ENDBRANCH   8  10
DOCKED: BRANCH   8  12
DOCKED: ATOM     12  O   UNL d   1     -17.988   0.149  11.274 -0.05 -0.05    -0.303 OA
DOCKED: ATOM     13  H   UNL d   1     -18.106  -0.823  11.177 +0.07 +0.04    +0.222 HD
DOCKED: ENDBRANCH   8  12
DOCKED: ENDBRANCH   7   8
DOCKED: ENDBRANCH   1   7
DOCKED: BRANCH   2  14
DOCKED: ATOM     14  O   UNL d   1     -17.651  -2.347  11.633 -0.09 -0.06    -0.278 OA
DOCKED: BRANCH  14  15
DOCKED: ATOM     15  P   UNL d   1     -17.703  -3.037  10.189 -0.09 +0.10    +0.473 P 
DOCKED: ATOM     16  O   UNL d   1     -16.513  -3.853   9.791 -0.79 -0.05    -0.228 OA
DOCKED: BRANCH  15  17
DOCKED: ATOM     17  O   UNL d   1     -19.052  -3.883  10.212 -0.07 -0.10    -0.303 OA
DOCKED: ATOM     18  H   UNL d   1     -19.362  -4.027  11.127 +0.05 +0.08    +0.222 HD
DOCKED: ENDBRANCH  15  17
DOCKED: BRANCH  15  19
DOCKED: ATOM     19  O   UNL d   1     -18.085  -1.853   9.198 -0.04 -0.08    -0.303 OA
DOCKED: ATOM     20  H   UNL d   1     -17.901  -0.980   9.591 +0.08 +0.05    +0.222 HD
DOCKED: ENDBRANCH  15  19
DOCKED: ENDBRANCH  14  15
DOCKED: ENDBRANCH   2  14
DOCKED: BRANCH   6  21
DOCKED: ATOM     21  O   UNL d   1     -15.744   0.836  13.798 -0.14 -0.01    -0.278 OA
DOCKED: BRANCH  21  22
DOCKED: ATOM     22  P   UNL d   1     -14.191   0.595  14.075 -0.13 -0.01    +0.473 P 
DOCKED: ATOM     23  O   UNL d   1     -13.464   1.585  14.922 -0.29 +0.02    -0.228 OA
DOCKED: BRANCH  22  24
DOCKED: ATOM     24  O   UNL d   1     -14.188  -0.894  14.636 -0.28 -0.01    -0.303 OA
DOCKED: ATOM     25  H   UNL d   1     -14.446  -0.863  15.593 +0.09 +0.01    +0.222 HD
DOCKED: ENDBRANCH  22  24
DOCKED: BRANCH  22  26
DOCKED: ATOM     26  O   UNL d   1     -13.624   0.390  12.590 -0.18 +0.03    -0.303 OA
DOCKED: ATOM     27  H   UNL d   1     -14.185   0.886  11.959 -0.42 -0.07    +0.222 HD
DOCKED: ENDBRANCH  22  26
DOCKED: ENDBRANCH  21  22
DOCKED: ENDBRANCH   6  21
DOCKED: BRANCH   3  28
DOCKED: ATOM     28  O   UNL d   1     -17.738  -4.288  13.442 -0.11 -0.17    -0.278 OA
DOCKED: BRANCH  28  29
DOCKED: ATOM     29  P   UNL d   1     -19.296  -4.155  13.745 -0.04 +0.22    +0.473 P 
DOCKED: ATOM     30  O   UNL d   1     -19.676  -4.199  15.180 -0.03 -0.11    -0.228 OA
DOCKED: BRANCH  29  31
DOCKED: ATOM     31  O   UNL d   1     -19.622  -2.806  12.948 -0.02 -0.08    -0.303 OA
DOCKED: ATOM     32  H   UNL d   1     -19.280  -2.895  12.028 +0.04 +0.06    +0.222 HD
DOCKED: ENDBRANCH  29  31
DOCKED: BRANCH  29  33
DOCKED: ATOM     33  O   UNL d   1     -19.916  -5.279  12.802 -0.05 -0.15    -0.303 OA
DOCKED: ATOM     34  H   UNL d   1     -20.062  -4.898  11.902 +0.05 +0.10    +0.222 HD
DOCKED: ENDBRANCH  29  33
DOCKED: ENDBRANCH  28  29
DOCKED: ENDBRANCH   3  28
DOCKED: BRANCH   5  35
DOCKED: ATOM     35  O   UNL d   1     -18.071  -0.062  15.316 -0.01 -0.05    -0.278 OA
DOCKED: BRANCH  35  36
DOCKED: ATOM     36  P   UNL d   1     -19.078   0.684  14.329 +0.01 +0.10    +0.473 P 
DOCKED: ATOM     37  O   UNL d   1     -20.316   1.232  14.964 -0.01 -0.05    -0.228 OA
DOCKED: BRANCH  36  38
DOCKED: ATOM     38  O   UNL d   1     -18.135   1.787  13.674 -0.05 -0.06    -0.303 OA
DOCKED: ATOM     39  H   UNL d   1     -17.694   1.405  12.884 +0.07 +0.03    +0.222 HD
DOCKED: ENDBRANCH  36  38
DOCKED: BRANCH  36  40
DOCKED: ATOM     40  O   UNL d   1     -19.275  -0.388  13.170 -0.00 -0.06    -0.303 OA
DOCKED: ATOM     41  H   UNL d   1     -18.491  -0.974  13.079 +0.04 +0.04    +0.222 HD
DOCKED: ENDBRANCH  36  40
DOCKED: ENDBRANCH  35  36
DOCKED: ENDBRANCH   5  35
DOCKED: BRANCH   4  42
DOCKED: ATOM     42  O   UNL d   1     -17.649  -2.875  15.949 -0.04 -0.13    -0.278 OA
DOCKED: BRANCH  42  43
DOCKED: ATOM     43  P   UNL d   1     -16.413  -2.613  16.922 -0.04 +0.18    +0.473 P 
DOCKED: ATOM     44  O   UNL d   1     -15.047  -2.679  16.331 -0.17 -0.05    -0.228 OA
DOCKED: BRANCH  43  45
DOCKED: ATOM     45  O   UNL d   1     -16.773  -1.206  17.573 -0.01 -0.06    -0.303 OA
DOCKED: ATOM     46  H   UNL d   1     -17.639  -0.877  17.257 +0.02 +0.04    +0.222 HD
DOCKED: ENDBRANCH  43  45
DOCKED: BRANCH  43  47
DOCKED: ATOM     47  O   UNL d   1     -16.688  -3.616  18.142 -0.09 -0.18    -0.303 OA
DOCKED: ATOM     48  H   UNL d   1     -16.897  -3.096  18.946 +0.02 +0.08    +0.222 HD
DOCKED: ENDBRANCH  43  47
DOCKED: ENDBRANCH  42  43
DOCKED: ENDBRANCH   4  42
DOCKED: TORSDOF 24
DOCKED: TER
DOCKED: ENDMDL
________________________________________________________________________________


	BEGINNING GENETIC ALGORITHM DOCKING 40 of 100
Run: 40 Seed: 1721008413 1627657382 [ Run 40 of 100 GA/GALS ]
Beginning LAMARCKIAN GENETIC ALGORITHM (LGA), with a maximum of 25000000 energy evaluations.

Final-Value: -15.605


	FINAL GENETIC ALGORITHM DOCKED STATE
	_______________________________________________


Detailed state:  trans 5.910 -15.546 2.736 quatxyzw -0.743788 -0.238907 -0.121676 0.612289 center 0.035 0.082 -0.065 ntor 24 -177.8235 -11.4514 73.3268 90.5932 84.3782 -29.8644 -68.2324 -10.0152 94.1886 107.7869 -86.9859 -142.9648 21.8033 104.4090 -74.2368 140.6828 32.0834 -40.4555 -138.0512 -12.3481 -165.6823 13.0575 -171.4033 163.0394
State:	  5.910 -15.546   2.736  -0.941 -0.302 -0.154 104.490   -177.82  -11.45   73.33   90.59   84.38  -29.86  -68.23  -10.02   94.19  107.79  -86.99 -142.96   21.80  104.41  -74.24  140.68   32.08  -40.46 -138.05  -12.35 -165.68   13.06 -171.40  163.04

DOCKED: MODEL       40
DOCKED: USER    Run = 40
DOCKED: USER    DPF = D:/Protein_go_brrr/autodock/final/AncMH_nat/IHP/dock.dpf
DOCKED: USER  
DOCKED: USER    Estimated Free Energy of Binding    =   +3.82 kcal/mol  [=(1)+(2)+(3)-(4)]
DOCKED: USER    
DOCKED: USER    (1) Final Intermolecular Energy     =   -3.34 kcal/mol
DOCKED: USER        vdW + Hbond + desolv Energy     =   -3.08 kcal/mol
DOCKED: USER        Electrostatic Energy            =   -0.26 kcal/mol
DOCKED: USER    (2) Final Total Internal Energy     =  -12.27 kcal/mol
DOCKED: USER    (3) Torsional Free Energy           =   +7.16 kcal/mol
DOCKED: USER    (4) Unbound System's Energy  [=(2)] =  -12.27 kcal/mol
DOCKED: USER    
DOCKED: USER    
DOCKED: USER    NEWDPF move IHP_ideal_opt.pdbqt
DOCKED: USER    NEWDPF about 0.035000 0.082000 -0.065000
DOCKED: USER    NEWDPF tran0 5.909603 -15.546188 2.735865
DOCKED: USER    NEWDPF quaternion0 -0.743788 -0.238907 -0.121676 0.612289
DOCKED: USER    NEWDPF axisangle0 -0.940749 -0.302172 -0.153897 104.489656
DOCKED: USER    NEWDPF quat0 -0.940749 -0.302172 -0.153897 104.489656
DOCKED: USER    NEWDPF dihe0 -177.82 -11.45 73.33 90.59 84.38 -29.86 -68.23 -10.02 94.19 107.79 -86.99 -142.96 21.80 104.41 -74.24 140.68 32.08 -40.46 -138.05 -12.35 -165.68 13.06 -171.40 163.04 
DOCKED: USER  keepresnum = 1 
DOCKED: USER  
DOCKED: REMARK  24 active torsions:
DOCKED: REMARK  status: ('A' for Active; 'I' for Inactive)
DOCKED: REMARK    1  A    between atoms: C_1  and  O_7 
DOCKED: REMARK    2  A    between atoms: C_2  and  O_12 
DOCKED: REMARK    3  A    between atoms: C_3  and  O_17 
DOCKED: REMARK    4  A    between atoms: C_4  and  O_22 
DOCKED: REMARK    5  A    between atoms: C_5  and  O_27 
DOCKED: REMARK    6  A    between atoms: C_6  and  O_32 
DOCKED: REMARK    7  A    between atoms: O_7  and  P_8 
DOCKED: REMARK    8  A    between atoms: P_8  and  O_10 
DOCKED: REMARK    9  A    between atoms: P_8  and  O_11 
DOCKED: REMARK   10  A    between atoms: O_12  and  P_13 
DOCKED: REMARK   11  A    between atoms: P_13  and  O_15 
DOCKED: REMARK   12  A    between atoms: P_13  and  O_16 
DOCKED: REMARK   13  A    between atoms: O_17  and  P_18 
DOCKED: REMARK   14  A    between atoms: P_18  and  O_20 
DOCKED: REMARK   15  A    between atoms: P_18  and  O_21 
DOCKED: REMARK   16  A    between atoms: O_22  and  P_23 
DOCKED: REMARK   17  A    between atoms: P_23  and  O_25 
DOCKED: REMARK   18  A    between atoms: P_23  and  O_26 
DOCKED: REMARK   19  A    between atoms: O_27  and  P_28 
DOCKED: REMARK   20  A    between atoms: P_28  and  O_30 
DOCKED: REMARK   21  A    between atoms: P_28  and  O_31 
DOCKED: REMARK   22  A    between atoms: O_32  and  P_33 
DOCKED: REMARK   23  A    between atoms: P_33  and  O_35 
DOCKED: REMARK   24  A    between atoms: P_33  and  O_36 
DOCKED: USER                              x       y       z     vdW  Elec       q    Type
DOCKED: USER                           _______ _______ _______ _____ _____    ______ ____
DOCKED: ROOT
DOCKED: ATOM      1  C   UNL d   1       7.174 -15.468   1.561 -0.01 +0.00    +0.194 C 
DOCKED: ATOM      2  C   UNL d   1       5.765 -15.673   1.003 -0.02 +0.03    +0.194 C 
DOCKED: ATOM      3  C   UNL d   1       4.974 -16.695   1.822 -0.04 +0.09    +0.194 C 
DOCKED: ATOM      4  C   UNL d   1       4.963 -16.388   3.318 -0.04 +0.15    +0.194 C 
DOCKED: ATOM      5  C   UNL d   1       6.335 -16.064   3.895 -0.01 +0.04    +0.194 C 
DOCKED: ATOM      6  C   UNL d   1       7.151 -15.089   3.042 -0.01 -0.00    +0.194 C 
DOCKED: ENDROOT
DOCKED: BRANCH   1   7
DOCKED: ATOM      7  O   UNL d   1       7.780 -14.384   0.853 -0.04 +0.02    -0.278 OA
DOCKED: BRANCH   7   8
DOCKED: ATOM      8  P   UNL d   1       7.792 -12.941   1.540 -0.13 -0.13    +0.473 P 
DOCKED: ATOM      9  O   UNL d   1       8.748 -12.788   2.670 -0.17 +0.15    -0.228 OA
DOCKED: BRANCH   8  10
DOCKED: ATOM     10  O   UNL d   1       8.083 -11.941   0.332 -0.29 +0.06    -0.303 OA
DOCKED: ATOM     11  H   UNL d   1       7.803 -12.351  -0.508 +0.09 -0.00    +0.222 HD
DOCKED: ENDBRANCH   8  10
DOCKED: BRANCH   8  12
DOCKED: ATOM     12  O   UNL d   1       6.270 -12.629   1.871 -0.13 +0.04    -0.303 OA
DOCKED: ATOM     13  H   UNL d   1       5.687 -12.669   1.079 +0.10 +0.02    +0.222 HD
DOCKED: ENDBRANCH   8  12
DOCKED: ENDBRANCH   7   8
DOCKED: ENDBRANCH   1   7
DOCKED: BRANCH   2  14
DOCKED: ATOM     14  O   UNL d   1       5.064 -14.424   1.032 -0.06 -0.06    -0.278 OA
DOCKED: BRANCH  14  15
DOCKED: ATOM     15  P   UNL d   1       4.567 -13.848  -0.377 -0.12 +0.20    +0.473 P 
DOCKED: ATOM     16  O   UNL d   1       3.469 -12.832  -0.339 -0.69 -0.18    -0.228 OA
DOCKED: BRANCH  15  17
DOCKED: ATOM     17  O   UNL d   1       5.896 -13.295  -1.060 -0.14 -0.12    -0.303 OA
DOCKED: ATOM     18  H   UNL d   1       6.580 -13.101  -0.391 +0.08 +0.04    +0.222 HD
DOCKED: ENDBRANCH  15  17
DOCKED: BRANCH  15  19
DOCKED: ATOM     19  O   UNL d   1       4.273 -15.143  -1.253 -0.10 -0.04    -0.303 OA
DOCKED: ATOM     20  H   UNL d   1       3.980 -15.892  -0.702 +0.05 +0.03    +0.222 HD
DOCKED: ENDBRANCH  15  19
DOCKED: ENDBRANCH  14  15
DOCKED: ENDBRANCH   2  14
DOCKED: BRANCH   6  21
DOCKED: ATOM     21  O   UNL d   1       8.495 -15.156   3.513 -0.01 +0.04    -0.278 OA
DOCKED: BRANCH  21  22
DOCKED: ATOM     22  P   UNL d   1       9.520 -16.174   2.837 +0.01 -0.05    +0.473 P 
DOCKED: ATOM     23  O   UNL d   1       9.052 -17.561   2.553 +0.00 +0.01    -0.228 OA
DOCKED: BRANCH  22  24
DOCKED: ATOM     24  O   UNL d   1       9.996 -15.355   1.557 -0.01 +0.04    -0.303 OA
DOCKED: ATOM     25  H   UNL d   1       9.778 -14.400   1.704 +0.04 -0.05    +0.222 HD
DOCKED: ENDBRANCH  22  24
DOCKED: BRANCH  22  26
DOCKED: ATOM     26  O   UNL d   1      10.792 -16.045   3.804 -0.00 +0.04    -0.303 OA
DOCKED: ATOM     27  H   UNL d   1      11.328 -16.862   3.741 +0.01 -0.02    +0.222 HD
DOCKED: ENDBRANCH  22  26
DOCKED: ENDBRANCH  21  22
DOCKED: ENDBRANCH   6  21
DOCKED: BRANCH   3  28
DOCKED: ATOM     28  O   UNL d   1       3.615 -16.615   1.411 -0.14 -0.21    -0.278 OA
DOCKED: BRANCH  28  29
DOCKED: ATOM     29  P   UNL d   1       2.859 -17.911   0.876 -0.04 +0.32    +0.473 P 
DOCKED: ATOM     30  O   UNL d   1       1.731 -18.387   1.717 -0.59 -0.32    -0.228 OA
DOCKED: BRANCH  29  31
DOCKED: ATOM     31  O   UNL d   1       2.505 -17.434  -0.610 -0.03 -0.05    -0.303 OA
DOCKED: ATOM     32  H   UNL d   1       2.601 -16.454  -0.657 +0.05 +0.03    +0.222 HD
DOCKED: ENDBRANCH  29  31
DOCKED: BRANCH  29  33
DOCKED: ATOM     33  O   UNL d   1       4.062 -18.927   0.642 -0.01 -0.09    -0.303 OA
DOCKED: ATOM     34  H   UNL d   1       4.633 -18.940   1.449 +0.01 +0.08    +0.222 HD
DOCKED: ENDBRANCH  29  33
DOCKED: ENDBRANCH  28  29
DOCKED: ENDBRANCH   3  28
DOCKED: BRANCH   5  35
DOCKED: ATOM     35  O   UNL d   1       6.088 -15.423   5.145 -0.01 -0.06    -0.278 OA
DOCKED: BRANCH  35  36
DOCKED: ATOM     36  P   UNL d   1       4.906 -14.360   5.284 -0.01 +0.16    +0.473 P 
DOCKED: ATOM     37  O   UNL d   1       3.528 -14.935   5.366 -0.58 -0.25    -0.228 OA
DOCKED: BRANCH  36  38
DOCKED: ATOM     38  O   UNL d   1       5.353 -13.544   6.577 -0.04 -0.02    -0.303 OA
DOCKED: ATOM     39  H   UNL d   1       6.325 -13.623   6.686 +0.05 -0.01    +0.222 HD
DOCKED: ENDBRANCH  36  38
DOCKED: BRANCH  36  40
DOCKED: ATOM     40  O   UNL d   1       5.202 -13.363   4.081 -0.06 -0.03    -0.303 OA
DOCKED: ATOM     41  H   UNL d   1       5.087 -13.801   3.209 +0.08 +0.04    +0.222 HD
DOCKED: ENDBRANCH  36  40
DOCKED: ENDBRANCH  35  36
DOCKED: ENDBRANCH   5  35
DOCKED: BRANCH   4  42
DOCKED: ATOM     42  O   UNL d   1       4.496 -17.568   3.980 -0.06 -0.35    -0.278 OA
DOCKED: BRANCH  42  43
DOCKED: ATOM     43  P   UNL d   1       5.200 -18.963   3.659 -0.03 +0.22    +0.473 P 
DOCKED: ATOM     44  O   UNL d   1       6.394 -18.940   2.768 -0.00 -0.04    -0.228 OA
DOCKED: BRANCH  43  45
DOCKED: ATOM     45  O   UNL d   1       5.481 -19.554   5.109 -0.00 -0.09    -0.303 OA
DOCKED: ATOM     46  H   UNL d   1       6.175 -20.243   5.086 +0.01 +0.03    +0.222 HD
DOCKED: ENDBRANCH  43  45
DOCKED: BRANCH  43  47
DOCKED: ATOM     47  O   UNL d   1       3.984 -19.881   3.162 -0.04 -0.17    -0.303 OA
DOCKED: ATOM     48  H   UNL d   1       3.353 -19.333   2.651 +0.01 +0.21    +0.222 HD
DOCKED: ENDBRANCH  43  47
DOCKED: ENDBRANCH  42  43
DOCKED: ENDBRANCH   4  42
DOCKED: TORSDOF 24
DOCKED: TER
DOCKED: ENDMDL
________________________________________________________________________________


	BEGINNING GENETIC ALGORITHM DOCKING 41 of 100
Run: 41 Seed: 64551921 1096524622 [ Run 41 of 100 GA/GALS ]
Beginning LAMARCKIAN GENETIC ALGORITHM (LGA), with a maximum of 25000000 energy evaluations.

Final-Value: -20.282


	FINAL GENETIC ALGORITHM DOCKED STATE
	_______________________________________________


Detailed state:  trans 3.680 18.954 -5.686 quatxyzw -0.501975 -0.630659 0.591740 0.011584 center 0.035 0.082 -0.065 ntor 24 111.4964 79.8049 39.9318 -20.8136 164.4429 68.0625 -124.9052 -19.4228 -9.3232 13.9694 -158.8237 -151.6459 173.7097 158.9681 -125.7535 -123.5996 -180.0000 -146.3473 -2.4254 -24.4841 145.7626 -39.4576 -30.7829 148.9377
State:	  3.680  18.954  -5.686  -0.502 -0.631  0.592 178.672    111.50   79.80   39.93  -20.81  164.44   68.06 -124.91  -19.42   -9.32   13.97 -158.82 -151.65  173.71  158.97 -125.75 -123.60 -180.00 -146.35   -2.43  -24.48  145.76  -39.46  -30.78  148.94

DOCKED: MODEL       41
DOCKED: USER    Run = 41
DOCKED: USER    DPF = D:/Protein_go_brrr/autodock/final/AncMH_nat/IHP/dock.dpf
DOCKED: USER  
DOCKED: USER    Estimated Free Energy of Binding    =   -0.65 kcal/mol  [=(1)+(2)+(3)-(4)]
DOCKED: USER    Estimated Inhibition Constant, Ki   =  336.10 mM (millimolar)  [Temperature = 298.15 K]
DOCKED: USER    
DOCKED: USER    (1) Final Intermolecular Energy     =   -7.81 kcal/mol
DOCKED: USER        vdW + Hbond + desolv Energy     =   -7.33 kcal/mol
DOCKED: USER        Electrostatic Energy            =   -0.47 kcal/mol
DOCKED: USER    (2) Final Total Internal Energy     =  -12.48 kcal/mol
DOCKED: USER    (3) Torsional Free Energy           =   +7.16 kcal/mol
DOCKED: USER    (4) Unbound System's Energy  [=(2)] =  -12.48 kcal/mol
DOCKED: USER    
DOCKED: USER    
DOCKED: USER    NEWDPF move IHP_ideal_opt.pdbqt
DOCKED: USER    NEWDPF about 0.035000 0.082000 -0.065000
DOCKED: USER    NEWDPF tran0 3.679723 18.953840 -5.685813
DOCKED: USER    NEWDPF quaternion0 -0.501975 -0.630659 0.591740 0.011584
DOCKED: USER    NEWDPF axisangle0 -0.502009 -0.630701 0.591779 178.672486
DOCKED: USER    NEWDPF quat0 -0.502009 -0.630701 0.591779 178.672486
DOCKED: USER    NEWDPF dihe0 111.50 79.80 39.93 -20.81 164.44 68.06 -124.91 -19.42 -9.32 13.97 -158.82 -151.65 173.71 158.97 -125.75 -123.60 -180.00 -146.35 -2.43 -24.48 145.76 -39.46 -30.78 148.94 
DOCKED: USER  keepresnum = 1 
DOCKED: USER  
DOCKED: REMARK  24 active torsions:
DOCKED: REMARK  status: ('A' for Active; 'I' for Inactive)
DOCKED: REMARK    1  A    between atoms: C_1  and  O_7 
DOCKED: REMARK    2  A    between atoms: C_2  and  O_12 
DOCKED: REMARK    3  A    between atoms: C_3  and  O_17 
DOCKED: REMARK    4  A    between atoms: C_4  and  O_22 
DOCKED: REMARK    5  A    between atoms: C_5  and  O_27 
DOCKED: REMARK    6  A    between atoms: C_6  and  O_32 
DOCKED: REMARK    7  A    between atoms: O_7  and  P_8 
DOCKED: REMARK    8  A    between atoms: P_8  and  O_10 
DOCKED: REMARK    9  A    between atoms: P_8  and  O_11 
DOCKED: REMARK   10  A    between atoms: O_12  and  P_13 
DOCKED: REMARK   11  A    between atoms: P_13  and  O_15 
DOCKED: REMARK   12  A    between atoms: P_13  and  O_16 
DOCKED: REMARK   13  A    between atoms: O_17  and  P_18 
DOCKED: REMARK   14  A    between atoms: P_18  and  O_20 
DOCKED: REMARK   15  A    between atoms: P_18  and  O_21 
DOCKED: REMARK   16  A    between atoms: O_22  and  P_23 
DOCKED: REMARK   17  A    between atoms: P_23  and  O_25 
DOCKED: REMARK   18  A    between atoms: P_23  and  O_26 
DOCKED: REMARK   19  A    between atoms: O_27  and  P_28 
DOCKED: REMARK   20  A    between atoms: P_28  and  O_30 
DOCKED: REMARK   21  A    between atoms: P_28  and  O_31 
DOCKED: REMARK   22  A    between atoms: O_32  and  P_33 
DOCKED: REMARK   23  A    between atoms: P_33  and  O_35 
DOCKED: REMARK   24  A    between atoms: P_33  and  O_36 
DOCKED: USER                              x       y       z     vdW  Elec       q    Type
DOCKED: USER                           _______ _______ _______ _____ _____    ______ ____
DOCKED: ROOT
DOCKED: ATOM      1  C   UNL d   1       2.026  19.312  -6.033 -0.03 -0.01    +0.194 C 
DOCKED: ATOM      2  C   UNL d   1       2.338  18.983  -4.572 -0.04 +0.00    +0.194 C 
DOCKED: ATOM      3  C   UNL d   1       3.290  17.791  -4.451 -0.13 +0.01    +0.194 C 
DOCKED: ATOM      4  C   UNL d   1       4.555  17.943  -5.292 -0.17 +0.03    +0.194 C 
DOCKED: ATOM      5  C   UNL d   1       4.297  18.383  -6.727 -0.09 +0.01    +0.194 C 
DOCKED: ATOM      6  C   UNL d   1       3.298  19.535  -6.852 -0.02 -0.00    +0.194 C 
DOCKED: ENDROOT
DOCKED: BRANCH   1   7
DOCKED: ATOM      7  O   UNL d   1       1.279  20.530  -6.066 -0.01 +0.01    -0.278 OA
DOCKED: BRANCH   7   8
DOCKED: ATOM      8  P   UNL d   1      -0.134  20.535  -6.812 -0.01 -0.04    +0.473 P 
DOCKED: ATOM      9  O   UNL d   1      -0.368  21.697  -7.712 -0.01 +0.02    -0.228 OA
DOCKED: BRANCH   8  10
DOCKED: ATOM     10  O   UNL d   1      -0.174  19.133  -7.573 -0.06 +0.08    -0.303 OA
DOCKED: ATOM     11  H   UNL d   1       0.674  18.986  -8.031 -0.14 -0.07    +0.222 HD
DOCKED: ENDBRANCH   8  10
DOCKED: BRANCH   8  12
DOCKED: ATOM     12  O   UNL d   1      -1.209  20.320  -5.662 -0.02 +0.01    -0.303 OA
DOCKED: ATOM     13  H   UNL d   1      -0.956  20.748  -4.813 +0.03 -0.00    +0.222 HD
DOCKED: ENDBRANCH   8  12
DOCKED: ENDBRANCH   7   8
DOCKED: ENDBRANCH   1   7
DOCKED: BRANCH   2  14
DOCKED: ATOM     14  O   UNL d   1       2.953  20.122  -3.958 -0.02 -0.01    -0.278 OA
DOCKED: BRANCH  14  15
DOCKED: ATOM     15  P   UNL d   1       2.056  20.947  -2.919 +0.01 +0.03    +0.473 P 
DOCKED: ATOM     16  O   UNL d   1       2.268  22.428  -2.876 -0.01 -0.01    -0.228 OA
DOCKED: BRANCH  15  17
DOCKED: ATOM     17  O   UNL d   1       0.561  20.548  -3.296 -0.01 -0.01    -0.303 OA
DOCKED: ATOM     18  H   UNL d   1       0.374  20.732  -4.237 +0.03 +0.00    +0.222 HD
DOCKED: ENDBRANCH  15  17
DOCKED: BRANCH  15  19
DOCKED: ATOM     19  O   UNL d   1       2.251  20.186  -1.536 -0.07 -0.04    -0.303 OA
DOCKED: ATOM     20  H   UNL d   1       1.686  19.393  -1.478 +0.05 +0.02    +0.222 HD
DOCKED: ENDBRANCH  15  19
DOCKED: ENDBRANCH  14  15
DOCKED: ENDBRANCH   2  14
DOCKED: BRANCH   6  21
DOCKED: ATOM     21  O   UNL d   1       2.908  19.596  -8.222 -0.03 +0.02    -0.278 OA
DOCKED: BRANCH  21  22
DOCKED: ATOM     22  P   UNL d   1       2.579  18.250  -9.012 -0.12 -0.08    +0.473 P 
DOCKED: ATOM     23  O   UNL d   1       3.662  17.628  -9.828 -0.34 +0.01    -0.228 OA
DOCKED: BRANCH  22  24
DOCKED: ATOM     24  O   UNL d   1       2.002  17.324  -7.853 -0.19 +0.06    -0.303 OA
DOCKED: ATOM     25  H   UNL d   1       1.013  17.358  -7.895 -0.27 -0.11    +0.222 HD
DOCKED: ENDBRANCH  22  24
DOCKED: BRANCH  22  26
DOCKED: ATOM     26  O   UNL d   1       1.246  18.655  -9.806 -0.12 +0.10    -0.303 OA
DOCKED: ATOM     27  H   UNL d   1       0.476  18.222  -9.384 -0.53 -0.16    +0.222 HD
DOCKED: ENDBRANCH  22  26
DOCKED: ENDBRANCH  21  22
DOCKED: ENDBRANCH   6  21
DOCKED: BRANCH   3  28
DOCKED: ATOM     28  O   UNL d   1       3.737  17.735  -3.102 -0.18 -0.03    -0.278 OA
DOCKED: BRANCH  28  29
DOCKED: ATOM     29  P   UNL d   1       2.741  17.290  -1.942 -0.21 +0.03    +0.473 P 
DOCKED: ATOM     30  O   UNL d   1       2.999  17.895  -0.610 -0.28 -0.04    -0.228 OA
DOCKED: BRANCH  29  31
DOCKED: ATOM     31  O   UNL d   1       1.338  17.627  -2.634 -0.10 -0.02    -0.303 OA
DOCKED: ATOM     32  H   UNL d   1       1.222  18.605  -2.647 +0.08 +0.01    +0.222 HD
DOCKED: ENDBRANCH  29  31
DOCKED: BRANCH  29  33
DOCKED: ATOM     33  O   UNL d   1       2.807  15.702  -2.036 -0.30 +0.00    -0.303 OA
DOCKED: ATOM     34  H   UNL d   1       3.741  15.429  -2.213 -0.09 -0.02    +0.222 HD
DOCKED: ENDBRANCH  29  33
DOCKED: ENDBRANCH  28  29
DOCKED: ENDBRANCH   3  28
DOCKED: BRANCH   5  35
DOCKED: ATOM     35  O   UNL d   1       5.549  18.858  -7.217 -0.06 -0.02    -0.278 OA
DOCKED: BRANCH  35  36
DOCKED: ATOM     36  P   UNL d   1       6.459  17.926  -8.138 -0.09 +0.07    +0.473 P 
DOCKED: ATOM     37  O   UNL d   1       7.916  17.911  -7.800 -0.19 +0.02    -0.228 OA
DOCKED: BRANCH  36  38
DOCKED: ATOM     38  O   UNL d   1       5.738  16.514  -7.986 -0.35 -0.20    -0.303 OA
DOCKED: ATOM     39  H   UNL d   1       6.005  16.107  -7.134 -0.48 +0.00    +0.222 HD
DOCKED: ENDBRANCH  36  38
DOCKED: BRANCH  36  40
DOCKED: ATOM     40  O   UNL d   1       6.062  18.403  -9.602 -0.33 -0.06    -0.303 OA
DOCKED: ATOM     41  H   UNL d   1       5.146  18.758  -9.634 +0.06 +0.02    +0.222 HD
DOCKED: ENDBRANCH  36  40
DOCKED: ENDBRANCH  35  36
DOCKED: ENDBRANCH   5  35
DOCKED: BRANCH   4  42
DOCKED: ATOM     42  O   UNL d   1       5.171  16.652  -5.351 -0.78 -0.08    -0.278 OA
DOCKED: BRANCH  42  43
DOCKED: ATOM     43  P   UNL d   1       4.244  15.360  -5.469 -0.17 +0.07    +0.473 P 
DOCKED: ATOM     44  O   UNL d   1       3.994  14.578  -4.226 -0.52 -0.02    -0.228 OA
DOCKED: BRANCH  43  45
DOCKED: ATOM     45  O   UNL d   1       2.928  15.936  -6.153 -0.23 +0.03    -0.303 OA
DOCKED: ATOM     46  H   UNL d   1       2.676  15.415  -6.941 -0.33 -0.07    +0.222 HD
DOCKED: ENDBRANCH  43  45
DOCKED: BRANCH  43  47
DOCKED: ATOM     47  O   UNL d   1       4.908  14.542  -6.678 -0.11 -0.07    -0.303 OA
DOCKED: ATOM     48  H   UNL d   1       5.862  14.759  -6.729 -0.35 +0.02    +0.222 HD
DOCKED: ENDBRANCH  43  47
DOCKED: ENDBRANCH  42  43
DOCKED: ENDBRANCH   4  42
DOCKED: TORSDOF 24
DOCKED: TER
DOCKED: ENDMDL
________________________________________________________________________________


	BEGINNING GENETIC ALGORITHM DOCKING 42 of 100
Run: 42 Seed: 232036089 554883392 [ Run 42 of 100 GA/GALS ]
Beginning LAMARCKIAN GENETIC ALGORITHM (LGA), with a maximum of 25000000 energy evaluations.

Final-Value: -17.559


	FINAL GENETIC ALGORITHM DOCKED STATE
	_______________________________________________


Detailed state:  trans -5.452 19.954 0.823 quatxyzw -0.580316 -0.690223 0.251213 0.351734 center 0.035 0.082 -0.065 ntor 24 -40.6637 104.4810 151.0710 13.4259 16.1939 -146.3364 -103.0879 -122.3719 -1.0643 12.6742 169.9803 -64.7575 -66.8790 168.4827 109.6754 74.3598 165.6981 83.5744 -24.6206 -2.5625 -4.3885 -12.2176 -180.0000 28.0544
State:	 -5.452  19.954   0.823  -0.620 -0.737  0.268 138.813    -40.66  104.48  151.07   13.43   16.19 -146.34 -103.09 -122.37   -1.06   12.67  169.98  -64.76  -66.88  168.48  109.68   74.36  165.70   83.57  -24.62   -2.56   -4.39  -12.22 -180.00   28.05

DOCKED: MODEL       42
DOCKED: USER    Run = 42
DOCKED: USER    DPF = D:/Protein_go_brrr/autodock/final/AncMH_nat/IHP/dock.dpf
DOCKED: USER  
DOCKED: USER    Estimated Free Energy of Binding    =   +2.80 kcal/mol  [=(1)+(2)+(3)-(4)]
DOCKED: USER    
DOCKED: USER    (1) Final Intermolecular Energy     =   -4.36 kcal/mol
DOCKED: USER        vdW + Hbond + desolv Energy     =   -4.08 kcal/mol
DOCKED: USER        Electrostatic Energy            =   -0.28 kcal/mol
DOCKED: USER    (2) Final Total Internal Energy     =  -13.20 kcal/mol
DOCKED: USER    (3) Torsional Free Energy           =   +7.16 kcal/mol
DOCKED: USER    (4) Unbound System's Energy  [=(2)] =  -13.20 kcal/mol
DOCKED: USER    
DOCKED: USER    
DOCKED: USER    NEWDPF move IHP_ideal_opt.pdbqt
DOCKED: USER    NEWDPF about 0.035000 0.082000 -0.065000
DOCKED: USER    NEWDPF tran0 -5.452179 19.953628 0.823366
DOCKED: USER    NEWDPF quaternion0 -0.580316 -0.690223 0.251213 0.351734
DOCKED: USER    NEWDPF axisangle0 -0.619930 -0.737339 0.268362 138.813216
DOCKED: USER    NEWDPF quat0 -0.619930 -0.737339 0.268362 138.813216
DOCKED: USER    NEWDPF dihe0 -40.66 104.48 151.07 13.43 16.19 -146.34 -103.09 -122.37 -1.06 12.67 169.98 -64.76 -66.88 168.48 109.68 74.36 165.70 83.57 -24.62 -2.56 -4.39 -12.22 -180.00 28.05 
DOCKED: USER  keepresnum = 1 
DOCKED: USER  
DOCKED: REMARK  24 active torsions:
DOCKED: REMARK  status: ('A' for Active; 'I' for Inactive)
DOCKED: REMARK    1  A    between atoms: C_1  and  O_7 
DOCKED: REMARK    2  A    between atoms: C_2  and  O_12 
DOCKED: REMARK    3  A    between atoms: C_3  and  O_17 
DOCKED: REMARK    4  A    between atoms: C_4  and  O_22 
DOCKED: REMARK    5  A    between atoms: C_5  and  O_27 
DOCKED: REMARK    6  A    between atoms: C_6  and  O_32 
DOCKED: REMARK    7  A    between atoms: O_7  and  P_8 
DOCKED: REMARK    8  A    between atoms: P_8  and  O_10 
DOCKED: REMARK    9  A    between atoms: P_8  and  O_11 
DOCKED: REMARK   10  A    between atoms: O_12  and  P_13 
DOCKED: REMARK   11  A    between atoms: P_13  and  O_15 
DOCKED: REMARK   12  A    between atoms: P_13  and  O_16 
DOCKED: REMARK   13  A    between atoms: O_17  and  P_18 
DOCKED: REMARK   14  A    between atoms: P_18  and  O_20 
DOCKED: REMARK   15  A    between atoms: P_18  and  O_21 
DOCKED: REMARK   16  A    between atoms: O_22  and  P_23 
DOCKED: REMARK   17  A    between atoms: P_23  and  O_25 
DOCKED: REMARK   18  A    between atoms: P_23  and  O_26 
DOCKED: REMARK   19  A    between atoms: O_27  and  P_28 
DOCKED: REMARK   20  A    between atoms: P_28  and  O_30 
DOCKED: REMARK   21  A    between atoms: P_28  and  O_31 
DOCKED: REMARK   22  A    between atoms: O_32  and  P_33 
DOCKED: REMARK   23  A    between atoms: P_33  and  O_35 
DOCKED: REMARK   24  A    between atoms: P_33  and  O_36 
DOCKED: USER                              x       y       z     vdW  Elec       q    Type
DOCKED: USER                           _______ _______ _______ _____ _____    ______ ____
DOCKED: ROOT
DOCKED: ATOM      1  C   UNL d   1      -6.266  19.961  -0.700 -0.08 +0.01    +0.194 C 
DOCKED: ATOM      2  C   UNL d   1      -7.025  19.299   0.451 -0.11 +0.02    +0.194 C 
DOCKED: ATOM      3  C   UNL d   1      -6.109  18.413   1.298 -0.16 +0.01    +0.194 C 
DOCKED: ATOM      4  C   UNL d   1      -4.850  19.132   1.775 -0.13 +0.01    +0.194 C 
DOCKED: ATOM      5  C   UNL d   1      -4.122  19.902   0.680 -0.11 +0.00    +0.194 C 
DOCKED: ATOM      6  C   UNL d   1      -5.046  20.740  -0.206 -0.06 +0.00    +0.194 C 
DOCKED: ENDROOT
DOCKED: BRANCH   1   7
DOCKED: ATOM      7  O   UNL d   1      -7.142  20.897  -1.332 -0.03 -0.03    -0.278 OA
DOCKED: BRANCH   7   8
DOCKED: ATOM      8  P   UNL d   1      -6.995  21.132  -2.906 -0.02 +0.04    +0.473 P 
DOCKED: ATOM      9  O   UNL d   1      -5.733  20.619  -3.505 -0.07 -0.00    -0.228 OA
DOCKED: BRANCH   8  10
DOCKED: ATOM     10  O   UNL d   1      -8.302  20.456  -3.522 -0.03 -0.05    -0.303 OA
DOCKED: ATOM     11  H   UNL d   1      -8.452  20.795  -4.424 +0.04 +0.03    +0.222 HD
DOCKED: ENDBRANCH   8  10
DOCKED: BRANCH   8  12
DOCKED: ATOM     12  O   UNL d   1      -7.287  22.679  -3.122 -0.00 -0.02    -0.303 OA
DOCKED: ATOM     13  H   UNL d   1      -6.669  23.261  -2.625 +0.01 +0.01    +0.222 HD
DOCKED: ENDBRANCH   8  12
DOCKED: ENDBRANCH   7   8
DOCKED: ENDBRANCH   1   7
DOCKED: BRANCH   2  14
DOCKED: ATOM     14  O   UNL d   1      -7.579  20.319   1.292 -0.02 -0.05    -0.278 OA
DOCKED: BRANCH  14  15
DOCKED: ATOM     15  P   UNL d   1      -9.139  20.195   1.635 -0.05 +0.19    +0.473 P 
DOCKED: ATOM     16  O   UNL d   1      -9.946  21.452   1.557 -0.06 -0.10    -0.228 OA
DOCKED: BRANCH  15  17
DOCKED: ATOM     17  O   UNL d   1      -9.664  19.061   0.646 -0.16 -0.25    -0.303 OA
DOCKED: ATOM     18  H   UNL d   1      -9.147  18.239   0.748 +0.06 +0.12    +0.222 HD
DOCKED: ENDBRANCH  15  17
DOCKED: BRANCH  15  19
DOCKED: ATOM     19  O   UNL d   1      -9.178  19.440   3.035 -0.05 -0.07    -0.303 OA
DOCKED: ATOM     20  H   UNL d   1      -8.584  18.667   3.045 +0.07 +0.03    +0.222 HD
DOCKED: ENDBRANCH  15  19
DOCKED: ENDBRANCH  14  15
DOCKED: ENDBRANCH   2  14
DOCKED: BRANCH   6  21
DOCKED: ATOM     21  O   UNL d   1      -4.291  21.108  -1.358 -0.04 +0.00    -0.278 OA
DOCKED: BRANCH  21  22
DOCKED: ATOM     22  P   UNL d   1      -3.781  22.611  -1.523 +0.00 +0.01    +0.473 P 
DOCKED: ATOM     23  O   UNL d   1      -2.409  22.834  -2.064 -0.00 -0.01    -0.228 OA
DOCKED: BRANCH  22  24
DOCKED: ATOM     24  O   UNL d   1      -4.951  23.259  -2.385 -0.00 -0.01    -0.303 OA
DOCKED: ATOM     25  H   UNL d   1      -5.125  22.669  -3.162 +0.01 +0.00    +0.222 HD
DOCKED: ENDBRANCH  22  24
DOCKED: BRANCH  22  26
DOCKED: ATOM     26  O   UNL d   1      -4.068  23.214  -0.066 -0.00 -0.01    -0.303 OA
DOCKED: ATOM     27  H   UNL d   1      -3.847  22.542   0.610 +0.01 +0.01    +0.222 HD
DOCKED: ENDBRANCH  22  26
DOCKED: ENDBRANCH  21  22
DOCKED: ENDBRANCH   6  21
DOCKED: BRANCH   3  28
DOCKED: ATOM     28  O   UNL d   1      -6.820  18.071   2.482 -0.13 -0.01    -0.278 OA
DOCKED: BRANCH  28  29
DOCKED: ATOM     29  P   UNL d   1      -7.561  16.667   2.598 -0.20 +0.00    +0.473 P 
DOCKED: ATOM     30  O   UNL d   1      -6.754  15.482   2.206 -0.99 -0.03    -0.228 OA
DOCKED: BRANCH  29  31
DOCKED: ATOM     31  O   UNL d   1      -8.056  16.737   4.118 -0.11 +0.08    -0.303 OA
DOCKED: ATOM     32  H   UNL d   1      -7.287  16.965   4.689 -0.44 -0.15    +0.222 HD
DOCKED: ENDBRANCH  29  31
DOCKED: BRANCH  29  33
DOCKED: ATOM     33  O   UNL d   1      -8.901  16.928   1.779 -0.13 -0.07    -0.303 OA
DOCKED: ATOM     34  H   UNL d   1      -9.425  17.631   2.235 +0.08 +0.07    +0.222 HD
DOCKED: ENDBRANCH  29  33
DOCKED: ENDBRANCH  28  29
DOCKED: ENDBRANCH   3  28
DOCKED: BRANCH   5  35
DOCKED: ATOM     35  O   UNL d   1      -3.253  20.808   1.356 -0.04 -0.02    -0.278 OA
DOCKED: BRANCH  35  36
DOCKED: ATOM     36  P   UNL d   1      -3.810  21.732   2.531 +0.00 +0.04    +0.473 P 
DOCKED: ATOM     37  O   UNL d   1      -3.124  23.051   2.694 -0.01 -0.02    -0.228 OA
DOCKED: BRANCH  36  38
DOCKED: ATOM     38  O   UNL d   1      -5.354  21.839   2.158 -0.00 -0.02    -0.303 OA
DOCKED: ATOM     39  H   UNL d   1      -5.454  22.401   1.360 +0.01 +0.01    +0.222 HD
DOCKED: ENDBRANCH  36  38
DOCKED: BRANCH  36  40
DOCKED: ATOM     40  O   UNL d   1      -3.785  20.746   3.779 -0.02 -0.04    -0.303 OA
DOCKED: ATOM     41  H   UNL d   1      -3.904  19.809   3.505 +0.06 +0.02    +0.222 HD
DOCKED: ENDBRANCH  36  40
DOCKED: ENDBRANCH  35  36
DOCKED: ENDBRANCH   5  35
DOCKED: BRANCH   4  42
DOCKED: ATOM     42  O   UNL d   1      -3.951  18.124   2.249 -0.14 -0.01    -0.278 OA
DOCKED: BRANCH  42  43
DOCKED: ATOM     43  P   UNL d   1      -4.125  17.573   3.736 -0.15 +0.01    +0.473 P 
DOCKED: ATOM     44  O   UNL d   1      -4.182  16.096   3.919 -0.35 +0.02    -0.228 OA
DOCKED: BRANCH  43  45
DOCKED: ATOM     45  O   UNL d   1      -2.927  18.279   4.511 -0.16 -0.06    -0.303 OA
DOCKED: ATOM     46  H   UNL d   1      -3.228  19.086   4.974 +0.08 +0.05    +0.222 HD
DOCKED: ENDBRANCH  43  45
DOCKED: BRANCH  43  47
DOCKED: ATOM     47  O   UNL d   1      -5.392  18.388   4.283 -0.11 +0.01    -0.303 OA
DOCKED: ATOM     48  H   UNL d   1      -6.132  17.765   4.441 -0.34 -0.06    +0.222 HD
DOCKED: ENDBRANCH  43  47
DOCKED: ENDBRANCH  42  43
DOCKED: ENDBRANCH   4  42
DOCKED: TORSDOF 24
DOCKED: TER
DOCKED: ENDMDL
________________________________________________________________________________


	BEGINNING GENETIC ALGORITHM DOCKING 43 of 100
Run: 43 Seed: 1068572831 341304480 [ Run 43 of 100 GA/GALS ]
Beginning LAMARCKIAN GENETIC ALGORITHM (LGA), with a maximum of 25000000 energy evaluations.

Final-Value: -16.200


	FINAL GENETIC ALGORITHM DOCKED STATE
	_______________________________________________


Detailed state:  trans -12.263 1.849 19.735 quatxyzw -0.657972 0.184091 -0.342953 0.644645 center 0.035 0.082 -0.065 ntor 24 138.3240 30.0393 135.8008 -34.9856 2.5609 167.2140 -103.3416 -51.8311 158.3507 127.8209 112.7969 93.6223 5.8614 77.5579 162.1606 -19.6342 51.8758 72.8025 3.0162 -49.7111 -26.5874 26.3870 179.0998 -179.9242
State:	-12.263   1.849  19.735  -0.861  0.241 -0.449 99.722    138.32   30.04  135.80  -34.99    2.56  167.21 -103.34  -51.83  158.35  127.82  112.80   93.62    5.86   77.56  162.16  -19.63   51.88   72.80    3.02  -49.71  -26.59   26.39  179.10 -179.92

DOCKED: MODEL       43
DOCKED: USER    Run = 43
DOCKED: USER    DPF = D:/Protein_go_brrr/autodock/final/AncMH_nat/IHP/dock.dpf
DOCKED: USER  
DOCKED: USER    Estimated Free Energy of Binding    =   +3.17 kcal/mol  [=(1)+(2)+(3)-(4)]
DOCKED: USER    
DOCKED: USER    (1) Final Intermolecular Energy     =   -3.98 kcal/mol
DOCKED: USER        vdW + Hbond + desolv Energy     =   -3.76 kcal/mol
DOCKED: USER        Electrostatic Energy            =   -0.23 kcal/mol
DOCKED: USER    (2) Final Total Internal Energy     =  -12.22 kcal/mol
DOCKED: USER    (3) Torsional Free Energy           =   +7.16 kcal/mol
DOCKED: USER    (4) Unbound System's Energy  [=(2)] =  -12.22 kcal/mol
DOCKED: USER    
DOCKED: USER    
DOCKED: USER    NEWDPF move IHP_ideal_opt.pdbqt
DOCKED: USER    NEWDPF about 0.035000 0.082000 -0.065000
DOCKED: USER    NEWDPF tran0 -12.262818 1.848583 19.735500
DOCKED: USER    NEWDPF quaternion0 -0.657972 0.184091 -0.342953 0.644645
DOCKED: USER    NEWDPF axisangle0 -0.860676 0.240805 -0.448608 99.721903
DOCKED: USER    NEWDPF quat0 -0.860676 0.240805 -0.448608 99.721903
DOCKED: USER    NEWDPF dihe0 138.32 30.04 135.80 -34.99 2.56 167.21 -103.34 -51.83 158.35 127.82 112.80 93.62 5.86 77.56 162.16 -19.63 51.88 72.80 3.02 -49.71 -26.59 26.39 179.10 -179.92 
DOCKED: USER  keepresnum = 1 
DOCKED: USER  
DOCKED: REMARK  24 active torsions:
DOCKED: REMARK  status: ('A' for Active; 'I' for Inactive)
DOCKED: REMARK    1  A    between atoms: C_1  and  O_7 
DOCKED: REMARK    2  A    between atoms: C_2  and  O_12 
DOCKED: REMARK    3  A    between atoms: C_3  and  O_17 
DOCKED: REMARK    4  A    between atoms: C_4  and  O_22 
DOCKED: REMARK    5  A    between atoms: C_5  and  O_27 
DOCKED: REMARK    6  A    between atoms: C_6  and  O_32 
DOCKED: REMARK    7  A    between atoms: O_7  and  P_8 
DOCKED: REMARK    8  A    between atoms: P_8  and  O_10 
DOCKED: REMARK    9  A    between atoms: P_8  and  O_11 
DOCKED: REMARK   10  A    between atoms: O_12  and  P_13 
DOCKED: REMARK   11  A    between atoms: P_13  and  O_15 
DOCKED: REMARK   12  A    between atoms: P_13  and  O_16 
DOCKED: REMARK   13  A    between atoms: O_17  and  P_18 
DOCKED: REMARK   14  A    between atoms: P_18  and  O_20 
DOCKED: REMARK   15  A    between atoms: P_18  and  O_21 
DOCKED: REMARK   16  A    between atoms: O_22  and  P_23 
DOCKED: REMARK   17  A    between atoms: P_23  and  O_25 
DOCKED: REMARK   18  A    between atoms: P_23  and  O_26 
DOCKED: REMARK   19  A    between atoms: O_27  and  P_28 
DOCKED: REMARK   20  A    between atoms: P_28  and  O_30 
DOCKED: REMARK   21  A    between atoms: P_28  and  O_31 
DOCKED: REMARK   22  A    between atoms: O_32  and  P_33 
DOCKED: REMARK   23  A    between atoms: P_33  and  O_35 
DOCKED: REMARK   24  A    between atoms: P_33  and  O_36 
DOCKED: USER                              x       y       z     vdW  Elec       q    Type
DOCKED: USER                           _______ _______ _______ _____ _____    ______ ____
DOCKED: ROOT
DOCKED: ATOM      1  C   UNL d   1     -10.612   1.418  20.010 -0.09 -0.05    +0.194 C 
DOCKED: ATOM      2  C   UNL d   1     -11.011   1.609  18.545 -0.17 -0.04    +0.194 C 
DOCKED: ATOM      3  C   UNL d   1     -12.365   0.967  18.238 -0.14 -0.03    +0.194 C 
DOCKED: ATOM      4  C   UNL d   1     -13.469   1.402  19.198 -0.06 -0.01    +0.194 C 
DOCKED: ATOM      5  C   UNL d   1     -13.075   1.337  20.668 -0.03 -0.01    +0.194 C 
DOCKED: ATOM      6  C   UNL d   1     -11.694   1.924  20.966 -0.03 -0.02    +0.194 C 
DOCKED: ENDROOT
DOCKED: BRANCH   1   7
DOCKED: ATOM      7  O   UNL d   1      -9.433   2.187  20.255 -0.05 +0.07    -0.278 OA
DOCKED: BRANCH   7   8
DOCKED: ATOM      8  P   UNL d   1      -8.113   1.423  20.731 -0.05 -0.12    +0.473 P 
DOCKED: ATOM      9  O   UNL d   1      -7.635   0.356  19.810 -0.60 +0.03    -0.228 OA
DOCKED: BRANCH   8  10
DOCKED: ATOM     10  O   UNL d   1      -7.047   2.590  20.948 -0.02 +0.11    -0.303 OA
DOCKED: ATOM     11  H   UNL d   1      -7.332   3.387  20.463 +0.04 -0.12    +0.222 HD
DOCKED: ENDBRANCH   8  10
DOCKED: BRANCH   8  12
DOCKED: ATOM     12  O   UNL d   1      -8.416   0.967  22.223 -0.01 +0.05    -0.303 OA
DOCKED: ATOM     13  H   UNL d   1      -9.192   1.426  22.616 +0.01 -0.03    +0.222 HD
DOCKED: ENDBRANCH   8  12
DOCKED: ENDBRANCH   7   8
DOCKED: ENDBRANCH   1   7
DOCKED: BRANCH   2  14
DOCKED: ATOM     14  O   UNL d   1     -11.097   3.012  18.264 -0.15 +0.03    -0.278 OA
DOCKED: BRANCH  14  15
DOCKED: ATOM     15  P   UNL d   1      -9.719   3.763  17.944 -0.14 -0.09    +0.473 P 
DOCKED: ATOM     16  O   UNL d   1      -9.708   4.666  16.750 -0.56 +0.05    -0.228 OA
DOCKED: BRANCH  15  17
DOCKED: ATOM     17  O   UNL d   1      -9.370   4.526  19.298 -0.07 +0.12    -0.303 OA
DOCKED: ATOM     18  H   UNL d   1      -9.575   3.973  20.076 +0.04 -0.06    +0.222 HD
DOCKED: ENDBRANCH  15  17
DOCKED: BRANCH  15  19
DOCKED: ATOM     19  O   UNL d   1      -8.628   2.606  17.939 -0.15 +0.08    -0.303 OA
DOCKED: ATOM     20  H   UNL d   1      -8.191   2.519  18.806 +0.07 -0.09    +0.222 HD
DOCKED: ENDBRANCH  15  19
DOCKED: ENDBRANCH  14  15
DOCKED: ENDBRANCH   2  14
DOCKED: BRANCH   6  21
DOCKED: ATOM     21  O   UNL d   1     -11.333   1.487  22.274 -0.01 +0.03    -0.278 OA
DOCKED: BRANCH  21  22
DOCKED: ATOM     22  P   UNL d   1     -10.841   2.550  23.357 +0.01 -0.04    +0.473 P 
DOCKED: ATOM     23  O   UNL d   1     -10.211   2.041  24.609 -0.00 +0.02    -0.228 OA
DOCKED: BRANCH  22  24
DOCKED: ATOM     24  O   UNL d   1      -9.913   3.501  22.481 +0.00 +0.04    -0.303 OA
DOCKED: ATOM     25  H   UNL d   1      -9.149   2.964  22.149 +0.01 -0.04    +0.222 HD
DOCKED: ENDBRANCH  22  24
DOCKED: BRANCH  22  26
DOCKED: ATOM     26  O   UNL d   1     -12.153   3.452  23.546 +0.00 +0.02    -0.303 OA
DOCKED: ATOM     27  H   UNL d   1     -12.827   3.182  22.889 +0.00 -0.01    +0.222 HD
DOCKED: ENDBRANCH  22  26
DOCKED: ENDBRANCH  21  22
DOCKED: ENDBRANCH   6  21
DOCKED: BRANCH   3  28
DOCKED: ATOM     28  O   UNL d   1     -12.777   1.427  16.957 -0.19 +0.02    -0.278 OA
DOCKED: BRANCH  28  29
DOCKED: ATOM     29  P   UNL d   1     -13.415   0.414  15.906 -0.17 +0.00    +0.473 P 
DOCKED: ATOM     30  O   UNL d   1     -12.706  -0.882  15.752 -0.43 -0.01    -0.228 OA
DOCKED: BRANCH  29  31
DOCKED: ATOM     31  O   UNL d   1     -14.919   0.359  16.450 -0.06 -0.02    -0.303 OA
DOCKED: ATOM     32  H   UNL d   1     -14.897   0.155  17.413 +0.06 +0.01    +0.222 HD
DOCKED: ENDBRANCH  29  31
DOCKED: BRANCH  29  33
DOCKED: ATOM     33  O   UNL d   1     -13.545   1.322  14.604 -0.25 +0.02    -0.303 OA
DOCKED: ATOM     34  H   UNL d   1     -13.099   2.189  14.771 +0.07 -0.04    +0.222 HD
DOCKED: ENDBRANCH  29  33
DOCKED: ENDBRANCH  28  29
DOCKED: ENDBRANCH   3  28
DOCKED: BRANCH   5  35
DOCKED: ATOM     35  O   UNL d   1     -14.030   2.138  21.361 -0.00 +0.00    -0.278 OA
DOCKED: BRANCH  35  36
DOCKED: ATOM     36  P   UNL d   1     -14.351   3.619  20.863 +0.01 +0.01    +0.473 P 
DOCKED: ATOM     37  O   UNL d   1     -15.551   3.756  19.981 -0.00 -0.02    -0.228 OA
DOCKED: BRANCH  36  38
DOCKED: ATOM     38  O   UNL d   1     -14.457   4.411  22.240 -0.00 -0.00    -0.303 OA
DOCKED: ATOM     39  H   UNL d   1     -13.565   4.732  22.495 +0.00 -0.00    +0.222 HD
DOCKED: ENDBRANCH  36  38
DOCKED: BRANCH  36  40
DOCKED: ATOM     40  O   UNL d   1     -12.955   4.085  20.260 -0.00 +0.01    -0.303 OA
DOCKED: ATOM     41  H   UNL d   1     -12.854   3.810  19.321 +0.04 -0.01    +0.222 HD
DOCKED: ENDBRANCH  36  40
DOCKED: ENDBRANCH  35  36
DOCKED: ENDBRANCH   5  35
DOCKED: BRANCH   4  42
DOCKED: ATOM     42  O   UNL d   1     -14.561   0.495  19.014 -0.03 -0.00    -0.278 OA
DOCKED: BRANCH  42  43
DOCKED: ATOM     43  P   UNL d   1     -14.393  -1.020  19.487 -0.03 +0.01    +0.473 P 
DOCKED: ATOM     44  O   UNL d   1     -15.318  -1.516  20.543 -0.01 -0.02    -0.228 OA
DOCKED: BRANCH  43  45
DOCKED: ATOM     45  O   UNL d   1     -14.477  -1.824  18.117 -0.09 -0.03    -0.303 OA
DOCKED: ATOM     46  H   UNL d   1     -14.003  -1.359  17.399 +0.06 +0.01    +0.222 HD
DOCKED: ENDBRANCH  43  45
DOCKED: BRANCH  43  47
DOCKED: ATOM     47  O   UNL d   1     -12.831  -1.125  19.831 -0.07 +0.06    -0.303 OA
DOCKED: ATOM     48  H   UNL d   1     -12.336  -1.358  19.018 -0.52 -0.11    +0.222 HD
DOCKED: ENDBRANCH  43  47
DOCKED: ENDBRANCH  42  43
DOCKED: ENDBRANCH   4  42
DOCKED: TORSDOF 24
DOCKED: TER
DOCKED: ENDMDL
________________________________________________________________________________


	BEGINNING GENETIC ALGORITHM DOCKING 44 of 100
Run: 44 Seed: 2104084015 576277109 [ Run 44 of 100 GA/GALS ]
Beginning LAMARCKIAN GENETIC ALGORITHM (LGA), with a maximum of 25000000 energy evaluations.

Final-Value: -19.533


	FINAL GENETIC ALGORITHM DOCKED STATE
	_______________________________________________


Detailed state:  trans 6.397 -13.714 -9.855 quatxyzw 0.685073 0.577861 0.165206 0.411654 center 0.035 0.082 -0.065 ntor 24 -150.1475 4.5794 -126.6816 137.1715 113.4380 155.8432 -31.0564 -136.2750 127.4778 -6.2239 26.5243 -164.3116 54.6765 60.6580 60.4512 109.6873 31.2177 150.8250 -14.3875 21.1094 -19.1310 2.6390 -15.0180 -13.3056
State:	  6.397 -13.714  -9.855   0.752  0.634  0.181 131.382   -150.15    4.58 -126.68  137.17  113.44  155.84  -31.06 -136.28  127.48   -6.22   26.52 -164.31   54.68   60.66   60.45  109.69   31.22  150.82  -14.39   21.11  -19.13    2.64  -15.02  -13.31

DOCKED: MODEL       44
DOCKED: USER    Run = 44
DOCKED: USER    DPF = D:/Protein_go_brrr/autodock/final/AncMH_nat/IHP/dock.dpf
DOCKED: USER  
DOCKED: USER    Estimated Free Energy of Binding    =   +2.84 kcal/mol  [=(1)+(2)+(3)-(4)]
DOCKED: USER    
DOCKED: USER    (1) Final Intermolecular Energy     =   -4.32 kcal/mol
DOCKED: USER        vdW + Hbond + desolv Energy     =   -4.01 kcal/mol
DOCKED: USER        Electrostatic Energy            =   -0.31 kcal/mol
DOCKED: USER    (2) Final Total Internal Energy     =  -15.21 kcal/mol
DOCKED: USER    (3) Torsional Free Energy           =   +7.16 kcal/mol
DOCKED: USER    (4) Unbound System's Energy  [=(2)] =  -15.21 kcal/mol
DOCKED: USER    
DOCKED: USER    
DOCKED: USER    NEWDPF move IHP_ideal_opt.pdbqt
DOCKED: USER    NEWDPF about 0.035000 0.082000 -0.065000
DOCKED: USER    NEWDPF tran0 6.397404 -13.714480 -9.855112
DOCKED: USER    NEWDPF quaternion0 0.685073 0.577861 0.165206 0.411654
DOCKED: USER    NEWDPF axisangle0 0.751720 0.634078 0.181278 131.382485
DOCKED: USER    NEWDPF quat0 0.751720 0.634078 0.181278 131.382485
DOCKED: USER    NEWDPF dihe0 -150.15 4.58 -126.68 137.17 113.44 155.84 -31.06 -136.28 127.48 -6.22 26.52 -164.31 54.68 60.66 60.45 109.69 31.22 150.82 -14.39 21.11 -19.13 2.64 -15.02 -13.31 
DOCKED: USER  keepresnum = 1 
DOCKED: USER  
DOCKED: REMARK  24 active torsions:
DOCKED: REMARK  status: ('A' for Active; 'I' for Inactive)
DOCKED: REMARK    1  A    between atoms: C_1  and  O_7 
DOCKED: REMARK    2  A    between atoms: C_2  and  O_12 
DOCKED: REMARK    3  A    between atoms: C_3  and  O_17 
DOCKED: REMARK    4  A    between atoms: C_4  and  O_22 
DOCKED: REMARK    5  A    between atoms: C_5  and  O_27 
DOCKED: REMARK    6  A    between atoms: C_6  and  O_32 
DOCKED: REMARK    7  A    between atoms: O_7  and  P_8 
DOCKED: REMARK    8  A    between atoms: P_8  and  O_10 
DOCKED: REMARK    9  A    between atoms: P_8  and  O_11 
DOCKED: REMARK   10  A    between atoms: O_12  and  P_13 
DOCKED: REMARK   11  A    between atoms: P_13  and  O_15 
DOCKED: REMARK   12  A    between atoms: P_13  and  O_16 
DOCKED: REMARK   13  A    between atoms: O_17  and  P_18 
DOCKED: REMARK   14  A    between atoms: P_18  and  O_20 
DOCKED: REMARK   15  A    between atoms: P_18  and  O_21 
DOCKED: REMARK   16  A    between atoms: O_22  and  P_23 
DOCKED: REMARK   17  A    between atoms: P_23  and  O_25 
DOCKED: REMARK   18  A    between atoms: P_23  and  O_26 
DOCKED: REMARK   19  A    between atoms: O_27  and  P_28 
DOCKED: REMARK   20  A    between atoms: P_28  and  O_30 
DOCKED: REMARK   21  A    between atoms: P_28  and  O_31 
DOCKED: REMARK   22  A    between atoms: O_32  and  P_33 
DOCKED: REMARK   23  A    between atoms: P_33  and  O_35 
DOCKED: REMARK   24  A    between atoms: P_33  and  O_36 
DOCKED: USER                              x       y       z     vdW  Elec       q    Type
DOCKED: USER                           _______ _______ _______ _____ _____    ______ ____
DOCKED: ROOT
DOCKED: ATOM      1  C   UNL d   1       5.724 -12.302  -9.124 -0.09 -0.01    +0.194 C 
DOCKED: ATOM      2  C   UNL d   1       4.724 -13.404  -9.476 +0.07 -0.02    +0.194 C 
DOCKED: ATOM      3  C   UNL d   1       5.003 -14.002 -10.857 -0.05 -0.02    +0.194 C 
DOCKED: ATOM      4  C   UNL d   1       6.450 -14.457 -11.034 -0.01 -0.02    +0.194 C 
DOCKED: ATOM      5  C   UNL d   1       7.482 -13.431 -10.586 -0.01 -0.02    +0.194 C 
DOCKED: ATOM      6  C   UNL d   1       7.170 -12.787  -9.233 -0.03 -0.02    +0.194 C 
DOCKED: ENDROOT
DOCKED: BRANCH   1   7
DOCKED: ATOM      7  O   UNL d   1       5.505 -11.919  -7.764 -0.17 +0.01    -0.278 OA
DOCKED: BRANCH   7   8
DOCKED: ATOM      8  P   UNL d   1       5.517 -10.363  -7.402 -0.16 +0.01    +0.473 P 
DOCKED: ATOM      9  O   UNL d   1       4.181  -9.771  -7.119 -1.09 -0.05    -0.228 OA
DOCKED: BRANCH   8  10
DOCKED: ATOM     10  O   UNL d   1       6.524 -10.260  -6.169 -0.33 -0.01    -0.303 OA
DOCKED: ATOM     11  H   UNL d   1       7.366 -10.696  -6.398 +0.04 -0.04    +0.222 HD
DOCKED: ENDBRANCH   8  10
DOCKED: BRANCH   8  12
DOCKED: ATOM     12  O   UNL d   1       6.348  -9.674  -8.568 -0.14 +0.03    -0.303 OA
DOCKED: ATOM     13  H   UNL d   1       7.137 -10.195  -8.839 +0.11 -0.03    +0.222 HD
DOCKED: ENDBRANCH   8  12
DOCKED: ENDBRANCH   7   8
DOCKED: ENDBRANCH   1   7
DOCKED: BRANCH   2  14
DOCKED: ATOM     14  O   UNL d   1       4.816 -14.448  -8.499 -0.05 +0.07    -0.278 OA
DOCKED: BRANCH  14  15
DOCKED: ATOM     15  P   UNL d   1       3.495 -15.321  -8.257 -0.08 -0.23    +0.473 P 
DOCKED: ATOM     16  O   UNL d   1       3.577 -16.774  -8.604 -0.02 +0.07    -0.228 OA
DOCKED: BRANCH  15  17
DOCKED: ATOM     17  O   UNL d   1       3.142 -15.071  -6.724 -0.08 +0.36    -0.303 OA
DOCKED: ATOM     18  H   UNL d   1       2.182 -14.938  -6.601 -0.49 -0.59    +0.222 HD
DOCKED: ENDBRANCH  15  17
DOCKED: BRANCH  15  19
DOCKED: ATOM     19  O   UNL d   1       2.342 -14.505  -8.988 -0.10 +0.17    -0.303 OA
DOCKED: ATOM     20  H   UNL d   1       2.369 -14.629  -9.954 +0.00 -0.07    +0.222 HD
DOCKED: ENDBRANCH  15  19
DOCKED: ENDBRANCH  14  15
DOCKED: ENDBRANCH   2  14
DOCKED: BRANCH   6  21
DOCKED: ATOM     21  O   UNL d   1       8.007 -11.639  -9.120 -0.04 +0.04    -0.278 OA
DOCKED: BRANCH  21  22
DOCKED: ATOM     22  P   UNL d   1       9.027 -11.519  -7.899 -0.08 -0.12    +0.473 P 
DOCKED: ATOM     23  O   UNL d   1      10.406 -12.057  -8.078 -0.06 +0.06    -0.228 OA
DOCKED: BRANCH  22  24
DOCKED: ATOM     24  O   UNL d   1       8.955  -9.965  -7.566 -0.24 +0.10    -0.303 OA
DOCKED: ATOM     25  H   UNL d   1       8.000  -9.701  -7.528 +0.10 -0.05    +0.222 HD
DOCKED: ENDBRANCH  22  24
DOCKED: BRANCH  22  26
DOCKED: ATOM     26  O   UNL d   1       8.175 -12.155  -6.700 -0.11 +0.06    -0.303 OA
DOCKED: ATOM     27  H   UNL d   1       7.227 -12.160  -6.946 +0.08 -0.02    +0.222 HD
DOCKED: ENDBRANCH  22  26
DOCKED: ENDBRANCH  21  22
DOCKED: ENDBRANCH   6  21
DOCKED: BRANCH   3  28
DOCKED: ATOM     28  O   UNL d   1       4.219 -15.182 -10.979 -0.05 +0.04    -0.278 OA
DOCKED: BRANCH  28  29
DOCKED: ATOM     29  P   UNL d   1       3.027 -15.250 -12.033 -0.04 -0.07    +0.473 P 
DOCKED: ATOM     30  O   UNL d   1       3.419 -15.605 -13.421 -0.01 +0.03    -0.228 OA
DOCKED: BRANCH  29  31
DOCKED: ATOM     31  O   UNL d   1       2.042 -16.259 -11.276 -0.02 +0.06    -0.303 OA
DOCKED: ATOM     32  H   UNL d   1       2.272 -16.263 -10.318 +0.02 -0.06    +0.222 HD
DOCKED: ENDBRANCH  29  31
DOCKED: BRANCH  29  33
DOCKED: ATOM     33  O   UNL d   1       2.315 -13.841 -11.824 -0.61 +0.04    -0.303 OA
DOCKED: ATOM     34  H   UNL d   1       1.770 -13.876 -11.000 -0.32 -0.06    +0.222 HD
DOCKED: ENDBRANCH  29  33
DOCKED: ENDBRANCH  28  29
DOCKED: ENDBRANCH   3  28
DOCKED: BRANCH   5  35
DOCKED: ATOM     35  O   UNL d   1       8.704 -14.151 -10.437 +0.00 +0.04    -0.278 OA
DOCKED: BRANCH  35  36
DOCKED: ATOM     36  P   UNL d   1       9.951 -13.823 -11.375 +0.01 -0.06    +0.473 P 
DOCKED: ATOM     37  O   UNL d   1      10.693 -12.566 -11.047 -0.00 +0.04    -0.228 OA
DOCKED: BRANCH  36  38
DOCKED: ATOM     38  O   UNL d   1      10.820 -15.150 -11.239 +0.00 +0.04    -0.303 OA
DOCKED: ATOM     39  H   UNL d   1      10.276 -15.920 -11.511 +0.00 -0.02    +0.222 HD
DOCKED: ENDBRANCH  36  38
DOCKED: BRANCH  36  40
DOCKED: ATOM     40  O   UNL d   1       9.318 -13.928 -12.831 +0.00 +0.03    -0.303 OA
DOCKED: ATOM     41  H   UNL d   1       8.787 -14.748 -12.938 +0.00 -0.02    +0.222 HD
DOCKED: ENDBRANCH  36  40
DOCKED: ENDBRANCH  35  36
DOCKED: ENDBRANCH   5  35
DOCKED: BRANCH   4  42
DOCKED: ATOM     42  O   UNL d   1       6.648 -14.671 -12.435 +0.00 +0.03    -0.278 OA
DOCKED: BRANCH  42  43
DOCKED: ATOM     43  P   UNL d   1       7.173 -16.093 -12.931 +0.01 -0.04    +0.473 P 
DOCKED: ATOM     44  O   UNL d   1       7.726 -16.178 -14.312 +0.00 +0.02    -0.228 OA
DOCKED: BRANCH  43  45
DOCKED: ATOM     45  O   UNL d   1       8.205 -16.502 -11.791 +0.00 +0.03    -0.303 OA
DOCKED: ATOM     46  H   UNL d   1       8.804 -15.761 -11.569 +0.00 -0.02    +0.222 HD
DOCKED: ENDBRANCH  43  45
DOCKED: BRANCH  43  47
DOCKED: ATOM     47  O   UNL d   1       5.940 -17.068 -12.619 +0.00 +0.03    -0.303 OA
DOCKED: ATOM     48  H   UNL d   1       5.140 -16.531 -12.442 +0.00 -0.02    +0.222 HD
DOCKED: ENDBRANCH  43  47
DOCKED: ENDBRANCH  42  43
DOCKED: ENDBRANCH   4  42
DOCKED: TORSDOF 24
DOCKED: TER
DOCKED: ENDMDL
________________________________________________________________________________


	BEGINNING GENETIC ALGORITHM DOCKING 45 of 100
Run: 45 Seed: 67801189 25455956 [ Run 45 of 100 GA/GALS ]
Beginning LAMARCKIAN GENETIC ALGORITHM (LGA), with a maximum of 25000000 energy evaluations.

Final-Value: -15.931


	FINAL GENETIC ALGORITHM DOCKED STATE
	_______________________________________________


Detailed state:  trans -14.919 -5.161 -6.931 quatxyzw 0.909476 0.401166 -0.062731 -0.089355 center 0.035 0.082 -0.065 ntor 24 -109.6781 36.8360 138.8020 3.5100 -45.2710 -120.8176 -31.6681 -20.7296 -161.4565 114.3007 121.1254 -47.3087 -152.4556 81.9257 -15.0376 48.9287 -13.1038 -121.0284 31.9093 -33.0060 -48.0962 -38.2108 136.0702 10.2995
State:	-14.919  -5.161  -6.931   0.913  0.403 -0.063 -169.747   -109.68   36.84  138.80    3.51  -45.27 -120.82  -31.67  -20.73 -161.46  114.30  121.13  -47.31 -152.46   81.93  -15.04   48.93  -13.10 -121.03   31.91  -33.01  -48.10  -38.21  136.07   10.30

DOCKED: MODEL       45
DOCKED: USER    Run = 45
DOCKED: USER    DPF = D:/Protein_go_brrr/autodock/final/AncMH_nat/IHP/dock.dpf
DOCKED: USER  
DOCKED: USER    Estimated Free Energy of Binding    =   +4.03 kcal/mol  [=(1)+(2)+(3)-(4)]
DOCKED: USER    
DOCKED: USER    (1) Final Intermolecular Energy     =   -3.13 kcal/mol
DOCKED: USER        vdW + Hbond + desolv Energy     =   -2.88 kcal/mol
DOCKED: USER        Electrostatic Energy            =   -0.26 kcal/mol
DOCKED: USER    (2) Final Total Internal Energy     =  -12.80 kcal/mol
DOCKED: USER    (3) Torsional Free Energy           =   +7.16 kcal/mol
DOCKED: USER    (4) Unbound System's Energy  [=(2)] =  -12.80 kcal/mol
DOCKED: USER    
DOCKED: USER    
DOCKED: USER    NEWDPF move IHP_ideal_opt.pdbqt
DOCKED: USER    NEWDPF about 0.035000 0.082000 -0.065000
DOCKED: USER    NEWDPF tran0 -14.919174 -5.161162 -6.931213
DOCKED: USER    NEWDPF quaternion0 0.909476 0.401166 -0.062731 -0.089355
DOCKED: USER    NEWDPF axisangle0 0.913129 0.402777 -0.062983 -169.746946
DOCKED: USER    NEWDPF quat0 0.913129 0.402777 -0.062983 -169.746946
DOCKED: USER    NEWDPF dihe0 -109.68 36.84 138.80 3.51 -45.27 -120.82 -31.67 -20.73 -161.46 114.30 121.13 -47.31 -152.46 81.93 -15.04 48.93 -13.10 -121.03 31.91 -33.01 -48.10 -38.21 136.07 10.30 
DOCKED: USER  keepresnum = 1 
DOCKED: USER  
DOCKED: REMARK  24 active torsions:
DOCKED: REMARK  status: ('A' for Active; 'I' for Inactive)
DOCKED: REMARK    1  A    between atoms: C_1  and  O_7 
DOCKED: REMARK    2  A    between atoms: C_2  and  O_12 
DOCKED: REMARK    3  A    between atoms: C_3  and  O_17 
DOCKED: REMARK    4  A    between atoms: C_4  and  O_22 
DOCKED: REMARK    5  A    between atoms: C_5  and  O_27 
DOCKED: REMARK    6  A    between atoms: C_6  and  O_32 
DOCKED: REMARK    7  A    between atoms: O_7  and  P_8 
DOCKED: REMARK    8  A    between atoms: P_8  and  O_10 
DOCKED: REMARK    9  A    between atoms: P_8  and  O_11 
DOCKED: REMARK   10  A    between atoms: O_12  and  P_13 
DOCKED: REMARK   11  A    between atoms: P_13  and  O_15 
DOCKED: REMARK   12  A    between atoms: P_13  and  O_16 
DOCKED: REMARK   13  A    between atoms: O_17  and  P_18 
DOCKED: REMARK   14  A    between atoms: P_18  and  O_20 
DOCKED: REMARK   15  A    between atoms: P_18  and  O_21 
DOCKED: REMARK   16  A    between atoms: O_22  and  P_23 
DOCKED: REMARK   17  A    between atoms: P_23  and  O_25 
DOCKED: REMARK   18  A    between atoms: P_23  and  O_26 
DOCKED: REMARK   19  A    between atoms: O_27  and  P_28 
DOCKED: REMARK   20  A    between atoms: P_28  and  O_30 
DOCKED: REMARK   21  A    between atoms: P_28  and  O_31 
DOCKED: REMARK   22  A    between atoms: O_32  and  P_33 
DOCKED: REMARK   23  A    between atoms: P_33  and  O_35 
DOCKED: REMARK   24  A    between atoms: P_33  and  O_36 
DOCKED: USER                              x       y       z     vdW  Elec       q    Type
DOCKED: USER                           _______ _______ _______ _____ _____    ______ ____
DOCKED: ROOT
DOCKED: ATOM      1  C   UNL d   1     -14.771  -3.841  -8.036 -0.00 +0.05    +0.194 C 
DOCKED: ATOM      2  C   UNL d   1     -16.187  -4.127  -7.534 +0.00 +0.05    +0.194 C 
DOCKED: ATOM      3  C   UNL d   1     -16.491  -5.627  -7.517 +0.00 +0.05    +0.194 C 
DOCKED: ATOM      4  C   UNL d   1     -15.439  -6.445  -6.773 -0.01 +0.07    +0.194 C 
DOCKED: ATOM      5  C   UNL d   1     -14.004  -6.110  -7.160 -0.05 +0.09    +0.194 C 
DOCKED: ATOM      6  C   UNL d   1     -13.717  -4.609  -7.237 -0.05 +0.07    +0.194 C 
DOCKED: ENDROOT
DOCKED: BRANCH   1   7
DOCKED: ATOM      7  O   UNL d   1     -14.508  -2.447  -7.858 -0.00 -0.05    -0.278 OA
DOCKED: BRANCH   7   8
DOCKED: ATOM      8  P   UNL d   1     -14.861  -1.450  -9.055 +0.01 +0.05    +0.473 P 
DOCKED: ATOM      9  O   UNL d   1     -13.702  -1.027  -9.887 -0.00 -0.01    -0.228 OA
DOCKED: BRANCH   8  10
DOCKED: ATOM     10  O   UNL d   1     -15.981  -2.224  -9.886 +0.00 -0.03    -0.303 OA
DOCKED: ATOM     11  H   UNL d   1     -16.865  -1.964  -9.565 +0.00 +0.02    +0.222 HD
DOCKED: ENDBRANCH   8  10
DOCKED: BRANCH   8  12
DOCKED: ATOM     12  O   UNL d   1     -15.696  -0.278  -8.382 +0.00 -0.03    -0.303 OA
DOCKED: ATOM     13  H   UNL d   1     -15.932  -0.461  -7.445 +0.01 +0.03    +0.222 HD
DOCKED: ENDBRANCH   8  12
DOCKED: ENDBRANCH   7   8
DOCKED: ENDBRANCH   1   7
DOCKED: BRANCH   2  14
DOCKED: ATOM     14  O   UNL d   1     -16.322  -3.619  -6.201 -0.01 -0.10    -0.278 OA
DOCKED: BRANCH  14  15
DOCKED: ATOM     15  P   UNL d   1     -17.025  -2.189  -6.047 +0.01 +0.15    +0.473 P 
DOCKED: ATOM     16  O   UNL d   1     -18.014  -2.043  -4.932 -0.00 -0.08    -0.228 OA
DOCKED: BRANCH  15  17
DOCKED: ATOM     17  O   UNL d   1     -15.808  -1.169  -5.930 -0.00 -0.09    -0.303 OA
DOCKED: ATOM     18  H   UNL d   1     -15.107  -1.382  -6.575 +0.02 +0.05    +0.222 HD
DOCKED: ENDBRANCH  15  17
DOCKED: BRANCH  15  19
DOCKED: ATOM     19  O   UNL d   1     -17.579  -1.861  -7.501 +0.00 -0.05    -0.303 OA
DOCKED: ATOM     20  H   UNL d   1     -16.870  -1.886  -8.171 +0.00 +0.03    +0.222 HD
DOCKED: ENDBRANCH  15  19
DOCKED: ENDBRANCH  14  15
DOCKED: ENDBRANCH   2  14
DOCKED: BRANCH   6  21
DOCKED: ATOM     21  O   UNL d   1     -12.478  -4.461  -7.927 -0.07 -0.11    -0.278 OA
DOCKED: BRANCH  21  22
DOCKED: ATOM     22  P   UNL d   1     -11.536  -3.216  -7.604 -0.09 +0.09    +0.473 P 
DOCKED: ATOM     23  O   UNL d   1     -11.802  -2.434  -6.362 -0.17 -0.04    -0.228 OA
DOCKED: BRANCH  22  24
DOCKED: ATOM     24  O   UNL d   1     -10.089  -3.874  -7.680 -0.13 -0.04    -0.303 OA
DOCKED: ATOM     25  H   UNL d   1      -9.708  -3.889  -6.765 -0.44 -0.02    +0.222 HD
DOCKED: ENDBRANCH  22  24
DOCKED: BRANCH  22  26
DOCKED: ATOM     26  O   UNL d   1     -11.598  -2.394  -8.979 -0.04 -0.03    -0.303 OA
DOCKED: ATOM     27  H   UNL d   1     -12.511  -2.070  -9.119 +0.03 +0.02    +0.222 HD
DOCKED: ENDBRANCH  22  26
DOCKED: ENDBRANCH  21  22
DOCKED: ENDBRANCH   6  21
DOCKED: BRANCH   3  28
DOCKED: ATOM     28  O   UNL d   1     -17.698  -5.811  -6.789 +0.00 -0.07    -0.278 OA
DOCKED: BRANCH  28  29
DOCKED: ATOM     29  P   UNL d   1     -19.094  -5.379  -7.421 +0.01 +0.08    +0.473 P 
DOCKED: ATOM     30  O   UNL d   1     -19.128  -5.300  -8.904 +0.00 -0.03    -0.228 OA
DOCKED: BRANCH  29  31
DOCKED: ATOM     31  O   UNL d   1     -20.058  -6.452  -6.729 +0.00 -0.05    -0.303 OA
DOCKED: ATOM     32  H   UNL d   1     -19.608  -6.808  -5.928 +0.00 +0.05    +0.222 HD
DOCKED: ENDBRANCH  29  31
DOCKED: BRANCH  29  33
DOCKED: ATOM     33  O   UNL d   1     -19.423  -4.042  -6.622 +0.00 -0.06    -0.303 OA
DOCKED: ATOM     34  H   UNL d   1     -18.586  -3.534  -6.487 +0.01 +0.05    +0.222 HD
DOCKED: ENDBRANCH  29  33
DOCKED: ENDBRANCH  28  29
DOCKED: ENDBRANCH   3  28
DOCKED: BRANCH   5  35
DOCKED: ATOM     35  O   UNL d   1     -13.188  -6.641  -6.118 -0.10 -0.15    -0.278 OA
DOCKED: BRANCH  35  36
DOCKED: ATOM     36  P   UNL d   1     -12.756  -5.723  -4.888 -0.22 +0.28    +0.473 P 
DOCKED: ATOM     37  O   UNL d   1     -13.738  -4.664  -4.498 -0.65 -0.22    -0.228 OA
DOCKED: BRANCH  36  38
DOCKED: ATOM     38  O   UNL d   1     -12.477  -6.806  -3.754 -0.28 -0.15    -0.303 OA
DOCKED: ATOM     39  H   UNL d   1     -11.589  -6.646  -3.368 -0.44 +0.02    +0.222 HD
DOCKED: ENDBRANCH  36  38
DOCKED: BRANCH  36  40
DOCKED: ATOM     40  O   UNL d   1     -11.304  -5.237  -5.319 -0.32 -0.13    -0.303 OA
DOCKED: ATOM     41  H   UNL d   1     -11.342  -4.575  -6.044 +0.09 +0.09    +0.222 HD
DOCKED: ENDBRANCH  36  40
DOCKED: ENDBRANCH  35  36
DOCKED: ENDBRANCH   5  35
DOCKED: BRANCH   4  42
DOCKED: ATOM     42  O   UNL d   1     -15.659  -7.817  -7.119 -0.00 -0.09    -0.278 OA
DOCKED: BRANCH  42  43
DOCKED: ATOM     43  P   UNL d   1     -16.432  -8.757  -6.088 +0.02 +0.13    +0.473 P 
DOCKED: ATOM     44  O   UNL d   1     -15.684  -9.221  -4.887 -0.03 -0.07    -0.228 OA
DOCKED: BRANCH  43  45
DOCKED: ATOM     45  O   UNL d   1     -17.738  -7.911  -5.755 +0.00 -0.08    -0.303 OA
DOCKED: ATOM     46  H   UNL d   1     -18.166  -7.578  -6.569 +0.01 +0.05    +0.222 HD
DOCKED: ENDBRANCH  43  45
DOCKED: BRANCH  43  47
DOCKED: ATOM     47  O   UNL d   1     -17.025  -9.916  -7.024 +0.00 -0.05    -0.303 OA
DOCKED: ATOM     48  H   UNL d   1     -16.821 -10.788  -6.626 +0.01 +0.03    +0.222 HD
DOCKED: ENDBRANCH  43  47
DOCKED: ENDBRANCH  42  43
DOCKED: ENDBRANCH   4  42
DOCKED: TORSDOF 24
DOCKED: TER
DOCKED: ENDMDL
________________________________________________________________________________


	BEGINNING GENETIC ALGORITHM DOCKING 46 of 100
Run: 46 Seed: 1931509104 1464144025 [ Run 46 of 100 GA/GALS ]
Beginning LAMARCKIAN GENETIC ALGORITHM (LGA), with a maximum of 25000000 energy evaluations.

Final-Value: -16.916


	FINAL GENETIC ALGORITHM DOCKED STATE
	_______________________________________________


Detailed state:  trans 15.878 4.841 -11.622 quatxyzw -0.888352 0.300469 -0.346555 -0.021158 center 0.035 0.082 -0.065 ntor 24 166.3759 71.5969 150.0511 127.1443 9.8960 175.3930 -44.2120 3.7859 9.6997 -35.0602 57.1856 155.3121 -79.0217 91.2345 149.7299 28.9575 27.2570 -78.6834 15.8211 -26.2670 -25.5872 -44.3511 -176.8608 -156.5367
State:	 15.878   4.841 -11.622  -0.889  0.301 -0.347 -177.575    166.38   71.60  150.05  127.14    9.90  175.39  -44.21    3.79    9.70  -35.06   57.19  155.31  -79.02   91.23  149.73   28.96   27.26  -78.68   15.82  -26.27  -25.59  -44.35 -176.86 -156.54

DOCKED: MODEL       46
DOCKED: USER    Run = 46
DOCKED: USER    DPF = D:/Protein_go_brrr/autodock/final/AncMH_nat/IHP/dock.dpf
DOCKED: USER  
DOCKED: USER    Estimated Free Energy of Binding    =   +2.18 kcal/mol  [=(1)+(2)+(3)-(4)]
DOCKED: USER    
DOCKED: USER    (1) Final Intermolecular Energy     =   -4.98 kcal/mol
DOCKED: USER        vdW + Hbond + desolv Energy     =   -4.17 kcal/mol
DOCKED: USER        Electrostatic Energy            =   -0.80 kcal/mol
DOCKED: USER    (2) Final Total Internal Energy     =  -11.94 kcal/mol
DOCKED: USER    (3) Torsional Free Energy           =   +7.16 kcal/mol
DOCKED: USER    (4) Unbound System's Energy  [=(2)] =  -11.94 kcal/mol
DOCKED: USER    
DOCKED: USER    
DOCKED: USER    NEWDPF move IHP_ideal_opt.pdbqt
DOCKED: USER    NEWDPF about 0.035000 0.082000 -0.065000
DOCKED: USER    NEWDPF tran0 15.877873 4.840739 -11.622091
DOCKED: USER    NEWDPF quaternion0 -0.888352 0.300469 -0.346555 -0.021158
DOCKED: USER    NEWDPF axisangle0 -0.888551 0.300536 -0.346633 -177.575286
DOCKED: USER    NEWDPF quat0 -0.888551 0.300536 -0.346633 -177.575286
DOCKED: USER    NEWDPF dihe0 166.38 71.60 150.05 127.14 9.90 175.39 -44.21 3.79 9.70 -35.06 57.19 155.31 -79.02 91.23 149.73 28.96 27.26 -78.68 15.82 -26.27 -25.59 -44.35 -176.86 -156.54 
DOCKED: USER  keepresnum = 1 
DOCKED: USER  
DOCKED: REMARK  24 active torsions:
DOCKED: REMARK  status: ('A' for Active; 'I' for Inactive)
DOCKED: REMARK    1  A    between atoms: C_1  and  O_7 
DOCKED: REMARK    2  A    between atoms: C_2  and  O_12 
DOCKED: REMARK    3  A    between atoms: C_3  and  O_17 
DOCKED: REMARK    4  A    between atoms: C_4  and  O_22 
DOCKED: REMARK    5  A    between atoms: C_5  and  O_27 
DOCKED: REMARK    6  A    between atoms: C_6  and  O_32 
DOCKED: REMARK    7  A    between atoms: O_7  and  P_8 
DOCKED: REMARK    8  A    between atoms: P_8  and  O_10 
DOCKED: REMARK    9  A    between atoms: P_8  and  O_11 
DOCKED: REMARK   10  A    between atoms: O_12  and  P_13 
DOCKED: REMARK   11  A    between atoms: P_13  and  O_15 
DOCKED: REMARK   12  A    between atoms: P_13  and  O_16 
DOCKED: REMARK   13  A    between atoms: O_17  and  P_18 
DOCKED: REMARK   14  A    between atoms: P_18  and  O_20 
DOCKED: REMARK   15  A    between atoms: P_18  and  O_21 
DOCKED: REMARK   16  A    between atoms: O_22  and  P_23 
DOCKED: REMARK   17  A    between atoms: P_23  and  O_25 
DOCKED: REMARK   18  A    between atoms: P_23  and  O_26 
DOCKED: REMARK   19  A    between atoms: O_27  and  P_28 
DOCKED: REMARK   20  A    between atoms: P_28  and  O_30 
DOCKED: REMARK   21  A    between atoms: P_28  and  O_31 
DOCKED: REMARK   22  A    between atoms: O_32  and  P_33 
DOCKED: REMARK   23  A    between atoms: P_33  and  O_35 
DOCKED: REMARK   24  A    between atoms: P_33  and  O_36 
DOCKED: USER                              x       y       z     vdW  Elec       q    Type
DOCKED: USER                           _______ _______ _______ _____ _____    ______ ____
DOCKED: ROOT
DOCKED: ATOM      1  C   UNL d   1      17.562   4.745 -11.248 -0.02 -0.10    +0.194 C 
DOCKED: ATOM      2  C   UNL d   1      17.024   6.151 -11.523 -0.03 -0.11    +0.194 C 
DOCKED: ATOM      3  C   UNL d   1      16.080   6.171 -12.727 -0.09 -0.16    +0.194 C 
DOCKED: ATOM      4  C   UNL d   1      14.963   5.134 -12.632 -0.15 -0.21    +0.194 C 
DOCKED: ATOM      5  C   UNL d   1      15.441   3.740 -12.246 -0.07 -0.16    +0.194 C 
DOCKED: ATOM      6  C   UNL d   1      16.434   3.726 -11.082 -0.04 -0.11    +0.194 C 
DOCKED: ENDROOT
DOCKED: BRANCH   1   7
DOCKED: ATOM      7  O   UNL d   1      18.290   4.779 -10.019 -0.05 +0.15    -0.278 OA
DOCKED: BRANCH   7   8
DOCKED: ATOM      8  P   UNL d   1      19.885   4.701 -10.079 -0.03 -0.23    +0.473 P 
DOCKED: ATOM      9  O   UNL d   1      20.437   3.988 -11.263 -0.01 +0.08    -0.228 OA
DOCKED: BRANCH   8  10
DOCKED: ATOM     10  O   UNL d   1      20.350   6.224  -9.989 -0.02 +0.12    -0.303 OA
DOCKED: ATOM     11  H   UNL d   1      19.581   6.789  -9.787 +0.02 -0.09    +0.222 HD
DOCKED: ENDBRANCH   8  10
DOCKED: BRANCH   8  12
DOCKED: ATOM     12  O   UNL d   1      20.324   4.135  -8.661 -0.11 +0.24    -0.303 OA
DOCKED: ATOM     13  H   UNL d   1      19.629   3.585  -8.233 +0.05 -0.25    +0.222 HD
DOCKED: ENDBRANCH   8  12
DOCKED: ENDBRANCH   7   8
DOCKED: ENDBRANCH   1   7
DOCKED: BRANCH   2  14
DOCKED: ATOM     14  O   UNL d   1      16.306   6.610 -10.371 -0.06 +0.15    -0.278 OA
DOCKED: BRANCH  14  15
DOCKED: ATOM     15  P   UNL d   1      17.036   7.709  -9.464 -0.05 -0.19    +0.473 P 
DOCKED: ATOM     16  O   UNL d   1      16.157   8.721  -8.797 -0.11 +0.08    -0.228 OA
DOCKED: BRANCH  15  17
DOCKED: ATOM     17  O   UNL d   1      17.888   6.852  -8.427 -0.09 +0.13    -0.303 OA
DOCKED: ATOM     18  H   UNL d   1      18.471   6.219  -8.889 +0.04 -0.11    +0.222 HD
DOCKED: ENDBRANCH  15  17
DOCKED: BRANCH  15  19
DOCKED: ATOM     19  O   UNL d   1      18.176   8.303 -10.401 -0.02 +0.11    -0.303 OA
DOCKED: ATOM     20  H   UNL d   1      17.803   8.807 -11.147 +0.03 -0.08    +0.222 HD
DOCKED: ENDBRANCH  15  19
DOCKED: ENDBRANCH  14  15
DOCKED: ENDBRANCH   2  14
DOCKED: BRANCH   6  21
DOCKED: ATOM     21  O   UNL d   1      17.036   2.434 -11.070 -0.02 +0.14    -0.278 OA
DOCKED: BRANCH  21  22
DOCKED: ATOM     22  P   UNL d   1      17.053   1.581  -9.722 -0.04 -0.26    +0.473 P 
DOCKED: ATOM     23  O   UNL d   1      17.690   0.232  -9.750 -0.05 +0.10    -0.228 OA
DOCKED: BRANCH  22  24
DOCKED: ATOM     24  O   UNL d   1      17.706   2.606  -8.696 -0.21 +0.25    -0.303 OA
DOCKED: ATOM     25  H   UNL d   1      18.583   2.890  -9.059 +0.06 -0.17    +0.222 HD
DOCKED: ENDBRANCH  22  24
DOCKED: BRANCH  22  26
DOCKED: ATOM     26  O   UNL d   1      15.509   1.620  -9.293 -0.15 +0.18    -0.303 OA
DOCKED: ATOM     27  H   UNL d   1      15.001   2.120  -9.964 +0.11 -0.14    +0.222 HD
DOCKED: ENDBRANCH  22  26
DOCKED: ENDBRANCH  21  22
DOCKED: ENDBRANCH   6  21
DOCKED: BRANCH   3  28
DOCKED: ATOM     28  O   UNL d   1      15.424   7.433 -12.735 -0.14 +0.33    -0.278 OA
DOCKED: BRANCH  28  29
DOCKED: ATOM     29  P   UNL d   1      16.251   8.768 -13.000 -0.07 -0.37    +0.473 P 
DOCKED: ATOM     30  O   UNL d   1      17.694   8.579 -13.297 -0.02 +0.11    -0.228 OA
DOCKED: BRANCH  29  31
DOCKED: ATOM     31  O   UNL d   1      15.354   9.428 -14.149 -0.09 +0.38    -0.303 OA
DOCKED: ATOM     32  H   UNL d   1      14.532   8.895 -14.252 -0.49 -0.61    +0.222 HD
DOCKED: ENDBRANCH  29  31
DOCKED: BRANCH  29  33
DOCKED: ATOM     33  O   UNL d   1      15.887   9.645 -11.722 -0.08 +0.16    -0.303 OA
DOCKED: ATOM     34  H   UNL d   1      16.218   9.184 -10.912 +0.06 -0.10    +0.222 HD
DOCKED: ENDBRANCH  29  33
DOCKED: ENDBRANCH  28  29
DOCKED: ENDBRANCH   3  28
DOCKED: BRANCH   5  35
DOCKED: ATOM     35  O   UNL d   1      14.278   3.038 -11.814 -0.12 +0.31    -0.278 OA
DOCKED: BRANCH  35  36
DOCKED: ATOM     36  P   UNL d   1      13.249   3.726 -10.808 -0.00 -0.50    +0.473 P 
DOCKED: ATOM     37  O   UNL d   1      12.420   4.828 -11.386 -0.25 +0.29    -0.228 OA
DOCKED: BRANCH  36  38
DOCKED: ATOM     38  O   UNL d   1      12.408   2.475 -10.295 -0.28 +0.31    -0.303 OA
DOCKED: ATOM     39  H   UNL d   1      11.967   2.048 -11.061 -0.39 -0.40    +0.222 HD
DOCKED: ENDBRANCH  36  38
DOCKED: BRANCH  36  40
DOCKED: ATOM     40  O   UNL d   1      14.179   4.095  -9.572 -0.15 +0.18    -0.303 OA
DOCKED: ATOM     41  H   UNL d   1      14.386   3.306  -9.023 +0.14 -0.13    +0.222 HD
DOCKED: ENDBRANCH  36  40
DOCKED: ENDBRANCH  35  36
DOCKED: ENDBRANCH   5  35
DOCKED: BRANCH   4  42
DOCKED: ATOM     42  O   UNL d   1      14.379   5.034 -13.935 -0.10 +0.47    -0.278 OA
DOCKED: BRANCH  42  43
DOCKED: ATOM     43  P   UNL d   1      14.934   3.933 -14.946 -0.06 -0.54    +0.473 P 
DOCKED: ATOM     44  O   UNL d   1      16.384   3.597 -14.868 -0.02 +0.15    -0.228 OA
DOCKED: BRANCH  43  45
DOCKED: ATOM     45  O   UNL d   1      13.966   2.698 -14.684 -0.09 +0.42    -0.303 OA
DOCKED: ATOM     46  H   UNL d   1      13.470   2.803 -13.848 -0.42 -0.48    +0.222 HD
DOCKED: ENDBRANCH  43  45
DOCKED: BRANCH  43  47
DOCKED: ATOM     47  O   UNL d   1      14.420   4.453 -16.373 -0.06 +0.41    -0.303 OA
DOCKED: ATOM     48  H   UNL d   1      13.618   5.000 -16.247 -0.44 -0.56    +0.222 HD
DOCKED: ENDBRANCH  43  47
DOCKED: ENDBRANCH  42  43
DOCKED: ENDBRANCH   4  42
DOCKED: TORSDOF 24
DOCKED: TER
DOCKED: ENDMDL
________________________________________________________________________________


	BEGINNING GENETIC ALGORITHM DOCKING 47 of 100
Run: 47 Seed: 1602645830 779848550 [ Run 47 of 100 GA/GALS ]
Beginning LAMARCKIAN GENETIC ALGORITHM (LGA), with a maximum of 25000000 energy evaluations.

Final-Value: -17.571


	FINAL GENETIC ALGORITHM DOCKED STATE
	_______________________________________________


Detailed state:  trans -9.110 -6.995 19.026 quatxyzw -0.709286 -0.637646 -0.152144 -0.259179 center 0.035 0.082 -0.065 ntor 24 -112.0359 -28.3794 93.6970 137.7028 101.9861 110.3923 -57.3295 -105.4246 13.8302 105.3697 9.6215 131.9986 176.6030 51.4648 111.1532 120.5730 -37.2921 -156.3817 70.5843 27.1290 -42.5803 -1.4864 176.0308 -11.5055
State:	 -9.110  -6.995  19.026  -0.734 -0.660 -0.158 -149.957   -112.04  -28.38   93.70  137.70  101.99  110.39  -57.33 -105.42   13.83  105.37    9.62  132.00  176.60   51.46  111.15  120.57  -37.29 -156.38   70.58   27.13  -42.58   -1.49  176.03  -11.51

DOCKED: MODEL       47
DOCKED: USER    Run = 47
DOCKED: USER    DPF = D:/Protein_go_brrr/autodock/final/AncMH_nat/IHP/dock.dpf
DOCKED: USER  
DOCKED: USER    Estimated Free Energy of Binding    =   +2.71 kcal/mol  [=(1)+(2)+(3)-(4)]
DOCKED: USER    
DOCKED: USER    (1) Final Intermolecular Energy     =   -4.45 kcal/mol
DOCKED: USER        vdW + Hbond + desolv Energy     =   -4.41 kcal/mol
DOCKED: USER        Electrostatic Energy            =   -0.04 kcal/mol
DOCKED: USER    (2) Final Total Internal Energy     =  -13.12 kcal/mol
DOCKED: USER    (3) Torsional Free Energy           =   +7.16 kcal/mol
DOCKED: USER    (4) Unbound System's Energy  [=(2)] =  -13.12 kcal/mol
DOCKED: USER    
DOCKED: USER    
DOCKED: USER    NEWDPF move IHP_ideal_opt.pdbqt
DOCKED: USER    NEWDPF about 0.035000 0.082000 -0.065000
DOCKED: USER    NEWDPF tran0 -9.109791 -6.994708 19.025975
DOCKED: USER    NEWDPF quaternion0 -0.709286 -0.637646 -0.152144 -0.259179
DOCKED: USER    NEWDPF axisangle0 -0.734380 -0.660205 -0.157526 -149.957252
DOCKED: USER    NEWDPF quat0 -0.734380 -0.660205 -0.157526 -149.957252
DOCKED: USER    NEWDPF dihe0 -112.04 -28.38 93.70 137.70 101.99 110.39 -57.33 -105.42 13.83 105.37 9.62 132.00 176.60 51.46 111.15 120.57 -37.29 -156.38 70.58 27.13 -42.58 -1.49 176.03 -11.51 
DOCKED: USER  keepresnum = 1 
DOCKED: USER  
DOCKED: REMARK  24 active torsions:
DOCKED: REMARK  status: ('A' for Active; 'I' for Inactive)
DOCKED: REMARK    1  A    between atoms: C_1  and  O_7 
DOCKED: REMARK    2  A    between atoms: C_2  and  O_12 
DOCKED: REMARK    3  A    between atoms: C_3  and  O_17 
DOCKED: REMARK    4  A    between atoms: C_4  and  O_22 
DOCKED: REMARK    5  A    between atoms: C_5  and  O_27 
DOCKED: REMARK    6  A    between atoms: C_6  and  O_32 
DOCKED: REMARK    7  A    between atoms: O_7  and  P_8 
DOCKED: REMARK    8  A    between atoms: P_8  and  O_10 
DOCKED: REMARK    9  A    between atoms: P_8  and  O_11 
DOCKED: REMARK   10  A    between atoms: O_12  and  P_13 
DOCKED: REMARK   11  A    between atoms: P_13  and  O_15 
DOCKED: REMARK   12  A    between atoms: P_13  and  O_16 
DOCKED: REMARK   13  A    between atoms: O_17  and  P_18 
DOCKED: REMARK   14  A    between atoms: P_18  and  O_20 
DOCKED: REMARK   15  A    between atoms: P_18  and  O_21 
DOCKED: REMARK   16  A    between atoms: O_22  and  P_23 
DOCKED: REMARK   17  A    between atoms: P_23  and  O_25 
DOCKED: REMARK   18  A    between atoms: P_23  and  O_26 
DOCKED: REMARK   19  A    between atoms: O_27  and  P_28 
DOCKED: REMARK   20  A    between atoms: P_28  and  O_30 
DOCKED: REMARK   21  A    between atoms: P_28  and  O_31 
DOCKED: REMARK   22  A    between atoms: O_32  and  P_33 
DOCKED: REMARK   23  A    between atoms: P_33  and  O_35 
DOCKED: REMARK   24  A    between atoms: P_33  and  O_36 
DOCKED: USER                              x       y       z     vdW  Elec       q    Type
DOCKED: USER                           _______ _______ _______ _____ _____    ______ ____
DOCKED: ROOT
DOCKED: ATOM      1  C   UNL d   1      -9.898  -5.469  19.217 -0.15 +0.01    +0.194 C 
DOCKED: ATOM      2  C   UNL d   1     -10.821  -6.665  18.977 -0.14 +0.03    +0.194 C 
DOCKED: ATOM      3  C   UNL d   1     -10.281  -7.588  17.883 -0.23 +0.03    +0.194 C 
DOCKED: ATOM      4  C   UNL d   1      -8.834  -8.014  18.116 -0.26 +0.01    +0.194 C 
DOCKED: ATOM      5  C   UNL d   1      -7.898  -6.866  18.472 -0.22 -0.02    +0.194 C 
DOCKED: ATOM      6  C   UNL d   1      -8.465  -5.908  19.522 -0.25 -0.01    +0.194 C 
DOCKED: ENDROOT
DOCKED: BRANCH   1   7
DOCKED: ATOM      7  O   UNL d   1     -10.378  -4.757  20.359 -0.12 +0.00    -0.278 OA
DOCKED: BRANCH   7   8
DOCKED: ATOM      8  P   UNL d   1     -11.916  -4.326  20.394 -0.08 +0.02    +0.473 P 
DOCKED: ATOM      9  O   UNL d   1     -12.165  -2.907  20.768 -0.10 +0.02    -0.228 OA
DOCKED: BRANCH   8  10
DOCKED: ATOM     10  O   UNL d   1     -12.454  -4.695  18.938 -0.11 -0.07    -0.303 OA
DOCKED: ATOM     11  H   UNL d   1     -12.794  -5.609  18.938 +0.06 +0.08    +0.222 HD
DOCKED: ENDBRANCH   8  10
DOCKED: BRANCH   8  12
DOCKED: ATOM     12  O   UNL d   1     -12.631  -5.418  21.300 -0.01 -0.03    -0.303 OA
DOCKED: ATOM     13  H   UNL d   1     -12.732  -6.286  20.849 +0.03 +0.03    +0.222 HD
DOCKED: ENDBRANCH   8  12
DOCKED: ENDBRANCH   7   8
DOCKED: ENDBRANCH   1   7
DOCKED: BRANCH   2  14
DOCKED: ATOM     14  O   UNL d   1     -10.938  -7.416  20.192 -0.03 -0.03    -0.278 OA
DOCKED: BRANCH  14  15
DOCKED: ATOM     15  P   UNL d   1     -12.221  -8.365  20.326 +0.00 +0.08    +0.473 P 
DOCKED: ATOM     16  O   UNL d   1     -11.983  -9.837  20.204 -0.02 -0.03    -0.228 OA
DOCKED: BRANCH  15  17
DOCKED: ATOM     17  O   UNL d   1     -12.859  -7.957  21.727 -0.00 -0.03    -0.303 OA
DOCKED: ATOM     18  H   UNL d   1     -12.322  -7.275  22.174 +0.01 +0.02    +0.222 HD
DOCKED: ENDBRANCH  15  17
DOCKED: BRANCH  15  19
DOCKED: ATOM     19  O   UNL d   1     -13.275  -7.753  19.304 -0.06 -0.13    -0.303 OA
DOCKED: ATOM     20  H   UNL d   1     -13.072  -8.003  18.384 +0.06 +0.12    +0.222 HD
DOCKED: ENDBRANCH  15  19
DOCKED: ENDBRANCH  14  15
DOCKED: ENDBRANCH   2  14
DOCKED: BRANCH   6  21
DOCKED: ATOM     21  O   UNL d   1      -7.653  -4.736  19.492 -0.22 +0.02    -0.278 OA
DOCKED: BRANCH  21  22
DOCKED: ATOM     22  P   UNL d   1      -7.356  -3.943  20.844 -0.11 -0.05    +0.473 P 
DOCKED: ATOM     23  O   UNL d   1      -5.992  -3.374  21.042 -0.11 +0.03    -0.228 OA
DOCKED: BRANCH  22  24
DOCKED: ATOM     24  O   UNL d   1      -8.535  -2.874  20.860 -0.15 +0.04    -0.303 OA
DOCKED: ATOM     25  H   UNL d   1      -9.345  -3.302  20.481 +0.03 -0.04    +0.222 HD
DOCKED: ENDBRANCH  22  24
DOCKED: BRANCH  22  26
DOCKED: ATOM     26  O   UNL d   1      -7.847  -4.993  21.951 -0.03 +0.02    -0.303 OA
DOCKED: ATOM     27  H   UNL d   1      -8.810  -5.139  21.852 +0.04 -0.01    +0.222 HD
DOCKED: ENDBRANCH  22  26
DOCKED: ENDBRANCH  21  22
DOCKED: ENDBRANCH   6  21
DOCKED: BRANCH   3  28
DOCKED: ATOM     28  O   UNL d   1     -11.040  -8.790  17.923 -0.10 -0.06    -0.278 OA
DOCKED: BRANCH  28  29
DOCKED: ATOM     29  P   UNL d   1     -12.072  -9.129  16.758 -0.08 +0.20    +0.473 P 
DOCKED: ATOM     30  O   UNL d   1     -11.547  -9.989  15.667 -0.31 -0.10    -0.228 OA
DOCKED: BRANCH  29  31
DOCKED: ATOM     31  O   UNL d   1     -13.286  -9.711  17.623 -0.15 -0.14    -0.303 OA
DOCKED: ATOM     32  H   UNL d   1     -13.002  -9.770  18.564 +0.05 +0.07    +0.222 HD
DOCKED: ENDBRANCH  29  31
DOCKED: BRANCH  29  33
DOCKED: ATOM     33  O   UNL d   1     -12.596  -7.683  16.346 -0.26 -0.19    -0.303 OA
DOCKED: ATOM     34  H   UNL d   1     -12.817  -7.175  17.165 +0.09 +0.15    +0.222 HD
DOCKED: ENDBRANCH  29  33
DOCKED: ENDBRANCH  28  29
DOCKED: ENDBRANCH   3  28
DOCKED: BRANCH   5  35
DOCKED: ATOM     35  O   UNL d   1      -6.739  -7.473  19.040 -0.23 +0.04    -0.278 OA
DOCKED: BRANCH  35  36
DOCKED: ATOM     36  P   UNL d   1      -6.880  -8.495  20.257 -0.08 -0.03    +0.473 P 
DOCKED: ATOM     37  O   UNL d   1      -8.280  -8.875  20.621 -0.03 +0.00    -0.228 OA
DOCKED: BRANCH  36  38
DOCKED: ATOM     38  O   UNL d   1      -5.978  -9.712  19.767 -0.11 +0.02    -0.303 OA
DOCKED: ATOM     39  H   UNL d   1      -6.302 -10.021  18.894 +0.06 -0.00    +0.222 HD
DOCKED: ENDBRANCH  36  38
DOCKED: BRANCH  36  40
DOCKED: ATOM     40  O   UNL d   1      -6.004  -7.799  21.388 -0.05 +0.04    -0.303 OA
DOCKED: ATOM     41  H   UNL d   1      -6.379  -6.932  21.657 +0.05 -0.03    +0.222 HD
DOCKED: ENDBRANCH  36  40
DOCKED: ENDBRANCH  35  36
DOCKED: ENDBRANCH   5  35
DOCKED: BRANCH   4  42
DOCKED: ATOM     42  O   UNL d   1      -8.363  -8.575  16.886 -0.29 -0.01    -0.278 OA
DOCKED: BRANCH  42  43
DOCKED: ATOM     43  P   UNL d   1      -7.807 -10.070  16.883 -0.17 +0.12    +0.473 P 
DOCKED: ATOM     44  O   UNL d   1      -6.346 -10.260  16.667 -0.27 -0.04    -0.228 OA
DOCKED: BRANCH  43  45
DOCKED: ATOM     45  O   UNL d   1      -8.341 -10.644  18.268 -0.06 -0.04    -0.303 OA
DOCKED: ATOM     46  H   UNL d   1      -7.955 -10.162  19.027 +0.06 +0.01    +0.222 HD
DOCKED: ENDBRANCH  43  45
DOCKED: BRANCH  43  47
DOCKED: ATOM     47  O   UNL d   1      -8.764 -10.814  15.833 -0.49 -0.29    -0.303 OA
DOCKED: ATOM     48  H   UNL d   1      -9.698 -10.610  16.047 +0.11 +0.14    +0.222 HD
DOCKED: ENDBRANCH  43  47
DOCKED: ENDBRANCH  42  43
DOCKED: ENDBRANCH   4  42
DOCKED: TORSDOF 24
DOCKED: TER
DOCKED: ENDMDL
________________________________________________________________________________


	BEGINNING GENETIC ALGORITHM DOCKING 48 of 100
Run: 48 Seed: 2009727187 640514568 [ Run 48 of 100 GA/GALS ]
Beginning LAMARCKIAN GENETIC ALGORITHM (LGA), with a maximum of 25000000 energy evaluations.

Final-Value: -17.475


	FINAL GENETIC ALGORITHM DOCKED STATE
	_______________________________________________


Detailed state:  trans 4.157 -3.199 20.230 quatxyzw -0.358604 -0.552082 -0.112236 -0.744320 center 0.035 0.082 -0.065 ntor 24 -174.8457 -19.0682 129.7105 56.0700 85.1021 -110.5832 53.3841 -179.1119 94.0509 -41.2510 99.1989 -86.7008 13.6396 2.3013 17.9511 -101.5219 110.8575 97.1943 -135.3559 -20.1819 96.7777 -17.3620 152.2857 160.0495
State:	  4.157  -3.199  20.230  -0.537 -0.827 -0.168 -83.799   -174.85  -19.07  129.71   56.07   85.10 -110.58   53.38 -179.11   94.05  -41.25   99.20  -86.70   13.64    2.30   17.95 -101.52  110.86   97.19 -135.36  -20.18   96.78  -17.36  152.29  160.05

DOCKED: MODEL       48
DOCKED: USER    Run = 48
DOCKED: USER    DPF = D:/Protein_go_brrr/autodock/final/AncMH_nat/IHP/dock.dpf
DOCKED: USER  
DOCKED: USER    Estimated Free Energy of Binding    =   +3.18 kcal/mol  [=(1)+(2)+(3)-(4)]
DOCKED: USER    
DOCKED: USER    (1) Final Intermolecular Energy     =   -3.98 kcal/mol
DOCKED: USER        vdW + Hbond + desolv Energy     =   -3.47 kcal/mol
DOCKED: USER        Electrostatic Energy            =   -0.51 kcal/mol
DOCKED: USER    (2) Final Total Internal Energy     =  -13.49 kcal/mol
DOCKED: USER    (3) Torsional Free Energy           =   +7.16 kcal/mol
DOCKED: USER    (4) Unbound System's Energy  [=(2)] =  -13.49 kcal/mol
DOCKED: USER    
DOCKED: USER    
DOCKED: USER    NEWDPF move IHP_ideal_opt.pdbqt
DOCKED: USER    NEWDPF about 0.035000 0.082000 -0.065000
DOCKED: USER    NEWDPF tran0 4.157131 -3.199240 20.230217
DOCKED: USER    NEWDPF quaternion0 -0.358604 -0.552082 -0.112236 -0.744320
DOCKED: USER    NEWDPF axisangle0 -0.536974 -0.826688 -0.168062 -83.798584
DOCKED: USER    NEWDPF quat0 -0.536974 -0.826688 -0.168062 -83.798584
DOCKED: USER    NEWDPF dihe0 -174.85 -19.07 129.71 56.07 85.10 -110.58 53.38 -179.11 94.05 -41.25 99.20 -86.70 13.64 2.30 17.95 -101.52 110.86 97.19 -135.36 -20.18 96.78 -17.36 152.29 160.05 
DOCKED: USER  keepresnum = 1 
DOCKED: USER  
DOCKED: REMARK  24 active torsions:
DOCKED: REMARK  status: ('A' for Active; 'I' for Inactive)
DOCKED: REMARK    1  A    between atoms: C_1  and  O_7 
DOCKED: REMARK    2  A    between atoms: C_2  and  O_12 
DOCKED: REMARK    3  A    between atoms: C_3  and  O_17 
DOCKED: REMARK    4  A    between atoms: C_4  and  O_22 
DOCKED: REMARK    5  A    between atoms: C_5  and  O_27 
DOCKED: REMARK    6  A    between atoms: C_6  and  O_32 
DOCKED: REMARK    7  A    between atoms: O_7  and  P_8 
DOCKED: REMARK    8  A    between atoms: P_8  and  O_10 
DOCKED: REMARK    9  A    between atoms: P_8  and  O_11 
DOCKED: REMARK   10  A    between atoms: O_12  and  P_13 
DOCKED: REMARK   11  A    between atoms: P_13  and  O_15 
DOCKED: REMARK   12  A    between atoms: P_13  and  O_16 
DOCKED: REMARK   13  A    between atoms: O_17  and  P_18 
DOCKED: REMARK   14  A    between atoms: P_18  and  O_20 
DOCKED: REMARK   15  A    between atoms: P_18  and  O_21 
DOCKED: REMARK   16  A    between atoms: O_22  and  P_23 
DOCKED: REMARK   17  A    between atoms: P_23  and  O_25 
DOCKED: REMARK   18  A    between atoms: P_23  and  O_26 
DOCKED: REMARK   19  A    between atoms: O_27  and  P_28 
DOCKED: REMARK   20  A    between atoms: P_28  and  O_30 
DOCKED: REMARK   21  A    between atoms: P_28  and  O_31 
DOCKED: REMARK   22  A    between atoms: O_32  and  P_33 
DOCKED: REMARK   23  A    between atoms: P_33  and  O_35 
DOCKED: REMARK   24  A    between atoms: P_33  and  O_36 
DOCKED: USER                              x       y       z     vdW  Elec       q    Type
DOCKED: USER                           _______ _______ _______ _____ _____    ______ ____
DOCKED: ROOT
DOCKED: ATOM      1  C   UNL d   1       3.528  -3.029  21.830 +0.01 -0.04    +0.194 C 
DOCKED: ATOM      2  C   UNL d   1       2.893  -4.135  20.985 -0.00 -0.06    +0.194 C 
DOCKED: ATOM      3  C   UNL d   1       2.624  -3.668  19.552 -0.06 -0.09    +0.194 C 
DOCKED: ATOM      4  C   UNL d   1       3.850  -3.057  18.878 -0.05 -0.07    +0.194 C 
DOCKED: ATOM      5  C   UNL d   1       4.582  -2.031  19.733 -0.01 -0.05    +0.194 C 
DOCKED: ATOM      6  C   UNL d   1       4.797  -2.473  21.182 +0.00 -0.04    +0.194 C 
DOCKED: ENDROOT
DOCKED: BRANCH   1   7
DOCKED: ATOM      7  O   UNL d   1       3.904  -3.592  23.090 +0.00 +0.05    -0.278 OA
DOCKED: BRANCH   7   8
DOCKED: ATOM      8  P   UNL d   1       5.443  -3.947  23.333 +0.00 -0.07    +0.473 P 
DOCKED: ATOM      9  O   UNL d   1       6.364  -2.778  23.357 +0.00 +0.03    -0.228 OA
DOCKED: BRANCH   8  10
DOCKED: ATOM     10  O   UNL d   1       5.438  -4.771  24.699 +0.00 +0.04    -0.303 OA
DOCKED: ATOM     11  H   UNL d   1       4.577  -5.216  24.809 +0.00 -0.03    +0.222 HD
DOCKED: ENDBRANCH   8  10
DOCKED: BRANCH   8  12
DOCKED: ATOM     12  O   UNL d   1       5.781  -5.074  22.266 +0.00 +0.05    -0.303 OA
DOCKED: ATOM     13  H   UNL d   1       5.276  -5.906  22.411 +0.00 -0.04    +0.222 HD
DOCKED: ENDBRANCH   8  12
DOCKED: ENDBRANCH   7   8
DOCKED: ENDBRANCH   1   7
DOCKED: BRANCH   2  14
DOCKED: ATOM     14  O   UNL d   1       3.783  -5.257  20.939 -0.00 +0.07    -0.278 OA
DOCKED: BRANCH  14  15
DOCKED: ATOM     15  P   UNL d   1       3.308  -6.579  21.708 +0.01 -0.11    +0.473 P 
DOCKED: ATOM     16  O   UNL d   1       1.999  -7.169  21.285 -0.02 +0.06    -0.228 OA
DOCKED: BRANCH  15  17
DOCKED: ATOM     17  O   UNL d   1       4.526  -7.590  21.531 -0.00 +0.06    -0.303 OA
DOCKED: ATOM     18  H   UNL d   1       5.379  -7.115  21.527 +0.00 -0.04    +0.222 HD
DOCKED: ENDBRANCH  15  17
DOCKED: BRANCH  15  19
DOCKED: ATOM     19  O   UNL d   1       3.424  -6.205  23.250 +0.00 +0.05    -0.303 OA
DOCKED: ATOM     20  H   UNL d   1       3.799  -5.314  23.377 +0.00 -0.04    +0.222 HD
DOCKED: ENDBRANCH  15  19
DOCKED: ENDBRANCH  14  15
DOCKED: ENDBRANCH   2  14
DOCKED: BRANCH   6  21
DOCKED: ATOM     21  O   UNL d   1       5.166  -1.309  21.918 +0.00 +0.05    -0.278 OA
DOCKED: BRANCH  21  22
DOCKED: ATOM     22  P   UNL d   1       5.407   0.069  21.151 +0.01 -0.08    +0.473 P 
DOCKED: ATOM     23  O   UNL d   1       4.382   0.514  20.162 -0.01 +0.05    -0.228 OA
DOCKED: BRANCH  22  24
DOCKED: ATOM     24  O   UNL d   1       5.650   1.076  22.359 +0.00 +0.04    -0.303 OA
DOCKED: ATOM     25  H   UNL d   1       5.889   0.544  23.160 +0.00 -0.03    +0.222 HD
DOCKED: ENDBRANCH  22  24
DOCKED: BRANCH  22  26
DOCKED: ATOM     26  O   UNL d   1       6.892  -0.130  20.581 +0.00 +0.05    -0.303 OA
DOCKED: ATOM     27  H   UNL d   1       6.864  -0.741  19.817 +0.01 -0.04    +0.222 HD
DOCKED: ENDBRANCH  22  26
DOCKED: ENDBRANCH  21  22
DOCKED: ENDBRANCH   6  21
DOCKED: BRANCH   3  28
DOCKED: ATOM     28  O   UNL d   1       2.302  -4.818  18.781 -0.12 +0.16    -0.278 OA
DOCKED: BRANCH  28  29
DOCKED: ATOM     29  P   UNL d   1       0.784  -5.257  18.585 -0.21 -0.50    +0.473 P 
DOCKED: ATOM     30  O   UNL d   1       0.476  -6.670  18.926 -0.26 +0.18    -0.228 OA
DOCKED: BRANCH  29  31
DOCKED: ATOM     31  O   UNL d   1       0.053  -4.126  19.449 -0.16 +0.35    -0.303 OA
DOCKED: ATOM     32  H   UNL d   1      -0.362  -3.479  18.833 -0.05 -0.42    +0.222 HD
DOCKED: ENDBRANCH  29  31
DOCKED: BRANCH  29  33
DOCKED: ATOM     33  O   UNL d   1       0.494  -4.798  17.088 -0.58 +0.45    -0.303 OA
DOCKED: ATOM     34  H   UNL d   1      -0.246  -4.143  17.091 -0.29 -0.69    +0.222 HD
DOCKED: ENDBRANCH  29  33
DOCKED: ENDBRANCH  28  29
DOCKED: ENDBRANCH   3  28
DOCKED: BRANCH   5  35
DOCKED: ATOM     35  O   UNL d   1       5.872  -1.885  19.143 -0.00 +0.06    -0.278 OA
DOCKED: BRANCH  35  36
DOCKED: ATOM     36  P   UNL d   1       6.994  -2.995  19.377 +0.01 -0.10    +0.473 P 
DOCKED: ATOM     37  O   UNL d   1       8.049  -3.078  18.320 -0.00 +0.05    -0.228 OA
DOCKED: BRANCH  36  38
DOCKED: ATOM     38  O   UNL d   1       7.542  -2.605  20.820 +0.00 +0.05    -0.303 OA
DOCKED: ATOM     39  H   UNL d   1       6.849  -2.107  21.303 +0.00 -0.04    +0.222 HD
DOCKED: ENDBRANCH  36  38
DOCKED: BRANCH  36  40
DOCKED: ATOM     40  O   UNL d   1       6.128  -4.304  19.637 -0.00 +0.07    -0.303 OA
DOCKED: ATOM     41  H   UNL d   1       5.829  -4.363  20.571 +0.00 -0.05    +0.222 HD
DOCKED: ENDBRANCH  36  40
DOCKED: ENDBRANCH  35  36
DOCKED: ENDBRANCH   5  35
DOCKED: BRANCH   4  42
DOCKED: ATOM     42  O   UNL d   1       3.383  -2.375  17.709 -0.12 +0.12    -0.278 OA
DOCKED: BRANCH  42  43
DOCKED: ATOM     43  P   UNL d   1       2.144  -1.379  17.841 -0.17 -0.24    +0.473 P 
DOCKED: ATOM     44  O   UNL d   1       2.170  -0.138  17.017 -0.77 +0.07    -0.228 OA
DOCKED: BRANCH  43  45
DOCKED: ATOM     45  O   UNL d   1       0.901  -2.328  17.548 -0.64 +0.34    -0.303 OA
DOCKED: ATOM     46  H   UNL d   1       1.101  -3.259  17.770 +0.00 -0.23    +0.222 HD
DOCKED: ENDBRANCH  43  45
DOCKED: BRANCH  43  47
DOCKED: ATOM     47  O   UNL d   1       2.019  -1.157  19.423 -0.04 +0.12    -0.303 OA
DOCKED: ATOM     48  H   UNL d   1       2.540  -0.368  19.680 +0.04 -0.07    +0.222 HD
DOCKED: ENDBRANCH  43  47
DOCKED: ENDBRANCH  42  43
DOCKED: ENDBRANCH   4  42
DOCKED: TORSDOF 24
DOCKED: TER
DOCKED: ENDMDL
________________________________________________________________________________


	BEGINNING GENETIC ALGORITHM DOCKING 49 of 100
Run: 49 Seed: 166411381 719537079 [ Run 49 of 100 GA/GALS ]
Beginning LAMARCKIAN GENETIC ALGORITHM (LGA), with a maximum of 25000000 energy evaluations.

Final-Value: -19.028


	FINAL GENETIC ALGORITHM DOCKED STATE
	_______________________________________________


Detailed state:  trans 18.494 -1.945 2.190 quatxyzw -0.590994 -0.444379 0.118609 0.662711 center 0.035 0.082 -0.065 ntor 24 -112.8697 37.2723 -32.5720 -6.5653 152.3579 89.8312 -84.9510 -40.8257 110.2426 87.6346 10.7507 -71.5383 180.0000 166.6542 -140.9120 -176.3815 103.0918 -55.1732 51.5455 1.2075 1.3286 -5.6612 -8.5517 170.1746
State:	 18.494  -1.945   2.190  -0.789 -0.593  0.158 96.986   -112.87   37.27  -32.57   -6.57  152.36   89.83  -84.95  -40.83  110.24   87.63   10.75  -71.54  180.00  166.65 -140.91 -176.38  103.09  -55.17   51.55    1.21    1.33   -5.66   -8.55  170.17

DOCKED: MODEL       49
DOCKED: USER    Run = 49
DOCKED: USER    DPF = D:/Protein_go_brrr/autodock/final/AncMH_nat/IHP/dock.dpf
DOCKED: USER  
DOCKED: USER    Estimated Free Energy of Binding    =   +3.07 kcal/mol  [=(1)+(2)+(3)-(4)]
DOCKED: USER    
DOCKED: USER    (1) Final Intermolecular Energy     =   -4.09 kcal/mol
DOCKED: USER        vdW + Hbond + desolv Energy     =   -3.94 kcal/mol
DOCKED: USER        Electrostatic Energy            =   -0.15 kcal/mol
DOCKED: USER    (2) Final Total Internal Energy     =  -14.94 kcal/mol
DOCKED: USER    (3) Torsional Free Energy           =   +7.16 kcal/mol
DOCKED: USER    (4) Unbound System's Energy  [=(2)] =  -14.94 kcal/mol
DOCKED: USER    
DOCKED: USER    
DOCKED: USER    NEWDPF move IHP_ideal_opt.pdbqt
DOCKED: USER    NEWDPF about 0.035000 0.082000 -0.065000
DOCKED: USER    NEWDPF tran0 18.493555 -1.945418 2.189536
DOCKED: USER    NEWDPF quaternion0 -0.590994 -0.444379 0.118609 0.662711
DOCKED: USER    NEWDPF axisangle0 -0.789175 -0.593396 0.158383 96.986134
DOCKED: USER    NEWDPF quat0 -0.789175 -0.593396 0.158383 96.986134
DOCKED: USER    NEWDPF dihe0 -112.87 37.27 -32.57 -6.57 152.36 89.83 -84.95 -40.83 110.24 87.63 10.75 -71.54 180.00 166.65 -140.91 -176.38 103.09 -55.17 51.55 1.21 1.33 -5.66 -8.55 170.17 
DOCKED: USER  keepresnum = 1 
DOCKED: USER  
DOCKED: REMARK  24 active torsions:
DOCKED: REMARK  status: ('A' for Active; 'I' for Inactive)
DOCKED: REMARK    1  A    between atoms: C_1  and  O_7 
DOCKED: REMARK    2  A    between atoms: C_2  and  O_12 
DOCKED: REMARK    3  A    between atoms: C_3  and  O_17 
DOCKED: REMARK    4  A    between atoms: C_4  and  O_22 
DOCKED: REMARK    5  A    between atoms: C_5  and  O_27 
DOCKED: REMARK    6  A    between atoms: C_6  and  O_32 
DOCKED: REMARK    7  A    between atoms: O_7  and  P_8 
DOCKED: REMARK    8  A    between atoms: P_8  and  O_10 
DOCKED: REMARK    9  A    between atoms: P_8  and  O_11 
DOCKED: REMARK   10  A    between atoms: O_12  and  P_13 
DOCKED: REMARK   11  A    between atoms: P_13  and  O_15 
DOCKED: REMARK   12  A    between atoms: P_13  and  O_16 
DOCKED: REMARK   13  A    between atoms: O_17  and  P_18 
DOCKED: REMARK   14  A    between atoms: P_18  and  O_20 
DOCKED: REMARK   15  A    between atoms: P_18  and  O_21 
DOCKED: REMARK   16  A    between atoms: O_22  and  P_23 
DOCKED: REMARK   17  A    between atoms: P_23  and  O_25 
DOCKED: REMARK   18  A    between atoms: P_23  and  O_26 
DOCKED: REMARK   19  A    between atoms: O_27  and  P_28 
DOCKED: REMARK   20  A    between atoms: P_28  and  O_30 
DOCKED: REMARK   21  A    between atoms: P_28  and  O_31 
DOCKED: REMARK   22  A    between atoms: O_32  and  P_33 
DOCKED: REMARK   23  A    between atoms: P_33  and  O_35 
DOCKED: REMARK   24  A    between atoms: P_33  and  O_36 
DOCKED: USER                              x       y       z     vdW  Elec       q    Type
DOCKED: USER                           _______ _______ _______ _____ _____    ______ ____
DOCKED: ROOT
DOCKED: ATOM      1  C   UNL d   1      18.965  -2.430   0.600 -0.09 -0.02    +0.194 C 
DOCKED: ATOM      2  C   UNL d   1      17.531  -2.781   0.999 -0.10 -0.02    +0.194 C 
DOCKED: ATOM      3  C   UNL d   1      17.458  -3.324   2.428 -0.04 -0.01    +0.194 C 
DOCKED: ATOM      4  C   UNL d   1      18.136  -2.417   3.452 -0.02 -0.01    +0.194 C 
DOCKED: ATOM      5  C   UNL d   1      19.526  -1.949   3.041 -0.02 -0.02    +0.194 C 
DOCKED: ATOM      6  C   UNL d   1      19.613  -1.463   1.592 -0.07 -0.02    +0.194 C 
DOCKED: ENDROOT
DOCKED: BRANCH   1   7
DOCKED: ATOM      7  O   UNL d   1      18.927  -1.775  -0.670 -0.15 +0.04    -0.278 OA
DOCKED: BRANCH   7   8
DOCKED: ATOM      8  P   UNL d   1      18.569  -2.643  -1.962 -0.13 -0.10    +0.473 P 
DOCKED: ATOM      9  O   UNL d   1      19.528  -2.518  -3.093 -0.18 +0.04    -0.228 OA
DOCKED: BRANCH   8  10
DOCKED: ATOM     10  O   UNL d   1      18.446  -4.133  -1.405 -0.08 +0.06    -0.303 OA
DOCKED: ATOM     11  H   UNL d   1      17.528  -4.301  -1.121 +0.10 -0.05    +0.222 HD
DOCKED: ENDBRANCH   8  10
DOCKED: BRANCH   8  12
DOCKED: ATOM     12  O   UNL d   1      17.056  -2.286  -2.293 -0.20 +0.13    -0.303 OA
DOCKED: ATOM     13  H   UNL d   1      16.630  -1.734  -1.599 -0.33 -0.11    +0.222 HD
DOCKED: ENDBRANCH   8  12
DOCKED: ENDBRANCH   7   8
DOCKED: ENDBRANCH   1   7
DOCKED: BRANCH   2  14
DOCKED: ATOM     14  O   UNL d   1      16.721  -1.602   0.917 -0.17 +0.01    -0.278 OA
DOCKED: BRANCH  14  15
DOCKED: ATOM     15  P   UNL d   1      15.317  -1.749   0.162 -0.28 -0.05    +0.473 P 
DOCKED: ATOM     16  O   UNL d   1      14.931  -0.636  -0.761 -0.44 +0.08    -0.228 OA
DOCKED: BRANCH  15  17
DOCKED: ATOM     17  O   UNL d   1      15.420  -3.156  -0.577 -0.22 +0.10    -0.303 OA
DOCKED: ATOM     18  H   UNL d   1      15.198  -3.073  -1.525 -0.35 -0.19    +0.222 HD
DOCKED: ENDBRANCH  15  17
DOCKED: BRANCH  15  19
DOCKED: ATOM     19  O   UNL d   1      14.276  -2.072   1.320 -0.83 -0.15    -0.303 OA
DOCKED: ATOM     20  H   UNL d   1      14.448  -2.941   1.727 +0.11 +0.08    +0.222 HD
DOCKED: ENDBRANCH  15  19
DOCKED: ENDBRANCH  14  15
DOCKED: ENDBRANCH   2  14
DOCKED: BRANCH   6  21
DOCKED: ATOM     21  O   UNL d   1      20.999  -1.393   1.263 -0.04 +0.03    -0.278 OA
DOCKED: BRANCH  21  22
DOCKED: ATOM     22  P   UNL d   1      21.744   0.018   1.271 -0.04 -0.06    +0.473 P 
DOCKED: ATOM     23  O   UNL d   1      22.181   0.591  -0.035 -0.08 +0.04    -0.228 OA
DOCKED: BRANCH  22  24
DOCKED: ATOM     24  O   UNL d   1      20.720   0.922   2.088 -0.06 +0.04    -0.303 OA
DOCKED: ATOM     25  H   UNL d   1      20.917   0.816   3.053 +0.02 -0.03    +0.222 HD
DOCKED: ENDBRANCH  22  24
DOCKED: BRANCH  22  26
DOCKED: ATOM     26  O   UNL d   1      22.901  -0.231   2.352 -0.01 +0.04    -0.303 OA
DOCKED: ATOM     27  H   UNL d   1      22.542  -0.075   3.250 +0.01 -0.03    +0.222 HD
DOCKED: ENDBRANCH  22  26
DOCKED: ENDBRANCH  21  22
DOCKED: ENDBRANCH   6  21
DOCKED: BRANCH   3  28
DOCKED: ATOM     28  O   UNL d   1      16.087  -3.357   2.804 -0.07 -0.03    -0.278 OA
DOCKED: BRANCH  28  29
DOCKED: ATOM     29  P   UNL d   1      15.301  -4.741   2.859 -0.04 +0.02    +0.473 P 
DOCKED: ATOM     30  O   UNL d   1      14.093  -4.758   3.724 -0.13 -0.03    -0.228 OA
DOCKED: BRANCH  29  31
DOCKED: ATOM     31  O   UNL d   1      15.079  -4.999   1.296 -0.13 +0.01    -0.303 OA
DOCKED: ATOM     32  H   UNL d   1      14.962  -4.130   0.848 +0.12 -0.01    +0.222 HD
DOCKED: ENDBRANCH  29  31
DOCKED: BRANCH  29  33
DOCKED: ATOM     33  O   UNL d   1      16.461  -5.769   3.224 -0.01 +0.02    -0.303 OA
DOCKED: ATOM     34  H   UNL d   1      17.229  -5.269   3.595 +0.02 -0.01    +0.222 HD
DOCKED: ENDBRANCH  29  33
DOCKED: ENDBRANCH  28  29
DOCKED: ENDBRANCH   3  28
DOCKED: BRANCH   5  35
DOCKED: ATOM     35  O   UNL d   1      19.821  -0.831   3.876 -0.01 +0.02    -0.278 OA
DOCKED: BRANCH  35  36
DOCKED: ATOM     36  P   UNL d   1      21.113  -0.845   4.812 -0.00 -0.05    +0.473 P 
DOCKED: ATOM     37  O   UNL d   1      21.760   0.484   5.038 -0.00 +0.02    -0.228 OA
DOCKED: BRANCH  36  38
DOCKED: ATOM     38  O   UNL d   1      20.550  -1.532   6.134 -0.00 +0.03    -0.303 OA
DOCKED: ATOM     39  H   UNL d   1      19.948  -2.266   5.884 +0.00 -0.02    +0.222 HD
DOCKED: ENDBRANCH  36  38
DOCKED: BRANCH  36  40
DOCKED: ATOM     40  O   UNL d   1      22.006  -1.978   4.143 -0.00 +0.03    -0.303 OA
DOCKED: ATOM     41  H   UNL d   1      22.046  -1.880   3.166 +0.01 -0.02    +0.222 HD
DOCKED: ENDBRANCH  36  40
DOCKED: ENDBRANCH  35  36
DOCKED: ENDBRANCH   5  35
DOCKED: BRANCH   4  42
DOCKED: ATOM     42  O   UNL d   1      18.288  -3.186   4.650 -0.00 +0.01    -0.278 OA
DOCKED: BRANCH  42  43
DOCKED: ATOM     43  P   UNL d   1      19.132  -4.538   4.597 +0.01 -0.04    +0.473 P 
DOCKED: ATOM     44  O   UNL d   1      19.538  -5.042   3.256 -0.00 +0.02    -0.228 OA
DOCKED: BRANCH  43  45
DOCKED: ATOM     45  O   UNL d   1      20.351  -4.227   5.572 +0.00 +0.03    -0.303 OA
DOCKED: ATOM     46  H   UNL d   1      20.892  -3.483   5.242 +0.00 -0.02    +0.222 HD
DOCKED: ENDBRANCH  43  45
DOCKED: BRANCH  43  47
DOCKED: ATOM     47  O   UNL d   1      18.258  -5.550   5.481 +0.00 +0.02    -0.303 OA
DOCKED: ATOM     48  H   UNL d   1      17.825  -6.202   4.892 +0.01 -0.02    +0.222 HD
DOCKED: ENDBRANCH  43  47
DOCKED: ENDBRANCH  42  43
DOCKED: ENDBRANCH   4  42
DOCKED: TORSDOF 24
DOCKED: TER
DOCKED: ENDMDL
________________________________________________________________________________


	BEGINNING GENETIC ALGORITHM DOCKING 50 of 100
Run: 50 Seed: 297614317 598266382 [ Run 50 of 100 GA/GALS ]
Beginning LAMARCKIAN GENETIC ALGORITHM (LGA), with a maximum of 25000000 energy evaluations.

Final-Value: -15.850


	FINAL GENETIC ALGORITHM DOCKED STATE
	_______________________________________________


Detailed state:  trans -7.128 20.045 -9.752 quatxyzw 0.024787 -0.745757 -0.597870 0.292887 center 0.035 0.082 -0.065 ntor 24 -114.1424 -4.8369 126.1048 -34.1752 -47.8075 156.6582 -53.2406 -12.3222 17.2865 118.9422 -85.5108 -96.5302 93.4290 -149.7808 -118.9609 27.9433 -78.3769 -4.7091 -23.2622 -29.8677 145.1795 -39.3671 -175.2095 139.7719
State:	 -7.128  20.045  -9.752   0.026 -0.780 -0.625 145.938   -114.14   -4.84  126.10  -34.18  -47.81  156.66  -53.24  -12.32   17.29  118.94  -85.51  -96.53   93.43 -149.78 -118.96   27.94  -78.38   -4.71  -23.26  -29.87  145.18  -39.37 -175.21  139.77

DOCKED: MODEL       50
DOCKED: USER    Run = 50
DOCKED: USER    DPF = D:/Protein_go_brrr/autodock/final/AncMH_nat/IHP/dock.dpf
DOCKED: USER  
DOCKED: USER    Estimated Free Energy of Binding    =   +3.96 kcal/mol  [=(1)+(2)+(3)-(4)]
DOCKED: USER    
DOCKED: USER    (1) Final Intermolecular Energy     =   -3.20 kcal/mol
DOCKED: USER        vdW + Hbond + desolv Energy     =   -3.12 kcal/mol
DOCKED: USER        Electrostatic Energy            =   -0.08 kcal/mol
DOCKED: USER    (2) Final Total Internal Energy     =  -12.65 kcal/mol
DOCKED: USER    (3) Torsional Free Energy           =   +7.16 kcal/mol
DOCKED: USER    (4) Unbound System's Energy  [=(2)] =  -12.65 kcal/mol
DOCKED: USER    
DOCKED: USER    
DOCKED: USER    NEWDPF move IHP_ideal_opt.pdbqt
DOCKED: USER    NEWDPF about 0.035000 0.082000 -0.065000
DOCKED: USER    NEWDPF tran0 -7.128093 20.044535 -9.752047
DOCKED: USER    NEWDPF quaternion0 0.024787 -0.745757 -0.597870 0.292887
DOCKED: USER    NEWDPF axisangle0 0.025924 -0.779961 -0.625291 145.938257
DOCKED: USER    NEWDPF quat0 0.025924 -0.779961 -0.625291 145.938257
DOCKED: USER    NEWDPF dihe0 -114.14 -4.84 126.10 -34.18 -47.81 156.66 -53.24 -12.32 17.29 118.94 -85.51 -96.53 93.43 -149.78 -118.96 27.94 -78.38 -4.71 -23.26 -29.87 145.18 -39.37 -175.21 139.77 
DOCKED: USER  keepresnum = 1 
DOCKED: USER  
DOCKED: REMARK  24 active torsions:
DOCKED: REMARK  status: ('A' for Active; 'I' for Inactive)
DOCKED: REMARK    1  A    between atoms: C_1  and  O_7 
DOCKED: REMARK    2  A    between atoms: C_2  and  O_12 
DOCKED: REMARK    3  A    between atoms: C_3  and  O_17 
DOCKED: REMARK    4  A    between atoms: C_4  and  O_22 
DOCKED: REMARK    5  A    between atoms: C_5  and  O_27 
DOCKED: REMARK    6  A    between atoms: C_6  and  O_32 
DOCKED: REMARK    7  A    between atoms: O_7  and  P_8 
DOCKED: REMARK    8  A    between atoms: P_8  and  O_10 
DOCKED: REMARK    9  A    between atoms: P_8  and  O_11 
DOCKED: REMARK   10  A    between atoms: O_12  and  P_13 
DOCKED: REMARK   11  A    between atoms: P_13  and  O_15 
DOCKED: REMARK   12  A    between atoms: P_13  and  O_16 
DOCKED: REMARK   13  A    between atoms: O_17  and  P_18 
DOCKED: REMARK   14  A    between atoms: P_18  and  O_20 
DOCKED: REMARK   15  A    between atoms: P_18  and  O_21 
DOCKED: REMARK   16  A    between atoms: O_22  and  P_23 
DOCKED: REMARK   17  A    between atoms: P_23  and  O_25 
DOCKED: REMARK   18  A    between atoms: P_23  and  O_26 
DOCKED: REMARK   19  A    between atoms: O_27  and  P_28 
DOCKED: REMARK   20  A    between atoms: P_28  and  O_30 
DOCKED: REMARK   21  A    between atoms: P_28  and  O_31 
DOCKED: REMARK   22  A    between atoms: O_32  and  P_33 
DOCKED: REMARK   23  A    between atoms: P_33  and  O_35 
DOCKED: REMARK   24  A    between atoms: P_33  and  O_36 
DOCKED: USER                              x       y       z     vdW  Elec       q    Type
DOCKED: USER                           _______ _______ _______ _____ _____    ______ ____
DOCKED: ROOT
DOCKED: ATOM      1  C   UNL d   1      -7.499  20.902 -11.205 -0.02 -0.00    +0.194 C 
DOCKED: ATOM      2  C   UNL d   1      -6.305  19.948 -11.287 -0.06 -0.00    +0.194 C 
DOCKED: ATOM      3  C   UNL d   1      -5.413  20.051 -10.048 -0.09 -0.01    +0.194 C 
DOCKED: ATOM      4  C   UNL d   1      -6.182  19.902  -8.738 -0.09 -0.01    +0.194 C 
DOCKED: ATOM      5  C   UNL d   1      -7.445  20.751  -8.660 -0.05 +0.00    +0.194 C 
DOCKED: ATOM      6  C   UNL d   1      -8.307  20.696  -9.923 -0.02 +0.00    +0.194 C 
DOCKED: ENDROOT
DOCKED: BRANCH   1   7
DOCKED: ATOM      7  O   UNL d   1      -8.368  20.624 -12.306 -0.00 +0.00    -0.278 OA
DOCKED: BRANCH   7   8
DOCKED: ATOM      8  P   UNL d   1      -9.161  21.839 -12.973 +0.01 -0.01    +0.473 P 
DOCKED: ATOM      9  O   UNL d   1      -9.356  21.734 -14.444 +0.00 +0.00    -0.228 OA
DOCKED: BRANCH   8  10
DOCKED: ATOM     10  O   UNL d   1     -10.533  21.898 -12.160 +0.00 +0.00    -0.303 OA
DOCKED: ATOM     11  H   UNL d   1     -10.423  22.464 -11.374 +0.00 -0.00    +0.222 HD
DOCKED: ENDBRANCH   8  10
DOCKED: BRANCH   8  12
DOCKED: ATOM     12  O   UNL d   1      -8.417  23.147 -12.464 +0.00 +0.00    -0.303 OA
DOCKED: ATOM     13  H   UNL d   1      -8.286  23.161 -11.489 +0.00 -0.00    +0.222 HD
DOCKED: ENDBRANCH   8  12
DOCKED: ENDBRANCH   7   8
DOCKED: ENDBRANCH   1   7
DOCKED: BRANCH   2  14
DOCKED: ATOM     14  O   UNL d   1      -6.789  18.603 -11.391 -0.05 -0.01    -0.278 OA
DOCKED: BRANCH  14  15
DOCKED: ATOM     15  P   UNL d   1      -6.763  17.944 -12.850 -0.03 +0.01    +0.473 P 
DOCKED: ATOM     16  O   UNL d   1      -8.021  18.043 -13.654 -0.01 +0.00    -0.228 OA
DOCKED: BRANCH  15  17
DOCKED: ATOM     17  O   UNL d   1      -5.518  18.634 -13.565 -0.02 +0.01    -0.303 OA
DOCKED: ATOM     18  H   UNL d   1      -4.827  18.871 -12.917 +0.03 -0.01    +0.222 HD
DOCKED: ENDBRANCH  15  17
DOCKED: BRANCH  15  19
DOCKED: ATOM     19  O   UNL d   1      -6.217  16.470 -12.610 -0.46 -0.04    -0.303 OA
DOCKED: ATOM     20  H   UNL d   1      -5.251  16.418 -12.734 +0.05 +0.02    +0.222 HD
DOCKED: ENDBRANCH  15  19
DOCKED: ENDBRANCH  14  15
DOCKED: ENDBRANCH   2  14
DOCKED: BRANCH   6  21
DOCKED: ATOM     21  O   UNL d   1      -9.235  21.775  -9.836 +0.00 -0.00    -0.278 OA
DOCKED: BRANCH  21  22
DOCKED: ATOM     22  P   UNL d   1      -8.740  23.206  -9.335 +0.01 +0.00    +0.473 P 
DOCKED: ATOM     23  O   UNL d   1      -8.773  23.491  -7.871 +0.00 -0.00    -0.228 OA
DOCKED: BRANCH  22  24
DOCKED: ATOM     24  O   UNL d   1      -7.298  23.304 -10.002 +0.00 +0.00    -0.303 OA
DOCKED: ATOM     25  H   UNL d   1      -6.623  23.304  -9.277 +0.01 -0.00    +0.222 HD
DOCKED: ENDBRANCH  22  24
DOCKED: BRANCH  22  26
DOCKED: ATOM     26  O   UNL d   1      -9.601  24.191 -10.262 +0.00 +0.00    -0.303 OA
DOCKED: ATOM     27  H   UNL d   1      -9.950  23.690 -11.027 +0.00 -0.00    +0.222 HD
DOCKED: ENDBRANCH  22  26
DOCKED: ENDBRANCH  21  22
DOCKED: ENDBRANCH   6  21
DOCKED: BRANCH   3  28
DOCKED: ATOM     28  O   UNL d   1      -4.507  18.955 -10.080 -0.05 +0.01    -0.278 OA
DOCKED: BRANCH  28  29
DOCKED: ATOM     29  P   UNL d   1      -3.327  18.918 -11.149 -0.11 -0.02    +0.473 P 
DOCKED: ATOM     30  O   UNL d   1      -3.231  20.103 -12.039 -0.03 +0.01    -0.228 OA
DOCKED: BRANCH  29  31
DOCKED: ATOM     31  O   UNL d   1      -2.084  18.634 -10.182 -0.15 +0.07    -0.303 OA
DOCKED: ATOM     32  H   UNL d   1      -2.411  18.597  -9.253 -0.20 -0.05    +0.222 HD
DOCKED: ENDBRANCH  29  31
DOCKED: BRANCH  29  33
DOCKED: ATOM     33  O   UNL d   1      -3.556  17.507 -11.851 -0.15 -0.01    -0.303 OA
DOCKED: ATOM     34  H   UNL d   1      -4.514  17.411 -12.073 +0.04 +0.02    +0.222 HD
DOCKED: ENDBRANCH  29  33
DOCKED: ENDBRANCH  28  29
DOCKED: ENDBRANCH   3  28
DOCKED: BRANCH   5  35
DOCKED: ATOM     35  O   UNL d   1      -8.220  20.196  -7.599 -0.04 -0.01    -0.278 OA
DOCKED: BRANCH  35  36
DOCKED: ATOM     36  P   UNL d   1      -8.399  18.615  -7.476 -0.11 +0.04    +0.473 P 
DOCKED: ATOM     37  O   UNL d   1      -8.459  17.870  -8.771 -0.71 -0.06    -0.228 OA
DOCKED: BRANCH  36  38
DOCKED: ATOM     38  O   UNL d   1      -7.166  18.219  -6.549 -0.21 +0.02    -0.303 OA
DOCKED: ATOM     39  H   UNL d   1      -6.342  18.583  -6.938 -0.47 -0.07    +0.222 HD
DOCKED: ENDBRANCH  36  38
DOCKED: BRANCH  36  40
DOCKED: ATOM     40  O   UNL d   1      -9.658  18.491  -6.512 -0.08 -0.04    -0.303 OA
DOCKED: ATOM     41  H   UNL d   1     -10.500  18.668  -6.988 +0.04 +0.02    +0.222 HD
DOCKED: ENDBRANCH  36  40
DOCKED: ENDBRANCH  35  36
DOCKED: ENDBRANCH   5  35
DOCKED: BRANCH   4  42
DOCKED: ATOM     42  O   UNL d   1      -5.311  20.347  -7.692 -0.09 +0.02    -0.278 OA
DOCKED: BRANCH  42  43
DOCKED: ATOM     43  P   UNL d   1      -4.207  21.449  -8.025 -0.01 -0.02    +0.473 P 
DOCKED: ATOM     44  O   UNL d   1      -4.609  22.577  -8.911 -0.01 +0.01    -0.228 OA
DOCKED: BRANCH  43  45
DOCKED: ATOM     45  O   UNL d   1      -3.717  21.900  -6.580 -0.00 +0.01    -0.303 OA
DOCKED: ATOM     46  H   UNL d   1      -3.299  22.783  -6.603 +0.01 -0.00    +0.222 HD
DOCKED: ENDBRANCH  43  45
DOCKED: BRANCH  43  47
DOCKED: ATOM     47  O   UNL d   1      -2.962  20.578  -8.535 -0.06 +0.03    -0.303 OA
DOCKED: ATOM     48  H   UNL d   1      -3.089  20.356  -9.480 +0.04 -0.02    +0.222 HD
DOCKED: ENDBRANCH  43  47
DOCKED: ENDBRANCH  42  43
DOCKED: ENDBRANCH   4  42
DOCKED: TORSDOF 24
DOCKED: TER
DOCKED: ENDMDL
________________________________________________________________________________


	BEGINNING GENETIC ALGORITHM DOCKING 51 of 100
Run: 51 Seed: 574307596 1004452261 [ Run 51 of 100 GA/GALS ]
Beginning LAMARCKIAN GENETIC ALGORITHM (LGA), with a maximum of 25000000 energy evaluations.

Final-Value: -17.355


	FINAL GENETIC ALGORITHM DOCKED STATE
	_______________________________________________


Detailed state:  trans -17.960 -10.543 18.242 quatxyzw 0.198975 0.854770 0.334872 -0.342983 center 0.035 0.082 -0.065 ntor 24 -154.7896 125.3187 -180.0000 3.2304 21.3014 161.8066 -5.9525 -129.2807 -77.3772 53.8737 119.4149 177.4812 -44.3148 173.9302 169.9084 108.8453 8.7196 4.7173 -18.1018 15.3432 -15.3099 4.8253 173.6664 -180.0000
State:	-17.960 -10.543  18.242   0.212  0.910  0.356 -139.883   -154.79  125.32 -180.00    3.23   21.30  161.81   -5.95 -129.28  -77.38   53.87  119.41  177.48  -44.31  173.93  169.91  108.85    8.72    4.72  -18.10   15.34  -15.31    4.83  173.67 -180.00

DOCKED: MODEL       51
DOCKED: USER    Run = 51
DOCKED: USER    DPF = D:/Protein_go_brrr/autodock/final/AncMH_nat/IHP/dock.dpf
DOCKED: USER  
DOCKED: USER    Estimated Free Energy of Binding    =   +2.69 kcal/mol  [=(1)+(2)+(3)-(4)]
DOCKED: USER    
DOCKED: USER    (1) Final Intermolecular Energy     =   -4.47 kcal/mol
DOCKED: USER        vdW + Hbond + desolv Energy     =   -3.79 kcal/mol
DOCKED: USER        Electrostatic Energy            =   -0.68 kcal/mol
DOCKED: USER    (2) Final Total Internal Energy     =  -12.89 kcal/mol
DOCKED: USER    (3) Torsional Free Energy           =   +7.16 kcal/mol
DOCKED: USER    (4) Unbound System's Energy  [=(2)] =  -12.89 kcal/mol
DOCKED: USER    
DOCKED: USER    
DOCKED: USER    NEWDPF move IHP_ideal_opt.pdbqt
DOCKED: USER    NEWDPF about 0.035000 0.082000 -0.065000
DOCKED: USER    NEWDPF tran0 -17.960288 -10.542623 18.241603
DOCKED: USER    NEWDPF quaternion0 0.198975 0.854770 0.334872 -0.342983
DOCKED: USER    NEWDPF axisangle0 0.211823 0.909968 0.356496 -139.882512
DOCKED: USER    NEWDPF quat0 0.211823 0.909968 0.356496 -139.882512
DOCKED: USER    NEWDPF dihe0 -154.79 125.32 -180.00 3.23 21.30 161.81 -5.95 -129.28 -77.38 53.87 119.41 177.48 -44.31 173.93 169.91 108.85 8.72 4.72 -18.10 15.34 -15.31 4.83 173.67 -180.00 
DOCKED: USER  keepresnum = 1 
DOCKED: USER  
DOCKED: REMARK  24 active torsions:
DOCKED: REMARK  status: ('A' for Active; 'I' for Inactive)
DOCKED: REMARK    1  A    between atoms: C_1  and  O_7 
DOCKED: REMARK    2  A    between atoms: C_2  and  O_12 
DOCKED: REMARK    3  A    between atoms: C_3  and  O_17 
DOCKED: REMARK    4  A    between atoms: C_4  and  O_22 
DOCKED: REMARK    5  A    between atoms: C_5  and  O_27 
DOCKED: REMARK    6  A    between atoms: C_6  and  O_32 
DOCKED: REMARK    7  A    between atoms: O_7  and  P_8 
DOCKED: REMARK    8  A    between atoms: P_8  and  O_10 
DOCKED: REMARK    9  A    between atoms: P_8  and  O_11 
DOCKED: REMARK   10  A    between atoms: O_12  and  P_13 
DOCKED: REMARK   11  A    between atoms: P_13  and  O_15 
DOCKED: REMARK   12  A    between atoms: P_13  and  O_16 
DOCKED: REMARK   13  A    between atoms: O_17  and  P_18 
DOCKED: REMARK   14  A    between atoms: P_18  and  O_20 
DOCKED: REMARK   15  A    between atoms: P_18  and  O_21 
DOCKED: REMARK   16  A    between atoms: O_22  and  P_23 
DOCKED: REMARK   17  A    between atoms: P_23  and  O_25 
DOCKED: REMARK   18  A    between atoms: P_23  and  O_26 
DOCKED: REMARK   19  A    between atoms: O_27  and  P_28 
DOCKED: REMARK   20  A    between atoms: P_28  and  O_30 
DOCKED: REMARK   21  A    between atoms: P_28  and  O_31 
DOCKED: REMARK   22  A    between atoms: O_32  and  P_33 
DOCKED: REMARK   23  A    between atoms: P_33  and  O_35 
DOCKED: REMARK   24  A    between atoms: P_33  and  O_36 
DOCKED: USER                              x       y       z     vdW  Elec       q    Type
DOCKED: USER                           _______ _______ _______ _____ _____    ______ ____
DOCKED: ROOT
DOCKED: ATOM      1  C   UNL d   1     -18.348 -10.102  16.617 -0.05 +0.13    +0.194 C 
DOCKED: ATOM      2  C   UNL d   1     -17.847 -11.534  16.812 -0.12 +0.02    +0.194 C 
DOCKED: ATOM      3  C   UNL d   1     -16.654 -11.592  17.769 -0.12 +0.03    +0.194 C 
DOCKED: ATOM      4  C   UNL d   1     -16.914 -10.886  19.097 -0.06 +0.06    +0.194 C 
DOCKED: ATOM      5  C   UNL d   1     -17.522  -9.496  18.952 -0.08 +0.14    +0.194 C 
DOCKED: ATOM      6  C   UNL d   1     -18.676  -9.426  17.949 -0.08 +0.15    +0.194 C 
DOCKED: ENDROOT
DOCKED: BRANCH   1   7
DOCKED: ATOM      7  O   UNL d   1     -19.557 -10.153  15.856 -0.07 -0.10    -0.278 OA
DOCKED: BRANCH   7   8
DOCKED: ATOM      8  P   UNL d   1     -19.801  -9.033  14.743 -0.08 +0.25    +0.473 P 
DOCKED: ATOM      9  O   UNL d   1     -18.644  -8.131  14.491 -0.67 -0.30    -0.228 OA
DOCKED: BRANCH   8  10
DOCKED: ATOM     10  O   UNL d   1     -20.244  -9.861  13.453 -0.05 -0.05    -0.303 OA
DOCKED: ATOM     11  H   UNL d   1     -20.926 -10.512  13.700 +0.04 +0.02    +0.222 HD
DOCKED: ENDBRANCH   8  10
DOCKED: BRANCH   8  12
DOCKED: ATOM     12  O   UNL d   1     -21.158  -8.321  15.162 -0.02 -0.10    -0.303 OA
DOCKED: ATOM     13  H   UNL d   1     -21.039  -7.656  15.877 +0.02 +0.10    +0.222 HD
DOCKED: ENDBRANCH   8  12
DOCKED: ENDBRANCH   7   8
DOCKED: ENDBRANCH   1   7
DOCKED: BRANCH   2  14
DOCKED: ATOM     14  O   UNL d   1     -18.907 -12.330  17.355 -0.02 +0.02    -0.278 OA
DOCKED: BRANCH  14  15
DOCKED: ATOM     15  P   UNL d   1     -18.950 -13.867  16.908 -0.03 -0.18    +0.473 P 
DOCKED: ATOM     16  O   UNL d   1     -20.266 -14.389  16.422 -0.02 +0.07    -0.228 OA
DOCKED: BRANCH  15  17
DOCKED: ATOM     17  O   UNL d   1     -17.796 -13.986  15.816 -0.06 +0.39    -0.303 OA
DOCKED: ATOM     18  H   UNL d   1     -16.927 -14.129  16.237 -0.55 -0.38    +0.222 HD
DOCKED: ENDBRANCH  15  17
DOCKED: BRANCH  15  19
DOCKED: ATOM     19  O   UNL d   1     -18.311 -14.655  18.134 -0.02 +0.10    -0.303 OA
DOCKED: ATOM     20  H   UNL d   1     -17.416 -14.330  18.344 +0.03 -0.08    +0.222 HD
DOCKED: ENDBRANCH  15  19
DOCKED: ENDBRANCH  14  15
DOCKED: ENDBRANCH   2  14
DOCKED: BRANCH   6  21
DOCKED: ATOM     21  O   UNL d   1     -18.899  -8.046  17.674 -0.08 -0.37    -0.278 OA
DOCKED: BRANCH  21  22
DOCKED: ATOM     22  P   UNL d   1     -20.302  -7.381  18.044 -0.02 +0.25    +0.473 P 
DOCKED: ATOM     23  O   UNL d   1     -20.682  -6.111  17.360 -0.02 -0.11    -0.228 OA
DOCKED: BRANCH  22  24
DOCKED: ATOM     24  O   UNL d   1     -21.307  -8.592  17.810 -0.00 -0.08    -0.303 OA
DOCKED: ATOM     25  H   UNL d   1     -21.068  -9.030  16.954 +0.02 +0.07    +0.222 HD
DOCKED: ENDBRANCH  22  24
DOCKED: BRANCH  22  26
DOCKED: ATOM     26  O   UNL d   1     -20.222  -7.322  19.644 -0.00 -0.10    -0.303 OA
DOCKED: ATOM     27  H   UNL d   1     -19.467  -7.866  19.949 +0.01 +0.08    +0.222 HD
DOCKED: ENDBRANCH  22  26
DOCKED: ENDBRANCH  21  22
DOCKED: ENDBRANCH   6  21
DOCKED: BRANCH   3  28
DOCKED: ATOM     28  O   UNL d   1     -16.439 -12.957  18.103 -0.07 +0.06    -0.278 OA
DOCKED: BRANCH  28  29
DOCKED: ATOM     29  P   UNL d   1     -15.093 -13.689  17.669 -0.11 -0.23    +0.473 P 
DOCKED: ATOM     30  O   UNL d   1     -13.928 -13.473  18.566 -0.07 +0.04    -0.228 OA
DOCKED: BRANCH  29  31
DOCKED: ATOM     31  O   UNL d   1     -15.626 -15.190  17.520 -0.09 +0.27    -0.303 OA
DOCKED: ATOM     32  H   UNL d   1     -16.474 -15.174  17.018 -0.32 -0.30    +0.222 HD
DOCKED: ENDBRANCH  29  31
DOCKED: BRANCH  29  33
DOCKED: ATOM     33  O   UNL d   1     -14.931 -13.221  16.156 -0.06 +0.28    -0.303 OA
DOCKED: ATOM     34  H   UNL d   1     -15.630 -13.656  15.609 -0.36 -0.54    +0.222 HD
DOCKED: ENDBRANCH  29  33
DOCKED: ENDBRANCH  28  29
DOCKED: ENDBRANCH   3  28
DOCKED: BRANCH   5  35
DOCKED: ATOM     35  O   UNL d   1     -18.061  -9.174  20.233 -0.02 -0.10    -0.278 OA
DOCKED: BRANCH  35  36
DOCKED: ATOM     36  P   UNL d   1     -19.119 -10.144  20.928 +0.01 +0.07    +0.473 P 
DOCKED: ATOM     37  O   UNL d   1     -18.701 -11.576  21.047 +0.00 -0.02    -0.228 OA
DOCKED: BRANCH  36  38
DOCKED: ATOM     38  O   UNL d   1     -19.362  -9.416  22.324 +0.00 -0.03    -0.303 OA
DOCKED: ATOM     39  H   UNL d   1     -19.542 -10.092  23.012 +0.00 +0.01    +0.222 HD
DOCKED: ENDBRANCH  36  38
DOCKED: BRANCH  36  40
DOCKED: ATOM     40  O   UNL d   1     -20.446  -9.845  20.105 +0.00 -0.05    -0.303 OA
DOCKED: ATOM     41  H   UNL d   1     -20.261  -9.325  19.292 +0.01 +0.06    +0.222 HD
DOCKED: ENDBRANCH  36  40
DOCKED: ENDBRANCH  35  36
DOCKED: ENDBRANCH   5  35
DOCKED: BRANCH   4  42
DOCKED: ATOM     42  O   UNL d   1     -15.644 -10.724  19.736 -0.03 -0.07    -0.278 OA
DOCKED: BRANCH  42  43
DOCKED: ATOM     43  P   UNL d   1     -14.587  -9.709  19.107 -0.08 +0.22    +0.473 P 
DOCKED: ATOM     44  O   UNL d   1     -15.060  -8.332  18.794 -0.42 -0.25    -0.228 OA
DOCKED: BRANCH  43  45
DOCKED: ATOM     45  O   UNL d   1     -13.386  -9.764  20.150 -0.02 -0.06    -0.303 OA
DOCKED: ATOM     46  H   UNL d   1     -13.164 -10.685  20.392 +0.02 +0.02    +0.222 HD
DOCKED: ENDBRANCH  43  45
DOCKED: BRANCH  43  47
DOCKED: ATOM     47  O   UNL d   1     -13.981 -10.530  17.871 -0.14 -0.11    -0.303 OA
DOCKED: ATOM     48  H   UNL d   1     -14.365 -11.431  17.863 +0.05 +0.04    +0.222 HD
DOCKED: ENDBRANCH  43  47
DOCKED: ENDBRANCH  42  43
DOCKED: ENDBRANCH   4  42
DOCKED: TORSDOF 24
DOCKED: TER
DOCKED: ENDMDL
________________________________________________________________________________


	BEGINNING GENETIC ALGORITHM DOCKING 52 of 100
Run: 52 Seed: 1599297099 696347721 [ Run 52 of 100 GA/GALS ]
Beginning LAMARCKIAN GENETIC ALGORITHM (LGA), with a maximum of 25000000 energy evaluations.

Final-Value: -18.421


	FINAL GENETIC ALGORITHM DOCKED STATE
	_______________________________________________


Detailed state:  trans -12.459 9.421 16.269 quatxyzw -0.929329 -0.143361 -0.100926 0.324975 center 0.035 0.082 -0.065 ntor 24 66.7747 72.2031 46.4003 70.4007 -174.0093 179.8562 -40.2478 -165.6068 142.3737 -1.5060 42.0932 100.8270 -93.6876 -66.9676 16.5742 -40.2489 114.7024 -133.8280 -142.1504 0.6629 114.8414 137.0732 151.6822 -62.0802
State:	-12.459   9.421  16.269  -0.983 -0.152 -0.107 142.072     66.77   72.20   46.40   70.40 -174.01  179.86  -40.25 -165.61  142.37   -1.51   42.09  100.83  -93.69  -66.97   16.57  -40.25  114.70 -133.83 -142.15    0.66  114.84  137.07  151.68  -62.08

DOCKED: MODEL       52
DOCKED: USER    Run = 52
DOCKED: USER    DPF = D:/Protein_go_brrr/autodock/final/AncMH_nat/IHP/dock.dpf
DOCKED: USER  
DOCKED: USER    Estimated Free Energy of Binding    =   +2.67 kcal/mol  [=(1)+(2)+(3)-(4)]
DOCKED: USER    
DOCKED: USER    (1) Final Intermolecular Energy     =   -4.49 kcal/mol
DOCKED: USER        vdW + Hbond + desolv Energy     =   -4.18 kcal/mol
DOCKED: USER        Electrostatic Energy            =   -0.31 kcal/mol
DOCKED: USER    (2) Final Total Internal Energy     =  -13.93 kcal/mol
DOCKED: USER    (3) Torsional Free Energy           =   +7.16 kcal/mol
DOCKED: USER    (4) Unbound System's Energy  [=(2)] =  -13.93 kcal/mol
DOCKED: USER    
DOCKED: USER    
DOCKED: USER    NEWDPF move IHP_ideal_opt.pdbqt
DOCKED: USER    NEWDPF about 0.035000 0.082000 -0.065000
DOCKED: USER    NEWDPF tran0 -12.459300 9.421433 16.268789
DOCKED: USER    NEWDPF quaternion0 -0.929329 -0.143361 -0.100926 0.324975
DOCKED: USER    NEWDPF axisangle0 -0.982666 -0.151589 -0.106718 142.071884
DOCKED: USER    NEWDPF quat0 -0.982666 -0.151589 -0.106718 142.071884
DOCKED: USER    NEWDPF dihe0 66.77 72.20 46.40 70.40 -174.01 179.86 -40.25 -165.61 142.37 -1.51 42.09 100.83 -93.69 -66.97 16.57 -40.25 114.70 -133.83 -142.15 0.66 114.84 137.07 151.68 -62.08 
DOCKED: USER  keepresnum = 1 
DOCKED: USER  
DOCKED: REMARK  24 active torsions:
DOCKED: REMARK  status: ('A' for Active; 'I' for Inactive)
DOCKED: REMARK    1  A    between atoms: C_1  and  O_7 
DOCKED: REMARK    2  A    between atoms: C_2  and  O_12 
DOCKED: REMARK    3  A    between atoms: C_3  and  O_17 
DOCKED: REMARK    4  A    between atoms: C_4  and  O_22 
DOCKED: REMARK    5  A    between atoms: C_5  and  O_27 
DOCKED: REMARK    6  A    between atoms: C_6  and  O_32 
DOCKED: REMARK    7  A    between atoms: O_7  and  P_8 
DOCKED: REMARK    8  A    between atoms: P_8  and  O_10 
DOCKED: REMARK    9  A    between atoms: P_8  and  O_11 
DOCKED: REMARK   10  A    between atoms: O_12  and  P_13 
DOCKED: REMARK   11  A    between atoms: P_13  and  O_15 
DOCKED: REMARK   12  A    between atoms: P_13  and  O_16 
DOCKED: REMARK   13  A    between atoms: O_17  and  P_18 
DOCKED: REMARK   14  A    between atoms: P_18  and  O_20 
DOCKED: REMARK   15  A    between atoms: P_18  and  O_21 
DOCKED: REMARK   16  A    between atoms: O_22  and  P_23 
DOCKED: REMARK   17  A    between atoms: P_23  and  O_25 
DOCKED: REMARK   18  A    between atoms: P_23  and  O_26 
DOCKED: REMARK   19  A    between atoms: O_27  and  P_28 
DOCKED: REMARK   20  A    between atoms: P_28  and  O_30 
DOCKED: REMARK   21  A    between atoms: P_28  and  O_31 
DOCKED: REMARK   22  A    between atoms: O_32  and  P_33 
DOCKED: REMARK   23  A    between atoms: P_33  and  O_35 
DOCKED: REMARK   24  A    between atoms: P_33  and  O_36 
DOCKED: USER                              x       y       z     vdW  Elec       q    Type
DOCKED: USER                           _______ _______ _______ _____ _____    ______ ____
DOCKED: ROOT
DOCKED: ATOM      1  C   UNL d   1     -11.240  10.047  15.217 -0.14 -0.02    +0.194 C 
DOCKED: ATOM      2  C   UNL d   1     -12.676  10.445  14.874 -0.19 -0.01    +0.194 C 
DOCKED: ATOM      3  C   UNL d   1     -13.638   9.262  14.997 -0.23 +0.02    +0.194 C 
DOCKED: ATOM      4  C   UNL d   1     -13.543   8.548  16.343 -0.14 +0.03    +0.194 C 
DOCKED: ATOM      5  C   UNL d   1     -12.118   8.232  16.780 -0.12 -0.01    +0.194 C 
DOCKED: ATOM      6  C   UNL d   1     -11.143   9.398  16.599 -0.11 -0.02    +0.194 C 
DOCKED: ENDROOT
DOCKED: BRANCH   1   7
DOCKED: ATOM      7  O   UNL d   1     -10.442  11.233  15.247 -0.18 +0.05    -0.278 OA
DOCKED: BRANCH   7   8
DOCKED: ATOM      8  P   UNL d   1     -10.196  11.947  16.654 -0.09 -0.10    +0.473 P 
DOCKED: ATOM      9  O   UNL d   1     -11.391  12.028  17.538 -0.03 +0.03    -0.228 OA
DOCKED: BRANCH   8  10
DOCKED: ATOM     10  O   UNL d   1      -8.992  11.124  17.300 -0.05 +0.06    -0.303 OA
DOCKED: ATOM     11  H   UNL d   1      -9.348  10.395  17.842 +0.05 -0.05    +0.222 HD
DOCKED: ENDBRANCH   8  10
DOCKED: BRANCH   8  12
DOCKED: ATOM     12  O   UNL d   1      -9.501  13.331  16.299 -0.12 +0.12    -0.303 OA
DOCKED: ATOM     13  H   UNL d   1      -9.735  13.661  15.402 -0.52 -0.18    +0.222 HD
DOCKED: ENDBRANCH   8  12
DOCKED: ENDBRANCH   7   8
DOCKED: ENDBRANCH   1   7
DOCKED: BRANCH   2  14
DOCKED: ATOM     14  O   UNL d   1     -13.102  11.476  15.774 -0.05 +0.02    -0.278 OA
DOCKED: BRANCH  14  15
DOCKED: ATOM     15  P   UNL d   1     -13.808  12.754  15.117 -0.01 -0.06    +0.473 P 
DOCKED: ATOM     16  O   UNL d   1     -13.720  12.878  13.628 -0.13 +0.05    -0.228 OA
DOCKED: BRANCH  15  17
DOCKED: ATOM     17  O   UNL d   1     -15.310  12.680  15.643 -0.01 -0.00    -0.303 OA
DOCKED: ATOM     18  H   UNL d   1     -15.687  11.790  15.508 +0.04 +0.03    +0.222 HD
DOCKED: ENDBRANCH  15  17
DOCKED: BRANCH  15  19
DOCKED: ATOM     19  O   UNL d   1     -13.241  13.989  15.943 -0.03 +0.07    -0.303 OA
DOCKED: ATOM     20  H   UNL d   1     -12.498  13.728  16.518 +0.04 -0.05    +0.222 HD
DOCKED: ENDBRANCH  15  19
DOCKED: ENDBRANCH  14  15
DOCKED: ENDBRANCH   2  14
DOCKED: BRANCH   6  21
DOCKED: ATOM     21  O   UNL d   1      -9.828   8.857  16.715 -0.11 +0.06    -0.278 OA
DOCKED: BRANCH  21  22
DOCKED: ATOM     22  P   UNL d   1      -9.617   7.276  16.686 -0.21 -0.16    +0.473 P 
DOCKED: ATOM     23  O   UNL d   1     -10.314   6.491  15.627 -0.40 +0.08    -0.228 OA
DOCKED: BRANCH  22  24
DOCKED: ATOM     24  O   UNL d   1      -8.030   7.161  16.666 -0.19 +0.24    -0.303 OA
DOCKED: ATOM     25  H   UNL d   1      -7.747   6.656  17.471 -0.09 -0.33    +0.222 HD
DOCKED: ENDBRANCH  22  24
DOCKED: BRANCH  22  26
DOCKED: ATOM     26  O   UNL d   1      -9.959   6.874  18.200 -0.07 +0.10    -0.303 OA
DOCKED: ATOM     27  H   UNL d   1     -10.283   7.665  18.677 +0.05 -0.05    +0.222 HD
DOCKED: ENDBRANCH  22  26
DOCKED: ENDBRANCH  21  22
DOCKED: ENDBRANCH   6  21
DOCKED: BRANCH   3  28
DOCKED: ATOM     28  O   UNL d   1     -14.961   9.777  14.936 -0.16 -0.09    -0.278 OA
DOCKED: BRANCH  28  29
DOCKED: ATOM     29  P   UNL d   1     -15.906   9.722  16.217 -0.08 +0.29    +0.473 P 
DOCKED: ATOM     30  O   UNL d   1     -16.303   8.362  16.663 -0.50 -0.28    -0.228 OA
DOCKED: BRANCH  29  31
DOCKED: ATOM     31  O   UNL d   1     -15.041  10.598  17.240 -0.02 -0.06    -0.303 OA
DOCKED: ATOM     32  H   UNL d   1     -14.319  11.043  16.739 +0.04 +0.02    +0.222 HD
DOCKED: ENDBRANCH  29  31
DOCKED: BRANCH  29  33
DOCKED: ATOM     33  O   UNL d   1     -17.081  10.717  15.809 -0.09 -0.18    -0.303 OA
DOCKED: ATOM     34  H   UNL d   1     -16.984  11.556  16.323 +0.02 +0.07    +0.222 HD
DOCKED: ENDBRANCH  29  33
DOCKED: ENDBRANCH  28  29
DOCKED: ENDBRANCH   3  28
DOCKED: BRANCH   5  35
DOCKED: ATOM     35  O   UNL d   1     -12.192   7.961  18.178 -0.02 +0.01    -0.278 OA
DOCKED: BRANCH  35  36
DOCKED: ATOM     36  P   UNL d   1     -12.316   9.158  19.225 +0.01 -0.02    +0.473 P 
DOCKED: ATOM     37  O   UNL d   1     -12.865   8.788  20.566 -0.00 +0.00    -0.228 OA
DOCKED: BRANCH  36  38
DOCKED: ATOM     38  O   UNL d   1     -10.824   9.716  19.259 -0.00 +0.04    -0.303 OA
DOCKED: ATOM     39  H   UNL d   1     -10.639  10.189  18.420 +0.03 -0.03    +0.222 HD
DOCKED: ENDBRANCH  36  38
DOCKED: BRANCH  36  40
DOCKED: ATOM     40  O   UNL d   1     -13.115  10.254  18.394 -0.01 -0.00    -0.303 OA
DOCKED: ATOM     41  H   UNL d   1     -12.779  10.331  17.474 +0.03 -0.00    +0.222 HD
DOCKED: ENDBRANCH  36  40
DOCKED: ENDBRANCH  35  36
DOCKED: ENDBRANCH   5  35
DOCKED: BRANCH   4  42
DOCKED: ATOM     42  O   UNL d   1     -14.225   7.297  16.198 -0.14 -0.09    -0.278 OA
DOCKED: BRANCH  42  43
DOCKED: ATOM     43  P   UNL d   1     -14.444   6.384  17.488 -0.08 +0.12    +0.473 P 
DOCKED: ATOM     44  O   UNL d   1     -13.365   5.419  17.837 -0.08 -0.01    -0.228 OA
DOCKED: BRANCH  43  45
DOCKED: ATOM     45  O   UNL d   1     -14.753   7.454  18.625 -0.03 -0.06    -0.303 OA
DOCKED: ATOM     46  H   UNL d   1     -14.290   8.299  18.457 +0.02 +0.03    +0.222 HD
DOCKED: ENDBRANCH  43  45
DOCKED: BRANCH  43  47
DOCKED: ATOM     47  O   UNL d   1     -15.892   5.743  17.241 -0.10 -0.17    -0.303 OA
DOCKED: ATOM     48  H   UNL d   1     -16.580   6.395  17.488 +0.02 +0.19    +0.222 HD
DOCKED: ENDBRANCH  43  47
DOCKED: ENDBRANCH  42  43
DOCKED: ENDBRANCH   4  42
DOCKED: TORSDOF 24
DOCKED: TER
DOCKED: ENDMDL
________________________________________________________________________________


	BEGINNING GENETIC ALGORITHM DOCKING 53 of 100
Run: 53 Seed: 32308875 758265299 [ Run 53 of 100 GA/GALS ]
Beginning LAMARCKIAN GENETIC ALGORITHM (LGA), with a maximum of 25000000 energy evaluations.

Final-Value: -17.204


	FINAL GENETIC ALGORITHM DOCKED STATE
	_______________________________________________


Detailed state:  trans 16.585 -10.104 -2.607 quatxyzw 0.632936 -0.361581 0.584411 -0.356533 center 0.035 0.082 -0.065 ntor 24 -67.7807 10.3952 60.0433 37.5895 26.3047 -127.6936 33.9769 -66.9719 -47.9345 -30.8352 43.1120 -139.2246 -152.9294 161.4862 -57.8899 87.6632 41.6373 140.2594 45.3647 -10.6011 176.9833 -17.1101 -25.9968 -1.8971
State:	 16.585 -10.104  -2.607   0.677 -0.387  0.626 -138.225    -67.78   10.40   60.04   37.59   26.30 -127.69   33.98  -66.97  -47.93  -30.84   43.11 -139.22 -152.93  161.49  -57.89   87.66   41.64  140.26   45.36  -10.60  176.98  -17.11  -26.00   -1.90

DOCKED: MODEL       53
DOCKED: USER    Run = 53
DOCKED: USER    DPF = D:/Protein_go_brrr/autodock/final/AncMH_nat/IHP/dock.dpf
DOCKED: USER  
DOCKED: USER    Estimated Free Energy of Binding    =   +3.99 kcal/mol  [=(1)+(2)+(3)-(4)]
DOCKED: USER    
DOCKED: USER    (1) Final Intermolecular Energy     =   -3.17 kcal/mol
DOCKED: USER        vdW + Hbond + desolv Energy     =   -3.16 kcal/mol
DOCKED: USER        Electrostatic Energy            =   -0.01 kcal/mol
DOCKED: USER    (2) Final Total Internal Energy     =  -14.03 kcal/mol
DOCKED: USER    (3) Torsional Free Energy           =   +7.16 kcal/mol
DOCKED: USER    (4) Unbound System's Energy  [=(2)] =  -14.03 kcal/mol
DOCKED: USER    
DOCKED: USER    
DOCKED: USER    NEWDPF move IHP_ideal_opt.pdbqt
DOCKED: USER    NEWDPF about 0.035000 0.082000 -0.065000
DOCKED: USER    NEWDPF tran0 16.584660 -10.104070 -2.606645
DOCKED: USER    NEWDPF quaternion0 0.632936 -0.361581 0.584411 -0.356533
DOCKED: USER    NEWDPF axisangle0 0.677456 -0.387015 0.625518 -138.225172
DOCKED: USER    NEWDPF quat0 0.677456 -0.387015 0.625518 -138.225172
DOCKED: USER    NEWDPF dihe0 -67.78 10.40 60.04 37.59 26.30 -127.69 33.98 -66.97 -47.93 -30.84 43.11 -139.22 -152.93 161.49 -57.89 87.66 41.64 140.26 45.36 -10.60 176.98 -17.11 -26.00 -1.90 
DOCKED: USER  keepresnum = 1 
DOCKED: USER  
DOCKED: REMARK  24 active torsions:
DOCKED: REMARK  status: ('A' for Active; 'I' for Inactive)
DOCKED: REMARK    1  A    between atoms: C_1  and  O_7 
DOCKED: REMARK    2  A    between atoms: C_2  and  O_12 
DOCKED: REMARK    3  A    between atoms: C_3  and  O_17 
DOCKED: REMARK    4  A    between atoms: C_4  and  O_22 
DOCKED: REMARK    5  A    between atoms: C_5  and  O_27 
DOCKED: REMARK    6  A    between atoms: C_6  and  O_32 
DOCKED: REMARK    7  A    between atoms: O_7  and  P_8 
DOCKED: REMARK    8  A    between atoms: P_8  and  O_10 
DOCKED: REMARK    9  A    between atoms: P_8  and  O_11 
DOCKED: REMARK   10  A    between atoms: O_12  and  P_13 
DOCKED: REMARK   11  A    between atoms: P_13  and  O_15 
DOCKED: REMARK   12  A    between atoms: P_13  and  O_16 
DOCKED: REMARK   13  A    between atoms: O_17  and  P_18 
DOCKED: REMARK   14  A    between atoms: P_18  and  O_20 
DOCKED: REMARK   15  A    between atoms: P_18  and  O_21 
DOCKED: REMARK   16  A    between atoms: O_22  and  P_23 
DOCKED: REMARK   17  A    between atoms: P_23  and  O_25 
DOCKED: REMARK   18  A    between atoms: P_23  and  O_26 
DOCKED: REMARK   19  A    between atoms: O_27  and  P_28 
DOCKED: REMARK   20  A    between atoms: P_28  and  O_30 
DOCKED: REMARK   21  A    between atoms: P_28  and  O_31 
DOCKED: REMARK   22  A    between atoms: O_32  and  P_33 
DOCKED: REMARK   23  A    between atoms: P_33  and  O_35 
DOCKED: REMARK   24  A    between atoms: P_33  and  O_36 
DOCKED: USER                              x       y       z     vdW  Elec       q    Type
DOCKED: USER                           _______ _______ _______ _____ _____    ______ ____
DOCKED: ROOT
DOCKED: ATOM      1  C   UNL d   1      17.812 -10.417  -1.432 -0.03 -0.02    +0.194 C 
DOCKED: ATOM      2  C   UNL d   1      18.268  -9.654  -2.677 -0.07 -0.02    +0.194 C 
DOCKED: ATOM      3  C   UNL d   1      17.676 -10.250  -3.955 -0.09 -0.01    +0.194 C 
DOCKED: ATOM      4  C   UNL d   1      16.158 -10.408  -3.899 -0.10 -0.00    +0.194 C 
DOCKED: ATOM      5  C   UNL d   1      15.650 -11.062  -2.620 -0.10 -0.02    +0.194 C 
DOCKED: ATOM      6  C   UNL d   1      16.288 -10.507  -1.345 -0.08 -0.02    +0.194 C 
DOCKED: ENDROOT
DOCKED: BRANCH   1   7
DOCKED: ATOM      7  O   UNL d   1      18.263  -9.700  -0.280 -0.01 +0.03    -0.278 OA
DOCKED: BRANCH   7   8
DOCKED: ATOM      8  P   UNL d   1      19.800  -9.822   0.136 +0.00 -0.05    +0.473 P 
DOCKED: ATOM      9  O   UNL d   1      20.077 -10.750   1.266 -0.00 +0.02    -0.228 OA
DOCKED: BRANCH   8  10
DOCKED: ATOM     10  O   UNL d   1      20.535 -10.241  -1.217 -0.00 +0.03    -0.303 OA
DOCKED: ATOM     11  H   UNL d   1      21.339  -9.701  -1.333 +0.01 -0.02    +0.222 HD
DOCKED: ENDBRANCH   8  10
DOCKED: BRANCH   8  12
DOCKED: ATOM     12  O   UNL d   1      20.294  -8.324   0.332 -0.00 +0.03    -0.303 OA
DOCKED: ATOM     13  H   UNL d   1      19.872  -7.694  -0.294 +0.01 -0.03    +0.222 HD
DOCKED: ENDBRANCH   8  12
DOCKED: ENDBRANCH   7   8
DOCKED: ENDBRANCH   1   7
DOCKED: BRANCH   2  14
DOCKED: ATOM     14  O   UNL d   1      17.843  -8.289  -2.570 -0.13 +0.02    -0.278 OA
DOCKED: BRANCH  14  15
DOCKED: ATOM     15  P   UNL d   1      18.993  -7.176  -2.609 -0.07 -0.06    +0.473 P 
DOCKED: ATOM     16  O   UNL d   1      18.806  -5.984  -1.723 -0.08 +0.04    -0.228 OA
DOCKED: BRANCH  15  17
DOCKED: ATOM     17  O   UNL d   1      20.326  -7.985  -2.283 -0.01 +0.03    -0.303 OA
DOCKED: ATOM     18  H   UNL d   1      20.157  -8.695  -1.635 +0.01 -0.02    +0.222 HD
DOCKED: ENDBRANCH  15  17
DOCKED: BRANCH  15  19
DOCKED: ATOM     19  O   UNL d   1      19.184  -6.857  -4.156 -0.09 +0.03    -0.303 OA
DOCKED: ATOM     20  H   UNL d   1      18.867  -7.589  -4.717 +0.04 -0.01    +0.222 HD
DOCKED: ENDBRANCH  15  19
DOCKED: ENDBRANCH  14  15
DOCKED: ENDBRANCH   2  14
DOCKED: BRANCH   6  21
DOCKED: ATOM     21  O   UNL d   1      15.982 -11.426  -0.298 -0.02 +0.04    -0.278 OA
DOCKED: BRANCH  21  22
DOCKED: ATOM     22  P   UNL d   1      16.749 -12.823  -0.221 +0.01 -0.06    +0.473 P 
DOCKED: ATOM     23  O   UNL d   1      17.264 -13.414  -1.490 -0.00 +0.03    -0.228 OA
DOCKED: BRANCH  22  24
DOCKED: ATOM     24  O   UNL d   1      17.863 -12.523   0.875 -0.00 +0.04    -0.303 OA
DOCKED: ATOM     25  H   UNL d   1      18.206 -11.606   0.723 +0.01 -0.03    +0.222 HD
DOCKED: ENDBRANCH  22  24
DOCKED: BRANCH  22  26
DOCKED: ATOM     26  O   UNL d   1      15.708 -13.721   0.602 -0.00 +0.04    -0.303 OA
DOCKED: ATOM     27  H   UNL d   1      14.855 -13.746   0.122 +0.02 -0.03    +0.222 HD
DOCKED: ENDBRANCH  22  26
DOCKED: ENDBRANCH  21  22
DOCKED: ENDBRANCH   6  21
DOCKED: BRANCH   3  28
DOCKED: ATOM     28  O   UNL d   1      17.920  -9.329  -5.011 -0.19 -0.00    -0.278 OA
DOCKED: BRANCH  28  29
DOCKED: ATOM     29  P   UNL d   1      19.215  -9.480  -5.926 -0.04 -0.04    +0.473 P 
DOCKED: ATOM     30  O   UNL d   1      19.306 -10.742  -6.704 -0.01 +0.03    -0.228 OA
DOCKED: BRANCH  29  31
DOCKED: ATOM     31  O   UNL d   1      19.126  -8.117  -6.761 -0.07 +0.02    -0.303 OA
DOCKED: ATOM     32  H   UNL d   1      19.559  -7.401  -6.240 +0.04 -0.02    +0.222 HD
DOCKED: ENDBRANCH  29  31
DOCKED: BRANCH  29  33
DOCKED: ATOM     33  O   UNL d   1      20.390  -9.184  -4.894 -0.02 +0.03    -0.303 OA
DOCKED: ATOM     34  H   UNL d   1      19.998  -8.873  -4.041 +0.02 -0.02    +0.222 HD
DOCKED: ENDBRANCH  29  33
DOCKED: ENDBRANCH  28  29
DOCKED: ENDBRANCH   3  28
DOCKED: BRANCH   5  35
DOCKED: ATOM     35  O   UNL d   1      14.257 -10.759  -2.558 -0.18 +0.06    -0.278 OA
DOCKED: BRANCH  35  36
DOCKED: ATOM     36  P   UNL d   1      13.175 -11.879  -2.903 -0.13 -0.15    +0.473 P 
DOCKED: ATOM     37  O   UNL d   1      12.782 -12.768  -1.767 -0.11 +0.08    -0.228 OA
DOCKED: BRANCH  36  38
DOCKED: ATOM     38  O   UNL d   1      11.981 -11.007  -3.495 -0.25 +0.15    -0.303 OA
DOCKED: ATOM     39  H   UNL d   1      11.189 -11.118  -2.925 -0.47 -0.17    +0.222 HD
DOCKED: ENDBRANCH  36  38
DOCKED: BRANCH  36  40
DOCKED: ATOM     40  O   UNL d   1      13.807 -12.580  -4.183 -0.04 +0.06    -0.303 OA
DOCKED: ATOM     41  H   UNL d   1      13.749 -12.007  -4.979 +0.06 -0.05    +0.222 HD
DOCKED: ENDBRANCH  36  40
DOCKED: ENDBRANCH  35  36
DOCKED: ENDBRANCH   5  35
DOCKED: BRANCH   4  42
DOCKED: ATOM     42  O   UNL d   1      15.790 -11.264  -4.985 -0.11 +0.03    -0.278 OA
DOCKED: BRANCH  42  43
DOCKED: ATOM     43  P   UNL d   1      14.932 -10.661  -6.186 -0.12 -0.07    +0.473 P 
DOCKED: ATOM     44  O   UNL d   1      14.450 -11.608  -7.230 -0.04 +0.05    -0.228 OA
DOCKED: BRANCH  43  45
DOCKED: ATOM     45  O   UNL d   1      13.770  -9.881  -5.428 -0.25 +0.08    -0.303 OA
DOCKED: ATOM     46  H   UNL d   1      13.558 -10.301  -4.570 +0.08 -0.05    +0.222 HD
DOCKED: ENDBRANCH  43  45
DOCKED: BRANCH  43  47
DOCKED: ATOM     47  O   UNL d   1      15.843  -9.453  -6.716 -0.57 +0.01    -0.303 OA
DOCKED: ATOM     48  H   UNL d   1      16.783  -9.728  -6.704 +0.04 -0.01    +0.222 HD
DOCKED: ENDBRANCH  43  47
DOCKED: ENDBRANCH  42  43
DOCKED: ENDBRANCH   4  42
DOCKED: TORSDOF 24
DOCKED: TER
DOCKED: ENDMDL
________________________________________________________________________________


	BEGINNING GENETIC ALGORITHM DOCKING 54 of 100
Run: 54 Seed: 205136338 933714216 [ Run 54 of 100 GA/GALS ]
Beginning LAMARCKIAN GENETIC ALGORITHM (LGA), with a maximum of 25000000 energy evaluations.

Final-Value: -16.287


	FINAL GENETIC ALGORITHM DOCKED STATE
	_______________________________________________


Detailed state:  trans -11.184 0.339 -12.666 quatxyzw 0.644108 0.207654 0.487601 -0.551588 center 0.035 0.082 -0.065 ntor 24 91.6527 174.9862 158.8315 140.2414 -79.9750 157.3526 -21.7678 -180.0000 6.7460 -3.0791 103.3854 142.1411 -179.7515 89.0217 -115.2562 140.2518 -161.6508 -120.9013 -13.2477 -22.2107 140.4604 -35.2836 -40.6828 151.6033
State:	-11.184   0.339 -12.666   0.772  0.249  0.585 -113.048     91.65  174.99  158.83  140.24  -79.98  157.35  -21.77 -180.00    6.75   -3.08  103.39  142.14 -179.75   89.02 -115.26  140.25 -161.65 -120.90  -13.25  -22.21  140.46  -35.28  -40.68  151.60

DOCKED: MODEL       54
DOCKED: USER    Run = 54
DOCKED: USER    DPF = D:/Protein_go_brrr/autodock/final/AncMH_nat/IHP/dock.dpf
DOCKED: USER  
DOCKED: USER    Estimated Free Energy of Binding    =   +4.40 kcal/mol  [=(1)+(2)+(3)-(4)]
DOCKED: USER    
DOCKED: USER    (1) Final Intermolecular Energy     =   -2.76 kcal/mol
DOCKED: USER        vdW + Hbond + desolv Energy     =   -2.46 kcal/mol
DOCKED: USER        Electrostatic Energy            =   -0.30 kcal/mol
DOCKED: USER    (2) Final Total Internal Energy     =  -13.53 kcal/mol
DOCKED: USER    (3) Torsional Free Energy           =   +7.16 kcal/mol
DOCKED: USER    (4) Unbound System's Energy  [=(2)] =  -13.53 kcal/mol
DOCKED: USER    
DOCKED: USER    
DOCKED: USER    NEWDPF move IHP_ideal_opt.pdbqt
DOCKED: USER    NEWDPF about 0.035000 0.082000 -0.065000
DOCKED: USER    NEWDPF tran0 -11.183544 0.339393 -12.665680
DOCKED: USER    NEWDPF quaternion0 0.644108 0.207654 0.487601 -0.551588
DOCKED: USER    NEWDPF axisangle0 0.772204 0.248951 0.584572 -113.047925
DOCKED: USER    NEWDPF quat0 0.772204 0.248951 0.584572 -113.047925
DOCKED: USER    NEWDPF dihe0 91.65 174.99 158.83 140.24 -79.98 157.35 -21.77 -180.00 6.75 -3.08 103.39 142.14 -179.75 89.02 -115.26 140.25 -161.65 -120.90 -13.25 -22.21 140.46 -35.28 -40.68 151.60 
DOCKED: USER  keepresnum = 1 
DOCKED: USER  
DOCKED: REMARK  24 active torsions:
DOCKED: REMARK  status: ('A' for Active; 'I' for Inactive)
DOCKED: REMARK    1  A    between atoms: C_1  and  O_7 
DOCKED: REMARK    2  A    between atoms: C_2  and  O_12 
DOCKED: REMARK    3  A    between atoms: C_3  and  O_17 
DOCKED: REMARK    4  A    between atoms: C_4  and  O_22 
DOCKED: REMARK    5  A    between atoms: C_5  and  O_27 
DOCKED: REMARK    6  A    between atoms: C_6  and  O_32 
DOCKED: REMARK    7  A    between atoms: O_7  and  P_8 
DOCKED: REMARK    8  A    between atoms: P_8  and  O_10 
DOCKED: REMARK    9  A    between atoms: P_8  and  O_11 
DOCKED: REMARK   10  A    between atoms: O_12  and  P_13 
DOCKED: REMARK   11  A    between atoms: P_13  and  O_15 
DOCKED: REMARK   12  A    between atoms: P_13  and  O_16 
DOCKED: REMARK   13  A    between atoms: O_17  and  P_18 
DOCKED: REMARK   14  A    between atoms: P_18  and  O_20 
DOCKED: REMARK   15  A    between atoms: P_18  and  O_21 
DOCKED: REMARK   16  A    between atoms: O_22  and  P_23 
DOCKED: REMARK   17  A    between atoms: P_23  and  O_25 
DOCKED: REMARK   18  A    between atoms: P_23  and  O_26 
DOCKED: REMARK   19  A    between atoms: O_27  and  P_28 
DOCKED: REMARK   20  A    between atoms: P_28  and  O_30 
DOCKED: REMARK   21  A    between atoms: P_28  and  O_31 
DOCKED: REMARK   22  A    between atoms: O_32  and  P_33 
DOCKED: REMARK   23  A    between atoms: P_33  and  O_35 
DOCKED: REMARK   24  A    between atoms: P_33  and  O_36 
DOCKED: USER                              x       y       z     vdW  Elec       q    Type
DOCKED: USER                           _______ _______ _______ _____ _____    ______ ____
DOCKED: ROOT
DOCKED: ATOM      1  C   UNL d   1      -9.716   1.218 -12.910 -0.01 -0.05    +0.194 C 
DOCKED: ATOM      2  C   UNL d   1     -10.362   0.646 -14.173 +0.01 -0.02    +0.194 C 
DOCKED: ATOM      3  C   UNL d   1     -10.862  -0.784 -13.956 +0.01 -0.01    +0.194 C 
DOCKED: ATOM      4  C   UNL d   1     -11.763  -0.927 -12.732 +0.01 -0.01    +0.194 C 
DOCKED: ATOM      5  C   UNL d   1     -11.210  -0.269 -11.474 +0.00 -0.02    +0.194 C 
DOCKED: ATOM      6  C   UNL d   1     -10.653   1.137 -11.704 -0.01 -0.06    +0.194 C 
DOCKED: ENDROOT
DOCKED: BRANCH   1   7
DOCKED: ATOM      7  O   UNL d   1      -9.435   2.600 -13.140 -0.03 +0.10    -0.278 OA
DOCKED: BRANCH   7   8
DOCKED: ATOM      8  P   UNL d   1      -8.017   3.174 -12.679 -0.06 -0.28    +0.473 P 
DOCKED: ATOM      9  O   UNL d   1      -8.077   4.394 -11.829 -0.22 +0.25    -0.228 OA
DOCKED: BRANCH   8  10
DOCKED: ATOM     10  O   UNL d   1      -7.317   1.937 -11.954 -0.50 +0.16    -0.303 OA
DOCKED: ATOM     11  H   UNL d   1      -7.808   1.714 -11.141 +0.01 -0.19    +0.222 HD
DOCKED: ENDBRANCH   8  10
DOCKED: BRANCH   8  12
DOCKED: ATOM     12  O   UNL d   1      -7.168   3.300 -14.016 -0.36 +0.11    -0.303 OA
DOCKED: ATOM     13  H   UNL d   1      -6.747   4.183 -14.123 -0.50 -0.16    +0.222 HD
DOCKED: ENDBRANCH   8  12
DOCKED: ENDBRANCH   7   8
DOCKED: ENDBRANCH   1   7
DOCKED: BRANCH   2  14
DOCKED: ATOM     14  O   UNL d   1     -11.476   1.468 -14.541 +0.00 +0.03    -0.278 OA
DOCKED: BRANCH  14  15
DOCKED: ATOM     15  P   UNL d   1     -11.303   2.359 -15.860 +0.01 -0.04    +0.473 P 
DOCKED: ATOM     16  O   UNL d   1     -12.522   2.549 -16.708 +0.00 +0.01    -0.228 OA
DOCKED: BRANCH  15  17
DOCKED: ATOM     17  O   UNL d   1     -10.705   3.734 -15.323 +0.00 +0.04    -0.303 OA
DOCKED: ATOM     18  H   UNL d   1      -9.827   3.601 -14.916 +0.02 -0.04    +0.222 HD
DOCKED: ENDBRANCH  15  17
DOCKED: BRANCH  15  19
DOCKED: ATOM     19  O   UNL d   1     -10.043   1.731 -16.601 +0.00 +0.03    -0.303 OA
DOCKED: ATOM     20  H   UNL d   1     -10.284   0.932 -17.106 +0.00 -0.01    +0.222 HD
DOCKED: ENDBRANCH  15  19
DOCKED: ENDBRANCH  14  15
DOCKED: ENDBRANCH   2  14
DOCKED: BRANCH   6  21
DOCKED: ATOM     21  O   UNL d   1      -9.881   1.469 -10.552 -0.07 +0.18    -0.278 OA
DOCKED: BRANCH  21  22
DOCKED: ATOM     22  P   UNL d   1      -8.994   0.348  -9.844 -0.11 -0.23    +0.473 P 
DOCKED: ATOM     23  O   UNL d   1      -9.649  -0.538  -8.838 -0.11 +0.05    -0.228 OA
DOCKED: BRANCH  22  24
DOCKED: ATOM     24  O   UNL d   1      -8.369  -0.411 -11.095 -0.06 +0.08    -0.303 OA
DOCKED: ATOM     25  H   UNL d   1      -8.278  -1.370 -10.861 +0.07 -0.03    +0.222 HD
DOCKED: ENDBRANCH  22  24
DOCKED: BRANCH  22  26
DOCKED: ATOM     26  O   UNL d   1      -7.745   1.205  -9.319 -0.24 +0.35    -0.303 OA
DOCKED: ATOM     27  H   UNL d   1      -7.727   2.066  -9.784 -0.39 -0.50    +0.222 HD
DOCKED: ENDBRANCH  22  26
DOCKED: ENDBRANCH  21  22
DOCKED: ENDBRANCH   6  21
DOCKED: BRANCH   3  28
DOCKED: ATOM     28  O   UNL d   1     -11.680  -1.126 -15.068 +0.00 +0.01    -0.278 OA
DOCKED: BRANCH  28  29
DOCKED: ATOM     29  P   UNL d   1     -11.020  -1.475 -16.475 +0.00 -0.01    +0.473 P 
DOCKED: ATOM     30  O   UNL d   1     -11.198  -2.875 -16.936 +0.00 +0.00    -0.228 OA
DOCKED: BRANCH  29  31
DOCKED: ATOM     31  O   UNL d   1     -11.667  -0.324 -17.380 +0.00 +0.01    -0.303 OA
DOCKED: ATOM     32  H   UNL d   1     -11.834   0.464 -16.813 +0.00 -0.01    +0.222 HD
DOCKED: ENDBRANCH  29  31
DOCKED: BRANCH  29  33
DOCKED: ATOM     33  O   UNL d   1      -9.524  -0.967 -16.277 +0.00 +0.01    -0.303 OA
DOCKED: ATOM     34  H   UNL d   1      -9.324  -0.282 -16.961 +0.01 -0.01    +0.222 HD
DOCKED: ENDBRANCH  29  33
DOCKED: ENDBRANCH  28  29
DOCKED: ENDBRANCH   3  28
DOCKED: BRANCH   5  35
DOCKED: ATOM     35  O   UNL d   1     -12.317  -0.142 -10.584 -0.00 +0.02    -0.278 OA
DOCKED: BRANCH  35  36
DOCKED: ATOM     36  P   UNL d   1     -12.663  -1.313  -9.558 +0.01 +0.01    +0.473 P 
DOCKED: ATOM     37  O   UNL d   1     -13.996  -1.964  -9.747 -0.00 -0.02    -0.228 OA
DOCKED: BRANCH  36  38
DOCKED: ATOM     38  O   UNL d   1     -11.423  -2.294  -9.752 -0.02 -0.02    -0.303 OA
DOCKED: ATOM     39  H   UNL d   1     -11.424  -2.634 -10.672 +0.03 +0.02    +0.222 HD
DOCKED: ENDBRANCH  36  38
DOCKED: BRANCH  36  40
DOCKED: ATOM     40  O   UNL d   1     -12.389  -0.624  -8.151 -0.02 +0.01    -0.303 OA
DOCKED: ATOM     41  H   UNL d   1     -11.548  -0.116  -8.152 +0.05 -0.03    +0.222 HD
DOCKED: ENDBRANCH  36  40
DOCKED: ENDBRANCH  35  36
DOCKED: ENDBRANCH   5  35
DOCKED: BRANCH   4  42
DOCKED: ATOM     42  O   UNL d   1     -11.875  -2.328 -12.460 +0.00 -0.01    -0.278 OA
DOCKED: BRANCH  42  43
DOCKED: ATOM     43  P   UNL d   1     -10.579  -3.247 -12.602 +0.01 +0.04    +0.473 P 
DOCKED: ATOM     44  O   UNL d   1     -10.125  -3.587 -13.980 -0.01 -0.01    -0.228 OA
DOCKED: BRANCH  43  45
DOCKED: ATOM     45  O   UNL d   1      -9.498  -2.462 -11.736 -0.03 +0.00    -0.303 OA
DOCKED: ATOM     46  H   UNL d   1      -9.916  -1.972 -11.001 +0.04 -0.00    +0.222 HD
DOCKED: ENDBRANCH  43  45
DOCKED: BRANCH  43  47
DOCKED: ATOM     47  O   UNL d   1     -10.910  -4.497 -11.655 -0.02 -0.09    -0.303 OA
DOCKED: ATOM     48  H   UNL d   1     -11.368  -4.178 -10.849 +0.03 +0.07    +0.222 HD
DOCKED: ENDBRANCH  43  47
DOCKED: ENDBRANCH  42  43
DOCKED: ENDBRANCH   4  42
DOCKED: TORSDOF 24
DOCKED: TER
DOCKED: ENDMDL
________________________________________________________________________________


	BEGINNING GENETIC ALGORITHM DOCKING 55 of 100
Run: 55 Seed: 1108271796 1478999011 [ Run 55 of 100 GA/GALS ]
Beginning LAMARCKIAN GENETIC ALGORITHM (LGA), with a maximum of 25000000 energy evaluations.

Final-Value: -17.814


	FINAL GENETIC ALGORITHM DOCKED STATE
	_______________________________________________


Detailed state:  trans 2.938 -15.762 11.315 quatxyzw -0.135413 -0.738656 0.276261 0.599776 center 0.035 0.082 -0.065 ntor 24 -179.9075 63.3808 126.8790 100.8552 105.5117 144.2216 -119.7748 -14.2443 103.5015 -39.0182 -36.1835 -153.0628 -50.3600 112.6647 -132.7381 177.1321 -148.4693 150.0167 6.6014 -11.0584 -14.6190 10.4345 4.4412 -179.4461
State:	  2.938 -15.762  11.315  -0.169 -0.923  0.345 106.292   -179.91   63.38  126.88  100.86  105.51  144.22 -119.77  -14.24  103.50  -39.02  -36.18 -153.06  -50.36  112.66 -132.74  177.13 -148.47  150.02    6.60  -11.06  -14.62   10.43    4.44 -179.45

DOCKED: MODEL       55
DOCKED: USER    Run = 55
DOCKED: USER    DPF = D:/Protein_go_brrr/autodock/final/AncMH_nat/IHP/dock.dpf
DOCKED: USER  
DOCKED: USER    Estimated Free Energy of Binding    =   +3.72 kcal/mol  [=(1)+(2)+(3)-(4)]
DOCKED: USER    
DOCKED: USER    (1) Final Intermolecular Energy     =   -3.44 kcal/mol
DOCKED: USER        vdW + Hbond + desolv Energy     =   -3.31 kcal/mol
DOCKED: USER        Electrostatic Energy            =   -0.12 kcal/mol
DOCKED: USER    (2) Final Total Internal Energy     =  -14.38 kcal/mol
DOCKED: USER    (3) Torsional Free Energy           =   +7.16 kcal/mol
DOCKED: USER    (4) Unbound System's Energy  [=(2)] =  -14.38 kcal/mol
DOCKED: USER    
DOCKED: USER    
DOCKED: USER    NEWDPF move IHP_ideal_opt.pdbqt
DOCKED: USER    NEWDPF about 0.035000 0.082000 -0.065000
DOCKED: USER    NEWDPF tran0 2.937849 -15.762303 11.314610
DOCKED: USER    NEWDPF quaternion0 -0.135413 -0.738656 0.276261 0.599776
DOCKED: USER    NEWDPF axisangle0 -0.169231 -0.923125 0.345254 106.292346
DOCKED: USER    NEWDPF quat0 -0.169231 -0.923125 0.345254 106.292346
DOCKED: USER    NEWDPF dihe0 -179.91 63.38 126.88 100.86 105.51 144.22 -119.77 -14.24 103.50 -39.02 -36.18 -153.06 -50.36 112.66 -132.74 177.13 -148.47 150.02 6.60 -11.06 -14.62 10.43 4.44 -179.45 
DOCKED: USER  keepresnum = 1 
DOCKED: USER  
DOCKED: REMARK  24 active torsions:
DOCKED: REMARK  status: ('A' for Active; 'I' for Inactive)
DOCKED: REMARK    1  A    between atoms: C_1  and  O_7 
DOCKED: REMARK    2  A    between atoms: C_2  and  O_12 
DOCKED: REMARK    3  A    between atoms: C_3  and  O_17 
DOCKED: REMARK    4  A    between atoms: C_4  and  O_22 
DOCKED: REMARK    5  A    between atoms: C_5  and  O_27 
DOCKED: REMARK    6  A    between atoms: C_6  and  O_32 
DOCKED: REMARK    7  A    between atoms: O_7  and  P_8 
DOCKED: REMARK    8  A    between atoms: P_8  and  O_10 
DOCKED: REMARK    9  A    between atoms: P_8  and  O_11 
DOCKED: REMARK   10  A    between atoms: O_12  and  P_13 
DOCKED: REMARK   11  A    between atoms: P_13  and  O_15 
DOCKED: REMARK   12  A    between atoms: P_13  and  O_16 
DOCKED: REMARK   13  A    between atoms: O_17  and  P_18 
DOCKED: REMARK   14  A    between atoms: P_18  and  O_20 
DOCKED: REMARK   15  A    between atoms: P_18  and  O_21 
DOCKED: REMARK   16  A    between atoms: O_22  and  P_23 
DOCKED: REMARK   17  A    between atoms: P_23  and  O_25 
DOCKED: REMARK   18  A    between atoms: P_23  and  O_26 
DOCKED: REMARK   19  A    between atoms: O_27  and  P_28 
DOCKED: REMARK   20  A    between atoms: P_28  and  O_30 
DOCKED: REMARK   21  A    between atoms: P_28  and  O_31 
DOCKED: REMARK   22  A    between atoms: O_32  and  P_33 
DOCKED: REMARK   23  A    between atoms: P_33  and  O_35 
DOCKED: REMARK   24  A    between atoms: P_33  and  O_36 
DOCKED: USER                              x       y       z     vdW  Elec       q    Type
DOCKED: USER                           _______ _______ _______ _____ _____    ______ ____
DOCKED: ROOT
DOCKED: ATOM      1  C   UNL d   1       2.802 -17.098  10.228 -0.07 +0.01    +0.194 C 
DOCKED: ATOM      2  C   UNL d   1       2.380 -17.375  11.672 -0.07 -0.00    +0.194 C 
DOCKED: ATOM      3  C   UNL d   1       3.358 -16.763  12.676 -0.04 -0.01    +0.194 C 
DOCKED: ATOM      4  C   UNL d   1       3.626 -15.280  12.427 -0.03 -0.01    +0.194 C 
DOCKED: ATOM      5  C   UNL d   1       3.939 -14.941  10.975 -0.07 -0.01    +0.194 C 
DOCKED: ATOM      6  C   UNL d   1       2.997 -15.604   9.968 -0.10 +0.01    +0.194 C 
DOCKED: ENDROOT
DOCKED: BRANCH   1   7
DOCKED: ATOM      7  O   UNL d   1       1.756 -17.548   9.363 -0.01 -0.06    -0.278 OA
DOCKED: BRANCH   7   8
DOCKED: ATOM      8  P   UNL d   1       2.069 -18.747   8.354 -0.08 +0.14    +0.473 P 
DOCKED: ATOM      9  O   UNL d   1       3.446 -19.304   8.443 -0.02 -0.04    -0.228 OA
DOCKED: BRANCH   8  10
DOCKED: ATOM     10  O   UNL d   1       0.934 -19.823   8.669 -0.14 -0.01    -0.303 OA
DOCKED: ATOM     11  H   UNL d   1       0.173 -19.382   9.091 +0.08 +0.02    +0.222 HD
DOCKED: ENDBRANCH   8  10
DOCKED: BRANCH   8  12
DOCKED: ATOM     12  O   UNL d   1       1.629 -18.209   6.925 -0.47 -0.34    -0.303 OA
DOCKED: ATOM     13  H   UNL d   1       1.544 -17.229   6.891 +0.06 +0.29    +0.222 HD
DOCKED: ENDBRANCH   8  12
DOCKED: ENDBRANCH   7   8
DOCKED: ENDBRANCH   1   7
DOCKED: BRANCH   2  14
DOCKED: ATOM     14  O   UNL d   1       1.082 -16.810  11.895 -0.13 -0.01    -0.278 OA
DOCKED: BRANCH  14  15
DOCKED: ATOM     15  P   UNL d   1      -0.074 -17.825  12.338 -0.09 +0.05    +0.473 P 
DOCKED: ATOM     16  O   UNL d   1      -1.348 -17.217  12.835 -0.71 -0.04    -0.228 OA
DOCKED: BRANCH  15  17
DOCKED: ATOM     17  O   UNL d   1      -0.290 -18.749  11.058 -0.48 -0.05    -0.303 OA
DOCKED: ATOM     18  H   UNL d   1       0.542 -18.856  10.558 +0.07 +0.02    +0.222 HD
DOCKED: ENDBRANCH  15  17
DOCKED: BRANCH  15  19
DOCKED: ATOM     19  O   UNL d   1       0.642 -18.830  13.341 -0.04 +0.01    -0.303 OA
DOCKED: ATOM     20  H   UNL d   1       1.255 -18.366  13.941 +0.03 -0.01    +0.222 HD
DOCKED: ENDBRANCH  15  19
DOCKED: ENDBRANCH  14  15
DOCKED: ENDBRANCH   2  14
DOCKED: BRANCH   6  21
DOCKED: ATOM     21  O   UNL d   1       3.610 -15.479   8.687 -0.05 -0.05    -0.278 OA
DOCKED: BRANCH  21  22
DOCKED: ATOM     22  P   UNL d   1       2.889 -14.632   7.543 -0.10 +0.16    +0.473 P 
DOCKED: ATOM     23  O   UNL d   1       2.175 -15.372   6.463 -0.24 -0.25    -0.228 OA
DOCKED: BRANCH  22  24
DOCKED: ATOM     24  O   UNL d   1       1.975 -13.647   8.395 -0.26 -0.02    -0.303 OA
DOCKED: ATOM     25  H   UNL d   1       2.491 -13.357   9.190 +0.10 -0.01    +0.222 HD
DOCKED: ENDBRANCH  22  24
DOCKED: BRANCH  22  26
DOCKED: ATOM     26  O   UNL d   1       4.070 -13.658   7.065 -0.06 -0.05    -0.303 OA
DOCKED: ATOM     27  H   UNL d   1       4.669 -13.485   7.820 +0.08 +0.01    +0.222 HD
DOCKED: ENDBRANCH  22  26
DOCKED: ENDBRANCH  21  22
DOCKED: ENDBRANCH   6  21
DOCKED: BRANCH   3  28
DOCKED: ATOM     28  O   UNL d   1       2.751 -16.826  13.960 -0.03 +0.02    -0.278 OA
DOCKED: BRANCH  28  29
DOCKED: ATOM     29  P   UNL d   1       3.461 -17.614  15.148 -0.00 -0.04    +0.473 P 
DOCKED: ATOM     30  O   UNL d   1       3.168 -17.112  16.515 -0.00 +0.02    -0.228 OA
DOCKED: BRANCH  29  31
DOCKED: ATOM     31  O   UNL d   1       2.998 -19.108  14.808 -0.00 +0.02    -0.303 OA
DOCKED: ATOM     32  H   UNL d   1       2.027 -19.177  14.958 +0.01 -0.02    +0.222 HD
DOCKED: ENDBRANCH  29  31
DOCKED: BRANCH  29  33
DOCKED: ATOM     33  O   UNL d   1       4.986 -17.606  14.689 -0.00 +0.03    -0.303 OA
DOCKED: ATOM     34  H   UNL d   1       5.221 -16.700  14.371 +0.01 -0.02    +0.222 HD
DOCKED: ENDBRANCH  29  33
DOCKED: ENDBRANCH  28  29
DOCKED: ENDBRANCH   3  28
DOCKED: BRANCH   5  35
DOCKED: ATOM     35  O   UNL d   1       3.754 -13.532  10.859 -0.05 +0.03    -0.278 OA
DOCKED: BRANCH  35  36
DOCKED: ATOM     36  P   UNL d   1       4.828 -12.641  10.085 -0.12 -0.11    +0.473 P 
DOCKED: ATOM     37  O   UNL d   1       5.740 -11.833  10.952 -0.16 +0.12    -0.228 OA
DOCKED: BRANCH  36  38
DOCKED: ATOM     38  O   UNL d   1       5.569 -13.729   9.189 -0.02 +0.02    -0.303 OA
DOCKED: ATOM     39  H   UNL d   1       4.925 -14.421   8.925 +0.06 +0.00    +0.222 HD
DOCKED: ENDBRANCH  36  38
DOCKED: BRANCH  36  40
DOCKED: ATOM     40  O   UNL d   1       3.923 -11.843   9.048 -0.27 +0.05    -0.303 OA
DOCKED: ATOM     41  H   UNL d   1       3.707 -12.388   8.259 +0.12 -0.00    +0.222 HD
DOCKED: ENDBRANCH  36  40
DOCKED: ENDBRANCH  35  36
DOCKED: ENDBRANCH   5  35
DOCKED: BRANCH   4  42
DOCKED: ATOM     42  O   UNL d   1       4.780 -14.932  13.199 -0.03 +0.03    -0.278 OA
DOCKED: BRANCH  42  43
DOCKED: ATOM     43  P   UNL d   1       6.201 -15.514  12.767 +0.00 -0.05    +0.473 P 
DOCKED: ATOM     44  O   UNL d   1       7.305 -15.441  13.765 -0.00 +0.03    -0.228 OA
DOCKED: BRANCH  43  45
DOCKED: ATOM     45  O   UNL d   1       5.845 -16.992  12.298 -0.00 +0.02    -0.303 OA
DOCKED: ATOM     46  H   UNL d   1       6.180 -17.659  12.929 +0.00 -0.02    +0.222 HD
DOCKED: ENDBRANCH  43  45
DOCKED: BRANCH  43  47
DOCKED: ATOM     47  O   UNL d   1       6.485 -14.787  11.367 -0.00 +0.04    -0.303 OA
DOCKED: ATOM     48  H   UNL d   1       5.998 -13.937  11.341 +0.04 -0.03    +0.222 HD
DOCKED: ENDBRANCH  43  47
DOCKED: ENDBRANCH  42  43
DOCKED: ENDBRANCH   4  42
DOCKED: TORSDOF 24
DOCKED: TER
DOCKED: ENDMDL
________________________________________________________________________________


	BEGINNING GENETIC ALGORITHM DOCKING 56 of 100
Run: 56 Seed: 2059476939 2005318000 [ Run 56 of 100 GA/GALS ]
Beginning LAMARCKIAN GENETIC ALGORITHM (LGA), with a maximum of 25000000 energy evaluations.

Final-Value: -19.137


	FINAL GENETIC ALGORITHM DOCKED STATE
	_______________________________________________


Detailed state:  trans 9.624 7.938 6.639 quatxyzw 0.908338 0.260612 -0.325342 0.033999 center 0.035 0.082 -0.065 ntor 24 141.6012 128.4564 180.0000 -35.2917 1.4592 161.7315 -36.2227 -3.3200 135.0186 101.0706 125.3631 -89.0597 106.7226 80.8586 -144.8502 172.9184 -10.7604 -11.5411 29.5353 -37.2304 -52.7267 -29.9624 146.6319 132.1857
State:	  9.624   7.938   6.639   0.909  0.261 -0.326 176.103    141.60  128.46  180.00  -35.29    1.46  161.73  -36.22   -3.32  135.02  101.07  125.36  -89.06  106.72   80.86 -144.85  172.92  -10.76  -11.54   29.54  -37.23  -52.73  -29.96  146.63  132.19

DOCKED: MODEL       56
DOCKED: USER    Run = 56
DOCKED: USER    DPF = D:/Protein_go_brrr/autodock/final/AncMH_nat/IHP/dock.dpf
DOCKED: USER  
DOCKED: USER    Estimated Free Energy of Binding    =   +1.42 kcal/mol  [=(1)+(2)+(3)-(4)]
DOCKED: USER    
DOCKED: USER    (1) Final Intermolecular Energy     =   -5.74 kcal/mol
DOCKED: USER        vdW + Hbond + desolv Energy     =   -5.25 kcal/mol
DOCKED: USER        Electrostatic Energy            =   -0.49 kcal/mol
DOCKED: USER    (2) Final Total Internal Energy     =  -13.40 kcal/mol
DOCKED: USER    (3) Torsional Free Energy           =   +7.16 kcal/mol
DOCKED: USER    (4) Unbound System's Energy  [=(2)] =  -13.40 kcal/mol
DOCKED: USER    
DOCKED: USER    
DOCKED: USER    NEWDPF move IHP_ideal_opt.pdbqt
DOCKED: USER    NEWDPF about 0.035000 0.082000 -0.065000
DOCKED: USER    NEWDPF tran0 9.624406 7.937575 6.638705
DOCKED: USER    NEWDPF quaternion0 0.908338 0.260612 -0.325342 0.033999
DOCKED: USER    NEWDPF axisangle0 0.908863 0.260763 -0.325530 176.103281
DOCKED: USER    NEWDPF quat0 0.908863 0.260763 -0.325530 176.103281
DOCKED: USER    NEWDPF dihe0 141.60 128.46 180.00 -35.29 1.46 161.73 -36.22 -3.32 135.02 101.07 125.36 -89.06 106.72 80.86 -144.85 172.92 -10.76 -11.54 29.54 -37.23 -52.73 -29.96 146.63 132.19 
DOCKED: USER  keepresnum = 1 
DOCKED: USER  
DOCKED: REMARK  24 active torsions:
DOCKED: REMARK  status: ('A' for Active; 'I' for Inactive)
DOCKED: REMARK    1  A    between atoms: C_1  and  O_7 
DOCKED: REMARK    2  A    between atoms: C_2  and  O_12 
DOCKED: REMARK    3  A    between atoms: C_3  and  O_17 
DOCKED: REMARK    4  A    between atoms: C_4  and  O_22 
DOCKED: REMARK    5  A    between atoms: C_5  and  O_27 
DOCKED: REMARK    6  A    between atoms: C_6  and  O_32 
DOCKED: REMARK    7  A    between atoms: O_7  and  P_8 
DOCKED: REMARK    8  A    between atoms: P_8  and  O_10 
DOCKED: REMARK    9  A    between atoms: P_8  and  O_11 
DOCKED: REMARK   10  A    between atoms: O_12  and  P_13 
DOCKED: REMARK   11  A    between atoms: P_13  and  O_15 
DOCKED: REMARK   12  A    between atoms: P_13  and  O_16 
DOCKED: REMARK   13  A    between atoms: O_17  and  P_18 
DOCKED: REMARK   14  A    between atoms: P_18  and  O_20 
DOCKED: REMARK   15  A    between atoms: P_18  and  O_21 
DOCKED: REMARK   16  A    between atoms: O_22  and  P_23 
DOCKED: REMARK   17  A    between atoms: P_23  and  O_25 
DOCKED: REMARK   18  A    between atoms: P_23  and  O_26 
DOCKED: REMARK   19  A    between atoms: O_27  and  P_28 
DOCKED: REMARK   20  A    between atoms: P_28  and  O_30 
DOCKED: REMARK   21  A    between atoms: P_28  and  O_31 
DOCKED: REMARK   22  A    between atoms: O_32  and  P_33 
DOCKED: REMARK   23  A    between atoms: P_33  and  O_35 
DOCKED: REMARK   24  A    between atoms: P_33  and  O_36 
DOCKED: USER                              x       y       z     vdW  Elec       q    Type
DOCKED: USER                           _______ _______ _______ _____ _____    ______ ____
DOCKED: ROOT
DOCKED: ATOM      1  C   UNL d   1       9.560   9.239   5.504 -0.21 -0.05    +0.194 C 
DOCKED: ATOM      2  C   UNL d   1       8.607   9.353   6.696 -0.13 -0.03    +0.194 C 
DOCKED: ATOM      3  C   UNL d   1       7.925   8.019   7.005 -0.14 -0.04    +0.194 C 
DOCKED: ATOM      4  C   UNL d   1       8.908   6.862   7.161 -0.11 -0.08    +0.194 C 
DOCKED: ATOM      5  C   UNL d   1       9.950   6.779   6.053 -0.16 -0.11    +0.194 C 
DOCKED: ATOM      6  C   UNL d   1      10.588   8.124   5.701 -0.17 -0.09    +0.194 C 
DOCKED: ENDROOT
DOCKED: BRANCH   1   7
DOCKED: ATOM      7  O   UNL d   1      10.280  10.468   5.389 -0.08 +0.04    -0.278 OA
DOCKED: BRANCH   7   8
DOCKED: ATOM      8  P   UNL d   1       9.700  11.600   4.423 -0.16 -0.03    +0.473 P 
DOCKED: ATOM      9  O   UNL d   1      10.172  12.981   4.715 -0.11 -0.00    -0.228 OA
DOCKED: BRANCH   8  10
DOCKED: ATOM     10  O   UNL d   1      10.092  11.099   2.960 -0.21 +0.00    -0.303 OA
DOCKED: ATOM     11  H   UNL d   1      10.779  10.409   3.025 +0.11 -0.02    +0.222 HD
DOCKED: ENDBRANCH   8  10
DOCKED: BRANCH   8  12
DOCKED: ATOM     12  O   UNL d   1       8.126  11.388   4.437 -0.15 +0.04    -0.303 OA
DOCKED: ATOM     13  H   UNL d   1       7.686  11.816   5.206 -0.46 -0.06    +0.222 HD
DOCKED: ENDBRANCH   8  12
DOCKED: ENDBRANCH   7   8
DOCKED: ENDBRANCH   1   7
DOCKED: BRANCH   2  14
DOCKED: ATOM     14  O   UNL d   1       9.350   9.764   7.850 -0.02 +0.04    -0.278 OA
DOCKED: BRANCH  14  15
DOCKED: ATOM     15  P   UNL d   1       9.384  11.335   8.157 -0.01 -0.03    +0.473 P 
DOCKED: ATOM     16  O   UNL d   1       9.190  11.745   9.583 -0.00 +0.01    -0.228 OA
DOCKED: BRANCH  15  17
DOCKED: ATOM     17  O   UNL d   1      10.780  11.817   7.560 -0.01 +0.02    -0.303 OA
DOCKED: ATOM     18  H   UNL d   1      10.709  12.002   6.604 +0.04 -0.02    +0.222 HD
DOCKED: ENDBRANCH  15  17
DOCKED: BRANCH  15  19
DOCKED: ATOM     19  O   UNL d   1       8.358  11.965   7.117 -0.07 +0.01    -0.303 OA
DOCKED: ATOM     20  H   UNL d   1       8.808  12.282   6.313 +0.04 -0.01    +0.222 HD
DOCKED: ENDBRANCH  15  19
DOCKED: ENDBRANCH  14  15
DOCKED: ENDBRANCH   2  14
DOCKED: BRANCH   6  21
DOCKED: ATOM     21  O   UNL d   1      11.259   7.949   4.455 -0.14 +0.23    -0.278 OA
DOCKED: BRANCH  21  22
DOCKED: ATOM     22  P   UNL d   1      12.486   8.896   4.076 -0.12 -0.26    +0.473 P 
DOCKED: ATOM     23  O   UNL d   1      12.330   9.821   2.917 -0.21 +0.05    -0.228 OA
DOCKED: BRANCH  22  24
DOCKED: ATOM     24  O   UNL d   1      12.786   9.612   5.466 -0.03 +0.10    -0.303 OA
DOCKED: ATOM     25  H   UNL d   1      11.999  10.166   5.702 +0.05 -0.05    +0.222 HD
DOCKED: ENDBRANCH  22  24
DOCKED: BRANCH  22  26
DOCKED: ATOM     26  O   UNL d   1      13.691   7.843   3.979 -0.06 +0.32    -0.303 OA
DOCKED: ATOM     27  H   UNL d   1      13.403   6.988   4.359 -0.39 -0.50    +0.222 HD
DOCKED: ENDBRANCH  22  26
DOCKED: ENDBRANCH  21  22
DOCKED: ENDBRANCH   6  21
DOCKED: BRANCH   3  28
DOCKED: ATOM     28  O   UNL d   1       7.288   8.147   8.270 -0.05 +0.04    -0.278 OA
DOCKED: BRANCH  28  29
DOCKED: ATOM     29  P   UNL d   1       5.872   8.865   8.390 -0.08 +0.02    +0.473 P 
DOCKED: ATOM     30  O   UNL d   1       4.970   8.333   9.444 -0.17 -0.02    -0.228 OA
DOCKED: BRANCH  29  31
DOCKED: ATOM     31  O   UNL d   1       6.343  10.388   8.537 -0.37 -0.04    -0.303 OA
DOCKED: ATOM     32  H   UNL d   1       7.287  10.452   8.266 +0.05 +0.01    +0.222 HD
DOCKED: ENDBRANCH  29  31
DOCKED: BRANCH  29  33
DOCKED: ATOM     33  O   UNL d   1       5.340   8.805   6.890 -0.19 -0.05    -0.303 OA
DOCKED: ATOM     34  H   UNL d   1       5.340   7.865   6.587 +0.14 -0.01    +0.222 HD
DOCKED: ENDBRANCH  29  33
DOCKED: ENDBRANCH  28  29
DOCKED: ENDBRANCH   3  28
DOCKED: BRANCH   5  35
DOCKED: ATOM     35  O   UNL d   1      10.988   5.942   6.559 -0.15 +0.23    -0.278 OA
DOCKED: BRANCH  35  36
DOCKED: ATOM     36  P   UNL d   1      12.120   6.546   7.506 -0.04 -0.27    +0.473 P 
DOCKED: ATOM     37  O   UNL d   1      11.678   7.648   8.417 -0.01 +0.07    -0.228 OA
DOCKED: BRANCH  36  38
DOCKED: ATOM     38  O   UNL d   1      12.644   5.245   8.260 -0.03 +0.15    -0.303 OA
DOCKED: ATOM     39  H   UNL d   1      13.062   4.643   7.607 +0.04 -0.14    +0.222 HD
DOCKED: ENDBRANCH  36  38
DOCKED: BRANCH  36  40
DOCKED: ATOM     40  O   UNL d   1      13.281   6.885   6.474 -0.08 +0.24    -0.303 OA
DOCKED: ATOM     41  H   UNL d   1      12.985   7.523   5.789 +0.01 -0.20    +0.222 HD
DOCKED: ENDBRANCH  36  40
DOCKED: ENDBRANCH  35  36
DOCKED: ENDBRANCH   5  35
DOCKED: BRANCH   4  42
DOCKED: ATOM     42  O   UNL d   1       8.141   5.655   7.109 -0.13 +0.16    -0.278 OA
DOCKED: BRANCH  42  43
DOCKED: ATOM     43  P   UNL d   1       6.698   5.687   6.428 -0.22 -0.23    +0.473 P 
DOCKED: ATOM     44  O   UNL d   1       6.507   6.601   5.267 -0.41 +0.08    -0.228 OA
DOCKED: BRANCH  43  45
DOCKED: ATOM     45  O   UNL d   1       6.433   4.153   6.100 -0.34 +0.22    -0.303 OA
DOCKED: ATOM     46  H   UNL d   1       6.561   3.590   6.890 -0.25 -0.33    +0.222 HD
DOCKED: ENDBRANCH  43  45
DOCKED: BRANCH  43  47
DOCKED: ATOM     47  O   UNL d   1       5.713   5.930   7.669 -0.18 +0.15    -0.303 OA
DOCKED: ATOM     48  H   UNL d   1       5.592   6.893   7.802 +0.13 -0.06    +0.222 HD
DOCKED: ENDBRANCH  43  47
DOCKED: ENDBRANCH  42  43
DOCKED: ENDBRANCH   4  42
DOCKED: TORSDOF 24
DOCKED: TER
DOCKED: ENDMDL
________________________________________________________________________________


	BEGINNING GENETIC ALGORITHM DOCKING 57 of 100
Run: 57 Seed: 2022557517 1786525549 [ Run 57 of 100 GA/GALS ]
Beginning LAMARCKIAN GENETIC ALGORITHM (LGA), with a maximum of 25000000 energy evaluations.

Final-Value: -17.071


	FINAL GENETIC ALGORITHM DOCKED STATE
	_______________________________________________


Detailed state:  trans -19.751 9.201 0.492 quatxyzw 0.527490 -0.132707 -0.755101 0.366013 center 0.035 0.082 -0.065 ntor 24 -170.9172 -175.7438 -170.7358 -51.7526 145.8302 167.1145 -45.0688 121.3940 30.9336 71.4976 47.0291 117.7035 97.2486 -177.2686 38.1272 -180.0000 -63.5819 -176.9748 -4.6343 -36.2302 -9.0702 -30.6970 -171.1913 12.5713
State:	-19.751   9.201   0.492   0.567 -0.143 -0.811 137.060   -170.92 -175.74 -170.74  -51.75  145.83  167.11  -45.07  121.39   30.93   71.50   47.03  117.70   97.25 -177.27   38.13 -180.00  -63.58 -176.97   -4.63  -36.23   -9.07  -30.70 -171.19   12.57

DOCKED: MODEL       57
DOCKED: USER    Run = 57
DOCKED: USER    DPF = D:/Protein_go_brrr/autodock/final/AncMH_nat/IHP/dock.dpf
DOCKED: USER  
DOCKED: USER    Estimated Free Energy of Binding    =   +3.08 kcal/mol  [=(1)+(2)+(3)-(4)]
DOCKED: USER    
DOCKED: USER    (1) Final Intermolecular Energy     =   -4.08 kcal/mol
DOCKED: USER        vdW + Hbond + desolv Energy     =   -3.37 kcal/mol
DOCKED: USER        Electrostatic Energy            =   -0.71 kcal/mol
DOCKED: USER    (2) Final Total Internal Energy     =  -12.99 kcal/mol
DOCKED: USER    (3) Torsional Free Energy           =   +7.16 kcal/mol
DOCKED: USER    (4) Unbound System's Energy  [=(2)] =  -12.99 kcal/mol
DOCKED: USER    
DOCKED: USER    
DOCKED: USER    NEWDPF move IHP_ideal_opt.pdbqt
DOCKED: USER    NEWDPF about 0.035000 0.082000 -0.065000
DOCKED: USER    NEWDPF tran0 -19.751294 9.201050 0.492495
DOCKED: USER    NEWDPF quaternion0 0.527490 -0.132707 -0.755101 0.366013
DOCKED: USER    NEWDPF axisangle0 0.566822 -0.142602 -0.811405 137.060131
DOCKED: USER    NEWDPF quat0 0.566822 -0.142602 -0.811405 137.060131
DOCKED: USER    NEWDPF dihe0 -170.92 -175.74 -170.74 -51.75 145.83 167.11 -45.07 121.39 30.93 71.50 47.03 117.70 97.25 -177.27 38.13 -180.00 -63.58 -176.97 -4.63 -36.23 -9.07 -30.70 -171.19 12.57 
DOCKED: USER  keepresnum = 1 
DOCKED: USER  
DOCKED: REMARK  24 active torsions:
DOCKED: REMARK  status: ('A' for Active; 'I' for Inactive)
DOCKED: REMARK    1  A    between atoms: C_1  and  O_7 
DOCKED: REMARK    2  A    between atoms: C_2  and  O_12 
DOCKED: REMARK    3  A    between atoms: C_3  and  O_17 
DOCKED: REMARK    4  A    between atoms: C_4  and  O_22 
DOCKED: REMARK    5  A    between atoms: C_5  and  O_27 
DOCKED: REMARK    6  A    between atoms: C_6  and  O_32 
DOCKED: REMARK    7  A    between atoms: O_7  and  P_8 
DOCKED: REMARK    8  A    between atoms: P_8  and  O_10 
DOCKED: REMARK    9  A    between atoms: P_8  and  O_11 
DOCKED: REMARK   10  A    between atoms: O_12  and  P_13 
DOCKED: REMARK   11  A    between atoms: P_13  and  O_15 
DOCKED: REMARK   12  A    between atoms: P_13  and  O_16 
DOCKED: REMARK   13  A    between atoms: O_17  and  P_18 
DOCKED: REMARK   14  A    between atoms: P_18  and  O_20 
DOCKED: REMARK   15  A    between atoms: P_18  and  O_21 
DOCKED: REMARK   16  A    between atoms: O_22  and  P_23 
DOCKED: REMARK   17  A    between atoms: P_23  and  O_25 
DOCKED: REMARK   18  A    between atoms: P_23  and  O_26 
DOCKED: REMARK   19  A    between atoms: O_27  and  P_28 
DOCKED: REMARK   20  A    between atoms: P_28  and  O_30 
DOCKED: REMARK   21  A    between atoms: P_28  and  O_31 
DOCKED: REMARK   22  A    between atoms: O_32  and  P_33 
DOCKED: REMARK   23  A    between atoms: P_33  and  O_35 
DOCKED: REMARK   24  A    between atoms: P_33  and  O_36 
DOCKED: USER                              x       y       z     vdW  Elec       q    Type
DOCKED: USER                           _______ _______ _______ _____ _____    ______ ____
DOCKED: ROOT
DOCKED: ATOM      1  C   UNL d   1     -19.909  10.801  -0.140 -0.01 +0.00    +0.194 C 
DOCKED: ATOM      2  C   UNL d   1     -18.875  10.630   0.975 -0.04 -0.01    +0.194 C 
DOCKED: ATOM      3  C   UNL d   1     -19.404   9.749   2.108 -0.04 +0.02    +0.194 C 
DOCKED: ATOM      4  C   UNL d   1     -19.956   8.411   1.622 -0.03 +0.05    +0.194 C 
DOCKED: ATOM      5  C   UNL d   1     -20.905   8.525   0.436 -0.00 +0.04    +0.194 C 
DOCKED: ATOM      6  C   UNL d   1     -20.403   9.455  -0.671 -0.00 +0.02    +0.194 C 
DOCKED: ENDROOT
DOCKED: BRANCH   1   7
DOCKED: ATOM      7  O   UNL d   1     -19.284  11.485  -1.228 -0.01 +0.01    -0.278 OA
DOCKED: BRANCH   7   8
DOCKED: ATOM      8  P   UNL d   1     -19.988  12.797  -1.805 +0.01 -0.02    +0.473 P 
DOCKED: ATOM      9  O   UNL d   1     -19.059  13.822  -2.355 -0.00 +0.02    -0.228 OA
DOCKED: BRANCH   8  10
DOCKED: ATOM     10  O   UNL d   1     -21.018  12.238  -2.888 +0.00 -0.00    -0.303 OA
DOCKED: ATOM     11  H   UNL d   1     -21.335  11.358  -2.614 +0.00 +0.01    +0.222 HD
DOCKED: ENDBRANCH   8  10
DOCKED: BRANCH   8  12
DOCKED: ATOM     12  O   UNL d   1     -20.957  13.289  -0.647 +0.00 +0.01    -0.303 OA
DOCKED: ATOM     13  H   UNL d   1     -20.956  14.267  -0.532 +0.00 -0.01    +0.222 HD
DOCKED: ENDBRANCH   8  12
DOCKED: ENDBRANCH   7   8
DOCKED: ENDBRANCH   1   7
DOCKED: BRANCH   2  14
DOCKED: ATOM     14  O   UNL d   1     -17.700  10.017   0.430 -0.06 +0.01    -0.278 OA
DOCKED: BRANCH  14  15
DOCKED: ATOM     15  P   UNL d   1     -16.521  11.003  -0.019 -0.15 -0.18    +0.473 P 
DOCKED: ATOM     16  O   UNL d   1     -16.089  10.926  -1.450 -0.14 +0.03    -0.228 OA
DOCKED: BRANCH  15  17
DOCKED: ATOM     17  O   UNL d   1     -17.048  12.449   0.390 -0.05 +0.28    -0.303 OA
DOCKED: ATOM     18  H   UNL d   1     -16.731  12.701   1.279 -0.42 -0.43    +0.222 HD
DOCKED: ENDBRANCH  15  17
DOCKED: BRANCH  15  19
DOCKED: ATOM     19  O   UNL d   1     -15.374  10.765   1.057 -0.33 +0.19    -0.303 OA
DOCKED: ATOM     20  H   UNL d   1     -15.249  11.545   1.629 -0.46 -0.32    +0.222 HD
DOCKED: ENDBRANCH  15  19
DOCKED: ENDBRANCH  14  15
DOCKED: ENDBRANCH   2  14
DOCKED: BRANCH   6  21
DOCKED: ATOM     21  O   UNL d   1     -21.517   9.723  -1.520 +0.00 -0.02    -0.278 OA
DOCKED: BRANCH  21  22
DOCKED: ATOM     22  P   UNL d   1     -21.539   9.142  -3.005 +0.00 +0.04    +0.473 P 
DOCKED: ATOM     23  O   UNL d   1     -21.667   7.666  -3.182 +0.00 -0.03    -0.228 OA
DOCKED: BRANCH  22  24
DOCKED: ATOM     24  O   UNL d   1     -22.703   9.998  -3.673 +0.00 -0.02    -0.303 OA
DOCKED: ATOM     25  H   UNL d   1     -22.333  10.884  -3.916 +0.00 +0.01    +0.222 HD
DOCKED: ENDBRANCH  22  24
DOCKED: BRANCH  22  26
DOCKED: ATOM     26  O   UNL d   1     -20.229   9.814  -3.638 -0.00 -0.02    -0.303 OA
DOCKED: ATOM     27  H   UNL d   1     -19.858  10.459  -3.001 +0.01 +0.01    +0.222 HD
DOCKED: ENDBRANCH  22  26
DOCKED: ENDBRANCH  21  22
DOCKED: ENDBRANCH   6  21
DOCKED: BRANCH   3  28
DOCKED: ATOM     28  O   UNL d   1     -18.303   9.421   2.945 -0.09 -0.04    -0.278 OA
DOCKED: BRANCH  28  29
DOCKED: ATOM     29  P   UNL d   1     -17.772  10.466   4.023 -0.19 +0.01    +0.473 P 
DOCKED: ATOM     30  O   UNL d   1     -17.081   9.879   5.200 -0.48 -0.03    -0.228 OA
DOCKED: BRANCH  29  31
DOCKED: ATOM     31  O   UNL d   1     -16.909  11.427   3.079 -0.21 +0.13    -0.303 OA
DOCKED: ATOM     32  H   UNL d   1     -17.051  11.157   2.142 +0.06 -0.10    +0.222 HD
DOCKED: ENDBRANCH  29  31
DOCKED: BRANCH  29  33
DOCKED: ATOM     33  O   UNL d   1     -19.074  11.336   4.314 -0.06 -0.00    -0.303 OA
DOCKED: ATOM     34  H   UNL d   1     -18.853  12.034   4.977 +0.06 -0.00    +0.222 HD
DOCKED: ENDBRANCH  29  33
DOCKED: ENDBRANCH  28  29
DOCKED: ENDBRANCH   3  28
DOCKED: BRANCH   5  35
DOCKED: ATOM     35  O   UNL d   1     -20.986   7.215  -0.122 -0.00 -0.09    -0.278 OA
DOCKED: BRANCH  35  36
DOCKED: ATOM     36  P   UNL d   1     -19.679   6.309  -0.242 -0.00 +0.23    +0.473 P 
DOCKED: ATOM     37  O   UNL d   1     -18.378   7.042  -0.174 -0.05 -0.10    -0.228 OA
DOCKED: BRANCH  36  38
DOCKED: ATOM     38  O   UNL d   1     -19.901   5.258   0.934 -0.06 -0.28    -0.303 OA
DOCKED: ATOM     39  H   UNL d   1     -20.288   5.720   1.708 +0.04 +0.21    +0.222 HD
DOCKED: ENDBRANCH  36  38
DOCKED: BRANCH  36  40
DOCKED: ATOM     40  O   UNL d   1     -19.967   5.471  -1.563 +0.00 -0.13    -0.303 OA
DOCKED: ATOM     41  H   UNL d   1     -20.527   5.971  -2.197 +0.01 +0.06    +0.222 HD
DOCKED: ENDBRANCH  36  40
DOCKED: ENDBRANCH  35  36
DOCKED: ENDBRANCH   5  35
DOCKED: BRANCH   4  42
DOCKED: ATOM     42  O   UNL d   1     -20.705   7.852   2.707 -0.03 -0.11    -0.278 OA
DOCKED: BRANCH  42  43
DOCKED: ATOM     43  P   UNL d   1     -20.016   6.751   3.633 -0.07 +0.35    +0.473 P 
DOCKED: ATOM     44  O   UNL d   1     -20.785   5.504   3.906 -0.40 -0.36    -0.228 OA
DOCKED: BRANCH  43  45
DOCKED: ATOM     45  O   UNL d   1     -18.620   6.509   2.908 -0.19 -0.24    -0.303 OA
DOCKED: ATOM     46  H   UNL d   1     -18.672   6.716   1.954 +0.07 +0.15    +0.222 HD
DOCKED: ENDBRANCH  43  45
DOCKED: BRANCH  43  47
DOCKED: ATOM     47  O   UNL d   1     -19.570   7.586   4.927 -0.16 -0.15    -0.303 OA
DOCKED: ATOM     48  H   UNL d   1     -18.908   8.258   4.664 +0.10 +0.08    +0.222 HD
DOCKED: ENDBRANCH  43  47
DOCKED: ENDBRANCH  42  43
DOCKED: ENDBRANCH   4  42
DOCKED: TORSDOF 24
DOCKED: TER
DOCKED: ENDMDL
________________________________________________________________________________


	BEGINNING GENETIC ALGORITHM DOCKING 58 of 100
Run: 58 Seed: 1093360861 1775792930 [ Run 58 of 100 GA/GALS ]
Beginning LAMARCKIAN GENETIC ALGORITHM (LGA), with a maximum of 25000000 energy evaluations.

Final-Value: -18.090


	FINAL GENETIC ALGORITHM DOCKED STATE
	_______________________________________________


Detailed state:  trans 5.154 -11.703 14.410 quatxyzw 0.097506 0.160968 0.808530 -0.557549 center 0.035 0.082 -0.065 ntor 24 -107.9310 31.5224 25.2275 112.1390 64.7287 -164.1871 -126.8427 -114.9482 5.2580 90.5150 152.5922 115.8845 -179.9120 -82.7133 7.2810 66.4976 -26.7047 -175.4898 67.1058 8.5726 130.9647 -9.3919 -43.0375 14.5426
State:	  5.154 -11.703  14.410   0.117  0.194  0.974 -112.227   -107.93   31.52   25.23  112.14   64.73 -164.19 -126.84 -114.95    5.26   90.52  152.59  115.88 -179.91  -82.71    7.28   66.50  -26.70 -175.49   67.11    8.57  130.96   -9.39  -43.04   14.54

DOCKED: MODEL       58
DOCKED: USER    Run = 58
DOCKED: USER    DPF = D:/Protein_go_brrr/autodock/final/AncMH_nat/IHP/dock.dpf
DOCKED: USER  
DOCKED: USER    Estimated Free Energy of Binding    =   +2.01 kcal/mol  [=(1)+(2)+(3)-(4)]
DOCKED: USER    
DOCKED: USER    (1) Final Intermolecular Energy     =   -5.15 kcal/mol
DOCKED: USER        vdW + Hbond + desolv Energy     =   -4.58 kcal/mol
DOCKED: USER        Electrostatic Energy            =   -0.56 kcal/mol
DOCKED: USER    (2) Final Total Internal Energy     =  -12.94 kcal/mol
DOCKED: USER    (3) Torsional Free Energy           =   +7.16 kcal/mol
DOCKED: USER    (4) Unbound System's Energy  [=(2)] =  -12.94 kcal/mol
DOCKED: USER    
DOCKED: USER    
DOCKED: USER    NEWDPF move IHP_ideal_opt.pdbqt
DOCKED: USER    NEWDPF about 0.035000 0.082000 -0.065000
DOCKED: USER    NEWDPF tran0 5.153953 -11.703021 14.409606
DOCKED: USER    NEWDPF quaternion0 0.097506 0.160968 0.808530 -0.557549
DOCKED: USER    NEWDPF axisangle0 0.117457 0.193904 0.973964 -112.227125
DOCKED: USER    NEWDPF quat0 0.117457 0.193904 0.973964 -112.227125
DOCKED: USER    NEWDPF dihe0 -107.93 31.52 25.23 112.14 64.73 -164.19 -126.84 -114.95 5.26 90.52 152.59 115.88 -179.91 -82.71 7.28 66.50 -26.70 -175.49 67.11 8.57 130.96 -9.39 -43.04 14.54 
DOCKED: USER  keepresnum = 1 
DOCKED: USER  
DOCKED: REMARK  24 active torsions:
DOCKED: REMARK  status: ('A' for Active; 'I' for Inactive)
DOCKED: REMARK    1  A    between atoms: C_1  and  O_7 
DOCKED: REMARK    2  A    between atoms: C_2  and  O_12 
DOCKED: REMARK    3  A    between atoms: C_3  and  O_17 
DOCKED: REMARK    4  A    between atoms: C_4  and  O_22 
DOCKED: REMARK    5  A    between atoms: C_5  and  O_27 
DOCKED: REMARK    6  A    between atoms: C_6  and  O_32 
DOCKED: REMARK    7  A    between atoms: O_7  and  P_8 
DOCKED: REMARK    8  A    between atoms: P_8  and  O_10 
DOCKED: REMARK    9  A    between atoms: P_8  and  O_11 
DOCKED: REMARK   10  A    between atoms: O_12  and  P_13 
DOCKED: REMARK   11  A    between atoms: P_13  and  O_15 
DOCKED: REMARK   12  A    between atoms: P_13  and  O_16 
DOCKED: REMARK   13  A    between atoms: O_17  and  P_18 
DOCKED: REMARK   14  A    between atoms: P_18  and  O_20 
DOCKED: REMARK   15  A    between atoms: P_18  and  O_21 
DOCKED: REMARK   16  A    between atoms: O_22  and  P_23 
DOCKED: REMARK   17  A    between atoms: P_23  and  O_25 
DOCKED: REMARK   18  A    between atoms: P_23  and  O_26 
DOCKED: REMARK   19  A    between atoms: O_27  and  P_28 
DOCKED: REMARK   20  A    between atoms: P_28  and  O_30 
DOCKED: REMARK   21  A    between atoms: P_28  and  O_31 
DOCKED: REMARK   22  A    between atoms: O_32  and  P_33 
DOCKED: REMARK   23  A    between atoms: P_33  and  O_35 
DOCKED: REMARK   24  A    between atoms: P_33  and  O_36 
DOCKED: USER                              x       y       z     vdW  Elec       q    Type
DOCKED: USER                           _______ _______ _______ _____ _____    ______ ____
DOCKED: ROOT
DOCKED: ATOM      1  C   UNL d   1       5.743 -10.124  14.790 -0.13 -0.07    +0.194 C 
DOCKED: ATOM      2  C   UNL d   1       6.767 -11.082  14.177 -0.07 -0.06    +0.194 C 
DOCKED: ATOM      3  C   UNL d   1       6.665 -12.483  14.783 -0.02 -0.04    +0.194 C 
DOCKED: ATOM      4  C   UNL d   1       5.248 -13.052  14.747 -0.05 -0.04    +0.194 C 
DOCKED: ATOM      5  C   UNL d   1       4.179 -12.087  15.242 -0.14 -0.05    +0.194 C 
DOCKED: ATOM      6  C   UNL d   1       4.318 -10.669  14.684 -0.21 -0.06    +0.194 C 
DOCKED: ENDROOT
DOCKED: BRANCH   1   7
DOCKED: ATOM      7  O   UNL d   1       5.786  -8.898  14.056 -0.06 +0.15    -0.278 OA
DOCKED: BRANCH   7   8
DOCKED: ATOM      8  P   UNL d   1       7.187  -8.144  13.919 -0.06 -0.26    +0.473 P 
DOCKED: ATOM      9  O   UNL d   1       7.171  -6.706  14.305 -0.09 +0.11    -0.228 OA
DOCKED: BRANCH   8  10
DOCKED: ATOM     10  O   UNL d   1       8.186  -9.020  14.802 -0.02 +0.10    -0.303 OA
DOCKED: ATOM     11  H   UNL d   1       8.643  -9.667  14.233 +0.02 -0.07    +0.222 HD
DOCKED: ENDBRANCH   8  10
DOCKED: BRANCH   8  12
DOCKED: ATOM     12  O   UNL d   1       7.683  -8.460  12.443 -0.12 +0.26    -0.303 OA
DOCKED: ATOM     13  H   UNL d   1       7.180  -9.188  12.015 -0.13 -0.28    +0.222 HD
DOCKED: ENDBRANCH   8  12
DOCKED: ENDBRANCH   7   8
DOCKED: ENDBRANCH   1   7
DOCKED: BRANCH   2  14
DOCKED: ATOM     14  O   UNL d   1       6.533 -11.176  12.767 -0.10 +0.13    -0.278 OA
DOCKED: BRANCH  14  15
DOCKED: ATOM     15  P   UNL d   1       7.829 -11.224  11.827 -0.05 -0.19    +0.473 P 
DOCKED: ATOM     16  O   UNL d   1       9.065 -10.564  12.354 -0.03 +0.07    -0.228 OA
DOCKED: BRANCH  15  17
DOCKED: ATOM     17  O   UNL d   1       8.036 -12.775  11.531 -0.01 +0.07    -0.303 OA
DOCKED: ATOM     18  H   UNL d   1       8.339 -13.248  12.330 +0.02 -0.04    +0.222 HD
DOCKED: ENDBRANCH  15  17
DOCKED: BRANCH  15  19
DOCKED: ATOM     19  O   UNL d   1       7.316 -10.695  10.417 -0.49 +0.18    -0.303 OA
DOCKED: ATOM     20  H   UNL d   1       6.857  -9.839  10.498 -0.47 -0.46    +0.222 HD
DOCKED: ENDBRANCH  15  19
DOCKED: ENDBRANCH  14  15
DOCKED: ENDBRANCH   2  14
DOCKED: BRANCH   6  21
DOCKED: ATOM     21  O   UNL d   1       3.489  -9.828  15.483 -0.18 +0.11    -0.278 OA
DOCKED: BRANCH  21  22
DOCKED: ATOM     22  P   UNL d   1       3.208 -10.210  17.006 -0.13 -0.17    +0.473 P 
DOCKED: ATOM     23  O   UNL d   1       4.320 -10.810  17.799 -0.04 +0.05    -0.228 OA
DOCKED: BRANCH  22  24
DOCKED: ATOM     24  O   UNL d   1       2.638  -8.841  17.585 -0.16 +0.15    -0.303 OA
DOCKED: ATOM     25  H   UNL d   1       2.648  -8.170  16.856 -0.41 -0.19    +0.222 HD
DOCKED: ENDBRANCH  22  24
DOCKED: BRANCH  22  26
DOCKED: ATOM     26  O   UNL d   1       1.877 -11.095  16.880 -0.14 +0.14    -0.303 OA
DOCKED: ATOM     27  H   UNL d   1       1.808 -11.443  15.967 -0.38 -0.14    +0.222 HD
DOCKED: ENDBRANCH  22  26
DOCKED: ENDBRANCH  21  22
DOCKED: ENDBRANCH   6  21
DOCKED: BRANCH   3  28
DOCKED: ATOM     28  O   UNL d   1       7.443 -13.357  13.975 -0.00 +0.05    -0.278 OA
DOCKED: BRANCH  28  29
DOCKED: ATOM     29  P   UNL d   1       8.898 -13.804  14.444 +0.01 -0.07    +0.473 P 
DOCKED: ATOM     30  O   UNL d   1       9.038 -14.113  15.890 +0.00 +0.03    -0.228 OA
DOCKED: BRANCH  29  31
DOCKED: ATOM     31  O   UNL d   1       9.166 -15.001  13.416 +0.00 +0.04    -0.303 OA
DOCKED: ATOM     32  H   UNL d   1       8.638 -15.783  13.700 +0.00 -0.02    +0.222 HD
DOCKED: ENDBRANCH  29  31
DOCKED: BRANCH  29  33
DOCKED: ATOM     33  O   UNL d   1       9.809 -12.634  13.866 +0.00 +0.05    -0.303 OA
DOCKED: ATOM     34  H   UNL d   1       9.658 -12.560  12.891 +0.01 -0.04    +0.222 HD
DOCKED: ENDBRANCH  29  33
DOCKED: ENDBRANCH  28  29
DOCKED: ENDBRANCH   3  28
DOCKED: BRANCH   5  35
DOCKED: ATOM     35  O   UNL d   1       2.939 -12.606  14.767 -0.15 +0.07    -0.278 OA
DOCKED: BRANCH  35  36
DOCKED: ATOM     36  P   UNL d   1       2.134 -13.682  15.626 -0.07 -0.09    +0.473 P 
DOCKED: ATOM     37  O   UNL d   1       2.525 -13.781  17.066 -0.04 +0.04    -0.228 OA
DOCKED: BRANCH  36  38
DOCKED: ATOM     38  O   UNL d   1       0.626 -13.229  15.387 -0.16 +0.09    -0.303 OA
DOCKED: ATOM     39  H   UNL d   1       0.492 -12.340  15.780 -0.49 -0.12    +0.222 HD
DOCKED: ENDBRANCH  36  38
DOCKED: BRANCH  36  40
DOCKED: ATOM     40  O   UNL d   1       2.283 -14.999  14.746 -0.06 +0.03    -0.303 OA
DOCKED: ATOM     41  H   UNL d   1       3.216 -15.155  14.479 +0.03 -0.02    +0.222 HD
DOCKED: ENDBRANCH  36  40
DOCKED: ENDBRANCH  35  36
DOCKED: ENDBRANCH   5  35
DOCKED: BRANCH   4  42
DOCKED: ATOM     42  O   UNL d   1       5.233 -14.183  15.625 -0.01 +0.04    -0.278 OA
DOCKED: BRANCH  42  43
DOCKED: ATOM     43  P   UNL d   1       5.429 -15.641  15.008 -0.00 -0.05    +0.473 P 
DOCKED: ATOM     44  O   UNL d   1       4.441 -16.687  15.391 -0.01 +0.02    -0.228 OA
DOCKED: BRANCH  43  45
DOCKED: ATOM     45  O   UNL d   1       5.497 -15.352  13.444 -0.01 +0.03    -0.303 OA
DOCKED: ATOM     46  H   UNL d   1       6.382 -15.030  13.178 +0.01 -0.03    +0.222 HD
DOCKED: ENDBRANCH  43  45
DOCKED: BRANCH  43  47
DOCKED: ATOM     47  O   UNL d   1       6.959 -15.979  15.343 -0.00 +0.03    -0.303 OA
DOCKED: ATOM     48  H   UNL d   1       7.541 -15.360  14.855 +0.00 -0.03    +0.222 HD
DOCKED: ENDBRANCH  43  47
DOCKED: ENDBRANCH  42  43
DOCKED: ENDBRANCH   4  42
DOCKED: TORSDOF 24
DOCKED: TER
DOCKED: ENDMDL
________________________________________________________________________________


	BEGINNING GENETIC ALGORITHM DOCKING 59 of 100
Run: 59 Seed: 65181355 1614620422 [ Run 59 of 100 GA/GALS ]
Beginning LAMARCKIAN GENETIC ALGORITHM (LGA), with a maximum of 25000000 energy evaluations.

Final-Value: -16.053


	FINAL GENETIC ALGORITHM DOCKED STATE
	_______________________________________________


Detailed state:  trans 17.642 4.262 6.154 quatxyzw -0.129863 0.557966 0.365177 0.733795 center 0.035 0.082 -0.065 ntor 24 176.0927 -110.4672 26.3362 35.4387 10.0065 180.0000 -150.2038 117.3237 104.1512 -45.9194 21.3913 -86.2783 90.7085 153.2762 167.7925 -1.9843 -124.0704 -12.9467 2.8134 -28.3388 -23.4525 -32.9625 -3.9614 157.3822
State:	 17.642   4.262   6.154  -0.191  0.821  0.538 85.589    176.09 -110.47   26.34   35.44   10.01  180.00 -150.20  117.32  104.15  -45.92   21.39  -86.28   90.71  153.28  167.79   -1.98 -124.07  -12.95    2.81  -28.34  -23.45  -32.96   -3.96  157.38

DOCKED: MODEL       59
DOCKED: USER    Run = 59
DOCKED: USER    DPF = D:/Protein_go_brrr/autodock/final/AncMH_nat/IHP/dock.dpf
DOCKED: USER  
DOCKED: USER    Estimated Free Energy of Binding    =   +3.72 kcal/mol  [=(1)+(2)+(3)-(4)]
DOCKED: USER    
DOCKED: USER    (1) Final Intermolecular Energy     =   -3.44 kcal/mol
DOCKED: USER        vdW + Hbond + desolv Energy     =   -2.91 kcal/mol
DOCKED: USER        Electrostatic Energy            =   -0.52 kcal/mol
DOCKED: USER    (2) Final Total Internal Energy     =  -12.62 kcal/mol
DOCKED: USER    (3) Torsional Free Energy           =   +7.16 kcal/mol
DOCKED: USER    (4) Unbound System's Energy  [=(2)] =  -12.62 kcal/mol
DOCKED: USER    
DOCKED: USER    
DOCKED: USER    NEWDPF move IHP_ideal_opt.pdbqt
DOCKED: USER    NEWDPF about 0.035000 0.082000 -0.065000
DOCKED: USER    NEWDPF tran0 17.642365 4.262157 6.153956
DOCKED: USER    NEWDPF quaternion0 -0.129863 0.557966 0.365177 0.733795
DOCKED: USER    NEWDPF axisangle0 -0.191152 0.821298 0.537523 85.588997
DOCKED: USER    NEWDPF quat0 -0.191152 0.821298 0.537523 85.588997
DOCKED: USER    NEWDPF dihe0 176.09 -110.47 26.34 35.44 10.01 180.00 -150.20 117.32 104.15 -45.92 21.39 -86.28 90.71 153.28 167.79 -1.98 -124.07 -12.95 2.81 -28.34 -23.45 -32.96 -3.96 157.38 
DOCKED: USER  keepresnum = 1 
DOCKED: USER  
DOCKED: REMARK  24 active torsions:
DOCKED: REMARK  status: ('A' for Active; 'I' for Inactive)
DOCKED: REMARK    1  A    between atoms: C_1  and  O_7 
DOCKED: REMARK    2  A    between atoms: C_2  and  O_12 
DOCKED: REMARK    3  A    between atoms: C_3  and  O_17 
DOCKED: REMARK    4  A    between atoms: C_4  and  O_22 
DOCKED: REMARK    5  A    between atoms: C_5  and  O_27 
DOCKED: REMARK    6  A    between atoms: C_6  and  O_32 
DOCKED: REMARK    7  A    between atoms: O_7  and  P_8 
DOCKED: REMARK    8  A    between atoms: P_8  and  O_10 
DOCKED: REMARK    9  A    between atoms: P_8  and  O_11 
DOCKED: REMARK   10  A    between atoms: O_12  and  P_13 
DOCKED: REMARK   11  A    between atoms: P_13  and  O_15 
DOCKED: REMARK   12  A    between atoms: P_13  and  O_16 
DOCKED: REMARK   13  A    between atoms: O_17  and  P_18 
DOCKED: REMARK   14  A    between atoms: P_18  and  O_20 
DOCKED: REMARK   15  A    between atoms: P_18  and  O_21 
DOCKED: REMARK   16  A    between atoms: O_22  and  P_23 
DOCKED: REMARK   17  A    between atoms: P_23  and  O_25 
DOCKED: REMARK   18  A    between atoms: P_23  and  O_26 
DOCKED: REMARK   19  A    between atoms: O_27  and  P_28 
DOCKED: REMARK   20  A    between atoms: P_28  and  O_30 
DOCKED: REMARK   21  A    between atoms: P_28  and  O_31 
DOCKED: REMARK   22  A    between atoms: O_32  and  P_33 
DOCKED: REMARK   23  A    between atoms: P_33  and  O_35 
DOCKED: REMARK   24  A    between atoms: P_33  and  O_36 
DOCKED: USER                              x       y       z     vdW  Elec       q    Type
DOCKED: USER                           _______ _______ _______ _____ _____    ______ ____
DOCKED: ROOT
DOCKED: ATOM      1  C   UNL d   1      16.711   2.959   6.802 -0.01 -0.04    +0.194 C 
DOCKED: ATOM      2  C   UNL d   1      16.596   3.167   5.291 -0.07 -0.05    +0.194 C 
DOCKED: ATOM      3  C   UNL d   1      16.466   4.648   4.930 -0.07 -0.08    +0.194 C 
DOCKED: ATOM      4  C   UNL d   1      17.559   5.516   5.550 -0.00 -0.05    +0.194 C 
DOCKED: ATOM      5  C   UNL d   1      17.787   5.260   7.034 +0.01 -0.04    +0.194 C 
DOCKED: ATOM      6  C   UNL d   1      17.855   3.777   7.404 +0.01 -0.03    +0.194 C 
DOCKED: ENDROOT
DOCKED: BRANCH   1   7
DOCKED: ATOM      7  O   UNL d   1      17.000   1.580   7.042 -0.01 +0.03    -0.278 OA
DOCKED: BRANCH   7   8
DOCKED: ATOM      8  P   UNL d   1      15.968   0.729   7.914 -0.00 -0.02    +0.473 P 
DOCKED: ATOM      9  O   UNL d   1      15.769  -0.676   7.463 -0.03 -0.01    -0.228 OA
DOCKED: BRANCH   8  10
DOCKED: ATOM     10  O   UNL d   1      16.536   0.836   9.401 +0.01 +0.03    -0.303 OA
DOCKED: ATOM     11  H   UNL d   1      17.154   1.589   9.461 +0.01 -0.02    +0.222 HD
DOCKED: ENDBRANCH   8  10
DOCKED: BRANCH   8  12
DOCKED: ATOM     12  O   UNL d   1      14.658   1.624   7.994 -0.04 +0.02    -0.303 OA
DOCKED: ATOM     13  H   UNL d   1      14.100   1.423   8.779 +0.02 -0.02    +0.222 HD
DOCKED: ENDBRANCH   8  12
DOCKED: ENDBRANCH   7   8
DOCKED: ENDBRANCH   1   7
DOCKED: BRANCH   2  14
DOCKED: ATOM     14  O   UNL d   1      17.770   2.644   4.657 -0.02 +0.04    -0.278 OA
DOCKED: BRANCH  14  15
DOCKED: ATOM     15  P   UNL d   1      17.617   1.228   3.924 -0.04 -0.03    +0.473 P 
DOCKED: ATOM     16  O   UNL d   1      18.844   0.373   3.851 -0.03 +0.02    -0.228 OA
DOCKED: BRANCH  15  17
DOCKED: ATOM     17  O   UNL d   1      16.416   0.520   4.695 -0.11 -0.04    -0.303 OA
DOCKED: ATOM     18  H   UNL d   1      16.678   0.276   5.604 +0.03 +0.01    +0.222 HD
DOCKED: ENDBRANCH  15  17
DOCKED: BRANCH  15  19
DOCKED: ATOM     19  O   UNL d   1      16.939   1.575   2.528 -0.15 +0.01    -0.303 OA
DOCKED: ATOM     20  H   UNL d   1      16.439   2.411   2.568 +0.09 -0.03    +0.222 HD
DOCKED: ENDBRANCH  15  19
DOCKED: ENDBRANCH  14  15
DOCKED: ENDBRANCH   2  14
DOCKED: BRANCH   6  21
DOCKED: ATOM     21  O   UNL d   1      17.724   3.699   8.821 +0.00 +0.04    -0.278 OA
DOCKED: BRANCH  21  22
DOCKED: ATOM     22  P   UNL d   1      18.826   2.926   9.677 +0.00 -0.05    +0.473 P 
DOCKED: ATOM     23  O   UNL d   1      18.476   2.508  11.066 +0.00 +0.02    -0.228 OA
DOCKED: BRANCH  22  24
DOCKED: ATOM     24  O   UNL d   1      19.219   1.733   8.700 +0.00 +0.03    -0.303 OA
DOCKED: ATOM     25  H   UNL d   1      18.393   1.235   8.474 +0.01 -0.02    +0.222 HD
DOCKED: ENDBRANCH  22  24
DOCKED: BRANCH  22  26
DOCKED: ATOM     26  O   UNL d   1      20.091   3.901   9.535 +0.00 +0.03    -0.303 OA
DOCKED: ATOM     27  H   UNL d   1      19.819   4.714   9.063 +0.00 -0.03    +0.222 HD
DOCKED: ENDBRANCH  22  26
DOCKED: ENDBRANCH  21  22
DOCKED: ENDBRANCH   6  21
DOCKED: BRANCH   3  28
DOCKED: ATOM     28  O   UNL d   1      16.644   4.764   3.524 -0.07 +0.12    -0.278 OA
DOCKED: BRANCH  28  29
DOCKED: ATOM     29  P   UNL d   1      15.462   4.379   2.529 -0.25 -0.32    +0.473 P 
DOCKED: ATOM     30  O   UNL d   1      14.511   3.354   3.030 -0.21 +0.19    -0.228 OA
DOCKED: BRANCH  29  31
DOCKED: ATOM     31  O   UNL d   1      14.869   5.834   2.225 -0.22 +0.29    -0.303 OA
DOCKED: ATOM     32  H   UNL d   1      14.081   5.978   2.799 -0.37 -0.48    +0.222 HD
DOCKED: ENDBRANCH  29  31
DOCKED: BRANCH  29  33
DOCKED: ATOM     33  O   UNL d   1      16.252   4.035   1.190 -0.30 +0.13    -0.303 OA
DOCKED: ATOM     34  H   UNL d   1      15.607   3.723   0.508 -0.47 -0.13    +0.222 HD
DOCKED: ENDBRANCH  29  33
DOCKED: ENDBRANCH  28  29
DOCKED: ENDBRANCH   3  28
DOCKED: BRANCH   5  35
DOCKED: ATOM     35  O   UNL d   1      19.061   5.826   7.333 +0.00 +0.04    -0.278 OA
DOCKED: BRANCH  35  36
DOCKED: ATOM     36  P   UNL d   1      19.217   6.874   8.526 +0.00 -0.06    +0.473 P 
DOCKED: ATOM     37  O   UNL d   1      18.799   8.275   8.211 +0.00 +0.03    -0.228 OA
DOCKED: BRANCH  36  38
DOCKED: ATOM     38  O   UNL d   1      18.367   6.181   9.681 +0.00 +0.04    -0.303 OA
DOCKED: ATOM     39  H   UNL d   1      18.460   5.207   9.607 +0.00 -0.03    +0.222 HD
DOCKED: ENDBRANCH  36  38
DOCKED: BRANCH  36  40
DOCKED: ATOM     40  O   UNL d   1      20.726   6.655   8.976 +0.00 +0.03    -0.303 OA
DOCKED: ATOM     41  H   UNL d   1      20.806   5.940   9.647 +0.00 -0.02    +0.222 HD
DOCKED: ENDBRANCH  36  40
DOCKED: ENDBRANCH  35  36
DOCKED: ENDBRANCH   5  35
DOCKED: BRANCH   4  42
DOCKED: ATOM     42  O   UNL d   1      17.132   6.876   5.418 -0.01 +0.08    -0.278 OA
DOCKED: BRANCH  42  43
DOCKED: ATOM     43  P   UNL d   1      15.632   7.256   5.806 -0.01 -0.21    +0.473 P 
DOCKED: ATOM     44  O   UNL d   1      14.994   6.489   6.912 -0.03 +0.10    -0.228 OA
DOCKED: BRANCH  43  45
DOCKED: ATOM     45  O   UNL d   1      15.726   8.822   6.069 -0.00 +0.08    -0.303 OA
DOCKED: ATOM     46  H   UNL d   1      16.444   9.038   6.696 +0.01 -0.04    +0.222 HD
DOCKED: ENDBRANCH  43  45
DOCKED: BRANCH  43  47
DOCKED: ATOM     47  O   UNL d   1      14.867   7.207   4.398 -0.08 +0.26    -0.303 OA
DOCKED: ATOM     48  H   UNL d   1      14.484   6.314   4.270 -0.47 -0.35    +0.222 HD
DOCKED: ENDBRANCH  43  47
DOCKED: ENDBRANCH  42  43
DOCKED: ENDBRANCH   4  42
DOCKED: TORSDOF 24
DOCKED: TER
DOCKED: ENDMDL
________________________________________________________________________________


	BEGINNING GENETIC ALGORITHM DOCKING 60 of 100
Run: 60 Seed: 1228925848 432505495 [ Run 60 of 100 GA/GALS ]
Beginning LAMARCKIAN GENETIC ALGORITHM (LGA), with a maximum of 25000000 energy evaluations.

Final-Value: -16.276


	FINAL GENETIC ALGORITHM DOCKED STATE
	_______________________________________________


Detailed state:  trans -0.497 -5.531 -16.331 quatxyzw -0.092325 0.066428 0.197449 -0.973693 center 0.035 0.082 -0.065 ntor 24 179.7800 -173.2565 178.4216 -19.6505 -13.0625 -167.9854 -23.3025 -81.7532 6.9870 -137.1332 5.4626 178.1447 -111.0955 173.9552 -58.6907 -53.3146 -107.9685 156.8984 52.1915 17.3056 -173.5475 14.6247 0.5060 -15.6446
State:	 -0.497  -5.531 -16.331  -0.405  0.292  0.867 -26.343    179.78 -173.26  178.42  -19.65  -13.06 -167.99  -23.30  -81.75    6.99 -137.13    5.46  178.14 -111.10  173.96  -58.69  -53.31 -107.97  156.90   52.19   17.31 -173.55   14.62    0.51  -15.64

DOCKED: MODEL       60
DOCKED: USER    Run = 60
DOCKED: USER    DPF = D:/Protein_go_brrr/autodock/final/AncMH_nat/IHP/dock.dpf
DOCKED: USER  
DOCKED: USER    Estimated Free Energy of Binding    =   +3.95 kcal/mol  [=(1)+(2)+(3)-(4)]
DOCKED: USER    
DOCKED: USER    (1) Final Intermolecular Energy     =   -3.21 kcal/mol
DOCKED: USER        vdW + Hbond + desolv Energy     =   -3.19 kcal/mol
DOCKED: USER        Electrostatic Energy            =   -0.01 kcal/mol
DOCKED: USER    (2) Final Total Internal Energy     =  -13.07 kcal/mol
DOCKED: USER    (3) Torsional Free Energy           =   +7.16 kcal/mol
DOCKED: USER    (4) Unbound System's Energy  [=(2)] =  -13.07 kcal/mol
DOCKED: USER    
DOCKED: USER    
DOCKED: USER    NEWDPF move IHP_ideal_opt.pdbqt
DOCKED: USER    NEWDPF about 0.035000 0.082000 -0.065000
DOCKED: USER    NEWDPF tran0 -0.497113 -5.530954 -16.331485
DOCKED: USER    NEWDPF quaternion0 -0.092325 0.066428 0.197449 -0.973693
DOCKED: USER    NEWDPF axisangle0 -0.405175 0.291524 0.866514 -26.342915
DOCKED: USER    NEWDPF quat0 -0.405175 0.291524 0.866514 -26.342915
DOCKED: USER    NEWDPF dihe0 179.78 -173.26 178.42 -19.65 -13.06 -167.99 -23.30 -81.75 6.99 -137.13 5.46 178.14 -111.10 173.96 -58.69 -53.31 -107.97 156.90 52.19 17.31 -173.55 14.62 0.51 -15.64 
DOCKED: USER  keepresnum = 1 
DOCKED: USER  
DOCKED: REMARK  24 active torsions:
DOCKED: REMARK  status: ('A' for Active; 'I' for Inactive)
DOCKED: REMARK    1  A    between atoms: C_1  and  O_7 
DOCKED: REMARK    2  A    between atoms: C_2  and  O_12 
DOCKED: REMARK    3  A    between atoms: C_3  and  O_17 
DOCKED: REMARK    4  A    between atoms: C_4  and  O_22 
DOCKED: REMARK    5  A    between atoms: C_5  and  O_27 
DOCKED: REMARK    6  A    between atoms: C_6  and  O_32 
DOCKED: REMARK    7  A    between atoms: O_7  and  P_8 
DOCKED: REMARK    8  A    between atoms: P_8  and  O_10 
DOCKED: REMARK    9  A    between atoms: P_8  and  O_11 
DOCKED: REMARK   10  A    between atoms: O_12  and  P_13 
DOCKED: REMARK   11  A    between atoms: P_13  and  O_15 
DOCKED: REMARK   12  A    between atoms: P_13  and  O_16 
DOCKED: REMARK   13  A    between atoms: O_17  and  P_18 
DOCKED: REMARK   14  A    between atoms: P_18  and  O_20 
DOCKED: REMARK   15  A    between atoms: P_18  and  O_21 
DOCKED: REMARK   16  A    between atoms: O_22  and  P_23 
DOCKED: REMARK   17  A    between atoms: P_23  and  O_25 
DOCKED: REMARK   18  A    between atoms: P_23  and  O_26 
DOCKED: REMARK   19  A    between atoms: O_27  and  P_28 
DOCKED: REMARK   20  A    between atoms: P_28  and  O_30 
DOCKED: REMARK   21  A    between atoms: P_28  and  O_31 
DOCKED: REMARK   22  A    between atoms: O_32  and  P_33 
DOCKED: REMARK   23  A    between atoms: P_33  and  O_35 
DOCKED: REMARK   24  A    between atoms: P_33  and  O_36 
DOCKED: USER                              x       y       z     vdW  Elec       q    Type
DOCKED: USER                           _______ _______ _______ _____ _____    ______ ____
DOCKED: ROOT
DOCKED: ATOM      1  C   UNL d   1       1.073  -5.705 -15.632 -0.16 -0.02    +0.194 C 
DOCKED: ATOM      2  C   UNL d   1       0.218  -6.973 -15.661 -0.14 -0.01    +0.194 C 
DOCKED: ATOM      3  C   UNL d   1      -1.231  -6.689 -15.259 -0.18 -0.01    +0.194 C 
DOCKED: ATOM      4  C   UNL d   1      -1.863  -5.549 -16.053 -0.11 -0.01    +0.194 C 
DOCKED: ATOM      5  C   UNL d   1      -0.993  -4.302 -16.147 -0.11 -0.01    +0.194 C 
DOCKED: ATOM      6  C   UNL d   1       0.470  -4.591 -16.489 -0.08 -0.01    +0.194 C 
DOCKED: ENDROOT
DOCKED: BRANCH   1   7
DOCKED: ATOM      7  O   UNL d   1       2.355  -6.019 -16.182 -0.06 +0.03    -0.278 OA
DOCKED: BRANCH   7   8
DOCKED: ATOM      8  P   UNL d   1       3.335  -6.955 -15.337 -0.07 -0.05    +0.473 P 
DOCKED: ATOM      9  O   UNL d   1       3.702  -6.433 -13.992 -0.19 +0.05    -0.228 OA
DOCKED: BRANCH   8  10
DOCKED: ATOM     10  O   UNL d   1       2.577  -8.358 -15.281 -0.07 +0.02    -0.303 OA
DOCKED: ATOM     11  H   UNL d   1       1.939  -8.414 -16.016 +0.04 -0.02    +0.222 HD
DOCKED: ENDBRANCH   8  10
DOCKED: BRANCH   8  12
DOCKED: ATOM     12  O   UNL d   1       4.548  -7.271 -16.313 -0.03 +0.03    -0.303 OA
DOCKED: ATOM     13  H   UNL d   1       5.418  -7.284 -15.854 +0.04 -0.02    +0.222 HD
DOCKED: ENDBRANCH   8  12
DOCKED: ENDBRANCH   7   8
DOCKED: ENDBRANCH   1   7
DOCKED: BRANCH   2  14
DOCKED: ATOM     14  O   UNL d   1       0.226  -7.511 -16.990 -0.02 +0.02    -0.278 OA
DOCKED: BRANCH  14  15
DOCKED: ATOM     15  P   UNL d   1       0.098  -9.102 -17.118 -0.01 -0.04    +0.473 P 
DOCKED: ATOM     16  O   UNL d   1       1.096  -9.788 -17.998 -0.01 +0.02    -0.228 OA
DOCKED: BRANCH  15  17
DOCKED: ATOM     17  O   UNL d   1       0.147  -9.618 -15.612 -0.07 +0.03    -0.303 OA
DOCKED: ATOM     18  H   UNL d   1      -0.732  -9.554 -15.190 +0.04 -0.03    +0.222 HD
DOCKED: ENDBRANCH  15  17
DOCKED: BRANCH  15  19
DOCKED: ATOM     19  O   UNL d   1      -1.428  -9.349 -17.491 -0.01 +0.02    -0.303 OA
DOCKED: ATOM     20  H   UNL d   1      -2.005  -9.294 -16.707 +0.02 -0.02    +0.222 HD
DOCKED: ENDBRANCH  15  19
DOCKED: ENDBRANCH  14  15
DOCKED: ENDBRANCH   2  14
DOCKED: BRANCH   6  21
DOCKED: ATOM     21  O   UNL d   1       1.203  -3.402 -16.205 -0.06 +0.02    -0.278 OA
DOCKED: BRANCH  21  22
DOCKED: ATOM     22  P   UNL d   1       1.704  -3.117 -14.717 -0.12 -0.05    +0.473 P 
DOCKED: ATOM     23  O   UNL d   1       0.912  -3.681 -13.586 -0.36 +0.03    -0.228 OA
DOCKED: BRANCH  22  24
DOCKED: ATOM     24  O   UNL d   1       3.216  -3.608 -14.783 -0.09 +0.04    -0.303 OA
DOCKED: ATOM     25  H   UNL d   1       3.223  -4.596 -14.714 -0.11 -0.06    +0.222 HD
DOCKED: ENDBRANCH  22  24
DOCKED: BRANCH  22  26
DOCKED: ATOM     26  O   UNL d   1       1.872  -1.522 -14.730 -0.14 +0.02    -0.303 OA
DOCKED: ATOM     27  H   UNL d   1       1.373  -1.152 -15.487 +0.07 -0.02    +0.222 HD
DOCKED: ENDBRANCH  22  26
DOCKED: ENDBRANCH  21  22
DOCKED: ENDBRANCH   6  21
DOCKED: BRANCH   3  28
DOCKED: ATOM     28  O   UNL d   1      -1.998  -7.843 -15.579 -0.06 +0.02    -0.278 OA
DOCKED: BRANCH  28  29
DOCKED: ATOM     29  P   UNL d   1      -2.883  -8.556 -14.463 -0.09 -0.05    +0.473 P 
DOCKED: ATOM     30  O   UNL d   1      -2.143  -9.441 -13.528 -0.14 +0.07    -0.228 OA
DOCKED: BRANCH  29  31
DOCKED: ATOM     31  O   UNL d   1      -3.615  -7.281 -13.830 -0.15 +0.02    -0.303 OA
DOCKED: ATOM     32  H   UNL d   1      -3.692  -6.586 -14.525 +0.05 -0.00    +0.222 HD
DOCKED: ENDBRANCH  29  31
DOCKED: BRANCH  29  33
DOCKED: ATOM     33  O   UNL d   1      -4.036  -9.228 -15.331 -0.01 +0.01    -0.303 OA
DOCKED: ATOM     34  H   UNL d   1      -4.112  -8.749 -16.192 +0.02 -0.01    +0.222 HD
DOCKED: ENDBRANCH  29  33
DOCKED: ENDBRANCH  28  29
DOCKED: ENDBRANCH   3  28
DOCKED: BRANCH   5  35
DOCKED: ATOM     35  O   UNL d   1      -1.532  -3.534 -17.222 -0.05 +0.01    -0.278 OA
DOCKED: BRANCH  35  36
DOCKED: ATOM     36  P   UNL d   1      -1.832  -1.980 -17.029 -0.04 -0.02    +0.473 P 
DOCKED: ATOM     37  O   UNL d   1      -2.876  -1.645 -16.012 -0.11 +0.00    -0.228 OA
DOCKED: BRANCH  36  38
DOCKED: ATOM     38  O   UNL d   1      -0.384  -1.407 -16.694 -0.03 +0.02    -0.303 OA
DOCKED: ATOM     39  H   UNL d   1      -0.068  -1.805 -15.854 +0.06 -0.01    +0.222 HD
DOCKED: ENDBRANCH  36  38
DOCKED: BRANCH  36  40
DOCKED: ATOM     40  O   UNL d   1      -2.098  -1.498 -18.521 -0.00 +0.02    -0.303 OA
DOCKED: ATOM     41  H   UNL d   1      -2.282  -0.533 -18.565 +0.01 -0.01    +0.222 HD
DOCKED: ENDBRANCH  36  40
DOCKED: ENDBRANCH  35  36
DOCKED: ENDBRANCH   5  35
DOCKED: BRANCH   4  42
DOCKED: ATOM     42  O   UNL d   1      -3.060  -5.176 -15.361 +0.01 -0.00    -0.278 OA
DOCKED: BRANCH  42  43
DOCKED: ATOM     43  P   UNL d   1      -4.435  -5.131 -16.169 -0.08 +0.02    +0.473 P 
DOCKED: ATOM     44  O   UNL d   1      -5.526  -4.280 -15.619 -0.61 -0.05    -0.228 OA
DOCKED: BRANCH  43  45
DOCKED: ATOM     45  O   UNL d   1      -3.966  -4.722 -17.634 -0.02 +0.00    -0.303 OA
DOCKED: ATOM     46  H   UNL d   1      -3.620  -3.807 -17.657 +0.02 -0.00    +0.222 HD
DOCKED: ENDBRANCH  43  45
DOCKED: BRANCH  43  47
DOCKED: ATOM     47  O   UNL d   1      -4.796  -6.680 -16.364 -0.03 -0.00    -0.303 OA
DOCKED: ATOM     48  H   UNL d   1      -4.077  -7.229 -15.989 +0.03 -0.00    +0.222 HD
DOCKED: ENDBRANCH  43  47
DOCKED: ENDBRANCH  42  43
DOCKED: ENDBRANCH   4  42
DOCKED: TORSDOF 24
DOCKED: TER
DOCKED: ENDMDL
________________________________________________________________________________


	BEGINNING GENETIC ALGORITHM DOCKING 61 of 100
Run: 61 Seed: 1288586837 1549359130 [ Run 61 of 100 GA/GALS ]
Beginning LAMARCKIAN GENETIC ALGORITHM (LGA), with a maximum of 25000000 energy evaluations.

Final-Value: -17.638


	FINAL GENETIC ALGORITHM DOCKED STATE
	_______________________________________________


Detailed state:  trans -14.126 -0.009 -4.170 quatxyzw -0.220941 0.699374 -0.503686 -0.456467 center 0.035 0.082 -0.065 ntor 24 62.0833 147.8321 80.2666 39.1474 14.5891 -137.1322 47.7373 -87.1938 79.4969 88.1803 100.4388 108.9183 -39.4817 121.7863 -4.5695 -139.2095 117.2855 27.8234 -162.6767 0.5622 -28.2684 13.4004 1.3743 177.4879
State:	-14.126  -0.009  -4.170  -0.248  0.786 -0.566 -125.681     62.08  147.83   80.27   39.15   14.59 -137.13   47.74  -87.19   79.50   88.18  100.44  108.92  -39.48  121.79   -4.57 -139.21  117.29   27.82 -162.68    0.56  -28.27   13.40    1.37  177.49

DOCKED: MODEL       61
DOCKED: USER    Run = 61
DOCKED: USER    DPF = D:/Protein_go_brrr/autodock/final/AncMH_nat/IHP/dock.dpf
DOCKED: USER  
DOCKED: USER    Estimated Free Energy of Binding    =   +3.56 kcal/mol  [=(1)+(2)+(3)-(4)]
DOCKED: USER    
DOCKED: USER    (1) Final Intermolecular Energy     =   -3.60 kcal/mol
DOCKED: USER        vdW + Hbond + desolv Energy     =   -3.36 kcal/mol
DOCKED: USER        Electrostatic Energy            =   -0.24 kcal/mol
DOCKED: USER    (2) Final Total Internal Energy     =  -14.04 kcal/mol
DOCKED: USER    (3) Torsional Free Energy           =   +7.16 kcal/mol
DOCKED: USER    (4) Unbound System's Energy  [=(2)] =  -14.04 kcal/mol
DOCKED: USER    
DOCKED: USER    
DOCKED: USER    NEWDPF move IHP_ideal_opt.pdbqt
DOCKED: USER    NEWDPF about 0.035000 0.082000 -0.065000
DOCKED: USER    NEWDPF tran0 -14.126318 -0.009067 -4.169646
DOCKED: USER    NEWDPF quaternion0 -0.220941 0.699374 -0.503686 -0.456467
DOCKED: USER    NEWDPF axisangle0 -0.248320 0.786043 -0.566104 -125.681301
DOCKED: USER    NEWDPF quat0 -0.248320 0.786043 -0.566104 -125.681301
DOCKED: USER    NEWDPF dihe0 62.08 147.83 80.27 39.15 14.59 -137.13 47.74 -87.19 79.50 88.18 100.44 108.92 -39.48 121.79 -4.57 -139.21 117.29 27.82 -162.68 0.56 -28.27 13.40 1.37 177.49 
DOCKED: USER  keepresnum = 1 
DOCKED: USER  
DOCKED: REMARK  24 active torsions:
DOCKED: REMARK  status: ('A' for Active; 'I' for Inactive)
DOCKED: REMARK    1  A    between atoms: C_1  and  O_7 
DOCKED: REMARK    2  A    between atoms: C_2  and  O_12 
DOCKED: REMARK    3  A    between atoms: C_3  and  O_17 
DOCKED: REMARK    4  A    between atoms: C_4  and  O_22 
DOCKED: REMARK    5  A    between atoms: C_5  and  O_27 
DOCKED: REMARK    6  A    between atoms: C_6  and  O_32 
DOCKED: REMARK    7  A    between atoms: O_7  and  P_8 
DOCKED: REMARK    8  A    between atoms: P_8  and  O_10 
DOCKED: REMARK    9  A    between atoms: P_8  and  O_11 
DOCKED: REMARK   10  A    between atoms: O_12  and  P_13 
DOCKED: REMARK   11  A    between atoms: P_13  and  O_15 
DOCKED: REMARK   12  A    between atoms: P_13  and  O_16 
DOCKED: REMARK   13  A    between atoms: O_17  and  P_18 
DOCKED: REMARK   14  A    between atoms: P_18  and  O_20 
DOCKED: REMARK   15  A    between atoms: P_18  and  O_21 
DOCKED: REMARK   16  A    between atoms: O_22  and  P_23 
DOCKED: REMARK   17  A    between atoms: P_23  and  O_25 
DOCKED: REMARK   18  A    between atoms: P_23  and  O_26 
DOCKED: REMARK   19  A    between atoms: O_27  and  P_28 
DOCKED: REMARK   20  A    between atoms: P_28  and  O_30 
DOCKED: REMARK   21  A    between atoms: P_28  and  O_31 
DOCKED: REMARK   22  A    between atoms: O_32  and  P_33 
DOCKED: REMARK   23  A    between atoms: P_33  and  O_35 
DOCKED: REMARK   24  A    between atoms: P_33  and  O_36 
DOCKED: USER                              x       y       z     vdW  Elec       q    Type
DOCKED: USER                           _______ _______ _______ _____ _____    ______ ____
DOCKED: ROOT
DOCKED: ATOM      1  C   UNL d   1     -14.188  -1.721  -3.946 -0.07 +0.13    +0.194 C 
DOCKED: ATOM      2  C   UNL d   1     -14.021  -0.893  -2.670 -0.02 +0.16    +0.194 C 
DOCKED: ATOM      3  C   UNL d   1     -13.009   0.239  -2.858 -0.12 +0.12    +0.194 C 
DOCKED: ATOM      4  C   UNL d   1     -13.301   1.110  -4.077 -0.05 +0.07    +0.194 C 
DOCKED: ATOM      5  C   UNL d   1     -13.587   0.322  -5.349 -0.03 +0.04    +0.194 C 
DOCKED: ATOM      6  C   UNL d   1     -14.552  -0.849  -5.148 -0.04 +0.07    +0.194 C 
DOCKED: ENDROOT
DOCKED: BRANCH   1   7
DOCKED: ATOM      7  O   UNL d   1     -15.265  -2.639  -3.744 -0.31 -0.27    -0.278 OA
DOCKED: BRANCH   7   8
DOCKED: ATOM      8  P   UNL d   1     -16.759  -2.075  -3.778 -0.06 +0.31    +0.473 P 
DOCKED: ATOM      9  O   UNL d   1     -16.898  -0.688  -4.297 -0.01 -0.10    -0.228 OA
DOCKED: BRANCH   8  10
DOCKED: ATOM     10  O   UNL d   1     -17.559  -3.152  -4.641 -0.02 -0.15    -0.303 OA
DOCKED: ATOM     11  H   UNL d   1     -17.608  -2.856  -5.569 +0.01 +0.08    +0.222 HD
DOCKED: ENDBRANCH   8  10
DOCKED: BRANCH   8  12
DOCKED: ATOM     12  O   UNL d   1     -17.329  -2.330  -2.317 -0.08 -0.26    -0.303 OA
DOCKED: ATOM     13  H   UNL d   1     -17.347  -1.518  -1.762 +0.03 +0.19    +0.222 HD
DOCKED: ENDBRANCH   8  12
DOCKED: ENDBRANCH   7   8
DOCKED: ENDBRANCH   1   7
DOCKED: BRANCH   2  14
DOCKED: ATOM     14  O   UNL d   1     -15.286  -0.321  -2.316 -0.08 -0.26    -0.278 OA
DOCKED: BRANCH  14  15
DOCKED: ATOM     15  P   UNL d   1     -15.738  -0.475  -0.787 -0.08 +0.64    +0.473 P 
DOCKED: ATOM     16  O   UNL d   1     -17.029   0.176  -0.400 -0.39 -0.34    -0.228 OA
DOCKED: BRANCH  15  17
DOCKED: ATOM     17  O   UNL d   1     -15.741  -2.049  -0.541 -0.03 -0.42    -0.303 OA
DOCKED: ATOM     18  H   UNL d   1     -15.720  -2.537  -1.386 +0.04 +0.34    +0.222 HD
DOCKED: ENDBRANCH  15  17
DOCKED: BRANCH  15  19
DOCKED: ATOM     19  O   UNL d   1     -14.463  -0.024   0.051 -0.19 -0.54    -0.303 OA
DOCKED: ATOM     20  H   UNL d   1     -13.647  -0.075  -0.479 +0.07 +0.29    +0.222 HD
DOCKED: ENDBRANCH  15  19
DOCKED: ENDBRANCH  14  15
DOCKED: ENDBRANCH   2  14
DOCKED: BRANCH   6  21
DOCKED: ATOM     21  O   UNL d   1     -14.449  -1.671  -6.308 -0.02 -0.08    -0.278 OA
DOCKED: BRANCH  21  22
DOCKED: ATOM     22  P   UNL d   1     -15.772  -2.139  -7.067 +0.01 +0.11    +0.473 P 
DOCKED: ATOM     23  O   UNL d   1     -16.994  -1.292  -6.940 -0.00 -0.05    -0.228 OA
DOCKED: BRANCH  22  24
DOCKED: ATOM     24  O   UNL d   1     -15.244  -2.329  -8.556 +0.00 -0.05    -0.303 OA
DOCKED: ATOM     25  H   UNL d   1     -14.768  -1.501  -8.822 +0.01 +0.02    +0.222 HD
DOCKED: ENDBRANCH  22  24
DOCKED: BRANCH  22  26
DOCKED: ATOM     26  O   UNL d   1     -15.913  -3.656  -6.570 -0.01 -0.10    -0.303 OA
DOCKED: ATOM     27  H   UNL d   1     -15.821  -3.685  -5.596 +0.03 +0.11    +0.222 HD
DOCKED: ENDBRANCH  22  26
DOCKED: ENDBRANCH  21  22
DOCKED: ENDBRANCH   6  21
DOCKED: BRANCH   3  28
DOCKED: ATOM     28  O   UNL d   1     -13.124   1.107  -1.738 -0.11 -0.27    -0.278 OA
DOCKED: BRANCH  28  29
DOCKED: ATOM     29  P   UNL d   1     -11.851   1.436  -0.840 -0.11 +0.37    +0.473 P 
DOCKED: ATOM     30  O   UNL d   1     -12.139   2.059   0.477 -0.71 -0.31    -0.228 OA
DOCKED: BRANCH  29  31
DOCKED: ATOM     31  O   UNL d   1     -11.141   0.002  -0.826 -0.19 -0.17    -0.303 OA
DOCKED: ATOM     32  H   UNL d   1     -10.416   0.003  -1.492 +0.07 +0.07    +0.222 HD
DOCKED: ENDBRANCH  29  31
DOCKED: BRANCH  29  33
DOCKED: ATOM     33  O   UNL d   1     -10.939   2.269  -1.846 -0.13 -0.10    -0.303 OA
DOCKED: ATOM     34  H   UNL d   1     -11.138   1.982  -2.771 +0.10 +0.05    +0.222 HD
DOCKED: ENDBRANCH  29  33
DOCKED: ENDBRANCH  28  29
DOCKED: ENDBRANCH   3  28
DOCKED: BRANCH   5  35
DOCKED: ATOM     35  O   UNL d   1     -14.220   1.240  -6.239 -0.00 -0.03    -0.278 OA
DOCKED: BRANCH  35  36
DOCKED: ATOM     36  P   UNL d   1     -13.727   1.365  -7.750 +0.01 -0.02    +0.473 P 
DOCKED: ATOM     37  O   UNL d   1     -14.694   2.009  -8.693 +0.00 +0.01    -0.228 OA
DOCKED: BRANCH  36  38
DOCKED: ATOM     38  O   UNL d   1     -12.354   2.153  -7.581 -0.03 +0.10    -0.303 OA
DOCKED: ATOM     39  H   UNL d   1     -12.127   2.201  -6.628 +0.04 -0.07    +0.222 HD
DOCKED: ENDBRANCH  36  38
DOCKED: BRANCH  36  40
DOCKED: ATOM     40  O   UNL d   1     -13.277  -0.123  -8.085 -0.00 -0.00    -0.303 OA
DOCKED: ATOM     41  H   UNL d   1     -13.946  -0.781  -7.792 +0.02 +0.02    +0.222 HD
DOCKED: ENDBRANCH  36  40
DOCKED: ENDBRANCH  35  36
DOCKED: ENDBRANCH   5  35
DOCKED: BRANCH   4  42
DOCKED: ATOM     42  O   UNL d   1     -12.125   1.890  -4.321 -0.05 -0.02    -0.278 OA
DOCKED: BRANCH  42  43
DOCKED: ATOM     43  P   UNL d   1     -10.789   1.148  -4.780 -0.18 -0.05    +0.473 P 
DOCKED: ATOM     44  O   UNL d   1     -10.734   0.636  -6.178 -0.17 +0.05    -0.228 OA
DOCKED: BRANCH  43  45
DOCKED: ATOM     45  O   UNL d   1      -9.661   2.215  -4.433 -0.23 +0.12    -0.303 OA
DOCKED: ATOM     46  H   UNL d   1      -9.932   2.796  -3.694 +0.11 -0.04    +0.222 HD
DOCKED: ENDBRANCH  43  45
DOCKED: BRANCH  43  47
DOCKED: ATOM     47  O   UNL d   1     -10.566   0.052  -3.632 -0.27 -0.03    -0.303 OA
DOCKED: ATOM     48  H   UNL d   1     -10.277   0.500  -2.810 -0.10 +0.01    +0.222 HD
DOCKED: ENDBRANCH  43  47
DOCKED: ENDBRANCH  42  43
DOCKED: ENDBRANCH   4  42
DOCKED: TORSDOF 24
DOCKED: TER
DOCKED: ENDMDL
________________________________________________________________________________


	BEGINNING GENETIC ALGORITHM DOCKING 62 of 100
Run: 62 Seed: 1955528001 565866296 [ Run 62 of 100 GA/GALS ]
Beginning LAMARCKIAN GENETIC ALGORITHM (LGA), with a maximum of 25000000 energy evaluations.

Final-Value: -17.571


	FINAL GENETIC ALGORITHM DOCKED STATE
	_______________________________________________


Detailed state:  trans 12.036 13.176 -16.112 quatxyzw 0.775395 0.528636 0.154332 -0.309013 center 0.035 0.082 -0.065 ntor 24 139.4731 107.7641 140.6644 24.8053 -12.6520 -179.4840 -104.4344 -31.9186 -178.6550 -75.4046 44.1489 -171.2096 -87.0209 -143.1051 -179.3556 58.8113 104.6139 -8.1032 -138.1793 3.2833 -176.1297 149.1445 -61.3528 147.0720
State:	 12.036  13.176 -16.112   0.815  0.556  0.162 -144.001    139.47  107.76  140.66   24.81  -12.65 -179.48 -104.43  -31.92 -178.65  -75.40   44.15 -171.21  -87.02 -143.11 -179.36   58.81  104.61   -8.10 -138.18    3.28 -176.13  149.14  -61.35  147.07

DOCKED: MODEL       62
DOCKED: USER    Run = 62
DOCKED: USER    DPF = D:/Protein_go_brrr/autodock/final/AncMH_nat/IHP/dock.dpf
DOCKED: USER  
DOCKED: USER    Estimated Free Energy of Binding    =   +2.77 kcal/mol  [=(1)+(2)+(3)-(4)]
DOCKED: USER    
DOCKED: USER    (1) Final Intermolecular Energy     =   -4.39 kcal/mol
DOCKED: USER        vdW + Hbond + desolv Energy     =   -3.59 kcal/mol
DOCKED: USER        Electrostatic Energy            =   -0.79 kcal/mol
DOCKED: USER    (2) Final Total Internal Energy     =  -13.18 kcal/mol
DOCKED: USER    (3) Torsional Free Energy           =   +7.16 kcal/mol
DOCKED: USER    (4) Unbound System's Energy  [=(2)] =  -13.18 kcal/mol
DOCKED: USER    
DOCKED: USER    
DOCKED: USER    NEWDPF move IHP_ideal_opt.pdbqt
DOCKED: USER    NEWDPF about 0.035000 0.082000 -0.065000
DOCKED: USER    NEWDPF tran0 12.035587 13.176133 -16.111818
DOCKED: USER    NEWDPF quaternion0 0.775395 0.528636 0.154332 -0.309013
DOCKED: USER    NEWDPF axisangle0 0.815297 0.555840 0.162274 -144.000527
DOCKED: USER    NEWDPF quat0 0.815297 0.555840 0.162274 -144.000527
DOCKED: USER    NEWDPF dihe0 139.47 107.76 140.66 24.81 -12.65 -179.48 -104.43 -31.92 -178.65 -75.40 44.15 -171.21 -87.02 -143.11 -179.36 58.81 104.61 -8.10 -138.18 3.28 -176.13 149.14 -61.35 147.07 
DOCKED: USER  keepresnum = 1 
DOCKED: USER  
DOCKED: REMARK  24 active torsions:
DOCKED: REMARK  status: ('A' for Active; 'I' for Inactive)
DOCKED: REMARK    1  A    between atoms: C_1  and  O_7 
DOCKED: REMARK    2  A    between atoms: C_2  and  O_12 
DOCKED: REMARK    3  A    between atoms: C_3  and  O_17 
DOCKED: REMARK    4  A    between atoms: C_4  and  O_22 
DOCKED: REMARK    5  A    between atoms: C_5  and  O_27 
DOCKED: REMARK    6  A    between atoms: C_6  and  O_32 
DOCKED: REMARK    7  A    between atoms: O_7  and  P_8 
DOCKED: REMARK    8  A    between atoms: P_8  and  O_10 
DOCKED: REMARK    9  A    between atoms: P_8  and  O_11 
DOCKED: REMARK   10  A    between atoms: O_12  and  P_13 
DOCKED: REMARK   11  A    between atoms: P_13  and  O_15 
DOCKED: REMARK   12  A    between atoms: P_13  and  O_16 
DOCKED: REMARK   13  A    between atoms: O_17  and  P_18 
DOCKED: REMARK   14  A    between atoms: P_18  and  O_20 
DOCKED: REMARK   15  A    between atoms: P_18  and  O_21 
DOCKED: REMARK   16  A    between atoms: O_22  and  P_23 
DOCKED: REMARK   17  A    between atoms: P_23  and  O_25 
DOCKED: REMARK   18  A    between atoms: P_23  and  O_26 
DOCKED: REMARK   19  A    between atoms: O_27  and  P_28 
DOCKED: REMARK   20  A    between atoms: P_28  and  O_30 
DOCKED: REMARK   21  A    between atoms: P_28  and  O_31 
DOCKED: REMARK   22  A    between atoms: O_32  and  P_33 
DOCKED: REMARK   23  A    between atoms: P_33  and  O_35 
DOCKED: REMARK   24  A    between atoms: P_33  and  O_36 
DOCKED: USER                              x       y       z     vdW  Elec       q    Type
DOCKED: USER                           _______ _______ _______ _____ _____    ______ ____
DOCKED: ROOT
DOCKED: ATOM      1  C   UNL d   1      12.333  14.295 -17.394 -0.02 -0.06    +0.194 C 
DOCKED: ATOM      2  C   UNL d   1      11.051  13.471 -17.520 -0.03 -0.07    +0.194 C 
DOCKED: ATOM      3  C   UNL d   1      11.282  12.003 -17.154 -0.04 -0.09    +0.194 C 
DOCKED: ATOM      4  C   UNL d   1      11.954  11.821 -15.795 -0.12 -0.13    +0.194 C 
DOCKED: ATOM      5  C   UNL d   1      13.172  12.710 -15.581 -0.08 -0.09    +0.194 C 
DOCKED: ATOM      6  C   UNL d   1      12.960  14.164 -16.005 -0.05 -0.06    +0.194 C 
DOCKED: ENDROOT
DOCKED: BRANCH   1   7
DOCKED: ATOM      7  O   UNL d   1      11.998  15.672 -17.583 -0.01 +0.07    -0.278 OA
DOCKED: BRANCH   7   8
DOCKED: ATOM      8  P   UNL d   1      11.818  16.593 -16.290 -0.03 -0.11    +0.473 P 
DOCKED: ATOM      9  O   UNL d   1      11.213  15.915 -15.111 -0.03 +0.07    -0.228 OA
DOCKED: BRANCH   8  10
DOCKED: ATOM     10  O   UNL d   1      13.284  17.155 -16.008 -0.01 +0.05    -0.303 OA
DOCKED: ATOM     11  H   UNL d   1      13.941  16.600 -16.468 +0.01 -0.04    +0.222 HD
DOCKED: ENDBRANCH   8  10
DOCKED: BRANCH   8  12
DOCKED: ATOM     12  O   UNL d   1      11.060  17.889 -16.809 -0.01 +0.06    -0.303 OA
DOCKED: ATOM     13  H   UNL d   1      10.165  17.695 -17.169 +0.01 -0.05    +0.222 HD
DOCKED: ENDBRANCH   8  12
DOCKED: ENDBRANCH   7   8
DOCKED: ENDBRANCH   1   7
DOCKED: BRANCH   2  14
DOCKED: ATOM     14  O   UNL d   1      10.059  14.010 -16.638 -0.08 +0.14    -0.278 OA
DOCKED: BRANCH  14  15
DOCKED: ATOM     15  P   UNL d   1       8.586  14.189 -17.239 -0.04 -0.23    +0.473 P 
DOCKED: ATOM     16  O   UNL d   1       8.299  15.478 -17.943 -0.02 +0.08    -0.228 OA
DOCKED: BRANCH  15  17
DOCKED: ATOM     17  O   UNL d   1       8.394  12.917 -18.179 -0.00 +0.10    -0.303 OA
DOCKED: ATOM     18  H   UNL d   1       8.702  12.103 -17.736 +0.03 -0.08    +0.222 HD
DOCKED: ENDBRANCH  15  17
DOCKED: BRANCH  15  19
DOCKED: ATOM     19  O   UNL d   1       7.618  13.839 -16.027 -0.05 +0.31    -0.303 OA
DOCKED: ATOM     20  H   UNL d   1       7.986  13.135 -15.462 -0.35 -0.32    +0.222 HD
DOCKED: ENDBRANCH  15  19
DOCKED: ENDBRANCH  14  15
DOCKED: ENDBRANCH   2  14
DOCKED: BRANCH   6  21
DOCKED: ATOM     21  O   UNL d   1      14.251  14.767 -16.071 -0.01 +0.07    -0.278 OA
DOCKED: BRANCH  21  22
DOCKED: ATOM     22  P   UNL d   1      15.158  14.557 -17.366 +0.00 -0.10    +0.473 P 
DOCKED: ATOM     23  O   UNL d   1      16.640  14.549 -17.195 -0.00 +0.04    -0.228 OA
DOCKED: BRANCH  22  24
DOCKED: ATOM     24  O   UNL d   1      14.549  13.218 -17.976 +0.00 +0.08    -0.303 OA
DOCKED: ATOM     25  H   UNL d   1      14.907  12.453 -17.458 +0.01 -0.08    +0.222 HD
DOCKED: ENDBRANCH  22  24
DOCKED: BRANCH  22  26
DOCKED: ATOM     26  O   UNL d   1      14.571  15.670 -18.359 -0.00 +0.05    -0.303 OA
DOCKED: ATOM     27  H   UNL d   1      13.918  16.218 -17.878 +0.01 -0.04    +0.222 HD
DOCKED: ENDBRANCH  22  26
DOCKED: ENDBRANCH  21  22
DOCKED: ENDBRANCH   6  21
DOCKED: BRANCH   3  28
DOCKED: ATOM     28  O   UNL d   1      10.007  11.386 -17.031 -0.03 +0.14    -0.278 OA
DOCKED: BRANCH  28  29
DOCKED: ATOM     29  P   UNL d   1       9.365  11.148 -15.593 -0.12 -0.30    +0.473 P 
DOCKED: ATOM     30  O   UNL d   1       9.691  12.173 -14.568 -0.19 +0.22    -0.228 OA
DOCKED: BRANCH  29  31
DOCKED: ATOM     31  O   UNL d   1       7.824  10.992 -15.998 -0.07 +0.12    -0.303 OA
DOCKED: ATOM     32  H   UNL d   1       7.562  11.770 -16.541 +0.06 -0.10    +0.222 HD
DOCKED: ENDBRANCH  29  31
DOCKED: BRANCH  29  33
DOCKED: ATOM     33  O   UNL d   1       9.799   9.650 -15.276 -0.19 +0.24    -0.303 OA
DOCKED: ATOM     34  H   UNL d   1      10.637   9.449 -15.761 +0.07 -0.25    +0.222 HD
DOCKED: ENDBRANCH  29  33
DOCKED: ENDBRANCH  28  29
DOCKED: ENDBRANCH   3  28
DOCKED: BRANCH   5  35
DOCKED: ATOM     35  O   UNL d   1      13.407  12.712 -14.175 -0.14 +0.13    -0.278 OA
DOCKED: BRANCH  35  36
DOCKED: ATOM     36  P   UNL d   1      13.926  11.393 -13.443 -0.15 -0.36    +0.473 P 
DOCKED: ATOM     37  O   UNL d   1      14.794  11.619 -12.246 -0.13 +0.10    -0.228 OA
DOCKED: BRANCH  36  38
DOCKED: ATOM     38  O   UNL d   1      12.561  10.637 -13.128 -0.27 +0.38    -0.303 OA
DOCKED: ATOM     39  H   UNL d   1      12.506   9.829 -13.683 -0.37 -0.61    +0.222 HD
DOCKED: ENDBRANCH  36  38
DOCKED: BRANCH  36  40
DOCKED: ATOM     40  O   UNL d   1      14.555  10.563 -14.645 -0.10 +0.33    -0.303 OA
DOCKED: ATOM     41  H   UNL d   1      14.082   9.713 -14.787 -0.54 -0.48    +0.222 HD
DOCKED: ENDBRANCH  36  40
DOCKED: ENDBRANCH  35  36
DOCKED: ENDBRANCH   5  35
DOCKED: BRANCH   4  42
DOCKED: ATOM     42  O   UNL d   1      12.406  10.464 -15.735 -0.11 +0.35    -0.278 OA
DOCKED: BRANCH  42  43
DOCKED: ATOM     43  P   UNL d   1      12.957   9.775 -17.064 -0.04 -0.51    +0.473 P 
DOCKED: ATOM     44  O   UNL d   1      13.761  10.618 -17.992 -0.02 +0.13    -0.228 OA
DOCKED: BRANCH  43  45
DOCKED: ATOM     45  O   UNL d   1      13.733   8.504 -16.502 +0.20 +0.65    -0.303 OA
DOCKED: ATOM     46  H   UNL d   1      14.082   8.666 -15.603 -0.52 -0.61    +0.222 HD
DOCKED: ENDBRANCH  43  45
DOCKED: BRANCH  43  47
DOCKED: ATOM     47  O   UNL d   1      11.648   9.103 -17.698 -0.08 +0.28    -0.303 OA
DOCKED: ATOM     48  H   UNL d   1      10.860   9.389 -17.190 +0.04 -0.19    +0.222 HD
DOCKED: ENDBRANCH  43  47
DOCKED: ENDBRANCH  42  43
DOCKED: ENDBRANCH   4  42
DOCKED: TORSDOF 24
DOCKED: TER
DOCKED: ENDMDL
________________________________________________________________________________


	BEGINNING GENETIC ALGORITHM DOCKING 63 of 100
Run: 63 Seed: 1929391280 275031849 [ Run 63 of 100 GA/GALS ]
Beginning LAMARCKIAN GENETIC ALGORITHM (LGA), with a maximum of 25000000 energy evaluations.

Final-Value: -17.527


	FINAL GENETIC ALGORITHM DOCKED STATE
	_______________________________________________


Detailed state:  trans -11.241 14.355 -8.683 quatxyzw -0.189781 0.442487 -0.388217 -0.785796 center 0.035 0.082 -0.065 ntor 24 -163.1120 -7.1115 74.1894 97.3841 20.5117 168.3207 33.7661 -57.9347 12.4086 73.1830 19.0150 -121.9149 47.3755 118.2709 -14.9185 99.2750 173.8479 -44.9378 -16.4006 -8.3000 4.1523 -4.9221 -25.7228 -5.9774
State:	-11.241  14.355  -8.683  -0.307  0.715 -0.628 -76.411   -163.11   -7.11   74.19   97.38   20.51  168.32   33.77  -57.93   12.41   73.18   19.01 -121.91   47.38  118.27  -14.92   99.27  173.85  -44.94  -16.40   -8.30    4.15   -4.92  -25.72   -5.98

DOCKED: MODEL       63
DOCKED: USER    Run = 63
DOCKED: USER    DPF = D:/Protein_go_brrr/autodock/final/AncMH_nat/IHP/dock.dpf
DOCKED: USER  
DOCKED: USER    Estimated Free Energy of Binding    =   +3.43 kcal/mol  [=(1)+(2)+(3)-(4)]
DOCKED: USER    
DOCKED: USER    (1) Final Intermolecular Energy     =   -3.73 kcal/mol
DOCKED: USER        vdW + Hbond + desolv Energy     =   -3.64 kcal/mol
DOCKED: USER        Electrostatic Energy            =   -0.08 kcal/mol
DOCKED: USER    (2) Final Total Internal Energy     =  -13.80 kcal/mol
DOCKED: USER    (3) Torsional Free Energy           =   +7.16 kcal/mol
DOCKED: USER    (4) Unbound System's Energy  [=(2)] =  -13.80 kcal/mol
DOCKED: USER    
DOCKED: USER    
DOCKED: USER    NEWDPF move IHP_ideal_opt.pdbqt
DOCKED: USER    NEWDPF about 0.035000 0.082000 -0.065000
DOCKED: USER    NEWDPF tran0 -11.240532 14.355396 -8.682897
DOCKED: USER    NEWDPF quaternion0 -0.189781 0.442487 -0.388217 -0.785796
DOCKED: USER    NEWDPF axisangle0 -0.306849 0.715436 -0.627690 -76.411219
DOCKED: USER    NEWDPF quat0 -0.306849 0.715436 -0.627690 -76.411219
DOCKED: USER    NEWDPF dihe0 -163.11 -7.11 74.19 97.38 20.51 168.32 33.77 -57.93 12.41 73.18 19.01 -121.91 47.38 118.27 -14.92 99.27 173.85 -44.94 -16.40 -8.30 4.15 -4.92 -25.72 -5.98 
DOCKED: USER  keepresnum = 1 
DOCKED: USER  
DOCKED: REMARK  24 active torsions:
DOCKED: REMARK  status: ('A' for Active; 'I' for Inactive)
DOCKED: REMARK    1  A    between atoms: C_1  and  O_7 
DOCKED: REMARK    2  A    between atoms: C_2  and  O_12 
DOCKED: REMARK    3  A    between atoms: C_3  and  O_17 
DOCKED: REMARK    4  A    between atoms: C_4  and  O_22 
DOCKED: REMARK    5  A    between atoms: C_5  and  O_27 
DOCKED: REMARK    6  A    between atoms: C_6  and  O_32 
DOCKED: REMARK    7  A    between atoms: O_7  and  P_8 
DOCKED: REMARK    8  A    between atoms: P_8  and  O_10 
DOCKED: REMARK    9  A    between atoms: P_8  and  O_11 
DOCKED: REMARK   10  A    between atoms: O_12  and  P_13 
DOCKED: REMARK   11  A    between atoms: P_13  and  O_15 
DOCKED: REMARK   12  A    between atoms: P_13  and  O_16 
DOCKED: REMARK   13  A    between atoms: O_17  and  P_18 
DOCKED: REMARK   14  A    between atoms: P_18  and  O_20 
DOCKED: REMARK   15  A    between atoms: P_18  and  O_21 
DOCKED: REMARK   16  A    between atoms: O_22  and  P_23 
DOCKED: REMARK   17  A    between atoms: P_23  and  O_25 
DOCKED: REMARK   18  A    between atoms: P_23  and  O_26 
DOCKED: REMARK   19  A    between atoms: O_27  and  P_28 
DOCKED: REMARK   20  A    between atoms: P_28  and  O_30 
DOCKED: REMARK   21  A    between atoms: P_28  and  O_31 
DOCKED: REMARK   22  A    between atoms: O_32  and  P_33 
DOCKED: REMARK   23  A    between atoms: P_33  and  O_35 
DOCKED: REMARK   24  A    between atoms: P_33  and  O_36 
DOCKED: USER                              x       y       z     vdW  Elec       q    Type
DOCKED: USER                           _______ _______ _______ _____ _____    ______ ____
DOCKED: ROOT
DOCKED: ATOM      1  C   UNL d   1     -10.582  12.788  -8.375 -0.14 -0.03    +0.194 C 
DOCKED: ATOM      2  C   UNL d   1     -11.631  13.272  -7.373 -0.05 -0.03    +0.194 C 
DOCKED: ATOM      3  C   UNL d   1     -11.419  14.739  -6.994 -0.10 +0.00    +0.194 C 
DOCKED: ATOM      4  C   UNL d   1     -11.307  15.663  -8.205 -0.09 +0.01    +0.194 C 
DOCKED: ATOM      5  C   UNL d   1     -10.356  15.161  -9.283 +0.01 +0.01    +0.194 C 
DOCKED: ATOM      6  C   UNL d   1     -10.527  13.678  -9.618 -0.12 -0.01    +0.194 C 
DOCKED: ENDROOT
DOCKED: BRANCH   1   7
DOCKED: ATOM      7  O   UNL d   1     -10.949  11.476  -8.807 -0.11 +0.04    -0.278 OA
DOCKED: BRANCH   7   8
DOCKED: ATOM      8  P   UNL d   1      -9.797  10.381  -8.970 -0.19 -0.11    +0.473 P 
DOCKED: ATOM      9  O   UNL d   1      -9.656   9.437  -7.828 -0.24 +0.06    -0.228 OA
DOCKED: BRANCH   8  10
DOCKED: ATOM     10  O   UNL d   1     -10.148   9.653 -10.346 -0.10 +0.07    -0.303 OA
DOCKED: ATOM     11  H   UNL d   1     -10.465  10.311 -10.992 +0.05 -0.03    +0.222 HD
DOCKED: ENDBRANCH   8  10
DOCKED: BRANCH   8  12
DOCKED: ATOM     12  O   UNL d   1      -8.494  11.206  -9.353 -0.28 +0.10    -0.303 OA
DOCKED: ATOM     13  H   UNL d   1      -8.631  11.810 -10.118 +0.06 -0.06    +0.222 HD
DOCKED: ENDBRANCH   8  12
DOCKED: ENDBRANCH   7   8
DOCKED: ENDBRANCH   1   7
DOCKED: BRANCH   2  14
DOCKED: ATOM     14  O   UNL d   1     -12.933  13.136  -7.958 -0.05 +0.02    -0.278 OA
DOCKED: BRANCH  14  15
DOCKED: ATOM     15  P   UNL d   1     -13.992  12.248  -7.148 -0.04 -0.03    +0.473 P 
DOCKED: ATOM     16  O   UNL d   1     -15.391  12.221  -7.678 -0.01 +0.01    -0.228 OA
DOCKED: BRANCH  15  17
DOCKED: ATOM     17  O   UNL d   1     -13.324  10.803  -7.092 -0.05 +0.03    -0.303 OA
DOCKED: ATOM     18  H   UNL d   1     -12.662  10.694  -7.801 +0.05 -0.03    +0.222 HD
DOCKED: ENDBRANCH  15  17
DOCKED: BRANCH  15  19
DOCKED: ATOM     19  O   UNL d   1     -13.840  12.729  -5.639 -0.10 +0.02    -0.303 OA
DOCKED: ATOM     20  H   UNL d   1     -13.686  13.690  -5.580 +0.06 -0.01    +0.222 HD
DOCKED: ENDBRANCH  15  19
DOCKED: ENDBRANCH  14  15
DOCKED: ENDBRANCH   2  14
DOCKED: BRANCH   6  21
DOCKED: ATOM     21  O   UNL d   1      -9.375  13.287 -10.362 -0.15 +0.04    -0.278 OA
DOCKED: BRANCH  21  22
DOCKED: ATOM     22  P   UNL d   1      -9.444  13.223 -11.954 -0.06 -0.03    +0.473 P 
DOCKED: ATOM     23  O   UNL d   1     -10.587  13.897 -12.638 -0.01 +0.01    -0.228 OA
DOCKED: BRANCH  22  24
DOCKED: ATOM     24  O   UNL d   1      -8.006  13.768 -12.365 -0.10 +0.01    -0.303 OA
DOCKED: ATOM     25  H   UNL d   1      -7.816  14.575 -11.822 +0.06 +0.00    +0.222 HD
DOCKED: ENDBRANCH  22  24
DOCKED: BRANCH  22  26
DOCKED: ATOM     26  O   UNL d   1      -9.292  11.650 -12.224 -0.36 +0.00    -0.303 OA
DOCKED: ATOM     27  H   UNL d   1      -9.110  11.195 -11.377 +0.05 -0.02    +0.222 HD
DOCKED: ENDBRANCH  22  26
DOCKED: ENDBRANCH  21  22
DOCKED: ENDBRANCH   6  21
DOCKED: BRANCH   3  28
DOCKED: ATOM     28  O   UNL d   1     -12.578  15.173  -6.294 -0.09 -0.00    -0.278 OA
DOCKED: BRANCH  28  29
DOCKED: ATOM     29  P   UNL d   1     -12.533  15.382  -4.716 -0.14 +0.03    +0.473 P 
DOCKED: ATOM     30  O   UNL d   1     -11.792  16.581  -4.249 -0.17 -0.05    -0.228 OA
DOCKED: BRANCH  29  31
DOCKED: ATOM     31  O   UNL d   1     -14.097  15.319  -4.382 -0.05 -0.02    -0.303 OA
DOCKED: ATOM     32  H   UNL d   1     -14.356  14.375  -4.269 +0.07 -0.00    +0.222 HD
DOCKED: ENDBRANCH  29  31
DOCKED: BRANCH  29  33
DOCKED: ATOM     33  O   UNL d   1     -12.008  13.968  -4.207 -0.22 +0.04    -0.303 OA
DOCKED: ATOM     34  H   UNL d   1     -11.845  13.385  -4.989 -0.49 -0.08    +0.222 HD
DOCKED: ENDBRANCH  29  33
DOCKED: ENDBRANCH  28  29
DOCKED: ENDBRANCH   3  28
DOCKED: BRANCH   5  35
DOCKED: ATOM     35  O   UNL d   1     -10.681  15.897 -10.460 -0.04 -0.00    -0.278 OA
DOCKED: BRANCH  35  36
DOCKED: ATOM     36  P   UNL d   1      -9.731  17.077 -10.960 -0.04 +0.02    +0.473 P 
DOCKED: ATOM     37  O   UNL d   1     -10.429  18.275 -11.520 -0.01 -0.00    -0.228 OA
DOCKED: BRANCH  36  38
DOCKED: ATOM     38  O   UNL d   1      -8.867  17.374  -9.656 -0.44 -0.06    -0.303 OA
DOCKED: ATOM     39  H   UNL d   1      -9.470  17.605  -8.917 +0.04 +0.03    +0.222 HD
DOCKED: ENDBRANCH  36  38
DOCKED: BRANCH  36  40
DOCKED: ATOM     40  O   UNL d   1      -8.721  16.314 -11.923 -0.05 -0.01    -0.303 OA
DOCKED: ATOM     41  H   UNL d   1      -9.148  15.548 -12.366 +0.03 -0.00    +0.222 HD
DOCKED: ENDBRANCH  36  40
DOCKED: ENDBRANCH  35  36
DOCKED: ENDBRANCH   5  35
DOCKED: BRANCH   4  42
DOCKED: ATOM     42  O   UNL d   1     -10.785  16.908  -7.729 -0.09 -0.03    -0.278 OA
DOCKED: BRANCH  42  43
DOCKED: ATOM     43  P   UNL d   1     -11.681  18.221  -7.859 +0.00 +0.03    +0.473 P 
DOCKED: ATOM     44  O   UNL d   1     -13.036  18.070  -8.460 -0.00 -0.01    -0.228 OA
DOCKED: BRANCH  43  45
DOCKED: ATOM     45  O   UNL d   1     -11.688  18.788  -6.373 -0.01 -0.04    -0.303 OA
DOCKED: ATOM     46  H   UNL d   1     -11.984  18.111  -5.732 +0.04 +0.03    +0.222 HD
DOCKED: ENDBRANCH  43  45
DOCKED: BRANCH  43  47
DOCKED: ATOM     47  O   UNL d   1     -10.708  19.258  -8.599 -0.01 -0.02    -0.303 OA
DOCKED: ATOM     48  H   UNL d   1     -10.411  18.871  -9.449 +0.02 +0.01    +0.222 HD
DOCKED: ENDBRANCH  43  47
DOCKED: ENDBRANCH  42  43
DOCKED: ENDBRANCH   4  42
DOCKED: TORSDOF 24
DOCKED: TER
DOCKED: ENDMDL
________________________________________________________________________________


	BEGINNING GENETIC ALGORITHM DOCKING 64 of 100
Run: 64 Seed: 2062936041 1712055176 [ Run 64 of 100 GA/GALS ]
Beginning LAMARCKIAN GENETIC ALGORITHM (LGA), with a maximum of 25000000 energy evaluations.

Final-Value: -17.777


	FINAL GENETIC ALGORITHM DOCKED STATE
	_______________________________________________


Detailed state:  trans -9.737 -12.405 17.672 quatxyzw 0.133875 -0.064965 -0.933943 -0.324974 center 0.035 0.082 -0.065 ntor 24 -170.4352 93.0420 82.9655 -29.5950 -16.4071 -81.4591 -90.9585 -22.4558 24.8080 124.8635 30.4783 168.7366 -92.4805 151.8381 -55.0862 -166.0475 106.7828 168.1594 26.0654 7.6900 -11.4667 1.4248 166.3659 -3.2493
State:	 -9.737 -12.405  17.672   0.142 -0.069 -0.988 -142.072   -170.44   93.04   82.97  -29.59  -16.41  -81.46  -90.96  -22.46   24.81  124.86   30.48  168.74  -92.48  151.84  -55.09 -166.05  106.78  168.16   26.07    7.69  -11.47    1.42  166.37   -3.25

DOCKED: MODEL       64
DOCKED: USER    Run = 64
DOCKED: USER    DPF = D:/Protein_go_brrr/autodock/final/AncMH_nat/IHP/dock.dpf
DOCKED: USER  
DOCKED: USER    Estimated Free Energy of Binding    =   +0.55 kcal/mol  [=(1)+(2)+(3)-(4)]
DOCKED: USER    
DOCKED: USER    (1) Final Intermolecular Energy     =   -6.61 kcal/mol
DOCKED: USER        vdW + Hbond + desolv Energy     =   -6.24 kcal/mol
DOCKED: USER        Electrostatic Energy            =   -0.37 kcal/mol
DOCKED: USER    (2) Final Total Internal Energy     =  -11.17 kcal/mol
DOCKED: USER    (3) Torsional Free Energy           =   +7.16 kcal/mol
DOCKED: USER    (4) Unbound System's Energy  [=(2)] =  -11.17 kcal/mol
DOCKED: USER    
DOCKED: USER    
DOCKED: USER    NEWDPF move IHP_ideal_opt.pdbqt
DOCKED: USER    NEWDPF about 0.035000 0.082000 -0.065000
DOCKED: USER    NEWDPF tran0 -9.736797 -12.405457 17.672385
DOCKED: USER    NEWDPF quaternion0 0.133875 -0.064965 -0.933943 -0.324974
DOCKED: USER    NEWDPF axisangle0 0.141559 -0.068694 -0.987544 -142.071977
DOCKED: USER    NEWDPF quat0 0.141559 -0.068694 -0.987544 -142.071977
DOCKED: USER    NEWDPF dihe0 -170.44 93.04 82.97 -29.59 -16.41 -81.46 -90.96 -22.46 24.81 124.86 30.48 168.74 -92.48 151.84 -55.09 -166.05 106.78 168.16 26.07 7.69 -11.47 1.42 166.37 -3.25 
DOCKED: USER  keepresnum = 1 
DOCKED: USER  
DOCKED: REMARK  24 active torsions:
DOCKED: REMARK  status: ('A' for Active; 'I' for Inactive)
DOCKED: REMARK    1  A    between atoms: C_1  and  O_7 
DOCKED: REMARK    2  A    between atoms: C_2  and  O_12 
DOCKED: REMARK    3  A    between atoms: C_3  and  O_17 
DOCKED: REMARK    4  A    between atoms: C_4  and  O_22 
DOCKED: REMARK    5  A    between atoms: C_5  and  O_27 
DOCKED: REMARK    6  A    between atoms: C_6  and  O_32 
DOCKED: REMARK    7  A    between atoms: O_7  and  P_8 
DOCKED: REMARK    8  A    between atoms: P_8  and  O_10 
DOCKED: REMARK    9  A    between atoms: P_8  and  O_11 
DOCKED: REMARK   10  A    between atoms: O_12  and  P_13 
DOCKED: REMARK   11  A    between atoms: P_13  and  O_15 
DOCKED: REMARK   12  A    between atoms: P_13  and  O_16 
DOCKED: REMARK   13  A    between atoms: O_17  and  P_18 
DOCKED: REMARK   14  A    between atoms: P_18  and  O_20 
DOCKED: REMARK   15  A    between atoms: P_18  and  O_21 
DOCKED: REMARK   16  A    between atoms: O_22  and  P_23 
DOCKED: REMARK   17  A    between atoms: P_23  and  O_25 
DOCKED: REMARK   18  A    between atoms: P_23  and  O_26 
DOCKED: REMARK   19  A    between atoms: O_27  and  P_28 
DOCKED: REMARK   20  A    between atoms: P_28  and  O_30 
DOCKED: REMARK   21  A    between atoms: P_28  and  O_31 
DOCKED: REMARK   22  A    between atoms: O_32  and  P_33 
DOCKED: REMARK   23  A    between atoms: P_33  and  O_35 
DOCKED: REMARK   24  A    between atoms: P_33  and  O_36 
DOCKED: USER                              x       y       z     vdW  Elec       q    Type
DOCKED: USER                           _______ _______ _______ _____ _____    ______ ____
DOCKED: ROOT
DOCKED: ATOM      1  C   UNL d   1     -11.435 -12.468  17.983 -0.11 +0.00    +0.194 C 
DOCKED: ATOM      2  C   UNL d   1     -10.862 -11.074  17.722 -0.13 +0.04    +0.194 C 
DOCKED: ATOM      3  C   UNL d   1      -9.533 -10.862  18.451 -0.06 +0.03    +0.194 C 
DOCKED: ATOM      4  C   UNL d   1      -8.514 -11.966  18.178 -0.06 +0.03    +0.194 C 
DOCKED: ATOM      5  C   UNL d   1      -9.075 -13.376  18.315 -0.05 +0.02    +0.194 C 
DOCKED: ATOM      6  C   UNL d   1     -10.433 -13.570  17.637 -0.12 +0.00    +0.194 C 
DOCKED: ENDROOT
DOCKED: BRANCH   1   7
DOCKED: ATOM      7  O   UNL d   1     -12.574 -12.647  17.138 -0.16 +0.03    -0.278 OA
DOCKED: BRANCH   7   8
DOCKED: ATOM      8  P   UNL d   1     -14.023 -12.362  17.746 -0.12 -0.03    +0.473 P 
DOCKED: ATOM      9  O   UNL d   1     -14.230 -12.848  19.138 -0.04 +0.01    -0.228 OA
DOCKED: BRANCH   8  10
DOCKED: ATOM     10  O   UNL d   1     -14.201 -10.783  17.599 -0.14 -0.11    -0.303 OA
DOCKED: ATOM     11  H   UNL d   1     -13.724 -10.473  16.807 +0.08 +0.10    +0.222 HD
DOCKED: ENDBRANCH   8  10
DOCKED: BRANCH   8  12
DOCKED: ATOM     12  O   UNL d   1     -15.043 -12.914  16.660 -0.22 +0.16    -0.303 OA
DOCKED: ATOM     13  H   UNL d   1     -14.818 -13.818  16.344 -0.33 -0.29    +0.222 HD
DOCKED: ENDBRANCH   8  12
DOCKED: ENDBRANCH   7   8
DOCKED: ENDBRANCH   1   7
DOCKED: BRANCH   2  14
DOCKED: ATOM     14  O   UNL d   1     -10.640 -10.916  16.315 -0.26 -0.12    -0.278 OA
DOCKED: BRANCH  14  15
DOCKED: ATOM     15  P   UNL d   1     -11.023  -9.494  15.686 -0.28 +0.21    +0.473 P 
DOCKED: ATOM     16  O   UNL d   1     -11.405  -9.480  14.239 -0.46 -0.11    -0.228 OA
DOCKED: BRANCH  15  17
DOCKED: ATOM     17  O   UNL d   1     -12.180  -8.949  16.635 -0.21 -0.14    -0.303 OA
DOCKED: ATOM     18  H   UNL d   1     -12.517  -9.654  17.220 +0.08 +0.09    +0.222 HD
DOCKED: ENDBRANCH  15  17
DOCKED: BRANCH  15  19
DOCKED: ATOM     19  O   UNL d   1      -9.810  -8.545  16.083 -0.24 -0.09    -0.303 OA
DOCKED: ATOM     20  H   UNL d   1      -9.957  -8.113  16.945 +0.12 +0.04    +0.222 HD
DOCKED: ENDBRANCH  15  19
DOCKED: ENDBRANCH  14  15
DOCKED: ENDBRANCH   2  14
DOCKED: BRANCH   6  21
DOCKED: ATOM     21  O   UNL d   1     -10.970 -14.794  18.134 -0.06 +0.03    -0.278 OA
DOCKED: BRANCH  21  22
DOCKED: ATOM     22  P   UNL d   1     -11.162 -16.033  17.148 -0.12 -0.13    +0.473 P 
DOCKED: ATOM     23  O   UNL d   1     -11.323 -15.756  15.691 -0.30 +0.09    -0.228 OA
DOCKED: BRANCH  22  24
DOCKED: ATOM     24  O   UNL d   1      -9.909 -16.942  17.520 +0.00 +0.09    -0.303 OA
DOCKED: ATOM     25  H   UNL d   1      -9.122 -16.598  17.027 -0.52 -0.11    +0.222 HD
DOCKED: ENDBRANCH  22  24
DOCKED: BRANCH  22  26
DOCKED: ATOM     26  O   UNL d   1     -12.366 -16.825  17.850 -0.05 +0.08    -0.303 OA
DOCKED: ATOM     27  H   UNL d   1     -13.190 -16.671  17.345 +0.05 -0.09    +0.222 HD
DOCKED: ENDBRANCH  22  26
DOCKED: ENDBRANCH  21  22
DOCKED: ENDBRANCH   6  21
DOCKED: BRANCH   3  28
DOCKED: ATOM     28  O   UNL d   1      -8.948  -9.672  17.938 -0.10 -0.04    -0.278 OA
DOCKED: BRANCH  28  29
DOCKED: ATOM     29  P   UNL d   1      -8.813  -8.380  18.859 -0.08 +0.01    +0.473 P 
DOCKED: ATOM     30  O   UNL d   1      -7.947  -7.298  18.322 -0.30 +0.02    -0.228 OA
DOCKED: BRANCH  29  31
DOCKED: ATOM     31  O   UNL d   1     -10.359  -8.031  19.078 -0.05 -0.03    -0.303 OA
DOCKED: ATOM     32  H   UNL d   1     -10.839  -8.187  18.232 +0.09 +0.04    +0.222 HD
DOCKED: ENDBRANCH  29  31
DOCKED: BRANCH  29  33
DOCKED: ATOM     33  O   UNL d   1      -8.393  -9.010  20.259 -0.02 +0.00    -0.303 OA
DOCKED: ATOM     34  H   UNL d   1      -7.793  -9.779  20.099 +0.04 -0.00    +0.222 HD
DOCKED: ENDBRANCH  29  33
DOCKED: ENDBRANCH  28  29
DOCKED: ENDBRANCH   3  28
DOCKED: BRANCH   5  35
DOCKED: ATOM     35  O   UNL d   1      -8.147 -14.228  17.647 -0.07 -0.03    -0.278 OA
DOCKED: BRANCH  35  36
DOCKED: ATOM     36  P   UNL d   1      -7.891 -14.068  16.080 -0.20 +0.24    +0.473 P 
DOCKED: ATOM     37  O   UNL d   1      -6.530 -14.465  15.605 -0.27 -0.07    -0.228 OA
DOCKED: BRANCH  36  38
DOCKED: ATOM     38  O   UNL d   1      -9.077 -14.935  15.466 -0.31 -0.06    -0.303 OA
DOCKED: ATOM     39  H   UNL d   1      -9.139 -15.785  15.953 -0.46 -0.10    +0.222 HD
DOCKED: ENDBRANCH  36  38
DOCKED: BRANCH  36  40
DOCKED: ATOM     40  O   UNL d   1      -8.338 -12.565  15.815 -0.63 -0.45    -0.303 OA
DOCKED: ATOM     41  H   UNL d   1      -7.619 -11.928  16.025 +0.11 +0.22    +0.222 HD
DOCKED: ENDBRANCH  36  40
DOCKED: ENDBRANCH  35  36
DOCKED: ENDBRANCH   5  35
DOCKED: BRANCH   4  42
DOCKED: ATOM     42  O   UNL d   1      -7.480 -11.827  19.158 -0.02 -0.01    -0.278 OA
DOCKED: BRANCH  42  43
DOCKED: ATOM     43  P   UNL d   1      -6.013 -11.425  18.679 -0.06 +0.02    +0.473 P 
DOCKED: ATOM     44  O   UNL d   1      -4.863 -11.997  19.434 -0.07 +0.01    -0.228 OA
DOCKED: BRANCH  43  45
DOCKED: ATOM     45  O   UNL d   1      -6.032 -11.810  17.135 -0.13 -0.06    -0.303 OA
DOCKED: ATOM     46  H   UNL d   1      -6.470 -12.671  16.986 +0.08 +0.06    +0.222 HD
DOCKED: ENDBRANCH  43  45
DOCKED: BRANCH  43  47
DOCKED: ATOM     47  O   UNL d   1      -6.073  -9.825  18.617 -0.16 +0.00    -0.303 OA
DOCKED: ATOM     48  H   UNL d   1      -7.006  -9.534  18.688 +0.08 -0.00    +0.222 HD
DOCKED: ENDBRANCH  43  47
DOCKED: ENDBRANCH  42  43
DOCKED: ENDBRANCH   4  42
DOCKED: TORSDOF 24
DOCKED: TER
DOCKED: ENDMDL
________________________________________________________________________________


	BEGINNING GENETIC ALGORITHM DOCKING 65 of 100
Run: 65 Seed: 97533035 1271367861 [ Run 65 of 100 GA/GALS ]
Beginning LAMARCKIAN GENETIC ALGORITHM (LGA), with a maximum of 25000000 energy evaluations.

Final-Value: -18.718


	FINAL GENETIC ALGORITHM DOCKED STATE
	_______________________________________________


Detailed state:  trans 7.486 -12.349 -5.895 quatxyzw -0.125882 0.870832 -0.459615 0.120660 center 0.035 0.082 -0.065 ntor 24 179.8990 5.9010 47.5159 12.4732 -79.8074 -172.3673 -145.3394 -88.6448 26.7375 -4.9498 82.8001 -146.7367 59.3880 156.4881 -178.3605 25.3861 155.2763 106.2722 47.7857 4.3829 -179.7704 28.7299 -10.2162 -8.3540
State:	  7.486 -12.349  -5.895  -0.127  0.877 -0.463 166.140    179.90    5.90   47.52   12.47  -79.81 -172.37 -145.34  -88.64   26.74   -4.95   82.80 -146.74   59.39  156.49 -178.36   25.39  155.28  106.27   47.79    4.38 -179.77   28.73  -10.22   -8.35

DOCKED: MODEL       65
DOCKED: USER    Run = 65
DOCKED: USER    DPF = D:/Protein_go_brrr/autodock/final/AncMH_nat/IHP/dock.dpf
DOCKED: USER  
DOCKED: USER    Estimated Free Energy of Binding    =   +1.62 kcal/mol  [=(1)+(2)+(3)-(4)]
DOCKED: USER    
DOCKED: USER    (1) Final Intermolecular Energy     =   -5.54 kcal/mol
DOCKED: USER        vdW + Hbond + desolv Energy     =   -5.21 kcal/mol
DOCKED: USER        Electrostatic Energy            =   -0.33 kcal/mol
DOCKED: USER    (2) Final Total Internal Energy     =  -13.18 kcal/mol
DOCKED: USER    (3) Torsional Free Energy           =   +7.16 kcal/mol
DOCKED: USER    (4) Unbound System's Energy  [=(2)] =  -13.18 kcal/mol
DOCKED: USER    
DOCKED: USER    
DOCKED: USER    NEWDPF move IHP_ideal_opt.pdbqt
DOCKED: USER    NEWDPF about 0.035000 0.082000 -0.065000
DOCKED: USER    NEWDPF tran0 7.485516 -12.348963 -5.895303
DOCKED: USER    NEWDPF quaternion0 -0.125882 0.870832 -0.459615 0.120660
DOCKED: USER    NEWDPF axisangle0 -0.126808 0.877242 -0.462997 166.139625
DOCKED: USER    NEWDPF quat0 -0.126808 0.877242 -0.462997 166.139625
DOCKED: USER    NEWDPF dihe0 179.90 5.90 47.52 12.47 -79.81 -172.37 -145.34 -88.64 26.74 -4.95 82.80 -146.74 59.39 156.49 -178.36 25.39 155.28 106.27 47.79 4.38 -179.77 28.73 -10.22 -8.35 
DOCKED: USER  keepresnum = 1 
DOCKED: USER  
DOCKED: REMARK  24 active torsions:
DOCKED: REMARK  status: ('A' for Active; 'I' for Inactive)
DOCKED: REMARK    1  A    between atoms: C_1  and  O_7 
DOCKED: REMARK    2  A    between atoms: C_2  and  O_12 
DOCKED: REMARK    3  A    between atoms: C_3  and  O_17 
DOCKED: REMARK    4  A    between atoms: C_4  and  O_22 
DOCKED: REMARK    5  A    between atoms: C_5  and  O_27 
DOCKED: REMARK    6  A    between atoms: C_6  and  O_32 
DOCKED: REMARK    7  A    between atoms: O_7  and  P_8 
DOCKED: REMARK    8  A    between atoms: P_8  and  O_10 
DOCKED: REMARK    9  A    between atoms: P_8  and  O_11 
DOCKED: REMARK   10  A    between atoms: O_12  and  P_13 
DOCKED: REMARK   11  A    between atoms: P_13  and  O_15 
DOCKED: REMARK   12  A    between atoms: P_13  and  O_16 
DOCKED: REMARK   13  A    between atoms: O_17  and  P_18 
DOCKED: REMARK   14  A    between atoms: P_18  and  O_20 
DOCKED: REMARK   15  A    between atoms: P_18  and  O_21 
DOCKED: REMARK   16  A    between atoms: O_22  and  P_23 
DOCKED: REMARK   17  A    between atoms: P_23  and  O_25 
DOCKED: REMARK   18  A    between atoms: P_23  and  O_26 
DOCKED: REMARK   19  A    between atoms: O_27  and  P_28 
DOCKED: REMARK   20  A    between atoms: P_28  and  O_30 
DOCKED: REMARK   21  A    between atoms: P_28  and  O_31 
DOCKED: REMARK   22  A    between atoms: O_32  and  P_33 
DOCKED: REMARK   23  A    between atoms: P_33  and  O_35 
DOCKED: REMARK   24  A    between atoms: P_33  and  O_36 
DOCKED: USER                              x       y       z     vdW  Elec       q    Type
DOCKED: USER                           _______ _______ _______ _____ _____    ______ ____
DOCKED: ROOT
DOCKED: ATOM      1  C   UNL d   1       6.527 -13.627  -5.237 -0.13 +0.00    +0.194 C 
DOCKED: ATOM      2  C   UNL d   1       8.000 -13.624  -4.822 -0.13 -0.01    +0.194 C 
DOCKED: ATOM      3  C   UNL d   1       8.921 -13.327  -6.007 -0.09 -0.04    +0.194 C 
DOCKED: ATOM      4  C   UNL d   1       8.534 -12.062  -6.768 -0.13 -0.05    +0.194 C 
DOCKED: ATOM      5  C   UNL d   1       7.050 -11.969  -7.103 -0.15 -0.02    +0.194 C 
DOCKED: ATOM      6  C   UNL d   1       6.129 -12.325  -5.934 -0.19 +0.02    +0.194 C 
DOCKED: ENDROOT
DOCKED: BRANCH   1   7
DOCKED: ATOM      7  O   UNL d   1       5.731 -13.737  -4.055 -0.09 -0.07    -0.278 OA
DOCKED: BRANCH   7   8
DOCKED: ATOM      8  P   UNL d   1       5.647 -15.157  -3.326 -0.07 -0.02    +0.473 P 
DOCKED: ATOM      9  O   UNL d   1       6.322 -15.227  -2.001 -0.06 -0.01    -0.228 OA
DOCKED: BRANCH   8  10
DOCKED: ATOM     10  O   UNL d   1       4.083 -15.461  -3.251 -0.07 +0.16    -0.303 OA
DOCKED: ATOM     11  H   UNL d   1       3.616 -14.942  -3.933 -0.45 -0.36    +0.222 HD
DOCKED: ENDBRANCH   8  10
DOCKED: BRANCH   8  12
DOCKED: ATOM     12  O   UNL d   1       6.139 -16.208  -4.412 -0.02 +0.05    -0.303 OA
DOCKED: ATOM     13  H   UNL d   1       5.816 -16.005  -5.318 +0.03 -0.05    +0.222 HD
DOCKED: ENDBRANCH   8  12
DOCKED: ENDBRANCH   7   8
DOCKED: ENDBRANCH   1   7
DOCKED: BRANCH   2  14
DOCKED: ATOM     14  O   UNL d   1       8.201 -12.616  -3.823 -0.23 +0.01    -0.278 OA
DOCKED: BRANCH  14  15
DOCKED: ATOM     15  P   UNL d   1       9.101 -13.027  -2.564 -0.12 -0.07    +0.473 P 
DOCKED: ATOM     16  O   UNL d   1       8.759 -12.385  -1.256 -0.29 +0.03    -0.228 OA
DOCKED: BRANCH  15  17
DOCKED: ATOM     17  O   UNL d   1       9.000 -14.616  -2.517 -0.04 +0.03    -0.303 OA
DOCKED: ATOM     18  H   UNL d   1       8.072 -14.911  -2.589 +0.04 -0.01    +0.222 HD
DOCKED: ENDBRANCH  15  17
DOCKED: BRANCH  15  19
DOCKED: ATOM     19  O   UNL d   1      10.598 -12.817  -3.060 -0.19 +0.10    -0.303 OA
DOCKED: ATOM     20  H   UNL d   1      10.745 -13.214  -3.938 +0.05 -0.06    +0.222 HD
DOCKED: ENDBRANCH  15  19
DOCKED: ENDBRANCH  14  15
DOCKED: ENDBRANCH   2  14
DOCKED: BRANCH   6  21
DOCKED: ATOM     21  O   UNL d   1       4.828 -12.526  -6.482 -0.20 +0.01    -0.278 OA
DOCKED: BRANCH  21  22
DOCKED: ATOM     22  P   UNL d   1       4.487 -13.891  -7.234 -0.11 -0.17    +0.473 P 
DOCKED: ATOM     23  O   UNL d   1       3.508 -13.852  -8.358 -0.05 +0.10    -0.228 OA
DOCKED: BRANCH  22  24
DOCKED: ATOM     24  O   UNL d   1       5.937 -14.416  -7.628 -0.01 +0.05    -0.303 OA
DOCKED: ATOM     25  H   UNL d   1       5.868 -14.886  -8.498 +0.02 -0.04    +0.222 HD
DOCKED: ENDBRANCH  22  24
DOCKED: BRANCH  22  26
DOCKED: ATOM     26  O   UNL d   1       4.110 -14.852  -6.007 -0.12 +0.24    -0.303 OA
DOCKED: ATOM     27  H   UNL d   1       3.979 -14.311  -5.202 -0.47 -0.24    +0.222 HD
DOCKED: ENDBRANCH  22  26
DOCKED: ENDBRANCH  21  22
DOCKED: ENDBRANCH   6  21
DOCKED: BRANCH   3  28
DOCKED: ATOM     28  O   UNL d   1      10.219 -13.071  -5.486 -0.10 +0.08    -0.278 OA
DOCKED: BRANCH  28  29
DOCKED: ATOM     29  P   UNL d   1      11.510 -13.644  -6.223 -0.02 -0.10    +0.473 P 
DOCKED: ATOM     30  O   UNL d   1      11.246 -14.447  -7.444 -0.01 +0.04    -0.228 OA
DOCKED: BRANCH  29  31
DOCKED: ATOM     31  O   UNL d   1      12.348 -12.293  -6.409 -0.06 +0.08    -0.303 OA
DOCKED: ATOM     32  H   UNL d   1      12.147 -11.919  -7.298 +0.06 -0.06    +0.222 HD
DOCKED: ENDBRANCH  29  31
DOCKED: BRANCH  29  33
DOCKED: ATOM     33  O   UNL d   1      12.278 -14.373  -5.034 -0.01 +0.05    -0.303 OA
DOCKED: ATOM     34  H   UNL d   1      12.069 -13.910  -4.186 +0.04 -0.04    +0.222 HD
DOCKED: ENDBRANCH  29  33
DOCKED: ENDBRANCH  28  29
DOCKED: ENDBRANCH   3  28
DOCKED: BRANCH   5  35
DOCKED: ATOM     35  O   UNL d   1       6.811 -10.600  -7.423 -0.20 +0.03    -0.278 OA
DOCKED: BRANCH  35  36
DOCKED: ATOM     36  P   UNL d   1       6.248 -10.196  -8.860 -0.13 -0.04    +0.473 P 
DOCKED: ATOM     37  O   UNL d   1       6.460  -8.770  -9.259 -0.23 +0.02    -0.228 OA
DOCKED: BRANCH  36  38
DOCKED: ATOM     38  O   UNL d   1       6.973 -11.255  -9.803 -0.04 +0.03    -0.303 OA
DOCKED: ATOM     39  H   UNL d   1       7.913 -11.333  -9.534 +0.07 -0.03    +0.222 HD
DOCKED: ENDBRANCH  36  38
DOCKED: BRANCH  36  40
DOCKED: ATOM     40  O   UNL d   1       4.744 -10.711  -8.792 -0.64 -0.04    -0.303 OA
DOCKED: ATOM     41  H   UNL d   1       4.688 -11.624  -8.432 +0.10 +0.03    +0.222 HD
DOCKED: ENDBRANCH  36  40
DOCKED: ENDBRANCH  35  36
DOCKED: ENDBRANCH   5  35
DOCKED: BRANCH   4  42
DOCKED: ATOM     42  O   UNL d   1       9.244 -12.091  -8.011 -0.06 +0.06    -0.278 OA
DOCKED: BRANCH  42  43
DOCKED: ATOM     43  P   UNL d   1      10.268 -10.914  -8.342 -0.10 -0.16    +0.473 P 
DOCKED: ATOM     44  O   UNL d   1      11.414 -11.233  -9.239 -0.05 +0.08    -0.228 OA
DOCKED: BRANCH  43  45
DOCKED: ATOM     45  O   UNL d   1       9.314  -9.765  -8.889 -0.17 +0.10    -0.303 OA
DOCKED: ATOM     46  H   UNL d   1       8.371  -9.984  -8.747 +0.10 -0.05    +0.222 HD
DOCKED: ENDBRANCH  43  45
DOCKED: BRANCH  43  47
DOCKED: ATOM     47  O   UNL d   1      10.660 -10.351  -6.893 -0.09 +0.16    -0.303 OA
DOCKED: ATOM     48  H   UNL d   1      10.642 -11.086  -6.246 -0.43 -0.14    +0.222 HD
DOCKED: ENDBRANCH  43  47
DOCKED: ENDBRANCH  42  43
DOCKED: ENDBRANCH   4  42
DOCKED: TORSDOF 24
DOCKED: TER
DOCKED: ENDMDL
________________________________________________________________________________


	BEGINNING GENETIC ALGORITHM DOCKING 66 of 100
Run: 66 Seed: 198493892 1776448191 [ Run 66 of 100 GA/GALS ]
Beginning LAMARCKIAN GENETIC ALGORITHM (LGA), with a maximum of 25000000 energy evaluations.

Final-Value: -17.745


	FINAL GENETIC ALGORITHM DOCKED STATE
	_______________________________________________


Detailed state:  trans -3.409 -16.013 -6.060 quatxyzw -0.065415 -0.801907 0.476260 -0.354742 center 0.035 0.082 -0.065 ntor 24 106.7536 105.8226 105.7132 1.7678 98.1677 -141.2484 -70.7583 -6.7182 133.1165 19.5475 39.8831 -145.8172 -71.2223 40.3424 -6.2449 119.5029 114.4284 -50.6357 -148.9605 -22.8178 139.0423 36.5418 -37.5881 167.3557
State:	 -3.409 -16.013  -6.060  -0.070 -0.858  0.509 -138.445    106.75  105.82  105.71    1.77   98.17 -141.25  -70.76   -6.72  133.12   19.55   39.88 -145.82  -71.22   40.34   -6.24  119.50  114.43  -50.64 -148.96  -22.82  139.04   36.54  -37.59  167.36

DOCKED: MODEL       66
DOCKED: USER    Run = 66
DOCKED: USER    DPF = D:/Protein_go_brrr/autodock/final/AncMH_nat/IHP/dock.dpf
DOCKED: USER  
DOCKED: USER    Estimated Free Energy of Binding    =   +3.41 kcal/mol  [=(1)+(2)+(3)-(4)]
DOCKED: USER    
DOCKED: USER    (1) Final Intermolecular Energy     =   -3.75 kcal/mol
DOCKED: USER        vdW + Hbond + desolv Energy     =   -3.31 kcal/mol
DOCKED: USER        Electrostatic Energy            =   -0.44 kcal/mol
DOCKED: USER    (2) Final Total Internal Energy     =  -14.00 kcal/mol
DOCKED: USER    (3) Torsional Free Energy           =   +7.16 kcal/mol
DOCKED: USER    (4) Unbound System's Energy  [=(2)] =  -14.00 kcal/mol
DOCKED: USER    
DOCKED: USER    
DOCKED: USER    NEWDPF move IHP_ideal_opt.pdbqt
DOCKED: USER    NEWDPF about 0.035000 0.082000 -0.065000
DOCKED: USER    NEWDPF tran0 -3.409224 -16.013347 -6.059633
DOCKED: USER    NEWDPF quaternion0 -0.065415 -0.801907 0.476260 -0.354742
DOCKED: USER    NEWDPF axisangle0 -0.069965 -0.857688 0.509388 -138.444714
DOCKED: USER    NEWDPF quat0 -0.069965 -0.857688 0.509388 -138.444714
DOCKED: USER    NEWDPF dihe0 106.75 105.82 105.71 1.77 98.17 -141.25 -70.76 -6.72 133.12 19.55 39.88 -145.82 -71.22 40.34 -6.24 119.50 114.43 -50.64 -148.96 -22.82 139.04 36.54 -37.59 167.36 
DOCKED: USER  keepresnum = 1 
DOCKED: USER  
DOCKED: REMARK  24 active torsions:
DOCKED: REMARK  status: ('A' for Active; 'I' for Inactive)
DOCKED: REMARK    1  A    between atoms: C_1  and  O_7 
DOCKED: REMARK    2  A    between atoms: C_2  and  O_12 
DOCKED: REMARK    3  A    between atoms: C_3  and  O_17 
DOCKED: REMARK    4  A    between atoms: C_4  and  O_22 
DOCKED: REMARK    5  A    between atoms: C_5  and  O_27 
DOCKED: REMARK    6  A    between atoms: C_6  and  O_32 
DOCKED: REMARK    7  A    between atoms: O_7  and  P_8 
DOCKED: REMARK    8  A    between atoms: P_8  and  O_10 
DOCKED: REMARK    9  A    between atoms: P_8  and  O_11 
DOCKED: REMARK   10  A    between atoms: O_12  and  P_13 
DOCKED: REMARK   11  A    between atoms: P_13  and  O_15 
DOCKED: REMARK   12  A    between atoms: P_13  and  O_16 
DOCKED: REMARK   13  A    between atoms: O_17  and  P_18 
DOCKED: REMARK   14  A    between atoms: P_18  and  O_20 
DOCKED: REMARK   15  A    between atoms: P_18  and  O_21 
DOCKED: REMARK   16  A    between atoms: O_22  and  P_23 
DOCKED: REMARK   17  A    between atoms: P_23  and  O_25 
DOCKED: REMARK   18  A    between atoms: P_23  and  O_26 
DOCKED: REMARK   19  A    between atoms: O_27  and  P_28 
DOCKED: REMARK   20  A    between atoms: P_28  and  O_30 
DOCKED: REMARK   21  A    between atoms: P_28  and  O_31 
DOCKED: REMARK   22  A    between atoms: O_32  and  P_33 
DOCKED: REMARK   23  A    between atoms: P_33  and  O_35 
DOCKED: REMARK   24  A    between atoms: P_33  and  O_36 
DOCKED: USER                              x       y       z     vdW  Elec       q    Type
DOCKED: USER                           _______ _______ _______ _____ _____    ______ ____
DOCKED: ROOT
DOCKED: ATOM      1  C   UNL d   1      -4.629 -16.504  -4.938 -0.12 +0.06    +0.194 C 
DOCKED: ATOM      2  C   UNL d   1      -3.285 -17.224  -4.811 -0.07 +0.02    +0.194 C 
DOCKED: ATOM      3  C   UNL d   1      -2.714 -17.605  -6.178 -0.03 -0.02    +0.194 C 
DOCKED: ATOM      4  C   UNL d   1      -2.649 -16.430  -7.151 -0.06 -0.05    +0.194 C 
DOCKED: ATOM      5  C   UNL d   1      -3.933 -15.614  -7.225 -0.06 -0.04    +0.194 C 
DOCKED: ATOM      6  C   UNL d   1      -4.537 -15.285  -5.858 -0.16 -0.03    +0.194 C 
DOCKED: ENDROOT
DOCKED: BRANCH   1   7
DOCKED: ATOM      7  O   UNL d   1      -5.007 -16.032  -3.643 -0.22 -0.23    -0.278 OA
DOCKED: BRANCH   7   8
DOCKED: ATOM      8  P   UNL d   1      -4.505 -14.586  -3.185 -0.25 +0.09    +0.473 P 
DOCKED: ATOM      9  O   UNL d   1      -3.337 -14.056  -3.939 -0.21 -0.00    -0.228 OA
DOCKED: BRANCH   8  10
DOCKED: ATOM     10  O   UNL d   1      -5.804 -13.668  -3.311 -0.25 +0.10    -0.303 OA
DOCKED: ATOM     11  H   UNL d   1      -6.200 -13.782  -4.195 -0.46 -0.33    +0.222 HD
DOCKED: ENDBRANCH   8  10
DOCKED: BRANCH   8  12
DOCKED: ATOM     12  O   UNL d   1      -4.325 -14.692  -1.610 -0.29 -0.10    -0.303 OA
DOCKED: ATOM     13  H   UNL d   1      -3.663 -15.369  -1.342 +0.12 +0.07    +0.222 HD
DOCKED: ENDBRANCH   8  12
DOCKED: ENDBRANCH   7   8
DOCKED: ENDBRANCH   1   7
DOCKED: BRANCH   2  14
DOCKED: ATOM     14  O   UNL d   1      -2.352 -16.358  -4.151 -0.12 +0.03    -0.278 OA
DOCKED: BRANCH  14  15
DOCKED: ATOM     15  P   UNL d   1      -1.945 -16.753  -2.654 -0.06 +0.02    +0.473 P 
DOCKED: ATOM     16  O   UNL d   1      -0.684 -17.541  -2.486 -0.07 +0.01    -0.228 OA
DOCKED: BRANCH  15  17
DOCKED: ATOM     17  O   UNL d   1      -1.909 -15.360  -1.882 -0.18 -0.03    -0.303 OA
DOCKED: ATOM     18  H   UNL d   1      -2.284 -14.644  -2.431 +0.13 +0.03    +0.222 HD
DOCKED: ENDBRANCH  15  17
DOCKED: BRANCH  15  19
DOCKED: ATOM     19  O   UNL d   1      -3.256 -17.420  -2.049 -0.11 -0.12    -0.303 OA
DOCKED: ATOM     20  H   UNL d   1      -4.018 -16.812  -2.083 +0.08 +0.16    +0.222 HD
DOCKED: ENDBRANCH  15  19
DOCKED: ENDBRANCH  14  15
DOCKED: ENDBRANCH   2  14
DOCKED: BRANCH   6  21
DOCKED: ATOM     21  O   UNL d   1      -5.870 -14.838  -6.093 -0.10 +0.19    -0.278 OA
DOCKED: BRANCH  21  22
DOCKED: ATOM     22  P   UNL d   1      -6.739 -15.511  -7.250 -0.03 -0.19    +0.473 P 
DOCKED: ATOM     23  O   UNL d   1      -6.385 -16.894  -7.682 -0.02 +0.02    -0.228 OA
DOCKED: BRANCH  22  24
DOCKED: ATOM     24  O   UNL d   1      -8.217 -15.347  -6.684 -0.08 +0.21    -0.303 OA
DOCKED: ATOM     25  H   UNL d   1      -8.253 -14.511  -6.153 -0.48 -0.46    +0.222 HD
DOCKED: ENDBRANCH  22  24
DOCKED: BRANCH  22  26
DOCKED: ATOM     26  O   UNL d   1      -6.693 -14.385  -8.389 -0.07 +0.12    -0.303 OA
DOCKED: ATOM     27  H   UNL d   1      -5.778 -14.050  -8.474 +0.06 -0.07    +0.222 HD
DOCKED: ENDBRANCH  22  26
DOCKED: ENDBRANCH  21  22
DOCKED: ENDBRANCH   6  21
DOCKED: BRANCH   3  28
DOCKED: ATOM     28  O   UNL d   1      -1.365 -18.007  -5.982 -0.03 +0.08    -0.278 OA
DOCKED: BRANCH  28  29
DOCKED: ATOM     29  P   UNL d   1      -0.720 -19.137  -6.901 +0.00 -0.09    +0.473 P 
DOCKED: ATOM     30  O   UNL d   1       0.016 -18.648  -8.095 -0.01 +0.06    -0.228 OA
DOCKED: BRANCH  29  31
DOCKED: ATOM     31  O   UNL d   1       0.126 -19.940  -5.806 -0.00 +0.05    -0.303 OA
DOCKED: ATOM     32  H   UNL d   1       0.253 -19.360  -5.020 +0.01 -0.04    +0.222 HD
DOCKED: ENDBRANCH  29  31
DOCKED: BRANCH  29  33
DOCKED: ATOM     33  O   UNL d   1      -1.960 -20.101  -7.165 +0.00 +0.02    -0.303 OA
DOCKED: ATOM     34  H   UNL d   1      -2.717 -19.564  -7.505 +0.01 -0.01    +0.222 HD
DOCKED: ENDBRANCH  29  33
DOCKED: ENDBRANCH  28  29
DOCKED: ENDBRANCH   3  28
DOCKED: BRANCH   5  35
DOCKED: ATOM     35  O   UNL d   1      -3.569 -14.375  -7.832 -0.09 +0.07    -0.278 OA
DOCKED: BRANCH  35  36
DOCKED: ATOM     36  P   UNL d   1      -3.699 -14.184  -9.410 -0.02 -0.10    +0.473 P 
DOCKED: ATOM     37  O   UNL d   1      -3.777 -12.768  -9.884 -0.10 +0.04    -0.228 OA
DOCKED: BRANCH  36  38
DOCKED: ATOM     38  O   UNL d   1      -2.427 -14.983  -9.940 -0.05 +0.09    -0.303 OA
DOCKED: ATOM     39  H   UNL d   1      -2.518 -15.929  -9.698 +0.03 -0.05    +0.222 HD
DOCKED: ENDBRANCH  36  38
DOCKED: BRANCH  36  40
DOCKED: ATOM     40  O   UNL d   1      -4.923 -15.134  -9.768 -0.00 +0.05    -0.303 OA
DOCKED: ATOM     41  H   UNL d   1      -5.059 -15.827  -9.084 +0.03 -0.03    +0.222 HD
DOCKED: ENDBRANCH  36  40
DOCKED: ENDBRANCH  35  36
DOCKED: ENDBRANCH   5  35
DOCKED: BRANCH   4  42
DOCKED: ATOM     42  O   UNL d   1      -2.426 -16.983  -8.453 -0.01 +0.06    -0.278 OA
DOCKED: BRANCH  42  43
DOCKED: ATOM     43  P   UNL d   1      -3.451 -18.067  -9.017 +0.01 -0.05    +0.473 P 
DOCKED: ATOM     44  O   UNL d   1      -4.531 -18.531  -8.102 +0.00 +0.01    -0.228 OA
DOCKED: BRANCH  43  45
DOCKED: ATOM     45  O   UNL d   1      -3.978 -17.387 -10.355 +0.00 +0.03    -0.303 OA
DOCKED: ATOM     46  H   UNL d   1      -4.021 -16.414 -10.269 +0.01 -0.03    +0.222 HD
DOCKED: ENDBRANCH  43  45
DOCKED: BRANCH  43  47
DOCKED: ATOM     47  O   UNL d   1      -2.490 -19.215  -9.591 +0.00 +0.03    -0.303 OA
DOCKED: ATOM     48  H   UNL d   1      -1.682 -19.265  -9.040 +0.01 -0.03    +0.222 HD
DOCKED: ENDBRANCH  43  47
DOCKED: ENDBRANCH  42  43
DOCKED: ENDBRANCH   4  42
DOCKED: TORSDOF 24
DOCKED: TER
DOCKED: ENDMDL
________________________________________________________________________________


	BEGINNING GENETIC ALGORITHM DOCKING 67 of 100
Run: 67 Seed: 1273129013 1736123792 [ Run 67 of 100 GA/GALS ]
Beginning LAMARCKIAN GENETIC ALGORITHM (LGA), with a maximum of 25000000 energy evaluations.

Final-Value: -20.373


	FINAL GENETIC ALGORITHM DOCKED STATE
	_______________________________________________


Detailed state:  trans 8.224 -10.722 -8.031 quatxyzw -0.683925 -0.672301 0.129105 0.252170 center 0.035 0.082 -0.065 ntor 24 80.7588 69.1194 147.6156 180.0000 65.9127 130.8192 -55.1367 13.9485 105.2678 -56.8024 -122.8245 -164.7805 -180.0000 -138.8292 59.1256 113.5445 170.1584 155.6903 35.5756 4.5892 -175.8439 57.2332 26.0268 -175.0337
State:	  8.224 -10.722  -8.031  -0.707 -0.695  0.133 150.788     80.76   69.12  147.62  180.00   65.91  130.82  -55.14   13.95  105.27  -56.80 -122.82 -164.78 -180.00 -138.83   59.13  113.54  170.16  155.69   35.58    4.59 -175.84   57.23   26.03 -175.03

DOCKED: MODEL       67
DOCKED: USER    Run = 67
DOCKED: USER    DPF = D:/Protein_go_brrr/autodock/final/AncMH_nat/IHP/dock.dpf
DOCKED: USER  
DOCKED: USER    Estimated Free Energy of Binding    =   -0.28 kcal/mol  [=(1)+(2)+(3)-(4)]
DOCKED: USER    Estimated Inhibition Constant, Ki   =  627.52 mM (millimolar)  [Temperature = 298.15 K]
DOCKED: USER    
DOCKED: USER    (1) Final Intermolecular Energy     =   -7.44 kcal/mol
DOCKED: USER        vdW + Hbond + desolv Energy     =   -6.94 kcal/mol
DOCKED: USER        Electrostatic Energy            =   -0.50 kcal/mol
DOCKED: USER    (2) Final Total Internal Energy     =  -12.94 kcal/mol
DOCKED: USER    (3) Torsional Free Energy           =   +7.16 kcal/mol
DOCKED: USER    (4) Unbound System's Energy  [=(2)] =  -12.94 kcal/mol
DOCKED: USER    
DOCKED: USER    
DOCKED: USER    NEWDPF move IHP_ideal_opt.pdbqt
DOCKED: USER    NEWDPF about 0.035000 0.082000 -0.065000
DOCKED: USER    NEWDPF tran0 8.224226 -10.721901 -8.031113
DOCKED: USER    NEWDPF quaternion0 -0.683925 -0.672301 0.129105 0.252170
DOCKED: USER    NEWDPF axisangle0 -0.706766 -0.694753 0.133417 150.788107
DOCKED: USER    NEWDPF quat0 -0.706766 -0.694753 0.133417 150.788107
DOCKED: USER    NEWDPF dihe0 80.76 69.12 147.62 180.00 65.91 130.82 -55.14 13.95 105.27 -56.80 -122.82 -164.78 -180.00 -138.83 59.13 113.54 170.16 155.69 35.58 4.59 -175.84 57.23 26.03 -175.03 
DOCKED: USER  keepresnum = 1 
DOCKED: USER  
DOCKED: REMARK  24 active torsions:
DOCKED: REMARK  status: ('A' for Active; 'I' for Inactive)
DOCKED: REMARK    1  A    between atoms: C_1  and  O_7 
DOCKED: REMARK    2  A    between atoms: C_2  and  O_12 
DOCKED: REMARK    3  A    between atoms: C_3  and  O_17 
DOCKED: REMARK    4  A    between atoms: C_4  and  O_22 
DOCKED: REMARK    5  A    between atoms: C_5  and  O_27 
DOCKED: REMARK    6  A    between atoms: C_6  and  O_32 
DOCKED: REMARK    7  A    between atoms: O_7  and  P_8 
DOCKED: REMARK    8  A    between atoms: P_8  and  O_10 
DOCKED: REMARK    9  A    between atoms: P_8  and  O_11 
DOCKED: REMARK   10  A    between atoms: O_12  and  P_13 
DOCKED: REMARK   11  A    between atoms: P_13  and  O_15 
DOCKED: REMARK   12  A    between atoms: P_13  and  O_16 
DOCKED: REMARK   13  A    between atoms: O_17  and  P_18 
DOCKED: REMARK   14  A    between atoms: P_18  and  O_20 
DOCKED: REMARK   15  A    between atoms: P_18  and  O_21 
DOCKED: REMARK   16  A    between atoms: O_22  and  P_23 
DOCKED: REMARK   17  A    between atoms: P_23  and  O_25 
DOCKED: REMARK   18  A    between atoms: P_23  and  O_26 
DOCKED: REMARK   19  A    between atoms: O_27  and  P_28 
DOCKED: REMARK   20  A    between atoms: P_28  and  O_30 
DOCKED: REMARK   21  A    between atoms: P_28  and  O_31 
DOCKED: REMARK   22  A    between atoms: O_32  and  P_33 
DOCKED: REMARK   23  A    between atoms: P_33  and  O_35 
DOCKED: REMARK   24  A    between atoms: P_33  and  O_36 
DOCKED: USER                              x       y       z     vdW  Elec       q    Type
DOCKED: USER                           _______ _______ _______ _____ _____    ______ ____
DOCKED: ROOT
DOCKED: ATOM      1  C   UNL d   1       7.557 -10.089  -9.493 -0.17 -0.03    +0.194 C 
DOCKED: ATOM      2  C   UNL d   1       6.627 -10.989  -8.678 -0.15 -0.02    +0.194 C 
DOCKED: ATOM      3  C   UNL d   1       7.356 -12.226  -8.149 -0.07 -0.03    +0.194 C 
DOCKED: ATOM      4  C   UNL d   1       8.641 -11.891  -7.396 -0.13 -0.05    +0.194 C 
DOCKED: ATOM      5  C   UNL d   1       9.547 -10.905  -8.123 -0.17 -0.06    +0.194 C 
DOCKED: ATOM      6  C   UNL d   1       8.808  -9.698  -8.705 -0.21 -0.05    +0.194 C 
DOCKED: ENDROOT
DOCKED: BRANCH   1   7
DOCKED: ATOM      7  O   UNL d   1       6.853  -8.883  -9.801 -0.26 +0.03    -0.278 OA
DOCKED: BRANCH   7   8
DOCKED: ATOM      8  P   UNL d   1       5.943  -8.850 -11.114 -0.15 -0.04    +0.473 P 
DOCKED: ATOM      9  O   UNL d   1       6.200  -7.706 -12.030 -0.24 -0.00    -0.228 OA
DOCKED: BRANCH   8  10
DOCKED: ATOM     10  O   UNL d   1       6.195 -10.270 -11.796 -0.06 +0.03    -0.303 OA
DOCKED: ATOM     11  H   UNL d   1       7.059 -10.266 -12.249 +0.05 -0.02    +0.222 HD
DOCKED: ENDBRANCH   8  10
DOCKED: BRANCH   8  12
DOCKED: ATOM     12  O   UNL d   1       4.452  -8.994 -10.586 -0.16 +0.05    -0.303 OA
DOCKED: ATOM     13  H   UNL d   1       4.343  -8.702  -9.652 -0.39 -0.09    +0.222 HD
DOCKED: ENDBRANCH   8  12
DOCKED: ENDBRANCH   7   8
DOCKED: ENDBRANCH   1   7
DOCKED: BRANCH   2  14
DOCKED: ATOM     14  O   UNL d   1       6.119 -10.247  -7.562 -0.22 +0.01    -0.278 OA
DOCKED: BRANCH  14  15
DOCKED: ATOM     15  P   UNL d   1       4.557 -10.406  -7.249 -0.25 +0.07    +0.473 P 
DOCKED: ATOM     16  O   UNL d   1       3.622  -9.545  -8.039 -1.24 -0.04    -0.228 OA
DOCKED: BRANCH  15  17
DOCKED: ATOM     17  O   UNL d   1       4.278 -11.962  -7.445 -0.41 -0.01    -0.303 OA
DOCKED: ATOM     18  H   UNL d   1       4.908 -12.500  -6.928 +0.10 -0.01    +0.222 HD
DOCKED: ENDBRANCH  15  17
DOCKED: BRANCH  15  19
DOCKED: ATOM     19  O   UNL d   1       4.452 -10.259  -5.668 -0.26 -0.11    -0.303 OA
DOCKED: ATOM     20  H   UNL d   1       3.882  -9.511  -5.412 -0.37 +0.03    +0.222 HD
DOCKED: ENDBRANCH  15  19
DOCKED: ENDBRANCH  14  15
DOCKED: ENDBRANCH   2  14
DOCKED: BRANCH   6  21
DOCKED: ATOM     21  O   UNL d   1       9.701  -9.071  -9.623 -0.21 +0.13    -0.278 OA
DOCKED: BRANCH  21  22
DOCKED: ATOM     22  P   UNL d   1       9.847  -9.646 -11.104 -0.08 -0.15    +0.473 P 
DOCKED: ATOM     23  O   UNL d   1       8.932  -9.120 -12.157 -0.11 +0.03    -0.228 OA
DOCKED: BRANCH  22  24
DOCKED: ATOM     24  O   UNL d   1      11.396  -9.416 -11.390 -0.09 +0.19    -0.303 OA
DOCKED: ATOM     25  H   UNL d   1      11.799  -8.994 -10.589 -0.37 -0.28    +0.222 HD
DOCKED: ENDBRANCH  22  24
DOCKED: BRANCH  22  26
DOCKED: ATOM     26  O   UNL d   1       9.789 -11.227 -10.847 -0.01 +0.07    -0.303 OA
DOCKED: ATOM     27  H   UNL d   1      10.339 -11.447 -10.067 +0.04 -0.06    +0.222 HD
DOCKED: ENDBRANCH  22  26
DOCKED: ENDBRANCH  21  22
DOCKED: ENDBRANCH   6  21
DOCKED: BRANCH   3  28
DOCKED: ATOM     28  O   UNL d   1       6.508 -12.846  -7.191 -0.05 +0.03    -0.278 OA
DOCKED: BRANCH  28  29
DOCKED: ATOM     29  P   UNL d   1       6.834 -14.311  -6.657 +0.00 -0.06    +0.473 P 
DOCKED: ATOM     30  O   UNL d   1       7.745 -14.378  -5.486 -0.04 +0.02    -0.228 OA
DOCKED: BRANCH  29  31
DOCKED: ATOM     31  O   UNL d   1       5.348 -14.870  -6.453 -0.05 +0.09    -0.303 OA
DOCKED: ATOM     32  H   UNL d   1       4.710 -14.148  -6.656 +0.05 -0.08    +0.222 HD
DOCKED: ENDBRANCH  29  31
DOCKED: BRANCH  29  33
DOCKED: ATOM     33  O   UNL d   1       7.310 -15.052  -7.983 +0.00 +0.04    -0.303 OA
DOCKED: ATOM     34  H   UNL d   1       8.210 -14.724  -8.228 +0.01 -0.03    +0.222 HD
DOCKED: ENDBRANCH  29  33
DOCKED: ENDBRANCH  28  29
DOCKED: ENDBRANCH   3  28
DOCKED: BRANCH   5  35
DOCKED: ATOM     35  O   UNL d   1      10.449 -10.408  -7.137 -0.21 +0.14    -0.278 OA
DOCKED: BRANCH  35  36
DOCKED: ATOM     36  P   UNL d   1      11.862  -9.807  -7.568 -0.20 -0.27    +0.473 P 
DOCKED: ATOM     37  O   UNL d   1      12.987 -10.056  -6.614 -0.27 +0.10    -0.228 OA
DOCKED: BRANCH  36  38
DOCKED: ATOM     38  O   UNL d   1      12.068 -10.459  -9.007 -0.09 +0.16    -0.303 OA
DOCKED: ATOM     39  H   UNL d   1      11.198 -10.529  -9.455 +0.07 -0.10    +0.222 HD
DOCKED: ENDBRANCH  36  38
DOCKED: BRANCH  36  40
DOCKED: ATOM     40  O   UNL d   1      11.504  -8.290  -7.883 -0.16 +0.31    -0.303 OA
DOCKED: ATOM     41  H   UNL d   1      11.381  -8.137  -8.846 -0.42 -0.44    +0.222 HD
DOCKED: ENDBRANCH  36  40
DOCKED: ENDBRANCH  35  36
DOCKED: ENDBRANCH   5  35
DOCKED: BRANCH   4  42
DOCKED: ATOM     42  O   UNL d   1       9.373 -13.114  -7.261 -0.04 +0.06    -0.278 OA
DOCKED: BRANCH  42  43
DOCKED: ATOM     43  P   UNL d   1      10.106 -13.720  -8.541 +0.00 -0.08    +0.473 P 
DOCKED: ATOM     44  O   UNL d   1      10.430 -15.174  -8.523 -0.00 +0.03    -0.228 OA
DOCKED: BRANCH  43  45
DOCKED: ATOM     45  O   UNL d   1       9.146 -13.283  -9.732 -0.00 +0.05    -0.303 OA
DOCKED: ATOM     46  H   UNL d   1       9.589 -13.368 -10.600 +0.01 -0.03    +0.222 HD
DOCKED: ENDBRANCH  43  45
DOCKED: BRANCH  43  47
DOCKED: ATOM     47  O   UNL d   1      11.353 -12.736  -8.750 -0.01 +0.07    -0.303 OA
DOCKED: ATOM     48  H   UNL d   1      11.472 -12.190  -7.945 +0.05 -0.06    +0.222 HD
DOCKED: ENDBRANCH  43  47
DOCKED: ENDBRANCH  42  43
DOCKED: ENDBRANCH   4  42
DOCKED: TORSDOF 24
DOCKED: TER
DOCKED: ENDMDL
________________________________________________________________________________


	BEGINNING GENETIC ALGORITHM DOCKING 68 of 100
Run: 68 Seed: 946529911 1444375907 [ Run 68 of 100 GA/GALS ]
Beginning LAMARCKIAN GENETIC ALGORITHM (LGA), with a maximum of 25000000 energy evaluations.

Final-Value: -18.287


	FINAL GENETIC ALGORITHM DOCKED STATE
	_______________________________________________


Detailed state:  trans -18.344 -10.229 3.332 quatxyzw 0.857257 -0.190686 -0.420739 -0.227437 center 0.035 0.082 -0.065 ntor 24 -170.6021 166.6680 167.9646 85.9984 -93.3964 170.2385 -64.1575 27.4246 44.3465 -23.6925 92.9498 -104.5651 107.9617 76.0927 19.4644 173.8308 -151.8645 101.1703 37.7962 -27.4579 147.5186 -30.9301 -45.3842 165.3231
State:	-18.344 -10.229   3.332   0.880 -0.196 -0.432 -153.708   -170.60  166.67  167.96   86.00  -93.40  170.24  -64.16   27.42   44.35  -23.69   92.95 -104.57  107.96   76.09   19.46  173.83 -151.86  101.17   37.80  -27.46  147.52  -30.93  -45.38  165.32

DOCKED: MODEL       68
DOCKED: USER    Run = 68
DOCKED: USER    DPF = D:/Protein_go_brrr/autodock/final/AncMH_nat/IHP/dock.dpf
DOCKED: USER  
DOCKED: USER    Estimated Free Energy of Binding    =   +2.59 kcal/mol  [=(1)+(2)+(3)-(4)]
DOCKED: USER    
DOCKED: USER    (1) Final Intermolecular Energy     =   -4.57 kcal/mol
DOCKED: USER        vdW + Hbond + desolv Energy     =   -4.42 kcal/mol
DOCKED: USER        Electrostatic Energy            =   -0.16 kcal/mol
DOCKED: USER    (2) Final Total Internal Energy     =  -13.72 kcal/mol
DOCKED: USER    (3) Torsional Free Energy           =   +7.16 kcal/mol
DOCKED: USER    (4) Unbound System's Energy  [=(2)] =  -13.72 kcal/mol
DOCKED: USER    
DOCKED: USER    
DOCKED: USER    NEWDPF move IHP_ideal_opt.pdbqt
DOCKED: USER    NEWDPF about 0.035000 0.082000 -0.065000
DOCKED: USER    NEWDPF tran0 -18.343941 -10.229057 3.331599
DOCKED: USER    NEWDPF quaternion0 0.857257 -0.190686 -0.420739 -0.227437
DOCKED: USER    NEWDPF axisangle0 0.880328 -0.195818 -0.432062 -153.707547
DOCKED: USER    NEWDPF quat0 0.880328 -0.195818 -0.432062 -153.707547
DOCKED: USER    NEWDPF dihe0 -170.60 166.67 167.96 86.00 -93.40 170.24 -64.16 27.42 44.35 -23.69 92.95 -104.57 107.96 76.09 19.46 173.83 -151.86 101.17 37.80 -27.46 147.52 -30.93 -45.38 165.32 
DOCKED: USER  keepresnum = 1 
DOCKED: USER  
DOCKED: REMARK  24 active torsions:
DOCKED: REMARK  status: ('A' for Active; 'I' for Inactive)
DOCKED: REMARK    1  A    between atoms: C_1  and  O_7 
DOCKED: REMARK    2  A    between atoms: C_2  and  O_12 
DOCKED: REMARK    3  A    between atoms: C_3  and  O_17 
DOCKED: REMARK    4  A    between atoms: C_4  and  O_22 
DOCKED: REMARK    5  A    between atoms: C_5  and  O_27 
DOCKED: REMARK    6  A    between atoms: C_6  and  O_32 
DOCKED: REMARK    7  A    between atoms: O_7  and  P_8 
DOCKED: REMARK    8  A    between atoms: P_8  and  O_10 
DOCKED: REMARK    9  A    between atoms: P_8  and  O_11 
DOCKED: REMARK   10  A    between atoms: O_12  and  P_13 
DOCKED: REMARK   11  A    between atoms: P_13  and  O_15 
DOCKED: REMARK   12  A    between atoms: P_13  and  O_16 
DOCKED: REMARK   13  A    between atoms: O_17  and  P_18 
DOCKED: REMARK   14  A    between atoms: P_18  and  O_20 
DOCKED: REMARK   15  A    between atoms: P_18  and  O_21 
DOCKED: REMARK   16  A    between atoms: O_22  and  P_23 
DOCKED: REMARK   17  A    between atoms: P_23  and  O_25 
DOCKED: REMARK   18  A    between atoms: P_23  and  O_26 
DOCKED: REMARK   19  A    between atoms: O_27  and  P_28 
DOCKED: REMARK   20  A    between atoms: P_28  and  O_30 
DOCKED: REMARK   21  A    between atoms: P_28  and  O_31 
DOCKED: REMARK   22  A    between atoms: O_32  and  P_33 
DOCKED: REMARK   23  A    between atoms: P_33  and  O_35 
DOCKED: REMARK   24  A    between atoms: P_33  and  O_36 
DOCKED: USER                              x       y       z     vdW  Elec       q    Type
DOCKED: USER                           _______ _______ _______ _____ _____    ______ ____
DOCKED: ROOT
DOCKED: ATOM      1  C   UNL d   1     -18.145 -10.328   1.619 -0.08 +0.05    +0.194 C 
DOCKED: ATOM      2  C   UNL d   1     -18.453  -8.935   2.168 -0.08 +0.06    +0.194 C 
DOCKED: ATOM      3  C   UNL d   1     -19.549  -8.976   3.235 -0.11 +0.04    +0.194 C 
DOCKED: ATOM      4  C   UNL d   1     -19.269  -9.986   4.346 -0.09 +0.02    +0.194 C 
DOCKED: ATOM      5  C   UNL d   1     -18.845 -11.360   3.843 -0.17 +0.04    +0.194 C 
DOCKED: ATOM      6  C   UNL d   1     -17.794 -11.316   2.732 -0.03 +0.06    +0.194 C 
DOCKED: ENDROOT
DOCKED: BRANCH   1   7
DOCKED: ATOM      7  O   UNL d   1     -17.003 -10.228   0.763 -0.10 -0.10    -0.278 OA
DOCKED: BRANCH   7   8
DOCKED: ATOM      8  P   UNL d   1     -17.231  -9.804  -0.760 -0.03 +0.18    +0.473 P 
DOCKED: ATOM      9  O   UNL d   1     -16.029  -9.265  -1.452 -0.12 -0.12    -0.228 OA
DOCKED: BRANCH   8  10
DOCKED: ATOM     10  O   UNL d   1     -17.812 -11.122  -1.446 -0.01 -0.07    -0.303 OA
DOCKED: ATOM     11  H   UNL d   1     -18.335 -11.626  -0.795 +0.04 +0.04    +0.222 HD
DOCKED: ENDBRANCH   8  10
DOCKED: BRANCH   8  12
DOCKED: ATOM     12  O   UNL d   1     -18.504  -8.852  -0.737 -0.02 -0.12    -0.303 OA
DOCKED: ATOM     13  H   UNL d   1     -18.321  -7.956  -1.099 +0.03 +0.13    +0.222 HD
DOCKED: ENDBRANCH   8  12
DOCKED: ENDBRANCH   7   8
DOCKED: ENDBRANCH   1   7
DOCKED: BRANCH   2  14
DOCKED: ATOM     14  O   UNL d   1     -17.264  -8.391   2.755 -0.13 -0.12    -0.278 OA
DOCKED: BRANCH  14  15
DOCKED: ATOM     15  P   UNL d   1     -16.496  -7.269   1.909 -0.02 +0.42    +0.473 P 
DOCKED: ATOM     16  O   UNL d   1     -16.109  -6.022   2.641 -0.64 -0.25    -0.228 OA
DOCKED: BRANCH  15  17
DOCKED: ATOM     17  O   UNL d   1     -15.244  -8.037   1.293 -0.29 -0.25    -0.303 OA
DOCKED: ATOM     18  H   UNL d   1     -15.521  -8.647   0.582 +0.10 +0.15    +0.222 HD
DOCKED: ENDBRANCH  15  17
DOCKED: BRANCH  15  19
DOCKED: ATOM     19  O   UNL d   1     -17.405  -7.053   0.621 -0.64 -0.34    -0.303 OA
DOCKED: ATOM     20  H   UNL d   1     -18.337  -7.278   0.796 +0.04 +0.15    +0.222 HD
DOCKED: ENDBRANCH  15  19
DOCKED: ENDBRANCH  14  15
DOCKED: ENDBRANCH   2  14
DOCKED: BRANCH   6  21
DOCKED: ATOM     21  O   UNL d   1     -17.761 -12.615   2.145 -0.11 -0.07    -0.278 OA
DOCKED: BRANCH  21  22
DOCKED: ATOM     22  P   UNL d   1     -19.127 -13.360   1.795 -0.04 +0.06    +0.473 P 
DOCKED: ATOM     23  O   UNL d   1     -20.162 -12.611   1.025 -0.01 -0.03    -0.228 OA
DOCKED: BRANCH  22  24
DOCKED: ATOM     24  O   UNL d   1     -18.602 -14.688   1.090 -0.05 -0.03    -0.303 OA
DOCKED: ATOM     25  H   UNL d   1     -19.341 -15.060   0.545 +0.03 +0.02    +0.222 HD
DOCKED: ENDBRANCH  22  24
DOCKED: BRANCH  22  26
DOCKED: ATOM     26  O   UNL d   1     -19.578 -13.906   3.234 -0.06 -0.04    -0.303 OA
DOCKED: ATOM     27  H   UNL d   1     -18.884 -13.692   3.890 +0.04 +0.05    +0.222 HD
DOCKED: ENDBRANCH  22  26
DOCKED: ENDBRANCH  21  22
DOCKED: ENDBRANCH   6  21
DOCKED: BRANCH   3  28
DOCKED: ATOM     28  O   UNL d   1     -19.571  -7.707   3.876 -0.11 -0.05    -0.278 OA
DOCKED: BRANCH  28  29
DOCKED: ATOM     29  P   UNL d   1     -20.300  -6.470   3.186 -0.04 +0.13    +0.473 P 
DOCKED: ATOM     30  O   UNL d   1     -20.918  -5.491   4.117 -0.11 -0.07    -0.228 OA
DOCKED: BRANCH  29  31
DOCKED: ATOM     31  O   UNL d   1     -19.118  -5.936   2.249 -0.03 -0.14    -0.303 OA
DOCKED: ATOM     32  H   UNL d   1     -18.279  -6.375   2.521 +0.04 +0.12    +0.222 HD
DOCKED: ENDBRANCH  29  31
DOCKED: BRANCH  29  33
DOCKED: ATOM     33  O   UNL d   1     -21.271  -7.191   2.151 -0.01 -0.07    -0.303 OA
DOCKED: ATOM     34  H   UNL d   1     -22.117  -7.419   2.609 +0.01 +0.04    +0.222 HD
DOCKED: ENDBRANCH  29  33
DOCKED: ENDBRANCH  28  29
DOCKED: ENDBRANCH   3  28
DOCKED: BRANCH   5  35
DOCKED: ATOM     35  O   UNL d   1     -18.248 -12.014   4.961 -0.49 -0.08    -0.278 OA
DOCKED: BRANCH  35  36
DOCKED: ATOM     36  P   UNL d   1     -19.155 -12.797   6.014 -0.12 +0.07    +0.473 P 
DOCKED: ATOM     37  O   UNL d   1     -19.313 -12.137   7.346 -0.54 -0.04    -0.228 OA
DOCKED: BRANCH  36  38
DOCKED: ATOM     38  O   UNL d   1     -20.515 -12.973   5.205 -0.03 -0.03    -0.303 OA
DOCKED: ATOM     39  H   UNL d   1     -20.586 -12.258   4.536 +0.03 +0.02    +0.222 HD
DOCKED: ENDBRANCH  36  38
DOCKED: BRANCH  36  40
DOCKED: ATOM     40  O   UNL d   1     -18.511 -14.252   6.000 -0.37 -0.06    -0.303 OA
DOCKED: ATOM     41  H   UNL d   1     -18.624 -14.692   5.129 +0.03 +0.05    +0.222 HD
DOCKED: ENDBRANCH  36  40
DOCKED: ENDBRANCH  35  36
DOCKED: ENDBRANCH   5  35
DOCKED: BRANCH   4  42
DOCKED: ATOM     42  O   UNL d   1     -20.493 -10.160   5.066 -0.08 -0.03    -0.278 OA
DOCKED: BRANCH  42  43
DOCKED: ATOM     43  P   UNL d   1     -21.810 -10.565   4.262 -0.03 +0.05    +0.473 P 
DOCKED: ATOM     44  O   UNL d   1     -22.798 -11.436   4.958 -0.01 -0.02    -0.228 OA
DOCKED: BRANCH  43  45
DOCKED: ATOM     45  O   UNL d   1     -22.391  -9.155   3.809 -0.03 -0.04    -0.303 OA
DOCKED: ATOM     46  H   UNL d   1     -21.703  -8.460   3.833 +0.02 +0.03    +0.222 HD
DOCKED: ENDBRANCH  43  45
DOCKED: BRANCH  43  47
DOCKED: ATOM     47  O   UNL d   1     -21.234 -11.139   2.881 -0.01 -0.03    -0.303 OA
DOCKED: ATOM     48  H   UNL d   1     -20.850 -12.027   3.035 +0.03 +0.02    +0.222 HD
DOCKED: ENDBRANCH  43  47
DOCKED: ENDBRANCH  42  43
DOCKED: ENDBRANCH   4  42
DOCKED: TORSDOF 24
DOCKED: TER
DOCKED: ENDMDL
________________________________________________________________________________


	BEGINNING GENETIC ALGORITHM DOCKING 69 of 100
Run: 69 Seed: 14132298 832623040 [ Run 69 of 100 GA/GALS ]
Beginning LAMARCKIAN GENETIC ALGORITHM (LGA), with a maximum of 25000000 energy evaluations.

Final-Value: -18.728


	FINAL GENETIC ALGORITHM DOCKED STATE
	_______________________________________________


Detailed state:  trans 17.173 -4.807 -0.910 quatxyzw 0.824570 -0.508477 -0.215914 -0.122135 center 0.035 0.082 -0.065 ntor 24 135.6943 58.9816 74.7834 135.5447 -102.6323 -138.8368 -103.1292 23.0560 -38.0052 123.0673 105.1525 148.0330 1.7521 -17.2855 3.7835 14.8768 -64.7815 163.8544 12.5611 -36.7910 -20.4677 -179.3901 163.2326 12.1995
State:	 17.173  -4.807  -0.910   0.831 -0.512 -0.218 -165.969    135.69   58.98   74.78  135.54 -102.63 -138.84 -103.13   23.06  -38.01  123.07  105.15  148.03    1.75  -17.29    3.78   14.88  -64.78  163.85   12.56  -36.79  -20.47 -179.39  163.23   12.20

DOCKED: MODEL       69
DOCKED: USER    Run = 69
DOCKED: USER    DPF = D:/Protein_go_brrr/autodock/final/AncMH_nat/IHP/dock.dpf
DOCKED: USER  
DOCKED: USER    Estimated Free Energy of Binding    =   +2.38 kcal/mol  [=(1)+(2)+(3)-(4)]
DOCKED: USER    
DOCKED: USER    (1) Final Intermolecular Energy     =   -4.78 kcal/mol
DOCKED: USER        vdW + Hbond + desolv Energy     =   -4.59 kcal/mol
DOCKED: USER        Electrostatic Energy            =   -0.19 kcal/mol
DOCKED: USER    (2) Final Total Internal Energy     =  -13.95 kcal/mol
DOCKED: USER    (3) Torsional Free Energy           =   +7.16 kcal/mol
DOCKED: USER    (4) Unbound System's Energy  [=(2)] =  -13.95 kcal/mol
DOCKED: USER    
DOCKED: USER    
DOCKED: USER    NEWDPF move IHP_ideal_opt.pdbqt
DOCKED: USER    NEWDPF about 0.035000 0.082000 -0.065000
DOCKED: USER    NEWDPF tran0 17.173173 -4.807125 -0.909626
DOCKED: USER    NEWDPF quaternion0 0.824570 -0.508477 -0.215914 -0.122135
DOCKED: USER    NEWDPF axisangle0 0.830789 -0.512313 -0.217543 -165.969316
DOCKED: USER    NEWDPF quat0 0.830789 -0.512313 -0.217543 -165.969316
DOCKED: USER    NEWDPF dihe0 135.69 58.98 74.78 135.54 -102.63 -138.84 -103.13 23.06 -38.01 123.07 105.15 148.03 1.75 -17.29 3.78 14.88 -64.78 163.85 12.56 -36.79 -20.47 -179.39 163.23 12.20 
DOCKED: USER  keepresnum = 1 
DOCKED: USER  
DOCKED: REMARK  24 active torsions:
DOCKED: REMARK  status: ('A' for Active; 'I' for Inactive)
DOCKED: REMARK    1  A    between atoms: C_1  and  O_7 
DOCKED: REMARK    2  A    between atoms: C_2  and  O_12 
DOCKED: REMARK    3  A    between atoms: C_3  and  O_17 
DOCKED: REMARK    4  A    between atoms: C_4  and  O_22 
DOCKED: REMARK    5  A    between atoms: C_5  and  O_27 
DOCKED: REMARK    6  A    between atoms: C_6  and  O_32 
DOCKED: REMARK    7  A    between atoms: O_7  and  P_8 
DOCKED: REMARK    8  A    between atoms: P_8  and  O_10 
DOCKED: REMARK    9  A    between atoms: P_8  and  O_11 
DOCKED: REMARK   10  A    between atoms: O_12  and  P_13 
DOCKED: REMARK   11  A    between atoms: P_13  and  O_15 
DOCKED: REMARK   12  A    between atoms: P_13  and  O_16 
DOCKED: REMARK   13  A    between atoms: O_17  and  P_18 
DOCKED: REMARK   14  A    between atoms: P_18  and  O_20 
DOCKED: REMARK   15  A    between atoms: P_18  and  O_21 
DOCKED: REMARK   16  A    between atoms: O_22  and  P_23 
DOCKED: REMARK   17  A    between atoms: P_23  and  O_25 
DOCKED: REMARK   18  A    between atoms: P_23  and  O_26 
DOCKED: REMARK   19  A    between atoms: O_27  and  P_28 
DOCKED: REMARK   20  A    between atoms: P_28  and  O_30 
DOCKED: REMARK   21  A    between atoms: P_28  and  O_31 
DOCKED: REMARK   22  A    between atoms: O_32  and  P_33 
DOCKED: REMARK   23  A    between atoms: P_33  and  O_35 
DOCKED: REMARK   24  A    between atoms: P_33  and  O_36 
DOCKED: USER                              x       y       z     vdW  Elec       q    Type
DOCKED: USER                           _______ _______ _______ _____ _____    ______ ____
DOCKED: ROOT
DOCKED: ATOM      1  C   UNL d   1      17.979  -5.507  -2.268 -0.18 -0.04    +0.194 C 
DOCKED: ATOM      2  C   UNL d   1      18.302  -4.037  -1.993 -0.20 -0.04    +0.194 C 
DOCKED: ATOM      3  C   UNL d   1      17.045  -3.236  -1.648 -0.27 -0.07    +0.194 C 
DOCKED: ATOM      4  C   UNL d   1      16.219  -3.865  -0.529 -0.25 -0.05    +0.194 C 
DOCKED: ATOM      5  C   UNL d   1      15.971  -5.357  -0.704 -0.26 -0.05    +0.194 C 
DOCKED: ATOM      6  C   UNL d   1      17.215  -6.149  -1.109 -0.15 -0.04    +0.194 C 
DOCKED: ENDROOT
DOCKED: BRANCH   1   7
DOCKED: ATOM      7  O   UNL d   1      19.213  -6.216  -2.409 -0.07 +0.04    -0.278 OA
DOCKED: BRANCH   7   8
DOCKED: ATOM      8  P   UNL d   1      19.616  -6.755  -3.858 -0.05 -0.05    +0.473 P 
DOCKED: ATOM      9  O   UNL d   1      19.608  -5.731  -4.938 -0.12 +0.03    -0.228 OA
DOCKED: BRANCH   8  10
DOCKED: ATOM     10  O   UNL d   1      21.048  -7.423  -3.637 -0.01 +0.04    -0.303 OA
DOCKED: ATOM     11  H   UNL d   1      21.463  -7.050  -2.837 +0.01 -0.03    +0.222 HD
DOCKED: ENDBRANCH   8  10
DOCKED: BRANCH   8  12
DOCKED: ATOM     12  O   UNL d   1      18.691  -8.024  -4.099 -0.09 +0.02    -0.303 OA
DOCKED: ATOM     13  H   UNL d   1      17.948  -8.087  -3.456 +0.04 -0.02    +0.222 HD
DOCKED: ENDBRANCH   8  12
DOCKED: ENDBRANCH   7   8
DOCKED: ENDBRANCH   1   7
DOCKED: BRANCH   2  14
DOCKED: ATOM     14  O   UNL d   1      19.212  -3.957  -0.889 -0.05 +0.05    -0.278 OA
DOCKED: BRANCH  14  15
DOCKED: ATOM     15  P   UNL d   1      20.769  -3.872  -1.249 -0.02 -0.07    +0.473 P 
DOCKED: ATOM     16  O   UNL d   1      21.139  -3.048  -2.443 -0.06 +0.04    -0.228 OA
DOCKED: BRANCH  15  17
DOCKED: ATOM     17  O   UNL d   1      21.450  -3.352   0.094 -0.01 +0.04    -0.303 OA
DOCKED: ATOM     18  H   UNL d   1      20.799  -2.906   0.669 +0.02 -0.03    +0.222 HD
DOCKED: ENDBRANCH  15  17
DOCKED: BRANCH  15  19
DOCKED: ATOM     19  O   UNL d   1      21.252  -5.387  -1.286 -0.00 +0.04    -0.303 OA
DOCKED: ATOM     20  H   UNL d   1      20.960  -5.839  -2.099 +0.02 -0.03    +0.222 HD
DOCKED: ENDBRANCH  15  19
DOCKED: ENDBRANCH  14  15
DOCKED: ENDBRANCH   2  14
DOCKED: BRANCH   6  21
DOCKED: ATOM     21  O   UNL d   1      16.764  -7.424  -1.561 -0.15 +0.03    -0.278 OA
DOCKED: BRANCH  21  22
DOCKED: ATOM     22  P   UNL d   1      17.312  -8.751  -0.864 -0.05 -0.05    +0.473 P 
DOCKED: ATOM     23  O   UNL d   1      17.612  -8.707   0.596 -0.02 +0.03    -0.228 OA
DOCKED: BRANCH  22  24
DOCKED: ATOM     24  O   UNL d   1      16.210  -9.819  -1.287 -0.08 +0.03    -0.303 OA
DOCKED: ATOM     25  H   UNL d   1      16.358 -10.641  -0.755 +0.04 -0.03    +0.222 HD
DOCKED: ENDBRANCH  22  24
DOCKED: BRANCH  22  26
DOCKED: ATOM     26  O   UNL d   1      18.536  -9.140  -1.823 -0.03 +0.03    -0.303 OA
DOCKED: ATOM     27  H   UNL d   1      19.078  -8.343  -1.992 +0.03 -0.02    +0.222 HD
DOCKED: ENDBRANCH  22  26
DOCKED: ENDBRANCH  21  22
DOCKED: ENDBRANCH   6  21
DOCKED: BRANCH   3  28
DOCKED: ATOM     28  O   UNL d   1      17.466  -1.975  -1.145 -0.29 +0.07    -0.278 OA
DOCKED: BRANCH  28  29
DOCKED: ATOM     29  P   UNL d   1      18.199  -1.876   0.266 -0.11 -0.06    +0.473 P 
DOCKED: ATOM     30  O   UNL d   1      18.169  -3.111   1.091 -0.05 +0.02    -0.228 OA
DOCKED: BRANCH  29  31
DOCKED: ATOM     31  O   UNL d   1      19.636  -1.350  -0.202 -0.06 +0.04    -0.303 OA
DOCKED: ATOM     32  H   UNL d   1      19.968  -1.940  -0.918 +0.05 -0.03    +0.222 HD
DOCKED: ENDBRANCH  29  31
DOCKED: BRANCH  29  33
DOCKED: ATOM     33  O   UNL d   1      17.536  -0.573   0.896 -0.20 +0.02    -0.303 OA
DOCKED: ATOM     34  H   UNL d   1      16.667  -0.817   1.300 +0.10 +0.01    +0.222 HD
DOCKED: ENDBRANCH  29  33
DOCKED: ENDBRANCH  28  29
DOCKED: ENDBRANCH   3  28
DOCKED: BRANCH   5  35
DOCKED: ATOM     35  O   UNL d   1      15.567  -5.836   0.578 -0.16 +0.04    -0.278 OA
DOCKED: BRANCH  35  36
DOCKED: ATOM     36  P   UNL d   1      16.593  -5.826   1.799 -0.01 -0.05    +0.473 P 
DOCKED: ATOM     37  O   UNL d   1      18.040  -5.760   1.426 -0.01 +0.03    -0.228 OA
DOCKED: BRANCH  36  38
DOCKED: ATOM     38  O   UNL d   1      16.079  -4.581   2.648 -0.04 +0.00    -0.303 OA
DOCKED: ATOM     39  H   UNL d   1      16.720  -3.844   2.557 +0.05 -0.00    +0.222 HD
DOCKED: ENDBRANCH  36  38
DOCKED: BRANCH  36  40
DOCKED: ATOM     40  O   UNL d   1      16.124  -7.087   2.647 -0.03 +0.04    -0.303 OA
DOCKED: ATOM     41  H   UNL d   1      16.482  -7.926   2.281 +0.04 -0.03    +0.222 HD
DOCKED: ENDBRANCH  36  40
DOCKED: ENDBRANCH  35  36
DOCKED: ENDBRANCH   5  35
DOCKED: BRANCH   4  42
DOCKED: ATOM     42  O   UNL d   1      14.941  -3.220  -0.544 -0.27 +0.09    -0.278 OA
DOCKED: BRANCH  42  43
DOCKED: ATOM     43  P   UNL d   1      14.658  -2.043   0.495 -0.26 +0.03    +0.473 P 
DOCKED: ATOM     44  O   UNL d   1      13.252  -1.849   0.947 -0.86 -0.12    -0.228 OA
DOCKED: BRANCH  43  45
DOCKED: ATOM     45  O   UNL d   1      15.681  -2.363   1.671 -0.19 -0.05    -0.303 OA
DOCKED: ATOM     46  H   UNL d   1      16.498  -2.780   1.332 +0.09 -0.00    +0.222 HD
DOCKED: ENDBRANCH  43  45
DOCKED: BRANCH  43  47
DOCKED: ATOM     47  O   UNL d   1      15.345  -0.771  -0.197 -0.43 +0.05    -0.303 OA
DOCKED: ATOM     48  H   UNL d   1      16.135  -1.063  -0.698 +0.02 -0.07    +0.222 HD
DOCKED: ENDBRANCH  43  47
DOCKED: ENDBRANCH  42  43
DOCKED: ENDBRANCH   4  42
DOCKED: TORSDOF 24
DOCKED: TER
DOCKED: ENDMDL
________________________________________________________________________________


	BEGINNING GENETIC ALGORITHM DOCKING 70 of 100
Run: 70 Seed: 280933617 1296304194 [ Run 70 of 100 GA/GALS ]
Beginning LAMARCKIAN GENETIC ALGORITHM (LGA), with a maximum of 25000000 energy evaluations.

Final-Value: -18.715


	FINAL GENETIC ALGORITHM DOCKED STATE
	_______________________________________________


Detailed state:  trans 4.205 -2.034 -15.330 quatxyzw 0.995676 0.075472 0.053873 0.005614 center 0.035 0.082 -0.065 ntor 24 -166.4475 140.1723 103.0492 144.3696 23.3264 173.4956 0.0390 -119.5910 14.2776 80.4423 12.8771 -120.1468 -129.5389 88.5785 179.9835 -111.1358 -7.1520 -55.5247 53.0537 8.5492 -15.2638 17.4645 -12.5052 171.8582
State:	  4.205  -2.034 -15.330   0.996  0.075  0.054 179.357   -166.45  140.17  103.05  144.37   23.33  173.50    0.04 -119.59   14.28   80.44   12.88 -120.15 -129.54   88.58  179.98 -111.14   -7.15  -55.52   53.05    8.55  -15.26   17.46  -12.51  171.86

DOCKED: MODEL       70
DOCKED: USER    Run = 70
DOCKED: USER    DPF = D:/Protein_go_brrr/autodock/final/AncMH_nat/IHP/dock.dpf
DOCKED: USER  
DOCKED: USER    Estimated Free Energy of Binding    =   +3.12 kcal/mol  [=(1)+(2)+(3)-(4)]
DOCKED: USER    
DOCKED: USER    (1) Final Intermolecular Energy     =   -4.04 kcal/mol
DOCKED: USER        vdW + Hbond + desolv Energy     =   -3.67 kcal/mol
DOCKED: USER        Electrostatic Energy            =   -0.38 kcal/mol
DOCKED: USER    (2) Final Total Internal Energy     =  -14.67 kcal/mol
DOCKED: USER    (3) Torsional Free Energy           =   +7.16 kcal/mol
DOCKED: USER    (4) Unbound System's Energy  [=(2)] =  -14.67 kcal/mol
DOCKED: USER    
DOCKED: USER    
DOCKED: USER    NEWDPF move IHP_ideal_opt.pdbqt
DOCKED: USER    NEWDPF about 0.035000 0.082000 -0.065000
DOCKED: USER    NEWDPF tran0 4.205112 -2.033871 -15.330136
DOCKED: USER    NEWDPF quaternion0 0.995676 0.075472 0.053873 0.005614
DOCKED: USER    NEWDPF axisangle0 0.995691 0.075473 0.053874 179.356634
DOCKED: USER    NEWDPF quat0 0.995691 0.075473 0.053874 179.356634
DOCKED: USER    NEWDPF dihe0 -166.45 140.17 103.05 144.37 23.33 173.50 0.04 -119.59 14.28 80.44 12.88 -120.15 -129.54 88.58 179.98 -111.14 -7.15 -55.52 53.05 8.55 -15.26 17.46 -12.51 171.86 
DOCKED: USER  keepresnum = 1 
DOCKED: USER  
DOCKED: REMARK  24 active torsions:
DOCKED: REMARK  status: ('A' for Active; 'I' for Inactive)
DOCKED: REMARK    1  A    between atoms: C_1  and  O_7 
DOCKED: REMARK    2  A    between atoms: C_2  and  O_12 
DOCKED: REMARK    3  A    between atoms: C_3  and  O_17 
DOCKED: REMARK    4  A    between atoms: C_4  and  O_22 
DOCKED: REMARK    5  A    between atoms: C_5  and  O_27 
DOCKED: REMARK    6  A    between atoms: C_6  and  O_32 
DOCKED: REMARK    7  A    between atoms: O_7  and  P_8 
DOCKED: REMARK    8  A    between atoms: P_8  and  O_10 
DOCKED: REMARK    9  A    between atoms: P_8  and  O_11 
DOCKED: REMARK   10  A    between atoms: O_12  and  P_13 
DOCKED: REMARK   11  A    between atoms: P_13  and  O_15 
DOCKED: REMARK   12  A    between atoms: P_13  and  O_16 
DOCKED: REMARK   13  A    between atoms: O_17  and  P_18 
DOCKED: REMARK   14  A    between atoms: P_18  and  O_20 
DOCKED: REMARK   15  A    between atoms: P_18  and  O_21 
DOCKED: REMARK   16  A    between atoms: O_22  and  P_23 
DOCKED: REMARK   17  A    between atoms: P_23  and  O_25 
DOCKED: REMARK   18  A    between atoms: P_23  and  O_26 
DOCKED: REMARK   19  A    between atoms: O_27  and  P_28 
DOCKED: REMARK   20  A    between atoms: P_28  and  O_30 
DOCKED: REMARK   21  A    between atoms: P_28  and  O_31 
DOCKED: REMARK   22  A    between atoms: O_32  and  P_33 
DOCKED: REMARK   23  A    between atoms: P_33  and  O_35 
DOCKED: REMARK   24  A    between atoms: P_33  and  O_36 
DOCKED: USER                              x       y       z     vdW  Elec       q    Type
DOCKED: USER                           _______ _______ _______ _____ _____    ______ ____
DOCKED: ROOT
DOCKED: ATOM      1  C   UNL d   1       5.387  -0.953 -15.978 -0.10 -0.04    +0.194 C 
DOCKED: ATOM      2  C   UNL d   1       4.000  -0.352 -15.744 -0.10 -0.03    +0.194 C 
DOCKED: ATOM      3  C   UNL d   1       2.888  -1.300 -16.199 -0.07 -0.02    +0.194 C 
DOCKED: ATOM      4  C   UNL d   1       3.015  -2.703 -15.612 -0.12 -0.02    +0.194 C 
DOCKED: ATOM      5  C   UNL d   1       4.414  -3.297 -15.722 -0.12 -0.02    +0.194 C 
DOCKED: ATOM      6  C   UNL d   1       5.530  -2.328 -15.325 -0.13 -0.02    +0.194 C 
DOCKED: ENDROOT
DOCKED: BRANCH   1   7
DOCKED: ATOM      7  O   UNL d   1       6.354  -0.091 -15.374 -0.15 +0.12    -0.278 OA
DOCKED: BRANCH   7   8
DOCKED: ATOM      8  P   UNL d   1       6.609   1.342 -16.032 -0.10 -0.27    +0.473 P 
DOCKED: ATOM      9  O   UNL d   1       7.457   1.334 -17.255 -0.05 +0.12    -0.228 OA
DOCKED: BRANCH   8  10
DOCKED: ATOM     10  O   UNL d   1       5.143   1.917 -16.287 -0.05 +0.09    -0.303 OA
DOCKED: ATOM     11  H   UNL d   1       4.551   1.635 -15.565 +0.08 -0.06    +0.222 HD
DOCKED: ENDBRANCH   8  10
DOCKED: BRANCH   8  12
DOCKED: ATOM     12  O   UNL d   1       7.122   2.258 -14.839 -0.18 +0.36    -0.303 OA
DOCKED: ATOM     13  H   UNL d   1       8.103   2.305 -14.783 -0.48 -0.62    +0.222 HD
DOCKED: ENDBRANCH   8  12
DOCKED: ENDBRANCH   7   8
DOCKED: ENDBRANCH   1   7
DOCKED: BRANCH   2  14
DOCKED: ATOM     14  O   UNL d   1       3.834  -0.093 -14.344 -0.16 +0.04    -0.278 OA
DOCKED: BRANCH  14  15
DOCKED: ATOM     15  P   UNL d   1       3.086   1.268 -13.953 -0.19 -0.08    +0.473 P 
DOCKED: ATOM     16  O   UNL d   1       2.195   1.223 -12.751 -0.36 +0.02    -0.228 OA
DOCKED: BRANCH  15  17
DOCKED: ATOM     17  O   UNL d   1       4.264   2.330 -13.809 -0.17 +0.07    -0.303 OA
DOCKED: ATOM     18  H   UNL d   1       5.117   1.951 -14.097 +0.05 -0.09    +0.222 HD
DOCKED: ENDBRANCH  15  17
DOCKED: BRANCH  15  19
DOCKED: ATOM     19  O   UNL d   1       2.391   1.742 -15.303 -0.05 +0.03    -0.303 OA
DOCKED: ATOM     20  H   UNL d   1       1.526   1.313 -15.433 +0.07 -0.02    +0.222 HD
DOCKED: ENDBRANCH  15  19
DOCKED: ENDBRANCH  14  15
DOCKED: ENDBRANCH   2  14
DOCKED: BRANCH   6  21
DOCKED: ATOM     21  O   UNL d   1       6.752  -2.891 -15.798 -0.07 +0.04    -0.278 OA
DOCKED: BRANCH  21  22
DOCKED: ATOM     22  P   UNL d   1       7.892  -3.298 -14.759 -0.14 -0.04    +0.473 P 
DOCKED: ATOM     23  O   UNL d   1       9.313  -3.224 -15.207 -0.09 +0.01    -0.228 OA
DOCKED: BRANCH  22  24
DOCKED: ATOM     24  O   UNL d   1       7.536  -2.378 -13.510 -0.25 +0.09    -0.303 OA
DOCKED: ATOM     25  H   UNL d   1       7.308  -1.475 -13.847 -0.10 -0.09    +0.222 HD
DOCKED: ENDBRANCH  22  24
DOCKED: BRANCH  22  26
DOCKED: ATOM     26  O   UNL d   1       7.384  -4.736 -14.266 -0.18 -0.00    -0.303 OA
DOCKED: ATOM     27  H   UNL d   1       6.542  -4.952 -14.716 +0.07 -0.01    +0.222 HD
DOCKED: ENDBRANCH  22  26
DOCKED: ENDBRANCH  21  22
DOCKED: ENDBRANCH   6  21
DOCKED: BRANCH   3  28
DOCKED: ATOM     28  O   UNL d   1       1.659  -0.791 -15.696 -0.06 +0.02    -0.278 OA
DOCKED: BRANCH  28  29
DOCKED: ATOM     29  P   UNL d   1       0.421  -0.566 -16.673 +0.00 -0.03    +0.473 P 
DOCKED: ATOM     30  O   UNL d   1      -0.328   0.701 -16.476 -0.02 +0.02    -0.228 OA
DOCKED: BRANCH  29  31
DOCKED: ATOM     31  O   UNL d   1       1.141  -0.772 -18.088 -0.00 +0.03    -0.303 OA
DOCKED: ATOM     32  H   UNL d   1       1.634  -1.625 -18.068 +0.01 -0.02    +0.222 HD
DOCKED: ENDBRANCH  29  31
DOCKED: BRANCH  29  33
DOCKED: ATOM     33  O   UNL d   1      -0.396  -1.921 -16.494 -0.04 +0.02    -0.303 OA
DOCKED: ATOM     34  H   UNL d   1       0.175  -2.679 -16.768 +0.04 -0.02    +0.222 HD
DOCKED: ENDBRANCH  29  33
DOCKED: ENDBRANCH  28  29
DOCKED: ENDBRANCH   3  28
DOCKED: BRANCH   5  35
DOCKED: ATOM     35  O   UNL d   1       4.448  -4.380 -14.794 -0.15 +0.04    -0.278 OA
DOCKED: BRANCH  35  36
DOCKED: ATOM     36  P   UNL d   1       4.694  -5.870 -15.307 -0.10 -0.06    +0.473 P 
DOCKED: ATOM     37  O   UNL d   1       5.664  -6.012 -16.436 -0.04 +0.02    -0.228 OA
DOCKED: BRANCH  36  38
DOCKED: ATOM     38  O   UNL d   1       5.136  -6.607 -13.967 -0.22 +0.03    -0.303 OA
DOCKED: ATOM     39  H   UNL d   1       5.907  -6.137 -13.581 +0.07 -0.01    +0.222 HD
DOCKED: ENDBRANCH  36  38
DOCKED: BRANCH  36  40
DOCKED: ATOM     40  O   UNL d   1       3.212  -6.391 -15.559 -0.10 +0.04    -0.303 OA
DOCKED: ATOM     41  H   UNL d   1       2.641  -5.691 -15.946 +0.06 -0.03    +0.222 HD
DOCKED: ENDBRANCH  36  40
DOCKED: ENDBRANCH  35  36
DOCKED: ENDBRANCH   5  35
DOCKED: BRANCH   4  42
DOCKED: ATOM     42  O   UNL d   1       2.139  -3.549 -16.365 -0.06 +0.03    -0.278 OA
DOCKED: BRANCH  42  43
DOCKED: ATOM     43  P   UNL d   1       2.386  -3.714 -17.933 +0.00 -0.04    +0.473 P 
DOCKED: ATOM     44  O   UNL d   1       3.379  -2.806 -18.571 -0.00 +0.02    -0.228 OA
DOCKED: BRANCH  43  45
DOCKED: ATOM     45  O   UNL d   1       2.736  -5.261 -18.069 -0.01 +0.03    -0.303 OA
DOCKED: ATOM     46  H   UNL d   1       3.531  -5.495 -17.550 +0.02 -0.02    +0.222 HD
DOCKED: ENDBRANCH  43  45
DOCKED: BRANCH  43  47
DOCKED: ATOM     47  O   UNL d   1       0.905  -3.660 -18.544 -0.00 +0.02    -0.303 OA
DOCKED: ATOM     48  H   UNL d   1       0.486  -2.809 -18.301 +0.01 -0.02    +0.222 HD
DOCKED: ENDBRANCH  43  47
DOCKED: ENDBRANCH  42  43
DOCKED: ENDBRANCH   4  42
DOCKED: TORSDOF 24
DOCKED: TER
DOCKED: ENDMDL
________________________________________________________________________________


	BEGINNING GENETIC ALGORITHM DOCKING 71 of 100
Run: 71 Seed: 1638607541 1063354452 [ Run 71 of 100 GA/GALS ]
Beginning LAMARCKIAN GENETIC ALGORITHM (LGA), with a maximum of 25000000 energy evaluations.

Final-Value: -19.079


	FINAL GENETIC ALGORITHM DOCKED STATE
	_______________________________________________


Detailed state:  trans 3.553 19.517 -5.109 quatxyzw 0.226866 -0.361790 -0.301577 -0.852462 center 0.035 0.082 -0.065 ntor 24 118.6616 122.4766 -25.6715 -86.0947 118.9901 145.5036 11.1322 -108.9846 30.6827 14.8541 17.9619 -163.7888 -38.6095 -154.1783 40.0455 -50.5653 148.6467 -1.4933 23.2628 -41.4471 171.1171 17.1365 -8.8029 -6.0559
State:	  3.553  19.517  -5.109   0.434 -0.692 -0.577 -63.039    118.66  122.48  -25.67  -86.09  118.99  145.50   11.13 -108.98   30.68   14.85   17.96 -163.79  -38.61 -154.18   40.05  -50.57  148.65   -1.49   23.26  -41.45  171.12   17.14   -8.80   -6.06

DOCKED: MODEL       71
DOCKED: USER    Run = 71
DOCKED: USER    DPF = D:/Protein_go_brrr/autodock/final/AncMH_nat/IHP/dock.dpf
DOCKED: USER  
DOCKED: USER    Estimated Free Energy of Binding    =   +1.01 kcal/mol  [=(1)+(2)+(3)-(4)]
DOCKED: USER    
DOCKED: USER    (1) Final Intermolecular Energy     =   -6.15 kcal/mol
DOCKED: USER        vdW + Hbond + desolv Energy     =   -5.92 kcal/mol
DOCKED: USER        Electrostatic Energy            =   -0.23 kcal/mol
DOCKED: USER    (2) Final Total Internal Energy     =  -12.93 kcal/mol
DOCKED: USER    (3) Torsional Free Energy           =   +7.16 kcal/mol
DOCKED: USER    (4) Unbound System's Energy  [=(2)] =  -12.93 kcal/mol
DOCKED: USER    
DOCKED: USER    
DOCKED: USER    NEWDPF move IHP_ideal_opt.pdbqt
DOCKED: USER    NEWDPF about 0.035000 0.082000 -0.065000
DOCKED: USER    NEWDPF tran0 3.553336 19.517220 -5.108892
DOCKED: USER    NEWDPF quaternion0 0.226866 -0.361790 -0.301577 -0.852462
DOCKED: USER    NEWDPF axisangle0 0.433953 -0.692038 -0.576860 -63.039113
DOCKED: USER    NEWDPF quat0 0.433953 -0.692038 -0.576860 -63.039113
DOCKED: USER    NEWDPF dihe0 118.66 122.48 -25.67 -86.09 118.99 145.50 11.13 -108.98 30.68 14.85 17.96 -163.79 -38.61 -154.18 40.05 -50.57 148.65 -1.49 23.26 -41.45 171.12 17.14 -8.80 -6.06 
DOCKED: USER  keepresnum = 1 
DOCKED: USER  
DOCKED: REMARK  24 active torsions:
DOCKED: REMARK  status: ('A' for Active; 'I' for Inactive)
DOCKED: REMARK    1  A    between atoms: C_1  and  O_7 
DOCKED: REMARK    2  A    between atoms: C_2  and  O_12 
DOCKED: REMARK    3  A    between atoms: C_3  and  O_17 
DOCKED: REMARK    4  A    between atoms: C_4  and  O_22 
DOCKED: REMARK    5  A    between atoms: C_5  and  O_27 
DOCKED: REMARK    6  A    between atoms: C_6  and  O_32 
DOCKED: REMARK    7  A    between atoms: O_7  and  P_8 
DOCKED: REMARK    8  A    between atoms: P_8  and  O_10 
DOCKED: REMARK    9  A    between atoms: P_8  and  O_11 
DOCKED: REMARK   10  A    between atoms: O_12  and  P_13 
DOCKED: REMARK   11  A    between atoms: P_13  and  O_15 
DOCKED: REMARK   12  A    between atoms: P_13  and  O_16 
DOCKED: REMARK   13  A    between atoms: O_17  and  P_18 
DOCKED: REMARK   14  A    between atoms: P_18  and  O_20 
DOCKED: REMARK   15  A    between atoms: P_18  and  O_21 
DOCKED: REMARK   16  A    between atoms: O_22  and  P_23 
DOCKED: REMARK   17  A    between atoms: P_23  and  O_25 
DOCKED: REMARK   18  A    between atoms: P_23  and  O_26 
DOCKED: REMARK   19  A    between atoms: O_27  and  P_28 
DOCKED: REMARK   20  A    between atoms: P_28  and  O_30 
DOCKED: REMARK   21  A    between atoms: P_28  and  O_31 
DOCKED: REMARK   22  A    between atoms: O_32  and  P_33 
DOCKED: REMARK   23  A    between atoms: P_33  and  O_35 
DOCKED: REMARK   24  A    between atoms: P_33  and  O_36 
DOCKED: USER                              x       y       z     vdW  Elec       q    Type
DOCKED: USER                           _______ _______ _______ _____ _____    ______ ____
DOCKED: ROOT
DOCKED: ATOM      1  C   UNL d   1       3.343  17.899  -4.542 -0.12 +0.01    +0.194 C 
DOCKED: ATOM      2  C   UNL d   1       2.646  18.233  -5.862 -0.08 -0.00    +0.194 C 
DOCKED: ATOM      3  C   UNL d   1       1.963  19.601  -5.812 -0.02 -0.01    +0.194 C 
DOCKED: ATOM      4  C   UNL d   1       2.893  20.721  -5.351 -0.00 +0.00    +0.194 C 
DOCKED: ATOM      5  C   UNL d   1       3.696  20.386  -4.101 -0.03 +0.01    +0.194 C 
DOCKED: ATOM      6  C   UNL d   1       4.328  18.992  -4.125 -0.11 +0.02    +0.194 C 
DOCKED: ENDROOT
DOCKED: BRANCH   1   7
DOCKED: ATOM      7  O   UNL d   1       4.095  16.697  -4.727 -0.43 -0.05    -0.278 OA
DOCKED: BRANCH   7   8
DOCKED: ATOM      8  P   UNL d   1       3.464  15.321  -4.217 -0.28 +0.03    +0.473 P 
DOCKED: ATOM      9  O   UNL d   1       2.018  15.381  -3.868 -0.25 -0.00    -0.228 OA
DOCKED: BRANCH   8  10
DOCKED: ATOM     10  O   UNL d   1       3.784  14.290  -5.391 -0.37 +0.00    -0.303 OA
DOCKED: ATOM     11  H   UNL d   1       3.672  14.732  -6.254 -0.01 -0.02    +0.222 HD
DOCKED: ENDBRANCH   8  10
DOCKED: BRANCH   8  12
DOCKED: ATOM     12  O   UNL d   1       4.436  14.823  -3.063 -0.45 -0.03    -0.303 OA
DOCKED: ATOM     13  H   UNL d   1       4.306  15.304  -2.215 -0.31 -0.03    +0.222 HD
DOCKED: ENDBRANCH   8  12
DOCKED: ENDBRANCH   7   8
DOCKED: ENDBRANCH   1   7
DOCKED: BRANCH   2  14
DOCKED: ATOM     14  O   UNL d   1       3.619  18.246  -6.914 -0.06 -0.01    -0.278 OA
DOCKED: BRANCH  14  15
DOCKED: ATOM     15  P   UNL d   1       3.872  16.859  -7.673 -0.19 +0.08    +0.473 P 
DOCKED: ATOM     16  O   UNL d   1       5.063  16.063  -7.238 -0.35 -0.07    -0.228 OA
DOCKED: BRANCH  15  17
DOCKED: ATOM     17  O   UNL d   1       2.502  16.066  -7.499 -0.26 +0.06    -0.303 OA
DOCKED: ATOM     18  H   UNL d   1       2.644  15.213  -7.045 -0.42 -0.09    +0.222 HD
DOCKED: ENDBRANCH  15  17
DOCKED: BRANCH  15  19
DOCKED: ATOM     19  O   UNL d   1       3.828  17.238  -9.217 -0.46 -0.08    -0.303 OA
DOCKED: ATOM     20  H   UNL d   1       3.445  16.520  -9.754 -0.49 -0.06    +0.222 HD
DOCKED: ENDBRANCH  15  19
DOCKED: ENDBRANCH  14  15
DOCKED: ENDBRANCH   2  14
DOCKED: BRANCH   6  21
DOCKED: ATOM     21  O   UNL d   1       4.735  18.701  -2.790 -0.14 -0.06    -0.278 OA
DOCKED: BRANCH  21  22
DOCKED: ATOM     22  P   UNL d   1       3.634  18.458  -1.661 -0.22 +0.06    +0.473 P 
DOCKED: ATOM     23  O   UNL d   1       2.823  17.208  -1.725 -0.29 -0.01    -0.228 OA
DOCKED: BRANCH  22  24
DOCKED: ATOM     24  O   UNL d   1       4.489  18.631  -0.330 -0.30 -0.07    -0.303 OA
DOCKED: ATOM     25  H   UNL d   1       4.963  19.501  -0.379 -0.05 +0.05    +0.222 HD
DOCKED: ENDBRANCH  22  24
DOCKED: BRANCH  22  26
DOCKED: ATOM     26  O   UNL d   1       2.811  19.833  -1.708 -0.08 -0.04    -0.303 OA
DOCKED: ATOM     27  H   UNL d   1       3.404  20.553  -2.006 +0.05 +0.03    +0.222 HD
DOCKED: ENDBRANCH  22  26
DOCKED: ENDBRANCH  21  22
DOCKED: ENDBRANCH   6  21
DOCKED: BRANCH   3  28
DOCKED: ATOM     28  O   UNL d   1       1.590  19.943  -7.141 -0.03 +0.02    -0.278 OA
DOCKED: BRANCH  28  29
DOCKED: ATOM     29  P   UNL d   1       0.094  20.377  -7.470 -0.02 -0.05    +0.473 P 
DOCKED: ATOM     30  O   UNL d   1      -0.895  19.269  -7.536 -0.11 +0.06    -0.228 OA
DOCKED: BRANCH  29  31
DOCKED: ATOM     31  O   UNL d   1      -0.131  21.485  -6.338 -0.00 +0.01    -0.303 OA
DOCKED: ATOM     32  H   UNL d   1       0.505  22.222  -6.489 +0.01 -0.01    +0.222 HD
DOCKED: ENDBRANCH  29  31
DOCKED: BRANCH  29  33
DOCKED: ATOM     33  O   UNL d   1       0.282  21.252  -8.787 -0.02 +0.03    -0.303 OA
DOCKED: ATOM     34  H   UNL d   1       0.995  21.918  -8.630 +0.01 -0.02    +0.222 HD
DOCKED: ENDBRANCH  29  33
DOCKED: ENDBRANCH  28  29
DOCKED: ENDBRANCH   3  28
DOCKED: BRANCH   5  35
DOCKED: ATOM     35  O   UNL d   1       4.763  21.330  -4.061 -0.02 -0.02    -0.278 OA
DOCKED: BRANCH  35  36
DOCKED: ATOM     36  P   UNL d   1       4.941  22.292  -2.801 +0.00 +0.04    +0.473 P 
DOCKED: ATOM     37  O   UNL d   1       5.889  23.434  -2.990 -0.00 -0.01    -0.228 OA
DOCKED: BRANCH  36  38
DOCKED: ATOM     38  O   UNL d   1       3.438  22.731  -2.511 -0.00 -0.02    -0.303 OA
DOCKED: ATOM     39  H   UNL d   1       2.976  22.879  -3.365 +0.01 +0.01    +0.222 HD
DOCKED: ENDBRANCH  36  38
DOCKED: BRANCH  36  40
DOCKED: ATOM     40  O   UNL d   1       5.272  21.264  -1.633 -0.06 -0.04    -0.303 OA
DOCKED: ATOM     41  H   UNL d   1       4.890  20.376  -1.811 +0.06 +0.04    +0.222 HD
DOCKED: ENDBRANCH  36  40
DOCKED: ENDBRANCH  35  36
DOCKED: ENDBRANCH   5  35
DOCKED: BRANCH   4  42
DOCKED: ATOM     42  O   UNL d   1       2.064  21.843  -5.031 -0.00 -0.00    -0.278 OA
DOCKED: BRANCH  42  43
DOCKED: ATOM     43  P   UNL d   1       2.229  23.188  -5.872 +0.00 -0.01    +0.473 P 
DOCKED: ATOM     44  O   UNL d   1       2.346  23.063  -7.352 -0.00 +0.01    -0.228 OA
DOCKED: BRANCH  43  45
DOCKED: ATOM     45  O   UNL d   1       0.985  24.056  -5.389 -0.00 +0.00    -0.303 OA
DOCKED: ATOM     46  H   UNL d   1       0.143  23.574  -5.511 +0.00 -0.00    +0.222 HD
DOCKED: ENDBRANCH  43  45
DOCKED: BRANCH  43  47
DOCKED: ATOM     47  O   UNL d   1       3.447  23.930  -5.141 -0.00 -0.00    -0.303 OA
DOCKED: ATOM     48  H   UNL d   1       3.914  23.291  -4.563 +0.00 +0.00    +0.222 HD
DOCKED: ENDBRANCH  43  47
DOCKED: ENDBRANCH  42  43
DOCKED: ENDBRANCH   4  42
DOCKED: TORSDOF 24
DOCKED: TER
DOCKED: ENDMDL
________________________________________________________________________________


	BEGINNING GENETIC ALGORITHM DOCKING 72 of 100
Run: 72 Seed: 1911447504 879711770 [ Run 72 of 100 GA/GALS ]
Beginning LAMARCKIAN GENETIC ALGORITHM (LGA), with a maximum of 25000000 energy evaluations.

Final-Value: -19.613


	FINAL GENETIC ALGORITHM DOCKED STATE
	_______________________________________________


Detailed state:  trans -19.335 1.104 12.463 quatxyzw 0.298312 0.569468 0.719080 -0.263893 center 0.035 0.082 -0.065 ntor 24 79.8816 -16.9102 66.2945 90.8600 1.5639 -125.6566 68.3141 -78.1102 58.3739 31.3900 2.4649 -131.4530 177.5866 128.0021 -37.0459 -121.6737 147.8453 -14.9164 16.9737 -8.5524 180.0000 5.6493 -7.0559 175.7601
State:	-19.335   1.104  12.463   0.309  0.590  0.746 -149.398     79.88  -16.91   66.29   90.86    1.56 -125.66   68.31  -78.11   58.37   31.39    2.46 -131.45  177.59  128.00  -37.05 -121.67  147.85  -14.92   16.97   -8.55  180.00    5.65   -7.06  175.76

DOCKED: MODEL       72
DOCKED: USER    Run = 72
DOCKED: USER    DPF = D:/Protein_go_brrr/autodock/final/AncMH_nat/IHP/dock.dpf
DOCKED: USER  
DOCKED: USER    Estimated Free Energy of Binding    =   +2.42 kcal/mol  [=(1)+(2)+(3)-(4)]
DOCKED: USER    
DOCKED: USER    (1) Final Intermolecular Energy     =   -4.74 kcal/mol
DOCKED: USER        vdW + Hbond + desolv Energy     =   -4.48 kcal/mol
DOCKED: USER        Electrostatic Energy            =   -0.26 kcal/mol
DOCKED: USER    (2) Final Total Internal Energy     =  -14.87 kcal/mol
DOCKED: USER    (3) Torsional Free Energy           =   +7.16 kcal/mol
DOCKED: USER    (4) Unbound System's Energy  [=(2)] =  -14.87 kcal/mol
DOCKED: USER    
DOCKED: USER    
DOCKED: USER    NEWDPF move IHP_ideal_opt.pdbqt
DOCKED: USER    NEWDPF about 0.035000 0.082000 -0.065000
DOCKED: USER    NEWDPF tran0 -19.334697 1.104146 12.462919
DOCKED: USER    NEWDPF quaternion0 0.298312 0.569468 0.719080 -0.263893
DOCKED: USER    NEWDPF axisangle0 0.309276 0.590396 0.745507 -149.397621
DOCKED: USER    NEWDPF quat0 0.309276 0.590396 0.745507 -149.397621
DOCKED: USER    NEWDPF dihe0 79.88 -16.91 66.29 90.86 1.56 -125.66 68.31 -78.11 58.37 31.39 2.46 -131.45 177.59 128.00 -37.05 -121.67 147.85 -14.92 16.97 -8.55 180.00 5.65 -7.06 175.76 
DOCKED: USER  keepresnum = 1 
DOCKED: USER  
DOCKED: REMARK  24 active torsions:
DOCKED: REMARK  status: ('A' for Active; 'I' for Inactive)
DOCKED: REMARK    1  A    between atoms: C_1  and  O_7 
DOCKED: REMARK    2  A    between atoms: C_2  and  O_12 
DOCKED: REMARK    3  A    between atoms: C_3  and  O_17 
DOCKED: REMARK    4  A    between atoms: C_4  and  O_22 
DOCKED: REMARK    5  A    between atoms: C_5  and  O_27 
DOCKED: REMARK    6  A    between atoms: C_6  and  O_32 
DOCKED: REMARK    7  A    between atoms: O_7  and  P_8 
DOCKED: REMARK    8  A    between atoms: P_8  and  O_10 
DOCKED: REMARK    9  A    between atoms: P_8  and  O_11 
DOCKED: REMARK   10  A    between atoms: O_12  and  P_13 
DOCKED: REMARK   11  A    between atoms: P_13  and  O_15 
DOCKED: REMARK   12  A    between atoms: P_13  and  O_16 
DOCKED: REMARK   13  A    between atoms: O_17  and  P_18 
DOCKED: REMARK   14  A    between atoms: P_18  and  O_20 
DOCKED: REMARK   15  A    between atoms: P_18  and  O_21 
DOCKED: REMARK   16  A    between atoms: O_22  and  P_23 
DOCKED: REMARK   17  A    between atoms: P_23  and  O_25 
DOCKED: REMARK   18  A    between atoms: P_23  and  O_26 
DOCKED: REMARK   19  A    between atoms: O_27  and  P_28 
DOCKED: REMARK   20  A    between atoms: P_28  and  O_30 
DOCKED: REMARK   21  A    between atoms: P_28  and  O_31 
DOCKED: REMARK   22  A    between atoms: O_32  and  P_33 
DOCKED: REMARK   23  A    between atoms: P_33  and  O_35 
DOCKED: REMARK   24  A    between atoms: P_33  and  O_36 
DOCKED: USER                              x       y       z     vdW  Elec       q    Type
DOCKED: USER                           _______ _______ _______ _____ _____    ______ ____
DOCKED: ROOT
DOCKED: ATOM      1  C   UNL d   1     -19.578   2.717  11.894 -0.12 +0.04    +0.194 C 
DOCKED: ATOM      2  C   UNL d   1     -18.963   1.746  10.885 -0.12 +0.03    +0.194 C 
DOCKED: ATOM      3  C   UNL d   1     -17.886   0.868  11.526 -0.14 +0.02    +0.194 C 
DOCKED: ATOM      4  C   UNL d   1     -18.363   0.160  12.792 -0.04 +0.03    +0.194 C 
DOCKED: ATOM      5  C   UNL d   1     -19.086   1.070  13.778 -0.02 +0.04    +0.194 C 
DOCKED: ATOM      6  C   UNL d   1     -20.119   1.992  13.127 -0.03 +0.05    +0.194 C 
DOCKED: ENDROOT
DOCKED: BRANCH   1   7
DOCKED: ATOM      7  O   UNL d   1     -20.682   3.373  11.266 -0.07 -0.07    -0.278 OA
DOCKED: BRANCH   7   8
DOCKED: ATOM      8  P   UNL d   1     -20.504   4.894  10.813 -0.14 +0.13    +0.473 P 
DOCKED: ATOM      9  O   UNL d   1     -21.594   5.812  11.243 -0.07 -0.08    -0.228 OA
DOCKED: BRANCH   8  10
DOCKED: ATOM     10  O   UNL d   1     -19.074   5.304  11.389 -0.25 -0.08    -0.303 OA
DOCKED: ATOM     11  H   UNL d   1     -19.146   5.486  12.345 +0.05 +0.15    +0.222 HD
DOCKED: ENDBRANCH   8  10
DOCKED: BRANCH   8  12
DOCKED: ATOM     12  O   UNL d   1     -20.227   4.829   9.250 -0.19 -0.11    -0.303 OA
DOCKED: ATOM     13  H   UNL d   1     -19.403   4.342   9.024 -0.22 +0.07    +0.222 HD
DOCKED: ENDBRANCH   8  12
DOCKED: ENDBRANCH   7   8
DOCKED: ENDBRANCH   1   7
DOCKED: BRANCH   2  14
DOCKED: ATOM     14  O   UNL d   1     -19.994   0.897  10.365 -0.04 -0.07    -0.278 OA
DOCKED: BRANCH  14  15
DOCKED: ATOM     15  P   UNL d   1     -20.188   0.897   8.776 -0.07 +0.20    +0.473 P 
DOCKED: ATOM     16  O   UNL d   1     -21.316   0.074   8.236 -0.04 -0.10    -0.228 OA
DOCKED: BRANCH  15  17
DOCKED: ATOM     17  O   UNL d   1     -20.315   2.440   8.400 -0.14 -0.18    -0.303 OA
DOCKED: ATOM     18  H   UNL d   1     -20.704   2.950   9.136 +0.05 +0.09    +0.222 HD
DOCKED: ENDBRANCH  15  17
DOCKED: BRANCH  15  19
DOCKED: ATOM     19  O   UNL d   1     -18.747   0.545   8.201 -0.15 -0.15    -0.303 OA
DOCKED: ATOM     20  H   UNL d   1     -18.249  -0.034   8.806 +0.07 +0.08    +0.222 HD
DOCKED: ENDBRANCH  15  19
DOCKED: ENDBRANCH  14  15
DOCKED: ENDBRANCH   2  14
DOCKED: BRANCH   6  21
DOCKED: ATOM     21  O   UNL d   1     -20.445   2.991  14.090 -0.03 -0.10    -0.278 OA
DOCKED: BRANCH  21  22
DOCKED: ATOM     22  P   UNL d   1     -19.441   4.204  14.344 -0.05 +0.40    +0.473 P 
DOCKED: ATOM     23  O   UNL d   1     -18.111   4.171  13.670 -0.12 -0.15    -0.228 OA
DOCKED: BRANCH  22  24
DOCKED: ATOM     24  O   UNL d   1     -20.347   5.459  13.972 -0.16 -0.37    -0.303 OA
DOCKED: ATOM     25  H   UNL d   1     -20.567   5.405  13.007 +0.04 +0.17    +0.222 HD
DOCKED: ENDBRANCH  22  24
DOCKED: BRANCH  22  26
DOCKED: ATOM     26  O   UNL d   1     -19.416   4.277  15.945 -0.43 -0.29    -0.303 OA
DOCKED: ATOM     27  H   UNL d   1     -19.088   3.426  16.301 +0.02 +0.12    +0.222 HD
DOCKED: ENDBRANCH  22  26
DOCKED: ENDBRANCH  21  22
DOCKED: ENDBRANCH   6  21
DOCKED: BRANCH   3  28
DOCKED: ATOM     28  O   UNL d   1     -17.577  -0.171  10.607 -0.08 -0.05    -0.278 OA
DOCKED: BRANCH  28  29
DOCKED: ATOM     29  P   UNL d   1     -16.118  -0.278   9.975 -0.19 +0.08    +0.473 P 
DOCKED: ATOM     30  O   UNL d   1     -16.057  -0.815   8.591 -0.63 -0.07    -0.228 OA
DOCKED: BRANCH  29  31
DOCKED: ATOM     31  O   UNL d   1     -15.608   1.222  10.196 -0.30 -0.05    -0.303 OA
DOCKED: ATOM     32  H   UNL d   1     -14.803   1.200  10.763 -0.40 -0.02    +0.222 HD
DOCKED: ENDBRANCH  29  31
DOCKED: BRANCH  29  33
DOCKED: ATOM     33  O   UNL d   1     -15.328  -1.087  11.096 -0.13 +0.02    -0.303 OA
DOCKED: ATOM     34  H   UNL d   1     -15.824  -1.023  11.948 +0.10 +0.01    +0.222 HD
DOCKED: ENDBRANCH  29  33
DOCKED: ENDBRANCH  28  29
DOCKED: ENDBRANCH   3  28
DOCKED: BRANCH   5  35
DOCKED: ATOM     35  O   UNL d   1     -19.794   0.201  14.659 -0.00 -0.06    -0.278 OA
DOCKED: BRANCH  35  36
DOCKED: ATOM     36  P   UNL d   1     -19.552   0.279  16.233 +0.01 +0.09    +0.473 P 
DOCKED: ATOM     37  O   UNL d   1     -20.121  -0.851  17.031 +0.00 -0.04    -0.228 OA
DOCKED: BRANCH  36  38
DOCKED: ATOM     38  O   UNL d   1     -17.966   0.403  16.313 -0.00 -0.06    -0.303 OA
DOCKED: ATOM     39  H   UNL d   1     -17.584   0.210  15.430 +0.04 +0.04    +0.222 HD
DOCKED: ENDBRANCH  36  38
DOCKED: BRANCH  36  40
DOCKED: ATOM     40  O   UNL d   1     -20.068   1.742  16.584 -0.00 -0.07    -0.303 OA
DOCKED: ATOM     41  H   UNL d   1     -20.241   2.271  15.774 +0.01 +0.07    +0.222 HD
DOCKED: ENDBRANCH  36  40
DOCKED: ENDBRANCH  35  36
DOCKED: ENDBRANCH   5  35
DOCKED: BRANCH   4  42
DOCKED: ATOM     42  O   UNL d   1     -17.195  -0.336  13.455 -0.04 -0.04    -0.278 OA
DOCKED: BRANCH  42  43
DOCKED: ATOM     43  P   UNL d   1     -16.128   0.706  14.020 -0.08 +0.04    +0.473 P 
DOCKED: ATOM     44  O   UNL d   1     -16.636   2.030  14.476 -0.13 -0.04    -0.228 OA
DOCKED: BRANCH  43  45
DOCKED: ATOM     45  O   UNL d   1     -15.387  -0.132  15.151 -0.08 -0.03    -0.303 OA
DOCKED: ATOM     46  H   UNL d   1     -15.969  -0.285  15.922 +0.07 +0.03    +0.222 HD
DOCKED: ENDBRANCH  43  45
DOCKED: BRANCH  43  47
DOCKED: ATOM     47  O   UNL d   1     -15.015   0.752  12.867 -0.23 +0.03    -0.303 OA
DOCKED: ATOM     48  H   UNL d   1     -15.455   0.856  11.998 -0.01 -0.02    +0.222 HD
DOCKED: ENDBRANCH  43  47
DOCKED: ENDBRANCH  42  43
DOCKED: ENDBRANCH   4  42
DOCKED: TORSDOF 24
DOCKED: TER
DOCKED: ENDMDL
________________________________________________________________________________


	BEGINNING GENETIC ALGORITHM DOCKING 73 of 100
Run: 73 Seed: 1120522901 301069754 [ Run 73 of 100 GA/GALS ]
Beginning LAMARCKIAN GENETIC ALGORITHM (LGA), with a maximum of 25000000 energy evaluations.

Final-Value: -19.326


	FINAL GENETIC ALGORITHM DOCKED STATE
	_______________________________________________


Detailed state:  trans 3.033 3.692 -15.042 quatxyzw 0.300022 0.001697 0.613947 0.730105 center 0.035 0.082 -0.065 ntor 24 56.7685 128.3845 96.9442 101.6342 66.8924 -131.3533 -88.2874 -56.7403 84.4736 -30.5538 126.4321 -99.4762 -91.7783 89.6738 68.4581 32.0165 40.3266 79.5308 -144.7691 -11.0457 27.5741 -8.0109 -171.7593 24.3059
State:	  3.033   3.692 -15.042   0.439  0.002  0.898 86.210     56.77  128.38   96.94  101.63   66.89 -131.35  -88.29  -56.74   84.47  -30.55  126.43  -99.48  -91.78   89.67   68.46   32.02   40.33   79.53 -144.77  -11.05   27.57   -8.01 -171.76   24.31

DOCKED: MODEL       73
DOCKED: USER    Run = 73
DOCKED: USER    DPF = D:/Protein_go_brrr/autodock/final/AncMH_nat/IHP/dock.dpf
DOCKED: USER  
DOCKED: USER    Estimated Free Energy of Binding    =   +2.82 kcal/mol  [=(1)+(2)+(3)-(4)]
DOCKED: USER    
DOCKED: USER    (1) Final Intermolecular Energy     =   -4.34 kcal/mol
DOCKED: USER        vdW + Hbond + desolv Energy     =   -4.41 kcal/mol
DOCKED: USER        Electrostatic Energy            =   +0.07 kcal/mol
DOCKED: USER    (2) Final Total Internal Energy     =  -14.98 kcal/mol
DOCKED: USER    (3) Torsional Free Energy           =   +7.16 kcal/mol
DOCKED: USER    (4) Unbound System's Energy  [=(2)] =  -14.98 kcal/mol
DOCKED: USER    
DOCKED: USER    
DOCKED: USER    NEWDPF move IHP_ideal_opt.pdbqt
DOCKED: USER    NEWDPF about 0.035000 0.082000 -0.065000
DOCKED: USER    NEWDPF tran0 3.032871 3.691658 -15.042378
DOCKED: USER    NEWDPF quaternion0 0.300022 0.001697 0.613947 0.730105
DOCKED: USER    NEWDPF axisangle0 0.439055 0.002484 0.898457 86.209573
DOCKED: USER    NEWDPF quat0 0.439055 0.002484 0.898457 86.209573
DOCKED: USER    NEWDPF dihe0 56.77 128.38 96.94 101.63 66.89 -131.35 -88.29 -56.74 84.47 -30.55 126.43 -99.48 -91.78 89.67 68.46 32.02 40.33 79.53 -144.77 -11.05 27.57 -8.01 -171.76 24.31 
DOCKED: USER  keepresnum = 1 
DOCKED: USER  
DOCKED: REMARK  24 active torsions:
DOCKED: REMARK  status: ('A' for Active; 'I' for Inactive)
DOCKED: REMARK    1  A    between atoms: C_1  and  O_7 
DOCKED: REMARK    2  A    between atoms: C_2  and  O_12 
DOCKED: REMARK    3  A    between atoms: C_3  and  O_17 
DOCKED: REMARK    4  A    between atoms: C_4  and  O_22 
DOCKED: REMARK    5  A    between atoms: C_5  and  O_27 
DOCKED: REMARK    6  A    between atoms: C_6  and  O_32 
DOCKED: REMARK    7  A    between atoms: O_7  and  P_8 
DOCKED: REMARK    8  A    between atoms: P_8  and  O_10 
DOCKED: REMARK    9  A    between atoms: P_8  and  O_11 
DOCKED: REMARK   10  A    between atoms: O_12  and  P_13 
DOCKED: REMARK   11  A    between atoms: P_13  and  O_15 
DOCKED: REMARK   12  A    between atoms: P_13  and  O_16 
DOCKED: REMARK   13  A    between atoms: O_17  and  P_18 
DOCKED: REMARK   14  A    between atoms: P_18  and  O_20 
DOCKED: REMARK   15  A    between atoms: P_18  and  O_21 
DOCKED: REMARK   16  A    between atoms: O_22  and  P_23 
DOCKED: REMARK   17  A    between atoms: P_23  and  O_25 
DOCKED: REMARK   18  A    between atoms: P_23  and  O_26 
DOCKED: REMARK   19  A    between atoms: O_27  and  P_28 
DOCKED: REMARK   20  A    between atoms: P_28  and  O_30 
DOCKED: REMARK   21  A    between atoms: P_28  and  O_31 
DOCKED: REMARK   22  A    between atoms: O_32  and  P_33 
DOCKED: REMARK   23  A    between atoms: P_33  and  O_35 
DOCKED: REMARK   24  A    between atoms: P_33  and  O_36 
DOCKED: USER                              x       y       z     vdW  Elec       q    Type
DOCKED: USER                           _______ _______ _______ _____ _____    ______ ____
DOCKED: ROOT
DOCKED: ATOM      1  C   UNL d   1       2.834   2.859 -13.542 -0.28 -0.01    +0.194 C 
DOCKED: ATOM      2  C   UNL d   1       1.670   3.761 -13.957 -0.22 +0.01    +0.194 C 
DOCKED: ATOM      3  C   UNL d   1       2.161   5.101 -14.510 -0.16 +0.03    +0.194 C 
DOCKED: ATOM      4  C   UNL d   1       3.198   4.950 -15.619 -0.11 +0.01    +0.194 C 
DOCKED: ATOM      5  C   UNL d   1       4.318   3.970 -15.293 -0.12 -0.01    +0.194 C 
DOCKED: ATOM      6  C   UNL d   1       3.831   2.654 -14.683 -0.19 -0.03    +0.194 C 
DOCKED: ENDROOT
DOCKED: BRANCH   1   7
DOCKED: ATOM      7  O   UNL d   1       2.304   1.575 -13.203 -0.29 +0.03    -0.278 OA
DOCKED: BRANCH   7   8
DOCKED: ATOM      8  P   UNL d   1       2.237   0.457 -14.342 -0.12 -0.05    +0.473 P 
DOCKED: ATOM      9  O   UNL d   1       1.825   0.948 -15.685 -0.05 +0.02    -0.228 OA
DOCKED: BRANCH   8  10
DOCKED: ATOM     10  O   UNL d   1       3.694  -0.194 -14.331 -0.10 +0.04    -0.303 OA
DOCKED: ATOM     11  H   UNL d   1       4.219   0.168 -15.069 +0.09 -0.04    +0.222 HD
DOCKED: ENDBRANCH   8  10
DOCKED: BRANCH   8  12
DOCKED: ATOM     12  O   UNL d   1       1.348  -0.707 -13.726 -0.24 +0.02    -0.303 OA
DOCKED: ATOM     13  H   UNL d   1       0.382  -0.546 -13.822 +0.11 -0.01    +0.222 HD
DOCKED: ENDBRANCH   8  12
DOCKED: ENDBRANCH   7   8
DOCKED: ENDBRANCH   1   7
DOCKED: BRANCH   2  14
DOCKED: ATOM     14  O   UNL d   1       0.906   3.100 -14.973 -0.05 +0.01    -0.278 OA
DOCKED: BRANCH  14  15
DOCKED: ATOM     15  P   UNL d   1      -0.636   2.824 -14.644 -0.07 -0.01    +0.473 P 
DOCKED: ATOM     16  O   UNL d   1      -1.595   2.914 -15.790 -0.07 +0.01    -0.228 OA
DOCKED: BRANCH  15  17
DOCKED: ATOM     17  O   UNL d   1      -0.634   1.389 -13.952 -0.12 +0.01    -0.303 OA
DOCKED: ATOM     18  H   UNL d   1       0.274   1.036 -13.876 +0.11 -0.01    +0.222 HD
DOCKED: ENDBRANCH  15  17
DOCKED: BRANCH  15  19
DOCKED: ATOM     19  O   UNL d   1      -0.954   3.774 -13.408 -0.06 -0.02    -0.303 OA
DOCKED: ATOM     20  H   UNL d   1      -0.551   4.655 -13.517 +0.10 +0.02    +0.222 HD
DOCKED: ENDBRANCH  15  19
DOCKED: ENDBRANCH  14  15
DOCKED: ENDBRANCH   2  14
DOCKED: BRANCH   6  21
DOCKED: ATOM     21  O   UNL d   1       4.975   2.009 -14.128 -0.16 +0.10    -0.278 OA
DOCKED: BRANCH  21  22
DOCKED: ATOM     22  P   UNL d   1       6.035   1.308 -15.092 -0.17 -0.25    +0.473 P 
DOCKED: ATOM     23  O   UNL d   1       7.276   2.059 -15.440 -0.21 +0.25    -0.228 OA
DOCKED: BRANCH  22  24
DOCKED: ATOM     24  O   UNL d   1       6.279  -0.080 -14.353 -0.29 +0.15    -0.303 OA
DOCKED: ATOM     25  H   UNL d   1       5.708  -0.103 -13.544 -0.24 -0.11    +0.222 HD
DOCKED: ENDBRANCH  22  24
DOCKED: BRANCH  22  26
DOCKED: ATOM     26  O   UNL d   1       5.111   0.868 -16.326 -0.04 +0.08    -0.303 OA
DOCKED: ATOM     27  H   UNL d   1       4.630   1.651 -16.664 +0.05 -0.05    +0.222 HD
DOCKED: ENDBRANCH  22  26
DOCKED: ENDBRANCH  21  22
DOCKED: ENDBRANCH   6  21
DOCKED: BRANCH   3  28
DOCKED: ATOM     28  O   UNL d   1       1.049   5.746 -15.117 -0.11 -0.03    -0.278 OA
DOCKED: BRANCH  28  29
DOCKED: ATOM     29  P   UNL d   1       0.299   6.934 -14.367 -0.21 +0.08    +0.473 P 
DOCKED: ATOM     30  O   UNL d   1       0.925   7.386 -13.098 -0.87 -0.11    -0.228 OA
DOCKED: BRANCH  29  31
DOCKED: ATOM     31  O   UNL d   1       0.212   8.004 -15.554 -0.08 -0.02    -0.303 OA
DOCKED: ATOM     32  H   UNL d   1       1.037   7.947 -16.090 +0.05 +0.02    +0.222 HD
DOCKED: ENDBRANCH  29  31
DOCKED: BRANCH  29  33
DOCKED: ATOM     33  O   UNL d   1      -1.192   6.385 -14.278 -0.16 -0.02    -0.303 OA
DOCKED: ATOM     34  H   UNL d   1      -1.223   5.476 -14.665 +0.07 +0.01    +0.222 HD
DOCKED: ENDBRANCH  29  33
DOCKED: ENDBRANCH  28  29
DOCKED: ENDBRANCH   3  28
DOCKED: BRANCH   5  35
DOCKED: ATOM     35  O   UNL d   1       4.930   3.653 -16.541 -0.06 +0.05    -0.278 OA
DOCKED: BRANCH  35  36
DOCKED: ATOM     36  P   UNL d   1       4.034   3.409 -17.838 +0.00 -0.07    +0.473 P 
DOCKED: ATOM     37  O   UNL d   1       3.642   4.640 -18.592 -0.01 +0.02    -0.228 OA
DOCKED: BRANCH  36  38
DOCKED: ATOM     38  O   UNL d   1       4.934   2.391 -18.669 -0.00 +0.06    -0.303 OA
DOCKED: ATOM     39  H   UNL d   1       5.633   2.029 -18.084 +0.02 -0.06    +0.222 HD
DOCKED: ENDBRANCH  36  38
DOCKED: BRANCH  36  40
DOCKED: ATOM     40  O   UNL d   1       2.856   2.503 -17.272 -0.01 +0.03    -0.303 OA
DOCKED: ATOM     41  H   UNL d   1       3.162   1.591 -17.072 +0.03 -0.03    +0.222 HD
DOCKED: ENDBRANCH  36  40
DOCKED: ENDBRANCH  35  36
DOCKED: ENDBRANCH   5  35
DOCKED: BRANCH   4  42
DOCKED: ATOM     42  O   UNL d   1       3.802   6.235 -15.800 -0.06 -0.06    -0.278 OA
DOCKED: BRANCH  42  43
DOCKED: ATOM     43  P   UNL d   1       3.114   7.279 -16.790 -0.06 +0.06    +0.473 P 
DOCKED: ATOM     44  O   UNL d   1       2.782   8.625 -16.246 -0.12 -0.06    -0.228 OA
DOCKED: BRANCH  43  45
DOCKED: ATOM     45  O   UNL d   1       4.119   7.305 -18.024 -0.02 +0.01    -0.303 OA
DOCKED: ATOM     46  H   UNL d   1       4.290   6.404 -18.365 +0.02 -0.02    +0.222 HD
DOCKED: ENDBRANCH  43  45
DOCKED: BRANCH  43  47
DOCKED: ATOM     47  O   UNL d   1       1.879   6.453 -17.393 -0.01 -0.00    -0.303 OA
DOCKED: ATOM     48  H   UNL d   1       1.147   6.448 -16.743 +0.04 +0.01    +0.222 HD
DOCKED: ENDBRANCH  43  47
DOCKED: ENDBRANCH  42  43
DOCKED: ENDBRANCH   4  42
DOCKED: TORSDOF 24
DOCKED: TER
DOCKED: ENDMDL
________________________________________________________________________________


	BEGINNING GENETIC ALGORITHM DOCKING 74 of 100
Run: 74 Seed: 1431359011 1836660636 [ Run 74 of 100 GA/GALS ]
Beginning LAMARCKIAN GENETIC ALGORITHM (LGA), with a maximum of 25000000 energy evaluations.

Final-Value: -17.969


	FINAL GENETIC ALGORITHM DOCKED STATE
	_______________________________________________


Detailed state:  trans -7.160 -9.318 20.213 quatxyzw -0.799771 -0.301043 -0.390956 0.341895 center 0.035 0.082 -0.065 ntor 24 151.3085 121.6718 103.3444 116.8284 61.0502 93.1985 -140.5121 -80.5558 140.2606 58.7148 67.7143 12.3774 -86.1133 90.9039 64.7908 -119.8820 79.2525 -92.9333 -142.4795 -7.8970 179.6583 -17.7365 12.6120 -178.5686
State:	 -7.160  -9.318  20.213  -0.851 -0.320 -0.416 140.015    151.31  121.67  103.34  116.83   61.05   93.20 -140.51  -80.56  140.26   58.71   67.71   12.38  -86.11   90.90   64.79 -119.88   79.25  -92.93 -142.48   -7.90  179.66  -17.74   12.61 -178.57

DOCKED: MODEL       74
DOCKED: USER    Run = 74
DOCKED: USER    DPF = D:/Protein_go_brrr/autodock/final/AncMH_nat/IHP/dock.dpf
DOCKED: USER  
DOCKED: USER    Estimated Free Energy of Binding    =   +2.52 kcal/mol  [=(1)+(2)+(3)-(4)]
DOCKED: USER    
DOCKED: USER    (1) Final Intermolecular Energy     =   -4.64 kcal/mol
DOCKED: USER        vdW + Hbond + desolv Energy     =   -4.43 kcal/mol
DOCKED: USER        Electrostatic Energy            =   -0.21 kcal/mol
DOCKED: USER    (2) Final Total Internal Energy     =  -13.33 kcal/mol
DOCKED: USER    (3) Torsional Free Energy           =   +7.16 kcal/mol
DOCKED: USER    (4) Unbound System's Energy  [=(2)] =  -13.33 kcal/mol
DOCKED: USER    
DOCKED: USER    
DOCKED: USER    NEWDPF move IHP_ideal_opt.pdbqt
DOCKED: USER    NEWDPF about 0.035000 0.082000 -0.065000
DOCKED: USER    NEWDPF tran0 -7.159635 -9.317642 20.212766
DOCKED: USER    NEWDPF quaternion0 -0.799771 -0.301043 -0.390956 0.341895
DOCKED: USER    NEWDPF axisangle0 -0.851058 -0.320348 -0.416026 140.015265
DOCKED: USER    NEWDPF quat0 -0.851058 -0.320348 -0.416026 140.015265
DOCKED: USER    NEWDPF dihe0 151.31 121.67 103.34 116.83 61.05 93.20 -140.51 -80.56 140.26 58.71 67.71 12.38 -86.11 90.90 64.79 -119.88 79.25 -92.93 -142.48 -7.90 179.66 -17.74 12.61 -178.57 
DOCKED: USER  keepresnum = 1 
DOCKED: USER  
DOCKED: REMARK  24 active torsions:
DOCKED: REMARK  status: ('A' for Active; 'I' for Inactive)
DOCKED: REMARK    1  A    between atoms: C_1  and  O_7 
DOCKED: REMARK    2  A    between atoms: C_2  and  O_12 
DOCKED: REMARK    3  A    between atoms: C_3  and  O_17 
DOCKED: REMARK    4  A    between atoms: C_4  and  O_22 
DOCKED: REMARK    5  A    between atoms: C_5  and  O_27 
DOCKED: REMARK    6  A    between atoms: C_6  and  O_32 
DOCKED: REMARK    7  A    between atoms: O_7  and  P_8 
DOCKED: REMARK    8  A    between atoms: P_8  and  O_10 
DOCKED: REMARK    9  A    between atoms: P_8  and  O_11 
DOCKED: REMARK   10  A    between atoms: O_12  and  P_13 
DOCKED: REMARK   11  A    between atoms: P_13  and  O_15 
DOCKED: REMARK   12  A    between atoms: P_13  and  O_16 
DOCKED: REMARK   13  A    between atoms: O_17  and  P_18 
DOCKED: REMARK   14  A    between atoms: P_18  and  O_20 
DOCKED: REMARK   15  A    between atoms: P_18  and  O_21 
DOCKED: REMARK   16  A    between atoms: O_22  and  P_23 
DOCKED: REMARK   17  A    between atoms: P_23  and  O_25 
DOCKED: REMARK   18  A    between atoms: P_23  and  O_26 
DOCKED: REMARK   19  A    between atoms: O_27  and  P_28 
DOCKED: REMARK   20  A    between atoms: P_28  and  O_30 
DOCKED: REMARK   21  A    between atoms: P_28  and  O_31 
DOCKED: REMARK   22  A    between atoms: O_32  and  P_33 
DOCKED: REMARK   23  A    between atoms: P_33  and  O_35 
DOCKED: REMARK   24  A    between atoms: P_33  and  O_36 
DOCKED: USER                              x       y       z     vdW  Elec       q    Type
DOCKED: USER                           _______ _______ _______ _____ _____    ______ ____
DOCKED: ROOT
DOCKED: ATOM      1  C   UNL d   1      -6.050  -8.106  19.679 -0.22 -0.03    +0.194 C 
DOCKED: ATOM      2  C   UNL d   1      -7.169  -8.456  18.697 -0.22 -0.02    +0.194 C 
DOCKED: ATOM      3  C   UNL d   1      -7.400  -9.966  18.615 -0.15 +0.01    +0.194 C 
DOCKED: ATOM      4  C   UNL d   1      -7.606 -10.618  19.980 -0.04 +0.00    +0.194 C 
DOCKED: ATOM      5  C   UNL d   1      -6.577 -10.207  21.026 -0.03 -0.01    +0.194 C 
DOCKED: ATOM      6  C   UNL d   1      -6.300  -8.703  21.065 -0.07 -0.02    +0.194 C 
DOCKED: ENDROOT
DOCKED: BRANCH   1   7
DOCKED: ATOM      7  O   UNL d   1      -6.014  -6.685  19.827 -0.15 +0.05    -0.278 OA
DOCKED: BRANCH   7   8
DOCKED: ATOM      8  P   UNL d   1      -6.808  -6.028  21.048 -0.07 -0.05    +0.473 P 
DOCKED: ATOM      9  O   UNL d   1      -8.074  -6.717  21.420 -0.04 +0.01    -0.228 OA
DOCKED: BRANCH   8  10
DOCKED: ATOM     10  O   UNL d   1      -5.739  -5.996  22.232 -0.04 +0.04    -0.303 OA
DOCKED: ATOM     11  H   UNL d   1      -4.931  -6.466  21.956 +0.05 -0.04    +0.222 HD
DOCKED: ENDBRANCH   8  10
DOCKED: BRANCH   8  12
DOCKED: ATOM     12  O   UNL d   1      -6.939  -4.489  20.676 -0.13 +0.03    -0.303 OA
DOCKED: ATOM     13  H   UNL d   1      -7.628  -4.314  19.996 +0.07 -0.02    +0.222 HD
DOCKED: ENDBRANCH   8  12
DOCKED: ENDBRANCH   7   8
DOCKED: ENDBRANCH   1   7
DOCKED: BRANCH   2  14
DOCKED: ATOM     14  O   UNL d   1      -8.383  -7.831  19.131 -0.13 +0.00    -0.278 OA
DOCKED: BRANCH  14  15
DOCKED: ATOM     15  P   UNL d   1      -9.107  -6.864  18.079 -0.26 +0.02    +0.473 P 
DOCKED: ATOM     16  O   UNL d   1     -10.602  -6.825  18.120 -0.21 -0.04    -0.228 OA
DOCKED: BRANCH  15  17
DOCKED: ATOM     17  O   UNL d   1      -8.445  -5.439  18.343 -0.35 +0.01    -0.303 OA
DOCKED: ATOM     18  H   UNL d   1      -7.699  -5.509  18.969 +0.06 -0.01    +0.222 HD
DOCKED: ENDBRANCH  15  17
DOCKED: BRANCH  15  19
DOCKED: ATOM     19  O   UNL d   1      -8.469  -7.258  16.676 -0.38 +0.02    -0.303 OA
DOCKED: ATOM     20  H   UNL d   1      -8.590  -8.204  16.477 +0.00 +0.01    +0.222 HD
DOCKED: ENDBRANCH  15  19
DOCKED: ENDBRANCH  14  15
DOCKED: ENDBRANCH   2  14
DOCKED: BRANCH   6  21
DOCKED: ATOM     21  O   UNL d   1      -5.105  -8.523  21.821 -0.04 +0.03    -0.278 OA
DOCKED: BRANCH  21  22
DOCKED: ATOM     22  P   UNL d   1      -3.690  -8.829  21.149 -0.07 -0.08    +0.473 P 
DOCKED: ATOM     23  O   UNL d   1      -2.940  -7.694  20.538 -0.19 +0.08    -0.228 OA
DOCKED: BRANCH  22  24
DOCKED: ATOM     24  O   UNL d   1      -2.926  -9.577  22.328 -0.02 +0.04    -0.303 OA
DOCKED: ATOM     25  H   UNL d   1      -3.504  -9.557  23.132 +0.02 -0.03    +0.222 HD
DOCKED: ENDBRANCH  22  24
DOCKED: BRANCH  22  26
DOCKED: ATOM     26  O   UNL d   1      -4.052 -10.043  20.166 -0.09 +0.03    -0.303 OA
DOCKED: ATOM     27  H   UNL d   1      -4.077 -10.876  20.680 +0.03 -0.02    +0.222 HD
DOCKED: ENDBRANCH  22  26
DOCKED: ENDBRANCH  21  22
DOCKED: ENDBRANCH   6  21
DOCKED: BRANCH   3  28
DOCKED: ATOM     28  O   UNL d   1      -8.616 -10.175  17.910 -0.09 -0.04    -0.278 OA
DOCKED: BRANCH  28  29
DOCKED: ATOM     29  P   UNL d   1      -8.603 -10.405  16.333 -0.11 +0.26    +0.473 P 
DOCKED: ATOM     30  O   UNL d   1      -9.767  -9.851  15.596 -0.34 -0.14    -0.228 OA
DOCKED: BRANCH  29  31
DOCKED: ATOM     31  O   UNL d   1      -7.164  -9.803  15.976 -0.10 -0.09    -0.303 OA
DOCKED: ATOM     32  H   UNL d   1      -7.262  -8.839  15.798 -0.37 -0.03    +0.222 HD
DOCKED: ENDBRANCH  29  31
DOCKED: BRANCH  29  33
DOCKED: ATOM     33  O   UNL d   1      -8.364 -11.975  16.226 -0.74 -0.30    -0.303 OA
DOCKED: ATOM     34  H   UNL d   1      -7.957 -12.296  17.068 +0.09 +0.09    +0.222 HD
DOCKED: ENDBRANCH  29  33
DOCKED: ENDBRANCH  28  29
DOCKED: ENDBRANCH   3  28
DOCKED: BRANCH   5  35
DOCKED: ATOM     35  O   UNL d   1      -7.142 -10.563  22.286 -0.00 +0.01    -0.278 OA
DOCKED: BRANCH  35  36
DOCKED: ATOM     36  P   UNL d   1      -6.212 -11.122  23.455 -0.00 -0.03    +0.473 P 
DOCKED: ATOM     37  O   UNL d   1      -6.269 -10.363  24.743 +0.00 +0.01    -0.228 OA
DOCKED: BRANCH  36  38
DOCKED: ATOM     38  O   UNL d   1      -6.700 -12.634  23.565 -0.00 +0.02    -0.303 OA
DOCKED: ATOM     39  H   UNL d   1      -6.407 -13.125  22.767 +0.00 -0.01    +0.222 HD
DOCKED: ENDBRANCH  36  38
DOCKED: BRANCH  36  40
DOCKED: ATOM     40  O   UNL d   1      -4.795 -11.228  22.742 -0.00 +0.02    -0.303 OA
DOCKED: ATOM     41  H   UNL d   1      -4.764 -10.701  21.912 +0.02 -0.02    +0.222 HD
DOCKED: ENDBRANCH  36  40
DOCKED: ENDBRANCH  35  36
DOCKED: ENDBRANCH   5  35
DOCKED: BRANCH   4  42
DOCKED: ATOM     42  O   UNL d   1      -7.472 -12.030  19.790 -0.01 -0.00    -0.278 OA
DOCKED: BRANCH  42  43
DOCKED: ATOM     43  P   UNL d   1      -6.030 -12.632  19.467 -0.01 -0.00    +0.473 P 
DOCKED: ATOM     44  O   UNL d   1      -5.223 -11.953  18.415 -0.10 -0.00    -0.228 OA
DOCKED: BRANCH  43  45
DOCKED: ATOM     45  O   UNL d   1      -5.337 -12.665  20.899 -0.01 +0.01    -0.303 OA
DOCKED: ATOM     46  H   UNL d   1      -5.902 -12.248  21.580 +0.01 -0.01    +0.222 HD
DOCKED: ENDBRANCH  43  45
DOCKED: BRANCH  43  47
DOCKED: ATOM     47  O   UNL d   1      -6.330 -14.186  19.214 -0.01 +0.00    -0.303 OA
DOCKED: ATOM     48  H   UNL d   1      -5.483 -14.677  19.185 +0.02 -0.01    +0.222 HD
DOCKED: ENDBRANCH  43  47
DOCKED: ENDBRANCH  42  43
DOCKED: ENDBRANCH   4  42
DOCKED: TORSDOF 24
DOCKED: TER
DOCKED: ENDMDL
________________________________________________________________________________


	BEGINNING GENETIC ALGORITHM DOCKING 75 of 100
Run: 75 Seed: 1929554872 16979883 [ Run 75 of 100 GA/GALS ]
Beginning LAMARCKIAN GENETIC ALGORITHM (LGA), with a maximum of 25000000 energy evaluations.

Final-Value: -18.243


	FINAL GENETIC ALGORITHM DOCKED STATE
	_______________________________________________


Detailed state:  trans -13.709 -13.599 17.655 quatxyzw 0.012241 0.101214 -0.780636 -0.616615 center 0.035 0.082 -0.065 ntor 24 74.1579 144.6800 60.2646 109.1883 117.2701 169.4363 43.3294 -77.2270 3.5491 92.2927 34.4746 -123.0112 -176.1602 -83.8422 51.4090 93.3108 -175.0524 -55.0887 -30.1097 -13.0025 -9.6653 -24.7369 -34.5650 -4.9799
State:	-13.709 -13.599  17.655   0.016  0.129 -0.992 -103.861     74.16  144.68   60.26  109.19  117.27  169.44   43.33  -77.23    3.55   92.29   34.47 -123.01 -176.16  -83.84   51.41   93.31 -175.05  -55.09  -30.11  -13.00   -9.67  -24.74  -34.56   -4.98

DOCKED: MODEL       75
DOCKED: USER    Run = 75
DOCKED: USER    DPF = D:/Protein_go_brrr/autodock/final/AncMH_nat/IHP/dock.dpf
DOCKED: USER  
DOCKED: USER    Estimated Free Energy of Binding    =   +1.64 kcal/mol  [=(1)+(2)+(3)-(4)]
DOCKED: USER    
DOCKED: USER    (1) Final Intermolecular Energy     =   -5.52 kcal/mol
DOCKED: USER        vdW + Hbond + desolv Energy     =   -4.96 kcal/mol
DOCKED: USER        Electrostatic Energy            =   -0.56 kcal/mol
DOCKED: USER    (2) Final Total Internal Energy     =  -12.73 kcal/mol
DOCKED: USER    (3) Torsional Free Energy           =   +7.16 kcal/mol
DOCKED: USER    (4) Unbound System's Energy  [=(2)] =  -12.73 kcal/mol
DOCKED: USER    
DOCKED: USER    
DOCKED: USER    NEWDPF move IHP_ideal_opt.pdbqt
DOCKED: USER    NEWDPF about 0.035000 0.082000 -0.065000
DOCKED: USER    NEWDPF tran0 -13.708954 -13.599276 17.655485
DOCKED: USER    NEWDPF quaternion0 0.012241 0.101214 -0.780636 -0.616615
DOCKED: USER    NEWDPF axisangle0 0.015548 0.128564 -0.991579 -103.861323
DOCKED: USER    NEWDPF quat0 0.015548 0.128564 -0.991579 -103.861323
DOCKED: USER    NEWDPF dihe0 74.16 144.68 60.26 109.19 117.27 169.44 43.33 -77.23 3.55 92.29 34.47 -123.01 -176.16 -83.84 51.41 93.31 -175.05 -55.09 -30.11 -13.00 -9.67 -24.74 -34.56 -4.98 
DOCKED: USER  keepresnum = 1 
DOCKED: USER  
DOCKED: REMARK  24 active torsions:
DOCKED: REMARK  status: ('A' for Active; 'I' for Inactive)
DOCKED: REMARK    1  A    between atoms: C_1  and  O_7 
DOCKED: REMARK    2  A    between atoms: C_2  and  O_12 
DOCKED: REMARK    3  A    between atoms: C_3  and  O_17 
DOCKED: REMARK    4  A    between atoms: C_4  and  O_22 
DOCKED: REMARK    5  A    between atoms: C_5  and  O_27 
DOCKED: REMARK    6  A    between atoms: C_6  and  O_32 
DOCKED: REMARK    7  A    between atoms: O_7  and  P_8 
DOCKED: REMARK    8  A    between atoms: P_8  and  O_10 
DOCKED: REMARK    9  A    between atoms: P_8  and  O_11 
DOCKED: REMARK   10  A    between atoms: O_12  and  P_13 
DOCKED: REMARK   11  A    between atoms: P_13  and  O_15 
DOCKED: REMARK   12  A    between atoms: P_13  and  O_16 
DOCKED: REMARK   13  A    between atoms: O_17  and  P_18 
DOCKED: REMARK   14  A    between atoms: P_18  and  O_20 
DOCKED: REMARK   15  A    between atoms: P_18  and  O_21 
DOCKED: REMARK   16  A    between atoms: O_22  and  P_23 
DOCKED: REMARK   17  A    between atoms: P_23  and  O_25 
DOCKED: REMARK   18  A    between atoms: P_23  and  O_26 
DOCKED: REMARK   19  A    between atoms: O_27  and  P_28 
DOCKED: REMARK   20  A    between atoms: P_28  and  O_30 
DOCKED: REMARK   21  A    between atoms: P_28  and  O_31 
DOCKED: REMARK   22  A    between atoms: O_32  and  P_33 
DOCKED: REMARK   23  A    between atoms: P_33  and  O_35 
DOCKED: REMARK   24  A    between atoms: P_33  and  O_36 
DOCKED: USER                              x       y       z     vdW  Elec       q    Type
DOCKED: USER                           _______ _______ _______ _____ _____    ______ ____
DOCKED: ROOT
DOCKED: ATOM      1  C   UNL d   1     -14.782 -14.745  18.377 -0.08 -0.08    +0.194 C 
DOCKED: ATOM      2  C   UNL d   1     -15.299 -13.306  18.310 -0.10 -0.05    +0.194 C 
DOCKED: ATOM      3  C   UNL d   1     -14.215 -12.297  18.694 -0.09 -0.00    +0.194 C 
DOCKED: ATOM      4  C   UNL d   1     -12.917 -12.481  17.912 -0.15 -0.01    +0.194 C 
DOCKED: ATOM      5  C   UNL d   1     -12.425 -13.922  17.855 -0.12 -0.04    +0.194 C 
DOCKED: ATOM      6  C   UNL d   1     -13.523 -14.938  17.531 -0.17 -0.09    +0.194 C 
DOCKED: ENDROOT
DOCKED: BRANCH   1   7
DOCKED: ATOM      7  O   UNL d   1     -15.790 -15.606  17.842 -0.08 +0.20    -0.278 OA
DOCKED: BRANCH   7   8
DOCKED: ATOM      8  P   UNL d   1     -15.850 -17.117  18.358 -0.02 -0.18    +0.473 P 
DOCKED: ATOM      9  O   UNL d   1     -15.779 -18.151  17.290 -0.06 +0.10    -0.228 OA
DOCKED: BRANCH   8  10
DOCKED: ATOM     10  O   UNL d   1     -14.653 -17.214  19.408 -0.00 +0.06    -0.303 OA
DOCKED: ATOM     11  H   UNL d   1     -13.817 -17.389  18.936 +0.03 -0.05    +0.222 HD
DOCKED: ENDBRANCH   8  10
DOCKED: BRANCH   8  12
DOCKED: ATOM     12  O   UNL d   1     -17.126 -17.181  19.302 -0.00 +0.07    -0.303 OA
DOCKED: ATOM     13  H   UNL d   1     -17.917 -17.560  18.856 +0.01 -0.05    +0.222 HD
DOCKED: ENDBRANCH   8  12
DOCKED: ENDBRANCH   7   8
DOCKED: ENDBRANCH   1   7
DOCKED: BRANCH   2  14
DOCKED: ATOM     14  O   UNL d   1     -15.730 -13.027  16.972 -0.19 +0.15    -0.278 OA
DOCKED: BRANCH  14  15
DOCKED: ATOM     15  P   UNL d   1     -17.275 -12.653  16.781 -0.11 -0.17    +0.473 P 
DOCKED: ATOM     16  O   UNL d   1     -18.234 -13.231  17.775 -0.04 +0.05    -0.228 OA
DOCKED: BRANCH  15  17
DOCKED: ATOM     17  O   UNL d   1     -17.290 -11.060  16.763 -0.09 -0.10    -0.303 OA
DOCKED: ATOM     18  H   UNL d   1     -16.620 -10.696  17.373 +0.04 +0.12    +0.222 HD
DOCKED: ENDBRANCH  15  17
DOCKED: BRANCH  15  19
DOCKED: ATOM     19  O   UNL d   1     -17.580 -12.993  15.257 -0.17 +0.29    -0.303 OA
DOCKED: ATOM     20  H   UNL d   1     -17.268 -13.885  15.018 -0.46 -0.53    +0.222 HD
DOCKED: ENDBRANCH  15  19
DOCKED: ENDBRANCH  14  15
DOCKED: ENDBRANCH   2  14
DOCKED: BRANCH   6  21
DOCKED: ATOM     21  O   UNL d   1     -12.999 -16.226  17.850 -0.07 +0.09    -0.278 OA
DOCKED: BRANCH  21  22
DOCKED: ATOM     22  P   UNL d   1     -12.700 -17.270  16.681 -0.16 -0.17    +0.473 P 
DOCKED: ATOM     23  O   UNL d   1     -11.419 -17.137  15.929 -0.19 +0.08    -0.228 OA
DOCKED: BRANCH  22  24
DOCKED: ATOM     24  O   UNL d   1     -12.892 -18.661  17.431 -0.03 +0.07    -0.303 OA
DOCKED: ATOM     25  H   UNL d   1     -13.768 -18.643  17.893 +0.03 -0.05    +0.222 HD
DOCKED: ENDBRANCH  22  24
DOCKED: BRANCH  22  26
DOCKED: ATOM     26  O   UNL d   1     -14.041 -17.175  15.809 -0.17 +0.23    -0.303 OA
DOCKED: ATOM     27  H   UNL d   1     -14.677 -16.584  16.260 -0.34 -0.28    +0.222 HD
DOCKED: ENDBRANCH  22  26
DOCKED: ENDBRANCH  21  22
DOCKED: ENDBRANCH   6  21
DOCKED: BRANCH   3  28
DOCKED: ATOM     28  O   UNL d   1     -14.689 -11.004  18.340 -0.12 -0.07    -0.278 OA
DOCKED: BRANCH  28  29
DOCKED: ATOM     29  P   UNL d   1     -15.605 -10.179  19.348 -0.07 +0.19    +0.473 P 
DOCKED: ATOM     30  O   UNL d   1     -14.938  -9.726  20.595 -0.02 -0.06    -0.228 OA
DOCKED: BRANCH  29  31
DOCKED: ATOM     31  O   UNL d   1     -16.150  -9.042  18.362 -0.55 -0.46    -0.303 OA
DOCKED: ATOM     32  H   UNL d   1     -17.026  -9.325  18.010 +0.02 +0.32    +0.222 HD
DOCKED: ENDBRANCH  29  31
DOCKED: BRANCH  29  33
DOCKED: ATOM     33  O   UNL d   1     -16.867 -11.136  19.512 -0.02 -0.06    -0.303 OA
DOCKED: ATOM     34  H   UNL d   1     -16.878 -11.783  18.765 +0.03 +0.02    +0.222 HD
DOCKED: ENDBRANCH  29  33
DOCKED: ENDBRANCH  28  29
DOCKED: ENDBRANCH   3  28
DOCKED: BRANCH   5  35
DOCKED: ATOM     35  O   UNL d   1     -11.482 -13.968  16.786 +0.30 +0.09    -0.278 OA
DOCKED: BRANCH  35  36
DOCKED: ATOM     36  P   UNL d   1      -9.922 -13.825  17.084 -0.11 +0.04    +0.473 P 
DOCKED: ATOM     37  O   UNL d   1      -9.192 -12.831  16.237 -0.73 -0.18    -0.228 OA
DOCKED: BRANCH  36  38
DOCKED: ATOM     38  O   UNL d   1      -9.916 -13.489  18.640 -0.02 -0.01    -0.303 OA
DOCKED: ATOM     39  H   UNL d   1     -10.325 -12.608  18.780 +0.05 +0.01    +0.222 HD
DOCKED: ENDBRANCH  36  38
DOCKED: BRANCH  36  40
DOCKED: ATOM     40  O   UNL d   1      -9.424 -15.334  17.016 -0.14 +0.04    -0.303 OA
DOCKED: ATOM     41  H   UNL d   1      -9.724 -15.780  16.193 -0.45 -0.09    +0.222 HD
DOCKED: ENDBRANCH  36  40
DOCKED: ENDBRANCH  35  36
DOCKED: ENDBRANCH   5  35
DOCKED: BRANCH   4  42
DOCKED: ATOM     42  O   UNL d   1     -11.912 -11.720  18.590 -0.05 -0.02    -0.278 OA
DOCKED: BRANCH  42  43
DOCKED: ATOM     43  P   UNL d   1     -11.238 -10.487  17.836 -0.08 +0.09    +0.473 P 
DOCKED: ATOM     44  O   UNL d   1     -11.537 -10.322  16.386 -0.27 -0.08    -0.228 OA
DOCKED: BRANCH  43  45
DOCKED: ATOM     45  O   UNL d   1     -11.672  -9.248  18.735 -0.04 -0.06    -0.303 OA
DOCKED: ATOM     46  H   UNL d   1     -12.590  -9.345  19.059 +0.05 +0.06    +0.222 HD
DOCKED: ENDBRANCH  43  45
DOCKED: BRANCH  43  47
DOCKED: ATOM     47  O   UNL d   1      -9.686 -10.633  18.210 -0.04 -0.05    -0.303 OA
DOCKED: ATOM     48  H   UNL d   1      -9.373 -11.523  17.945 +0.07 +0.04    +0.222 HD
DOCKED: ENDBRANCH  43  47
DOCKED: ENDBRANCH  42  43
DOCKED: ENDBRANCH   4  42
DOCKED: TORSDOF 24
DOCKED: TER
DOCKED: ENDMDL
________________________________________________________________________________


	BEGINNING GENETIC ALGORITHM DOCKING 76 of 100
Run: 76 Seed: 762282889 1841019226 [ Run 76 of 100 GA/GALS ]
Beginning LAMARCKIAN GENETIC ALGORITHM (LGA), with a maximum of 25000000 energy evaluations.

Final-Value: -17.748


	FINAL GENETIC ALGORITHM DOCKED STATE
	_______________________________________________


Detailed state:  trans 2.637 -16.326 -7.809 quatxyzw 0.399751 -0.321522 -0.857511 -0.038702 center 0.035 0.082 -0.065 ntor 24 65.0702 124.6449 166.1776 11.9768 119.2509 -180.0000 -36.8803 -74.7956 -49.2908 133.8874 162.2089 150.4707 -83.4290 31.2008 25.5718 -67.9831 21.6851 180.0000 -144.2512 -28.6067 167.0437 -18.6769 74.2827 30.8494
State:	  2.637 -16.326  -7.809   0.400 -0.322 -0.858 -175.564     65.07  124.64  166.18   11.98  119.25 -180.00  -36.88  -74.80  -49.29  133.89  162.21  150.47  -83.43   31.20   25.57  -67.98   21.69  180.00 -144.25  -28.61  167.04  -18.68   74.28   30.85

DOCKED: MODEL       76
DOCKED: USER    Run = 76
DOCKED: USER    DPF = D:/Protein_go_brrr/autodock/final/AncMH_nat/IHP/dock.dpf
DOCKED: USER  
DOCKED: USER    Estimated Free Energy of Binding    =   +2.47 kcal/mol  [=(1)+(2)+(3)-(4)]
DOCKED: USER    
DOCKED: USER    (1) Final Intermolecular Energy     =   -4.69 kcal/mol
DOCKED: USER        vdW + Hbond + desolv Energy     =   -3.92 kcal/mol
DOCKED: USER        Electrostatic Energy            =   -0.77 kcal/mol
DOCKED: USER    (2) Final Total Internal Energy     =  -13.06 kcal/mol
DOCKED: USER    (3) Torsional Free Energy           =   +7.16 kcal/mol
DOCKED: USER    (4) Unbound System's Energy  [=(2)] =  -13.06 kcal/mol
DOCKED: USER    
DOCKED: USER    
DOCKED: USER    NEWDPF move IHP_ideal_opt.pdbqt
DOCKED: USER    NEWDPF about 0.035000 0.082000 -0.065000
DOCKED: USER    NEWDPF tran0 2.637130 -16.325668 -7.808538
DOCKED: USER    NEWDPF quaternion0 0.399751 -0.321522 -0.857511 -0.038702
DOCKED: USER    NEWDPF axisangle0 0.400050 -0.321763 -0.858154 -175.564001
DOCKED: USER    NEWDPF quat0 0.400050 -0.321763 -0.858154 -175.564001
DOCKED: USER    NEWDPF dihe0 65.07 124.64 166.18 11.98 119.25 -180.00 -36.88 -74.80 -49.29 133.89 162.21 150.47 -83.43 31.20 25.57 -67.98 21.69 180.00 -144.25 -28.61 167.04 -18.68 74.28 30.85 
DOCKED: USER  keepresnum = 1 
DOCKED: USER  
DOCKED: REMARK  24 active torsions:
DOCKED: REMARK  status: ('A' for Active; 'I' for Inactive)
DOCKED: REMARK    1  A    between atoms: C_1  and  O_7 
DOCKED: REMARK    2  A    between atoms: C_2  and  O_12 
DOCKED: REMARK    3  A    between atoms: C_3  and  O_17 
DOCKED: REMARK    4  A    between atoms: C_4  and  O_22 
DOCKED: REMARK    5  A    between atoms: C_5  and  O_27 
DOCKED: REMARK    6  A    between atoms: C_6  and  O_32 
DOCKED: REMARK    7  A    between atoms: O_7  and  P_8 
DOCKED: REMARK    8  A    between atoms: P_8  and  O_10 
DOCKED: REMARK    9  A    between atoms: P_8  and  O_11 
DOCKED: REMARK   10  A    between atoms: O_12  and  P_13 
DOCKED: REMARK   11  A    between atoms: P_13  and  O_15 
DOCKED: REMARK   12  A    between atoms: P_13  and  O_16 
DOCKED: REMARK   13  A    between atoms: O_17  and  P_18 
DOCKED: REMARK   14  A    between atoms: P_18  and  O_20 
DOCKED: REMARK   15  A    between atoms: P_18  and  O_21 
DOCKED: REMARK   16  A    between atoms: O_22  and  P_23 
DOCKED: REMARK   17  A    between atoms: P_23  and  O_25 
DOCKED: REMARK   18  A    between atoms: P_23  and  O_26 
DOCKED: REMARK   19  A    between atoms: O_27  and  P_28 
DOCKED: REMARK   20  A    between atoms: P_28  and  O_30 
DOCKED: REMARK   21  A    between atoms: P_28  and  O_31 
DOCKED: REMARK   22  A    between atoms: O_32  and  P_33 
DOCKED: REMARK   23  A    between atoms: P_33  and  O_35 
DOCKED: REMARK   24  A    between atoms: P_33  and  O_36 
DOCKED: USER                              x       y       z     vdW  Elec       q    Type
DOCKED: USER                           _______ _______ _______ _____ _____    ______ ____
DOCKED: ROOT
DOCKED: ATOM      1  C   UNL d   1       1.396 -15.617  -8.779 -0.12 -0.13    +0.194 C 
DOCKED: ATOM      2  C   UNL d   1       2.657 -14.771  -8.597 -0.08 -0.12    +0.194 C 
DOCKED: ATOM      3  C   UNL d   1       3.155 -14.799  -7.151 -0.01 -0.19    +0.194 C 
DOCKED: ATOM      4  C   UNL d   1       3.325 -16.214  -6.602 -0.07 -0.15    +0.194 C 
DOCKED: ATOM      5  C   UNL d   1       2.136 -17.128  -6.862 -0.06 -0.14    +0.194 C 
DOCKED: ATOM      6  C   UNL d   1       1.598 -17.053  -8.293 -0.05 -0.10    +0.194 C 
DOCKED: ENDROOT
DOCKED: BRANCH   1   7
DOCKED: ATOM      7  O   UNL d   1       1.097 -15.679 -10.175 -0.09 +0.11    -0.278 OA
DOCKED: BRANCH   7   8
DOCKED: ATOM      8  P   UNL d   1       1.667 -16.909 -11.021 -0.01 -0.10    +0.473 P 
DOCKED: ATOM      9  O   UNL d   1       2.974 -17.445 -10.552 -0.00 +0.04    -0.228 OA
DOCKED: BRANCH   8  10
DOCKED: ATOM     10  O   UNL d   1       0.492 -17.987 -10.974 -0.00 +0.05    -0.303 OA
DOCKED: ATOM     11  H   UNL d   1       0.636 -18.595 -10.224 +0.01 -0.04    +0.222 HD
DOCKED: ENDBRANCH   8  10
DOCKED: BRANCH   8  12
DOCKED: ATOM     12  O   UNL d   1       1.616 -16.428 -12.534 -0.01 +0.05    -0.303 OA
DOCKED: ATOM     13  H   UNL d   1       2.365 -15.837 -12.776 +0.02 -0.03    +0.222 HD
DOCKED: ENDBRANCH   8  12
DOCKED: ENDBRANCH   7   8
DOCKED: ENDBRANCH   1   7
DOCKED: BRANCH   2  14
DOCKED: ATOM     14  O   UNL d   1       3.690 -15.284  -9.447 -0.07 +0.08    -0.278 OA
DOCKED: BRANCH  14  15
DOCKED: ATOM     15  P   UNL d   1       3.985 -14.465 -10.791 +0.00 -0.05    +0.473 P 
DOCKED: ATOM     16  O   UNL d   1       4.955 -13.330 -10.687 -0.13 +0.02    -0.228 OA
DOCKED: BRANCH  15  17
DOCKED: ATOM     17  O   UNL d   1       4.448 -15.579 -11.830 -0.01 +0.04    -0.303 OA
DOCKED: ATOM     18  H   UNL d   1       3.700 -16.150 -12.091 +0.01 -0.03    +0.222 HD
DOCKED: ENDBRANCH  15  17
DOCKED: BRANCH  15  19
DOCKED: ATOM     19  O   UNL d   1       2.545 -14.086 -11.349 -0.60 +0.03    -0.303 OA
DOCKED: ATOM     20  H   UNL d   1       1.946 -14.856 -11.354 +0.01 -0.05    +0.222 HD
DOCKED: ENDBRANCH  15  19
DOCKED: ENDBRANCH  14  15
DOCKED: ENDBRANCH   2  14
DOCKED: BRANCH   6  21
DOCKED: ATOM     21  O   UNL d   1       0.316 -17.677  -8.285 -0.03 +0.11    -0.278 OA
DOCKED: BRANCH  21  22
DOCKED: ATOM     22  P   UNL d   1      -0.874 -17.030  -7.443 -0.04 -0.24    +0.473 P 
DOCKED: ATOM     23  O   UNL d   1      -1.241 -15.610  -7.717 -0.13 +0.16    -0.228 OA
DOCKED: BRANCH  22  24
DOCKED: ATOM     24  O   UNL d   1      -2.047 -18.079  -7.677 -0.00 +0.06    -0.303 OA
DOCKED: ATOM     25  H   UNL d   1      -1.709 -18.979  -7.436 +0.01 -0.03    +0.222 HD
DOCKED: ENDBRANCH  22  24
DOCKED: BRANCH  22  26
DOCKED: ATOM     26  O   UNL d   1      -0.428 -17.363  -5.939 -0.08 +0.19    -0.303 OA
DOCKED: ATOM     27  H   UNL d   1       0.464 -17.768  -5.951 +0.02 -0.13    +0.222 HD
DOCKED: ENDBRANCH  22  26
DOCKED: ENDBRANCH  21  22
DOCKED: ENDBRANCH   6  21
DOCKED: BRANCH   3  28
DOCKED: ATOM     28  O   UNL d   1       4.457 -14.229  -7.135 -0.11 +0.11    -0.278 OA
DOCKED: BRANCH  28  29
DOCKED: ATOM     29  P   UNL d   1       4.650 -12.671  -6.867 -0.16 -0.05    +0.473 P 
DOCKED: ATOM     30  O   UNL d   1       4.731 -11.817  -8.080 -0.47 -0.01    -0.228 OA
DOCKED: BRANCH  29  31
DOCKED: ATOM     31  O   UNL d   1       3.425 -12.405  -5.872 -0.42 +0.05    -0.303 OA
DOCKED: ATOM     32  H   UNL d   1       3.091 -13.273  -5.546 -0.31 -0.34    +0.222 HD
DOCKED: ENDBRANCH  29  31
DOCKED: BRANCH  29  33
DOCKED: ATOM     33  O   UNL d   1       5.907 -12.653  -5.890 -0.13 -0.02    -0.303 OA
DOCKED: ATOM     34  H   UNL d   1       6.046 -13.563  -5.530 +0.07 -0.00    +0.222 HD
DOCKED: ENDBRANCH  29  33
DOCKED: ENDBRANCH  28  29
DOCKED: ENDBRANCH   3  28
DOCKED: BRANCH   5  35
DOCKED: ATOM     35  O   UNL d   1       2.617 -18.456  -6.663 -0.01 +0.09    -0.278 OA
DOCKED: BRANCH  35  36
DOCKED: ATOM     36  P   UNL d   1       1.902 -19.687  -7.382 +0.01 -0.09    +0.473 P 
DOCKED: ATOM     37  O   UNL d   1       2.008 -19.713  -8.874 +0.00 +0.04    -0.228 OA
DOCKED: BRANCH  36  38
DOCKED: ATOM     38  O   UNL d   1       2.583 -20.929  -6.656 +0.00 +0.04    -0.303 OA
DOCKED: ATOM     39  H   UNL d   1       3.053 -21.474  -7.324 +0.00 -0.02    +0.222 HD
DOCKED: ENDBRANCH  36  38
DOCKED: BRANCH  36  40
DOCKED: ATOM     40  O   UNL d   1       0.437 -19.638  -6.763 -0.00 +0.06    -0.303 OA
DOCKED: ATOM     41  H   UNL d   1      -0.175 -19.105  -7.318 +0.01 -0.05    +0.222 HD
DOCKED: ENDBRANCH  36  40
DOCKED: ENDBRANCH  35  36
DOCKED: ENDBRANCH   5  35
DOCKED: BRANCH   4  42
DOCKED: ATOM     42  O   UNL d   1       3.461 -16.093  -5.181 -0.08 +0.28    -0.278 OA
DOCKED: BRANCH  42  43
DOCKED: ATOM     43  P   UNL d   1       4.878 -15.683  -4.574 -0.05 -0.19    +0.473 P 
DOCKED: ATOM     44  O   UNL d   1       5.376 -16.463  -3.406 -0.04 +0.04    -0.228 OA
DOCKED: BRANCH  43  45
DOCKED: ATOM     45  O   UNL d   1       5.832 -15.736  -5.847 -0.02 +0.07    -0.303 OA
DOCKED: ATOM     46  H   UNL d   1       5.856 -14.876  -6.312 +0.04 -0.05    +0.222 HD
DOCKED: ENDBRANCH  43  45
DOCKED: BRANCH  43  47
DOCKED: ATOM     47  O   UNL d   1       4.733 -14.104  -4.340 -0.31 +0.03    -0.303 OA
DOCKED: ATOM     48  H   UNL d   1       4.124 -13.733  -5.012 -0.44 -0.13    +0.222 HD
DOCKED: ENDBRANCH  43  47
DOCKED: ENDBRANCH  42  43
DOCKED: ENDBRANCH   4  42
DOCKED: TORSDOF 24
DOCKED: TER
DOCKED: ENDMDL
________________________________________________________________________________


	BEGINNING GENETIC ALGORITHM DOCKING 77 of 100
Run: 77 Seed: 1358813647 1244973679 [ Run 77 of 100 GA/GALS ]
Beginning LAMARCKIAN GENETIC ALGORITHM (LGA), with a maximum of 25000000 energy evaluations.

Final-Value: -19.033


	FINAL GENETIC ALGORITHM DOCKED STATE
	_______________________________________________


Detailed state:  trans -13.987 -19.356 9.404 quatxyzw 0.526677 -0.031581 0.619439 0.581300 center 0.035 0.082 -0.065 ntor 24 128.6062 43.5414 172.0538 -25.6935 -129.4471 169.9932 -40.2495 -94.6066 -35.1576 105.0102 97.6427 103.6408 152.9292 168.4923 26.4971 -42.5754 -74.2421 -116.0807 51.0877 20.0109 160.5687 12.5671 -20.3024 -8.0993
State:	-13.987 -19.356   9.404   0.647 -0.039  0.761 108.916    128.61   43.54  172.05  -25.69 -129.45  169.99  -40.25  -94.61  -35.16  105.01   97.64  103.64  152.93  168.49   26.50  -42.58  -74.24 -116.08   51.09   20.01  160.57   12.57  -20.30   -8.10

DOCKED: MODEL       77
DOCKED: USER    Run = 77
DOCKED: USER    DPF = D:/Protein_go_brrr/autodock/final/AncMH_nat/IHP/dock.dpf
DOCKED: USER  
DOCKED: USER    Estimated Free Energy of Binding    =   +1.47 kcal/mol  [=(1)+(2)+(3)-(4)]
DOCKED: USER    
DOCKED: USER    (1) Final Intermolecular Energy     =   -5.69 kcal/mol
DOCKED: USER        vdW + Hbond + desolv Energy     =   -5.24 kcal/mol
DOCKED: USER        Electrostatic Energy            =   -0.45 kcal/mol
DOCKED: USER    (2) Final Total Internal Energy     =  -13.35 kcal/mol
DOCKED: USER    (3) Torsional Free Energy           =   +7.16 kcal/mol
DOCKED: USER    (4) Unbound System's Energy  [=(2)] =  -13.35 kcal/mol
DOCKED: USER    
DOCKED: USER    
DOCKED: USER    NEWDPF move IHP_ideal_opt.pdbqt
DOCKED: USER    NEWDPF about 0.035000 0.082000 -0.065000
DOCKED: USER    NEWDPF tran0 -13.987237 -19.355599 9.404042
DOCKED: USER    NEWDPF quaternion0 0.526677 -0.031581 0.619439 0.581300
DOCKED: USER    NEWDPF axisangle0 0.647270 -0.038812 0.761272 108.915893
DOCKED: USER    NEWDPF quat0 0.647270 -0.038812 0.761272 108.915893
DOCKED: USER    NEWDPF dihe0 128.61 43.54 172.05 -25.69 -129.45 169.99 -40.25 -94.61 -35.16 105.01 97.64 103.64 152.93 168.49 26.50 -42.58 -74.24 -116.08 51.09 20.01 160.57 12.57 -20.30 -8.10 
DOCKED: USER  keepresnum = 1 
DOCKED: USER  
DOCKED: REMARK  24 active torsions:
DOCKED: REMARK  status: ('A' for Active; 'I' for Inactive)
DOCKED: REMARK    1  A    between atoms: C_1  and  O_7 
DOCKED: REMARK    2  A    between atoms: C_2  and  O_12 
DOCKED: REMARK    3  A    between atoms: C_3  and  O_17 
DOCKED: REMARK    4  A    between atoms: C_4  and  O_22 
DOCKED: REMARK    5  A    between atoms: C_5  and  O_27 
DOCKED: REMARK    6  A    between atoms: C_6  and  O_32 
DOCKED: REMARK    7  A    between atoms: O_7  and  P_8 
DOCKED: REMARK    8  A    between atoms: P_8  and  O_10 
DOCKED: REMARK    9  A    between atoms: P_8  and  O_11 
DOCKED: REMARK   10  A    between atoms: O_12  and  P_13 
DOCKED: REMARK   11  A    between atoms: P_13  and  O_15 
DOCKED: REMARK   12  A    between atoms: P_13  and  O_16 
DOCKED: REMARK   13  A    between atoms: O_17  and  P_18 
DOCKED: REMARK   14  A    between atoms: P_18  and  O_20 
DOCKED: REMARK   15  A    between atoms: P_18  and  O_21 
DOCKED: REMARK   16  A    between atoms: O_22  and  P_23 
DOCKED: REMARK   17  A    between atoms: P_23  and  O_25 
DOCKED: REMARK   18  A    between atoms: P_23  and  O_26 
DOCKED: REMARK   19  A    between atoms: O_27  and  P_28 
DOCKED: REMARK   20  A    between atoms: P_28  and  O_30 
DOCKED: REMARK   21  A    between atoms: P_28  and  O_31 
DOCKED: REMARK   22  A    between atoms: O_32  and  P_33 
DOCKED: REMARK   23  A    between atoms: P_33  and  O_35 
DOCKED: REMARK   24  A    between atoms: P_33  and  O_36 
DOCKED: USER                              x       y       z     vdW  Elec       q    Type
DOCKED: USER                           _______ _______ _______ _____ _____    ______ ____
DOCKED: ROOT
DOCKED: ATOM      1  C   UNL d   1     -13.763 -19.560  11.105 -0.13 -0.07    +0.194 C 
DOCKED: ATOM      2  C   UNL d   1     -14.857 -18.572  10.696 -0.12 -0.06    +0.194 C 
DOCKED: ATOM      3  C   UNL d   1     -14.407 -17.672   9.544 -0.20 -0.04    +0.194 C 
DOCKED: ATOM      4  C   UNL d   1     -13.858 -18.451   8.351 -0.12 -0.03    +0.194 C 
DOCKED: ATOM      5  C   UNL d   1     -12.847 -19.527   8.725 -0.11 -0.05    +0.194 C 
DOCKED: ATOM      6  C   UNL d   1     -13.270 -20.388   9.917 -0.07 -0.06    +0.194 C 
DOCKED: ENDROOT
DOCKED: BRANCH   1   7
DOCKED: ATOM      7  O   UNL d   1     -14.317 -20.470  12.058 -0.06 +0.08    -0.278 OA
DOCKED: BRANCH   7   8
DOCKED: ATOM      8  P   UNL d   1     -14.639 -19.929  13.526 -0.07 -0.15    +0.473 P 
DOCKED: ATOM      9  O   UNL d   1     -14.656 -20.968  14.592 -0.02 +0.05    -0.228 OA
DOCKED: BRANCH   8  10
DOCKED: ATOM     10  O   UNL d   1     -13.542 -18.797  13.770 -0.01 +0.15    -0.303 OA
DOCKED: ATOM     11  H   UNL d   1     -12.735 -19.010  13.265 -0.52 -0.16    +0.222 HD
DOCKED: ENDBRANCH   8  10
DOCKED: BRANCH   8  12
DOCKED: ATOM     12  O   UNL d   1     -15.969 -19.075  13.369 -0.10 +0.14    -0.303 OA
DOCKED: ATOM     13  H   UNL d   1     -16.293 -19.033  12.441 +0.03 -0.10    +0.222 HD
DOCKED: ENDBRANCH   8  12
DOCKED: ENDBRANCH   7   8
DOCKED: ENDBRANCH   1   7
DOCKED: BRANCH   2  14
DOCKED: ATOM     14  O   UNL d   1     -16.015 -19.305  10.277 -0.04 +0.07    -0.278 OA
DOCKED: BRANCH  14  15
DOCKED: ATOM     15  P   UNL d   1     -17.431 -18.584  10.479 -0.04 -0.16    +0.473 P 
DOCKED: ATOM     16  O   UNL d   1     -18.539 -19.422  11.035 -0.02 +0.06    -0.228 OA
DOCKED: BRANCH  15  17
DOCKED: ATOM     17  O   UNL d   1     -17.096 -17.321  11.389 -0.01 +0.28    -0.303 OA
DOCKED: ATOM     18  H   UNL d   1     -16.670 -16.614  10.867 -0.20 -0.22    +0.222 HD
DOCKED: ENDBRANCH  15  17
DOCKED: BRANCH  15  19
DOCKED: ATOM     19  O   UNL d   1     -17.729 -17.897   9.076 -0.01 +0.07    -0.303 OA
DOCKED: ATOM     20  H   UNL d   1     -17.313 -17.017   9.009 +0.05 -0.06    +0.222 HD
DOCKED: ENDBRANCH  15  19
DOCKED: ENDBRANCH  14  15
DOCKED: ENDBRANCH   2  14
DOCKED: BRANCH   6  21
DOCKED: ATOM     21  O   UNL d   1     -12.108 -21.091  10.351 -0.06 +0.12    -0.278 OA
DOCKED: BRANCH  21  22
DOCKED: ATOM     22  P   UNL d   1     -10.811 -20.277  10.797 -0.13 -0.35    +0.473 P 
DOCKED: ATOM     23  O   UNL d   1     -10.950 -19.272  11.890 -0.22 +0.14    -0.228 OA
DOCKED: BRANCH  22  24
DOCKED: ATOM     24  O   UNL d   1      -9.778 -21.451  11.098 -0.07 +0.40    -0.303 OA
DOCKED: ATOM     25  H   UNL d   1      -8.869 -21.058  11.139 -0.17 -0.61    +0.222 HD
DOCKED: ENDBRANCH  22  24
DOCKED: BRANCH  22  26
DOCKED: ATOM     26  O   UNL d   1     -10.277 -19.719   9.392 +0.12 +0.25    -0.303 OA
DOCKED: ATOM     27  H   UNL d   1     -10.836 -20.075   8.671 +0.09 -0.14    +0.222 HD
DOCKED: ENDBRANCH  22  26
DOCKED: ENDBRANCH  21  22
DOCKED: ENDBRANCH   6  21
DOCKED: BRANCH   3  28
DOCKED: ATOM     28  O   UNL d   1     -15.557 -16.994   9.055 -0.11 +0.07    -0.278 OA
DOCKED: BRANCH  28  29
DOCKED: ATOM     29  P   UNL d   1     -15.594 -15.402   9.010 -0.20 -0.15    +0.473 P 
DOCKED: ATOM     30  O   UNL d   1     -15.633 -14.724  10.331 -0.39 +0.15    -0.228 OA
DOCKED: BRANCH  29  31
DOCKED: ATOM     31  O   UNL d   1     -14.319 -15.120   8.085 -0.23 +0.05    -0.303 OA
DOCKED: ATOM     32  H   UNL d   1     -14.025 -15.972   7.687 +0.12 -0.02    +0.222 HD
DOCKED: ENDBRANCH  29  31
DOCKED: BRANCH  29  33
DOCKED: ATOM     33  O   UNL d   1     -16.812 -15.125   8.022 -0.11 +0.05    -0.303 OA
DOCKED: ATOM     34  H   UNL d   1     -16.823 -15.823   7.322 +0.06 -0.01    +0.222 HD
DOCKED: ENDBRANCH  29  33
DOCKED: ENDBRANCH  28  29
DOCKED: ENDBRANCH   3  28
DOCKED: BRANCH   5  35
DOCKED: ATOM     35  O   UNL d   1     -12.763 -20.390   7.593 -0.03 +0.07    -0.278 OA
DOCKED: BRANCH  35  36
DOCKED: ATOM     36  P   UNL d   1     -11.442 -20.419   6.699 -0.07 -0.16    +0.473 P 
DOCKED: ATOM     37  O   UNL d   1     -10.675 -19.136   6.641 -0.29 +0.07    -0.228 OA
DOCKED: BRANCH  36  38
DOCKED: ATOM     38  O   UNL d   1     -10.640 -21.634   7.342 -0.10 +0.21    -0.303 OA
DOCKED: ATOM     39  H   UNL d   1      -9.900 -21.281   7.881 -0.13 -0.31    +0.222 HD
DOCKED: ENDBRANCH  36  38
DOCKED: BRANCH  36  40
DOCKED: ATOM     40  O   UNL d   1     -11.978 -21.001   5.319 -0.03 +0.06    -0.303 OA
DOCKED: ATOM     41  H   UNL d   1     -12.637 -20.402   4.902 +0.06 -0.02    +0.222 HD
DOCKED: ENDBRANCH  36  40
DOCKED: ENDBRANCH  35  36
DOCKED: ENDBRANCH   5  35
DOCKED: BRANCH   4  42
DOCKED: ATOM     42  O   UNL d   1     -13.179 -17.507   7.516 -0.16 +0.03    -0.278 OA
DOCKED: BRANCH  42  43
DOCKED: ATOM     43  P   UNL d   1     -13.690 -17.292   6.021 -0.18 -0.01    +0.473 P 
DOCKED: ATOM     44  O   UNL d   1     -13.462 -18.400   5.052 -0.16 +0.00    -0.228 OA
DOCKED: BRANCH  43  45
DOCKED: ATOM     45  O   UNL d   1     -15.222 -16.913   6.226 -0.59 -0.03    -0.303 OA
DOCKED: ATOM     46  H   UNL d   1     -15.380 -16.531   7.113 +0.08 -0.01    +0.222 HD
DOCKED: ENDBRANCH  43  45
DOCKED: BRANCH  43  47
DOCKED: ATOM     47  O   UNL d   1     -13.056 -15.877   5.616 -0.49 -0.03    -0.303 OA
DOCKED: ATOM     48  H   UNL d   1     -13.579 -15.159   6.029 -0.10 -0.01    +0.222 HD
DOCKED: ENDBRANCH  43  47
DOCKED: ENDBRANCH  42  43
DOCKED: ENDBRANCH   4  42
DOCKED: TORSDOF 24
DOCKED: TER
DOCKED: ENDMDL
________________________________________________________________________________


	BEGINNING GENETIC ALGORITHM DOCKING 78 of 100
Run: 78 Seed: 594467026 1823320604 [ Run 78 of 100 GA/GALS ]
Beginning LAMARCKIAN GENETIC ALGORITHM (LGA), with a maximum of 25000000 energy evaluations.

Final-Value: -17.267


	FINAL GENETIC ALGORITHM DOCKED STATE
	_______________________________________________


Detailed state:  trans -4.662 -12.092 -10.516 quatxyzw 0.972872 0.151798 -0.111563 -0.134282 center 0.035 0.082 -0.065 ntor 24 -173.5599 -29.6843 111.0603 110.3753 46.9842 179.9333 19.8637 133.4470 79.9458 71.8875 -127.2000 115.7790 -122.3295 96.3438 17.7790 -54.0854 104.9312 160.1839 44.6785 -3.7011 121.8978 146.1220 145.0098 -170.5808
State:	 -4.662 -12.092 -10.516   0.982  0.153 -0.113 -164.566   -173.56  -29.68  111.06  110.38   46.98  179.93   19.86  133.45   79.95   71.89 -127.20  115.78 -122.33   96.34   17.78  -54.09  104.93  160.18   44.68   -3.70  121.90  146.12  145.01 -170.58

DOCKED: MODEL       78
DOCKED: USER    Run = 78
DOCKED: USER    DPF = D:/Protein_go_brrr/autodock/final/AncMH_nat/IHP/dock.dpf
DOCKED: USER  
DOCKED: USER    Estimated Free Energy of Binding    =   +2.29 kcal/mol  [=(1)+(2)+(3)-(4)]
DOCKED: USER    
DOCKED: USER    (1) Final Intermolecular Energy     =   -4.87 kcal/mol
DOCKED: USER        vdW + Hbond + desolv Energy     =   -4.47 kcal/mol
DOCKED: USER        Electrostatic Energy            =   -0.40 kcal/mol
DOCKED: USER    (2) Final Total Internal Energy     =  -12.40 kcal/mol
DOCKED: USER    (3) Torsional Free Energy           =   +7.16 kcal/mol
DOCKED: USER    (4) Unbound System's Energy  [=(2)] =  -12.40 kcal/mol
DOCKED: USER    
DOCKED: USER    
DOCKED: USER    NEWDPF move IHP_ideal_opt.pdbqt
DOCKED: USER    NEWDPF about 0.035000 0.082000 -0.065000
DOCKED: USER    NEWDPF tran0 -4.661513 -12.091596 -10.515563
DOCKED: USER    NEWDPF quaternion0 0.972872 0.151798 -0.111563 -0.134282
DOCKED: USER    NEWDPF axisangle0 0.981763 0.153185 -0.112583 -164.565776
DOCKED: USER    NEWDPF quat0 0.981763 0.153185 -0.112583 -164.565776
DOCKED: USER    NEWDPF dihe0 -173.56 -29.68 111.06 110.38 46.98 179.93 19.86 133.45 79.95 71.89 -127.20 115.78 -122.33 96.34 17.78 -54.09 104.93 160.18 44.68 -3.70 121.90 146.12 145.01 -170.58 
DOCKED: USER  keepresnum = 1 
DOCKED: USER  
DOCKED: REMARK  24 active torsions:
DOCKED: REMARK  status: ('A' for Active; 'I' for Inactive)
DOCKED: REMARK    1  A    between atoms: C_1  and  O_7 
DOCKED: REMARK    2  A    between atoms: C_2  and  O_12 
DOCKED: REMARK    3  A    between atoms: C_3  and  O_17 
DOCKED: REMARK    4  A    between atoms: C_4  and  O_22 
DOCKED: REMARK    5  A    between atoms: C_5  and  O_27 
DOCKED: REMARK    6  A    between atoms: C_6  and  O_32 
DOCKED: REMARK    7  A    between atoms: O_7  and  P_8 
DOCKED: REMARK    8  A    between atoms: P_8  and  O_10 
DOCKED: REMARK    9  A    between atoms: P_8  and  O_11 
DOCKED: REMARK   10  A    between atoms: O_12  and  P_13 
DOCKED: REMARK   11  A    between atoms: P_13  and  O_15 
DOCKED: REMARK   12  A    between atoms: P_13  and  O_16 
DOCKED: REMARK   13  A    between atoms: O_17  and  P_18 
DOCKED: REMARK   14  A    between atoms: P_18  and  O_20 
DOCKED: REMARK   15  A    between atoms: P_18  and  O_21 
DOCKED: REMARK   16  A    between atoms: O_22  and  P_23 
DOCKED: REMARK   17  A    between atoms: P_23  and  O_25 
DOCKED: REMARK   18  A    between atoms: P_23  and  O_26 
DOCKED: REMARK   19  A    between atoms: O_27  and  P_28 
DOCKED: REMARK   20  A    between atoms: P_28  and  O_30 
DOCKED: REMARK   21  A    between atoms: P_28  and  O_31 
DOCKED: REMARK   22  A    between atoms: O_32  and  P_33 
DOCKED: REMARK   23  A    between atoms: P_33  and  O_35 
DOCKED: REMARK   24  A    between atoms: P_33  and  O_36 
DOCKED: USER                              x       y       z     vdW  Elec       q    Type
DOCKED: USER                           _______ _______ _______ _____ _____    ______ ____
DOCKED: ROOT
DOCKED: ATOM      1  C   UNL d   1      -3.926 -11.177 -11.783 -0.10 -0.03    +0.194 C 
DOCKED: ATOM      2  C   UNL d   1      -5.282 -10.662 -11.298 -0.06 +0.01    +0.194 C 
DOCKED: ATOM      3  C   UNL d   1      -6.280 -11.803 -11.088 -0.02 +0.01    +0.194 C 
DOCKED: ATOM      4  C   UNL d   1      -5.737 -12.922 -10.203 -0.03 -0.02    +0.194 C 
DOCKED: ATOM      5  C   UNL d   1      -4.337 -13.388 -10.581 -0.04 -0.03    +0.194 C 
DOCKED: ATOM      6  C   UNL d   1      -3.355 -12.246 -10.851 -0.14 -0.04    +0.194 C 
DOCKED: ENDROOT
DOCKED: BRANCH   1   7
DOCKED: ATOM      7  O   UNL d   1      -3.008 -10.082 -11.788 -0.10 +0.09    -0.278 OA
DOCKED: BRANCH   7   8
DOCKED: ATOM      8  P   UNL d   1      -3.087  -9.030 -12.988 -0.07 -0.10    +0.473 P 
DOCKED: ATOM      9  O   UNL d   1      -2.626  -9.542 -14.307 -0.10 +0.04    -0.228 OA
DOCKED: BRANCH   8  10
DOCKED: ATOM     10  O   UNL d   1      -4.612  -8.564 -12.993 -0.06 +0.01    -0.303 OA
DOCKED: ATOM     11  H   UNL d   1      -4.978  -8.631 -12.091 +0.08 +0.01    +0.222 HD
DOCKED: ENDBRANCH   8  10
DOCKED: BRANCH   8  12
DOCKED: ATOM     12  O   UNL d   1      -2.344  -7.733 -12.449 -0.14 +0.10    -0.303 OA
DOCKED: ATOM     13  H   UNL d   1      -2.879  -7.225 -11.798 -0.41 -0.09    +0.222 HD
DOCKED: ENDBRANCH   8  12
DOCKED: ENDBRANCH   7   8
DOCKED: ENDBRANCH   1   7
DOCKED: BRANCH   2  14
DOCKED: ATOM     14  O   UNL d   1      -5.102  -9.978 -10.051 -0.15 -0.03    -0.278 OA
DOCKED: BRANCH  14  15
DOCKED: ATOM     15  P   UNL d   1      -5.706  -8.498  -9.954 -0.18 +0.16    +0.473 P 
DOCKED: ATOM     16  O   UNL d   1      -6.118  -8.029  -8.594 -0.37 -0.12    -0.228 OA
DOCKED: BRANCH  15  17
DOCKED: ATOM     17  O   UNL d   1      -4.583  -7.577 -10.610 -0.24 -0.02    -0.303 OA
DOCKED: ATOM     18  H   UNL d   1      -3.941  -8.112 -11.116 +0.08 -0.01    +0.222 HD
DOCKED: ENDBRANCH  15  17
DOCKED: BRANCH  15  19
DOCKED: ATOM     19  O   UNL d   1      -6.841  -8.458 -11.067 -0.08 -0.16    -0.303 OA
DOCKED: ATOM     20  H   UNL d   1      -7.450  -9.216 -10.988 +0.05 +0.16    +0.222 HD
DOCKED: ENDBRANCH  15  19
DOCKED: ENDBRANCH  14  15
DOCKED: ENDBRANCH   2  14
DOCKED: BRANCH   6  21
DOCKED: ATOM     21  O   UNL d   1      -2.228 -12.819 -11.511 -0.13 +0.11    -0.278 OA
DOCKED: BRANCH  21  22
DOCKED: ATOM     22  P   UNL d   1      -2.367 -14.236 -12.229 -0.03 -0.10    +0.473 P 
DOCKED: ATOM     23  O   UNL d   1      -3.533 -14.457 -13.133 -0.01 +0.03    -0.228 OA
DOCKED: BRANCH  22  24
DOCKED: ATOM     24  O   UNL d   1      -0.945 -14.389 -12.926 -0.04 +0.07    -0.303 OA
DOCKED: ATOM     25  H   UNL d   1      -0.533 -13.490 -12.986 +0.02 -0.07    +0.222 HD
DOCKED: ENDBRANCH  22  24
DOCKED: BRANCH  22  26
DOCKED: ATOM     26  O   UNL d   1      -2.239 -15.244 -10.989 -0.03 +0.07    -0.303 OA
DOCKED: ATOM     27  H   UNL d   1      -2.209 -14.729 -10.157 +0.03 -0.07    +0.222 HD
DOCKED: ENDBRANCH  22  26
DOCKED: ENDBRANCH  21  22
DOCKED: ENDBRANCH   6  21
DOCKED: BRANCH   3  28
DOCKED: ATOM     28  O   UNL d   1      -7.395 -11.272 -10.385 -0.07 -0.07    -0.278 OA
DOCKED: BRANCH  28  29
DOCKED: ATOM     29  P   UNL d   1      -7.574 -11.557  -8.828 -0.10 -0.07    +0.473 P 
DOCKED: ATOM     30  O   UNL d   1      -8.145 -12.885  -8.481 -0.14 +0.14    -0.228 OA
DOCKED: BRANCH  29  31
DOCKED: ATOM     31  O   UNL d   1      -6.090 -11.248  -8.315 -0.08 +0.04    -0.303 OA
DOCKED: ATOM     32  H   UNL d   1      -5.938 -10.276  -8.362 +0.09 +0.03    +0.222 HD
DOCKED: ENDBRANCH  29  31
DOCKED: BRANCH  29  33
DOCKED: ATOM     33  O   UNL d   1      -8.387 -10.276  -8.345 -0.50 -0.28    -0.303 OA
DOCKED: ATOM     34  H   UNL d   1      -8.381 -10.246  -7.357 -0.34 -0.19    +0.222 HD
DOCKED: ENDBRANCH  29  33
DOCKED: ENDBRANCH  28  29
DOCKED: ENDBRANCH   3  28
DOCKED: BRANCH   5  35
DOCKED: ATOM     35  O   UNL d   1      -3.849 -14.104  -9.448 -0.04 +0.06    -0.278 OA
DOCKED: BRANCH  35  36
DOCKED: ATOM     36  P   UNL d   1      -3.164 -13.322  -8.237 -0.18 -0.11    +0.473 P 
DOCKED: ATOM     37  O   UNL d   1      -3.332 -13.948  -6.889 -0.22 +0.06    -0.228 OA
DOCKED: BRANCH  36  38
DOCKED: ATOM     38  O   UNL d   1      -1.653 -13.220  -8.728 -0.05 +0.16    -0.303 OA
DOCKED: ATOM     39  H   UNL d   1      -1.599 -13.506  -9.665 -0.41 -0.14    +0.222 HD
DOCKED: ENDBRANCH  36  38
DOCKED: BRANCH  36  40
DOCKED: ATOM     40  O   UNL d   1      -3.727 -11.847  -8.423 -0.28 +0.01    -0.303 OA
DOCKED: ATOM     41  H   UNL d   1      -4.622 -11.847  -8.830 +0.10 -0.02    +0.222 HD
DOCKED: ENDBRANCH  36  40
DOCKED: ENDBRANCH  35  36
DOCKED: ENDBRANCH   5  35
DOCKED: BRANCH   4  42
DOCKED: ATOM     42  O   UNL d   1      -6.613 -14.042 -10.367 -0.01 +0.03    -0.278 OA
DOCKED: BRANCH  42  43
DOCKED: ATOM     43  P   UNL d   1      -6.474 -14.945 -11.674 +0.01 -0.03    +0.473 P 
DOCKED: ATOM     44  O   UNL d   1      -7.683 -15.687 -12.128 +0.00 +0.01    -0.228 OA
DOCKED: BRANCH  43  45
DOCKED: ATOM     45  O   UNL d   1      -5.899 -13.919 -12.747 +0.00 +0.01    -0.303 OA
DOCKED: ATOM     46  H   UNL d   1      -5.469 -14.385 -13.492 +0.00 -0.01    +0.222 HD
DOCKED: ENDBRANCH  43  45
DOCKED: BRANCH  43  47
DOCKED: ATOM     47  O   UNL d   1      -5.186 -15.846 -11.362 +0.00 +0.03    -0.303 OA
DOCKED: ATOM     48  H   UNL d   1      -4.395 -15.270 -11.306 +0.02 -0.03    +0.222 HD
DOCKED: ENDBRANCH  43  47
DOCKED: ENDBRANCH  42  43
DOCKED: ENDBRANCH   4  42
DOCKED: TORSDOF 24
DOCKED: TER
DOCKED: ENDMDL
________________________________________________________________________________


	BEGINNING GENETIC ALGORITHM DOCKING 79 of 100
Run: 79 Seed: 828618724 950752353 [ Run 79 of 100 GA/GALS ]
Beginning LAMARCKIAN GENETIC ALGORITHM (LGA), with a maximum of 25000000 energy evaluations.

Final-Value: -20.160


	FINAL GENETIC ALGORITHM DOCKED STATE
	_______________________________________________


Detailed state:  trans -15.644 -3.666 -5.637 quatxyzw -0.471560 0.869812 0.040653 -0.139306 center 0.035 0.082 -0.065 ntor 24 -158.4882 -2.4339 138.6964 30.5274 107.3400 94.5848 -3.7805 -115.9805 -2.9847 63.7051 92.2909 -109.9014 39.9199 28.1873 175.0374 -66.6618 -58.1868 89.2649 -136.4626 -24.3338 17.4522 6.9342 173.3402 12.6894
State:	-15.644  -3.666  -5.637  -0.476  0.878  0.041 -163.985   -158.49   -2.43  138.70   30.53  107.34   94.58   -3.78 -115.98   -2.98   63.71   92.29 -109.90   39.92   28.19  175.04  -66.66  -58.19   89.26 -136.46  -24.33   17.45    6.93  173.34   12.69

DOCKED: MODEL       79
DOCKED: USER    Run = 79
DOCKED: USER    DPF = D:/Protein_go_brrr/autodock/final/AncMH_nat/IHP/dock.dpf
DOCKED: USER  
DOCKED: USER    Estimated Free Energy of Binding    =   +4.14 kcal/mol  [=(1)+(2)+(3)-(4)]
DOCKED: USER    
DOCKED: USER    (1) Final Intermolecular Energy     =   -3.02 kcal/mol
DOCKED: USER        vdW + Hbond + desolv Energy     =   -3.10 kcal/mol
DOCKED: USER        Electrostatic Energy            =   +0.08 kcal/mol
DOCKED: USER    (2) Final Total Internal Energy     =  -17.14 kcal/mol
DOCKED: USER    (3) Torsional Free Energy           =   +7.16 kcal/mol
DOCKED: USER    (4) Unbound System's Energy  [=(2)] =  -17.14 kcal/mol
DOCKED: USER    
DOCKED: USER    
DOCKED: USER    NEWDPF move IHP_ideal_opt.pdbqt
DOCKED: USER    NEWDPF about 0.035000 0.082000 -0.065000
DOCKED: USER    NEWDPF tran0 -15.643923 -3.666133 -5.637175
DOCKED: USER    NEWDPF quaternion0 -0.471560 0.869812 0.040653 -0.139306
DOCKED: USER    NEWDPF axisangle0 -0.476203 0.878377 0.041054 -163.984652
DOCKED: USER    NEWDPF quat0 -0.476203 0.878377 0.041054 -163.984652
DOCKED: USER    NEWDPF dihe0 -158.49 -2.43 138.70 30.53 107.34 94.58 -3.78 -115.98 -2.98 63.71 92.29 -109.90 39.92 28.19 175.04 -66.66 -58.19 89.26 -136.46 -24.33 17.45 6.93 173.34 12.69 
DOCKED: USER  keepresnum = 1 
DOCKED: USER  
DOCKED: REMARK  24 active torsions:
DOCKED: REMARK  status: ('A' for Active; 'I' for Inactive)
DOCKED: REMARK    1  A    between atoms: C_1  and  O_7 
DOCKED: REMARK    2  A    between atoms: C_2  and  O_12 
DOCKED: REMARK    3  A    between atoms: C_3  and  O_17 
DOCKED: REMARK    4  A    between atoms: C_4  and  O_22 
DOCKED: REMARK    5  A    between atoms: C_5  and  O_27 
DOCKED: REMARK    6  A    between atoms: C_6  and  O_32 
DOCKED: REMARK    7  A    between atoms: O_7  and  P_8 
DOCKED: REMARK    8  A    between atoms: P_8  and  O_10 
DOCKED: REMARK    9  A    between atoms: P_8  and  O_11 
DOCKED: REMARK   10  A    between atoms: O_12  and  P_13 
DOCKED: REMARK   11  A    between atoms: P_13  and  O_15 
DOCKED: REMARK   12  A    between atoms: P_13  and  O_16 
DOCKED: REMARK   13  A    between atoms: O_17  and  P_18 
DOCKED: REMARK   14  A    between atoms: P_18  and  O_20 
DOCKED: REMARK   15  A    between atoms: P_18  and  O_21 
DOCKED: REMARK   16  A    between atoms: O_22  and  P_23 
DOCKED: REMARK   17  A    between atoms: P_23  and  O_25 
DOCKED: REMARK   18  A    between atoms: P_23  and  O_26 
DOCKED: REMARK   19  A    between atoms: O_27  and  P_28 
DOCKED: REMARK   20  A    between atoms: P_28  and  O_30 
DOCKED: REMARK   21  A    between atoms: P_28  and  O_31 
DOCKED: REMARK   22  A    between atoms: O_32  and  P_33 
DOCKED: REMARK   23  A    between atoms: P_33  and  O_35 
DOCKED: REMARK   24  A    between atoms: P_33  and  O_36 
DOCKED: USER                              x       y       z     vdW  Elec       q    Type
DOCKED: USER                           _______ _______ _______ _____ _____    ______ ____
DOCKED: ROOT
DOCKED: ATOM      1  C   UNL d   1     -15.391  -5.010  -6.693 -0.02 +0.07    +0.194 C 
DOCKED: ATOM      2  C   UNL d   1     -14.153  -4.519  -5.940 -0.10 +0.10    +0.194 C 
DOCKED: ATOM      3  C   UNL d   1     -14.066  -2.991  -5.929 -0.08 +0.08    +0.194 C 
DOCKED: ATOM      4  C   UNL d   1     -15.345  -2.319  -5.437 -0.05 +0.09    +0.194 C 
DOCKED: ATOM      5  C   UNL d   1     -16.617  -2.860  -6.078 -0.01 +0.07    +0.194 C 
DOCKED: ATOM      6  C   UNL d   1     -16.676  -4.387  -6.145 -0.01 +0.07    +0.194 C 
DOCKED: ENDROOT
DOCKED: BRANCH   1   7
DOCKED: ATOM      7  O   UNL d   1     -15.492  -6.424  -6.510 -0.01 -0.11    -0.278 OA
DOCKED: BRANCH   7   8
DOCKED: ATOM      8  P   UNL d   1     -16.534  -6.979  -5.434 -0.01 +0.20    +0.473 P 
DOCKED: ATOM      9  O   UNL d   1     -17.889  -7.287  -5.967 -0.00 -0.06    -0.228 OA
DOCKED: BRANCH   8  10
DOCKED: ATOM     10  O   UNL d   1     -15.802  -8.250  -4.806 -0.03 -0.13    -0.303 OA
DOCKED: ATOM     11  H   UNL d   1     -14.867  -8.035  -4.630 +0.06 +0.11    +0.222 HD
DOCKED: ENDBRANCH   8  10
DOCKED: BRANCH   8  12
DOCKED: ATOM     12  O   UNL d   1     -16.480  -5.939  -4.234 -0.61 -0.28    -0.303 OA
DOCKED: ATOM     13  H   UNL d   1     -15.563  -5.716  -3.957 +0.03 +0.30    +0.222 HD
DOCKED: ENDBRANCH   8  12
DOCKED: ENDBRANCH   7   8
DOCKED: ENDBRANCH   1   7
DOCKED: BRANCH   2  14
DOCKED: ATOM     14  O   UNL d   1     -14.216  -4.982  -4.586 -0.65 -0.26    -0.278 OA
DOCKED: BRANCH  14  15
DOCKED: ATOM     15  P   UNL d   1     -13.208  -6.160  -4.185 -0.20 +0.34    +0.473 P 
DOCKED: ATOM     16  O   UNL d   1     -11.818  -5.755  -3.804 -0.19 -0.09    -0.228 OA
DOCKED: BRANCH  15  17
DOCKED: ATOM     17  O   UNL d   1     -13.965  -6.939  -3.020 -0.23 -0.30    -0.303 OA
DOCKED: ATOM     18  H   UNL d   1     -14.911  -7.058  -3.233 +0.05 +0.24    +0.222 HD
DOCKED: ENDBRANCH  15  17
DOCKED: BRANCH  15  19
DOCKED: ATOM     19  O   UNL d   1     -13.314  -7.199  -5.385 -0.12 -0.15    -0.303 OA
DOCKED: ATOM     20  H   UNL d   1     -14.194  -7.175  -5.805 +0.06 +0.11    +0.222 HD
DOCKED: ENDBRANCH  15  19
DOCKED: ENDBRANCH  14  15
DOCKED: ENDBRANCH   2  14
DOCKED: BRANCH   6  21
DOCKED: ATOM     21  O   UNL d   1     -17.723  -4.720  -7.054 +0.00 -0.07    -0.278 OA
DOCKED: BRANCH  21  22
DOCKED: ATOM     22  P   UNL d   1     -19.229  -4.796  -6.534 +0.01 +0.10    +0.473 P 
DOCKED: ATOM     23  O   UNL d   1     -20.190  -5.659  -7.280 +0.00 -0.03    -0.228 OA
DOCKED: BRANCH  22  24
DOCKED: ATOM     24  O   UNL d   1     -19.026  -5.190  -5.005 -0.00 -0.10    -0.303 OA
DOCKED: ATOM     25  H   UNL d   1     -18.262  -4.667  -4.651 +0.01 +0.10    +0.222 HD
DOCKED: ENDBRANCH  22  24
DOCKED: BRANCH  22  26
DOCKED: ATOM     26  O   UNL d   1     -19.615  -3.244  -6.427 +0.00 -0.06    -0.303 OA
DOCKED: ATOM     27  H   UNL d   1     -19.243  -2.875  -5.601 +0.01 +0.06    +0.222 HD
DOCKED: ENDBRANCH  22  26
DOCKED: ENDBRANCH  21  22
DOCKED: ENDBRANCH   6  21
DOCKED: BRANCH   3  28
DOCKED: ATOM     28  O   UNL d   1     -13.063  -2.626  -4.990 -0.15 -0.14    -0.278 OA
DOCKED: BRANCH  28  29
DOCKED: ATOM     29  P   UNL d   1     -11.759  -1.847  -5.468 -0.14 +0.11    +0.473 P 
DOCKED: ATOM     30  O   UNL d   1     -10.592  -2.700  -5.813 -0.31 -0.00    -0.228 OA
DOCKED: BRANCH  29  31
DOCKED: ATOM     31  O   UNL d   1     -12.380  -0.958  -6.645 -0.06 -0.03    -0.303 OA
DOCKED: ATOM     32  H   UNL d   1     -13.202  -0.528  -6.313 +0.05 +0.03    +0.222 HD
DOCKED: ENDBRANCH  29  31
DOCKED: BRANCH  29  33
DOCKED: ATOM     33  O   UNL d   1     -11.554  -0.788  -4.297 -0.21 -0.08    -0.303 OA
DOCKED: ATOM     34  H   UNL d   1     -12.375  -0.243  -4.210 +0.07 +0.07    +0.222 HD
DOCKED: ENDBRANCH  29  33
DOCKED: ENDBRANCH  28  29
DOCKED: ENDBRANCH   3  28
DOCKED: BRANCH   5  35
DOCKED: ATOM     35  O   UNL d   1     -17.686  -2.435  -5.236 -0.00 -0.10    -0.278 OA
DOCKED: BRANCH  35  36
DOCKED: ATOM     36  P   UNL d   1     -17.686  -2.807  -3.685 -0.04 +0.29    +0.473 P 
DOCKED: ATOM     37  O   UNL d   1     -16.707  -3.861  -3.275 -0.19 -0.28    -0.228 OA
DOCKED: BRANCH  36  38
DOCKED: ATOM     38  O   UNL d   1     -17.440  -1.387  -3.009 -0.02 -0.19    -0.303 OA
DOCKED: ATOM     39  H   UNL d   1     -16.505  -1.121  -3.150 +0.03 +0.15    +0.222 HD
DOCKED: ENDBRANCH  36  38
DOCKED: BRANCH  36  40
DOCKED: ATOM     40  O   UNL d   1     -19.224  -3.103  -3.406 -0.01 -0.13    -0.303 OA
DOCKED: ATOM     41  H   UNL d   1     -19.706  -3.332  -4.231 +0.01 +0.07    +0.222 HD
DOCKED: ENDBRANCH  36  40
DOCKED: ENDBRANCH  35  36
DOCKED: ENDBRANCH   5  35
DOCKED: BRANCH   4  42
DOCKED: ATOM     42  O   UNL d   1     -15.250  -0.936  -5.792 -0.01 -0.08    -0.278 OA
DOCKED: BRANCH  42  43
DOCKED: ATOM     43  P   UNL d   1     -14.775   0.113  -4.687 +0.00 +0.18    +0.473 P 
DOCKED: ATOM     44  O   UNL d   1     -13.764   1.129  -5.095 -0.02 -0.05    -0.228 OA
DOCKED: BRANCH  43  45
DOCKED: ATOM     45  O   UNL d   1     -16.150   0.730  -4.177 +0.00 -0.14    -0.303 OA
DOCKED: ATOM     46  H   UNL d   1     -16.906   0.152  -4.400 +0.02 +0.09    +0.222 HD
DOCKED: ENDBRANCH  43  45
DOCKED: BRANCH  43  47
DOCKED: ATOM     47  O   UNL d   1     -14.358  -0.820  -3.452 -0.09 -0.20    -0.303 OA
DOCKED: ATOM     48  H   UNL d   1     -13.548  -1.320  -3.684 +0.05 +0.14    +0.222 HD
DOCKED: ENDBRANCH  43  47
DOCKED: ENDBRANCH  42  43
DOCKED: ENDBRANCH   4  42
DOCKED: TORSDOF 24
DOCKED: TER
DOCKED: ENDMDL
________________________________________________________________________________


	BEGINNING GENETIC ALGORITHM DOCKING 80 of 100
Run: 80 Seed: 1289562459 578322509 [ Run 80 of 100 GA/GALS ]
Beginning LAMARCKIAN GENETIC ALGORITHM (LGA), with a maximum of 25000000 energy evaluations.

Final-Value: -18.574


	FINAL GENETIC ALGORITHM DOCKED STATE
	_______________________________________________


Detailed state:  trans -4.508 20.137 3.938 quatxyzw -0.242834 -0.541444 0.489795 0.638726 center 0.035 0.082 -0.065 ntor 24 -145.0465 54.2767 139.3324 -2.0030 -16.4558 -94.2977 -102.6074 12.4590 104.7168 23.5355 5.5976 -180.0000 151.0508 -179.2998 -39.1535 180.0000 -143.1443 167.8624 51.5401 12.4167 9.0080 22.6000 -18.2477 -16.8206
State:	 -4.508  20.137   3.938  -0.316 -0.704  0.637 100.606   -145.05   54.28  139.33   -2.00  -16.46  -94.30 -102.61   12.46  104.72   23.54    5.60 -180.00  151.05 -179.30  -39.15  180.00 -143.14  167.86   51.54   12.42    9.01   22.60  -18.25  -16.82

DOCKED: MODEL       80
DOCKED: USER    Run = 80
DOCKED: USER    DPF = D:/Protein_go_brrr/autodock/final/AncMH_nat/IHP/dock.dpf
DOCKED: USER  
DOCKED: USER    Estimated Free Energy of Binding    =   +1.86 kcal/mol  [=(1)+(2)+(3)-(4)]
DOCKED: USER    
DOCKED: USER    (1) Final Intermolecular Energy     =   -5.30 kcal/mol
DOCKED: USER        vdW + Hbond + desolv Energy     =   -4.96 kcal/mol
DOCKED: USER        Electrostatic Energy            =   -0.34 kcal/mol
DOCKED: USER    (2) Final Total Internal Energy     =  -13.28 kcal/mol
DOCKED: USER    (3) Torsional Free Energy           =   +7.16 kcal/mol
DOCKED: USER    (4) Unbound System's Energy  [=(2)] =  -13.28 kcal/mol
DOCKED: USER    
DOCKED: USER    
DOCKED: USER    NEWDPF move IHP_ideal_opt.pdbqt
DOCKED: USER    NEWDPF about 0.035000 0.082000 -0.065000
DOCKED: USER    NEWDPF tran0 -4.508332 20.137048 3.937593
DOCKED: USER    NEWDPF quaternion0 -0.242834 -0.541444 0.489795 0.638726
DOCKED: USER    NEWDPF axisangle0 -0.315601 -0.703691 0.636565 100.606214
DOCKED: USER    NEWDPF quat0 -0.315601 -0.703691 0.636565 100.606214
DOCKED: USER    NEWDPF dihe0 -145.05 54.28 139.33 -2.00 -16.46 -94.30 -102.61 12.46 104.72 23.54 5.60 -180.00 151.05 -179.30 -39.15 180.00 -143.14 167.86 51.54 12.42 9.01 22.60 -18.25 -16.82 
DOCKED: USER  keepresnum = 1 
DOCKED: USER  
DOCKED: REMARK  24 active torsions:
DOCKED: REMARK  status: ('A' for Active; 'I' for Inactive)
DOCKED: REMARK    1  A    between atoms: C_1  and  O_7 
DOCKED: REMARK    2  A    between atoms: C_2  and  O_12 
DOCKED: REMARK    3  A    between atoms: C_3  and  O_17 
DOCKED: REMARK    4  A    between atoms: C_4  and  O_22 
DOCKED: REMARK    5  A    between atoms: C_5  and  O_27 
DOCKED: REMARK    6  A    between atoms: C_6  and  O_32 
DOCKED: REMARK    7  A    between atoms: O_7  and  P_8 
DOCKED: REMARK    8  A    between atoms: P_8  and  O_10 
DOCKED: REMARK    9  A    between atoms: P_8  and  O_11 
DOCKED: REMARK   10  A    between atoms: O_12  and  P_13 
DOCKED: REMARK   11  A    between atoms: P_13  and  O_15 
DOCKED: REMARK   12  A    between atoms: P_13  and  O_16 
DOCKED: REMARK   13  A    between atoms: O_17  and  P_18 
DOCKED: REMARK   14  A    between atoms: P_18  and  O_20 
DOCKED: REMARK   15  A    between atoms: P_18  and  O_21 
DOCKED: REMARK   16  A    between atoms: O_22  and  P_23 
DOCKED: REMARK   17  A    between atoms: P_23  and  O_25 
DOCKED: REMARK   18  A    between atoms: P_23  and  O_26 
DOCKED: REMARK   19  A    between atoms: O_27  and  P_28 
DOCKED: REMARK   20  A    between atoms: P_28  and  O_30 
DOCKED: REMARK   21  A    between atoms: P_28  and  O_31 
DOCKED: REMARK   22  A    between atoms: O_32  and  P_33 
DOCKED: REMARK   23  A    between atoms: P_33  and  O_35 
DOCKED: REMARK   24  A    between atoms: P_33  and  O_36 
DOCKED: USER                              x       y       z     vdW  Elec       q    Type
DOCKED: USER                           _______ _______ _______ _____ _____    ______ ____
DOCKED: ROOT
DOCKED: ATOM      1  C   UNL d   1      -5.021  18.660   3.202 -0.16 +0.01    +0.194 C 
DOCKED: ATOM      2  C   UNL d   1      -5.821  19.100   4.430 -0.10 +0.01    +0.194 C 
DOCKED: ATOM      3  C   UNL d   1      -4.908  19.610   5.548 -0.09 +0.03    +0.194 C 
DOCKED: ATOM      4  C   UNL d   1      -3.929  20.684   5.081 -0.04 +0.04    +0.194 C 
DOCKED: ATOM      5  C   UNL d   1      -3.193  20.336   3.794 -0.06 +0.03    +0.194 C 
DOCKED: ATOM      6  C   UNL d   1      -4.096  19.769   2.698 -0.10 +0.01    +0.194 C 
DOCKED: ENDROOT
DOCKED: BRANCH   1   7
DOCKED: ATOM      7  O   UNL d   1      -5.945  18.365   2.152 -0.13 -0.01    -0.278 OA
DOCKED: BRANCH   7   8
DOCKED: ATOM      8  P   UNL d   1      -6.846  17.052   2.281 -0.17 +0.02    +0.473 P 
DOCKED: ATOM      9  O   UNL d   1      -7.370  16.517   0.994 -0.41 -0.03    -0.228 OA
DOCKED: BRANCH   8  10
DOCKED: ATOM     10  O   UNL d   1      -5.914  16.017   3.059 -0.65 +0.00    -0.303 OA
DOCKED: ATOM     11  H   UNL d   1      -5.637  16.404   3.910 -0.45 -0.11    +0.222 HD
DOCKED: ENDBRANCH   8  10
DOCKED: BRANCH   8  12
DOCKED: ATOM     12  O   UNL d   1      -7.938  17.408   3.379 -0.14 +0.02    -0.303 OA
DOCKED: ATOM     13  H   UNL d   1      -7.932  18.358   3.635 +0.08 -0.00    +0.222 HD
DOCKED: ENDBRANCH   8  12
DOCKED: ENDBRANCH   7   8
DOCKED: ENDBRANCH   1   7
DOCKED: BRANCH   2  14
DOCKED: ATOM     14  O   UNL d   1      -6.714  20.155   4.053 -0.03 -0.02    -0.278 OA
DOCKED: BRANCH  14  15
DOCKED: ATOM     15  P   UNL d   1      -8.145  20.172   4.770 -0.01 +0.01    +0.473 P 
DOCKED: ATOM     16  O   UNL d   1      -9.345  20.149   3.876 -0.03 -0.03    -0.228 OA
DOCKED: BRANCH  15  17
DOCKED: ATOM     17  O   UNL d   1      -8.094  18.931   5.767 -0.13 +0.03    -0.303 OA
DOCKED: ATOM     18  H   UNL d   1      -7.239  18.892   6.237 +0.05 -0.01    +0.222 HD
DOCKED: ENDBRANCH  15  17
DOCKED: BRANCH  15  19
DOCKED: ATOM     19  O   UNL d   1      -8.068  21.397   5.782 -0.01 -0.01    -0.303 OA
DOCKED: ATOM     20  H   UNL d   1      -7.370  21.269   6.450 +0.03 +0.01    +0.222 HD
DOCKED: ENDBRANCH  15  19
DOCKED: ENDBRANCH  14  15
DOCKED: ENDBRANCH   2  14
DOCKED: BRANCH   6  21
DOCKED: ATOM     21  O   UNL d   1      -3.240  19.185   1.719 -0.15 -0.01    -0.278 OA
DOCKED: BRANCH  21  22
DOCKED: ATOM     22  P   UNL d   1      -2.773  20.047   0.460 -0.10 +0.01    +0.473 P 
DOCKED: ATOM     23  O   UNL d   1      -3.412  21.376   0.240 -0.03 -0.01    -0.228 OA
DOCKED: BRANCH  22  24
DOCKED: ATOM     24  O   UNL d   1      -1.195  20.090   0.663 -0.08 -0.02    -0.303 OA
DOCKED: ATOM     25  H   UNL d   1      -0.986  20.814   1.307 +0.01 +0.03    +0.222 HD
DOCKED: ENDBRANCH  22  24
DOCKED: BRANCH  22  26
DOCKED: ATOM     26  O   UNL d   1      -2.924  18.987  -0.734 -0.14 +0.03    -0.303 OA
DOCKED: ATOM     27  H   UNL d   1      -3.818  19.069  -1.125 -0.43 -0.07    +0.222 HD
DOCKED: ENDBRANCH  22  26
DOCKED: ENDBRANCH  21  22
DOCKED: ENDBRANCH   6  21
DOCKED: BRANCH   3  28
DOCKED: ATOM     28  O   UNL d   1      -5.732  20.245   6.517 -0.07 -0.05    -0.278 OA
DOCKED: BRANCH  28  29
DOCKED: ATOM     29  P   UNL d   1      -5.541  19.929   8.066 -0.14 +0.23    +0.473 P 
DOCKED: ATOM     30  O   UNL d   1      -5.970  21.004   8.997 -0.12 -0.09    -0.228 OA
DOCKED: BRANCH  29  31
DOCKED: ATOM     31  O   UNL d   1      -6.315  18.532   8.164 -0.02 -0.09    -0.303 OA
DOCKED: ATOM     32  H   UNL d   1      -7.206  18.637   7.757 -0.37 -0.03    +0.222 HD
DOCKED: ENDBRANCH  29  31
DOCKED: BRANCH  29  33
DOCKED: ATOM     33  O   UNL d   1      -4.012  19.489   8.131 -0.69 -0.36    -0.303 OA
DOCKED: ATOM     34  H   UNL d   1      -3.442  20.285   7.996 +0.04 +0.20    +0.222 HD
DOCKED: ENDBRANCH  29  33
DOCKED: ENDBRANCH  28  29
DOCKED: ENDBRANCH   3  28
DOCKED: BRANCH   5  35
DOCKED: ATOM     35  O   UNL d   1      -2.663  21.568   3.306 -0.02 -0.04    -0.278 OA
DOCKED: BRANCH  35  36
DOCKED: ATOM     36  P   UNL d   1      -1.088  21.814   3.286 -0.04 +0.09    +0.473 P 
DOCKED: ATOM     37  O   UNL d   1      -0.546  22.616   4.427 -0.02 -0.05    -0.228 OA
DOCKED: BRANCH  36  38
DOCKED: ATOM     38  O   UNL d   1      -0.526  20.326   3.207 -0.10 -0.09    -0.303 OA
DOCKED: ATOM     39  H   UNL d   1      -1.136  19.781   2.667 +0.00 +0.04    +0.222 HD
DOCKED: ENDBRANCH  36  38
DOCKED: BRANCH  36  40
DOCKED: ATOM     40  O   UNL d   1      -0.852  22.391   1.823 -0.02 -0.04    -0.303 OA
DOCKED: ATOM     41  H   UNL d   1      -1.608  22.191   1.227 +0.02 +0.02    +0.222 HD
DOCKED: ENDBRANCH  36  40
DOCKED: ENDBRANCH  35  36
DOCKED: ENDBRANCH   5  35
DOCKED: BRANCH   4  42
DOCKED: ATOM     42  O   UNL d   1      -2.941  20.819   6.109 -0.02 -0.09    -0.278 OA
DOCKED: BRANCH  42  43
DOCKED: ATOM     43  P   UNL d   1      -2.627  22.270   6.691 +0.01 +0.13    +0.473 P 
DOCKED: ATOM     44  O   UNL d   1      -1.227  22.553   7.113 -0.00 -0.06    -0.228 OA
DOCKED: BRANCH  43  45
DOCKED: ATOM     45  O   UNL d   1      -3.168  23.231   5.544 +0.00 -0.04    -0.303 OA
DOCKED: ATOM     46  H   UNL d   1      -2.631  23.154   4.730 +0.01 +0.03    +0.222 HD
DOCKED: ENDBRANCH  43  45
DOCKED: BRANCH  43  47
DOCKED: ATOM     47  O   UNL d   1      -3.743  22.458   7.827 -0.01 -0.10    -0.303 OA
DOCKED: ATOM     48  H   UNL d   1      -4.316  21.664   7.851 +0.03 +0.09    +0.222 HD
DOCKED: ENDBRANCH  43  47
DOCKED: ENDBRANCH  42  43
DOCKED: ENDBRANCH   4  42
DOCKED: TORSDOF 24
DOCKED: TER
DOCKED: ENDMDL
________________________________________________________________________________


	BEGINNING GENETIC ALGORITHM DOCKING 81 of 100
Run: 81 Seed: 38720596 19645092 [ Run 81 of 100 GA/GALS ]
Beginning LAMARCKIAN GENETIC ALGORITHM (LGA), with a maximum of 25000000 energy evaluations.

Final-Value: -17.965


	FINAL GENETIC ALGORITHM DOCKED STATE
	_______________________________________________


Detailed state:  trans 15.862 0.446 -12.528 quatxyzw 0.197847 0.970823 -0.016310 0.134513 center 0.035 0.082 -0.065 ntor 24 113.2647 155.0173 -131.7635 3.6555 121.8385 87.0071 -27.9843 -88.0349 -3.3833 27.6749 65.2796 96.7091 -77.5522 -175.8021 180.0000 -51.6963 166.4560 -180.0000 -148.1726 -18.2963 14.4892 -28.1344 -175.6731 27.2779
State:	 15.862   0.446 -12.528   0.200  0.980 -0.016 164.539    113.26  155.02 -131.76    3.66  121.84   87.01  -27.98  -88.03   -3.38   27.67   65.28   96.71  -77.55 -175.80  180.00  -51.70  166.46 -180.00 -148.17  -18.30   14.49  -28.13 -175.67   27.28

DOCKED: MODEL       81
DOCKED: USER    Run = 81
DOCKED: USER    DPF = D:/Protein_go_brrr/autodock/final/AncMH_nat/IHP/dock.dpf
DOCKED: USER  
DOCKED: USER    Estimated Free Energy of Binding    =   +3.31 kcal/mol  [=(1)+(2)+(3)-(4)]
DOCKED: USER    
DOCKED: USER    (1) Final Intermolecular Energy     =   -3.85 kcal/mol
DOCKED: USER        vdW + Hbond + desolv Energy     =   -3.74 kcal/mol
DOCKED: USER        Electrostatic Energy            =   -0.11 kcal/mol
DOCKED: USER    (2) Final Total Internal Energy     =  -14.11 kcal/mol
DOCKED: USER    (3) Torsional Free Energy           =   +7.16 kcal/mol
DOCKED: USER    (4) Unbound System's Energy  [=(2)] =  -14.11 kcal/mol
DOCKED: USER    
DOCKED: USER    
DOCKED: USER    NEWDPF move IHP_ideal_opt.pdbqt
DOCKED: USER    NEWDPF about 0.035000 0.082000 -0.065000
DOCKED: USER    NEWDPF tran0 15.862420 0.445976 -12.528414
DOCKED: USER    NEWDPF quaternion0 0.197847 0.970823 -0.016310 0.134513
DOCKED: USER    NEWDPF axisangle0 0.199661 0.979727 -0.016460 164.539103
DOCKED: USER    NEWDPF quat0 0.199661 0.979727 -0.016460 164.539103
DOCKED: USER    NEWDPF dihe0 113.26 155.02 -131.76 3.66 121.84 87.01 -27.98 -88.03 -3.38 27.67 65.28 96.71 -77.55 -175.80 180.00 -51.70 166.46 -180.00 -148.17 -18.30 14.49 -28.13 -175.67 27.28 
DOCKED: USER  keepresnum = 1 
DOCKED: USER  
DOCKED: REMARK  24 active torsions:
DOCKED: REMARK  status: ('A' for Active; 'I' for Inactive)
DOCKED: REMARK    1  A    between atoms: C_1  and  O_7 
DOCKED: REMARK    2  A    between atoms: C_2  and  O_12 
DOCKED: REMARK    3  A    between atoms: C_3  and  O_17 
DOCKED: REMARK    4  A    between atoms: C_4  and  O_22 
DOCKED: REMARK    5  A    between atoms: C_5  and  O_27 
DOCKED: REMARK    6  A    between atoms: C_6  and  O_32 
DOCKED: REMARK    7  A    between atoms: O_7  and  P_8 
DOCKED: REMARK    8  A    between atoms: P_8  and  O_10 
DOCKED: REMARK    9  A    between atoms: P_8  and  O_11 
DOCKED: REMARK   10  A    between atoms: O_12  and  P_13 
DOCKED: REMARK   11  A    between atoms: P_13  and  O_15 
DOCKED: REMARK   12  A    between atoms: P_13  and  O_16 
DOCKED: REMARK   13  A    between atoms: O_17  and  P_18 
DOCKED: REMARK   14  A    between atoms: P_18  and  O_20 
DOCKED: REMARK   15  A    between atoms: P_18  and  O_21 
DOCKED: REMARK   16  A    between atoms: O_22  and  P_23 
DOCKED: REMARK   17  A    between atoms: P_23  and  O_25 
DOCKED: REMARK   18  A    between atoms: P_23  and  O_26 
DOCKED: REMARK   19  A    between atoms: O_27  and  P_28 
DOCKED: REMARK   20  A    between atoms: P_28  and  O_30 
DOCKED: REMARK   21  A    between atoms: P_28  and  O_31 
DOCKED: REMARK   22  A    between atoms: O_32  and  P_33 
DOCKED: REMARK   23  A    between atoms: P_33  and  O_35 
DOCKED: REMARK   24  A    between atoms: P_33  and  O_36 
DOCKED: USER                              x       y       z     vdW  Elec       q    Type
DOCKED: USER                           _______ _______ _______ _____ _____    ______ ____
DOCKED: ROOT
DOCKED: ATOM      1  C   UNL d   1      14.204   0.132 -12.896 -0.07 -0.13    +0.194 C 
DOCKED: ATOM      2  C   UNL d   1      15.102  -1.102 -12.790 -0.03 -0.07    +0.194 C 
DOCKED: ATOM      3  C   UNL d   1      16.447  -0.884 -13.487 +0.00 -0.06    +0.194 C 
DOCKED: ATOM      4  C   UNL d   1      17.159   0.389 -13.036 +0.00 -0.07    +0.194 C 
DOCKED: ATOM      5  C   UNL d   1      16.268   1.624 -13.017 -0.01 -0.11    +0.194 C 
DOCKED: ATOM      6  C   UNL d   1      14.899   1.390 -12.375 -0.06 -0.15    +0.194 C 
DOCKED: ENDROOT
DOCKED: BRANCH   1   7
DOCKED: ATOM      7  O   UNL d   1      13.050  -0.086 -12.081 -0.14 +0.20    -0.278 OA
DOCKED: BRANCH   7   8
DOCKED: ATOM      8  P   UNL d   1      13.108   0.361 -10.548 -0.12 -0.28    +0.473 P 
DOCKED: ATOM      9  O   UNL d   1      14.471   0.398  -9.953 -0.17 +0.12    -0.228 OA
DOCKED: BRANCH   8  10
DOCKED: ATOM     10  O   UNL d   1      12.376   1.779 -10.530 -0.19 +0.32    -0.303 OA
DOCKED: ATOM     11  H   UNL d   1      12.692   2.318 -11.279 -0.43 -0.41    +0.222 HD
DOCKED: ENDBRANCH   8  10
DOCKED: BRANCH   8  12
DOCKED: ATOM     12  O   UNL d   1      12.052  -0.567  -9.807 -0.32 +0.09    -0.303 OA
DOCKED: ATOM     13  H   UNL d   1      12.471  -1.232  -9.216 -0.36 -0.08    +0.222 HD
DOCKED: ENDBRANCH   8  12
DOCKED: ENDBRANCH   7   8
DOCKED: ENDBRANCH   1   7
DOCKED: BRANCH   2  14
DOCKED: ATOM     14  O   UNL d   1      15.346  -1.385 -11.406 -0.06 +0.09    -0.278 OA
DOCKED: BRANCH  14  15
DOCKED: ATOM     15  P   UNL d   1      14.721  -2.744 -10.833 -0.13 -0.13    +0.473 P 
DOCKED: ATOM     16  O   UNL d   1      13.753  -2.613  -9.700 -0.19 +0.02    -0.228 OA
DOCKED: BRANCH  15  17
DOCKED: ATOM     17  O   UNL d   1      14.083  -3.447 -12.113 -0.38 -0.07    -0.303 OA
DOCKED: ATOM     18  H   UNL d   1      14.338  -4.388 -12.161 -0.26 -0.06    +0.222 HD
DOCKED: ENDBRANCH  15  17
DOCKED: BRANCH  15  19
DOCKED: ATOM     19  O   UNL d   1      15.982  -3.673 -10.554 -0.20 +0.21    -0.303 OA
DOCKED: ATOM     20  H   UNL d   1      16.528  -3.789 -11.354 +0.04 -0.11    +0.222 HD
DOCKED: ENDBRANCH  15  19
DOCKED: ENDBRANCH  14  15
DOCKED: ENDBRANCH   2  14
DOCKED: BRANCH   6  21
DOCKED: ATOM     21  O   UNL d   1      14.080   2.500 -12.735 -0.06 +0.41    -0.278 OA
DOCKED: BRANCH  21  22
DOCKED: ATOM     22  P   UNL d   1      14.081   3.812 -11.827 -0.12 -0.55    +0.473 P 
DOCKED: ATOM     23  O   UNL d   1      12.833   4.628 -11.767 -0.38 +0.33    -0.228 OA
DOCKED: BRANCH  22  24
DOCKED: ATOM     24  O   UNL d   1      14.571   3.238 -10.426 -0.11 +0.22    -0.303 OA
DOCKED: ATOM     25  H   UNL d   1      15.439   2.781 -10.567 +0.09 -0.14    +0.222 HD
DOCKED: ENDBRANCH  22  24
DOCKED: BRANCH  22  26
DOCKED: ATOM     26  O   UNL d   1      15.392   4.571 -12.352 -0.06 +0.26    -0.303 OA
DOCKED: ATOM     27  H   UNL d   1      16.171   4.249 -11.854 +0.06 -0.15    +0.222 HD
DOCKED: ENDBRANCH  22  26
DOCKED: ENDBRANCH  21  22
DOCKED: ENDBRANCH   6  21
DOCKED: BRANCH   3  28
DOCKED: ATOM     28  O   UNL d   1      17.305  -1.952 -13.104 -0.00 +0.08    -0.278 OA
DOCKED: BRANCH  28  29
DOCKED: ATOM     29  P   UNL d   1      17.225  -3.356 -13.853 +0.02 -0.12    +0.473 P 
DOCKED: ATOM     30  O   UNL d   1      16.090  -4.228 -13.458 -0.03 +0.06    -0.228 OA
DOCKED: BRANCH  29  31
DOCKED: ATOM     31  O   UNL d   1      17.268  -2.863 -15.375 +0.00 +0.06    -0.303 OA
DOCKED: ATOM     32  H   UNL d   1      17.698  -1.978 -15.406 +0.00 -0.05    +0.222 HD
DOCKED: ENDBRANCH  29  31
DOCKED: BRANCH  29  33
DOCKED: ATOM     33  O   UNL d   1      18.691  -3.937 -13.630 +0.00 +0.07    -0.303 OA
DOCKED: ATOM     34  H   UNL d   1      19.326  -3.184 -13.551 +0.01 -0.05    +0.222 HD
DOCKED: ENDBRANCH  29  33
DOCKED: ENDBRANCH  28  29
DOCKED: ENDBRANCH   3  28
DOCKED: BRANCH   5  35
DOCKED: ATOM     35  O   UNL d   1      16.952   2.582 -12.210 -0.01 +0.14    -0.278 OA
DOCKED: BRANCH  35  36
DOCKED: ATOM     36  P   UNL d   1      17.604   2.145 -10.822 -0.01 -0.23    +0.473 P 
DOCKED: ATOM     37  O   UNL d   1      17.642   3.204  -9.766 -0.10 +0.14    -0.228 OA
DOCKED: BRANCH  36  38
DOCKED: ATOM     38  O   UNL d   1      16.731   0.869 -10.438 -0.06 +0.14    -0.303 OA
DOCKED: ATOM     39  H   UNL d   1      15.841   1.165 -10.149 +0.09 -0.12    +0.222 HD
DOCKED: ENDBRANCH  36  38
DOCKED: BRANCH  36  40
DOCKED: ATOM     40  O   UNL d   1      18.998   1.531 -11.279 -0.01 +0.12    -0.303 OA
DOCKED: ATOM     41  H   UNL d   1      19.023   1.365 -12.248 +0.01 -0.08    +0.222 HD
DOCKED: ENDBRANCH  36  40
DOCKED: ENDBRANCH  35  36
DOCKED: ENDBRANCH   5  35
DOCKED: BRANCH   4  42
DOCKED: ATOM     42  O   UNL d   1      18.203   0.638 -13.984 +0.00 +0.09    -0.278 OA
DOCKED: BRANCH  42  43
DOCKED: ATOM     43  P   UNL d   1      19.600  -0.111 -13.807 -0.00 -0.12    +0.473 P 
DOCKED: ATOM     44  O   UNL d   1      20.839   0.704 -13.950 -0.00 +0.05    -0.228 OA
DOCKED: BRANCH  43  45
DOCKED: ATOM     45  O   UNL d   1      19.443  -0.812 -12.387 -0.00 +0.08    -0.303 OA
DOCKED: ATOM     46  H   UNL d   1      18.625  -0.525 -11.935 +0.02 -0.07    +0.222 HD
DOCKED: ENDBRANCH  43  45
DOCKED: BRANCH  43  47
DOCKED: ATOM     47  O   UNL d   1      19.475  -1.361 -14.803 +0.00 +0.07    -0.303 OA
DOCKED: ATOM     48  H   UNL d   1      19.008  -2.091 -14.346 +0.00 -0.05    +0.222 HD
DOCKED: ENDBRANCH  43  47
DOCKED: ENDBRANCH  42  43
DOCKED: ENDBRANCH   4  42
DOCKED: TORSDOF 24
DOCKED: TER
DOCKED: ENDMDL
________________________________________________________________________________


	BEGINNING GENETIC ALGORITHM DOCKING 82 of 100
Run: 82 Seed: 410379866 379714153 [ Run 82 of 100 GA/GALS ]
Beginning LAMARCKIAN GENETIC ALGORITHM (LGA), with a maximum of 25000000 energy evaluations.

Final-Value: -19.728


	FINAL GENETIC ALGORITHM DOCKED STATE
	_______________________________________________


Detailed state:  trans 8.403 -12.478 -7.116 quatxyzw -0.537434 -0.833784 0.048900 -0.116524 center 0.035 0.082 -0.065 ntor 24 59.6369 -37.0563 67.1470 65.2640 34.2369 -126.7139 -23.4253 -111.6438 143.5322 20.7591 122.4535 140.5996 -172.4899 129.5879 -54.6325 -70.4173 -179.9157 -154.3894 20.1739 -8.3419 165.9512 4.6472 6.3606 10.0493
State:	  8.403 -12.478  -7.116  -0.541 -0.840  0.049 -166.617     59.64  -37.06   67.15   65.26   34.24 -126.71  -23.43 -111.64  143.53   20.76  122.45  140.60 -172.49  129.59  -54.63  -70.42 -179.92 -154.39   20.17   -8.34  165.95    4.65    6.36   10.05

DOCKED: MODEL       82
DOCKED: USER    Run = 82
DOCKED: USER    DPF = D:/Protein_go_brrr/autodock/final/AncMH_nat/IHP/dock.dpf
DOCKED: USER  
DOCKED: USER    Estimated Free Energy of Binding    =   +2.12 kcal/mol  [=(1)+(2)+(3)-(4)]
DOCKED: USER    
DOCKED: USER    (1) Final Intermolecular Energy     =   -5.04 kcal/mol
DOCKED: USER        vdW + Hbond + desolv Energy     =   -4.93 kcal/mol
DOCKED: USER        Electrostatic Energy            =   -0.10 kcal/mol
DOCKED: USER    (2) Final Total Internal Energy     =  -14.69 kcal/mol
DOCKED: USER    (3) Torsional Free Energy           =   +7.16 kcal/mol
DOCKED: USER    (4) Unbound System's Energy  [=(2)] =  -14.69 kcal/mol
DOCKED: USER    
DOCKED: USER    
DOCKED: USER    NEWDPF move IHP_ideal_opt.pdbqt
DOCKED: USER    NEWDPF about 0.035000 0.082000 -0.065000
DOCKED: USER    NEWDPF tran0 8.403483 -12.477614 -7.115732
DOCKED: USER    NEWDPF quaternion0 -0.537434 -0.833784 0.048900 -0.116524
DOCKED: USER    NEWDPF axisangle0 -0.541120 -0.839503 0.049235 -166.616946
DOCKED: USER    NEWDPF quat0 -0.541120 -0.839503 0.049235 -166.616946
DOCKED: USER    NEWDPF dihe0 59.64 -37.06 67.15 65.26 34.24 -126.71 -23.43 -111.64 143.53 20.76 122.45 140.60 -172.49 129.59 -54.63 -70.42 -179.92 -154.39 20.17 -8.34 165.95 4.65 6.36 10.05 
DOCKED: USER  keepresnum = 1 
DOCKED: USER  
DOCKED: REMARK  24 active torsions:
DOCKED: REMARK  status: ('A' for Active; 'I' for Inactive)
DOCKED: REMARK    1  A    between atoms: C_1  and  O_7 
DOCKED: REMARK    2  A    between atoms: C_2  and  O_12 
DOCKED: REMARK    3  A    between atoms: C_3  and  O_17 
DOCKED: REMARK    4  A    between atoms: C_4  and  O_22 
DOCKED: REMARK    5  A    between atoms: C_5  and  O_27 
DOCKED: REMARK    6  A    between atoms: C_6  and  O_32 
DOCKED: REMARK    7  A    between atoms: O_7  and  P_8 
DOCKED: REMARK    8  A    between atoms: P_8  and  O_10 
DOCKED: REMARK    9  A    between atoms: P_8  and  O_11 
DOCKED: REMARK   10  A    between atoms: O_12  and  P_13 
DOCKED: REMARK   11  A    between atoms: P_13  and  O_15 
DOCKED: REMARK   12  A    between atoms: P_13  and  O_16 
DOCKED: REMARK   13  A    between atoms: O_17  and  P_18 
DOCKED: REMARK   14  A    between atoms: P_18  and  O_20 
DOCKED: REMARK   15  A    between atoms: P_18  and  O_21 
DOCKED: REMARK   16  A    between atoms: O_22  and  P_23 
DOCKED: REMARK   17  A    between atoms: P_23  and  O_25 
DOCKED: REMARK   18  A    between atoms: P_23  and  O_26 
DOCKED: REMARK   19  A    between atoms: O_27  and  P_28 
DOCKED: REMARK   20  A    between atoms: P_28  and  O_30 
DOCKED: REMARK   21  A    between atoms: P_28  and  O_31 
DOCKED: REMARK   22  A    between atoms: O_32  and  P_33 
DOCKED: REMARK   23  A    between atoms: P_33  and  O_35 
DOCKED: REMARK   24  A    between atoms: P_33  and  O_36 
DOCKED: USER                              x       y       z     vdW  Elec       q    Type
DOCKED: USER                           _______ _______ _______ _____ _____    ______ ____
DOCKED: ROOT
DOCKED: ATOM      1  C   UNL d   1       6.927 -11.677  -7.520 -0.15 -0.02    +0.194 C 
DOCKED: ATOM      2  C   UNL d   1       6.800 -13.161  -7.174 -0.06 -0.02    +0.194 C 
DOCKED: ATOM      3  C   UNL d   1       7.911 -13.991  -7.821 -0.01 -0.03    +0.194 C 
DOCKED: ATOM      4  C   UNL d   1       9.310 -13.450  -7.536 -0.04 -0.03    +0.194 C 
DOCKED: ATOM      5  C   UNL d   1       9.452 -11.949  -7.759 -0.10 -0.05    +0.194 C 
DOCKED: ATOM      6  C   UNL d   1       8.308 -11.124  -7.165 -0.18 -0.05    +0.194 C 
DOCKED: ENDROOT
DOCKED: BRANCH   1   7
DOCKED: ATOM      7  O   UNL d   1       5.967 -10.954  -6.746 -0.24 -0.01    -0.278 OA
DOCKED: BRANCH   7   8
DOCKED: ATOM      8  P   UNL d   1       4.625 -10.468  -7.463 -0.21 +0.06    +0.473 P 
DOCKED: ATOM      9  O   UNL d   1       4.396  -8.997  -7.442 -0.94 -0.02    -0.228 OA
DOCKED: BRANCH   8  10
DOCKED: ATOM     10  O   UNL d   1       4.736 -11.066  -8.938 -0.45 -0.05    -0.303 OA
DOCKED: ATOM     11  H   UNL d   1       5.064 -10.377  -9.546 +0.11 -0.00    +0.222 HD
DOCKED: ENDBRANCH   8  10
DOCKED: BRANCH   8  12
DOCKED: ATOM     12  O   UNL d   1       3.472 -11.358  -6.828 -0.53 -0.04    -0.303 OA
DOCKED: ATOM     13  H   UNL d   1       3.395 -12.245  -7.247 +0.10 -0.03    +0.222 HD
DOCKED: ENDBRANCH   8  12
DOCKED: ENDBRANCH   7   8
DOCKED: ENDBRANCH   1   7
DOCKED: BRANCH   2  14
DOCKED: ATOM     14  O   UNL d   1       6.883 -13.317  -5.752 -0.09 +0.01    -0.278 OA
DOCKED: BRANCH  14  15
DOCKED: ATOM     15  P   UNL d   1       5.651 -14.051  -5.039 -0.07 -0.02    +0.473 P 
DOCKED: ATOM     16  O   UNL d   1       5.678 -14.112  -3.544 -0.15 -0.05    -0.228 OA
DOCKED: BRANCH  15  17
DOCKED: ATOM     17  O   UNL d   1       4.369 -13.291  -5.603 -0.35 +0.06    -0.303 OA
DOCKED: ATOM     18  H   UNL d   1       4.582 -12.366  -5.834 +0.09 +0.04    +0.222 HD
DOCKED: ENDBRANCH  15  17
DOCKED: BRANCH  15  19
DOCKED: ATOM     19  O   UNL d   1       5.542 -15.454  -5.781 -0.04 +0.08    -0.303 OA
DOCKED: ATOM     20  H   UNL d   1       6.272 -15.585  -6.413 +0.03 -0.04    +0.222 HD
DOCKED: ENDBRANCH  15  19
DOCKED: ENDBRANCH  14  15
DOCKED: ENDBRANCH   2  14
DOCKED: BRANCH   6  21
DOCKED: ATOM     21  O   UNL d   1       8.398  -9.822  -7.738 -0.22 +0.07    -0.278 OA
DOCKED: BRANCH  21  22
DOCKED: ATOM     22  P   UNL d   1       8.200  -9.634  -9.310 -0.13 -0.09    +0.473 P 
DOCKED: ATOM     23  O   UNL d   1       8.475 -10.799 -10.200 -0.06 +0.04    -0.228 OA
DOCKED: BRANCH  22  24
DOCKED: ATOM     24  O   UNL d   1       6.713  -9.073  -9.385 -0.23 +0.03    -0.303 OA
DOCKED: ATOM     25  H   UNL d   1       6.196  -9.466  -8.637 +0.13 -0.02    +0.222 HD
DOCKED: ENDBRANCH  22  24
DOCKED: BRANCH  22  26
DOCKED: ATOM     26  O   UNL d   1       9.066  -8.314  -9.592 -0.27 +0.09    -0.303 OA
DOCKED: ATOM     27  H   UNL d   1       9.994  -8.475  -9.324 -0.04 -0.15    +0.222 HD
DOCKED: ENDBRANCH  22  26
DOCKED: ENDBRANCH  21  22
DOCKED: ENDBRANCH   6  21
DOCKED: BRANCH   3  28
DOCKED: ATOM     28  O   UNL d   1       7.879 -15.284  -7.230 +0.00 +0.04    -0.278 OA
DOCKED: BRANCH  28  29
DOCKED: ATOM     29  P   UNL d   1       7.517 -16.562  -8.109 +0.01 -0.06    +0.473 P 
DOCKED: ATOM     30  O   UNL d   1       6.098 -16.998  -8.051 +0.00 +0.04    -0.228 OA
DOCKED: BRANCH  29  31
DOCKED: ATOM     31  O   UNL d   1       8.074 -16.088  -9.532 +0.00 +0.04    -0.303 OA
DOCKED: ATOM     32  H   UNL d   1       8.817 -15.459  -9.385 +0.00 -0.03    +0.222 HD
DOCKED: ENDBRANCH  29  31
DOCKED: BRANCH  29  33
DOCKED: ATOM     33  O   UNL d   1       8.614 -17.615  -7.635 +0.00 +0.03    -0.303 OA
DOCKED: ATOM     34  H   UNL d   1       9.509 -17.204  -7.715 +0.00 -0.02    +0.222 HD
DOCKED: ENDBRANCH  29  33
DOCKED: ENDBRANCH  28  29
DOCKED: ENDBRANCH   3  28
DOCKED: BRANCH   5  35
DOCKED: ATOM     35  O   UNL d   1      10.644 -11.568  -7.076 -0.12 +0.10    -0.278 OA
DOCKED: BRANCH  35  36
DOCKED: ATOM     36  P   UNL d   1      11.676 -10.561  -7.759 -0.15 -0.21    +0.473 P 
DOCKED: ATOM     37  O   UNL d   1      13.118 -10.942  -7.648 -0.10 +0.08    -0.228 OA
DOCKED: BRANCH  36  38
DOCKED: ATOM     38  O   UNL d   1      11.129 -10.499  -9.253 -0.08 +0.14    -0.303 OA
DOCKED: ATOM     39  H   UNL d   1      10.303  -9.969  -9.271 +0.08 -0.10    +0.222 HD
DOCKED: ENDBRANCH  36  38
DOCKED: BRANCH  36  40
DOCKED: ATOM     40  O   UNL d   1      11.249  -9.162  -7.136 -0.21 +0.17    -0.303 OA
DOCKED: ATOM     41  H   UNL d   1      10.328  -9.182  -6.792 -0.26 -0.11    +0.222 HD
DOCKED: ENDBRANCH  36  40
DOCKED: ENDBRANCH  35  36
DOCKED: ENDBRANCH   5  35
DOCKED: BRANCH   4  42
DOCKED: ATOM     42  O   UNL d   1      10.199 -14.097  -8.453 -0.00 +0.04    -0.278 OA
DOCKED: BRANCH  42  43
DOCKED: ATOM     43  P   UNL d   1      11.089 -15.315  -7.933 +0.00 -0.06    +0.473 P 
DOCKED: ATOM     44  O   UNL d   1      12.551 -15.080  -7.777 -0.00 +0.03    -0.228 OA
DOCKED: BRANCH  43  45
DOCKED: ATOM     45  O   UNL d   1      10.350 -15.738  -6.589 -0.00 +0.04    -0.303 OA
DOCKED: ATOM     46  H   UNL d   1       9.388 -15.846  -6.728 +0.01 -0.03    +0.222 HD
DOCKED: ENDBRANCH  43  45
DOCKED: BRANCH  43  47
DOCKED: ATOM     47  O   UNL d   1      10.682 -16.512  -8.919 -0.00 +0.03    -0.303 OA
DOCKED: ATOM     48  H   UNL d   1       9.716 -16.484  -9.079 +0.00 -0.02    +0.222 HD
DOCKED: ENDBRANCH  43  47
DOCKED: ENDBRANCH  42  43
DOCKED: ENDBRANCH   4  42
DOCKED: TORSDOF 24
DOCKED: TER
DOCKED: ENDMDL
________________________________________________________________________________


	BEGINNING GENETIC ALGORITHM DOCKING 83 of 100
Run: 83 Seed: 467276839 2001682444 [ Run 83 of 100 GA/GALS ]
Beginning LAMARCKIAN GENETIC ALGORITHM (LGA), with a maximum of 25000000 energy evaluations.

Final-Value: -16.539


	FINAL GENETIC ALGORITHM DOCKED STATE
	_______________________________________________


Detailed state:  trans 1.519 19.285 9.485 quatxyzw 0.374101 -0.365069 0.795511 0.306488 center 0.035 0.082 -0.065 ntor 24 156.8927 74.8832 47.1664 49.3206 -88.0189 110.0483 -114.9829 67.5986 34.4454 179.8889 -5.7832 96.7158 -45.3743 175.2664 75.6034 13.7783 -75.2790 -180.0000 14.6394 -29.3438 -39.5880 -38.9485 -153.2182 20.2528
State:	  1.519  19.285   9.485   0.393 -0.384  0.836 144.305    156.89   74.88   47.17   49.32  -88.02  110.05 -114.98   67.60   34.45  179.89   -5.78   96.72  -45.37  175.27   75.60   13.78  -75.28 -180.00   14.64  -29.34  -39.59  -38.95 -153.22   20.25

DOCKED: MODEL       83
DOCKED: USER    Run = 83
DOCKED: USER    DPF = D:/Protein_go_brrr/autodock/final/AncMH_nat/IHP/dock.dpf
DOCKED: USER  
DOCKED: USER    Estimated Free Energy of Binding    =   +3.08 kcal/mol  [=(1)+(2)+(3)-(4)]
DOCKED: USER    
DOCKED: USER    (1) Final Intermolecular Energy     =   -4.08 kcal/mol
DOCKED: USER        vdW + Hbond + desolv Energy     =   -3.38 kcal/mol
DOCKED: USER        Electrostatic Energy            =   -0.70 kcal/mol
DOCKED: USER    (2) Final Total Internal Energy     =  -12.46 kcal/mol
DOCKED: USER    (3) Torsional Free Energy           =   +7.16 kcal/mol
DOCKED: USER    (4) Unbound System's Energy  [=(2)] =  -12.46 kcal/mol
DOCKED: USER    
DOCKED: USER    
DOCKED: USER    NEWDPF move IHP_ideal_opt.pdbqt
DOCKED: USER    NEWDPF about 0.035000 0.082000 -0.065000
DOCKED: USER    NEWDPF tran0 1.519135 19.284511 9.484708
DOCKED: USER    NEWDPF quaternion0 0.374101 -0.365069 0.795511 0.306488
DOCKED: USER    NEWDPF axisangle0 0.393015 -0.383526 0.835731 144.304619
DOCKED: USER    NEWDPF quat0 0.393015 -0.383526 0.835731 144.304619
DOCKED: USER    NEWDPF dihe0 156.89 74.88 47.17 49.32 -88.02 110.05 -114.98 67.60 34.45 179.89 -5.78 96.72 -45.37 175.27 75.60 13.78 -75.28 -180.00 14.64 -29.34 -39.59 -38.95 -153.22 20.25 
DOCKED: USER  keepresnum = 1 
DOCKED: USER  
DOCKED: REMARK  24 active torsions:
DOCKED: REMARK  status: ('A' for Active; 'I' for Inactive)
DOCKED: REMARK    1  A    between atoms: C_1  and  O_7 
DOCKED: REMARK    2  A    between atoms: C_2  and  O_12 
DOCKED: REMARK    3  A    between atoms: C_3  and  O_17 
DOCKED: REMARK    4  A    between atoms: C_4  and  O_22 
DOCKED: REMARK    5  A    between atoms: C_5  and  O_27 
DOCKED: REMARK    6  A    between atoms: C_6  and  O_32 
DOCKED: REMARK    7  A    between atoms: O_7  and  P_8 
DOCKED: REMARK    8  A    between atoms: P_8  and  O_10 
DOCKED: REMARK    9  A    between atoms: P_8  and  O_11 
DOCKED: REMARK   10  A    between atoms: O_12  and  P_13 
DOCKED: REMARK   11  A    between atoms: P_13  and  O_15 
DOCKED: REMARK   12  A    between atoms: P_13  and  O_16 
DOCKED: REMARK   13  A    between atoms: O_17  and  P_18 
DOCKED: REMARK   14  A    between atoms: P_18  and  O_20 
DOCKED: REMARK   15  A    between atoms: P_18  and  O_21 
DOCKED: REMARK   16  A    between atoms: O_22  and  P_23 
DOCKED: REMARK   17  A    between atoms: P_23  and  O_25 
DOCKED: REMARK   18  A    between atoms: P_23  and  O_26 
DOCKED: REMARK   19  A    between atoms: O_27  and  P_28 
DOCKED: REMARK   20  A    between atoms: P_28  and  O_30 
DOCKED: REMARK   21  A    between atoms: P_28  and  O_31 
DOCKED: REMARK   22  A    between atoms: O_32  and  P_33 
DOCKED: REMARK   23  A    between atoms: P_33  and  O_35 
DOCKED: REMARK   24  A    between atoms: P_33  and  O_36 
DOCKED: USER                              x       y       z     vdW  Elec       q    Type
DOCKED: USER                           _______ _______ _______ _____ _____    ______ ____
DOCKED: ROOT
DOCKED: ATOM      1  C   UNL d   1       1.310  18.538  11.028 -0.02 +0.08    +0.194 C 
DOCKED: ATOM      2  C   UNL d   1       1.499  20.055  11.049 -0.00 +0.07    +0.194 C 
DOCKED: ATOM      3  C   UNL d   1       2.607  20.501  10.091 +0.01 +0.06    +0.194 C 
DOCKED: ATOM      4  C   UNL d   1       2.430  19.960   8.675 -0.01 +0.08    +0.194 C 
DOCKED: ATOM      5  C   UNL d   1       2.125  18.469   8.613 -0.04 +0.08    +0.194 C 
DOCKED: ATOM      6  C   UNL d   1       1.061  18.013   9.614 -0.05 +0.09    +0.194 C 
DOCKED: ENDROOT
DOCKED: BRANCH   1   7
DOCKED: ATOM      7  O   UNL d   1       0.154  18.222  11.809 -0.23 -0.22    -0.278 OA
DOCKED: BRANCH   7   8
DOCKED: ATOM      8  P   UNL d   1       0.366  17.524  13.230 -0.02 +0.17    +0.473 P 
DOCKED: ATOM      9  O   UNL d   1       1.783  17.400  13.668 +0.00 -0.04    -0.228 OA
DOCKED: BRANCH   8  10
DOCKED: ATOM     10  O   UNL d   1      -0.525  18.396  14.226 -0.03 -0.12    -0.303 OA
DOCKED: ATOM     11  H   UNL d   1      -0.949  19.123  13.733 +0.01 +0.14    +0.222 HD
DOCKED: ENDBRANCH   8  10
DOCKED: BRANCH   8  12
DOCKED: ATOM     12  O   UNL d   1      -0.456  16.167  13.150 -0.05 -0.07    -0.303 OA
DOCKED: ATOM     13  H   UNL d   1      -0.510  15.802  12.238 +0.05 +0.04    +0.222 HD
DOCKED: ENDBRANCH   8  12
DOCKED: ENDBRANCH   7   8
DOCKED: ENDBRANCH   1   7
DOCKED: BRANCH   2  14
DOCKED: ATOM     14  O   UNL d   1       0.274  20.685  10.654 -0.02 -0.16    -0.278 OA
DOCKED: BRANCH  14  15
DOCKED: ATOM     15  P   UNL d   1      -0.623  21.305  11.827 -0.04 +0.31    +0.473 P 
DOCKED: ATOM     16  O   UNL d   1      -2.067  20.913  11.848 -0.39 -0.38    -0.228 OA
DOCKED: BRANCH  15  17
DOCKED: ATOM     17  O   UNL d   1       0.147  20.897  13.160 -0.01 -0.12    -0.303 OA
DOCKED: ATOM     18  H   UNL d   1       0.377  19.948  13.157 +0.01 +0.09    +0.222 HD
DOCKED: ENDBRANCH  15  17
DOCKED: BRANCH  15  19
DOCKED: ATOM     19  O   UNL d   1      -0.338  22.869  11.759 +0.00 -0.09    -0.303 OA
DOCKED: ATOM     20  H   UNL d   1       0.407  23.074  11.164 +0.00 +0.05    +0.222 HD
DOCKED: ENDBRANCH  15  19
DOCKED: ENDBRANCH  14  15
DOCKED: ENDBRANCH   2  14
DOCKED: BRANCH   6  21
DOCKED: ATOM     21  O   UNL d   1       1.136  16.591   9.676 -0.07 -0.06    -0.278 OA
DOCKED: BRANCH  21  22
DOCKED: ATOM     22  P   UNL d   1      -0.201  15.732   9.808 -0.16 +0.03    +0.473 P 
DOCKED: ATOM     23  O   UNL d   1      -0.686  14.992   8.607 -0.28 +0.03    -0.228 OA
DOCKED: BRANCH  22  24
DOCKED: ATOM     24  O   UNL d   1       0.123  14.817  11.069 -0.09 +0.18    -0.303 OA
DOCKED: ATOM     25  H   UNL d   1      -0.417  13.989  10.997 -0.47 -0.48    +0.222 HD
DOCKED: ENDBRANCH  22  24
DOCKED: BRANCH  22  26
DOCKED: ATOM     26  O   UNL d   1      -1.217  16.805  10.430 -0.50 -0.40    -0.303 OA
DOCKED: ATOM     27  H   UNL d   1      -0.903  17.068  11.319 +0.05 +0.30    +0.222 HD
DOCKED: ENDBRANCH  22  26
DOCKED: ENDBRANCH  21  22
DOCKED: ENDBRANCH   6  21
DOCKED: BRANCH   3  28
DOCKED: ATOM     28  O   UNL d   1       2.523  21.915   9.969 +0.01 -0.07    -0.278 OA
DOCKED: BRANCH  28  29
DOCKED: ATOM     29  P   UNL d   1       2.957  22.855  11.179 +0.01 +0.07    +0.473 P 
DOCKED: ATOM     30  O   UNL d   1       3.166  22.168  12.480 +0.00 -0.03    -0.228 OA
DOCKED: BRANCH  29  31
DOCKED: ATOM     31  O   UNL d   1       4.227  23.579  10.529 +0.00 -0.04    -0.303 OA
DOCKED: ATOM     32  H   UNL d   1       4.914  22.899  10.340 +0.00 +0.03    +0.222 HD
DOCKED: ENDBRANCH  29  31
DOCKED: BRANCH  29  33
DOCKED: ATOM     33  O   UNL d   1       1.844  23.992  11.136 +0.00 -0.04    -0.303 OA
DOCKED: ATOM     34  H   UNL d   1       1.430  24.071  12.030 +0.00 +0.03    +0.222 HD
DOCKED: ENDBRANCH  29  33
DOCKED: ENDBRANCH  28  29
DOCKED: ENDBRANCH   3  28
DOCKED: BRANCH   5  35
DOCKED: ATOM     35  O   UNL d   1       1.601  18.235   7.307 -0.09 -0.14    -0.278 OA
DOCKED: BRANCH  35  36
DOCKED: ATOM     36  P   UNL d   1       0.948  19.430   6.476 -0.09 +0.27    +0.473 P 
DOCKED: ATOM     37  O   UNL d   1       0.282  20.493   7.290 -0.03 -0.11    -0.228 OA
DOCKED: BRANCH  36  38
DOCKED: ATOM     38  O   UNL d   1       2.187  19.944   5.617 -0.66 -0.38    -0.303 OA
DOCKED: ATOM     39  H   UNL d   1       3.005  19.867   6.154 +0.03 +0.34    +0.222 HD
DOCKED: ENDBRANCH  36  38
DOCKED: BRANCH  36  40
DOCKED: ATOM     40  O   UNL d   1       0.045  18.656   5.420 -0.14 -0.15    -0.303 OA
DOCKED: ATOM     41  H   UNL d   1      -0.830  19.089   5.303 +0.07 +0.09    +0.222 HD
DOCKED: ENDBRANCH  36  40
DOCKED: ENDBRANCH  35  36
DOCKED: ENDBRANCH   5  35
DOCKED: BRANCH   4  42
DOCKED: ATOM     42  O   UNL d   1       3.674  20.164   7.995 -0.03 -0.16    -0.278 OA
DOCKED: BRANCH  42  43
DOCKED: ATOM     43  P   UNL d   1       3.898  21.521   7.187 -0.03 +0.31    +0.473 P 
DOCKED: ATOM     44  O   UNL d   1       4.480  21.418   5.820 -0.12 -0.34    -0.228 OA
DOCKED: BRANCH  43  45
DOCKED: ATOM     45  O   UNL d   1       2.458  22.196   7.233 -0.01 -0.13    -0.303 OA
DOCKED: ATOM     46  H   UNL d   1       1.854  21.796   6.576 +0.02 +0.11    +0.222 HD
DOCKED: ENDBRANCH  43  45
DOCKED: BRANCH  43  47
DOCKED: ATOM     47  O   UNL d   1       4.718  22.431   8.221 +0.00 -0.10    -0.303 OA
DOCKED: ATOM     48  H   UNL d   1       4.090  22.877   8.826 +0.00 +0.05    +0.222 HD
DOCKED: ENDBRANCH  43  47
DOCKED: ENDBRANCH  42  43
DOCKED: ENDBRANCH   4  42
DOCKED: TORSDOF 24
DOCKED: TER
DOCKED: ENDMDL
________________________________________________________________________________


	BEGINNING GENETIC ALGORITHM DOCKING 84 of 100
Run: 84 Seed: 727962269 2004301216 [ Run 84 of 100 GA/GALS ]
Beginning LAMARCKIAN GENETIC ALGORITHM (LGA), with a maximum of 25000000 energy evaluations.

Final-Value: -17.194


	FINAL GENETIC ALGORITHM DOCKED STATE
	_______________________________________________


Detailed state:  trans 6.142 -12.967 -10.107 quatxyzw -0.289166 0.078388 -0.944973 0.131397 center 0.035 0.082 -0.065 ntor 24 -140.5948 -8.3102 61.6921 146.9117 24.5620 -145.5181 16.4544 -131.2543 22.5494 45.5046 146.9700 -165.0859 86.6908 -24.2114 -14.7586 -103.5018 1.5689 122.1055 -11.0497 -31.2773 153.9959 27.0147 168.5559 -17.8541
State:	  6.142 -12.967 -10.107  -0.292  0.079 -0.953 164.899   -140.59   -8.31   61.69  146.91   24.56 -145.52   16.45 -131.25   22.55   45.50  146.97 -165.09   86.69  -24.21  -14.76 -103.50    1.57  122.11  -11.05  -31.28  154.00   27.01  168.56  -17.85

DOCKED: MODEL       84
DOCKED: USER    Run = 84
DOCKED: USER    DPF = D:/Protein_go_brrr/autodock/final/AncMH_nat/IHP/dock.dpf
DOCKED: USER  
DOCKED: USER    Estimated Free Energy of Binding    =   +2.53 kcal/mol  [=(1)+(2)+(3)-(4)]
DOCKED: USER    
DOCKED: USER    (1) Final Intermolecular Energy     =   -4.63 kcal/mol
DOCKED: USER        vdW + Hbond + desolv Energy     =   -4.57 kcal/mol
DOCKED: USER        Electrostatic Energy            =   -0.05 kcal/mol
DOCKED: USER    (2) Final Total Internal Energy     =  -12.57 kcal/mol
DOCKED: USER    (3) Torsional Free Energy           =   +7.16 kcal/mol
DOCKED: USER    (4) Unbound System's Energy  [=(2)] =  -12.57 kcal/mol
DOCKED: USER    
DOCKED: USER    
DOCKED: USER    NEWDPF move IHP_ideal_opt.pdbqt
DOCKED: USER    NEWDPF about 0.035000 0.082000 -0.065000
DOCKED: USER    NEWDPF tran0 6.142101 -12.966796 -10.107172
DOCKED: USER    NEWDPF quaternion0 -0.289166 0.078388 -0.944973 0.131397
DOCKED: USER    NEWDPF axisangle0 -0.291695 0.079074 -0.953237 164.899310
DOCKED: USER    NEWDPF quat0 -0.291695 0.079074 -0.953237 164.899310
DOCKED: USER    NEWDPF dihe0 -140.59 -8.31 61.69 146.91 24.56 -145.52 16.45 -131.25 22.55 45.50 146.97 -165.09 86.69 -24.21 -14.76 -103.50 1.57 122.11 -11.05 -31.28 154.00 27.01 168.56 -17.85 
DOCKED: USER  keepresnum = 1 
DOCKED: USER  
DOCKED: REMARK  24 active torsions:
DOCKED: REMARK  status: ('A' for Active; 'I' for Inactive)
DOCKED: REMARK    1  A    between atoms: C_1  and  O_7 
DOCKED: REMARK    2  A    between atoms: C_2  and  O_12 
DOCKED: REMARK    3  A    between atoms: C_3  and  O_17 
DOCKED: REMARK    4  A    between atoms: C_4  and  O_22 
DOCKED: REMARK    5  A    between atoms: C_5  and  O_27 
DOCKED: REMARK    6  A    between atoms: C_6  and  O_32 
DOCKED: REMARK    7  A    between atoms: O_7  and  P_8 
DOCKED: REMARK    8  A    between atoms: P_8  and  O_10 
DOCKED: REMARK    9  A    between atoms: P_8  and  O_11 
DOCKED: REMARK   10  A    between atoms: O_12  and  P_13 
DOCKED: REMARK   11  A    between atoms: P_13  and  O_15 
DOCKED: REMARK   12  A    between atoms: P_13  and  O_16 
DOCKED: REMARK   13  A    between atoms: O_17  and  P_18 
DOCKED: REMARK   14  A    between atoms: P_18  and  O_20 
DOCKED: REMARK   15  A    between atoms: P_18  and  O_21 
DOCKED: REMARK   16  A    between atoms: O_22  and  P_23 
DOCKED: REMARK   17  A    between atoms: P_23  and  O_25 
DOCKED: REMARK   18  A    between atoms: P_23  and  O_26 
DOCKED: REMARK   19  A    between atoms: O_27  and  P_28 
DOCKED: REMARK   20  A    between atoms: P_28  and  O_30 
DOCKED: REMARK   21  A    between atoms: P_28  and  O_31 
DOCKED: REMARK   22  A    between atoms: O_32  and  P_33 
DOCKED: REMARK   23  A    between atoms: P_33  and  O_35 
DOCKED: REMARK   24  A    between atoms: P_33  and  O_36 
DOCKED: USER                              x       y       z     vdW  Elec       q    Type
DOCKED: USER                           _______ _______ _______ _____ _____    ______ ____
DOCKED: ROOT
DOCKED: ATOM      1  C   UNL d   1       5.819 -12.043  -8.684 -0.11 -0.01    +0.194 C 
DOCKED: ATOM      2  C   UNL d   1       6.857 -11.448  -9.636 -0.08 -0.02    +0.194 C 
DOCKED: ATOM      3  C   UNL d   1       7.822 -12.513 -10.160 -0.02 -0.03    +0.194 C 
DOCKED: ATOM      4  C   UNL d   1       7.112 -13.723 -10.764 -0.01 -0.02    +0.194 C 
DOCKED: ATOM      5  C   UNL d   1       5.990 -14.280  -9.897 -0.02 -0.02    +0.194 C 
DOCKED: ATOM      6  C   UNL d   1       5.061 -13.208  -9.322 -0.02 -0.02    +0.194 C 
DOCKED: ENDROOT
DOCKED: BRANCH   1   7
DOCKED: ATOM      7  O   UNL d   1       4.860 -11.028  -8.378 -0.65 -0.03    -0.278 OA
DOCKED: BRANCH   7   8
DOCKED: ATOM      8  P   UNL d   1       4.435 -10.820  -6.852 -0.27 +0.08    +0.473 P 
DOCKED: ATOM      9  O   UNL d   1       4.306  -9.402  -6.420 -0.82 -0.06    -0.228 OA
DOCKED: BRANCH   8  10
DOCKED: ATOM     10  O   UNL d   1       3.075 -11.644  -6.713 -0.43 +0.00    -0.303 OA
DOCKED: ATOM     11  H   UNL d   1       3.244 -12.587  -6.900 +0.08 -0.09    +0.222 HD
DOCKED: ENDBRANCH   8  10
DOCKED: BRANCH   8  12
DOCKED: ATOM     12  O   UNL d   1       5.450 -11.711  -6.015 -0.19 -0.06    -0.303 OA
DOCKED: ATOM     13  H   UNL d   1       5.483 -12.646  -6.318 +0.09 +0.00    +0.222 HD
DOCKED: ENDBRANCH   8  12
DOCKED: ENDBRANCH   7   8
DOCKED: ENDBRANCH   1   7
DOCKED: BRANCH   2  14
DOCKED: ATOM     14  O   UNL d   1       6.181 -10.855 -10.752 -0.07 +0.02    -0.278 OA
DOCKED: BRANCH  14  15
DOCKED: ATOM     15  P   UNL d   1       6.001  -9.264 -10.717 -0.18 -0.04    +0.473 P 
DOCKED: ATOM     16  O   UNL d   1       7.071  -8.482 -10.022 -0.29 +0.02    -0.228 OA
DOCKED: BRANCH  15  17
DOCKED: ATOM     17  O   UNL d   1       5.835  -8.859 -12.249 -0.16 +0.02    -0.303 OA
DOCKED: ATOM     18  H   UNL d   1       6.372  -9.436 -12.825 +0.06 -0.02    +0.222 HD
DOCKED: ENDBRANCH  15  17
DOCKED: BRANCH  15  19
DOCKED: ATOM     19  O   UNL d   1       4.524  -9.044 -10.167 -0.20 +0.06    -0.303 OA
DOCKED: ATOM     20  H   UNL d   1       4.502  -9.021  -9.193 -0.24 -0.05    +0.222 HD
DOCKED: ENDBRANCH  15  19
DOCKED: ENDBRANCH  14  15
DOCKED: ENDBRANCH   2  14
DOCKED: BRANCH   6  21
DOCKED: ATOM     21  O   UNL d   1       4.304 -13.832  -8.287 -0.09 +0.08    -0.278 OA
DOCKED: BRANCH  21  22
DOCKED: ATOM     22  P   UNL d   1       5.053 -14.647  -7.139 -0.05 -0.14    +0.473 P 
DOCKED: ATOM     23  O   UNL d   1       6.522 -14.448  -6.977 -0.02 +0.03    -0.228 OA
DOCKED: BRANCH  22  24
DOCKED: ATOM     24  O   UNL d   1       4.184 -14.277  -5.858 -0.16 +0.22    -0.303 OA
DOCKED: ATOM     25  H   UNL d   1       3.967 -13.311  -5.901 -0.11 -0.11    +0.222 HD
DOCKED: ENDBRANCH  22  24
DOCKED: BRANCH  22  26
DOCKED: ATOM     26  O   UNL d   1       4.575 -16.147  -7.440 -0.02 +0.10    -0.303 OA
DOCKED: ATOM     27  H   UNL d   1       4.569 -16.295  -8.408 +0.02 -0.06    +0.222 HD
DOCKED: ENDBRANCH  22  26
DOCKED: ENDBRANCH  21  22
DOCKED: ENDBRANCH   6  21
DOCKED: BRANCH   3  28
DOCKED: ATOM     28  O   UNL d   1       8.558 -11.935 -11.231 -0.01 +0.04    -0.278 OA
DOCKED: BRANCH  28  29
DOCKED: ATOM     29  P   UNL d   1      10.124 -12.191 -11.361 +0.01 -0.09    +0.473 P 
DOCKED: ATOM     30  O   UNL d   1      10.960 -10.975 -11.536 -0.02 +0.06    -0.228 OA
DOCKED: BRANCH  29  31
DOCKED: ATOM     31  O   UNL d   1      10.375 -13.061 -10.042 +0.00 +0.05    -0.303 OA
DOCKED: ATOM     32  H   UNL d   1       9.931 -13.933 -10.151 +0.00 -0.03    +0.222 HD
DOCKED: ENDBRANCH  29  31
DOCKED: BRANCH  29  33
DOCKED: ATOM     33  O   UNL d   1      10.189 -13.282 -12.519 +0.00 +0.04    -0.303 OA
DOCKED: ATOM     34  H   UNL d   1       9.861 -14.145 -12.166 +0.00 -0.03    +0.222 HD
DOCKED: ENDBRANCH  29  33
DOCKED: ENDBRANCH  28  29
DOCKED: ENDBRANCH   3  28
DOCKED: BRANCH   5  35
DOCKED: ATOM     35  O   UNL d   1       5.204 -15.098 -10.761 -0.01 +0.04    -0.278 OA
DOCKED: BRANCH  35  36
DOCKED: ATOM     36  P   UNL d   1       4.484 -14.463 -12.035 -0.03 -0.05    +0.473 P 
DOCKED: ATOM     37  O   UNL d   1       5.331 -13.553 -12.867 -0.02 +0.02    -0.228 OA
DOCKED: BRANCH  36  38
DOCKED: ATOM     38  O   UNL d   1       3.972 -15.762 -12.801 -0.00 +0.03    -0.303 OA
DOCKED: ATOM     39  H   UNL d   1       4.704 -16.413 -12.853 +0.00 -0.02    +0.222 HD
DOCKED: ENDBRANCH  36  38
DOCKED: BRANCH  36  40
DOCKED: ATOM     40  O   UNL d   1       3.162 -13.843 -11.405 -0.63 -0.00    -0.303 OA
DOCKED: ATOM     41  H   UNL d   1       3.143 -13.942 -10.427 +0.05 +0.00    +0.222 HD
DOCKED: ENDBRANCH  36  40
DOCKED: ENDBRANCH  35  36
DOCKED: ENDBRANCH   5  35
DOCKED: BRANCH   4  42
DOCKED: ATOM     42  O   UNL d   1       8.094 -14.756 -10.896 +0.00 +0.03    -0.278 OA
DOCKED: BRANCH  42  43
DOCKED: ATOM     43  P   UNL d   1       8.255 -15.491 -12.303 +0.00 -0.05    +0.473 P 
DOCKED: ATOM     44  O   UNL d   1       9.453 -16.355 -12.494 +0.00 +0.02    -0.228 OA
DOCKED: BRANCH  43  45
DOCKED: ATOM     45  O   UNL d   1       6.869 -16.258 -12.456 +0.00 +0.03    -0.303 OA
DOCKED: ATOM     46  H   UNL d   1       6.140 -15.642 -12.671 +0.00 -0.02    +0.222 HD
DOCKED: ENDBRANCH  43  45
DOCKED: BRANCH  43  47
DOCKED: ATOM     47  O   UNL d   1       8.085 -14.299 -13.361 +0.00 +0.03    -0.303 OA
DOCKED: ATOM     48  H   UNL d   1       8.155 -13.441 -12.894 +0.00 -0.02    +0.222 HD
DOCKED: ENDBRANCH  43  47
DOCKED: ENDBRANCH  42  43
DOCKED: ENDBRANCH   4  42
DOCKED: TORSDOF 24
DOCKED: TER
DOCKED: ENDMDL
________________________________________________________________________________


	BEGINNING GENETIC ALGORITHM DOCKING 85 of 100
Run: 85 Seed: 892436724 608386945 [ Run 85 of 100 GA/GALS ]
Beginning LAMARCKIAN GENETIC ALGORITHM (LGA), with a maximum of 25000000 energy evaluations.

Final-Value: -16.132


	FINAL GENETIC ALGORITHM DOCKED STATE
	_______________________________________________


Detailed state:  trans -8.455 6.998 -13.174 quatxyzw 0.790237 -0.461083 -0.332886 -0.228286 center 0.035 0.082 -0.065 ntor 24 116.7940 67.9506 -97.4738 46.6306 124.8715 169.1526 -16.1175 180.0000 118.7826 -36.7864 2.8461 -145.0953 20.4205 -13.5456 -109.3972 -63.6846 80.0353 -59.7724 0.3798 -24.5143 143.8416 3.0991 -38.1216 4.1851
State:	 -8.455   6.998 -13.174   0.812 -0.474 -0.342 -153.608    116.79   67.95  -97.47   46.63  124.87  169.15  -16.12  180.00  118.78  -36.79    2.85 -145.10   20.42  -13.55 -109.40  -63.68   80.04  -59.77    0.38  -24.51  143.84    3.10  -38.12    4.19

DOCKED: MODEL       85
DOCKED: USER    Run = 85
DOCKED: USER    DPF = D:/Protein_go_brrr/autodock/final/AncMH_nat/IHP/dock.dpf
DOCKED: USER  
DOCKED: USER    Estimated Free Energy of Binding    =   +3.72 kcal/mol  [=(1)+(2)+(3)-(4)]
DOCKED: USER    
DOCKED: USER    (1) Final Intermolecular Energy     =   -3.44 kcal/mol
DOCKED: USER        vdW + Hbond + desolv Energy     =   -3.47 kcal/mol
DOCKED: USER        Electrostatic Energy            =   +0.03 kcal/mol
DOCKED: USER    (2) Final Total Internal Energy     =  -12.69 kcal/mol
DOCKED: USER    (3) Torsional Free Energy           =   +7.16 kcal/mol
DOCKED: USER    (4) Unbound System's Energy  [=(2)] =  -12.69 kcal/mol
DOCKED: USER    
DOCKED: USER    
DOCKED: USER    NEWDPF move IHP_ideal_opt.pdbqt
DOCKED: USER    NEWDPF about 0.035000 0.082000 -0.065000
DOCKED: USER    NEWDPF tran0 -8.455030 6.998423 -13.174303
DOCKED: USER    NEWDPF quaternion0 0.790237 -0.461083 -0.332886 -0.228286
DOCKED: USER    NEWDPF axisangle0 0.811670 -0.473588 -0.341915 -153.607608
DOCKED: USER    NEWDPF quat0 0.811670 -0.473588 -0.341915 -153.607608
DOCKED: USER    NEWDPF dihe0 116.79 67.95 -97.47 46.63 124.87 169.15 -16.12 180.00 118.78 -36.79 2.85 -145.10 20.42 -13.55 -109.40 -63.68 80.04 -59.77 0.38 -24.51 143.84 3.10 -38.12 4.19 
DOCKED: USER  keepresnum = 1 
DOCKED: USER  
DOCKED: REMARK  24 active torsions:
DOCKED: REMARK  status: ('A' for Active; 'I' for Inactive)
DOCKED: REMARK    1  A    between atoms: C_1  and  O_7 
DOCKED: REMARK    2  A    between atoms: C_2  and  O_12 
DOCKED: REMARK    3  A    between atoms: C_3  and  O_17 
DOCKED: REMARK    4  A    between atoms: C_4  and  O_22 
DOCKED: REMARK    5  A    between atoms: C_5  and  O_27 
DOCKED: REMARK    6  A    between atoms: C_6  and  O_32 
DOCKED: REMARK    7  A    between atoms: O_7  and  P_8 
DOCKED: REMARK    8  A    between atoms: P_8  and  O_10 
DOCKED: REMARK    9  A    between atoms: P_8  and  O_11 
DOCKED: REMARK   10  A    between atoms: O_12  and  P_13 
DOCKED: REMARK   11  A    between atoms: P_13  and  O_15 
DOCKED: REMARK   12  A    between atoms: P_13  and  O_16 
DOCKED: REMARK   13  A    between atoms: O_17  and  P_18 
DOCKED: REMARK   14  A    between atoms: P_18  and  O_20 
DOCKED: REMARK   15  A    between atoms: P_18  and  O_21 
DOCKED: REMARK   16  A    between atoms: O_22  and  P_23 
DOCKED: REMARK   17  A    between atoms: P_23  and  O_25 
DOCKED: REMARK   18  A    between atoms: P_23  and  O_26 
DOCKED: REMARK   19  A    between atoms: O_27  and  P_28 
DOCKED: REMARK   20  A    between atoms: P_28  and  O_30 
DOCKED: REMARK   21  A    between atoms: P_28  and  O_31 
DOCKED: REMARK   22  A    between atoms: O_32  and  P_33 
DOCKED: REMARK   23  A    between atoms: P_33  and  O_35 
DOCKED: REMARK   24  A    between atoms: P_33  and  O_36 
DOCKED: USER                              x       y       z     vdW  Elec       q    Type
DOCKED: USER                           _______ _______ _______ _____ _____    ______ ____
DOCKED: ROOT
DOCKED: ATOM      1  C   UNL d   1      -8.083   6.270 -14.696 -0.08 -0.06    +0.194 C 
DOCKED: ATOM      2  C   UNL d   1      -7.788   7.768 -14.590 -0.11 -0.05    +0.194 C 
DOCKED: ATOM      3  C   UNL d   1      -8.919   8.519 -13.884 -0.08 -0.03    +0.194 C 
DOCKED: ATOM      4  C   UNL d   1      -9.297   7.908 -12.537 -0.08 -0.05    +0.194 C 
DOCKED: ATOM      5  C   UNL d   1      -9.488   6.398 -12.572 -0.09 -0.08    +0.194 C 
DOCKED: ATOM      6  C   UNL d   1      -8.389   5.652 -13.331 -0.08 -0.10    +0.194 C 
DOCKED: ENDROOT
DOCKED: BRANCH   1   7
DOCKED: ATOM      7  O   UNL d   1      -6.916   5.621 -15.206 -0.07 +0.11    -0.278 OA
DOCKED: BRANCH   7   8
DOCKED: ATOM      8  P   UNL d   1      -7.047   4.773 -16.554 -0.04 -0.09    +0.473 P 
DOCKED: ATOM      9  O   UNL d   1      -7.219   5.581 -17.792 -0.01 +0.03    -0.228 OA
DOCKED: BRANCH   8  10
DOCKED: ATOM     10  O   UNL d   1      -5.732   3.869 -16.571 -0.07 +0.05    -0.303 OA
DOCKED: ATOM     11  H   UNL d   1      -4.968   4.398 -16.275 +0.02 -0.04    +0.222 HD
DOCKED: ENDBRANCH   8  10
DOCKED: BRANCH   8  12
DOCKED: ATOM     12  O   UNL d   1      -8.183   3.702 -16.260 -0.02 +0.05    -0.303 OA
DOCKED: ATOM     13  H   UNL d   1      -8.790   3.974 -15.535 +0.02 -0.04    +0.222 HD
DOCKED: ENDBRANCH   8  12
DOCKED: ENDBRANCH   7   8
DOCKED: ENDBRANCH   1   7
DOCKED: BRANCH   2  14
DOCKED: ATOM     14  O   UNL d   1      -6.580   7.954 -13.843 -0.13 +0.10    -0.278 OA
DOCKED: BRANCH  14  15
DOCKED: ATOM     15  P   UNL d   1      -5.286   8.402 -14.674 -0.19 -0.12    +0.473 P 
DOCKED: ATOM     16  O   UNL d   1      -5.493   9.443 -15.730 -0.07 +0.04    -0.228 OA
DOCKED: BRANCH  15  17
DOCKED: ATOM     17  O   UNL d   1      -4.245   8.855 -13.557 -0.26 +0.11    -0.303 OA
DOCKED: ATOM     18  H   UNL d   1      -3.348   8.953 -13.931 -0.35 -0.10    +0.222 HD
DOCKED: ENDBRANCH  15  17
DOCKED: BRANCH  15  19
DOCKED: ATOM     19  O   UNL d   1      -4.644   7.036 -15.176 -0.16 +0.08    -0.303 OA
DOCKED: ATOM     20  H   UNL d   1      -5.029   6.267 -14.717 -0.27 -0.11    +0.222 HD
DOCKED: ENDBRANCH  15  19
DOCKED: ENDBRANCH  14  15
DOCKED: ENDBRANCH   2  14
DOCKED: BRANCH   6  21
DOCKED: ATOM     21  O   UNL d   1      -8.876   4.333 -13.570 -0.07 +0.12    -0.278 OA
DOCKED: BRANCH  21  22
DOCKED: ATOM     22  P   UNL d   1     -10.393   4.116 -14.012 +0.01 -0.11    +0.473 P 
DOCKED: ATOM     23  O   UNL d   1     -11.448   4.167 -12.960 -0.01 +0.06    -0.228 OA
DOCKED: BRANCH  22  24
DOCKED: ATOM     24  O   UNL d   1     -10.552   5.197 -15.170 -0.00 +0.05    -0.303 OA
DOCKED: ATOM     25  H   UNL d   1      -9.882   4.997 -15.872 +0.01 -0.03    +0.222 HD
DOCKED: ENDBRANCH  22  24
DOCKED: BRANCH  22  26
DOCKED: ATOM     26  O   UNL d   1     -10.297   2.750 -14.846 +0.00 +0.05    -0.303 OA
DOCKED: ATOM     27  H   UNL d   1      -9.359   2.482 -14.918 +0.02 -0.04    +0.222 HD
DOCKED: ENDBRANCH  22  26
DOCKED: ENDBRANCH  21  22
DOCKED: ENDBRANCH   6  21
DOCKED: BRANCH   3  28
DOCKED: ATOM     28  O   UNL d   1      -8.444   9.826 -13.586 -0.40 -0.02    -0.278 OA
DOCKED: BRANCH  28  29
DOCKED: ATOM     29  P   UNL d   1      -9.086  11.097 -14.299 -0.04 -0.01    +0.473 P 
DOCKED: ATOM     30  O   UNL d   1      -8.451  11.502 -15.579 -0.03 +0.01    -0.228 OA
DOCKED: BRANCH  29  31
DOCKED: ATOM     31  O   UNL d   1     -10.618  10.638 -14.361 -0.01 +0.02    -0.303 OA
DOCKED: ATOM     32  H   UNL d   1     -10.824  10.121 -13.548 +0.02 -0.02    +0.222 HD
DOCKED: ENDBRANCH  29  31
DOCKED: BRANCH  29  33
DOCKED: ATOM     33  O   UNL d   1      -9.088  12.172 -13.125 -0.28 +0.00    -0.303 OA
DOCKED: ATOM     34  H   UNL d   1     -10.018  12.467 -12.961 +0.03 -0.01    +0.222 HD
DOCKED: ENDBRANCH  29  33
DOCKED: ENDBRANCH  28  29
DOCKED: ENDBRANCH   3  28
DOCKED: BRANCH   5  35
DOCKED: ATOM     35  O   UNL d   1      -9.425   5.968 -11.213 -0.13 +0.20    -0.278 OA
DOCKED: BRANCH  35  36
DOCKED: ATOM     36  P   UNL d   1     -10.759   5.839 -10.347 -0.05 -0.30    +0.473 P 
DOCKED: ATOM     37  O   UNL d   1     -10.998   4.499  -9.727 -0.10 +0.21    -0.228 OA
DOCKED: BRANCH  36  38
DOCKED: ATOM     38  O   UNL d   1     -10.582   7.024  -9.298 -0.09 +0.17    -0.303 OA
DOCKED: ATOM     39  H   UNL d   1     -10.334   7.844  -9.778 +0.07 -0.09    +0.222 HD
DOCKED: ENDBRANCH  36  38
DOCKED: BRANCH  36  40
DOCKED: ATOM     40  O   UNL d   1     -11.869   6.379 -11.351 -0.01 +0.08    -0.303 OA
DOCKED: ATOM     41  H   UNL d   1     -11.872   7.361 -11.396 +0.02 -0.05    +0.222 HD
DOCKED: ENDBRANCH  36  40
DOCKED: ENDBRANCH  35  36
DOCKED: ENDBRANCH   5  35
DOCKED: BRANCH   4  42
DOCKED: ATOM     42  O   UNL d   1     -10.552   8.483 -12.158 -0.05 +0.05    -0.278 OA
DOCKED: BRANCH  42  43
DOCKED: ATOM     43  P   UNL d   1     -10.584   9.563 -10.984 -0.05 -0.08    +0.473 P 
DOCKED: ATOM     44  O   UNL d   1      -9.370   9.684 -10.130 -0.19 +0.06    -0.228 OA
DOCKED: BRANCH  43  45
DOCKED: ATOM     45  O   UNL d   1     -10.976  10.901 -11.751 -0.03 +0.03    -0.303 OA
DOCKED: ATOM     46  H   UNL d   1     -10.246  11.214 -12.321 +0.03 -0.01    +0.222 HD
DOCKED: ENDBRANCH  43  45
DOCKED: BRANCH  43  47
DOCKED: ATOM     47  O   UNL d   1     -11.944   9.220 -10.209 -0.01 +0.05    -0.303 OA
DOCKED: ATOM     48  H   UNL d   1     -12.099   8.254 -10.240 +0.03 -0.04    +0.222 HD
DOCKED: ENDBRANCH  43  47
DOCKED: ENDBRANCH  42  43
DOCKED: ENDBRANCH   4  42
DOCKED: TORSDOF 24
DOCKED: TER
DOCKED: ENDMDL
________________________________________________________________________________


	BEGINNING GENETIC ALGORITHM DOCKING 86 of 100
Run: 86 Seed: 884903953 1505045534 [ Run 86 of 100 GA/GALS ]
Beginning LAMARCKIAN GENETIC ALGORITHM (LGA), with a maximum of 25000000 energy evaluations.

Final-Value: -17.794


	FINAL GENETIC ALGORITHM DOCKED STATE
	_______________________________________________


Detailed state:  trans -14.211 4.442 -3.896 quatxyzw 0.475165 0.493585 0.721983 0.096611 center 0.035 0.082 -0.065 ntor 24 -174.7282 153.8477 33.2227 87.8868 -133.6027 -148.0408 3.7200 -57.8576 38.3682 0.4552 143.1166 -93.3320 101.8905 154.7921 10.6682 -42.0612 160.5282 -126.1227 40.0717 -6.9511 168.5631 143.2851 -11.4202 162.9193
State:	-14.211   4.442  -3.896   0.477  0.496  0.725 168.912   -174.73  153.85   33.22   87.89 -133.60 -148.04    3.72  -57.86   38.37    0.46  143.12  -93.33  101.89  154.79   10.67  -42.06  160.53 -126.12   40.07   -6.95  168.56  143.29  -11.42  162.92

DOCKED: MODEL       86
DOCKED: USER    Run = 86
DOCKED: USER    DPF = D:/Protein_go_brrr/autodock/final/AncMH_nat/IHP/dock.dpf
DOCKED: USER  
DOCKED: USER    Estimated Free Energy of Binding    =   +3.48 kcal/mol  [=(1)+(2)+(3)-(4)]
DOCKED: USER    
DOCKED: USER    (1) Final Intermolecular Energy     =   -3.68 kcal/mol
DOCKED: USER        vdW + Hbond + desolv Energy     =   -3.28 kcal/mol
DOCKED: USER        Electrostatic Energy            =   -0.40 kcal/mol
DOCKED: USER    (2) Final Total Internal Energy     =  -14.12 kcal/mol
DOCKED: USER    (3) Torsional Free Energy           =   +7.16 kcal/mol
DOCKED: USER    (4) Unbound System's Energy  [=(2)] =  -14.12 kcal/mol
DOCKED: USER    
DOCKED: USER    
DOCKED: USER    NEWDPF move IHP_ideal_opt.pdbqt
DOCKED: USER    NEWDPF about 0.035000 0.082000 -0.065000
DOCKED: USER    NEWDPF tran0 -14.211378 4.441830 -3.895830
DOCKED: USER    NEWDPF quaternion0 0.475165 0.493585 0.721983 0.096611
DOCKED: USER    NEWDPF axisangle0 0.477398 0.495904 0.725376 168.911919
DOCKED: USER    NEWDPF quat0 0.477398 0.495904 0.725376 168.911919
DOCKED: USER    NEWDPF dihe0 -174.73 153.85 33.22 87.89 -133.60 -148.04 3.72 -57.86 38.37 0.46 143.12 -93.33 101.89 154.79 10.67 -42.06 160.53 -126.12 40.07 -6.95 168.56 143.29 -11.42 162.92 
DOCKED: USER  keepresnum = 1 
DOCKED: USER  
DOCKED: REMARK  24 active torsions:
DOCKED: REMARK  status: ('A' for Active; 'I' for Inactive)
DOCKED: REMARK    1  A    between atoms: C_1  and  O_7 
DOCKED: REMARK    2  A    between atoms: C_2  and  O_12 
DOCKED: REMARK    3  A    between atoms: C_3  and  O_17 
DOCKED: REMARK    4  A    between atoms: C_4  and  O_22 
DOCKED: REMARK    5  A    between atoms: C_5  and  O_27 
DOCKED: REMARK    6  A    between atoms: C_6  and  O_32 
DOCKED: REMARK    7  A    between atoms: O_7  and  P_8 
DOCKED: REMARK    8  A    between atoms: P_8  and  O_10 
DOCKED: REMARK    9  A    between atoms: P_8  and  O_11 
DOCKED: REMARK   10  A    between atoms: O_12  and  P_13 
DOCKED: REMARK   11  A    between atoms: P_13  and  O_15 
DOCKED: REMARK   12  A    between atoms: P_13  and  O_16 
DOCKED: REMARK   13  A    between atoms: O_17  and  P_18 
DOCKED: REMARK   14  A    between atoms: P_18  and  O_20 
DOCKED: REMARK   15  A    between atoms: P_18  and  O_21 
DOCKED: REMARK   16  A    between atoms: O_22  and  P_23 
DOCKED: REMARK   17  A    between atoms: P_23  and  O_25 
DOCKED: REMARK   18  A    between atoms: P_23  and  O_26 
DOCKED: REMARK   19  A    between atoms: O_27  and  P_28 
DOCKED: REMARK   20  A    between atoms: P_28  and  O_30 
DOCKED: REMARK   21  A    between atoms: P_28  and  O_31 
DOCKED: REMARK   22  A    between atoms: O_32  and  P_33 
DOCKED: REMARK   23  A    between atoms: P_33  and  O_35 
DOCKED: REMARK   24  A    between atoms: P_33  and  O_36 
DOCKED: USER                              x       y       z     vdW  Elec       q    Type
DOCKED: USER                           _______ _______ _______ _____ _____    ______ ____
DOCKED: ROOT
DOCKED: ATOM      1  C   UNL d   1     -14.948   5.930  -3.420 -0.05 +0.06    +0.194 C 
DOCKED: ATOM      2  C   UNL d   1     -14.994   5.619  -4.917 -0.01 +0.02    +0.194 C 
DOCKED: ATOM      3  C   UNL d   1     -13.659   5.070  -5.423 -0.01 -0.00    +0.194 C 
DOCKED: ATOM      4  C   UNL d   1     -13.145   3.888  -4.603 -0.02 +0.01    +0.194 C 
DOCKED: ATOM      5  C   UNL d   1     -13.189   4.112  -3.097 -0.07 +0.08    +0.194 C 
DOCKED: ATOM      6  C   UNL d   1     -14.503   4.719  -2.599 -0.09 +0.13    +0.194 C 
DOCKED: ENDROOT
DOCKED: BRANCH   1   7
DOCKED: ATOM      7  O   UNL d   1     -16.270   6.270  -2.994 -0.02 -0.09    -0.278 OA
DOCKED: BRANCH   7   8
DOCKED: ATOM      8  P   UNL d   1     -16.781   7.766  -3.226 -0.01 +0.08    +0.473 P 
DOCKED: ATOM      9  O   UNL d   1     -18.256   7.916  -3.353 -0.01 -0.03    -0.228 OA
DOCKED: BRANCH   8  10
DOCKED: ATOM     10  O   UNL d   1     -16.171   8.578  -1.995 -0.08 -0.04    -0.303 OA
DOCKED: ATOM     11  H   UNL d   1     -15.352   8.144  -1.691 +0.07 +0.04    +0.222 HD
DOCKED: ENDBRANCH   8  10
DOCKED: BRANCH   8  12
DOCKED: ATOM     12  O   UNL d   1     -15.919   8.312  -4.444 -0.03 -0.02    -0.303 OA
DOCKED: ATOM     13  H   UNL d   1     -16.442   8.411  -5.272 +0.01 +0.01    +0.222 HD
DOCKED: ENDBRANCH   8  12
DOCKED: ENDBRANCH   7   8
DOCKED: ENDBRANCH   1   7
DOCKED: BRANCH   2  14
DOCKED: ATOM     14  O   UNL d   1     -16.012   4.640  -5.159 +0.00 -0.05    -0.278 OA
DOCKED: BRANCH  14  15
DOCKED: ATOM     15  P   UNL d   1     -17.138   5.027  -6.230 +0.01 +0.05    +0.473 P 
DOCKED: ATOM     16  O   UNL d   1     -18.497   4.436  -6.020 +0.00 -0.03    -0.228 OA
DOCKED: BRANCH  15  17
DOCKED: ATOM     17  O   UNL d   1     -17.150   6.620  -6.220 -0.00 -0.02    -0.303 OA
DOCKED: ATOM     18  H   UNL d   1     -17.407   6.965  -5.344 +0.01 +0.02    +0.222 HD
DOCKED: ENDBRANCH  15  17
DOCKED: BRANCH  15  19
DOCKED: ATOM     19  O   UNL d   1     -16.468   4.721  -7.639 +0.00 -0.01    -0.303 OA
DOCKED: ATOM     20  H   UNL d   1     -15.801   4.013  -7.575 +0.00 +0.00    +0.222 HD
DOCKED: ENDBRANCH  15  19
DOCKED: ENDBRANCH  14  15
DOCKED: ENDBRANCH   2  14
DOCKED: BRANCH   6  21
DOCKED: ATOM     21  O   UNL d   1     -14.267   5.178  -1.270 -0.26 -0.28    -0.278 OA
DOCKED: BRANCH  21  22
DOCKED: ATOM     22  P   UNL d   1     -13.256   6.386  -1.017 -0.25 +0.19    +0.473 P 
DOCKED: ATOM     23  O   UNL d   1     -13.287   7.540  -1.961 -0.28 -0.04    -0.228 OA
DOCKED: BRANCH  22  24
DOCKED: ATOM     24  O   UNL d   1     -13.564   6.756   0.500 -0.12 -0.12    -0.303 OA
DOCKED: ATOM     25  H   UNL d   1     -12.792   7.265   0.856 -0.27 +0.01    +0.222 HD
DOCKED: ENDBRANCH  22  24
DOCKED: BRANCH  22  26
DOCKED: ATOM     26  O   UNL d   1     -11.855   5.617  -0.893 -0.19 -0.11    -0.303 OA
DOCKED: ATOM     27  H   UNL d   1     -11.835   4.878  -1.534 +0.10 +0.09    +0.222 HD
DOCKED: ENDBRANCH  22  26
DOCKED: ENDBRANCH  21  22
DOCKED: ENDBRANCH   6  21
DOCKED: BRANCH   3  28
DOCKED: ATOM     28  O   UNL d   1     -13.875   4.556  -6.731 -0.00 +0.03    -0.278 OA
DOCKED: BRANCH  28  29
DOCKED: ATOM     29  P   UNL d   1     -13.923   2.984  -6.980 +0.01 -0.03    +0.473 P 
DOCKED: ATOM     30  O   UNL d   1     -12.636   2.266  -6.792 -0.03 +0.05    -0.228 OA
DOCKED: BRANCH  29  31
DOCKED: ATOM     31  O   UNL d   1     -15.127   2.583  -6.005 +0.00 -0.04    -0.303 OA
DOCKED: ATOM     32  H   UNL d   1     -15.917   3.119  -6.246 +0.00 +0.03    +0.222 HD
DOCKED: ENDBRANCH  29  31
DOCKED: BRANCH  29  33
DOCKED: ATOM     33  O   UNL d   1     -14.593   2.894  -8.421 +0.00 +0.02    -0.303 OA
DOCKED: ATOM     34  H   UNL d   1     -14.766   3.809  -8.753 +0.00 -0.02    +0.222 HD
DOCKED: ENDBRANCH  29  33
DOCKED: ENDBRANCH  28  29
DOCKED: ENDBRANCH   3  28
DOCKED: BRANCH   5  35
DOCKED: ATOM     35  O   UNL d   1     -13.076   2.817  -2.510 -0.06 -0.19    -0.278 OA
DOCKED: BRANCH  35  36
DOCKED: ATOM     36  P   UNL d   1     -11.850   2.473  -1.549 -0.08 +0.30    +0.473 P 
DOCKED: ATOM     37  O   UNL d   1     -11.490   1.025  -1.456 -0.19 -0.12    -0.228 OA
DOCKED: BRANCH  36  38
DOCKED: ATOM     38  O   UNL d   1     -10.699   3.397  -2.147 -0.13 -0.06    -0.303 OA
DOCKED: ATOM     39  H   UNL d   1     -10.833   3.492  -3.114 +0.10 +0.01    +0.222 HD
DOCKED: ENDBRANCH  36  38
DOCKED: BRANCH  36  40
DOCKED: ATOM     40  O   UNL d   1     -12.263   3.203  -0.198 -0.50 -0.37    -0.303 OA
DOCKED: ATOM     41  H   UNL d   1     -12.655   4.089  -0.367 +0.08 +0.26    +0.222 HD
DOCKED: ENDBRANCH  36  40
DOCKED: ENDBRANCH  35  36
DOCKED: ENDBRANCH   5  35
DOCKED: BRANCH   4  42
DOCKED: ATOM     42  O   UNL d   1     -11.772   3.701  -4.961 -0.06 +0.08    -0.278 OA
DOCKED: BRANCH  42  43
DOCKED: ATOM     43  P   UNL d   1     -10.783   4.951  -4.903 -0.06 -0.27    +0.473 P 
DOCKED: ATOM     44  O   UNL d   1     -10.807   5.901  -6.050 -0.14 +0.18    -0.228 OA
DOCKED: BRANCH  43  45
DOCKED: ATOM     45  O   UNL d   1     -11.140   5.614  -3.501 -0.11 +0.03    -0.303 OA
DOCKED: ATOM     46  H   UNL d   1     -10.842   5.056  -2.755 +0.11 +0.01    +0.222 HD
DOCKED: ENDBRANCH  43  45
DOCKED: BRANCH  43  47
DOCKED: ATOM     47  O   UNL d   1      -9.361   4.279  -4.592 -0.24 +0.24    -0.303 OA
DOCKED: ATOM     48  H   UNL d   1      -8.947   3.997  -5.433 -0.41 -0.45    +0.222 HD
DOCKED: ENDBRANCH  43  47
DOCKED: ENDBRANCH  42  43
DOCKED: ENDBRANCH   4  42
DOCKED: TORSDOF 24
DOCKED: TER
DOCKED: ENDMDL
________________________________________________________________________________


	BEGINNING GENETIC ALGORITHM DOCKING 87 of 100
Run: 87 Seed: 273190370 338686721 [ Run 87 of 100 GA/GALS ]
Beginning LAMARCKIAN GENETIC ALGORITHM (LGA), with a maximum of 25000000 energy evaluations.

Final-Value: -18.085


	FINAL GENETIC ALGORITHM DOCKED STATE
	_______________________________________________


Detailed state:  trans 2.219 -8.095 20.021 quatxyzw -0.010992 -0.512294 -0.505342 0.694308 center 0.035 0.082 -0.065 ntor 24 138.2394 30.9958 47.9221 25.5898 134.1710 -84.9530 -57.0337 23.0800 171.3800 -50.4507 -180.0000 81.5041 -42.2885 -176.5709 122.1674 -172.2551 -171.8461 176.2694 37.6717 -28.1760 -39.3771 -27.6156 28.5453 36.0958
State:	  2.219  -8.095  20.021  -0.015 -0.712 -0.702 92.056    138.24   31.00   47.92   25.59  134.17  -84.95  -57.03   23.08  171.38  -50.45 -180.00   81.50  -42.29 -176.57  122.17 -172.26 -171.85  176.27   37.67  -28.18  -39.38  -27.62   28.55   36.10

DOCKED: MODEL       87
DOCKED: USER    Run = 87
DOCKED: USER    DPF = D:/Protein_go_brrr/autodock/final/AncMH_nat/IHP/dock.dpf
DOCKED: USER  
DOCKED: USER    Estimated Free Energy of Binding    =   +3.20 kcal/mol  [=(1)+(2)+(3)-(4)]
DOCKED: USER    
DOCKED: USER    (1) Final Intermolecular Energy     =   -3.96 kcal/mol
DOCKED: USER        vdW + Hbond + desolv Energy     =   -3.67 kcal/mol
DOCKED: USER        Electrostatic Energy            =   -0.29 kcal/mol
DOCKED: USER    (2) Final Total Internal Energy     =  -14.12 kcal/mol
DOCKED: USER    (3) Torsional Free Energy           =   +7.16 kcal/mol
DOCKED: USER    (4) Unbound System's Energy  [=(2)] =  -14.12 kcal/mol
DOCKED: USER    
DOCKED: USER    
DOCKED: USER    NEWDPF move IHP_ideal_opt.pdbqt
DOCKED: USER    NEWDPF about 0.035000 0.082000 -0.065000
DOCKED: USER    NEWDPF tran0 2.218791 -8.094854 20.021402
DOCKED: USER    NEWDPF quaternion0 -0.010992 -0.512294 -0.505342 0.694308
DOCKED: USER    NEWDPF axisangle0 -0.015273 -0.711838 -0.702178 92.055736
DOCKED: USER    NEWDPF quat0 -0.015273 -0.711838 -0.702178 92.055736
DOCKED: USER    NEWDPF dihe0 138.24 31.00 47.92 25.59 134.17 -84.95 -57.03 23.08 171.38 -50.45 -180.00 81.50 -42.29 -176.57 122.17 -172.26 -171.85 176.27 37.67 -28.18 -39.38 -27.62 28.55 36.10 
DOCKED: USER  keepresnum = 1 
DOCKED: USER  
DOCKED: REMARK  24 active torsions:
DOCKED: REMARK  status: ('A' for Active; 'I' for Inactive)
DOCKED: REMARK    1  A    between atoms: C_1  and  O_7 
DOCKED: REMARK    2  A    between atoms: C_2  and  O_12 
DOCKED: REMARK    3  A    between atoms: C_3  and  O_17 
DOCKED: REMARK    4  A    between atoms: C_4  and  O_22 
DOCKED: REMARK    5  A    between atoms: C_5  and  O_27 
DOCKED: REMARK    6  A    between atoms: C_6  and  O_32 
DOCKED: REMARK    7  A    between atoms: O_7  and  P_8 
DOCKED: REMARK    8  A    between atoms: P_8  and  O_10 
DOCKED: REMARK    9  A    between atoms: P_8  and  O_11 
DOCKED: REMARK   10  A    between atoms: O_12  and  P_13 
DOCKED: REMARK   11  A    between atoms: P_13  and  O_15 
DOCKED: REMARK   12  A    between atoms: P_13  and  O_16 
DOCKED: REMARK   13  A    between atoms: O_17  and  P_18 
DOCKED: REMARK   14  A    between atoms: P_18  and  O_20 
DOCKED: REMARK   15  A    between atoms: P_18  and  O_21 
DOCKED: REMARK   16  A    between atoms: O_22  and  P_23 
DOCKED: REMARK   17  A    between atoms: P_23  and  O_25 
DOCKED: REMARK   18  A    between atoms: P_23  and  O_26 
DOCKED: REMARK   19  A    between atoms: O_27  and  P_28 
DOCKED: REMARK   20  A    between atoms: P_28  and  O_30 
DOCKED: REMARK   21  A    between atoms: P_28  and  O_31 
DOCKED: REMARK   22  A    between atoms: O_32  and  P_33 
DOCKED: REMARK   23  A    between atoms: P_33  and  O_35 
DOCKED: REMARK   24  A    between atoms: P_33  and  O_36 
DOCKED: USER                              x       y       z     vdW  Elec       q    Type
DOCKED: USER                           _______ _______ _______ _____ _____    ______ ____
DOCKED: ROOT
DOCKED: ATOM      1  C   UNL d   1       3.359  -7.238  19.046 -0.07 -0.08    +0.194 C 
DOCKED: ATOM      2  C   UNL d   1       3.692  -8.707  19.316 -0.04 -0.05    +0.194 C 
DOCKED: ATOM      3  C   UNL d   1       3.434  -9.087  20.776 -0.01 -0.04    +0.194 C 
DOCKED: ATOM      4  C   UNL d   1       2.033  -8.715  21.256 -0.02 -0.04    +0.194 C 
DOCKED: ATOM      5  C   UNL d   1       1.615  -7.292  20.906 -0.03 -0.06    +0.194 C 
DOCKED: ATOM      6  C   UNL d   1       1.929  -6.892  19.463 -0.11 -0.09    +0.194 C 
DOCKED: ENDROOT
DOCKED: BRANCH   1   7
DOCKED: ATOM      7  O   UNL d   1       3.459  -7.010  17.639 -0.11 +0.17    -0.278 OA
DOCKED: BRANCH   7   8
DOCKED: ATOM      8  P   UNL d   1       4.896  -6.675  17.025 -0.08 -0.20    +0.473 P 
DOCKED: ATOM      9  O   UNL d   1       6.038  -6.847  17.962 -0.02 +0.06    -0.228 OA
DOCKED: BRANCH   8  10
DOCKED: ATOM     10  O   UNL d   1       4.994  -7.611  15.737 -0.17 +0.14    -0.303 OA
DOCKED: ATOM     11  H   UNL d   1       4.350  -8.340  15.813 +0.01 -0.10    +0.222 HD
DOCKED: ENDBRANCH   8  10
DOCKED: BRANCH   8  12
DOCKED: ATOM     12  O   UNL d   1       4.741  -5.232  16.376 -0.15 +0.15    -0.303 OA
DOCKED: ATOM     13  H   UNL d   1       3.803  -4.952  16.280 +0.03 -0.14    +0.222 HD
DOCKED: ENDBRANCH   8  12
DOCKED: ENDBRANCH   7   8
DOCKED: ENDBRANCH   1   7
DOCKED: BRANCH   2  14
DOCKED: ATOM     14  O   UNL d   1       2.874  -9.533  18.478 -0.08 +0.09    -0.278 OA
DOCKED: BRANCH  14  15
DOCKED: ATOM     15  P   UNL d   1       3.585 -10.177  17.196 -0.11 -0.16    +0.473 P 
DOCKED: ATOM     16  O   UNL d   1       3.000  -9.837  15.861 -0.23 +0.10    -0.228 OA
DOCKED: BRANCH  15  17
DOCKED: ATOM     17  O   UNL d   1       5.109  -9.734  17.334 -0.03 +0.08    -0.303 OA
DOCKED: ATOM     18  H   UNL d   1       5.181  -8.780  17.528 +0.04 -0.07    +0.222 HD
DOCKED: ENDBRANCH  15  17
DOCKED: BRANCH  15  19
DOCKED: ATOM     19  O   UNL d   1       3.672 -11.730  17.530 -0.04 +0.07    -0.303 OA
DOCKED: ATOM     20  H   UNL d   1       3.814 -11.887  18.482 +0.03 -0.04    +0.222 HD
DOCKED: ENDBRANCH  15  19
DOCKED: ENDBRANCH  14  15
DOCKED: ENDBRANCH   2  14
DOCKED: BRANCH   6  21
DOCKED: ATOM     21  O   UNL d   1       1.805  -5.473  19.393 -0.09 +0.16    -0.278 OA
DOCKED: BRANCH  21  22
DOCKED: ATOM     22  P   UNL d   1       1.169  -4.797  18.096 -0.20 -0.48    +0.473 P 
DOCKED: ATOM     23  O   UNL d   1       0.482  -3.482  18.251 -0.48 +0.34    -0.228 OA
DOCKED: BRANCH  22  24
DOCKED: ATOM     24  O   UNL d   1       2.404  -4.790  17.093 -0.24 +0.24    -0.303 OA
DOCKED: ATOM     25  H   UNL d   1       2.609  -5.729  16.850 -0.40 -0.24    +0.222 HD
DOCKED: ENDBRANCH  22  24
DOCKED: BRANCH  22  26
DOCKED: ATOM     26  O   UNL d   1       0.274  -5.992  17.511 -0.26 +0.42    -0.303 OA
DOCKED: ATOM     27  H   UNL d   1      -0.662  -5.843  17.756 -0.46 -0.53    +0.222 HD
DOCKED: ENDBRANCH  22  26
DOCKED: ENDBRANCH  21  22
DOCKED: ENDBRANCH   6  21
DOCKED: BRANCH   3  28
DOCKED: ATOM     28  O   UNL d   1       3.500 -10.504  20.868 -0.00 +0.05    -0.278 OA
DOCKED: BRANCH  28  29
DOCKED: ATOM     29  P   UNL d   1       4.907 -11.236  21.012 +0.00 -0.07    +0.473 P 
DOCKED: ATOM     30  O   UNL d   1       4.854 -12.633  21.515 +0.00 +0.03    -0.228 OA
DOCKED: BRANCH  29  31
DOCKED: ATOM     31  O   UNL d   1       5.489 -11.016  19.538 -0.00 +0.05    -0.303 OA
DOCKED: ATOM     32  H   UNL d   1       4.792 -10.593  18.985 +0.02 -0.04    +0.222 HD
DOCKED: ENDBRANCH  29  31
DOCKED: BRANCH  29  33
DOCKED: ATOM     33  O   UNL d   1       5.740 -10.191  21.878 -0.00 +0.04    -0.303 OA
DOCKED: ATOM     34  H   UNL d   1       5.514 -10.313  22.833 +0.00 -0.03    +0.222 HD
DOCKED: ENDBRANCH  29  33
DOCKED: ENDBRANCH  28  29
DOCKED: ENDBRANCH   3  28
DOCKED: BRANCH   5  35
DOCKED: ATOM     35  O   UNL d   1       0.197  -7.260  21.052 -0.05 +0.10    -0.278 OA
DOCKED: BRANCH  35  36
DOCKED: ATOM     36  P   UNL d   1      -0.559  -5.870  21.260 -0.05 -0.23    +0.473 P 
DOCKED: ATOM     37  O   UNL d   1      -1.476  -5.805  22.439 -0.03 +0.07    -0.228 OA
DOCKED: BRANCH  36  38
DOCKED: ATOM     38  O   UNL d   1       0.657  -4.844  21.319 -0.02 +0.13    -0.303 OA
DOCKED: ATOM     39  H   UNL d   1       0.737  -4.390  20.452 +0.06 -0.13    +0.222 HD
DOCKED: ENDBRANCH  36  38
DOCKED: BRANCH  36  40
DOCKED: ATOM     40  O   UNL d   1      -1.205  -5.617  19.828 -0.11 +0.38    -0.303 OA
DOCKED: ATOM     41  H   UNL d   1      -0.614  -5.083  19.252 -0.13 -0.36    +0.222 HD
DOCKED: ENDBRANCH  36  40
DOCKED: ENDBRANCH  35  36
DOCKED: ENDBRANCH   5  35
DOCKED: BRANCH   4  42
DOCKED: ATOM     42  O   UNL d   1       2.046  -8.811  22.685 -0.00 +0.05    -0.278 OA
DOCKED: BRANCH  42  43
DOCKED: ATOM     43  P   UNL d   1       2.027 -10.255  23.361 -0.00 -0.06    +0.473 P 
DOCKED: ATOM     44  O   UNL d   1       1.151 -10.445  24.550 -0.00 +0.02    -0.228 OA
DOCKED: BRANCH  43  45
DOCKED: ATOM     45  O   UNL d   1       1.678 -11.209  22.136 -0.00 +0.04    -0.303 OA
DOCKED: ATOM     46  H   UNL d   1       2.459 -11.725  21.851 +0.00 -0.03    +0.222 HD
DOCKED: ENDBRANCH  43  45
DOCKED: BRANCH  43  47
DOCKED: ATOM     47  O   UNL d   1       3.582 -10.573  23.589 +0.00 +0.04    -0.303 OA
DOCKED: ATOM     48  H   UNL d   1       3.900 -11.159  22.871 +0.00 -0.03    +0.222 HD
DOCKED: ENDBRANCH  43  47
DOCKED: ENDBRANCH  42  43
DOCKED: ENDBRANCH   4  42
DOCKED: TORSDOF 24
DOCKED: TER
DOCKED: ENDMDL
________________________________________________________________________________


	BEGINNING GENETIC ALGORITHM DOCKING 88 of 100
Run: 88 Seed: 1661728120 73555862 [ Run 88 of 100 GA/GALS ]
Beginning LAMARCKIAN GENETIC ALGORITHM (LGA), with a maximum of 25000000 energy evaluations.

Final-Value: -18.573


	FINAL GENETIC ALGORITHM DOCKED STATE
	_______________________________________________


Detailed state:  trans -12.283 -6.473 20.344 quatxyzw 0.067285 -0.871966 -0.477108 0.086701 center 0.035 0.082 -0.065 ntor 24 118.0623 108.9441 139.7721 11.9132 35.3929 -110.3716 128.8721 -30.2009 173.5466 127.9633 -144.2518 154.3167 -79.8267 35.6808 -57.0297 173.6524 87.0784 170.6199 -141.3129 -28.3474 -170.4508 10.2543 14.6069 -178.4246
State:	-12.283  -6.473  20.344   0.068 -0.875 -0.479 170.052    118.06  108.94  139.77   11.91   35.39 -110.37  128.87  -30.20  173.55  127.96 -144.25  154.32  -79.83   35.68  -57.03  173.65   87.08  170.62 -141.31  -28.35 -170.45   10.25   14.61 -178.42

DOCKED: MODEL       88
DOCKED: USER    Run = 88
DOCKED: USER    DPF = D:/Protein_go_brrr/autodock/final/AncMH_nat/IHP/dock.dpf
DOCKED: USER  
DOCKED: USER    Estimated Free Energy of Binding    =   +2.86 kcal/mol  [=(1)+(2)+(3)-(4)]
DOCKED: USER    
DOCKED: USER    (1) Final Intermolecular Energy     =   -4.29 kcal/mol
DOCKED: USER        vdW + Hbond + desolv Energy     =   -4.31 kcal/mol
DOCKED: USER        Electrostatic Energy            =   +0.01 kcal/mol
DOCKED: USER    (2) Final Total Internal Energy     =  -14.28 kcal/mol
DOCKED: USER    (3) Torsional Free Energy           =   +7.16 kcal/mol
DOCKED: USER    (4) Unbound System's Energy  [=(2)] =  -14.28 kcal/mol
DOCKED: USER    
DOCKED: USER    
DOCKED: USER    NEWDPF move IHP_ideal_opt.pdbqt
DOCKED: USER    NEWDPF about 0.035000 0.082000 -0.065000
DOCKED: USER    NEWDPF tran0 -12.283491 -6.473068 20.344278
DOCKED: USER    NEWDPF quaternion0 0.067285 -0.871966 -0.477108 0.086701
DOCKED: USER    NEWDPF axisangle0 0.067539 -0.875261 -0.478911 170.052348
DOCKED: USER    NEWDPF quat0 0.067539 -0.875261 -0.478911 170.052348
DOCKED: USER    NEWDPF dihe0 118.06 108.94 139.77 11.91 35.39 -110.37 128.87 -30.20 173.55 127.96 -144.25 154.32 -79.83 35.68 -57.03 173.65 87.08 170.62 -141.31 -28.35 -170.45 10.25 14.61 -178.42 
DOCKED: USER  keepresnum = 1 
DOCKED: USER  
DOCKED: REMARK  24 active torsions:
DOCKED: REMARK  status: ('A' for Active; 'I' for Inactive)
DOCKED: REMARK    1  A    between atoms: C_1  and  O_7 
DOCKED: REMARK    2  A    between atoms: C_2  and  O_12 
DOCKED: REMARK    3  A    between atoms: C_3  and  O_17 
DOCKED: REMARK    4  A    between atoms: C_4  and  O_22 
DOCKED: REMARK    5  A    between atoms: C_5  and  O_27 
DOCKED: REMARK    6  A    between atoms: C_6  and  O_32 
DOCKED: REMARK    7  A    between atoms: O_7  and  P_8 
DOCKED: REMARK    8  A    between atoms: P_8  and  O_10 
DOCKED: REMARK    9  A    between atoms: P_8  and  O_11 
DOCKED: REMARK   10  A    between atoms: O_12  and  P_13 
DOCKED: REMARK   11  A    between atoms: P_13  and  O_15 
DOCKED: REMARK   12  A    between atoms: P_13  and  O_16 
DOCKED: REMARK   13  A    between atoms: O_17  and  P_18 
DOCKED: REMARK   14  A    between atoms: P_18  and  O_20 
DOCKED: REMARK   15  A    between atoms: P_18  and  O_21 
DOCKED: REMARK   16  A    between atoms: O_22  and  P_23 
DOCKED: REMARK   17  A    between atoms: P_23  and  O_25 
DOCKED: REMARK   18  A    between atoms: P_23  and  O_26 
DOCKED: REMARK   19  A    between atoms: O_27  and  P_28 
DOCKED: REMARK   20  A    between atoms: P_28  and  O_30 
DOCKED: REMARK   21  A    between atoms: P_28  and  O_31 
DOCKED: REMARK   22  A    between atoms: O_32  and  P_33 
DOCKED: REMARK   23  A    between atoms: P_33  and  O_35 
DOCKED: REMARK   24  A    between atoms: P_33  and  O_36 
DOCKED: USER                              x       y       z     vdW  Elec       q    Type
DOCKED: USER                           _______ _______ _______ _____ _____    ______ ____
DOCKED: ROOT
DOCKED: ATOM      1  C   UNL d   1     -13.260  -6.325  18.927 -0.14 +0.09    +0.194 C 
DOCKED: ATOM      2  C   UNL d   1     -11.913  -7.024  18.732 -0.14 +0.05    +0.194 C 
DOCKED: ATOM      3  C   UNL d   1     -10.787  -6.300  19.472 -0.12 +0.02    +0.194 C 
DOCKED: ATOM      4  C   UNL d   1     -11.099  -6.050  20.946 -0.04 +0.01    +0.194 C 
DOCKED: ATOM      5  C   UNL d   1     -12.481  -5.459  21.196 -0.03 +0.02    +0.194 C 
DOCKED: ATOM      6  C   UNL d   1     -13.599  -6.144  20.407 -0.04 +0.05    +0.194 C 
DOCKED: ENDROOT
DOCKED: BRANCH   1   7
DOCKED: ATOM      7  O   UNL d   1     -14.277  -7.149  18.354 -0.14 -0.30    -0.278 OA
DOCKED: BRANCH   7   8
DOCKED: ATOM      8  P   UNL d   1     -15.083  -8.139  19.315 -0.04 +0.40    +0.473 P 
DOCKED: ATOM      9  O   UNL d   1     -14.333  -8.605  20.514 -0.03 -0.07    -0.228 OA
DOCKED: BRANCH   8  10
DOCKED: ATOM     10  O   UNL d   1     -16.409  -7.330  19.680 -0.28 -0.29    -0.303 OA
DOCKED: ATOM     11  H   UNL d   1     -16.189  -6.391  19.824 +0.02 +0.17    +0.222 HD
DOCKED: ENDBRANCH   8  10
DOCKED: BRANCH   8  12
DOCKED: ATOM     12  O   UNL d   1     -15.641  -9.279  18.360 -0.47 -0.35    -0.303 OA
DOCKED: ATOM     13  H   UNL d   1     -14.929  -9.809  17.935 +0.04 +0.17    +0.222 HD
DOCKED: ENDBRANCH   8  12
DOCKED: ENDBRANCH   7   8
DOCKED: ENDBRANCH   1   7
DOCKED: BRANCH   2  14
DOCKED: ATOM     14  O   UNL d   1     -12.004  -8.362  19.235 -0.04 -0.06    -0.278 OA
DOCKED: BRANCH  14  15
DOCKED: ATOM     15  P   UNL d   1     -12.150  -9.528  18.146 -0.08 +0.13    +0.473 P 
DOCKED: ATOM     16  O   UNL d   1     -10.881 -10.148  17.652 -0.11 -0.05    -0.228 OA
DOCKED: BRANCH  15  17
DOCKED: ATOM     17  O   UNL d   1     -13.125 -10.582  18.836 -0.06 -0.06    -0.303 OA
DOCKED: ATOM     18  H   UNL d   1     -13.878 -10.135  19.267 +0.04 +0.06    +0.222 HD
DOCKED: ENDBRANCH  15  17
DOCKED: BRANCH  15  19
DOCKED: ATOM     19  O   UNL d   1     -13.092  -8.908  17.025 -0.10 -0.19    -0.303 OA
DOCKED: ATOM     20  H   UNL d   1     -13.881  -8.483  17.411 +0.07 +0.23    +0.222 HD
DOCKED: ENDBRANCH  15  19
DOCKED: ENDBRANCH  14  15
DOCKED: ENDBRANCH   2  14
DOCKED: BRANCH   6  21
DOCKED: ATOM     21  O   UNL d   1     -14.736  -5.286  20.474 -0.02 -0.09    -0.278 OA
DOCKED: BRANCH  21  22
DOCKED: ATOM     22  P   UNL d   1     -14.913  -4.122  19.397 -0.04 +0.17    +0.473 P 
DOCKED: ATOM     23  O   UNL d   1     -13.688  -3.560  18.758 -0.15 -0.05    -0.228 OA
DOCKED: BRANCH  22  24
DOCKED: ATOM     24  O   UNL d   1     -15.956  -4.770  18.385 -0.29 -0.31    -0.303 OA
DOCKED: ATOM     25  H   UNL d   1     -15.814  -5.751  18.383 +0.03 +0.36    +0.222 HD
DOCKED: ENDBRANCH  22  24
DOCKED: BRANCH  22  26
DOCKED: ATOM     26  O   UNL d   1     -15.831  -3.078  20.195 -0.00 -0.06    -0.303 OA
DOCKED: ATOM     27  H   UNL d   1     -15.283  -2.605  20.854 +0.02 +0.03    +0.222 HD
DOCKED: ENDBRANCH  22  26
DOCKED: ENDBRANCH  21  22
DOCKED: ENDBRANCH   6  21
DOCKED: BRANCH   3  28
DOCKED: ATOM     28  O   UNL d   1      -9.652  -7.156  19.467 -0.08 -0.01    -0.278 OA
DOCKED: BRANCH  28  29
DOCKED: ATOM     29  P   UNL d   1      -8.284  -6.675  18.808 -0.20 -0.02    +0.473 P 
DOCKED: ATOM     30  O   UNL d   1      -7.047  -7.201  19.442 -0.23 +0.02    -0.228 OA
DOCKED: BRANCH  29  31
DOCKED: ATOM     31  O   UNL d   1      -8.549  -7.085  17.284 -0.40 +0.01    -0.303 OA
DOCKED: ATOM     32  H   UNL d   1      -7.756  -6.844  16.751 -0.43 -0.08    +0.222 HD
DOCKED: ENDBRANCH  29  31
DOCKED: BRANCH  29  33
DOCKED: ATOM     33  O   UNL d   1      -8.463  -5.093  18.783 -0.32 +0.02    -0.303 OA
DOCKED: ATOM     34  H   UNL d   1      -9.051  -4.825  19.532 +0.07 -0.01    +0.222 HD
DOCKED: ENDBRANCH  29  33
DOCKED: ENDBRANCH  28  29
DOCKED: ENDBRANCH   3  28
DOCKED: BRANCH   5  35
DOCKED: ATOM     35  O   UNL d   1     -12.750  -5.676  22.579 -0.00 -0.02    -0.278 OA
DOCKED: BRANCH  35  36
DOCKED: ATOM     36  P   UNL d   1     -13.579  -4.600  23.416 +0.00 +0.02    +0.473 P 
DOCKED: ATOM     37  O   UNL d   1     -14.698  -5.150  24.243 +0.00 -0.01    -0.228 OA
DOCKED: BRANCH  36  38
DOCKED: ATOM     38  O   UNL d   1     -12.432  -3.887  24.258 -0.00 +0.00    -0.303 OA
DOCKED: ATOM     39  H   UNL d   1     -12.235  -3.013  23.858 +0.01 -0.00    +0.222 HD
DOCKED: ENDBRANCH  36  38
DOCKED: BRANCH  36  40
DOCKED: ATOM     40  O   UNL d   1     -13.962  -3.528  22.305 -0.00 -0.02    -0.303 OA
DOCKED: ATOM     41  H   UNL d   1     -14.790  -3.770  21.835 +0.01 +0.02    +0.222 HD
DOCKED: ENDBRANCH  36  40
DOCKED: ENDBRANCH  35  36
DOCKED: ENDBRANCH   5  35
DOCKED: BRANCH   4  42
DOCKED: ATOM     42  O   UNL d   1     -10.142  -5.096  21.417 -0.04 +0.01    -0.278 OA
DOCKED: BRANCH  42  43
DOCKED: ATOM     43  P   UNL d   1     -10.242  -3.587  20.908 -0.09 -0.05    +0.473 P 
DOCKED: ATOM     44  O   UNL d   1      -8.966  -2.856  20.673 -0.16 +0.04    -0.228 OA
DOCKED: BRANCH  43  45
DOCKED: ATOM     45  O   UNL d   1     -11.167  -3.714  19.619 -0.08 +0.02    -0.303 OA
DOCKED: ATOM     46  H   UNL d   1     -11.774  -2.952  19.538 -0.19 -0.05    +0.222 HD
DOCKED: ENDBRANCH  43  45
DOCKED: BRANCH  43  47
DOCKED: ATOM     47  O   UNL d   1     -11.243  -2.912  21.962 -0.04 +0.02    -0.303 OA
DOCKED: ATOM     48  H   UNL d   1     -11.835  -3.599  22.331 +0.02 -0.01    +0.222 HD
DOCKED: ENDBRANCH  43  47
DOCKED: ENDBRANCH  42  43
DOCKED: ENDBRANCH   4  42
DOCKED: TORSDOF 24
DOCKED: TER
DOCKED: ENDMDL
________________________________________________________________________________


	BEGINNING GENETIC ALGORITHM DOCKING 89 of 100
Run: 89 Seed: 836305892 671486771 [ Run 89 of 100 GA/GALS ]
Beginning LAMARCKIAN GENETIC ALGORITHM (LGA), with a maximum of 25000000 energy evaluations.

Final-Value: -18.441


	FINAL GENETIC ALGORITHM DOCKED STATE
	_______________________________________________


Detailed state:  trans -17.918 16.351 0.810 quatxyzw 0.392521 0.123053 0.790758 -0.453307 center 0.035 0.082 -0.065 ntor 24 117.5172 30.8394 127.7925 14.3277 84.4585 143.1911 -49.7222 -93.0237 153.2046 -67.1306 156.4364 180.0000 -43.9199 73.2087 -95.9704 -34.4462 -134.0189 -137.3042 38.7820 -22.8639 -24.7729 -1.2540 5.4100 9.2431
State:	-17.918  16.351   0.810   0.440  0.138  0.887 -126.088    117.52   30.84  127.79   14.33   84.46  143.19  -49.72  -93.02  153.20  -67.13  156.44  180.00  -43.92   73.21  -95.97  -34.45 -134.02 -137.30   38.78  -22.86  -24.77   -1.25    5.41    9.24

DOCKED: MODEL       89
DOCKED: USER    Run = 89
DOCKED: USER    DPF = D:/Protein_go_brrr/autodock/final/AncMH_nat/IHP/dock.dpf
DOCKED: USER  
DOCKED: USER    Estimated Free Energy of Binding    =   +3.43 kcal/mol  [=(1)+(2)+(3)-(4)]
DOCKED: USER    
DOCKED: USER    (1) Final Intermolecular Energy     =   -3.73 kcal/mol
DOCKED: USER        vdW + Hbond + desolv Energy     =   -3.05 kcal/mol
DOCKED: USER        Electrostatic Energy            =   -0.68 kcal/mol
DOCKED: USER    (2) Final Total Internal Energy     =  -14.71 kcal/mol
DOCKED: USER    (3) Torsional Free Energy           =   +7.16 kcal/mol
DOCKED: USER    (4) Unbound System's Energy  [=(2)] =  -14.71 kcal/mol
DOCKED: USER    
DOCKED: USER    
DOCKED: USER    NEWDPF move IHP_ideal_opt.pdbqt
DOCKED: USER    NEWDPF about 0.035000 0.082000 -0.065000
DOCKED: USER    NEWDPF tran0 -17.917756 16.351440 0.809853
DOCKED: USER    NEWDPF quaternion0 0.392521 0.123053 0.790758 -0.453307
DOCKED: USER    NEWDPF axisangle0 0.440364 0.138051 0.887142 -126.087890
DOCKED: USER    NEWDPF quat0 0.440364 0.138051 0.887142 -126.087890
DOCKED: USER    NEWDPF dihe0 117.52 30.84 127.79 14.33 84.46 143.19 -49.72 -93.02 153.20 -67.13 156.44 180.00 -43.92 73.21 -95.97 -34.45 -134.02 -137.30 38.78 -22.86 -24.77 -1.25 5.41 9.24 
DOCKED: USER  keepresnum = 1 
DOCKED: USER  
DOCKED: REMARK  24 active torsions:
DOCKED: REMARK  status: ('A' for Active; 'I' for Inactive)
DOCKED: REMARK    1  A    between atoms: C_1  and  O_7 
DOCKED: REMARK    2  A    between atoms: C_2  and  O_12 
DOCKED: REMARK    3  A    between atoms: C_3  and  O_17 
DOCKED: REMARK    4  A    between atoms: C_4  and  O_22 
DOCKED: REMARK    5  A    between atoms: C_5  and  O_27 
DOCKED: REMARK    6  A    between atoms: C_6  and  O_32 
DOCKED: REMARK    7  A    between atoms: O_7  and  P_8 
DOCKED: REMARK    8  A    between atoms: P_8  and  O_10 
DOCKED: REMARK    9  A    between atoms: P_8  and  O_11 
DOCKED: REMARK   10  A    between atoms: O_12  and  P_13 
DOCKED: REMARK   11  A    between atoms: P_13  and  O_15 
DOCKED: REMARK   12  A    between atoms: P_13  and  O_16 
DOCKED: REMARK   13  A    between atoms: O_17  and  P_18 
DOCKED: REMARK   14  A    between atoms: P_18  and  O_20 
DOCKED: REMARK   15  A    between atoms: P_18  and  O_21 
DOCKED: REMARK   16  A    between atoms: O_22  and  P_23 
DOCKED: REMARK   17  A    between atoms: P_23  and  O_25 
DOCKED: REMARK   18  A    between atoms: P_23  and  O_26 
DOCKED: REMARK   19  A    between atoms: O_27  and  P_28 
DOCKED: REMARK   20  A    between atoms: P_28  and  O_30 
DOCKED: REMARK   21  A    between atoms: P_28  and  O_31 
DOCKED: REMARK   22  A    between atoms: O_32  and  P_33 
DOCKED: REMARK   23  A    between atoms: P_33  and  O_35 
DOCKED: REMARK   24  A    between atoms: P_33  and  O_36 
DOCKED: USER                              x       y       z     vdW  Elec       q    Type
DOCKED: USER                           _______ _______ _______ _____ _____    ______ ____
DOCKED: ROOT
DOCKED: ATOM      1  C   UNL d   1     -17.140  17.739   1.482 -0.08 -0.03    +0.194 C 
DOCKED: ATOM      2  C   UNL d   1     -16.561  17.233   0.160 -0.12 -0.02    +0.194 C 
DOCKED: ATOM      3  C   UNL d   1     -16.446  15.707   0.139 -0.05 -0.16    +0.194 C 
DOCKED: ATOM      4  C   UNL d   1     -17.749  15.001   0.507 -0.07 -0.12    +0.194 C 
DOCKED: ATOM      5  C   UNL d   1     -18.422  15.552   1.758 -0.06 -0.08    +0.194 C 
DOCKED: ATOM      6  C   UNL d   1     -18.481  17.080   1.807 -0.02 -0.04    +0.194 C 
DOCKED: ENDROOT
DOCKED: BRANCH   1   7
DOCKED: ATOM      7  O   UNL d   1     -17.374  19.144   1.357 -0.02 -0.03    -0.278 OA
DOCKED: BRANCH   7   8
DOCKED: ATOM      8  P   UNL d   1     -16.155  20.143   1.615 -0.03 +0.20    +0.473 P 
DOCKED: ATOM      9  O   UNL d   1     -14.829  19.489   1.790 -0.62 -0.31    -0.228 OA
DOCKED: BRANCH   8  10
DOCKED: ATOM     10  O   UNL d   1     -16.203  21.141   0.371 -0.03 -0.13    -0.303 OA
DOCKED: ATOM     11  H   UNL d   1     -16.409  20.641  -0.441 +0.01 +0.09    +0.222 HD
DOCKED: ENDBRANCH   8  10
DOCKED: BRANCH   8  12
DOCKED: ATOM     12  O   UNL d   1     -16.631  21.077   2.809 -0.00 -0.05    -0.303 OA
DOCKED: ATOM     13  H   UNL d   1     -17.598  21.019   2.982 +0.01 +0.02    +0.222 HD
DOCKED: ENDBRANCH   8  12
DOCKED: ENDBRANCH   7   8
DOCKED: ENDBRANCH   1   7
DOCKED: BRANCH   2  14
DOCKED: ATOM     14  O   UNL d   1     -17.419  17.641  -0.912 -0.02 -0.01    -0.278 OA
DOCKED: BRANCH  14  15
DOCKED: ATOM     15  P   UNL d   1     -16.860  18.788  -1.880 -0.01 +0.12    +0.473 P 
DOCKED: ATOM     16  O   UNL d   1     -16.906  18.510  -3.349 -0.00 -0.03    -0.228 OA
DOCKED: BRANCH  15  17
DOCKED: ATOM     17  O   UNL d   1     -17.695  20.082  -1.470 +0.00 -0.05    -0.303 OA
DOCKED: ATOM     18  H   UNL d   1     -17.923  20.067  -0.520 +0.01 +0.03    +0.222 HD
DOCKED: ENDBRANCH  15  17
DOCKED: BRANCH  15  19
DOCKED: ATOM     19  O   UNL d   1     -15.423  19.137  -1.293 -0.18 -0.30    -0.303 OA
DOCKED: ATOM     20  H   UNL d   1     -15.443  19.230  -0.322 +0.01 +0.27    +0.222 HD
DOCKED: ENDBRANCH  15  19
DOCKED: ENDBRANCH  14  15
DOCKED: ENDBRANCH   2  14
DOCKED: BRANCH   6  21
DOCKED: ATOM     21  O   UNL d   1     -18.808  17.437   3.148 -0.00 +0.04    -0.278 OA
DOCKED: BRANCH  21  22
DOCKED: ATOM     22  P   UNL d   1     -20.040  18.411   3.431 +0.01 -0.02    +0.473 P 
DOCKED: ATOM     23  O   UNL d   1     -19.947  19.821   2.953 +0.00 +0.00    -0.228 OA
DOCKED: BRANCH  22  24
DOCKED: ATOM     24  O   UNL d   1     -21.256  17.580   2.828 +0.00 +0.01    -0.303 OA
DOCKED: ATOM     25  H   UNL d   1     -20.971  16.635   2.742 +0.01 -0.01    +0.222 HD
DOCKED: ENDBRANCH  22  24
DOCKED: BRANCH  22  26
DOCKED: ATOM     26  O   UNL d   1     -20.255  18.215   5.007 +0.00 +0.01    -0.303 OA
DOCKED: ATOM     27  H   UNL d   1     -19.996  17.305   5.257 +0.01 -0.01    +0.222 HD
DOCKED: ENDBRANCH  22  26
DOCKED: ENDBRANCH  21  22
DOCKED: ENDBRANCH   6  21
DOCKED: BRANCH   3  28
DOCKED: ATOM     28  O   UNL d   1     -16.170  15.317  -1.200 -0.12 +0.11    -0.278 OA
DOCKED: BRANCH  28  29
DOCKED: ATOM     29  P   UNL d   1     -14.735  14.751  -1.593 -0.23 -0.16    +0.473 P 
DOCKED: ATOM     30  O   UNL d   1     -13.596  15.677  -1.366 -0.15 -0.03    -0.228 OA
DOCKED: BRANCH  29  31
DOCKED: ATOM     31  O   UNL d   1     -14.736  13.384  -0.761 -0.23 +0.30    -0.303 OA
DOCKED: ATOM     32  H   UNL d   1     -15.603  13.297  -0.301 -0.45 -0.35    +0.222 HD
DOCKED: ENDBRANCH  29  31
DOCKED: BRANCH  29  33
DOCKED: ATOM     33  O   UNL d   1     -14.970  14.252  -3.087 -0.11 +0.02    -0.303 OA
DOCKED: ATOM     34  H   UNL d   1     -15.894  13.911  -3.170 +0.05 -0.02    +0.222 HD
DOCKED: ENDBRANCH  29  33
DOCKED: ENDBRANCH  28  29
DOCKED: ENDBRANCH   3  28
DOCKED: BRANCH   5  35
DOCKED: ATOM     35  O   UNL d   1     -19.767  15.081   1.713 -0.01 +0.05    -0.278 OA
DOCKED: BRANCH  35  36
DOCKED: ATOM     36  P   UNL d   1     -20.459  14.496   3.026 +0.01 -0.05    +0.473 P 
DOCKED: ATOM     37  O   UNL d   1     -20.289  13.026   3.244 -0.01 +0.02    -0.228 OA
DOCKED: BRANCH  36  38
DOCKED: ATOM     38  O   UNL d   1     -19.818  15.406   4.165 -0.00 +0.04    -0.303 OA
DOCKED: ATOM     39  H   UNL d   1     -20.319  16.247   4.224 +0.01 -0.02    +0.222 HD
DOCKED: ENDBRANCH  36  38
DOCKED: BRANCH  36  40
DOCKED: ATOM     40  O   UNL d   1     -21.948  15.039   2.896 +0.00 +0.01    -0.303 OA
DOCKED: ATOM     41  H   UNL d   1     -22.137  15.745   3.554 +0.00 -0.00    +0.222 HD
DOCKED: ENDBRANCH  36  40
DOCKED: ENDBRANCH  35  36
DOCKED: ENDBRANCH   5  35
DOCKED: BRANCH   4  42
DOCKED: ATOM     42  O   UNL d   1     -17.419  13.634   0.774 +0.01 +0.30    -0.278 OA
DOCKED: BRANCH  42  43
DOCKED: ATOM     43  P   UNL d   1     -17.722  12.535  -0.342 -0.05 -0.20    +0.473 P 
DOCKED: ATOM     44  O   UNL d   1     -19.042  11.846  -0.286 -0.02 +0.03    -0.228 OA
DOCKED: BRANCH  43  45
DOCKED: ATOM     45  O   UNL d   1     -17.459  13.330  -1.695 -0.04 +0.08    -0.303 OA
DOCKED: ATOM     46  H   UNL d   1     -16.509  13.338  -1.927 +0.05 -0.07    +0.222 HD
DOCKED: ENDBRANCH  43  45
DOCKED: BRANCH  43  47
DOCKED: ATOM     47  O   UNL d   1     -16.438  11.578  -0.272 -0.17 +0.16    -0.303 OA
DOCKED: ATOM     48  H   UNL d   1     -15.818  11.919   0.405 -0.37 -0.28    +0.222 HD
DOCKED: ENDBRANCH  43  47
DOCKED: ENDBRANCH  42  43
DOCKED: ENDBRANCH   4  42
DOCKED: TORSDOF 24
DOCKED: TER
DOCKED: ENDMDL
________________________________________________________________________________


	BEGINNING GENETIC ALGORITHM DOCKING 90 of 100
Run: 90 Seed: 1611132635 178704641 [ Run 90 of 100 GA/GALS ]
Beginning LAMARCKIAN GENETIC ALGORITHM (LGA), with a maximum of 25000000 energy evaluations.

Final-Value: -19.177


	FINAL GENETIC ALGORITHM DOCKED STATE
	_______________________________________________


Detailed state:  trans 7.546 -12.945 -10.203 quatxyzw -0.051888 -0.168758 0.981764 -0.070483 center 0.035 0.082 -0.065 ntor 24 -116.2708 -27.5678 144.2640 30.4409 37.6201 177.1965 15.3121 -180.0000 1.3274 35.8442 97.3475 135.2858 -172.8411 180.0000 161.4850 121.3583 153.4938 31.3825 59.1692 3.6748 -12.9540 -17.1383 -20.5484 -8.8697
State:	  7.546 -12.945 -10.203  -0.052 -0.169  0.984 -171.917   -116.27  -27.57  144.26   30.44   37.62  177.20   15.31 -180.00    1.33   35.84   97.35  135.29 -172.84  180.00  161.49  121.36  153.49   31.38   59.17    3.67  -12.95  -17.14  -20.55   -8.87

DOCKED: MODEL       90
DOCKED: USER    Run = 90
DOCKED: USER    DPF = D:/Protein_go_brrr/autodock/final/AncMH_nat/IHP/dock.dpf
DOCKED: USER  
DOCKED: USER    Estimated Free Energy of Binding    =   +3.03 kcal/mol  [=(1)+(2)+(3)-(4)]
DOCKED: USER    
DOCKED: USER    (1) Final Intermolecular Energy     =   -4.13 kcal/mol
DOCKED: USER        vdW + Hbond + desolv Energy     =   -4.08 kcal/mol
DOCKED: USER        Electrostatic Energy            =   -0.05 kcal/mol
DOCKED: USER    (2) Final Total Internal Energy     =  -15.05 kcal/mol
DOCKED: USER    (3) Torsional Free Energy           =   +7.16 kcal/mol
DOCKED: USER    (4) Unbound System's Energy  [=(2)] =  -15.05 kcal/mol
DOCKED: USER    
DOCKED: USER    
DOCKED: USER    NEWDPF move IHP_ideal_opt.pdbqt
DOCKED: USER    NEWDPF about 0.035000 0.082000 -0.065000
DOCKED: USER    NEWDPF tran0 7.546055 -12.944601 -10.202830
DOCKED: USER    NEWDPF quaternion0 -0.051888 -0.168758 0.981764 -0.070483
DOCKED: USER    NEWDPF axisangle0 -0.052018 -0.169179 0.984212 -171.916515
DOCKED: USER    NEWDPF quat0 -0.052018 -0.169179 0.984212 -171.916515
DOCKED: USER    NEWDPF dihe0 -116.27 -27.57 144.26 30.44 37.62 177.20 15.31 -180.00 1.33 35.84 97.35 135.29 -172.84 180.00 161.49 121.36 153.49 31.38 59.17 3.67 -12.95 -17.14 -20.55 -8.87 
DOCKED: USER  keepresnum = 1 
DOCKED: USER  
DOCKED: REMARK  24 active torsions:
DOCKED: REMARK  status: ('A' for Active; 'I' for Inactive)
DOCKED: REMARK    1  A    between atoms: C_1  and  O_7 
DOCKED: REMARK    2  A    between atoms: C_2  and  O_12 
DOCKED: REMARK    3  A    between atoms: C_3  and  O_17 
DOCKED: REMARK    4  A    between atoms: C_4  and  O_22 
DOCKED: REMARK    5  A    between atoms: C_5  and  O_27 
DOCKED: REMARK    6  A    between atoms: C_6  and  O_32 
DOCKED: REMARK    7  A    between atoms: O_7  and  P_8 
DOCKED: REMARK    8  A    between atoms: P_8  and  O_10 
DOCKED: REMARK    9  A    between atoms: P_8  and  O_11 
DOCKED: REMARK   10  A    between atoms: O_12  and  P_13 
DOCKED: REMARK   11  A    between atoms: P_13  and  O_15 
DOCKED: REMARK   12  A    between atoms: P_13  and  O_16 
DOCKED: REMARK   13  A    between atoms: O_17  and  P_18 
DOCKED: REMARK   14  A    between atoms: P_18  and  O_20 
DOCKED: REMARK   15  A    between atoms: P_18  and  O_21 
DOCKED: REMARK   16  A    between atoms: O_22  and  P_23 
DOCKED: REMARK   17  A    between atoms: P_23  and  O_25 
DOCKED: REMARK   18  A    between atoms: P_23  and  O_26 
DOCKED: REMARK   19  A    between atoms: O_27  and  P_28 
DOCKED: REMARK   20  A    between atoms: P_28  and  O_30 
DOCKED: REMARK   21  A    between atoms: P_28  and  O_31 
DOCKED: REMARK   22  A    between atoms: O_32  and  P_33 
DOCKED: REMARK   23  A    between atoms: P_33  and  O_35 
DOCKED: REMARK   24  A    between atoms: P_33  and  O_36 
DOCKED: USER                              x       y       z     vdW  Elec       q    Type
DOCKED: USER                           _______ _______ _______ _____ _____    ______ ____
DOCKED: ROOT
DOCKED: ATOM      1  C   UNL d   1       6.320 -12.177  -9.258 -0.07 -0.02    +0.194 C 
DOCKED: ATOM      2  C   UNL d   1       7.693 -11.502  -9.234 -0.07 -0.03    +0.194 C 
DOCKED: ATOM      3  C   UNL d   1       8.824 -12.523  -9.099 -0.03 -0.03    +0.194 C 
DOCKED: ATOM      4  C   UNL d   1       8.750 -13.644 -10.133 +0.00 -0.03    +0.194 C 
DOCKED: ATOM      5  C   UNL d   1       7.368 -14.269 -10.272 +0.00 -0.02    +0.194 C 
DOCKED: ATOM      6  C   UNL d   1       6.231 -13.249 -10.346 -0.03 -0.02    +0.194 C 
DOCKED: ENDROOT
DOCKED: BRANCH   1   7
DOCKED: ATOM      7  O   UNL d   1       5.339 -11.182  -9.559 -0.26 +0.00    -0.278 OA
DOCKED: BRANCH   7   8
DOCKED: ATOM      8  P   UNL d   1       5.133  -9.982  -8.525 -0.19 +0.00    +0.473 P 
DOCKED: ATOM      9  O   UNL d   1       3.759  -9.856  -7.969 -1.21 -0.05    -0.228 OA
DOCKED: BRANCH   8  10
DOCKED: ATOM     10  O   UNL d   1       6.242 -10.240  -7.407 -0.19 +0.01    -0.303 OA
DOCKED: ATOM     11  H   UNL d   1       7.086  -9.837  -7.684 +0.12 -0.03    +0.222 HD
DOCKED: ENDBRANCH   8  10
DOCKED: BRANCH   8  12
DOCKED: ATOM     12  O   UNL d   1       5.702  -8.696  -9.266 -0.21 +0.05    -0.303 OA
DOCKED: ATOM     13  H   UNL d   1       6.684  -8.689  -9.326 +0.11 -0.02    +0.222 HD
DOCKED: ENDBRANCH   8  12
DOCKED: ENDBRANCH   7   8
DOCKED: ENDBRANCH   1   7
DOCKED: BRANCH   2  14
DOCKED: ATOM     14  O   UNL d   1       7.877 -10.776 -10.456 -0.04 +0.04    -0.278 OA
DOCKED: BRANCH  14  15
DOCKED: ATOM     15  P   UNL d   1       8.480  -9.298 -10.326 -0.14 -0.09    +0.473 P 
DOCKED: ATOM     16  O   UNL d   1       7.679  -8.190 -10.936 -0.23 +0.01    -0.228 OA
DOCKED: BRANCH  15  17
DOCKED: ATOM     17  O   UNL d   1       8.706  -9.107  -8.761 -0.18 +0.08    -0.303 OA
DOCKED: ATOM     18  H   UNL d   1       9.174  -9.874  -8.377 +0.09 -0.07    +0.222 HD
DOCKED: ENDBRANCH  15  17
DOCKED: BRANCH  15  19
DOCKED: ATOM     19  O   UNL d   1       9.976  -9.432 -10.851 -0.11 +0.12    -0.303 OA
DOCKED: ATOM     20  H   UNL d   1      10.335 -10.324 -10.691 +0.05 -0.08    +0.222 HD
DOCKED: ENDBRANCH  15  19
DOCKED: ENDBRANCH  14  15
DOCKED: ENDBRANCH   2  14
DOCKED: BRANCH   6  21
DOCKED: ATOM     21  O   UNL d   1       5.018 -13.966 -10.127 -0.06 +0.03    -0.278 OA
DOCKED: BRANCH  21  22
DOCKED: ATOM     22  P   UNL d   1       3.935 -14.065 -11.294 +0.06 -0.03    +0.473 P 
DOCKED: ATOM     23  O   UNL d   1       2.579 -14.587 -10.955 -0.47 +0.04    -0.228 OA
DOCKED: BRANCH  22  24
DOCKED: ATOM     24  O   UNL d   1       3.953 -12.585 -11.880 -0.36 +0.00    -0.303 OA
DOCKED: ATOM     25  H   UNL d   1       4.210 -11.967 -11.149 +0.06 +0.00    +0.222 HD
DOCKED: ENDBRANCH  22  24
DOCKED: BRANCH  22  26
DOCKED: ATOM     26  O   UNL d   1       4.740 -14.876 -12.418 -0.01 +0.03    -0.303 OA
DOCKED: ATOM     27  H   UNL d   1       5.621 -15.121 -12.069 +0.01 -0.02    +0.222 HD
DOCKED: ENDBRANCH  22  26
DOCKED: ENDBRANCH  21  22
DOCKED: ENDBRANCH   6  21
DOCKED: BRANCH   3  28
DOCKED: ATOM     28  O   UNL d   1      10.046 -11.846  -9.363 -0.02 +0.07    -0.278 OA
DOCKED: BRANCH  28  29
DOCKED: ATOM     29  P   UNL d   1      10.897 -11.226  -8.168 -0.07 -0.16    +0.473 P 
DOCKED: ATOM     30  O   UNL d   1      11.990 -12.087  -7.647 -0.05 +0.06    -0.228 OA
DOCKED: BRANCH  29  31
DOCKED: ATOM     31  O   UNL d   1      11.323  -9.829  -8.823 -0.16 +0.19    -0.303 OA
DOCKED: ATOM     32  H   UNL d   1      10.514  -9.278  -8.940 +0.05 -0.14    +0.222 HD
DOCKED: ENDBRANCH  29  31
DOCKED: BRANCH  29  33
DOCKED: ATOM     33  O   UNL d   1       9.763 -10.799  -7.136 -0.15 +0.14    -0.303 OA
DOCKED: ATOM     34  H   UNL d   1       9.828  -9.827  -6.971 -0.30 -0.12    +0.222 HD
DOCKED: ENDBRANCH  29  33
DOCKED: ENDBRANCH  28  29
DOCKED: ENDBRANCH   3  28
DOCKED: BRANCH   5  35
DOCKED: ATOM     35  O   UNL d   1       7.384 -14.971 -11.513 +0.00 +0.03    -0.278 OA
DOCKED: BRANCH  35  36
DOCKED: ATOM     36  P   UNL d   1       7.367 -16.566 -11.537 +0.01 -0.05    +0.473 P 
DOCKED: ATOM     37  O   UNL d   1       7.799 -17.196 -12.823 +0.00 +0.02    -0.228 OA
DOCKED: BRANCH  36  38
DOCKED: ATOM     38  O   UNL d   1       8.293 -16.920 -10.291 +0.00 +0.03    -0.303 OA
DOCKED: ATOM     39  H   UNL d   1       9.218 -16.663 -10.495 +0.00 -0.02    +0.222 HD
DOCKED: ENDBRANCH  36  38
DOCKED: BRANCH  36  40
DOCKED: ATOM     40  O   UNL d   1       5.897 -16.897 -11.028 +0.00 +0.04    -0.303 OA
DOCKED: ATOM     41  H   UNL d   1       5.417 -16.087 -10.747 +0.01 -0.03    +0.222 HD
DOCKED: ENDBRANCH  36  40
DOCKED: ENDBRANCH  35  36
DOCKED: ENDBRANCH   5  35
DOCKED: BRANCH   4  42
DOCKED: ATOM     42  O   UNL d   1       9.637 -14.676  -9.689 +0.00 +0.04    -0.278 OA
DOCKED: BRANCH  42  43
DOCKED: ATOM     43  P   UNL d   1      10.853 -15.104 -10.628 +0.00 -0.06    +0.473 P 
DOCKED: ATOM     44  O   UNL d   1      12.040 -14.204 -10.668 +0.00 +0.03    -0.228 OA
DOCKED: BRANCH  43  45
DOCKED: ATOM     45  O   UNL d   1      11.173 -16.582 -10.133 +0.00 +0.03    -0.303 OA
DOCKED: ATOM     46  H   UNL d   1      10.393 -16.996  -9.714 +0.00 -0.02    +0.222 HD
DOCKED: ENDBRANCH  43  45
DOCKED: BRANCH  43  47
DOCKED: ATOM     47  O   UNL d   1      10.147 -15.379 -12.040 +0.00 +0.03    -0.303 OA
DOCKED: ATOM     48  H   UNL d   1       9.340 -15.917 -11.898 +0.00 -0.02    +0.222 HD
DOCKED: ENDBRANCH  43  47
DOCKED: ENDBRANCH  42  43
DOCKED: ENDBRANCH   4  42
DOCKED: TORSDOF 24
DOCKED: TER
DOCKED: ENDMDL
________________________________________________________________________________


	BEGINNING GENETIC ALGORITHM DOCKING 91 of 100
Run: 91 Seed: 1075559063 539478186 [ Run 91 of 100 GA/GALS ]
Beginning LAMARCKIAN GENETIC ALGORITHM (LGA), with a maximum of 25000000 energy evaluations.

Final-Value: -19.088


	FINAL GENETIC ALGORITHM DOCKED STATE
	_______________________________________________


Detailed state:  trans -15.589 2.823 15.866 quatxyzw -0.005902 0.918186 0.382801 -0.101795 center 0.035 0.082 -0.065 ntor 24 -161.7830 11.8131 31.1480 109.5206 148.2741 150.2961 -108.8017 41.7110 33.0053 86.9910 -180.0000 159.6384 49.0229 -29.0364 65.9664 14.6358 -30.9962 172.3717 -9.2944 -54.0877 -26.9112 177.1397 -27.1988 -0.5695
State:	-15.589   2.823  15.866  -0.006  0.923  0.385 -168.315   -161.78   11.81   31.15  109.52  148.27  150.30 -108.80   41.71   33.01   86.99 -180.00  159.64   49.02  -29.04   65.97   14.64  -31.00  172.37   -9.29  -54.09  -26.91  177.14  -27.20   -0.57

DOCKED: MODEL       91
DOCKED: USER    Run = 91
DOCKED: USER    DPF = D:/Protein_go_brrr/autodock/final/AncMH_nat/IHP/dock.dpf
DOCKED: USER  
DOCKED: USER    Estimated Free Energy of Binding    =   +2.79 kcal/mol  [=(1)+(2)+(3)-(4)]
DOCKED: USER    
DOCKED: USER    (1) Final Intermolecular Energy     =   -4.37 kcal/mol
DOCKED: USER        vdW + Hbond + desolv Energy     =   -4.27 kcal/mol
DOCKED: USER        Electrostatic Energy            =   -0.10 kcal/mol
DOCKED: USER    (2) Final Total Internal Energy     =  -14.72 kcal/mol
DOCKED: USER    (3) Torsional Free Energy           =   +7.16 kcal/mol
DOCKED: USER    (4) Unbound System's Energy  [=(2)] =  -14.72 kcal/mol
DOCKED: USER    
DOCKED: USER    
DOCKED: USER    NEWDPF move IHP_ideal_opt.pdbqt
DOCKED: USER    NEWDPF about 0.035000 0.082000 -0.065000
DOCKED: USER    NEWDPF tran0 -15.589206 2.822556 15.865991
DOCKED: USER    NEWDPF quaternion0 -0.005902 0.918186 0.382801 -0.101795
DOCKED: USER    NEWDPF axisangle0 -0.005933 0.922981 0.384800 -168.314884
DOCKED: USER    NEWDPF quat0 -0.005933 0.922981 0.384800 -168.314884
DOCKED: USER    NEWDPF dihe0 -161.78 11.81 31.15 109.52 148.27 150.30 -108.80 41.71 33.01 86.99 -180.00 159.64 49.02 -29.04 65.97 14.64 -31.00 172.37 -9.29 -54.09 -26.91 177.14 -27.20 -0.57 
DOCKED: USER  keepresnum = 1 
DOCKED: USER  
DOCKED: REMARK  24 active torsions:
DOCKED: REMARK  status: ('A' for Active; 'I' for Inactive)
DOCKED: REMARK    1  A    between atoms: C_1  and  O_7 
DOCKED: REMARK    2  A    between atoms: C_2  and  O_12 
DOCKED: REMARK    3  A    between atoms: C_3  and  O_17 
DOCKED: REMARK    4  A    between atoms: C_4  and  O_22 
DOCKED: REMARK    5  A    between atoms: C_5  and  O_27 
DOCKED: REMARK    6  A    between atoms: C_6  and  O_32 
DOCKED: REMARK    7  A    between atoms: O_7  and  P_8 
DOCKED: REMARK    8  A    between atoms: P_8  and  O_10 
DOCKED: REMARK    9  A    between atoms: P_8  and  O_11 
DOCKED: REMARK   10  A    between atoms: O_12  and  P_13 
DOCKED: REMARK   11  A    between atoms: P_13  and  O_15 
DOCKED: REMARK   12  A    between atoms: P_13  and  O_16 
DOCKED: REMARK   13  A    between atoms: O_17  and  P_18 
DOCKED: REMARK   14  A    between atoms: P_18  and  O_20 
DOCKED: REMARK   15  A    between atoms: P_18  and  O_21 
DOCKED: REMARK   16  A    between atoms: O_22  and  P_23 
DOCKED: REMARK   17  A    between atoms: P_23  and  O_25 
DOCKED: REMARK   18  A    between atoms: P_23  and  O_26 
DOCKED: REMARK   19  A    between atoms: O_27  and  P_28 
DOCKED: REMARK   20  A    between atoms: P_28  and  O_30 
DOCKED: REMARK   21  A    between atoms: P_28  and  O_31 
DOCKED: REMARK   22  A    between atoms: O_32  and  P_33 
DOCKED: REMARK   23  A    between atoms: P_33  and  O_35 
DOCKED: REMARK   24  A    between atoms: P_33  and  O_36 
DOCKED: USER                              x       y       z     vdW  Elec       q    Type
DOCKED: USER                           _______ _______ _______ _____ _____    ______ ____
DOCKED: ROOT
DOCKED: ATOM      1  C   UNL d   1     -16.593   2.836  14.460 -0.21 +0.05    +0.194 C 
DOCKED: ATOM      2  C   UNL d   1     -15.367   1.924  14.388 -0.25 +0.00    +0.194 C 
DOCKED: ATOM      3  C   UNL d   1     -14.120   2.605  14.957 -0.27 -0.01    +0.194 C 
DOCKED: ATOM      4  C   UNL d   1     -14.333   3.176  16.357 -0.20 +0.01    +0.194 C 
DOCKED: ATOM      5  C   UNL d   1     -15.607   3.999  16.504 -0.11 +0.06    +0.194 C 
DOCKED: ATOM      6  C   UNL d   1     -16.842   3.346  15.880 -0.13 +0.08    +0.194 C 
DOCKED: ENDROOT
DOCKED: BRANCH   1   7
DOCKED: ATOM      7  O   UNL d   1     -17.739   2.074  14.074 -0.08 -0.06    -0.278 OA
DOCKED: BRANCH   7   8
DOCKED: ATOM      8  P   UNL d   1     -18.742   2.701  13.001 -0.11 +0.12    +0.473 P 
DOCKED: ATOM      9  O   UNL d   1     -18.582   2.190  11.613 -0.15 -0.02    -0.228 OA
DOCKED: BRANCH   8  10
DOCKED: ATOM     10  O   UNL d   1     -20.189   2.418  13.611 -0.02 -0.09    -0.303 OA
DOCKED: ATOM     11  H   UNL d   1     -20.171   2.567  14.575 +0.03 +0.08    +0.222 HD
DOCKED: ENDBRANCH   8  10
DOCKED: BRANCH   8  12
DOCKED: ATOM     12  O   UNL d   1     -18.607   4.274  13.181 -0.18 -0.19    -0.303 OA
DOCKED: ATOM     13  H   UNL d   1     -18.432   4.543  14.111 +0.05 +0.23    +0.222 HD
DOCKED: ENDBRANCH   8  12
DOCKED: ENDBRANCH   7   8
DOCKED: ENDBRANCH   1   7
DOCKED: BRANCH   2  14
DOCKED: ATOM     14  O   UNL d   1     -15.624   0.735  15.146 -0.08 -0.02    -0.278 OA
DOCKED: BRANCH  14  15
DOCKED: ATOM     15  P   UNL d   1     -16.559  -0.366  14.454 -0.02 +0.06    +0.473 P 
DOCKED: ATOM     16  O   UNL d   1     -16.579  -0.386  12.958 -0.09 -0.02    -0.228 OA
DOCKED: BRANCH  15  17
DOCKED: ATOM     17  O   UNL d   1     -16.065  -1.744  15.083 -0.08 -0.05    -0.303 OA
DOCKED: ATOM     18  H   UNL d   1     -15.143  -1.938  14.826 -0.01 +0.01    +0.222 HD
DOCKED: ENDBRANCH  15  17
DOCKED: BRANCH  15  19
DOCKED: ATOM     19  O   UNL d   1     -17.974  -0.183  15.157 -0.00 -0.06    -0.303 OA
DOCKED: ATOM     20  H   UNL d   1     -18.258   0.750  15.158 +0.03 +0.04    +0.222 HD
DOCKED: ENDBRANCH  15  19
DOCKED: ENDBRANCH  14  15
DOCKED: ENDBRANCH   2  14
DOCKED: BRANCH   6  21
DOCKED: ATOM     21  O   UNL d   1     -17.843   4.357  15.792 -0.17 -0.27    -0.278 OA
DOCKED: BRANCH  21  22
DOCKED: ATOM     22  P   UNL d   1     -19.306   4.075  16.363 -0.06 +0.37    +0.473 P 
DOCKED: ATOM     23  O   UNL d   1     -19.626   4.543  17.743 -0.07 -0.13    -0.228 OA
DOCKED: BRANCH  22  24
DOCKED: ATOM     24  O   UNL d   1     -20.226   4.690  15.219 -0.43 -0.33    -0.303 OA
DOCKED: ATOM     25  H   UNL d   1     -20.310   4.017  14.496 +0.03 +0.15    +0.222 HD
DOCKED: ENDBRANCH  22  24
DOCKED: BRANCH  22  26
DOCKED: ATOM     26  O   UNL d   1     -19.460   2.501  16.101 -0.02 -0.10    -0.303 OA
DOCKED: ATOM     27  H   UNL d   1     -18.860   2.236  15.374 +0.03 +0.07    +0.222 HD
DOCKED: ENDBRANCH  22  26
DOCKED: ENDBRANCH  21  22
DOCKED: ENDBRANCH   6  21
DOCKED: BRANCH   3  28
DOCKED: ATOM     28  O   UNL d   1     -13.118   1.607  15.106 -0.19 +0.02    -0.278 OA
DOCKED: BRANCH  28  29
DOCKED: ATOM     29  P   UNL d   1     -13.237   0.511  16.254 -0.19 -0.01    +0.473 P 
DOCKED: ATOM     30  O   UNL d   1     -14.285   0.766  17.277 -0.08 -0.01    -0.228 OA
DOCKED: BRANCH  29  31
DOCKED: ATOM     31  O   UNL d   1     -13.397  -0.810  15.364 -0.34 -0.01    -0.303 OA
DOCKED: ATOM     32  H   UNL d   1     -14.178  -0.698  14.775 +0.10 +0.01    +0.222 HD
DOCKED: ENDBRANCH  29  31
DOCKED: BRANCH  29  33
DOCKED: ATOM     33  O   UNL d   1     -11.736   0.405  16.773 -0.20 +0.03    -0.303 OA
DOCKED: ATOM     34  H   UNL d   1     -11.648   0.925  17.609 +0.02 -0.04    +0.222 HD
DOCKED: ENDBRANCH  29  33
DOCKED: ENDBRANCH  28  29
DOCKED: ENDBRANCH   3  28
DOCKED: BRANCH   5  35
DOCKED: ATOM     35  O   UNL d   1     -15.846   4.094  17.907 -0.05 -0.07    -0.278 OA
DOCKED: BRANCH  35  36
DOCKED: ATOM     36  P   UNL d   1     -15.512   5.443  18.690 -0.03 +0.12    +0.473 P 
DOCKED: ATOM     37  O   UNL d   1     -15.251   6.640  17.832 -0.09 -0.09    -0.228 OA
DOCKED: BRANCH  36  38
DOCKED: ATOM     38  O   UNL d   1     -16.778   5.587  19.646 -0.01 -0.08    -0.303 OA
DOCKED: ATOM     39  H   UNL d   1     -17.579   5.285  19.165 +0.02 +0.08    +0.222 HD
DOCKED: ENDBRANCH  36  38
DOCKED: BRANCH  36  40
DOCKED: ATOM     40  O   UNL d   1     -14.344   4.988  19.669 -0.01 -0.02    -0.303 OA
DOCKED: ATOM     41  H   UNL d   1     -13.672   4.442  19.204 +0.03 +0.00    +0.222 HD
DOCKED: ENDBRANCH  36  40
DOCKED: ENDBRANCH  35  36
DOCKED: ENDBRANCH   5  35
DOCKED: BRANCH   4  42
DOCKED: ATOM     42  O   UNL d   1     -13.233   4.053  16.619 -0.18 +0.02    -0.278 OA
DOCKED: BRANCH  42  43
DOCKED: ATOM     43  P   UNL d   1     -12.166   3.642  17.731 -0.10 -0.04    +0.473 P 
DOCKED: ATOM     44  O   UNL d   1     -11.620   4.727  18.593 -0.05 +0.03    -0.228 OA
DOCKED: BRANCH  43  45
DOCKED: ATOM     45  O   UNL d   1     -12.922   2.493  18.532 -0.04 +0.02    -0.303 OA
DOCKED: ATOM     46  H   UNL d   1     -12.548   1.612  18.331 +0.07 -0.02    +0.222 HD
DOCKED: ENDBRANCH  43  45
DOCKED: BRANCH  43  47
DOCKED: ATOM     47  O   UNL d   1     -11.080   2.802  16.904 -0.47 +0.01    -0.303 OA
DOCKED: ATOM     48  H   UNL d   1     -11.488   2.472  16.077 +0.09 -0.02    +0.222 HD
DOCKED: ENDBRANCH  43  47
DOCKED: ENDBRANCH  42  43
DOCKED: ENDBRANCH   4  42
DOCKED: TORSDOF 24
DOCKED: TER
DOCKED: ENDMDL
________________________________________________________________________________


	BEGINNING GENETIC ALGORITHM DOCKING 92 of 100
Run: 92 Seed: 160014654 1728262464 [ Run 92 of 100 GA/GALS ]
Beginning LAMARCKIAN GENETIC ALGORITHM (LGA), with a maximum of 25000000 energy evaluations.

Final-Value: -17.844


	FINAL GENETIC ALGORITHM DOCKED STATE
	_______________________________________________


Detailed state:  trans 1.066 0.085 -14.538 quatxyzw 0.322359 -0.207312 0.783504 -0.489109 center 0.035 0.082 -0.065 ntor 24 18.0549 84.9810 27.4825 101.1362 117.6582 -159.4320 -125.1242 18.0026 -8.7524 29.9774 -86.5017 -67.2519 16.6345 -83.9061 69.1770 -159.4131 168.3627 -29.3323 -137.5569 -3.1375 28.9951 -21.5260 178.6082 172.6359
State:	  1.066   0.085 -14.538   0.370 -0.238  0.898 -121.436     18.05   84.98   27.48  101.14  117.66 -159.43 -125.12   18.00   -8.75   29.98  -86.50  -67.25   16.63  -83.91   69.18 -159.41  168.36  -29.33 -137.56   -3.14   29.00  -21.53  178.61  172.64

DOCKED: MODEL       92
DOCKED: USER    Run = 92
DOCKED: USER    DPF = D:/Protein_go_brrr/autodock/final/AncMH_nat/IHP/dock.dpf
DOCKED: USER  
DOCKED: USER    Estimated Free Energy of Binding    =   +1.02 kcal/mol  [=(1)+(2)+(3)-(4)]
DOCKED: USER    
DOCKED: USER    (1) Final Intermolecular Energy     =   -6.14 kcal/mol
DOCKED: USER        vdW + Hbond + desolv Energy     =   -6.08 kcal/mol
DOCKED: USER        Electrostatic Energy            =   -0.07 kcal/mol
DOCKED: USER    (2) Final Total Internal Energy     =  -11.70 kcal/mol
DOCKED: USER    (3) Torsional Free Energy           =   +7.16 kcal/mol
DOCKED: USER    (4) Unbound System's Energy  [=(2)] =  -11.70 kcal/mol
DOCKED: USER    
DOCKED: USER    
DOCKED: USER    NEWDPF move IHP_ideal_opt.pdbqt
DOCKED: USER    NEWDPF about 0.035000 0.082000 -0.065000
DOCKED: USER    NEWDPF tran0 1.066172 0.085096 -14.538402
DOCKED: USER    NEWDPF quaternion0 0.322359 -0.207312 0.783504 -0.489109
DOCKED: USER    NEWDPF axisangle0 0.369584 -0.237682 0.898285 -121.435877
DOCKED: USER    NEWDPF quat0 0.369584 -0.237682 0.898285 -121.435877
DOCKED: USER    NEWDPF dihe0 18.05 84.98 27.48 101.14 117.66 -159.43 -125.12 18.00 -8.75 29.98 -86.50 -67.25 16.63 -83.91 69.18 -159.41 168.36 -29.33 -137.56 -3.14 29.00 -21.53 178.61 172.64 
DOCKED: USER  keepresnum = 1 
DOCKED: USER  
DOCKED: REMARK  24 active torsions:
DOCKED: REMARK  status: ('A' for Active; 'I' for Inactive)
DOCKED: REMARK    1  A    between atoms: C_1  and  O_7 
DOCKED: REMARK    2  A    between atoms: C_2  and  O_12 
DOCKED: REMARK    3  A    between atoms: C_3  and  O_17 
DOCKED: REMARK    4  A    between atoms: C_4  and  O_22 
DOCKED: REMARK    5  A    between atoms: C_5  and  O_27 
DOCKED: REMARK    6  A    between atoms: C_6  and  O_32 
DOCKED: REMARK    7  A    between atoms: O_7  and  P_8 
DOCKED: REMARK    8  A    between atoms: P_8  and  O_10 
DOCKED: REMARK    9  A    between atoms: P_8  and  O_11 
DOCKED: REMARK   10  A    between atoms: O_12  and  P_13 
DOCKED: REMARK   11  A    between atoms: P_13  and  O_15 
DOCKED: REMARK   12  A    between atoms: P_13  and  O_16 
DOCKED: REMARK   13  A    between atoms: O_17  and  P_18 
DOCKED: REMARK   14  A    between atoms: P_18  and  O_20 
DOCKED: REMARK   15  A    between atoms: P_18  and  O_21 
DOCKED: REMARK   16  A    between atoms: O_22  and  P_23 
DOCKED: REMARK   17  A    between atoms: P_23  and  O_25 
DOCKED: REMARK   18  A    between atoms: P_23  and  O_26 
DOCKED: REMARK   19  A    between atoms: O_27  and  P_28 
DOCKED: REMARK   20  A    between atoms: P_28  and  O_30 
DOCKED: REMARK   21  A    between atoms: P_28  and  O_31 
DOCKED: REMARK   22  A    between atoms: O_32  and  P_33 
DOCKED: REMARK   23  A    between atoms: P_33  and  O_35 
DOCKED: REMARK   24  A    between atoms: P_33  and  O_36 
DOCKED: USER                              x       y       z     vdW  Elec       q    Type
DOCKED: USER                           _______ _______ _______ _____ _____    ______ ____
DOCKED: ROOT
DOCKED: ATOM      1  C   UNL d   1       1.712   0.758 -13.084 -0.27 -0.02    +0.194 C 
DOCKED: ATOM      2  C   UNL d   1       2.715   0.555 -14.221 -0.22 -0.02    +0.194 C 
DOCKED: ATOM      3  C   UNL d   1       2.520  -0.795 -14.914 -0.12 -0.01    +0.194 C 
DOCKED: ATOM      4  C   UNL d   1       1.082  -1.038 -15.364 -0.11 -0.01    +0.194 C 
DOCKED: ATOM      5  C   UNL d   1       0.038  -0.737 -14.296 -0.22 -0.01    +0.194 C 
DOCKED: ATOM      6  C   UNL d   1       0.269   0.585 -13.560 -0.25 -0.01    +0.194 C 
DOCKED: ENDROOT
DOCKED: BRANCH   1   7
DOCKED: ATOM      7  O   UNL d   1       1.844   2.099 -12.607 -0.27 +0.01    -0.278 OA
DOCKED: BRANCH   7   8
DOCKED: ATOM      8  P   UNL d   1       0.790   3.191 -13.105 -0.20 +0.00    +0.473 P 
DOCKED: ATOM      9  O   UNL d   1      -0.599   3.001 -12.605 -0.35 -0.01    -0.228 OA
DOCKED: BRANCH   8  10
DOCKED: ATOM     10  O   UNL d   1       1.433   4.581 -12.661 -0.33 -0.03    -0.303 OA
DOCKED: ATOM     11  H   UNL d   1       0.734   5.172 -12.325 +0.11 +0.02    +0.222 HD
DOCKED: ENDBRANCH   8  10
DOCKED: BRANCH   8  12
DOCKED: ATOM     12  O   UNL d   1       0.957   3.236 -14.685 -0.06 +0.01    -0.303 OA
DOCKED: ATOM     13  H   UNL d   1       1.091   2.346 -15.084 +0.08 -0.01    +0.222 HD
DOCKED: ENDBRANCH   8  12
DOCKED: ENDBRANCH   7   8
DOCKED: ENDBRANCH   1   7
DOCKED: BRANCH   2  14
DOCKED: ATOM     14  O   UNL d   1       2.540   1.596 -15.190 -0.06 +0.03    -0.278 OA
DOCKED: BRANCH  14  15
DOCKED: ATOM     15  P   UNL d   1       3.854   2.402 -15.621 -0.07 -0.08    +0.473 P 
DOCKED: ATOM     16  O   UNL d   1       4.946   2.500 -14.602 -0.24 +0.07    -0.228 OA
DOCKED: BRANCH  15  17
DOCKED: ATOM     17  O   UNL d   1       4.326   1.686 -16.964 -0.01 +0.06    -0.303 OA
DOCKED: ATOM     18  H   UNL d   1       4.646   0.781 -16.786 +0.04 -0.05    +0.222 HD
DOCKED: ENDBRANCH  15  17
DOCKED: BRANCH  15  19
DOCKED: ATOM     19  O   UNL d   1       3.306   3.789 -16.174 -0.05 +0.02    -0.303 OA
DOCKED: ATOM     20  H   UNL d   1       2.582   4.136 -15.621 +0.06 +0.00    +0.222 HD
DOCKED: ENDBRANCH  15  19
DOCKED: ENDBRANCH  14  15
DOCKED: ENDBRANCH   2  14
DOCKED: BRANCH   6  21
DOCKED: ATOM     21  O   UNL d   1      -0.555   0.558 -12.396 -0.19 -0.00    -0.278 OA
DOCKED: BRANCH  21  22
DOCKED: ATOM     22  P   UNL d   1      -2.134   0.738 -12.539 -0.18 +0.05    +0.473 P 
DOCKED: ATOM     23  O   UNL d   1      -2.988  -0.485 -12.517 -0.35 -0.01    -0.228 OA
DOCKED: BRANCH  22  24
DOCKED: ATOM     24  O   UNL d   1      -2.446   1.792 -11.389 -1.32 -0.08    -0.303 OA
DOCKED: ATOM     25  H   UNL d   1      -1.833   2.562 -11.501 +0.10 +0.03    +0.222 HD
DOCKED: ENDBRANCH  22  24
DOCKED: BRANCH  22  26
DOCKED: ATOM     26  O   UNL d   1      -2.240   1.645 -13.857 -0.25 -0.01    -0.303 OA
DOCKED: ATOM     27  H   UNL d   1      -1.454   1.489 -14.419 +0.08 -0.00    +0.222 HD
DOCKED: ENDBRANCH  22  26
DOCKED: ENDBRANCH  21  22
DOCKED: ENDBRANCH   6  21
DOCKED: BRANCH   3  28
DOCKED: ATOM     28  O   UNL d   1       3.292  -0.778 -16.108 -0.05 +0.03    -0.278 OA
DOCKED: BRANCH  28  29
DOCKED: ATOM     29  P   UNL d   1       4.811  -1.257 -16.092 -0.04 -0.08    +0.473 P 
DOCKED: ATOM     30  O   UNL d   1       5.479  -1.314 -17.417 -0.02 +0.04    -0.228 OA
DOCKED: BRANCH  29  31
DOCKED: ATOM     31  O   UNL d   1       5.414  -0.236 -15.018 -0.16 +0.09    -0.303 OA
DOCKED: ATOM     32  H   UNL d   1       5.482   0.654 -15.435 +0.08 -0.08    +0.222 HD
DOCKED: ENDBRANCH  29  31
DOCKED: BRANCH  29  33
DOCKED: ATOM     33  O   UNL d   1       4.723  -2.619 -15.271 -0.11 +0.02    -0.303 OA
DOCKED: ATOM     34  H   UNL d   1       4.362  -3.326 -15.860 +0.06 -0.02    +0.222 HD
DOCKED: ENDBRANCH  29  33
DOCKED: ENDBRANCH  28  29
DOCKED: ENDBRANCH   3  28
DOCKED: BRANCH   5  35
DOCKED: ATOM     35  O   UNL d   1      -1.203  -0.621 -14.989 -0.12 +0.01    -0.278 OA
DOCKED: BRANCH  35  36
DOCKED: ATOM     36  P   UNL d   1      -1.327   0.332 -16.262 -0.01 -0.03    +0.473 P 
DOCKED: ATOM     37  O   UNL d   1      -2.660   0.983 -16.453 -0.03 +0.01    -0.228 OA
DOCKED: BRANCH  36  38
DOCKED: ATOM     38  O   UNL d   1      -0.128   1.352 -16.024 -0.01 +0.02    -0.303 OA
DOCKED: ATOM     39  H   UNL d   1      -0.402   2.020 -15.360 +0.07 -0.01    +0.222 HD
DOCKED: ENDBRANCH  36  38
DOCKED: BRANCH  36  40
DOCKED: ATOM     40  O   UNL d   1      -0.806  -0.604 -17.438 -0.01 +0.02    -0.303 OA
DOCKED: ATOM     41  H   UNL d   1      -0.379  -1.419 -17.093 +0.03 -0.01    +0.222 HD
DOCKED: ENDBRANCH  36  40
DOCKED: ENDBRANCH  35  36
DOCKED: ENDBRANCH   5  35
DOCKED: BRANCH   4  42
DOCKED: ATOM     42  O   UNL d   1       0.975  -2.431 -15.676 -0.09 +0.02    -0.278 OA
DOCKED: BRANCH  42  43
DOCKED: ATOM     43  P   UNL d   1       1.234  -3.502 -14.523 -0.17 -0.06    +0.473 P 
DOCKED: ATOM     44  O   UNL d   1       1.206  -3.016 -13.115 -0.29 +0.03    -0.228 OA
DOCKED: BRANCH  43  45
DOCKED: ATOM     45  O   UNL d   1       0.158  -4.629 -14.844 -0.20 +0.03    -0.303 OA
DOCKED: ATOM     46  H   UNL d   1      -0.024  -5.185 -14.060 +0.08 -0.02    +0.222 HD
DOCKED: ENDBRANCH  43  45
DOCKED: BRANCH  43  47
DOCKED: ATOM     47  O   UNL d   1       2.596  -4.212 -14.982 -0.14 +0.06    -0.303 OA
DOCKED: ATOM     48  H   UNL d   1       3.312  -3.972 -14.357 -0.30 -0.06    +0.222 HD
DOCKED: ENDBRANCH  43  47
DOCKED: ENDBRANCH  42  43
DOCKED: ENDBRANCH   4  42
DOCKED: TORSDOF 24
DOCKED: TER
DOCKED: ENDMDL
________________________________________________________________________________


	BEGINNING GENETIC ALGORITHM DOCKING 93 of 100
Run: 93 Seed: 1601102750 2119256139 [ Run 93 of 100 GA/GALS ]
Beginning LAMARCKIAN GENETIC ALGORITHM (LGA), with a maximum of 25000000 energy evaluations.

Final-Value: -18.354


	FINAL GENETIC ALGORITHM DOCKED STATE
	_______________________________________________


Detailed state:  trans -18.174 1.694 13.313 quatxyzw -0.136340 0.603846 -0.778098 -0.106511 center 0.035 0.082 -0.065 ntor 24 -111.2697 14.8751 66.7250 42.8635 24.6022 -146.1671 -112.3700 -29.1903 15.4417 78.3482 49.8073 179.9609 -135.7910 141.8235 -37.7717 -164.2325 -105.3578 -93.8157 26.3552 -12.0858 150.9426 1.7913 -32.0505 173.3286
State:	-18.174   1.694  13.313  -0.137  0.607 -0.783 -167.771   -111.27   14.88   66.72   42.86   24.60 -146.17 -112.37  -29.19   15.44   78.35   49.81  179.96 -135.79  141.82  -37.77 -164.23 -105.36  -93.82   26.36  -12.09  150.94    1.79  -32.05  173.33

DOCKED: MODEL       93
DOCKED: USER    Run = 93
DOCKED: USER    DPF = D:/Protein_go_brrr/autodock/final/AncMH_nat/IHP/dock.dpf
DOCKED: USER  
DOCKED: USER    Estimated Free Energy of Binding    =   +1.91 kcal/mol  [=(1)+(2)+(3)-(4)]
DOCKED: USER    
DOCKED: USER    (1) Final Intermolecular Energy     =   -5.25 kcal/mol
DOCKED: USER        vdW + Hbond + desolv Energy     =   -4.98 kcal/mol
DOCKED: USER        Electrostatic Energy            =   -0.26 kcal/mol
DOCKED: USER    (2) Final Total Internal Energy     =  -13.11 kcal/mol
DOCKED: USER    (3) Torsional Free Energy           =   +7.16 kcal/mol
DOCKED: USER    (4) Unbound System's Energy  [=(2)] =  -13.11 kcal/mol
DOCKED: USER    
DOCKED: USER    
DOCKED: USER    NEWDPF move IHP_ideal_opt.pdbqt
DOCKED: USER    NEWDPF about 0.035000 0.082000 -0.065000
DOCKED: USER    NEWDPF tran0 -18.173873 1.693577 13.312995
DOCKED: USER    NEWDPF quaternion0 -0.136340 0.603846 -0.778098 -0.106511
DOCKED: USER    NEWDPF axisangle0 -0.137120 0.607301 -0.782550 -167.771504
DOCKED: USER    NEWDPF quat0 -0.137120 0.607301 -0.782550 -167.771504
DOCKED: USER    NEWDPF dihe0 -111.27 14.88 66.72 42.86 24.60 -146.17 -112.37 -29.19 15.44 78.35 49.81 179.96 -135.79 141.82 -37.77 -164.23 -105.36 -93.82 26.36 -12.09 150.94 1.79 -32.05 173.33 
DOCKED: USER  keepresnum = 1 
DOCKED: USER  
DOCKED: REMARK  24 active torsions:
DOCKED: REMARK  status: ('A' for Active; 'I' for Inactive)
DOCKED: REMARK    1  A    between atoms: C_1  and  O_7 
DOCKED: REMARK    2  A    between atoms: C_2  and  O_12 
DOCKED: REMARK    3  A    between atoms: C_3  and  O_17 
DOCKED: REMARK    4  A    between atoms: C_4  and  O_22 
DOCKED: REMARK    5  A    between atoms: C_5  and  O_27 
DOCKED: REMARK    6  A    between atoms: C_6  and  O_32 
DOCKED: REMARK    7  A    between atoms: O_7  and  P_8 
DOCKED: REMARK    8  A    between atoms: P_8  and  O_10 
DOCKED: REMARK    9  A    between atoms: P_8  and  O_11 
DOCKED: REMARK   10  A    between atoms: O_12  and  P_13 
DOCKED: REMARK   11  A    between atoms: P_13  and  O_15 
DOCKED: REMARK   12  A    between atoms: P_13  and  O_16 
DOCKED: REMARK   13  A    between atoms: O_17  and  P_18 
DOCKED: REMARK   14  A    between atoms: P_18  and  O_20 
DOCKED: REMARK   15  A    between atoms: P_18  and  O_21 
DOCKED: REMARK   16  A    between atoms: O_22  and  P_23 
DOCKED: REMARK   17  A    between atoms: P_23  and  O_25 
DOCKED: REMARK   18  A    between atoms: P_23  and  O_26 
DOCKED: REMARK   19  A    between atoms: O_27  and  P_28 
DOCKED: REMARK   20  A    between atoms: P_28  and  O_30 
DOCKED: REMARK   21  A    between atoms: P_28  and  O_31 
DOCKED: REMARK   22  A    between atoms: O_32  and  P_33 
DOCKED: REMARK   23  A    between atoms: P_33  and  O_35 
DOCKED: REMARK   24  A    between atoms: P_33  and  O_36 
DOCKED: USER                              x       y       z     vdW  Elec       q    Type
DOCKED: USER                           _______ _______ _______ _____ _____    ______ ____
DOCKED: ROOT
DOCKED: ATOM      1  C   UNL d   1     -19.083   0.780  14.463 -0.01 +0.04    +0.194 C 
DOCKED: ATOM      2  C   UNL d   1     -18.037   1.727  15.051 -0.05 +0.05    +0.194 C 
DOCKED: ATOM      3  C   UNL d   1     -16.721   1.673  14.272 -0.14 +0.03    +0.194 C 
DOCKED: ATOM      4  C   UNL d   1     -16.903   1.875  12.769 -0.24 +0.01    +0.194 C 
DOCKED: ATOM      5  C   UNL d   1     -18.016   1.032  12.160 -0.11 +0.03    +0.194 C 
DOCKED: ATOM      6  C   UNL d   1     -19.313   1.037  12.973 -0.03 +0.04    +0.194 C 
DOCKED: ENDROOT
DOCKED: BRANCH   1   7
DOCKED: ATOM      7  O   UNL d   1     -20.324   1.015  15.132 -0.00 -0.06    -0.278 OA
DOCKED: BRANCH   7   8
DOCKED: ATOM      8  P   UNL d   1     -20.716   0.071  16.359 +0.01 +0.08    +0.473 P 
DOCKED: ATOM      9  O   UNL d   1     -21.368  -1.214  15.985 +0.00 -0.04    -0.228 OA
DOCKED: BRANCH   8  10
DOCKED: ATOM     10  O   UNL d   1     -19.343  -0.128  17.148 +0.00 -0.06    -0.303 OA
DOCKED: ATOM     11  H   UNL d   1     -19.254   0.564  17.829 +0.00 +0.04    +0.222 HD
DOCKED: ENDBRANCH   8  10
DOCKED: BRANCH   8  12
DOCKED: ATOM     12  O   UNL d   1     -21.537   1.002  17.351 +0.00 -0.05    -0.303 OA
DOCKED: ATOM     13  H   UNL d   1     -21.259   1.945  17.314 +0.01 +0.05    +0.222 HD
DOCKED: ENDBRANCH   8  12
DOCKED: ENDBRANCH   7   8
DOCKED: ENDBRANCH   1   7
DOCKED: BRANCH   2  14
DOCKED: ATOM     14  O   UNL d   1     -18.541   3.068  15.002 -0.09 -0.13    -0.278 OA
DOCKED: BRANCH  14  15
DOCKED: ATOM     15  P   UNL d   1     -18.699   3.824  16.405 -0.06 +0.32    +0.473 P 
DOCKED: ATOM     16  O   UNL d   1     -19.576   5.037  16.419 -0.64 -0.32    -0.228 OA
DOCKED: BRANCH  15  17
DOCKED: ATOM     17  O   UNL d   1     -19.199   2.689  17.404 -0.01 -0.09    -0.303 OA
DOCKED: ATOM     18  H   UNL d   1     -19.711   2.005  16.930 +0.01 +0.06    +0.222 HD
DOCKED: ENDBRANCH  15  17
DOCKED: BRANCH  15  19
DOCKED: ATOM     19  O   UNL d   1     -17.206   4.052  16.903 -0.09 -0.16    -0.303 OA
DOCKED: ATOM     20  H   UNL d   1     -16.575   3.482  16.426 +0.04 +0.08    +0.222 HD
DOCKED: ENDBRANCH  15  19
DOCKED: ENDBRANCH  14  15
DOCKED: ENDBRANCH   2  14
DOCKED: BRANCH   6  21
DOCKED: ATOM     21  O   UNL d   1     -20.112  -0.036  12.481 -0.00 -0.05    -0.278 OA
DOCKED: BRANCH  21  22
DOCKED: ATOM     22  P   UNL d   1     -19.468  -1.484  12.298 +0.02 +0.10    +0.473 P 
DOCKED: ATOM     23  O   UNL d   1     -17.995  -1.629  12.487 -0.04 -0.05    -0.228 OA
DOCKED: BRANCH  22  24
DOCKED: ATOM     24  O   UNL d   1     -20.357  -2.362  13.283 -0.00 -0.07    -0.303 OA
DOCKED: ATOM     25  H   UNL d   1     -20.504  -1.841  14.113 +0.01 +0.05    +0.222 HD
DOCKED: ENDBRANCH  22  24
DOCKED: BRANCH  22  26
DOCKED: ATOM     26  O   UNL d   1     -20.038  -1.915  10.863 -0.01 -0.07    -0.303 OA
DOCKED: ATOM     27  H   UNL d   1     -20.027  -1.140  10.266 +0.03 +0.05    +0.222 HD
DOCKED: ENDBRANCH  22  26
DOCKED: ENDBRANCH  21  22
DOCKED: ENDBRANCH   6  21
DOCKED: BRANCH   3  28
DOCKED: ATOM     28  O   UNL d   1     -15.921   2.765  14.705 -0.20 -0.05    -0.278 OA
DOCKED: BRANCH  28  29
DOCKED: ATOM     29  P   UNL d   1     -14.581   2.505  15.527 -0.18 +0.01    +0.473 P 
DOCKED: ATOM     30  O   UNL d   1     -13.709   3.692  15.722 -0.21 +0.02    -0.228 OA
DOCKED: BRANCH  29  31
DOCKED: ATOM     31  O   UNL d   1     -15.189   1.826  16.842 -0.04 -0.03    -0.303 OA
DOCKED: ATOM     32  H   UNL d   1     -15.798   2.468  17.274 +0.04 +0.03    +0.222 HD
DOCKED: ENDBRANCH  29  31
DOCKED: BRANCH  29  33
DOCKED: ATOM     33  O   UNL d   1     -13.949   1.267  14.751 -0.24 +0.01    -0.303 OA
DOCKED: ATOM     34  H   UNL d   1     -14.220   1.310  13.802 +0.01 -0.03    +0.222 HD
DOCKED: ENDBRANCH  29  33
DOCKED: ENDBRANCH  28  29
DOCKED: ENDBRANCH   3  28
DOCKED: BRANCH   5  35
DOCKED: ATOM     35  O   UNL d   1     -18.309   1.630  10.899 -0.14 -0.02    -0.278 OA
DOCKED: BRANCH  35  36
DOCKED: ATOM     36  P   UNL d   1     -17.687   1.028   9.559 -0.18 +0.10    +0.473 P 
DOCKED: ATOM     37  O   UNL d   1     -16.193   1.028   9.484 -0.72 -0.08    -0.228 OA
DOCKED: BRANCH  36  38
DOCKED: ATOM     38  O   UNL d   1     -18.344  -0.422   9.519 -0.05 -0.08    -0.303 OA
DOCKED: ATOM     39  H   UNL d   1     -18.153  -0.885  10.363 +0.07 +0.05    +0.222 HD
DOCKED: ENDBRANCH  36  38
DOCKED: BRANCH  36  40
DOCKED: ATOM     40  O   UNL d   1     -18.467   1.833   8.431 -0.24 -0.13    -0.303 OA
DOCKED: ATOM     41  H   UNL d   1     -18.628   2.766   8.695 -0.10 +0.06    +0.222 HD
DOCKED: ENDBRANCH  36  40
DOCKED: ENDBRANCH  35  36
DOCKED: ENDBRANCH   5  35
DOCKED: BRANCH   4  42
DOCKED: ATOM     42  O   UNL d   1     -15.680   1.471  12.145 -0.13 +0.04    -0.278 OA
DOCKED: BRANCH  42  43
DOCKED: ATOM     43  P   UNL d   1     -15.204  -0.045  12.290 -0.21 -0.00    +0.473 P 
DOCKED: ATOM     44  O   UNL d   1     -15.222  -0.643  13.654 -0.22 -0.01    -0.228 OA
DOCKED: BRANCH  43  45
DOCKED: ATOM     45  O   UNL d   1     -16.124  -0.801  11.235 -0.15 -0.02    -0.303 OA
DOCKED: ATOM     46  H   UNL d   1     -16.943  -0.300  11.050 +0.10 +0.03    +0.222 HD
DOCKED: ENDBRANCH  43  45
DOCKED: BRANCH  43  47
DOCKED: ATOM     47  O   UNL d   1     -13.783  -0.055  11.549 -0.35 +0.01    -0.303 OA
DOCKED: ATOM     48  H   UNL d   1     -13.595   0.841  11.198 -0.43 -0.05    +0.222 HD
DOCKED: ENDBRANCH  43  47
DOCKED: ENDBRANCH  42  43
DOCKED: ENDBRANCH   4  42
DOCKED: TORSDOF 24
DOCKED: TER
DOCKED: ENDMDL
________________________________________________________________________________


	BEGINNING GENETIC ALGORITHM DOCKING 94 of 100
Run: 94 Seed: 2144714189 634430917 [ Run 94 of 100 GA/GALS ]
Beginning LAMARCKIAN GENETIC ALGORITHM (LGA), with a maximum of 25000000 energy evaluations.

Final-Value: -20.179


	FINAL GENETIC ALGORITHM DOCKED STATE
	_______________________________________________


Detailed state:  trans 1.104 18.356 -6.150 quatxyzw 0.487173 0.248186 0.649268 0.528693 center 0.035 0.082 -0.065 ntor 24 98.0694 121.1178 147.8515 9.9244 163.1852 130.6213 -58.4935 -15.5453 -42.8959 88.3995 116.5939 77.5973 -68.7163 176.7314 -158.5226 158.0318 -21.2877 62.2234 -153.4446 -6.7545 14.2144 0.0463 -28.6191 174.4180
State:	  1.104  18.356  -6.150   0.574  0.292  0.765 116.166     98.07  121.12  147.85    9.92  163.19  130.62  -58.49  -15.55  -42.90   88.40  116.59   77.60  -68.72  176.73 -158.52  158.03  -21.29   62.22 -153.44   -6.75   14.21    0.05  -28.62  174.42

DOCKED: MODEL       94
DOCKED: USER    Run = 94
DOCKED: USER    DPF = D:/Protein_go_brrr/autodock/final/AncMH_nat/IHP/dock.dpf
DOCKED: USER  
DOCKED: USER    Estimated Free Energy of Binding    =   -0.33 kcal/mol  [=(1)+(2)+(3)-(4)]
DOCKED: USER    Estimated Inhibition Constant, Ki   =  572.14 mM (millimolar)  [Temperature = 298.15 K]
DOCKED: USER    
DOCKED: USER    (1) Final Intermolecular Energy     =   -7.49 kcal/mol
DOCKED: USER        vdW + Hbond + desolv Energy     =   -7.28 kcal/mol
DOCKED: USER        Electrostatic Energy            =   -0.21 kcal/mol
DOCKED: USER    (2) Final Total Internal Energy     =  -12.69 kcal/mol
DOCKED: USER    (3) Torsional Free Energy           =   +7.16 kcal/mol
DOCKED: USER    (4) Unbound System's Energy  [=(2)] =  -12.69 kcal/mol
DOCKED: USER    
DOCKED: USER    
DOCKED: USER    NEWDPF move IHP_ideal_opt.pdbqt
DOCKED: USER    NEWDPF about 0.035000 0.082000 -0.065000
DOCKED: USER    NEWDPF tran0 1.104003 18.356090 -6.150024
DOCKED: USER    NEWDPF quaternion0 0.487173 0.248186 0.649268 0.528693
DOCKED: USER    NEWDPF axisangle0 0.573947 0.292392 0.764913 116.165612
DOCKED: USER    NEWDPF quat0 0.573947 0.292392 0.764913 116.165612
DOCKED: USER    NEWDPF dihe0 98.07 121.12 147.85 9.92 163.19 130.62 -58.49 -15.55 -42.90 88.40 116.59 77.60 -68.72 176.73 -158.52 158.03 -21.29 62.22 -153.44 -6.75 14.21 0.05 -28.62 174.42 
DOCKED: USER  keepresnum = 1 
DOCKED: USER  
DOCKED: REMARK  24 active torsions:
DOCKED: REMARK  status: ('A' for Active; 'I' for Inactive)
DOCKED: REMARK    1  A    between atoms: C_1  and  O_7 
DOCKED: REMARK    2  A    between atoms: C_2  and  O_12 
DOCKED: REMARK    3  A    between atoms: C_3  and  O_17 
DOCKED: REMARK    4  A    between atoms: C_4  and  O_22 
DOCKED: REMARK    5  A    between atoms: C_5  and  O_27 
DOCKED: REMARK    6  A    between atoms: C_6  and  O_32 
DOCKED: REMARK    7  A    between atoms: O_7  and  P_8 
DOCKED: REMARK    8  A    between atoms: P_8  and  O_10 
DOCKED: REMARK    9  A    between atoms: P_8  and  O_11 
DOCKED: REMARK   10  A    between atoms: O_12  and  P_13 
DOCKED: REMARK   11  A    between atoms: P_13  and  O_15 
DOCKED: REMARK   12  A    between atoms: P_13  and  O_16 
DOCKED: REMARK   13  A    between atoms: O_17  and  P_18 
DOCKED: REMARK   14  A    between atoms: P_18  and  O_20 
DOCKED: REMARK   15  A    between atoms: P_18  and  O_21 
DOCKED: REMARK   16  A    between atoms: O_22  and  P_23 
DOCKED: REMARK   17  A    between atoms: P_23  and  O_25 
DOCKED: REMARK   18  A    between atoms: P_23  and  O_26 
DOCKED: REMARK   19  A    between atoms: O_27  and  P_28 
DOCKED: REMARK   20  A    between atoms: P_28  and  O_30 
DOCKED: REMARK   21  A    between atoms: P_28  and  O_31 
DOCKED: REMARK   22  A    between atoms: O_32  and  P_33 
DOCKED: REMARK   23  A    between atoms: P_33  and  O_35 
DOCKED: REMARK   24  A    between atoms: P_33  and  O_36 
DOCKED: USER                              x       y       z     vdW  Elec       q    Type
DOCKED: USER                           _______ _______ _______ _____ _____    ______ ____
DOCKED: ROOT
DOCKED: ATOM      1  C   UNL d   1       0.615  18.743  -4.539 -0.06 +0.00    +0.194 C 
DOCKED: ATOM      2  C   UNL d   1      -0.310  19.245  -5.650 -0.08 -0.01    +0.194 C 
DOCKED: ATOM      3  C   UNL d   1       0.478  19.836  -6.820 -0.06 -0.02    +0.194 C 
DOCKED: ATOM      4  C   UNL d   1       1.561  18.899  -7.350 -0.09 -0.03    +0.194 C 
DOCKED: ATOM      5  C   UNL d   1       2.436  18.285  -6.265 -0.09 -0.01    +0.194 C 
DOCKED: ATOM      6  C   UNL d   1       1.650  17.749  -5.066 -0.11 -0.00    +0.194 C 
DOCKED: ENDROOT
DOCKED: BRANCH   1   7
DOCKED: ATOM      7  O   UNL d   1      -0.182  18.056  -3.571 -0.09 -0.02    -0.278 OA
DOCKED: BRANCH   7   8
DOCKED: ATOM      8  P   UNL d   1      -0.539  16.521  -3.833 -0.26 +0.08    +0.473 P 
DOCKED: ATOM      9  O   UNL d   1      -0.347  16.059  -5.235 -0.71 -0.03    -0.228 OA
DOCKED: BRANCH   8  10
DOCKED: ATOM     10  O   UNL d   1       0.364  15.730  -2.782 -0.34 -0.04    -0.303 OA
DOCKED: ATOM     11  H   UNL d   1       1.305  15.924  -2.948 +0.14 +0.01    +0.222 HD
DOCKED: ENDBRANCH   8  10
DOCKED: BRANCH   8  12
DOCKED: ATOM     12  O   UNL d   1      -1.997  16.328  -3.232 -0.92 -0.15    -0.303 OA
DOCKED: ATOM     13  H   UNL d   1      -2.703  16.706  -3.803 +0.12 +0.20    +0.222 HD
DOCKED: ENDBRANCH   8  12
DOCKED: ENDBRANCH   7   8
DOCKED: ENDBRANCH   1   7
DOCKED: BRANCH   2  14
DOCKED: ATOM     14  O   UNL d   1      -1.095  18.148  -6.135 -0.21 +0.02    -0.278 OA
DOCKED: BRANCH  14  15
DOCKED: ATOM     15  P   UNL d   1      -2.684  18.339  -6.111 -0.20 -0.01    +0.473 P 
DOCKED: ATOM     16  O   UNL d   1      -3.481  17.263  -5.442 -0.86 -0.06    -0.228 OA
DOCKED: BRANCH  15  17
DOCKED: ATOM     17  O   UNL d   1      -2.893  19.769  -5.440 -0.08 +0.00    -0.303 OA
DOCKED: ATOM     18  H   UNL d   1      -2.357  20.450  -5.889 +0.05 -0.01    +0.222 HD
DOCKED: ENDBRANCH  15  17
DOCKED: BRANCH  15  19
DOCKED: ATOM     19  O   UNL d   1      -3.071  18.638  -7.625 -0.20 +0.04    -0.303 OA
DOCKED: ATOM     20  H   UNL d   1      -2.512  19.339  -8.008 +0.03 -0.03    +0.222 HD
DOCKED: ENDBRANCH  15  19
DOCKED: ENDBRANCH  14  15
DOCKED: ENDBRANCH   2  14
DOCKED: BRANCH   6  21
DOCKED: ATOM     21  O   UNL d   1       2.594  17.534  -4.018 -0.08 -0.01    -0.278 OA
DOCKED: BRANCH  21  22
DOCKED: ATOM     22  P   UNL d   1       3.351  16.134  -3.910 -0.23 +0.04    +0.473 P 
DOCKED: ATOM     23  O   UNL d   1       3.333  15.422  -2.600 -0.39 +0.00    -0.228 OA
DOCKED: BRANCH  22  24
DOCKED: ATOM     24  O   UNL d   1       2.709  15.322  -5.120 -0.26 +0.02    -0.303 OA
DOCKED: ATOM     25  H   UNL d   1       3.321  15.392  -5.896 +0.07 -0.01    +0.222 HD
DOCKED: ENDBRANCH  22  24
DOCKED: BRANCH  22  26
DOCKED: ATOM     26  O   UNL d   1       4.800  16.502  -4.490 -0.77 -0.11    -0.303 OA
DOCKED: ATOM     27  H   UNL d   1       4.695  17.058  -5.289 +0.10 +0.04    +0.222 HD
DOCKED: ENDBRANCH  22  26
DOCKED: ENDBRANCH  21  22
DOCKED: ENDBRANCH   6  21
DOCKED: BRANCH   3  28
DOCKED: ATOM     28  O   UNL d   1      -0.429  20.014  -7.901 -0.07 +0.05    -0.278 OA
DOCKED: BRANCH  28  29
DOCKED: ATOM     29  P   UNL d   1      -0.848  21.478  -8.366 -0.01 -0.04    +0.473 P 
DOCKED: ATOM     30  O   UNL d   1      -0.779  21.731  -9.828 -0.02 +0.02    -0.228 OA
DOCKED: BRANCH  29  31
DOCKED: ATOM     31  O   UNL d   1      -2.289  21.588  -7.678 -0.01 +0.02    -0.303 OA
DOCKED: ATOM     32  H   UNL d   1      -2.518  20.712  -7.289 +0.04 -0.02    +0.222 HD
DOCKED: ENDBRANCH  29  31
DOCKED: BRANCH  29  33
DOCKED: ATOM     33  O   UNL d   1       0.058  22.397  -7.433 -0.00 +0.01    -0.303 OA
DOCKED: ATOM     34  H   UNL d   1       0.972  22.022  -7.402 +0.01 -0.01    +0.222 HD
DOCKED: ENDBRANCH  29  33
DOCKED: ENDBRANCH  28  29
DOCKED: ENDBRANCH   3  28
DOCKED: BRANCH   5  35
DOCKED: ATOM     35  O   UNL d   1       3.083  17.170  -6.874 -0.15 +0.00    -0.278 OA
DOCKED: BRANCH  35  36
DOCKED: ATOM     36  P   UNL d   1       4.603  17.281  -7.345 -0.14 +0.09    +0.473 P 
DOCKED: ATOM     37  O   UNL d   1       5.416  18.332  -6.658 -0.12 -0.02    -0.228 OA
DOCKED: BRANCH  36  38
DOCKED: ATOM     38  O   UNL d   1       5.126  15.794  -7.112 -0.28 -0.09    -0.303 OA
DOCKED: ATOM     39  H   UNL d   1       5.790  15.797  -6.389 -0.41 +0.01    +0.222 HD
DOCKED: ENDBRANCH  36  38
DOCKED: BRANCH  36  40
DOCKED: ATOM     40  O   UNL d   1       4.463  17.394  -8.925 -0.60 -0.18    -0.303 OA
DOCKED: ATOM     41  H   UNL d   1       3.776  18.048  -9.183 +0.06 +0.01    +0.222 HD
DOCKED: ENDBRANCH  36  40
DOCKED: ENDBRANCH  35  36
DOCKED: ENDBRANCH   5  35
DOCKED: BRANCH   4  42
DOCKED: ATOM     42  O   UNL d   1       2.417  19.685  -8.186 -0.03 +0.03    -0.278 OA
DOCKED: BRANCH  42  43
DOCKED: ATOM     43  P   UNL d   1       3.242  20.884  -7.534 +0.02 -0.02    +0.473 P 
DOCKED: ATOM     44  O   UNL d   1       4.712  20.702  -7.380 -0.01 +0.00    -0.228 OA
DOCKED: BRANCH  43  45
DOCKED: ATOM     45  O   UNL d   1       2.832  22.125  -8.442 +0.00 +0.02    -0.303 OA
DOCKED: ATOM     46  H   UNL d   1       1.871  22.133  -8.624 +0.01 -0.01    +0.222 HD
DOCKED: ENDBRANCH  43  45
DOCKED: BRANCH  43  47
DOCKED: ATOM     47  O   UNL d   1       2.437  21.190  -6.182 +0.00 +0.01    -0.303 OA
DOCKED: ATOM     48  H   UNL d   1       1.901  22.001  -6.302 +0.01 -0.01    +0.222 HD
DOCKED: ENDBRANCH  43  47
DOCKED: ENDBRANCH  42  43
DOCKED: ENDBRANCH   4  42
DOCKED: TORSDOF 24
DOCKED: TER
DOCKED: ENDMDL
________________________________________________________________________________


	BEGINNING GENETIC ALGORITHM DOCKING 95 of 100
Run: 95 Seed: 1808386836 1470983000 [ Run 95 of 100 GA/GALS ]
Beginning LAMARCKIAN GENETIC ALGORITHM (LGA), with a maximum of 25000000 energy evaluations.

Final-Value: -18.224


	FINAL GENETIC ALGORITHM DOCKED STATE
	_______________________________________________


Detailed state:  trans -20.918 -10.499 12.275 quatxyzw -0.735493 0.541323 -0.160451 -0.374534 center 0.035 0.082 -0.065 ntor 24 102.0213 -5.0841 34.6757 126.8911 46.5368 178.6844 -35.2628 -104.4820 56.7787 -54.8239 140.3262 -180.0000 30.8144 -75.5627 15.2888 108.2648 -166.0356 -143.4358 -136.0123 -23.6495 155.2082 -34.3447 -33.7073 160.0826
State:	-20.918 -10.499  12.275  -0.793  0.584 -0.173 -136.009    102.02   -5.08   34.68  126.89   46.54  178.68  -35.26 -104.48   56.78  -54.82  140.33 -180.00   30.81  -75.56   15.29  108.26 -166.04 -143.44 -136.01  -23.65  155.21  -34.34  -33.71  160.08

DOCKED: MODEL       95
DOCKED: USER    Run = 95
DOCKED: USER    DPF = D:/Protein_go_brrr/autodock/final/AncMH_nat/IHP/dock.dpf
DOCKED: USER  
DOCKED: USER    Estimated Free Energy of Binding    =   +2.73 kcal/mol  [=(1)+(2)+(3)-(4)]
DOCKED: USER    
DOCKED: USER    (1) Final Intermolecular Energy     =   -4.43 kcal/mol
DOCKED: USER        vdW + Hbond + desolv Energy     =   -3.89 kcal/mol
DOCKED: USER        Electrostatic Energy            =   -0.53 kcal/mol
DOCKED: USER    (2) Final Total Internal Energy     =  -13.80 kcal/mol
DOCKED: USER    (3) Torsional Free Energy           =   +7.16 kcal/mol
DOCKED: USER    (4) Unbound System's Energy  [=(2)] =  -13.80 kcal/mol
DOCKED: USER    
DOCKED: USER    
DOCKED: USER    NEWDPF move IHP_ideal_opt.pdbqt
DOCKED: USER    NEWDPF about 0.035000 0.082000 -0.065000
DOCKED: USER    NEWDPF tran0 -20.918096 -10.498894 12.275132
DOCKED: USER    NEWDPF quaternion0 -0.735493 0.541323 -0.160451 -0.374534
DOCKED: USER    NEWDPF axisangle0 -0.793229 0.583817 -0.173046 -136.008918
DOCKED: USER    NEWDPF quat0 -0.793229 0.583817 -0.173046 -136.008918
DOCKED: USER    NEWDPF dihe0 102.02 -5.08 34.68 126.89 46.54 178.68 -35.26 -104.48 56.78 -54.82 140.33 -180.00 30.81 -75.56 15.29 108.26 -166.04 -143.44 -136.01 -23.65 155.21 -34.34 -33.71 160.08 
DOCKED: USER  keepresnum = 1 
DOCKED: USER  
DOCKED: REMARK  24 active torsions:
DOCKED: REMARK  status: ('A' for Active; 'I' for Inactive)
DOCKED: REMARK    1  A    between atoms: C_1  and  O_7 
DOCKED: REMARK    2  A    between atoms: C_2  and  O_12 
DOCKED: REMARK    3  A    between atoms: C_3  and  O_17 
DOCKED: REMARK    4  A    between atoms: C_4  and  O_22 
DOCKED: REMARK    5  A    between atoms: C_5  and  O_27 
DOCKED: REMARK    6  A    between atoms: C_6  and  O_32 
DOCKED: REMARK    7  A    between atoms: O_7  and  P_8 
DOCKED: REMARK    8  A    between atoms: P_8  and  O_10 
DOCKED: REMARK    9  A    between atoms: P_8  and  O_11 
DOCKED: REMARK   10  A    between atoms: O_12  and  P_13 
DOCKED: REMARK   11  A    between atoms: P_13  and  O_15 
DOCKED: REMARK   12  A    between atoms: P_13  and  O_16 
DOCKED: REMARK   13  A    between atoms: O_17  and  P_18 
DOCKED: REMARK   14  A    between atoms: P_18  and  O_20 
DOCKED: REMARK   15  A    between atoms: P_18  and  O_21 
DOCKED: REMARK   16  A    between atoms: O_22  and  P_23 
DOCKED: REMARK   17  A    between atoms: P_23  and  O_25 
DOCKED: REMARK   18  A    between atoms: P_23  and  O_26 
DOCKED: REMARK   19  A    between atoms: O_27  and  P_28 
DOCKED: REMARK   20  A    between atoms: P_28  and  O_30 
DOCKED: REMARK   21  A    between atoms: P_28  and  O_31 
DOCKED: REMARK   22  A    between atoms: O_32  and  P_33 
DOCKED: REMARK   23  A    between atoms: P_33  and  O_35 
DOCKED: REMARK   24  A    between atoms: P_33  and  O_36 
DOCKED: USER                              x       y       z     vdW  Elec       q    Type
DOCKED: USER                           _______ _______ _______ _____ _____    ______ ____
DOCKED: ROOT
DOCKED: ATOM      1  C   UNL d   1     -19.356 -11.230  12.178 -0.15 -0.03    +0.194 C 
DOCKED: ATOM      2  C   UNL d   1     -19.502 -10.119  13.219 -0.15 +0.02    +0.194 C 
DOCKED: ATOM      3  C   UNL d   1     -20.285  -8.925  12.667 -0.13 +0.05    +0.194 C 
DOCKED: ATOM      4  C   UNL d   1     -21.625  -9.319  12.051 -0.04 +0.02    +0.194 C 
DOCKED: ATOM      5  C   UNL d   1     -21.545 -10.500  11.093 -0.04 +0.01    +0.194 C 
DOCKED: ATOM      6  C   UNL d   1     -20.710 -11.669  11.619 -0.04 -0.02    +0.194 C 
DOCKED: ENDROOT
DOCKED: BRANCH   1   7
DOCKED: ATOM      7  O   UNL d   1     -18.771 -12.367  12.818 -0.14 +0.15    -0.278 OA
DOCKED: BRANCH   7   8
DOCKED: ATOM      8  P   UNL d   1     -19.726 -13.576  13.239 -0.02 -0.30    +0.473 P 
DOCKED: ATOM      9  O   UNL d   1     -20.046 -14.537  12.148 -0.06 +0.14    -0.228 OA
DOCKED: BRANCH   8  10
DOCKED: ATOM     10  O   UNL d   1     -18.972 -14.253  14.471 -0.08 +0.34    -0.303 OA
DOCKED: ATOM     11  H   UNL d   1     -18.068 -14.504  14.204 -0.47 -0.58    +0.222 HD
DOCKED: ENDBRANCH   8  10
DOCKED: BRANCH   8  12
DOCKED: ATOM     12  O   UNL d   1     -20.972 -12.891  13.948 -0.01 +0.06    -0.303 OA
DOCKED: ATOM     13  H   UNL d   1     -20.713 -12.247  14.645 +0.03 -0.03    +0.222 HD
DOCKED: ENDBRANCH   8  12
DOCKED: ENDBRANCH   7   8
DOCKED: ENDBRANCH   1   7
DOCKED: BRANCH   2  14
DOCKED: ATOM     14  O   UNL d   1     -20.199 -10.635  14.359 -0.03 -0.03    -0.278 OA
DOCKED: BRANCH  14  15
DOCKED: ATOM     15  P   UNL d   1     -19.331 -10.867  15.684 -0.05 +0.09    +0.473 P 
DOCKED: ATOM     16  O   UNL d   1     -17.849 -10.978  15.506 -0.13 -0.05    -0.228 OA
DOCKED: BRANCH  15  17
DOCKED: ATOM     17  O   UNL d   1     -19.750  -9.662  16.638 -0.05 -0.15    -0.303 OA
DOCKED: ATOM     18  H   UNL d   1     -19.531  -8.801  16.233 +0.03 +0.19    +0.222 HD
DOCKED: ENDBRANCH  15  17
DOCKED: BRANCH  15  19
DOCKED: ATOM     19  O   UNL d   1     -20.029 -12.102  16.405 -0.01 +0.01    -0.303 OA
DOCKED: ATOM     20  H   UNL d   1     -19.927 -12.924  15.891 +0.03 -0.05    +0.222 HD
DOCKED: ENDBRANCH  15  19
DOCKED: ENDBRANCH  14  15
DOCKED: ENDBRANCH   2  14
DOCKED: BRANCH   6  21
DOCKED: ATOM     21  O   UNL d   1     -20.447 -12.522  10.507 -0.03 +0.03    -0.278 OA
DOCKED: BRANCH  21  22
DOCKED: ATOM     22  P   UNL d   1     -19.807 -11.914   9.178 -0.09 +0.02    +0.473 P 
DOCKED: ATOM     23  O   UNL d   1     -18.651 -10.983   9.315 -0.50 -0.03    -0.228 OA
DOCKED: BRANCH  22  24
DOCKED: ATOM     24  O   UNL d   1     -19.509 -13.228   8.331 -0.07 +0.01    -0.303 OA
DOCKED: ATOM     25  H   UNL d   1     -19.493 -13.999   8.953 +0.05 -0.03    +0.222 HD
DOCKED: ENDBRANCH  22  24
DOCKED: BRANCH  22  26
DOCKED: ATOM     26  O   UNL d   1     -21.099 -11.326   8.433 -0.21 -0.03    -0.303 OA
DOCKED: ATOM     27  H   UNL d   1     -21.881 -11.432   9.013 +0.03 +0.01    +0.222 HD
DOCKED: ENDBRANCH  22  26
DOCKED: ENDBRANCH  21  22
DOCKED: ENDBRANCH   6  21
DOCKED: BRANCH   3  28
DOCKED: ATOM     28  O   UNL d   1     -20.607  -8.081  13.764 -0.06 -0.11    -0.278 OA
DOCKED: BRANCH  28  29
DOCKED: ATOM     29  P   UNL d   1     -19.495  -7.140  14.409 -0.07 +0.43    +0.473 P 
DOCKED: ATOM     30  O   UNL d   1     -19.258  -5.853  13.707 -0.04 -0.17    -0.228 OA
DOCKED: BRANCH  29  31
DOCKED: ATOM     31  O   UNL d   1     -20.037  -7.058  15.913 -0.22 -0.26    -0.303 OA
DOCKED: ATOM     32  H   UNL d   1     -20.690  -7.783  16.052 +0.02 +0.12    +0.222 HD
DOCKED: ENDBRANCH  29  31
DOCKED: BRANCH  29  33
DOCKED: ATOM     33  O   UNL d   1     -18.254  -8.130  14.537 -0.48 -0.49    -0.303 OA
DOCKED: ATOM     34  H   UNL d   1     -18.566  -8.990  14.910 +0.04 +0.24    +0.222 HD
DOCKED: ENDBRANCH  29  33
DOCKED: ENDBRANCH  28  29
DOCKED: ENDBRANCH   3  28
DOCKED: BRANCH   5  35
DOCKED: ATOM     35  O   UNL d   1     -22.883 -10.972  10.947 -0.00 -0.01    -0.278 OA
DOCKED: BRANCH  35  36
DOCKED: ATOM     36  P   UNL d   1     -23.769 -10.509   9.704 +0.01 +0.02    +0.473 P 
DOCKED: ATOM     37  O   UNL d   1     -25.049  -9.816  10.046 +0.00 -0.01    -0.228 OA
DOCKED: BRANCH  36  38
DOCKED: ATOM     38  O   UNL d   1     -22.738  -9.613   8.885 -0.04 -0.03    -0.303 OA
DOCKED: ATOM     39  H   UNL d   1     -21.959  -9.421   9.450 +0.04 +0.02    +0.222 HD
DOCKED: ENDBRANCH  36  38
DOCKED: BRANCH  36  40
DOCKED: ATOM     40  O   UNL d   1     -23.878 -11.845   8.848 +0.00 -0.01    -0.303 OA
DOCKED: ATOM     41  H   UNL d   1     -23.206 -11.874   8.131 +0.01 +0.01    +0.222 HD
DOCKED: ENDBRANCH  36  40
DOCKED: ENDBRANCH  35  36
DOCKED: ENDBRANCH   5  35
DOCKED: BRANCH   4  42
DOCKED: ATOM     42  O   UNL d   1     -22.080  -8.192  11.294 -0.03 -0.04    -0.278 OA
DOCKED: BRANCH  42  43
DOCKED: ATOM     43  P   UNL d   1     -21.073  -7.490  10.275 -0.11 +0.11    +0.473 P 
DOCKED: ATOM     44  O   UNL d   1     -20.362  -6.269  10.744 -0.43 -0.15    -0.228 OA
DOCKED: BRANCH  43  45
DOCKED: ATOM     45  O   UNL d   1     -20.109  -8.686   9.859 -0.23 -0.04    -0.303 OA
DOCKED: ATOM     46  H   UNL d   1     -20.584  -9.364   9.337 +0.04 +0.02    +0.222 HD
DOCKED: ENDBRANCH  43  45
DOCKED: BRANCH  43  47
DOCKED: ATOM     47  O   UNL d   1     -21.959  -7.310   8.951 -0.08 -0.05    -0.303 OA
DOCKED: ATOM     48  H   UNL d   1     -22.852  -7.682   9.107 +0.03 +0.03    +0.222 HD
DOCKED: ENDBRANCH  43  47
DOCKED: ENDBRANCH  42  43
DOCKED: ENDBRANCH   4  42
DOCKED: TORSDOF 24
DOCKED: TER
DOCKED: ENDMDL
________________________________________________________________________________


	BEGINNING GENETIC ALGORITHM DOCKING 96 of 100
Run: 96 Seed: 1495118304 2140625695 [ Run 96 of 100 GA/GALS ]
Beginning LAMARCKIAN GENETIC ALGORITHM (LGA), with a maximum of 25000000 energy evaluations.

Final-Value: -16.422


	FINAL GENETIC ALGORITHM DOCKED STATE
	_______________________________________________


Detailed state:  trans 15.680 -5.008 4.551 quatxyzw -0.122332 -0.209511 -0.962956 -0.117709 center 0.035 0.082 -0.065 ntor 24 -122.1507 -61.7437 -180.0000 -22.1293 -173.4014 -129.6194 -115.9603 -36.3463 -69.6759 144.7694 -179.6608 150.2349 115.9493 -180.0000 139.0694 -10.2780 12.7568 -179.5842 -9.5751 19.6089 157.5281 12.1017 -38.0237 171.5395
State:	 15.680  -5.008   4.551  -0.123 -0.211 -0.970 -166.480   -122.15  -61.74 -180.00  -22.13 -173.40 -129.62 -115.96  -36.35  -69.68  144.77 -179.66  150.23  115.95 -180.00  139.07  -10.28   12.76 -179.58   -9.58   19.61  157.53   12.10  -38.02  171.54

DOCKED: MODEL       96
DOCKED: USER    Run = 96
DOCKED: USER    DPF = D:/Protein_go_brrr/autodock/final/AncMH_nat/IHP/dock.dpf
DOCKED: USER  
DOCKED: USER    Estimated Free Energy of Binding    =   +4.25 kcal/mol  [=(1)+(2)+(3)-(4)]
DOCKED: USER    
DOCKED: USER    (1) Final Intermolecular Energy     =   -2.91 kcal/mol
DOCKED: USER        vdW + Hbond + desolv Energy     =   -2.81 kcal/mol
DOCKED: USER        Electrostatic Energy            =   -0.10 kcal/mol
DOCKED: USER    (2) Final Total Internal Energy     =  -13.51 kcal/mol
DOCKED: USER    (3) Torsional Free Energy           =   +7.16 kcal/mol
DOCKED: USER    (4) Unbound System's Energy  [=(2)] =  -13.51 kcal/mol
DOCKED: USER    
DOCKED: USER    
DOCKED: USER    NEWDPF move IHP_ideal_opt.pdbqt
DOCKED: USER    NEWDPF about 0.035000 0.082000 -0.065000
DOCKED: USER    NEWDPF tran0 15.680456 -5.007615 4.550648
DOCKED: USER    NEWDPF quaternion0 -0.122332 -0.209511 -0.962956 -0.117709
DOCKED: USER    NEWDPF axisangle0 -0.123189 -0.210978 -0.969697 -166.480147
DOCKED: USER    NEWDPF quat0 -0.123189 -0.210978 -0.969697 -166.480147
DOCKED: USER    NEWDPF dihe0 -122.15 -61.74 -180.00 -22.13 -173.40 -129.62 -115.96 -36.35 -69.68 144.77 -179.66 150.23 115.95 -180.00 139.07 -10.28 12.76 -179.58 -9.58 19.61 157.53 12.10 -38.02 171.54 
DOCKED: USER  keepresnum = 1 
DOCKED: USER  
DOCKED: REMARK  24 active torsions:
DOCKED: REMARK  status: ('A' for Active; 'I' for Inactive)
DOCKED: REMARK    1  A    between atoms: C_1  and  O_7 
DOCKED: REMARK    2  A    between atoms: C_2  and  O_12 
DOCKED: REMARK    3  A    between atoms: C_3  and  O_17 
DOCKED: REMARK    4  A    between atoms: C_4  and  O_22 
DOCKED: REMARK    5  A    between atoms: C_5  and  O_27 
DOCKED: REMARK    6  A    between atoms: C_6  and  O_32 
DOCKED: REMARK    7  A    between atoms: O_7  and  P_8 
DOCKED: REMARK    8  A    between atoms: P_8  and  O_10 
DOCKED: REMARK    9  A    between atoms: P_8  and  O_11 
DOCKED: REMARK   10  A    between atoms: O_12  and  P_13 
DOCKED: REMARK   11  A    between atoms: P_13  and  O_15 
DOCKED: REMARK   12  A    between atoms: P_13  and  O_16 
DOCKED: REMARK   13  A    between atoms: O_17  and  P_18 
DOCKED: REMARK   14  A    between atoms: P_18  and  O_20 
DOCKED: REMARK   15  A    between atoms: P_18  and  O_21 
DOCKED: REMARK   16  A    between atoms: O_22  and  P_23 
DOCKED: REMARK   17  A    between atoms: P_23  and  O_25 
DOCKED: REMARK   18  A    between atoms: P_23  and  O_26 
DOCKED: REMARK   19  A    between atoms: O_27  and  P_28 
DOCKED: REMARK   20  A    between atoms: P_28  and  O_30 
DOCKED: REMARK   21  A    between atoms: P_28  and  O_31 
DOCKED: REMARK   22  A    between atoms: O_32  and  P_33 
DOCKED: REMARK   23  A    between atoms: P_33  and  O_35 
DOCKED: REMARK   24  A    between atoms: P_33  and  O_36 
DOCKED: USER                              x       y       z     vdW  Elec       q    Type
DOCKED: USER                           _______ _______ _______ _____ _____    ______ ____
DOCKED: ROOT
DOCKED: ATOM      1  C   UNL d   1      14.400  -4.100   5.273 -0.09 +0.03    +0.194 C 
DOCKED: ATOM      2  C   UNL d   1      15.284  -3.329   4.290 -0.10 +0.04    +0.194 C 
DOCKED: ATOM      3  C   UNL d   1      16.767  -3.649   4.492 -0.02 +0.00    +0.194 C 
DOCKED: ATOM      4  C   UNL d   1      17.066  -5.146   4.486 -0.00 -0.01    +0.194 C 
DOCKED: ATOM      5  C   UNL d   1      16.133  -5.969   5.365 -0.01 -0.01    +0.194 C 
DOCKED: ATOM      6  C   UNL d   1      14.655  -5.607   5.208 -0.04 -0.01    +0.194 C 
DOCKED: ENDROOT
DOCKED: BRANCH   1   7
DOCKED: ATOM      7  O   UNL d   1      13.035  -3.883   4.909 -0.32 -0.12    -0.278 OA
DOCKED: BRANCH   7   8
DOCKED: ATOM      8  P   UNL d   1      11.999  -3.480   6.057 -0.05 +0.20    +0.473 P 
DOCKED: ATOM      9  O   UNL d   1      10.679  -2.992   5.572 -0.79 -0.11    -0.228 OA
DOCKED: BRANCH   8  10
DOCKED: ATOM     10  O   UNL d   1      11.891  -4.791   6.959 -0.07 +0.01    -0.303 OA
DOCKED: ATOM     11  H   UNL d   1      12.657  -4.837   7.561 +0.05 -0.01    +0.222 HD
DOCKED: ENDBRANCH   8  10
DOCKED: BRANCH   8  12
DOCKED: ATOM     12  O   UNL d   1      12.799  -2.488   7.006 -0.15 -0.12    -0.303 OA
DOCKED: ATOM     13  H   UNL d   1      13.047  -2.895   7.867 +0.04 +0.02    +0.222 HD
DOCKED: ENDBRANCH   8  12
DOCKED: ENDBRANCH   7   8
DOCKED: ENDBRANCH   1   7
DOCKED: BRANCH   2  14
DOCKED: ATOM     14  O   UNL d   1      14.918  -3.688   2.952 -0.14 -0.06    -0.278 OA
DOCKED: BRANCH  14  15
DOCKED: ATOM     15  P   UNL d   1      15.151  -2.576   1.824 -0.12 +0.13    +0.473 P 
DOCKED: ATOM     16  O   UNL d   1      13.962  -2.195   1.000 -0.94 -0.09    -0.228 OA
DOCKED: BRANCH  15  17
DOCKED: ATOM     17  O   UNL d   1      15.774  -1.343   2.617 -0.17 -0.10    -0.303 OA
DOCKED: ATOM     18  H   UNL d   1      16.739  -1.444   2.723 +0.07 +0.02    +0.222 HD
DOCKED: ENDBRANCH  15  17
DOCKED: BRANCH  15  19
DOCKED: ATOM     19  O   UNL d   1      16.412  -3.100   1.007 -0.09 +0.02    -0.303 OA
DOCKED: ATOM     20  H   UNL d   1      17.249  -2.873   1.452 +0.07 -0.01    +0.222 HD
DOCKED: ENDBRANCH  15  19
DOCKED: ENDBRANCH  14  15
DOCKED: ENDBRANCH   2  14
DOCKED: BRANCH   6  21
DOCKED: ATOM     21  O   UNL d   1      13.967  -6.195   6.310 -0.02 +0.03    -0.278 OA
DOCKED: BRANCH  21  22
DOCKED: ATOM     22  P   UNL d   1      14.436  -5.870   7.800 +0.02 -0.05    +0.473 P 
DOCKED: ATOM     23  O   UNL d   1      13.555  -6.299   8.925 -0.00 +0.03    -0.228 OA
DOCKED: BRANCH  22  24
DOCKED: ATOM     24  O   UNL d   1      15.900  -6.493   7.824 +0.00 +0.03    -0.303 OA
DOCKED: ATOM     25  H   UNL d   1      16.541  -5.766   8.032 +0.00 -0.02    +0.222 HD
DOCKED: ENDBRANCH  22  24
DOCKED: BRANCH  22  26
DOCKED: ATOM     26  O   UNL d   1      14.746  -4.300   7.709 +0.00 +0.01    -0.303 OA
DOCKED: ATOM     27  H   UNL d   1      13.947  -3.832   7.390 +0.03 +0.01    +0.222 HD
DOCKED: ENDBRANCH  22  26
DOCKED: ENDBRANCH  21  22
DOCKED: ENDBRANCH   6  21
DOCKED: BRANCH   3  28
DOCKED: ATOM     28  O   UNL d   1      17.474  -3.118   3.379 -0.02 +0.00    -0.278 OA
DOCKED: BRANCH  28  29
DOCKED: ATOM     29  P   UNL d   1      18.652  -2.068   3.600 +0.01 -0.02    +0.473 P 
DOCKED: ATOM     30  O   UNL d   1      18.448  -1.102   4.710 -0.01 +0.01    -0.228 OA
DOCKED: BRANCH  29  31
DOCKED: ATOM     31  O   UNL d   1      19.896  -3.067   3.725 -0.00 +0.03    -0.303 OA
DOCKED: ATOM     32  H   UNL d   1      19.774  -3.621   4.530 +0.00 -0.02    +0.222 HD
DOCKED: ENDBRANCH  29  31
DOCKED: BRANCH  29  33
DOCKED: ATOM     33  O   UNL d   1      18.835  -1.459   2.140 -0.04 +0.02    -0.303 OA
DOCKED: ATOM     34  H   UNL d   1      17.998  -1.591   1.630 +0.06 -0.01    +0.222 HD
DOCKED: ENDBRANCH  29  33
DOCKED: ENDBRANCH  28  29
DOCKED: ENDBRANCH   3  28
DOCKED: BRANCH   5  35
DOCKED: ATOM     35  O   UNL d   1      16.283  -7.319   4.930 -0.01 +0.03    -0.278 OA
DOCKED: BRANCH  35  36
DOCKED: ATOM     36  P   UNL d   1      17.343  -8.279   5.637 +0.00 -0.06    +0.473 P 
DOCKED: ATOM     37  O   UNL d   1      17.175  -8.448   7.114 -0.00 +0.03    -0.228 OA
DOCKED: BRANCH  36  38
DOCKED: ATOM     38  O   UNL d   1      17.173  -9.623   4.801 -0.00 +0.04    -0.303 OA
DOCKED: ATOM     39  H   UNL d   1      17.213 -10.390   5.413 +0.00 -0.03    +0.222 HD
DOCKED: ENDBRANCH  36  38
DOCKED: BRANCH  36  40
DOCKED: ATOM     40  O   UNL d   1      18.729  -7.685   5.132 -0.00 +0.03    -0.303 OA
DOCKED: ATOM     41  H   UNL d   1      19.171  -7.150   5.828 +0.00 -0.02    +0.222 HD
DOCKED: ENDBRANCH  36  40
DOCKED: ENDBRANCH  35  36
DOCKED: ENDBRANCH   5  35
DOCKED: BRANCH   4  42
DOCKED: ATOM     42  O   UNL d   1      18.389  -5.306   5.009 +0.00 +0.02    -0.278 OA
DOCKED: BRANCH  42  43
DOCKED: ATOM     43  P   UNL d   1      18.697  -4.806   6.492 +0.01 -0.04    +0.473 P 
DOCKED: ATOM     44  O   UNL d   1      19.937  -4.009   6.704 +0.00 +0.02    -0.228 OA
DOCKED: BRANCH  43  45
DOCKED: ATOM     45  O   UNL d   1      17.357  -4.045   6.889 +0.00 +0.02    -0.303 OA
DOCKED: ATOM     46  H   UNL d   1      16.834  -4.556   7.539 +0.01 -0.01    +0.222 HD
DOCKED: ENDBRANCH  43  45
DOCKED: BRANCH  43  47
DOCKED: ATOM     47  O   UNL d   1      18.580  -6.147   7.363 +0.00 +0.03    -0.303 OA
DOCKED: ATOM     48  H   UNL d   1      17.924  -6.745   6.948 +0.00 -0.02    +0.222 HD
DOCKED: ENDBRANCH  43  47
DOCKED: ENDBRANCH  42  43
DOCKED: ENDBRANCH   4  42
DOCKED: TORSDOF 24
DOCKED: TER
DOCKED: ENDMDL
________________________________________________________________________________


	BEGINNING GENETIC ALGORITHM DOCKING 97 of 100
Run: 97 Seed: 550191651 129463156 [ Run 97 of 100 GA/GALS ]
Beginning LAMARCKIAN GENETIC ALGORITHM (LGA), with a maximum of 25000000 energy evaluations.

Final-Value: -18.950


	FINAL GENETIC ALGORITHM DOCKED STATE
	_______________________________________________


Detailed state:  trans -3.809 -15.201 17.806 quatxyzw 0.661400 -0.354741 -0.361620 -0.553118 center 0.035 0.082 -0.065 ntor 24 85.3703 121.3937 130.9776 -12.5540 106.7671 78.7977 -102.7945 -105.7608 75.0975 75.8189 137.0793 122.1946 -67.3349 177.4011 -179.3250 50.8557 54.8254 -163.3101 -148.6192 3.9864 13.2468 -3.5116 -175.2310 17.8457
State:	 -3.809 -15.201  17.806   0.794 -0.426 -0.434 -112.838     85.37  121.39  130.98  -12.55  106.77   78.80 -102.79 -105.76   75.10   75.82  137.08  122.19  -67.33  177.40 -179.33   50.86   54.83 -163.31 -148.62    3.99   13.25   -3.51 -175.23   17.85

DOCKED: MODEL       97
DOCKED: USER    Run = 97
DOCKED: USER    DPF = D:/Protein_go_brrr/autodock/final/AncMH_nat/IHP/dock.dpf
DOCKED: USER  
DOCKED: USER    Estimated Free Energy of Binding    =   +4.05 kcal/mol  [=(1)+(2)+(3)-(4)]
DOCKED: USER    
DOCKED: USER    (1) Final Intermolecular Energy     =   -3.11 kcal/mol
DOCKED: USER        vdW + Hbond + desolv Energy     =   -2.98 kcal/mol
DOCKED: USER        Electrostatic Energy            =   -0.13 kcal/mol
DOCKED: USER    (2) Final Total Internal Energy     =  -15.84 kcal/mol
DOCKED: USER    (3) Torsional Free Energy           =   +7.16 kcal/mol
DOCKED: USER    (4) Unbound System's Energy  [=(2)] =  -15.84 kcal/mol
DOCKED: USER    
DOCKED: USER    
DOCKED: USER    NEWDPF move IHP_ideal_opt.pdbqt
DOCKED: USER    NEWDPF about 0.035000 0.082000 -0.065000
DOCKED: USER    NEWDPF tran0 -3.808983 -15.201365 17.806068
DOCKED: USER    NEWDPF quaternion0 0.661400 -0.354741 -0.361620 -0.553118
DOCKED: USER    NEWDPF axisangle0 0.793900 -0.425808 -0.434064 -112.837591
DOCKED: USER    NEWDPF quat0 0.793900 -0.425808 -0.434064 -112.837591
DOCKED: USER    NEWDPF dihe0 85.37 121.39 130.98 -12.55 106.77 78.80 -102.79 -105.76 75.10 75.82 137.08 122.19 -67.33 177.40 -179.33 50.86 54.83 -163.31 -148.62 3.99 13.25 -3.51 -175.23 17.85 
DOCKED: USER  keepresnum = 1 
DOCKED: USER  
DOCKED: REMARK  24 active torsions:
DOCKED: REMARK  status: ('A' for Active; 'I' for Inactive)
DOCKED: REMARK    1  A    between atoms: C_1  and  O_7 
DOCKED: REMARK    2  A    between atoms: C_2  and  O_12 
DOCKED: REMARK    3  A    between atoms: C_3  and  O_17 
DOCKED: REMARK    4  A    between atoms: C_4  and  O_22 
DOCKED: REMARK    5  A    between atoms: C_5  and  O_27 
DOCKED: REMARK    6  A    between atoms: C_6  and  O_32 
DOCKED: REMARK    7  A    between atoms: O_7  and  P_8 
DOCKED: REMARK    8  A    between atoms: P_8  and  O_10 
DOCKED: REMARK    9  A    between atoms: P_8  and  O_11 
DOCKED: REMARK   10  A    between atoms: O_12  and  P_13 
DOCKED: REMARK   11  A    between atoms: P_13  and  O_15 
DOCKED: REMARK   12  A    between atoms: P_13  and  O_16 
DOCKED: REMARK   13  A    between atoms: O_17  and  P_18 
DOCKED: REMARK   14  A    between atoms: P_18  and  O_20 
DOCKED: REMARK   15  A    between atoms: P_18  and  O_21 
DOCKED: REMARK   16  A    between atoms: O_22  and  P_23 
DOCKED: REMARK   17  A    between atoms: P_23  and  O_25 
DOCKED: REMARK   18  A    between atoms: P_23  and  O_26 
DOCKED: REMARK   19  A    between atoms: O_27  and  P_28 
DOCKED: REMARK   20  A    between atoms: P_28  and  O_30 
DOCKED: REMARK   21  A    between atoms: P_28  and  O_31 
DOCKED: REMARK   22  A    between atoms: O_32  and  P_33 
DOCKED: REMARK   23  A    between atoms: P_33  and  O_35 
DOCKED: REMARK   24  A    between atoms: P_33  and  O_36 
DOCKED: USER                              x       y       z     vdW  Elec       q    Type
DOCKED: USER                           _______ _______ _______ _____ _____    ______ ____
DOCKED: ROOT
DOCKED: ATOM      1  C   UNL d   1      -3.826 -16.545  16.721 -0.11 -0.02    +0.194 C 
DOCKED: ATOM      2  C   UNL d   1      -4.057 -15.175  16.080 -0.08 -0.03    +0.194 C 
DOCKED: ATOM      3  C   UNL d   1      -5.010 -14.314  16.911 -0.12 +0.00    +0.194 C 
DOCKED: ATOM      4  C   UNL d   1      -4.598 -14.204  18.377 -0.04 -0.01    +0.194 C 
DOCKED: ATOM      5  C   UNL d   1      -4.247 -15.537  19.025 -0.01 -0.01    +0.194 C 
DOCKED: ATOM      6  C   UNL d   1      -3.343 -16.425  18.167 -0.03 -0.01    +0.194 C 
DOCKED: ENDROOT
DOCKED: BRANCH   1   7
DOCKED: ATOM      7  O   UNL d   1      -2.801 -17.215  15.984 -0.10 +0.03    -0.278 OA
DOCKED: BRANCH   7   8
DOCKED: ATOM      8  P   UNL d   1      -1.281 -16.990  16.420 -0.01 -0.04    +0.473 P 
DOCKED: ATOM      9  O   UNL d   1      -1.049 -15.825  17.318 -0.02 +0.02    -0.228 OA
DOCKED: BRANCH   8  10
DOCKED: ATOM     10  O   UNL d   1      -0.856 -18.381  17.074 -0.01 +0.02    -0.303 OA
DOCKED: ATOM     11  H   UNL d   1      -1.289 -18.481  17.942 +0.01 -0.02    +0.222 HD
DOCKED: ENDBRANCH   8  10
DOCKED: BRANCH   8  12
DOCKED: ATOM     12  O   UNL d   1      -0.456 -16.994  15.062 -0.04 +0.02    -0.303 OA
DOCKED: ATOM     13  H   UNL d   1      -0.548 -16.158  14.552 +0.07 -0.02    +0.222 HD
DOCKED: ENDBRANCH   8  12
DOCKED: ENDBRANCH   7   8
DOCKED: ENDBRANCH   1   7
DOCKED: BRANCH   2  14
DOCKED: ATOM     14  O   UNL d   1      -2.801 -14.493  15.973 -0.09 +0.03    -0.278 OA
DOCKED: BRANCH  14  15
DOCKED: ATOM     15  P   UNL d   1      -2.506 -13.752  14.584 -0.22 -0.07    +0.473 P 
DOCKED: ATOM     16  O   UNL d   1      -1.215 -14.087  13.905 -0.27 +0.03    -0.228 OA
DOCKED: BRANCH  15  17
DOCKED: ATOM     17  O   UNL d   1      -3.780 -14.086  13.688 -0.18 +0.05    -0.303 OA
DOCKED: ATOM     18  H   UNL d   1      -4.591 -14.122  14.230 -0.30 -0.03    +0.222 HD
DOCKED: ENDBRANCH  15  17
DOCKED: BRANCH  15  19
DOCKED: ATOM     19  O   UNL d   1      -2.734 -12.210  14.901 -0.31 +0.07    -0.303 OA
DOCKED: ATOM     20  H   UNL d   1      -3.679 -12.001  15.015 +0.04 -0.03    +0.222 HD
DOCKED: ENDBRANCH  15  19
DOCKED: ENDBRANCH  14  15
DOCKED: ENDBRANCH   2  14
DOCKED: BRANCH   6  21
DOCKED: ATOM     21  O   UNL d   1      -3.390 -17.732  18.734 -0.01 +0.02    -0.278 OA
DOCKED: BRANCH  21  22
DOCKED: ATOM     22  P   UNL d   1      -2.352 -18.138  19.875 +0.00 -0.04    +0.473 P 
DOCKED: ATOM     23  O   UNL d   1      -1.925 -19.564  19.965 -0.00 +0.02    -0.228 OA
DOCKED: BRANCH  22  24
DOCKED: ATOM     24  O   UNL d   1      -1.170 -17.102  19.623 -0.00 +0.02    -0.303 OA
DOCKED: ATOM     25  H   UNL d   1      -1.572 -16.221  19.412 +0.01 -0.02    +0.222 HD
DOCKED: ENDBRANCH  22  24
DOCKED: BRANCH  22  26
DOCKED: ATOM     26  O   UNL d   1      -3.051 -17.529  21.183 -0.00 +0.02    -0.303 OA
DOCKED: ATOM     27  H   UNL d   1      -2.677 -16.643  21.365 +0.00 -0.02    +0.222 HD
DOCKED: ENDBRANCH  22  26
DOCKED: ENDBRANCH  21  22
DOCKED: ENDBRANCH   6  21
DOCKED: BRANCH   3  28
DOCKED: ATOM     28  O   UNL d   1      -4.946 -12.989  16.401 -0.13 -0.02    -0.278 OA
DOCKED: BRANCH  28  29
DOCKED: ATOM     29  P   UNL d   1      -6.156 -12.394  15.553 -0.12 +0.27    +0.473 P 
DOCKED: ATOM     30  O   UNL d   1      -7.484 -13.008  15.813 -0.56 -0.23    -0.228 OA
DOCKED: BRANCH  29  31
DOCKED: ATOM     31  O   UNL d   1      -5.996 -10.838  15.892 -0.22 -0.10    -0.303 OA
DOCKED: ATOM     32  H   UNL d   1      -5.943 -10.734  16.870 +0.10 +0.04    +0.222 HD
DOCKED: ENDBRANCH  29  31
DOCKED: BRANCH  29  33
DOCKED: ATOM     33  O   UNL d   1      -5.599 -12.488  14.064 -0.28 -0.19    -0.303 OA
DOCKED: ATOM     34  H   UNL d   1      -4.675 -12.137  14.044 +0.10 +0.03    +0.222 HD
DOCKED: ENDBRANCH  29  33
DOCKED: ENDBRANCH  28  29
DOCKED: ENDBRANCH   3  28
DOCKED: BRANCH   5  35
DOCKED: ATOM     35  O   UNL d   1      -3.518 -15.213  20.207 -0.00 +0.02    -0.278 OA
DOCKED: BRANCH  35  36
DOCKED: ATOM     36  P   UNL d   1      -2.372 -14.104  20.166 -0.01 -0.04    +0.473 P 
DOCKED: ATOM     37  O   UNL d   1      -2.770 -12.748  20.658 -0.02 +0.02    -0.228 OA
DOCKED: BRANCH  36  38
DOCKED: ATOM     38  O   UNL d   1      -1.218 -14.795  21.017 -0.00 +0.03    -0.303 OA
DOCKED: ATOM     39  H   UNL d   1      -1.492 -15.709  21.248 +0.00 -0.02    +0.222 HD
DOCKED: ENDBRANCH  36  38
DOCKED: BRANCH  36  40
DOCKED: ATOM     40  O   UNL d   1      -1.855 -14.204  18.666 -0.02 +0.03    -0.303 OA
DOCKED: ATOM     41  H   UNL d   1      -2.583 -14.424  18.043 +0.04 -0.02    +0.222 HD
DOCKED: ENDBRANCH  36  40
DOCKED: ENDBRANCH  35  36
DOCKED: ENDBRANCH   5  35
DOCKED: BRANCH   4  42
DOCKED: ATOM     42  O   UNL d   1      -5.724 -13.675  19.086 -0.02 +0.00    -0.278 OA
DOCKED: BRANCH  42  43
DOCKED: ATOM     43  P   UNL d   1      -5.824 -12.098  19.307 -0.03 -0.00    +0.473 P 
DOCKED: ATOM     44  O   UNL d   1      -5.809 -11.600  20.711 -0.02 +0.01    -0.228 OA
DOCKED: BRANCH  43  45
DOCKED: ATOM     45  O   UNL d   1      -4.635 -11.543  18.407 -0.08 +0.00    -0.303 OA
DOCKED: ATOM     46  H   UNL d   1      -4.784 -11.734  17.459 +0.08 +0.01    +0.222 HD
DOCKED: ENDBRANCH  43  45
DOCKED: BRANCH  43  47
DOCKED: ATOM     47  O   UNL d   1      -7.108 -11.688  18.440 -0.05 -0.03    -0.303 OA
DOCKED: ATOM     48  H   UNL d   1      -6.962 -11.944  17.506 +0.08 +0.05    +0.222 HD
DOCKED: ENDBRANCH  43  47
DOCKED: ENDBRANCH  42  43
DOCKED: ENDBRANCH   4  42
DOCKED: TORSDOF 24
DOCKED: TER
DOCKED: ENDMDL
________________________________________________________________________________


	BEGINNING GENETIC ALGORITHM DOCKING 98 of 100
Run: 98 Seed: 767661043 2105180848 [ Run 98 of 100 GA/GALS ]
Beginning LAMARCKIAN GENETIC ALGORITHM (LGA), with a maximum of 25000000 energy evaluations.

Final-Value: -17.499


	FINAL GENETIC ALGORITHM DOCKED STATE
	_______________________________________________


Detailed state:  trans -5.699 -10.054 19.716 quatxyzw 0.019589 -0.274940 -0.631910 -0.724371 center 0.035 0.082 -0.065 ntor 24 2.0390 71.9507 179.9804 -35.6364 -37.3985 -148.8416 -128.8948 -71.7540 81.3506 54.5679 116.0464 145.9048 -3.8947 176.3289 -10.5506 -135.9153 130.1190 -116.8687 -0.3374 16.1475 4.2002 -1.1080 -15.3259 171.8113
State:	 -5.699 -10.054  19.716   0.028 -0.399 -0.917 -87.167      2.04   71.95  179.98  -35.64  -37.40 -148.84 -128.89  -71.75   81.35   54.57  116.05  145.90   -3.89  176.33  -10.55 -135.92  130.12 -116.87   -0.34   16.15    4.20   -1.11  -15.33  171.81

DOCKED: MODEL       98
DOCKED: USER    Run = 98
DOCKED: USER    DPF = D:/Protein_go_brrr/autodock/final/AncMH_nat/IHP/dock.dpf
DOCKED: USER  
DOCKED: USER    Estimated Free Energy of Binding    =   +3.29 kcal/mol  [=(1)+(2)+(3)-(4)]
DOCKED: USER    
DOCKED: USER    (1) Final Intermolecular Energy     =   -3.87 kcal/mol
DOCKED: USER        vdW + Hbond + desolv Energy     =   -3.69 kcal/mol
DOCKED: USER        Electrostatic Energy            =   -0.18 kcal/mol
DOCKED: USER    (2) Final Total Internal Energy     =  -13.63 kcal/mol
DOCKED: USER    (3) Torsional Free Energy           =   +7.16 kcal/mol
DOCKED: USER    (4) Unbound System's Energy  [=(2)] =  -13.63 kcal/mol
DOCKED: USER    
DOCKED: USER    
DOCKED: USER    NEWDPF move IHP_ideal_opt.pdbqt
DOCKED: USER    NEWDPF about 0.035000 0.082000 -0.065000
DOCKED: USER    NEWDPF tran0 -5.699380 -10.054191 19.716179
DOCKED: USER    NEWDPF quaternion0 0.019589 -0.274940 -0.631910 -0.724371
DOCKED: USER    NEWDPF axisangle0 0.028414 -0.398805 -0.916595 -87.166822
DOCKED: USER    NEWDPF quat0 0.028414 -0.398805 -0.916595 -87.166822
DOCKED: USER    NEWDPF dihe0 2.04 71.95 179.98 -35.64 -37.40 -148.84 -128.89 -71.75 81.35 54.57 116.05 145.90 -3.89 176.33 -10.55 -135.92 130.12 -116.87 -0.34 16.15 4.20 -1.11 -15.33 171.81 
DOCKED: USER  keepresnum = 1 
DOCKED: USER  
DOCKED: REMARK  24 active torsions:
DOCKED: REMARK  status: ('A' for Active; 'I' for Inactive)
DOCKED: REMARK    1  A    between atoms: C_1  and  O_7 
DOCKED: REMARK    2  A    between atoms: C_2  and  O_12 
DOCKED: REMARK    3  A    between atoms: C_3  and  O_17 
DOCKED: REMARK    4  A    between atoms: C_4  and  O_22 
DOCKED: REMARK    5  A    between atoms: C_5  and  O_27 
DOCKED: REMARK    6  A    between atoms: C_6  and  O_32 
DOCKED: REMARK    7  A    between atoms: O_7  and  P_8 
DOCKED: REMARK    8  A    between atoms: P_8  and  O_10 
DOCKED: REMARK    9  A    between atoms: P_8  and  O_11 
DOCKED: REMARK   10  A    between atoms: O_12  and  P_13 
DOCKED: REMARK   11  A    between atoms: P_13  and  O_15 
DOCKED: REMARK   12  A    between atoms: P_13  and  O_16 
DOCKED: REMARK   13  A    between atoms: O_17  and  P_18 
DOCKED: REMARK   14  A    between atoms: P_18  and  O_20 
DOCKED: REMARK   15  A    between atoms: P_18  and  O_21 
DOCKED: REMARK   16  A    between atoms: O_22  and  P_23 
DOCKED: REMARK   17  A    between atoms: P_23  and  O_25 
DOCKED: REMARK   18  A    between atoms: P_23  and  O_26 
DOCKED: REMARK   19  A    between atoms: O_27  and  P_28 
DOCKED: REMARK   20  A    between atoms: P_28  and  O_30 
DOCKED: REMARK   21  A    between atoms: P_28  and  O_31 
DOCKED: REMARK   22  A    between atoms: O_32  and  P_33 
DOCKED: REMARK   23  A    between atoms: P_33  and  O_35 
DOCKED: REMARK   24  A    between atoms: P_33  and  O_36 
DOCKED: USER                              x       y       z     vdW  Elec       q    Type
DOCKED: USER                           _______ _______ _______ _____ _____    ______ ____
DOCKED: ROOT
DOCKED: ATOM      1  C   UNL d   1      -6.775 -11.141  20.521 -0.03 -0.00    +0.194 C 
DOCKED: ATOM      2  C   UNL d   1      -7.408 -10.264  19.440 -0.08 +0.00    +0.194 C 
DOCKED: ATOM      3  C   UNL d   1      -6.910  -8.819  19.518 -0.17 -0.01    +0.194 C 
DOCKED: ATOM      4  C   UNL d   1      -5.387  -8.708  19.532 -0.17 -0.02    +0.194 C 
DOCKED: ATOM      5  C   UNL d   1      -4.705  -9.650  20.516 -0.11 -0.02    +0.194 C 
DOCKED: ATOM      6  C   UNL d   1      -5.247 -11.080  20.481 -0.06 -0.01    +0.194 C 
DOCKED: ENDROOT
DOCKED: BRANCH   1   7
DOCKED: ATOM      7  O   UNL d   1      -7.154 -12.497  20.275 -0.01 +0.00    -0.278 OA
DOCKED: BRANCH   7   8
DOCKED: ATOM      8  P   UNL d   1      -7.912 -13.295  21.433 +0.00 -0.01    +0.473 P 
DOCKED: ATOM      9  O   UNL d   1      -9.047 -12.567  22.062 +0.00 +0.01    -0.228 OA
DOCKED: BRANCH   8  10
DOCKED: ATOM     10  O   UNL d   1      -8.351 -14.661  20.736 +0.00 +0.01    -0.303 OA
DOCKED: ATOM     11  H   UNL d   1      -9.119 -15.036  21.207 +0.00 -0.01    +0.222 HD
DOCKED: ENDBRANCH   8  10
DOCKED: BRANCH   8  12
DOCKED: ATOM     12  O   UNL d   1      -6.765 -13.779  22.420 -0.00 +0.01    -0.303 OA
DOCKED: ATOM     13  H   UNL d   1      -5.970 -13.199  22.401 +0.00 -0.01    +0.222 HD
DOCKED: ENDBRANCH   8  12
DOCKED: ENDBRANCH   7   8
DOCKED: ENDBRANCH   1   7
DOCKED: BRANCH   2  14
DOCKED: ATOM     14  O   UNL d   1      -7.072 -10.794  18.152 -0.11 -0.03    -0.278 OA
DOCKED: BRANCH  14  15
DOCKED: ATOM     15  P   UNL d   1      -8.161 -10.606  16.993 -0.16 +0.16    +0.473 P 
DOCKED: ATOM     16  O   UNL d   1      -8.559 -11.835  16.239 -0.77 -0.22    -0.228 OA
DOCKED: BRANCH  15  17
DOCKED: ATOM     17  O   UNL d   1      -9.390  -9.907  17.727 -0.08 -0.06    -0.303 OA
DOCKED: ATOM     18  H   UNL d   1      -9.268  -8.939  17.774 +0.11 +0.03    +0.222 HD
DOCKED: ENDBRANCH  15  17
DOCKED: BRANCH  15  19
DOCKED: ATOM     19  O   UNL d   1      -7.596  -9.411  16.108 -0.18 -0.06    -0.303 OA
DOCKED: ATOM     20  H   UNL d   1      -7.980  -8.554  16.371 -0.22 -0.01    +0.222 HD
DOCKED: ENDBRANCH  15  19
DOCKED: ENDBRANCH  14  15
DOCKED: ENDBRANCH   2  14
DOCKED: BRANCH   6  21
DOCKED: ATOM     21  O   UNL d   1      -4.772 -11.730  21.658 -0.01 +0.02    -0.278 OA
DOCKED: BRANCH  21  22
DOCKED: ATOM     22  P   UNL d   1      -3.480 -12.663  21.581 -0.01 -0.04    +0.473 P 
DOCKED: ATOM     23  O   UNL d   1      -2.555 -12.492  20.424 -0.03 +0.02    -0.228 OA
DOCKED: BRANCH  22  24
DOCKED: ATOM     24  O   UNL d   1      -2.817 -12.419  23.008 -0.00 +0.03    -0.303 OA
DOCKED: ATOM     25  H   UNL d   1      -2.042 -11.813  22.888 +0.01 -0.02    +0.222 HD
DOCKED: ENDBRANCH  22  24
DOCKED: BRANCH  22  26
DOCKED: ATOM     26  O   UNL d   1      -4.121 -14.121  21.759 -0.00 +0.02    -0.303 OA
DOCKED: ATOM     27  H   UNL d   1      -4.983 -14.153  21.296 +0.00 -0.01    +0.222 HD
DOCKED: ENDBRANCH  22  26
DOCKED: ENDBRANCH  21  22
DOCKED: ENDBRANCH   6  21
DOCKED: BRANCH   3  28
DOCKED: ATOM     28  O   UNL d   1      -7.326  -8.158  18.329 -0.24 +0.03    -0.278 OA
DOCKED: BRANCH  28  29
DOCKED: ATOM     29  P   UNL d   1      -8.465  -7.047  18.384 -0.25 -0.01    +0.473 P 
DOCKED: ATOM     30  O   UNL d   1      -9.111  -6.728  17.084 -0.45 -0.01    -0.228 OA
DOCKED: BRANCH  29  31
DOCKED: ATOM     31  O   UNL d   1      -9.400  -7.662  19.528 -0.06 -0.01    -0.303 OA
DOCKED: ATOM     32  H   UNL d   1      -9.929  -8.397  19.140 +0.08 +0.02    +0.222 HD
DOCKED: ENDBRANCH  29  31
DOCKED: BRANCH  29  33
DOCKED: ATOM     33  O   UNL d   1      -7.731  -5.851  19.135 -0.19 +0.02    -0.303 OA
DOCKED: ATOM     34  H   UNL d   1      -6.888  -6.188  19.527 +0.09 -0.02    +0.222 HD
DOCKED: ENDBRANCH  29  33
DOCKED: ENDBRANCH  28  29
DOCKED: ENDBRANCH   3  28
DOCKED: BRANCH   5  35
DOCKED: ATOM     35  O   UNL d   1      -3.339  -9.708  20.113 -0.03 +0.04    -0.278 OA
DOCKED: BRANCH  35  36
DOCKED: ATOM     36  P   UNL d   1      -2.193  -9.146  21.069 -0.03 -0.09    +0.473 P 
DOCKED: ATOM     37  O   UNL d   1      -0.791  -9.376  20.600 -0.09 +0.05    -0.228 OA
DOCKED: BRANCH  36  38
DOCKED: ATOM     38  O   UNL d   1      -2.597  -7.611  21.196 -0.09 +0.09    -0.303 OA
DOCKED: ATOM     39  H   UNL d   1      -3.497  -7.484  20.824 +0.06 -0.07    +0.222 HD
DOCKED: ENDBRANCH  36  38
DOCKED: BRANCH  36  40
DOCKED: ATOM     40  O   UNL d   1      -2.593  -9.765  22.479 -0.02 +0.04    -0.303 OA
DOCKED: ATOM     41  H   UNL d   1      -3.274 -10.468  22.388 +0.02 -0.02    +0.222 HD
DOCKED: ENDBRANCH  36  40
DOCKED: ENDBRANCH  35  36
DOCKED: ENDBRANCH   5  35
DOCKED: BRANCH   4  42
DOCKED: ATOM     42  O   UNL d   1      -5.073  -7.372  19.940 -0.25 +0.07    -0.278 OA
DOCKED: BRANCH  42  43
DOCKED: ATOM     43  P   UNL d   1      -5.554  -6.871  21.375 -0.08 -0.08    +0.473 P 
DOCKED: ATOM     44  O   UNL d   1      -7.012  -6.631  21.566 -0.06 +0.02    -0.228 OA
DOCKED: BRANCH  43  45
DOCKED: ATOM     45  O   UNL d   1      -4.942  -7.969  22.352 -0.02 +0.04    -0.303 OA
DOCKED: ATOM     46  H   UNL d   1      -4.024  -8.195  22.104 +0.04 -0.04    +0.222 HD
DOCKED: ENDBRANCH  43  45
DOCKED: BRANCH  43  47
DOCKED: ATOM     47  O   UNL d   1      -4.602  -5.613  21.662 -0.09 +0.07    -0.303 OA
DOCKED: ATOM     48  H   UNL d   1      -3.716  -5.787  21.283 +0.05 -0.08    +0.222 HD
DOCKED: ENDBRANCH  43  47
DOCKED: ENDBRANCH  42  43
DOCKED: ENDBRANCH   4  42
DOCKED: TORSDOF 24
DOCKED: TER
DOCKED: ENDMDL
________________________________________________________________________________


	BEGINNING GENETIC ALGORITHM DOCKING 99 of 100
Run: 99 Seed: 847316333 1583010235 [ Run 99 of 100 GA/GALS ]
Beginning LAMARCKIAN GENETIC ALGORITHM (LGA), with a maximum of 25000000 energy evaluations.

Final-Value: -18.250


	FINAL GENETIC ALGORITHM DOCKED STATE
	_______________________________________________


Detailed state:  trans 3.018 -2.705 20.792 quatxyzw 0.714955 -0.063518 -0.578405 0.387625 center 0.035 0.082 -0.065 ntor 24 126.0060 36.0170 119.6152 100.6782 -2.3577 -114.0257 -95.3709 -13.6812 -179.8323 -178.9999 -170.6301 168.1726 156.1003 87.3214 -52.4363 161.2896 179.9982 167.7244 38.6661 -0.2601 -170.4166 17.3565 24.0318 -177.8311
State:	  3.018  -2.705  20.792   0.776 -0.069 -0.627 134.386    126.01   36.02  119.62  100.68   -2.36 -114.03  -95.37  -13.68 -179.83 -179.00 -170.63  168.17  156.10   87.32  -52.44  161.29  180.00  167.72   38.67   -0.26 -170.42   17.36   24.03 -177.83

DOCKED: MODEL       99
DOCKED: USER    Run = 99
DOCKED: USER    DPF = D:/Protein_go_brrr/autodock/final/AncMH_nat/IHP/dock.dpf
DOCKED: USER  
DOCKED: USER    Estimated Free Energy of Binding    =   +2.85 kcal/mol  [=(1)+(2)+(3)-(4)]
DOCKED: USER    
DOCKED: USER    (1) Final Intermolecular Energy     =   -4.31 kcal/mol
DOCKED: USER        vdW + Hbond + desolv Energy     =   -4.02 kcal/mol
DOCKED: USER        Electrostatic Energy            =   -0.29 kcal/mol
DOCKED: USER    (2) Final Total Internal Energy     =  -13.94 kcal/mol
DOCKED: USER    (3) Torsional Free Energy           =   +7.16 kcal/mol
DOCKED: USER    (4) Unbound System's Energy  [=(2)] =  -13.94 kcal/mol
DOCKED: USER    
DOCKED: USER    
DOCKED: USER    NEWDPF move IHP_ideal_opt.pdbqt
DOCKED: USER    NEWDPF about 0.035000 0.082000 -0.065000
DOCKED: USER    NEWDPF tran0 3.018200 -2.705130 20.791885
DOCKED: USER    NEWDPF quaternion0 0.714955 -0.063518 -0.578405 0.387625
DOCKED: USER    NEWDPF axisangle0 0.775593 -0.068905 -0.627462 134.386396
DOCKED: USER    NEWDPF quat0 0.775593 -0.068905 -0.627462 134.386396
DOCKED: USER    NEWDPF dihe0 126.01 36.02 119.62 100.68 -2.36 -114.03 -95.37 -13.68 -179.83 -179.00 -170.63 168.17 156.10 87.32 -52.44 161.29 180.00 167.72 38.67 -0.26 -170.42 17.36 24.03 -177.83 
DOCKED: USER  keepresnum = 1 
DOCKED: USER  
DOCKED: REMARK  24 active torsions:
DOCKED: REMARK  status: ('A' for Active; 'I' for Inactive)
DOCKED: REMARK    1  A    between atoms: C_1  and  O_7 
DOCKED: REMARK    2  A    between atoms: C_2  and  O_12 
DOCKED: REMARK    3  A    between atoms: C_3  and  O_17 
DOCKED: REMARK    4  A    between atoms: C_4  and  O_22 
DOCKED: REMARK    5  A    between atoms: C_5  and  O_27 
DOCKED: REMARK    6  A    between atoms: C_6  and  O_32 
DOCKED: REMARK    7  A    between atoms: O_7  and  P_8 
DOCKED: REMARK    8  A    between atoms: P_8  and  O_10 
DOCKED: REMARK    9  A    between atoms: P_8  and  O_11 
DOCKED: REMARK   10  A    between atoms: O_12  and  P_13 
DOCKED: REMARK   11  A    between atoms: P_13  and  O_15 
DOCKED: REMARK   12  A    between atoms: P_13  and  O_16 
DOCKED: REMARK   13  A    between atoms: O_17  and  P_18 
DOCKED: REMARK   14  A    between atoms: P_18  and  O_20 
DOCKED: REMARK   15  A    between atoms: P_18  and  O_21 
DOCKED: REMARK   16  A    between atoms: O_22  and  P_23 
DOCKED: REMARK   17  A    between atoms: P_23  and  O_25 
DOCKED: REMARK   18  A    between atoms: P_23  and  O_26 
DOCKED: REMARK   19  A    between atoms: O_27  and  P_28 
DOCKED: REMARK   20  A    between atoms: P_28  and  O_30 
DOCKED: REMARK   21  A    between atoms: P_28  and  O_31 
DOCKED: REMARK   22  A    between atoms: O_32  and  P_33 
DOCKED: REMARK   23  A    between atoms: P_33  and  O_35 
DOCKED: REMARK   24  A    between atoms: P_33  and  O_36 
DOCKED: USER                              x       y       z     vdW  Elec       q    Type
DOCKED: USER                           _______ _______ _______ _____ _____    ______ ____
DOCKED: ROOT
DOCKED: ATOM      1  C   UNL d   1       3.286  -1.147  20.097 -0.01 -0.05    +0.194 C 
DOCKED: ATOM      2  C   UNL d   1       3.604  -1.269  21.588 +0.00 -0.04    +0.194 C 
DOCKED: ATOM      3  C   UNL d   1       2.528  -2.062  22.334 +0.01 -0.04    +0.194 C 
DOCKED: ATOM      4  C   UNL d   1       2.228  -3.415  21.695 +0.00 -0.06    +0.194 C 
DOCKED: ATOM      5  C   UNL d   1       2.018  -3.357  20.187 -0.04 -0.09    +0.194 C 
DOCKED: ATOM      6  C   UNL d   1       3.059  -2.513  19.449 -0.04 -0.07    +0.194 C 
DOCKED: ENDROOT
DOCKED: BRANCH   1   7
DOCKED: ATOM      7  O   UNL d   1       4.412  -0.550  19.448 -0.01 +0.07    -0.278 OA
DOCKED: BRANCH   7   8
DOCKED: ATOM      8  P   UNL d   1       4.535   1.043  19.456 -0.01 -0.10    +0.473 P 
DOCKED: ATOM      9  O   UNL d   1       5.278   1.624  18.304 -0.03 +0.05    -0.228 OA
DOCKED: BRANCH   8  10
DOCKED: ATOM     10  O   UNL d   1       3.025   1.548  19.547 -0.06 +0.07    -0.303 OA
DOCKED: ATOM     11  H   UNL d   1       2.440   0.915  19.089 +0.04 -0.06    +0.222 HD
DOCKED: ENDBRANCH   8  10
DOCKED: BRANCH   8  12
DOCKED: ATOM     12  O   UNL d   1       5.095   1.407  20.897 -0.00 +0.05    -0.303 OA
DOCKED: ATOM     13  H   UNL d   1       5.110   0.639  21.511 +0.00 -0.04    +0.222 HD
DOCKED: ENDBRANCH   8  12
DOCKED: ENDBRANCH   7   8
DOCKED: ENDBRANCH   1   7
DOCKED: BRANCH   2  14
DOCKED: ATOM     14  O   UNL d   1       4.859  -1.942  21.745 +0.00 +0.05    -0.278 OA
DOCKED: BRANCH  14  15
DOCKED: ATOM     15  P   UNL d   1       5.920  -1.260  22.731 +0.00 -0.07    +0.473 P 
DOCKED: ATOM     16  O   UNL d   1       6.752  -2.182  23.566 +0.00 +0.03    -0.228 OA
DOCKED: BRANCH  15  17
DOCKED: ATOM     17  O   UNL d   1       6.796  -0.333  21.776 +0.00 +0.04    -0.303 OA
DOCKED: ATOM     18  H   UNL d   1       6.302  -0.093  20.969 +0.00 -0.04    +0.222 HD
DOCKED: ENDBRANCH  15  17
DOCKED: BRANCH  15  19
DOCKED: ATOM     19  O   UNL d   1       5.074  -0.180  23.537 +0.00 +0.04    -0.303 OA
DOCKED: ATOM     20  H   UNL d   1       4.197  -0.524  23.789 +0.00 -0.03    +0.222 HD
DOCKED: ENDBRANCH  15  19
DOCKED: ENDBRANCH  14  15
DOCKED: ENDBRANCH   2  14
DOCKED: BRANCH   6  21
DOCKED: ATOM     21  O   UNL d   1       2.544  -2.275  18.141 -0.15 +0.14    -0.278 OA
DOCKED: BRANCH  21  22
DOCKED: ATOM     22  P   UNL d   1       1.587  -1.024  17.882 -0.19 -0.26    +0.473 P 
DOCKED: ATOM     23  O   UNL d   1       0.857  -0.442  19.045 -0.17 +0.11    -0.228 OA
DOCKED: BRANCH  22  24
DOCKED: ATOM     24  O   UNL d   1       2.566  -0.015  17.136 -0.67 +0.09    -0.303 OA
DOCKED: ATOM     25  H   UNL d   1       3.249   0.290  17.786 +0.05 -0.06    +0.222 HD
DOCKED: ENDBRANCH  22  24
DOCKED: BRANCH  22  26
DOCKED: ATOM     26  O   UNL d   1       0.676  -1.555  16.674 -0.34 +0.34    -0.303 OA
DOCKED: ATOM     27  H   UNL d   1       0.057  -2.234  17.013 -0.39 -0.52    +0.222 HD
DOCKED: ENDBRANCH  22  26
DOCKED: ENDBRANCH  21  22
DOCKED: ENDBRANCH   6  21
DOCKED: BRANCH   3  28
DOCKED: ATOM     28  O   UNL d   1       3.036  -2.360  23.628 +0.00 +0.05    -0.278 OA
DOCKED: BRANCH  28  29
DOCKED: ATOM     29  P   UNL d   1       2.184  -2.008  24.927 +0.00 -0.07    +0.473 P 
DOCKED: ATOM     30  O   UNL d   1       2.127  -3.070  25.963 +0.00 +0.03    -0.228 OA
DOCKED: BRANCH  29  31
DOCKED: ATOM     31  O   UNL d   1       2.869  -0.622  25.343 +0.00 +0.04    -0.303 OA
DOCKED: ATOM     32  H   UNL d   1       3.846  -0.719  25.263 +0.00 -0.03    +0.222 HD
DOCKED: ENDBRANCH  29  31
DOCKED: BRANCH  29  33
DOCKED: ATOM     33  O   UNL d   1       0.797  -1.540  24.299 +0.00 +0.05    -0.303 OA
DOCKED: ATOM     34  H   UNL d   1       0.531  -2.179  23.594 +0.01 -0.05    +0.222 HD
DOCKED: ENDBRANCH  29  33
DOCKED: ENDBRANCH  28  29
DOCKED: ENDBRANCH   3  28
DOCKED: BRANCH   5  35
DOCKED: ATOM     35  O   UNL d   1       2.161  -4.699  19.724 -0.05 +0.14    -0.278 OA
DOCKED: BRANCH  35  36
DOCKED: ATOM     36  P   UNL d   1       1.449  -5.164  18.375 -0.22 -0.41    +0.473 P 
DOCKED: ATOM     37  O   UNL d   1       0.758  -6.489  18.434 -0.31 +0.20    -0.228 OA
DOCKED: BRANCH  36  38
DOCKED: ATOM     38  O   UNL d   1       0.482  -3.935  18.075 -0.62 +0.47    -0.303 OA
DOCKED: ATOM     39  H   UNL d   1       0.812  -3.451  17.288 -0.14 -0.26    +0.222 HD
DOCKED: ENDBRANCH  36  38
DOCKED: BRANCH  36  40
DOCKED: ATOM     40  O   UNL d   1       2.614  -5.004  17.304 -0.23 +0.23    -0.303 OA
DOCKED: ATOM     41  H   UNL d   1       2.625  -5.750  16.663 -0.39 -0.26    +0.222 HD
DOCKED: ENDBRANCH  36  40
DOCKED: ENDBRANCH  35  36
DOCKED: ENDBRANCH   5  35
DOCKED: BRANCH   4  42
DOCKED: ATOM     42  O   UNL d   1       1.006  -3.885  22.272 -0.00 +0.08    -0.278 OA
DOCKED: BRANCH  42  43
DOCKED: ATOM     43  P   UNL d   1      -0.360  -3.160  21.881 -0.01 -0.19    +0.473 P 
DOCKED: ATOM     44  O   UNL d   1      -1.417  -3.075  22.927 -0.01 +0.06    -0.228 OA
DOCKED: BRANCH  43  45
DOCKED: ATOM     45  O   UNL d   1       0.136  -1.748  21.342 -0.02 +0.12    -0.303 OA
DOCKED: ATOM     46  H   UNL d   1      -0.082  -1.629  20.395 +0.05 -0.12    +0.222 HD
DOCKED: ENDBRANCH  43  45
DOCKED: BRANCH  43  47
DOCKED: ATOM     47  O   UNL d   1      -0.789  -3.895  20.523 -0.12 +0.25    -0.303 OA
DOCKED: ATOM     48  H   UNL d   1      -0.034  -4.422  20.189 +0.06 -0.18    +0.222 HD
DOCKED: ENDBRANCH  43  47
DOCKED: ENDBRANCH  42  43
DOCKED: ENDBRANCH   4  42
DOCKED: TORSDOF 24
DOCKED: TER
DOCKED: ENDMDL
________________________________________________________________________________


	BEGINNING GENETIC ALGORITHM DOCKING 100 of 100
Run: 100 Seed: 125516422 2054010482 [ Run 100 of 100 GA/GALS ]
Beginning LAMARCKIAN GENETIC ALGORITHM (LGA), with a maximum of 25000000 energy evaluations.

Final-Value: -19.096


	FINAL GENETIC ALGORITHM DOCKED STATE
	_______________________________________________


Detailed state:  trans 0.939 -2.377 21.381 quatxyzw 0.342588 0.702992 -0.620892 0.054116 center 0.035 0.082 -0.065 ntor 24 178.7483 19.3469 149.0503 81.4481 43.3110 -140.3196 -146.5800 52.1686 166.9209 1.8723 137.2071 148.8777 36.0415 123.6159 -13.1911 22.1438 -170.0796 177.0538 7.8362 -23.3605 -29.4228 173.4339 17.0915 -7.4474
State:	  0.939  -2.377  21.381   0.343  0.704 -0.622 173.796    178.75   19.35  149.05   81.45   43.31 -140.32 -146.58   52.17  166.92    1.87  137.21  148.88   36.04  123.62  -13.19   22.14 -170.08  177.05    7.84  -23.36  -29.42  173.43   17.09   -7.45

DOCKED: MODEL      100
DOCKED: USER    Run = 100
DOCKED: USER    DPF = D:/Protein_go_brrr/autodock/final/AncMH_nat/IHP/dock.dpf
DOCKED: USER  
DOCKED: USER    Estimated Free Energy of Binding    =   +3.42 kcal/mol  [=(1)+(2)+(3)-(4)]
DOCKED: USER    
DOCKED: USER    (1) Final Intermolecular Energy     =   -3.74 kcal/mol
DOCKED: USER        vdW + Hbond + desolv Energy     =   -3.32 kcal/mol
DOCKED: USER        Electrostatic Energy            =   -0.42 kcal/mol
DOCKED: USER    (2) Final Total Internal Energy     =  -15.36 kcal/mol
DOCKED: USER    (3) Torsional Free Energy           =   +7.16 kcal/mol
DOCKED: USER    (4) Unbound System's Energy  [=(2)] =  -15.36 kcal/mol
DOCKED: USER    
DOCKED: USER    
DOCKED: USER    NEWDPF move IHP_ideal_opt.pdbqt
DOCKED: USER    NEWDPF about 0.035000 0.082000 -0.065000
DOCKED: USER    NEWDPF tran0 0.938810 -2.377305 21.381439
DOCKED: USER    NEWDPF quaternion0 0.342588 0.702992 -0.620892 0.054116
DOCKED: USER    NEWDPF axisangle0 0.343091 0.704024 -0.621803 173.795676
DOCKED: USER    NEWDPF quat0 0.343091 0.704024 -0.621803 173.795676
DOCKED: USER    NEWDPF dihe0 178.75 19.35 149.05 81.45 43.31 -140.32 -146.58 52.17 166.92 1.87 137.21 148.88 36.04 123.62 -13.19 22.14 -170.08 177.05 7.84 -23.36 -29.42 173.43 17.09 -7.45 
DOCKED: USER  keepresnum = 1 
DOCKED: USER  
DOCKED: REMARK  24 active torsions:
DOCKED: REMARK  status: ('A' for Active; 'I' for Inactive)
DOCKED: REMARK    1  A    between atoms: C_1  and  O_7 
DOCKED: REMARK    2  A    between atoms: C_2  and  O_12 
DOCKED: REMARK    3  A    between atoms: C_3  and  O_17 
DOCKED: REMARK    4  A    between atoms: C_4  and  O_22 
DOCKED: REMARK    5  A    between atoms: C_5  and  O_27 
DOCKED: REMARK    6  A    between atoms: C_6  and  O_32 
DOCKED: REMARK    7  A    between atoms: O_7  and  P_8 
DOCKED: REMARK    8  A    between atoms: P_8  and  O_10 
DOCKED: REMARK    9  A    between atoms: P_8  and  O_11 
DOCKED: REMARK   10  A    between atoms: O_12  and  P_13 
DOCKED: REMARK   11  A    between atoms: P_13  and  O_15 
DOCKED: REMARK   12  A    between atoms: P_13  and  O_16 
DOCKED: REMARK   13  A    between atoms: O_17  and  P_18 
DOCKED: REMARK   14  A    between atoms: P_18  and  O_20 
DOCKED: REMARK   15  A    between atoms: P_18  and  O_21 
DOCKED: REMARK   16  A    between atoms: O_22  and  P_23 
DOCKED: REMARK   17  A    between atoms: P_23  and  O_25 
DOCKED: REMARK   18  A    between atoms: P_23  and  O_26 
DOCKED: REMARK   19  A    between atoms: O_27  and  P_28 
DOCKED: REMARK   20  A    between atoms: P_28  and  O_30 
DOCKED: REMARK   21  A    between atoms: P_28  and  O_31 
DOCKED: REMARK   22  A    between atoms: O_32  and  P_33 
DOCKED: REMARK   23  A    between atoms: P_33  and  O_35 
DOCKED: REMARK   24  A    between atoms: P_33  and  O_36 
DOCKED: USER                              x       y       z     vdW  Elec       q    Type
DOCKED: USER                           _______ _______ _______ _____ _____    ______ ____
DOCKED: ROOT
DOCKED: ATOM      1  C   UNL d   1      -0.777  -2.346  21.575 -0.05 -0.08    +0.194 C 
DOCKED: ATOM      2  C   UNL d   1       0.022  -2.718  22.825 -0.00 -0.05    +0.194 C 
DOCKED: ATOM      3  C   UNL d   1       1.158  -3.691  22.503 -0.00 -0.05    +0.194 C 
DOCKED: ATOM      4  C   UNL d   1       2.056  -3.211  21.365 -0.00 -0.06    +0.194 C 
DOCKED: ATOM      5  C   UNL d   1       1.295  -2.722  20.138 -0.06 -0.10    +0.194 C 
DOCKED: ATOM      6  C   UNL d   1       0.121  -1.798  20.466 -0.07 -0.11    +0.194 C 
DOCKED: ENDROOT
DOCKED: BRANCH   1   7
DOCKED: ATOM      7  O   UNL d   1      -1.699  -1.311  21.927 -0.02 +0.09    -0.278 OA
DOCKED: BRANCH   7   8
DOCKED: ATOM      8  P   UNL d   1      -3.263  -1.632  21.859 -0.03 -0.14    +0.473 P 
DOCKED: ATOM      9  O   UNL d   1      -3.841  -2.220  23.097 -0.02 +0.05    -0.228 OA
DOCKED: BRANCH   8  10
DOCKED: ATOM     10  O   UNL d   1      -3.926  -0.238  21.456 -0.02 +0.09    -0.303 OA
DOCKED: ATOM     11  H   UNL d   1      -3.256   0.335  21.041 +0.04 -0.07    +0.222 HD
DOCKED: ENDBRANCH   8  10
DOCKED: BRANCH   8  12
DOCKED: ATOM     12  O   UNL d   1      -3.452  -2.485  20.532 -0.05 +0.14    -0.303 OA
DOCKED: ATOM     13  H   UNL d   1      -2.757  -2.309  19.858 +0.08 -0.16    +0.222 HD
DOCKED: ENDBRANCH   8  12
DOCKED: ENDBRANCH   7   8
DOCKED: ENDBRANCH   1   7
DOCKED: BRANCH   2  14
DOCKED: ATOM     14  O   UNL d   1       0.587  -1.528  23.389 +0.00 +0.06    -0.278 OA
DOCKED: BRANCH  14  15
DOCKED: ATOM     15  P   UNL d   1      -0.058  -1.009  24.760 +0.00 -0.07    +0.473 P 
DOCKED: ATOM     16  O   UNL d   1       0.543   0.222  25.363 +0.00 +0.03    -0.228 OA
DOCKED: BRANCH  15  17
DOCKED: ATOM     17  O   UNL d   1      -1.605  -0.837  24.420 -0.00 +0.05    -0.303 OA
DOCKED: ATOM     18  H   UNL d   1      -1.974  -1.657  24.039 +0.01 -0.04    +0.222 HD
DOCKED: ENDBRANCH  15  17
DOCKED: BRANCH  15  19
DOCKED: ATOM     19  O   UNL d   1      -0.079  -2.293  25.700 +0.00 +0.04    -0.303 OA
DOCKED: ATOM     20  H   UNL d   1       0.570  -2.961  25.411 +0.00 -0.03    +0.222 HD
DOCKED: ENDBRANCH  15  19
DOCKED: ENDBRANCH  14  15
DOCKED: ENDBRANCH   2  14
DOCKED: BRANCH   6  21
DOCKED: ATOM     21  O   UNL d   1      -0.676  -1.711  19.287 -0.14 +0.29    -0.278 OA
DOCKED: BRANCH  21  22
DOCKED: ATOM     22  P   UNL d   1      -1.150  -0.283  18.755 -0.10 -0.36    +0.473 P 
DOCKED: ATOM     23  O   UNL d   1      -0.445   0.928  19.265 -0.14 +0.10    -0.228 OA
DOCKED: BRANCH  22  24
DOCKED: ATOM     24  O   UNL d   1      -1.077  -0.483  17.178 -0.23 +0.37    -0.303 OA
DOCKED: ATOM     25  H   UNL d   1      -0.446  -1.223  16.989 -0.36 -0.40    +0.222 HD
DOCKED: ENDBRANCH  22  24
DOCKED: BRANCH  22  26
DOCKED: ATOM     26  O   UNL d   1      -2.729  -0.343  19.024 -0.12 +0.19    -0.303 OA
DOCKED: ATOM     27  H   UNL d   1      -2.889  -0.696  19.923 +0.06 -0.11    +0.222 HD
DOCKED: ENDBRANCH  22  26
DOCKED: ENDBRANCH  21  22
DOCKED: ENDBRANCH   6  21
DOCKED: BRANCH   3  28
DOCKED: ATOM     28  O   UNL d   1       2.001  -3.759  23.645 +0.00 +0.05    -0.278 OA
DOCKED: BRANCH  28  29
DOCKED: ATOM     29  P   UNL d   1       3.010  -2.571  23.973 +0.00 -0.08    +0.473 P 
DOCKED: ATOM     30  O   UNL d   1       3.055  -1.475  22.971 +0.00 +0.04    -0.228 OA
DOCKED: BRANCH  29  31
DOCKED: ATOM     31  O   UNL d   1       2.520  -2.187  25.447 +0.00 +0.04    -0.303 OA
DOCKED: ATOM     32  H   UNL d   1       1.877  -1.444  25.381 +0.00 -0.03    +0.222 HD
DOCKED: ENDBRANCH  29  31
DOCKED: BRANCH  29  33
DOCKED: ATOM     33  O   UNL d   1       4.370  -3.353  24.246 +0.00 +0.04    -0.303 OA
DOCKED: ATOM     34  H   UNL d   1       5.006  -3.156  23.515 +0.00 -0.03    +0.222 HD
DOCKED: ENDBRANCH  29  33
DOCKED: ENDBRANCH  28  29
DOCKED: ENDBRANCH   3  28
DOCKED: BRANCH   5  35
DOCKED: ATOM     35  O   UNL d   1       2.232  -1.959  19.381 -0.04 +0.12    -0.278 OA
DOCKED: BRANCH  35  36
DOCKED: ATOM     36  P   UNL d   1       2.141  -1.923  17.789 -0.14 -0.27    +0.473 P 
DOCKED: ATOM     37  O   UNL d   1       3.393  -2.301  17.063 -0.13 +0.10    -0.228 OA
DOCKED: BRANCH  36  38
DOCKED: ATOM     38  O   UNL d   1       0.906  -2.889  17.511 -0.74 +0.36    -0.303 OA
DOCKED: ATOM     39  H   UNL d   1       0.095  -2.348  17.396 -0.34 -0.50    +0.222 HD
DOCKED: ENDBRANCH  36  38
DOCKED: BRANCH  36  40
DOCKED: ATOM     40  O   UNL d   1       1.559  -0.469  17.515 -0.80 +0.13    -0.303 OA
DOCKED: ATOM     41  H   UNL d   1       0.867  -0.224  18.169 +0.07 -0.11    +0.222 HD
DOCKED: ENDBRANCH  36  40
DOCKED: ENDBRANCH  35  36
DOCKED: ENDBRANCH   5  35
DOCKED: BRANCH   4  42
DOCKED: ATOM     42  O   UNL d   1       2.839  -4.336  20.953 -0.00 +0.09    -0.278 OA
DOCKED: BRANCH  42  43
DOCKED: ATOM     43  P   UNL d   1       4.427  -4.258  21.082 +0.01 -0.11    +0.473 P 
DOCKED: ATOM     44  O   UNL d   1       5.235  -4.783  19.945 -0.00 +0.06    -0.228 OA
DOCKED: BRANCH  43  45
DOCKED: ATOM     45  O   UNL d   1       4.676  -2.720  21.402 +0.00 +0.06    -0.303 OA
DOCKED: ATOM     46  H   UNL d   1       4.284  -2.465  22.261 +0.00 -0.04    +0.222 HD
DOCKED: ENDBRANCH  43  45
DOCKED: BRANCH  43  47
DOCKED: ATOM     47  O   UNL d   1       4.713  -4.938  22.505 +0.00 +0.05    -0.303 OA
DOCKED: ATOM     48  H   UNL d   1       3.963  -4.752  23.108 +0.00 -0.04    +0.222 HD
DOCKED: ENDBRANCH  43  47
DOCKED: ENDBRANCH  42  43
DOCKED: ENDBRANCH   4  42
DOCKED: TORSDOF 24
DOCKED: TER
DOCKED: ENDMDL
________________________________________________________________________________

DPF> analysis                             # perform a ranked cluster analysis


		CLUSTER ANALYSIS OF CONFORMATIONS
		_________________________________

Number of conformations = 100

RMSD cluster analysis will be performed using the ligand atoms only (48 / 48 total atoms).

Outputting structurally similar clusters, ranked in order of increasing energy.


________________________________________________________________________________

Number of distinct conformational clusters found = 92,  out of 100 runs,
Using an rmsd-tolerance of 2.0 A


	CLUSTERING HISTOGRAM
	____________________

________________________________________________________________________________
     |           |     |           |     |                                    
Clus | Lowest    | Run | Mean      | Num | Histogram                          
-ter | Binding   |     | Binding   | in  |                                    
Rank | Energy    |     | Energy    | Clus|    5    10   15   20   25   30   35
_____|___________|_____|___________|_____|____:____|____:____|____:____|____:___
   1 |     -0.65 |  41 |     -0.65 |   1 |#
   2 |     -0.33 |  94 |     +0.01 |   3 |###
   3 |     -0.28 |  67 |     +0.92 |   2 |##
   4 |     +0.11 |  27 |     +0.11 |   1 |#
   5 |     +0.50 |  31 |     +0.50 |   1 |#
   6 |     +0.55 |  64 |     +0.55 |   1 |#
   7 |     +0.68 |  22 |     +0.68 |   1 |#
   8 |     +0.78 |  11 |     +0.78 |   1 |#
   9 |     +1.01 |  71 |     +1.01 |   1 |#
  10 |     +1.02 |  92 |     +1.02 |   1 |#
  11 |     +1.05 |  20 |     +1.05 |   1 |#
  12 |     +1.10 |  26 |     +1.10 |   1 |#
  13 |     +1.39 |  10 |     +1.39 |   1 |#
  14 |     +1.42 |  30 |     +1.42 |   1 |#
  15 |     +1.42 |  56 |     +1.42 |   1 |#
  16 |     +1.45 |  33 |     +1.45 |   1 |#
  17 |     +1.47 |  77 |     +1.47 |   1 |#
  18 |     +1.51 |  17 |     +1.74 |   2 |##
  19 |     +1.62 |  65 |     +1.62 |   1 |#
  20 |     +1.64 |  75 |     +1.64 |   1 |#
  21 |     +1.68 |   8 |     +1.68 |   1 |#
  22 |     +1.81 |  38 |     +1.81 |   1 |#
  23 |     +1.86 |  80 |     +1.86 |   1 |#
  24 |     +1.88 |  24 |     +1.88 |   1 |#
  25 |     +1.91 |  93 |     +1.91 |   1 |#
  26 |     +1.92 |   5 |     +1.92 |   1 |#
  27 |     +2.01 |  58 |     +2.01 |   1 |#
  28 |     +2.18 |  46 |     +2.18 |   1 |#
  29 |     +2.19 |  39 |     +2.19 |   1 |#
  30 |     +2.22 |  29 |     +2.22 |   1 |#
  31 |     +2.29 |  78 |     +2.29 |   1 |#
  32 |     +2.38 |  69 |     +2.38 |   1 |#
  33 |     +2.42 |  72 |     +2.42 |   1 |#
  34 |     +2.47 |  76 |     +2.47 |   1 |#
  35 |     +2.51 |  37 |     +2.51 |   1 |#
  36 |     +2.52 |  74 |     +2.90 |   2 |##
  37 |     +2.52 |  18 |     +2.52 |   1 |#
  38 |     +2.53 |  84 |     +2.69 |   2 |##
  39 |     +2.59 |  68 |     +2.59 |   1 |#
  40 |     +2.65 |   6 |     +2.65 |   1 |#
  41 |     +2.65 |   1 |     +2.65 |   1 |#
  42 |     +2.67 |  52 |     +2.67 |   1 |#
  43 |     +2.67 |   4 |     +2.67 |   1 |#
  44 |     +2.69 |  51 |     +2.69 |   1 |#
  45 |     +2.71 |  47 |     +2.71 |   1 |#
  46 |     +2.73 |  95 |     +2.73 |   1 |#
  47 |     +2.77 |  62 |     +2.77 |   1 |#
  48 |     +2.79 |  91 |     +2.79 |   1 |#
  49 |     +2.80 |  42 |     +2.80 |   1 |#
  50 |     +2.82 |  73 |     +2.82 |   1 |#
  51 |     +2.83 |  34 |     +2.97 |   2 |##
  52 |     +2.85 |  99 |     +2.85 |   1 |#
  53 |     +2.86 |  88 |     +2.86 |   1 |#
  54 |     +2.87 |   2 |     +2.87 |   1 |#
  55 |     +3.00 |  14 |     +3.00 |   1 |#
  56 |     +3.03 |  90 |     +3.03 |   1 |#
  57 |     +3.07 |  49 |     +3.07 |   1 |#
  58 |     +3.08 |  57 |     +3.08 |   1 |#
  59 |     +3.08 |  83 |     +3.08 |   1 |#
  60 |     +3.15 |  21 |     +3.15 |   1 |#
  61 |     +3.17 |  43 |     +3.17 |   1 |#
  62 |     +3.18 |  48 |     +3.18 |   1 |#
  63 |     +3.18 |  28 |     +3.18 |   1 |#
  64 |     +3.20 |  87 |     +3.20 |   1 |#
  65 |     +3.31 |  81 |     +3.31 |   1 |#
  66 |     +3.38 |  16 |     +3.66 |   2 |##
  67 |     +3.41 |  66 |     +3.41 |   1 |#
  68 |     +3.42 | 100 |     +3.42 |   1 |#
  69 |     +3.43 |  89 |     +3.43 |   1 |#
  70 |     +3.43 |  63 |     +3.43 |   1 |#
  71 |     +3.48 |  86 |     +3.48 |   1 |#
  72 |     +3.52 |  13 |     +3.52 |   1 |#
  73 |     +3.56 |  61 |     +3.56 |   1 |#
  74 |     +3.69 |   3 |     +3.69 |   1 |#
  75 |     +3.72 |  85 |     +3.72 |   1 |#
  76 |     +3.72 |  55 |     +3.72 |   1 |#
  77 |     +3.72 |  59 |     +3.72 |   1 |#
  78 |     +3.74 |  32 |     +3.74 |   1 |#
  79 |     +3.82 |  40 |     +3.82 |   1 |#
  80 |     +3.89 |   7 |     +3.89 |   1 |#
  81 |     +3.93 |  25 |     +3.93 |   1 |#
  82 |     +3.96 |  50 |     +3.96 |   1 |#
  83 |     +3.99 |  53 |     +3.99 |   1 |#
  84 |     +4.03 |  45 |     +4.03 |   1 |#
  85 |     +4.05 |  97 |     +4.05 |   1 |#
  86 |     +4.14 |  79 |     +4.14 |   1 |#
  87 |     +4.25 |   9 |     +4.25 |   1 |#
  88 |     +4.25 |  96 |     +4.25 |   1 |#
  89 |     +4.40 |  54 |     +4.40 |   1 |#
  90 |     +4.40 |  36 |     +4.40 |   1 |#
  91 |     +4.42 |  15 |     +4.42 |   1 |#
  92 |     +5.12 |  23 |     +5.12 |   1 |#
_____|___________|_____|___________|_____|______________________________________


Number of multi-member conformational clusters found = 7, out of 100 runs.

	RMSD TABLE
	__________

_____________________________________________________________________
     |      |      |           |         |                 |
Rank | Sub- | Run  | Binding   | Cluster | Reference       | Grep
     | Rank |      | Energy    | RMSD    | RMSD            | Pattern
_____|______|______|___________|_________|_________________|___________
   1      1     41       -0.65      0.00     15.59           RANKING
   2      1     94       -0.33      0.00     15.85           RANKING
   2      2     35       -0.18      1.51     15.81           RANKING
   2      3     12       +0.55      1.83     16.16           RANKING
   3      1     67       -0.28      0.00     13.30           RANKING
   3      2     82       +2.12      1.76     13.76           RANKING
   4      1     27       +0.11      0.00     16.39           RANKING
   5      1     31       +0.50      0.00     19.53           RANKING
   6      1     64       +0.55      0.00     20.38           RANKING
   7      1     22       +0.68      0.00     15.77           RANKING
   8      1     11       +0.78      0.00     17.39           RANKING
   9      1     71       +1.01      0.00     16.56           RANKING
  10      1     92       +1.02      0.00     13.15           RANKING
  11      1     20       +1.05      0.00     14.96           RANKING
  12      1     26       +1.10      0.00     18.14           RANKING
  13      1     10       +1.39      0.00     18.91           RANKING
  14      1     30       +1.42      0.00     12.66           RANKING
  15      1     56       +1.42      0.00     10.93           RANKING
  16      1     33       +1.45      0.00     13.82           RANKING
  17      1     77       +1.47      0.00     21.25           RANKING
  18      1     17       +1.51      0.00     20.33           RANKING
  18      2     19       +1.98      1.74     20.17           RANKING
  19      1     65       +1.62      0.00     12.97           RANKING
  20      1     75       +1.64      0.00     23.05           RANKING
  21      1      8       +1.68      0.00     15.92           RANKING
  22      1     38       +1.81      0.00     15.30           RANKING
  23      1     80       +1.86      0.00     17.56           RANKING
  24      1     24       +1.88      0.00     20.66           RANKING
  25      1     93       +1.91      0.00     19.11           RANKING
  26      1      5       +1.92      0.00     20.73           RANKING
  27      1     58       +2.01      0.00     16.59           RANKING
  28      1     46       +2.18      0.00     17.16           RANKING
  29      1     39       +2.19      0.00     18.34           RANKING
  30      1     29       +2.22      0.00     11.65           RANKING
  31      1     78       +2.29      0.00     13.24           RANKING
  32      1     69       +2.38      0.00     14.49           RANKING
  33      1     72       +2.42      0.00     18.81           RANKING
  34      1     76       +2.47      0.00     14.81           RANKING
  35      1     37       +2.51      0.00     17.33           RANKING
  36      1     74       +2.52      0.00     20.55           RANKING
  36      2     98       +3.29      1.74     20.96           RANKING
  37      1     18       +2.52      0.00     16.89           RANKING
  38      1     84       +2.53      0.00     14.41           RANKING
  38      2     44       +2.84      1.89     14.84           RANKING
  39      1     68       +2.59      0.00     17.76           RANKING
  40      1      6       +2.65      0.00     13.59           RANKING
  41      1      1       +2.65      0.00     14.98           RANKING
  42      1     52       +2.67      0.00     20.11           RANKING
  43      1      4       +2.67      0.00     18.42           RANKING
  44      1     51       +2.69      0.00     24.11           RANKING
  45      1     47       +2.71      0.00     20.07           RANKING
  46      1     95       +2.73      0.00     22.35           RANKING
  47      1     62       +2.77      0.00     20.74           RANKING
  48      1     91       +2.79      0.00     19.53           RANKING
  49      1     42       +2.80      0.00     17.31           RANKING
  50      1     73       +2.82      0.00     14.43           RANKING
  51      1     34       +2.83      0.00     14.75           RANKING
  51      2     70       +3.12      1.48     14.45           RANKING
  52      1     99       +2.85      0.00     19.40           RANKING
  53      1     88       +2.86      0.00     21.39           RANKING
  54      1      2       +2.87      0.00     19.69           RANKING
  55      1     14       +3.00      0.00     16.46           RANKING
  56      1     90       +3.03      0.00     14.87           RANKING
  57      1     49       +3.07      0.00     14.90           RANKING
  58      1     57       +3.08      0.00     17.58           RANKING
  59      1     83       +3.08      0.00     19.02           RANKING
  60      1     21       +3.15      0.00     13.26           RANKING
  61      1     43       +3.17      0.00     20.52           RANKING
  62      1     48       +3.18      0.00     19.19           RANKING
  63      1     28       +3.18      0.00     23.54           RANKING
  64      1     87       +3.20      0.00     19.13           RANKING
  65      1     81       +3.31      0.00     17.16           RANKING
  66      1     16       +3.38      0.00     14.32           RANKING
  66      2     60       +3.95      1.97     14.26           RANKING
  67      1     66       +3.41      0.00     14.47           RANKING
  68      1    100       +3.42      0.00     20.02           RANKING
  69      1     89       +3.43      0.00     20.37           RANKING
  70      1     63       +3.43      0.00     16.64           RANKING
  71      1     86       +3.48      0.00     11.80           RANKING
  72      1     13       +3.52      0.00     20.46           RANKING
  73      1     61       +3.56      0.00     11.33           RANKING
  74      1      3       +3.69      0.00     15.74           RANKING
  75      1     85       +3.72      0.00     15.19           RANKING
  76      1     55       +3.72      0.00     16.96           RANKING
  77      1     59       +3.72      0.00     15.12           RANKING
  78      1     32       +3.74      0.00     19.28           RANKING
  79      1     40       +3.82      0.00     13.60           RANKING
  80      1      7       +3.89      0.00     17.79           RANKING
  81      1     25       +3.93      0.00     19.20           RANKING
  82      1     50       +3.96      0.00     20.18           RANKING
  83      1     53       +3.99      0.00     16.05           RANKING
  84      1     45       +4.03      0.00     14.22           RANKING
  85      1     97       +4.05      0.00     20.54           RANKING
  86      1     79       +4.14      0.00     13.43           RANKING
  87      1      9       +4.25      0.00     17.20           RANKING
  88      1     96       +4.25      0.00     13.54           RANKING
  89      1     54       +4.40      0.00     14.20           RANKING
  90      1     36       +4.40      0.00     15.11           RANKING
  91      1     15       +4.42      0.00     20.89           RANKING
  92      1     23       +5.12      0.00     20.81           RANKING
_______________________________________________________________________



	INFORMATION ENTROPY ANALYSIS FOR THIS CLUSTERING
	________________________________________________


Information entropy for this clustering = 0.97  (rmstol = 2.00 Angstrom)

_______________________________________________________________________


	STATISTICAL MECHANICAL ANALYSIS
	_______________________________


Partition function, Q =    99.57            at Temperature, T = 298.15 K
Free energy,        A ~ -2725.90 kcal/mol   at Temperature, T = 298.15 K
Internal energy,    U =     2.58 kcal/mol   at Temperature, T = 298.15 K
Entropy,            S =     9.15 kcal/mol/K at Temperature, T = 298.15 K

_______________________________________________________________________


	LOWEST ENERGY DOCKED CONFORMATION from EACH CLUSTER
	___________________________________________________



Keeping original residue number (specified in the input PDBQ file) for outputting.

MODEL       41
USER    Run = 41
USER    Cluster Rank = 1
USER    Number of conformations in this cluster = 1
USER  
USER    RMSD from reference structure       = 15.593 A
USER  
USER    Estimated Free Energy of Binding    =   -0.65 kcal/mol  [=(1)+(2)+(3)-(4)]
USER    Estimated Inhibition Constant, Ki   =  336.10 mM (millimolar)  [Temperature = 298.15 K]
USER    
USER    (1) Final Intermolecular Energy     =   -7.81 kcal/mol
USER        vdW + Hbond + desolv Energy     =   -7.33 kcal/mol
USER        Electrostatic Energy            =   -0.47 kcal/mol
USER    (2) Final Total Internal Energy     =  -12.48 kcal/mol
USER    (3) Torsional Free Energy           =   +7.16 kcal/mol
USER    (4) Unbound System's Energy  [=(2)] =  -12.48 kcal/mol
USER    
USER    
USER  
USER    DPF = D:/Protein_go_brrr/autodock/final/AncMH_nat/IHP/dock.dpf
USER    NEWDPF move	IHP_ideal_opt.pdbqt
USER    NEWDPF about	0.035000 0.082000 -0.065000
USER    NEWDPF tran0	3.679723 18.953840 -5.685813
USER    NEWDPF axisangle0	-0.502009 -0.630701 0.591779 178.672486
USER    NEWDPF quaternion0	-0.501975 -0.630659 0.591740 0.011584
USER    NEWDPF dihe0	111.50 79.80 39.93 -20.81 164.44 68.06 -124.91 -19.42 -9.32 13.97 -158.82 -151.65 173.71 158.97 -125.75 -123.60 -180.00 -146.35 -2.43 -24.48 145.76 -39.46 -30.78 148.94 
USER  
USER                              x       y       z    vdW   Elec        q     RMS 
ATOM      1  C   UNL d   1       2.026  19.312  -6.033 -0.03 -0.01    +0.194    15.593
ATOM      2  C   UNL d   1       2.338  18.983  -4.572 -0.04 +0.00    +0.194    15.593
ATOM      3  C   UNL d   1       3.290  17.791  -4.451 -0.13 +0.01    +0.194    15.593
ATOM      4  C   UNL d   1       4.555  17.943  -5.292 -0.17 +0.03    +0.194    15.593
ATOM      5  C   UNL d   1       4.297  18.383  -6.727 -0.09 +0.01    +0.194    15.593
ATOM      6  C   UNL d   1       3.298  19.535  -6.852 -0.02 -0.00    +0.194    15.593
ATOM      7  O   UNL d   1       1.279  20.530  -6.066 -0.01 +0.01    -0.278    15.593
ATOM      8  P   UNL d   1      -0.134  20.535  -6.812 -0.01 -0.04    +0.473    15.593
ATOM      9  O   UNL d   1      -0.368  21.697  -7.712 -0.01 +0.02    -0.228    15.593
ATOM     10  O   UNL d   1      -0.174  19.133  -7.573 -0.06 +0.08    -0.303    15.593
ATOM     11  H   UNL d   1       0.674  18.986  -8.031 -0.14 -0.07    +0.222    15.593
ATOM     12  O   UNL d   1      -1.209  20.320  -5.662 -0.02 +0.01    -0.303    15.593
ATOM     13  H   UNL d   1      -0.956  20.748  -4.813 +0.03 -0.00    +0.222    15.593
ATOM     14  O   UNL d   1       2.953  20.122  -3.958 -0.02 -0.01    -0.278    15.593
ATOM     15  P   UNL d   1       2.056  20.947  -2.919 +0.01 +0.03    +0.473    15.593
ATOM     16  O   UNL d   1       2.268  22.428  -2.876 -0.01 -0.01    -0.228    15.593
ATOM     17  O   UNL d   1       0.561  20.548  -3.296 -0.01 -0.01    -0.303    15.593
ATOM     18  H   UNL d   1       0.374  20.732  -4.237 +0.03 +0.00    +0.222    15.593
ATOM     19  O   UNL d   1       2.251  20.186  -1.536 -0.07 -0.04    -0.303    15.593
ATOM     20  H   UNL d   1       1.686  19.393  -1.478 +0.05 +0.02    +0.222    15.593
ATOM     21  O   UNL d   1       2.908  19.596  -8.222 -0.03 +0.02    -0.278    15.593
ATOM     22  P   UNL d   1       2.579  18.250  -9.012 -0.12 -0.08    +0.473    15.593
ATOM     23  O   UNL d   1       3.662  17.628  -9.828 -0.34 +0.01    -0.228    15.593
ATOM     24  O   UNL d   1       2.002  17.324  -7.853 -0.19 +0.06    -0.303    15.593
ATOM     25  H   UNL d   1       1.013  17.358  -7.895 -0.27 -0.11    +0.222    15.593
ATOM     26  O   UNL d   1       1.246  18.655  -9.806 -0.12 +0.10    -0.303    15.593
ATOM     27  H   UNL d   1       0.476  18.222  -9.384 -0.53 -0.16    +0.222    15.593
ATOM     28  O   UNL d   1       3.737  17.735  -3.102 -0.18 -0.03    -0.278    15.593
ATOM     29  P   UNL d   1       2.741  17.290  -1.942 -0.21 +0.03    +0.473    15.593
ATOM     30  O   UNL d   1       2.999  17.895  -0.610 -0.28 -0.04    -0.228    15.593
ATOM     31  O   UNL d   1       1.338  17.627  -2.634 -0.10 -0.02    -0.303    15.593
ATOM     32  H   UNL d   1       1.222  18.605  -2.647 +0.08 +0.01    +0.222    15.593
ATOM     33  O   UNL d   1       2.807  15.702  -2.036 -0.30 +0.00    -0.303    15.593
ATOM     34  H   UNL d   1       3.741  15.429  -2.213 -0.09 -0.02    +0.222    15.593
ATOM     35  O   UNL d   1       5.549  18.858  -7.217 -0.06 -0.02    -0.278    15.593
ATOM     36  P   UNL d   1       6.459  17.926  -8.138 -0.09 +0.07    +0.473    15.593
ATOM     37  O   UNL d   1       7.916  17.911  -7.800 -0.19 +0.02    -0.228    15.593
ATOM     38  O   UNL d   1       5.738  16.514  -7.986 -0.35 -0.20    -0.303    15.593
ATOM     39  H   UNL d   1       6.005  16.107  -7.134 -0.48 +0.00    +0.222    15.593
ATOM     40  O   UNL d   1       6.062  18.403  -9.602 -0.33 -0.06    -0.303    15.593
ATOM     41  H   UNL d   1       5.146  18.758  -9.634 +0.06 +0.02    +0.222    15.593
ATOM     42  O   UNL d   1       5.171  16.652  -5.351 -0.78 -0.08    -0.278    15.593
ATOM     43  P   UNL d   1       4.244  15.360  -5.469 -0.17 +0.07    +0.473    15.593
ATOM     44  O   UNL d   1       3.994  14.578  -4.226 -0.52 -0.02    -0.228    15.593
ATOM     45  O   UNL d   1       2.928  15.936  -6.153 -0.23 +0.03    -0.303    15.593
ATOM     46  H   UNL d   1       2.676  15.415  -6.941 -0.33 -0.07    +0.222    15.593
ATOM     47  O   UNL d   1       4.908  14.542  -6.678 -0.11 -0.07    -0.303    15.593
ATOM     48  H   UNL d   1       5.862  14.759  -6.729 -0.35 +0.02    +0.222    15.593
TER
ENDMDL
MODEL       94
USER    Run = 94
USER    Cluster Rank = 2
USER    Number of conformations in this cluster = 3
USER  
USER    RMSD from reference structure       = 15.851 A
USER  
USER    Estimated Free Energy of Binding    =   -0.33 kcal/mol  [=(1)+(2)+(3)-(4)]
USER    Estimated Inhibition Constant, Ki   =  572.14 mM (millimolar)  [Temperature = 298.15 K]
USER    
USER    (1) Final Intermolecular Energy     =   -7.49 kcal/mol
USER        vdW + Hbond + desolv Energy     =   -7.28 kcal/mol
USER        Electrostatic Energy            =   -0.21 kcal/mol
USER    (2) Final Total Internal Energy     =  -12.69 kcal/mol
USER    (3) Torsional Free Energy           =   +7.16 kcal/mol
USER    (4) Unbound System's Energy  [=(2)] =  -12.69 kcal/mol
USER    
USER    
USER  
USER    DPF = D:/Protein_go_brrr/autodock/final/AncMH_nat/IHP/dock.dpf
USER    NEWDPF move	IHP_ideal_opt.pdbqt
USER    NEWDPF about	0.035000 0.082000 -0.065000
USER    NEWDPF tran0	1.104003 18.356090 -6.150024
USER    NEWDPF axisangle0	0.573947 0.292392 0.764913 116.165612
USER    NEWDPF quaternion0	0.487173 0.248186 0.649268 0.528693
USER    NEWDPF dihe0	98.07 121.12 147.85 9.92 163.19 130.62 -58.49 -15.55 -42.90 88.40 116.59 77.60 -68.72 176.73 -158.52 158.03 -21.29 62.22 -153.44 -6.75 14.21 0.05 -28.62 174.42 
USER  
USER                              x       y       z    vdW   Elec        q     RMS 
ATOM      1  C   UNL d   1       0.615  18.743  -4.539 -0.06 +0.00    +0.194    15.851
ATOM      2  C   UNL d   1      -0.310  19.245  -5.650 -0.08 -0.01    +0.194    15.851
ATOM      3  C   UNL d   1       0.478  19.836  -6.820 -0.06 -0.02    +0.194    15.851
ATOM      4  C   UNL d   1       1.561  18.899  -7.350 -0.09 -0.03    +0.194    15.851
ATOM      5  C   UNL d   1       2.436  18.285  -6.265 -0.09 -0.01    +0.194    15.851
ATOM      6  C   UNL d   1       1.650  17.749  -5.066 -0.11 -0.00    +0.194    15.851
ATOM      7  O   UNL d   1      -0.182  18.056  -3.571 -0.09 -0.02    -0.278    15.851
ATOM      8  P   UNL d   1      -0.539  16.521  -3.833 -0.26 +0.08    +0.473    15.851
ATOM      9  O   UNL d   1      -0.347  16.059  -5.235 -0.71 -0.03    -0.228    15.851
ATOM     10  O   UNL d   1       0.364  15.730  -2.782 -0.34 -0.04    -0.303    15.851
ATOM     11  H   UNL d   1       1.305  15.924  -2.948 +0.14 +0.01    +0.222    15.851
ATOM     12  O   UNL d   1      -1.997  16.328  -3.232 -0.92 -0.15    -0.303    15.851
ATOM     13  H   UNL d   1      -2.703  16.706  -3.803 +0.12 +0.20    +0.222    15.851
ATOM     14  O   UNL d   1      -1.095  18.148  -6.135 -0.21 +0.02    -0.278    15.851
ATOM     15  P   UNL d   1      -2.684  18.339  -6.111 -0.20 -0.01    +0.473    15.851
ATOM     16  O   UNL d   1      -3.481  17.263  -5.442 -0.86 -0.06    -0.228    15.851
ATOM     17  O   UNL d   1      -2.893  19.769  -5.440 -0.08 +0.00    -0.303    15.851
ATOM     18  H   UNL d   1      -2.357  20.450  -5.889 +0.05 -0.01    +0.222    15.851
ATOM     19  O   UNL d   1      -3.071  18.638  -7.625 -0.20 +0.04    -0.303    15.851
ATOM     20  H   UNL d   1      -2.512  19.339  -8.008 +0.03 -0.03    +0.222    15.851
ATOM     21  O   UNL d   1       2.594  17.534  -4.018 -0.08 -0.01    -0.278    15.851
ATOM     22  P   UNL d   1       3.351  16.134  -3.910 -0.23 +0.04    +0.473    15.851
ATOM     23  O   UNL d   1       3.333  15.422  -2.600 -0.39 +0.00    -0.228    15.851
ATOM     24  O   UNL d   1       2.709  15.322  -5.120 -0.26 +0.02    -0.303    15.851
ATOM     25  H   UNL d   1       3.321  15.392  -5.896 +0.07 -0.01    +0.222    15.851
ATOM     26  O   UNL d   1       4.800  16.502  -4.490 -0.77 -0.11    -0.303    15.851
ATOM     27  H   UNL d   1       4.695  17.058  -5.289 +0.10 +0.04    +0.222    15.851
ATOM     28  O   UNL d   1      -0.429  20.014  -7.901 -0.07 +0.05    -0.278    15.851
ATOM     29  P   UNL d   1      -0.848  21.478  -8.366 -0.01 -0.04    +0.473    15.851
ATOM     30  O   UNL d   1      -0.779  21.731  -9.828 -0.02 +0.02    -0.228    15.851
ATOM     31  O   UNL d   1      -2.289  21.588  -7.678 -0.01 +0.02    -0.303    15.851
ATOM     32  H   UNL d   1      -2.518  20.712  -7.289 +0.04 -0.02    +0.222    15.851
ATOM     33  O   UNL d   1       0.058  22.397  -7.433 -0.00 +0.01    -0.303    15.851
ATOM     34  H   UNL d   1       0.972  22.022  -7.402 +0.01 -0.01    +0.222    15.851
ATOM     35  O   UNL d   1       3.083  17.170  -6.874 -0.15 +0.00    -0.278    15.851
ATOM     36  P   UNL d   1       4.603  17.281  -7.345 -0.14 +0.09    +0.473    15.851
ATOM     37  O   UNL d   1       5.416  18.332  -6.658 -0.12 -0.02    -0.228    15.851
ATOM     38  O   UNL d   1       5.126  15.794  -7.112 -0.28 -0.09    -0.303    15.851
ATOM     39  H   UNL d   1       5.790  15.797  -6.389 -0.41 +0.01    +0.222    15.851
ATOM     40  O   UNL d   1       4.463  17.394  -8.925 -0.60 -0.18    -0.303    15.851
ATOM     41  H   UNL d   1       3.776  18.048  -9.183 +0.06 +0.01    +0.222    15.851
ATOM     42  O   UNL d   1       2.417  19.685  -8.186 -0.03 +0.03    -0.278    15.851
ATOM     43  P   UNL d   1       3.242  20.884  -7.534 +0.02 -0.02    +0.473    15.851
ATOM     44  O   UNL d   1       4.712  20.702  -7.380 -0.01 +0.00    -0.228    15.851
ATOM     45  O   UNL d   1       2.832  22.125  -8.442 +0.00 +0.02    -0.303    15.851
ATOM     46  H   UNL d   1       1.871  22.133  -8.624 +0.01 -0.01    +0.222    15.851
ATOM     47  O   UNL d   1       2.437  21.190  -6.182 +0.00 +0.01    -0.303    15.851
ATOM     48  H   UNL d   1       1.901  22.001  -6.302 +0.01 -0.01    +0.222    15.851
TER
ENDMDL
MODEL       67
USER    Run = 67
USER    Cluster Rank = 3
USER    Number of conformations in this cluster = 2
USER  
USER    RMSD from reference structure       = 13.301 A
USER  
USER    Estimated Free Energy of Binding    =   -0.28 kcal/mol  [=(1)+(2)+(3)-(4)]
USER    Estimated Inhibition Constant, Ki   =  627.52 mM (millimolar)  [Temperature = 298.15 K]
USER    
USER    (1) Final Intermolecular Energy     =   -7.44 kcal/mol
USER        vdW + Hbond + desolv Energy     =   -6.94 kcal/mol
USER        Electrostatic Energy            =   -0.50 kcal/mol
USER    (2) Final Total Internal Energy     =  -12.94 kcal/mol
USER    (3) Torsional Free Energy           =   +7.16 kcal/mol
USER    (4) Unbound System's Energy  [=(2)] =  -12.94 kcal/mol
USER    
USER    
USER  
USER    DPF = D:/Protein_go_brrr/autodock/final/AncMH_nat/IHP/dock.dpf
USER    NEWDPF move	IHP_ideal_opt.pdbqt
USER    NEWDPF about	0.035000 0.082000 -0.065000
USER    NEWDPF tran0	8.224226 -10.721901 -8.031113
USER    NEWDPF axisangle0	-0.706766 -0.694753 0.133417 150.788107
USER    NEWDPF quaternion0	-0.683925 -0.672301 0.129105 0.252170
USER    NEWDPF dihe0	80.76 69.12 147.62 180.00 65.91 130.82 -55.14 13.95 105.27 -56.80 -122.82 -164.78 -180.00 -138.83 59.13 113.54 170.16 155.69 35.58 4.59 -175.84 57.23 26.03 -175.03 
USER  
USER                              x       y       z    vdW   Elec        q     RMS 
ATOM      1  C   UNL d   1       7.557 -10.089  -9.493 -0.17 -0.03    +0.194    13.301
ATOM      2  C   UNL d   1       6.627 -10.989  -8.678 -0.15 -0.02    +0.194    13.301
ATOM      3  C   UNL d   1       7.356 -12.226  -8.149 -0.07 -0.03    +0.194    13.301
ATOM      4  C   UNL d   1       8.641 -11.891  -7.396 -0.13 -0.05    +0.194    13.301
ATOM      5  C   UNL d   1       9.547 -10.905  -8.123 -0.17 -0.06    +0.194    13.301
ATOM      6  C   UNL d   1       8.808  -9.698  -8.705 -0.21 -0.05    +0.194    13.301
ATOM      7  O   UNL d   1       6.853  -8.883  -9.801 -0.26 +0.03    -0.278    13.301
ATOM      8  P   UNL d   1       5.943  -8.850 -11.114 -0.15 -0.04    +0.473    13.301
ATOM      9  O   UNL d   1       6.200  -7.706 -12.030 -0.24 -0.00    -0.228    13.301
ATOM     10  O   UNL d   1       6.195 -10.270 -11.796 -0.06 +0.03    -0.303    13.301
ATOM     11  H   UNL d   1       7.059 -10.266 -12.249 +0.05 -0.02    +0.222    13.301
ATOM     12  O   UNL d   1       4.452  -8.994 -10.586 -0.16 +0.05    -0.303    13.301
ATOM     13  H   UNL d   1       4.343  -8.702  -9.652 -0.39 -0.09    +0.222    13.301
ATOM     14  O   UNL d   1       6.119 -10.247  -7.562 -0.22 +0.01    -0.278    13.301
ATOM     15  P   UNL d   1       4.557 -10.406  -7.249 -0.25 +0.07    +0.473    13.301
ATOM     16  O   UNL d   1       3.622  -9.545  -8.039 -1.24 -0.04    -0.228    13.301
ATOM     17  O   UNL d   1       4.278 -11.962  -7.445 -0.41 -0.01    -0.303    13.301
ATOM     18  H   UNL d   1       4.908 -12.500  -6.928 +0.10 -0.01    +0.222    13.301
ATOM     19  O   UNL d   1       4.452 -10.259  -5.668 -0.26 -0.11    -0.303    13.301
ATOM     20  H   UNL d   1       3.882  -9.511  -5.412 -0.37 +0.03    +0.222    13.301
ATOM     21  O   UNL d   1       9.701  -9.071  -9.623 -0.21 +0.13    -0.278    13.301
ATOM     22  P   UNL d   1       9.847  -9.646 -11.104 -0.08 -0.15    +0.473    13.301
ATOM     23  O   UNL d   1       8.932  -9.120 -12.157 -0.11 +0.03    -0.228    13.301
ATOM     24  O   UNL d   1      11.396  -9.416 -11.390 -0.09 +0.19    -0.303    13.301
ATOM     25  H   UNL d   1      11.799  -8.994 -10.589 -0.37 -0.28    +0.222    13.301
ATOM     26  O   UNL d   1       9.789 -11.227 -10.847 -0.01 +0.07    -0.303    13.301
ATOM     27  H   UNL d   1      10.339 -11.447 -10.067 +0.04 -0.06    +0.222    13.301
ATOM     28  O   UNL d   1       6.508 -12.846  -7.191 -0.05 +0.03    -0.278    13.301
ATOM     29  P   UNL d   1       6.834 -14.311  -6.657 +0.00 -0.06    +0.473    13.301
ATOM     30  O   UNL d   1       7.745 -14.378  -5.486 -0.04 +0.02    -0.228    13.301
ATOM     31  O   UNL d   1       5.348 -14.870  -6.453 -0.05 +0.09    -0.303    13.301
ATOM     32  H   UNL d   1       4.710 -14.148  -6.656 +0.05 -0.08    +0.222    13.301
ATOM     33  O   UNL d   1       7.310 -15.052  -7.983 +0.00 +0.04    -0.303    13.301
ATOM     34  H   UNL d   1       8.210 -14.724  -8.228 +0.01 -0.03    +0.222    13.301
ATOM     35  O   UNL d   1      10.449 -10.408  -7.137 -0.21 +0.14    -0.278    13.301
ATOM     36  P   UNL d   1      11.862  -9.807  -7.568 -0.20 -0.27    +0.473    13.301
ATOM     37  O   UNL d   1      12.987 -10.056  -6.614 -0.27 +0.10    -0.228    13.301
ATOM     38  O   UNL d   1      12.068 -10.459  -9.007 -0.09 +0.16    -0.303    13.301
ATOM     39  H   UNL d   1      11.198 -10.529  -9.455 +0.07 -0.10    +0.222    13.301
ATOM     40  O   UNL d   1      11.504  -8.290  -7.883 -0.16 +0.31    -0.303    13.301
ATOM     41  H   UNL d   1      11.381  -8.137  -8.846 -0.42 -0.44    +0.222    13.301
ATOM     42  O   UNL d   1       9.373 -13.114  -7.261 -0.04 +0.06    -0.278    13.301
ATOM     43  P   UNL d   1      10.106 -13.720  -8.541 +0.00 -0.08    +0.473    13.301
ATOM     44  O   UNL d   1      10.430 -15.174  -8.523 -0.00 +0.03    -0.228    13.301
ATOM     45  O   UNL d   1       9.146 -13.283  -9.732 -0.00 +0.05    -0.303    13.301
ATOM     46  H   UNL d   1       9.589 -13.368 -10.600 +0.01 -0.03    +0.222    13.301
ATOM     47  O   UNL d   1      11.353 -12.736  -8.750 -0.01 +0.07    -0.303    13.301
ATOM     48  H   UNL d   1      11.472 -12.190  -7.945 +0.05 -0.06    +0.222    13.301
TER
ENDMDL
MODEL       27
USER    Run = 27
USER    Cluster Rank = 4
USER    Number of conformations in this cluster = 1
USER  
USER    RMSD from reference structure       = 16.394 A
USER  
USER    Estimated Free Energy of Binding    =   +0.11 kcal/mol  [=(1)+(2)+(3)-(4)]
USER    
USER    (1) Final Intermolecular Energy     =   -7.05 kcal/mol
USER        vdW + Hbond + desolv Energy     =   -6.07 kcal/mol
USER        Electrostatic Energy            =   -0.98 kcal/mol
USER    (2) Final Total Internal Energy     =  -10.45 kcal/mol
USER    (3) Torsional Free Energy           =   +7.16 kcal/mol
USER    (4) Unbound System's Energy  [=(2)] =  -10.45 kcal/mol
USER    
USER    
USER  
USER    DPF = D:/Protein_go_brrr/autodock/final/AncMH_nat/IHP/dock.dpf
USER    NEWDPF move	IHP_ideal_opt.pdbqt
USER    NEWDPF about	0.035000 0.082000 -0.065000
USER    NEWDPF tran0	-11.449732 -15.754371 -3.764662
USER    NEWDPF axisangle0	0.036248 0.995661 -0.085706 164.859340
USER    NEWDPF quaternion0	0.035932 0.986983 -0.084959 0.131743
USER    NEWDPF dihe0	25.51 -171.22 -152.62 132.62 26.69 -167.06 24.53 -134.61 147.48 85.74 83.82 148.92 -65.66 -70.08 -38.99 -124.04 44.62 -83.88 76.12 6.52 159.84 42.15 25.55 -176.69 
USER  
USER                              x       y       z    vdW   Elec        q     RMS 
ATOM      1  C   UNL d   1     -12.910 -16.636  -4.041 -0.10 +0.02    +0.194    16.394
ATOM      2  C   UNL d   1     -11.649 -17.484  -3.865 -0.12 +0.04    +0.194    16.394
ATOM      3  C   UNL d   1     -10.460 -16.897  -4.628 -0.12 +0.05    +0.194    16.394
ATOM      4  C   UNL d   1     -10.212 -15.423  -4.314 -0.20 -0.01    +0.194    16.394
ATOM      5  C   UNL d   1     -11.466 -14.559  -4.366 -0.20 -0.03    +0.194    16.394
ATOM      6  C   UNL d   1     -12.673 -15.175  -3.656 -0.15 +0.02    +0.194    16.394
ATOM      7  O   UNL d   1     -13.918 -17.148  -3.168 -0.09 -0.04    -0.278    16.394
ATOM      8  P   UNL d   1     -14.157 -18.728  -3.128 -0.04 +0.04    +0.473    16.394
ATOM      9  O   UNL d   1     -13.529 -19.489  -4.242 -0.02 -0.02    -0.228    16.394
ATOM     10  O   UNL d   1     -13.622 -19.164  -1.690 -0.07 -0.04    -0.303    16.394
ATOM     11  H   UNL d   1     -13.040 -19.941  -1.779 +0.04 +0.02    +0.222    16.394
ATOM     12  O   UNL d   1     -15.727 -18.904  -2.966 -0.03 -0.02    -0.303    16.394
ATOM     13  H   UNL d   1     -16.082 -19.676  -3.463 +0.01 +0.01    +0.222    16.394
ATOM     14  O   UNL d   1     -11.315 -17.540  -2.472 -0.23 -0.11    -0.278    16.394
ATOM     15  P   UNL d   1     -10.845 -18.963  -1.906 -0.16 +0.18    +0.473    16.394
ATOM     16  O   UNL d   1     -11.115 -20.153  -2.772 -0.05 -0.05    -0.228    16.394
ATOM     17  O   UNL d   1      -9.296 -18.764  -1.596 -0.67 -0.40    -0.303    16.394
ATOM     18  H   UNL d   1      -9.124 -18.787  -0.635 -0.49 +0.14    +0.222    16.394
ATOM     19  O   UNL d   1     -11.459 -19.028  -0.440 -0.16 -0.03    -0.303    16.394
ATOM     20  H   UNL d   1     -12.424 -19.165  -0.458 +0.05 +0.03    +0.222    16.394
ATOM     21  O   UNL d   1     -13.819 -14.439  -4.078 -0.09 -0.02    -0.278    16.394
ATOM     22  P   UNL d   1     -14.170 -14.342  -5.631 +0.00 +0.01    +0.473    16.394
ATOM     23  O   UNL d   1     -13.172 -14.859  -6.612 -0.01 +0.00    -0.228    16.394
ATOM     24  O   UNL d   1     -15.593 -15.053  -5.688 -0.01 -0.02    -0.303    16.394
ATOM     25  H   UNL d   1     -15.574 -15.831  -5.074 +0.02 +0.01    +0.222    16.394
ATOM     26  O   UNL d   1     -14.565 -12.796  -5.779 -0.01 -0.02    -0.303    16.394
ATOM     27  H   UNL d   1     -14.208 -12.298  -5.016 +0.05 +0.02    +0.222    16.394
ATOM     28  O   UNL d   1      -9.291 -17.577  -4.189 -0.16 -0.25    -0.278    16.394
ATOM     29  P   UNL d   1      -8.030 -17.714  -5.152 +0.06 +0.36    +0.473    16.394
ATOM     30  O   UNL d   1      -7.201 -18.930  -4.952 -0.10 -0.18    -0.228    16.394
ATOM     31  O   UNL d   1      -8.745 -17.548  -6.574 -0.02 -0.03    -0.303    16.394
ATOM     32  H   UNL d   1      -8.955 -16.595  -6.710 +0.03 -0.02    +0.222    16.394
ATOM     33  O   UNL d   1      -7.306 -16.309  -4.956 -0.61 -0.19    -0.303    16.394
ATOM     34  H   UNL d   1      -7.811 -15.617  -5.449 -0.24 -0.11    +0.222    16.394
ATOM     35  O   UNL d   1     -11.137 -13.358  -3.671 -0.32 +0.08    -0.278    16.394
ATOM     36  P   UNL d   1     -11.933 -12.009  -3.973 -0.22 -0.10    +0.473    16.394
ATOM     37  O   UNL d   1     -13.162 -11.788  -3.149 -0.22 -0.00    -0.228    16.394
ATOM     38  O   UNL d   1     -10.800 -10.909  -3.767 -0.26 +0.14    -0.303    16.394
ATOM     39  H   UNL d   1     -10.217 -10.898  -4.556 -0.06 -0.29    +0.222    16.394
ATOM     40  O   UNL d   1     -12.123 -12.073  -5.550 -0.10 +0.07    -0.303    16.394
ATOM     41  H   UNL d   1     -12.399 -12.968  -5.848 +0.06 -0.04    +0.222    16.394
ATOM     42  O   UNL d   1      -9.319 -14.930  -5.319 -0.06 +0.24    -0.278    16.394
ATOM     43  P   UNL d   1      -9.868 -14.715  -6.801 -0.02 -0.28    +0.473    16.394
ATOM     44  O   UNL d   1     -10.833 -15.719  -7.329 -0.02 +0.03    -0.228    16.394
ATOM     45  O   UNL d   1     -10.437 -13.230  -6.749 -0.09 +0.27    -0.303    16.394
ATOM     46  H   UNL d   1     -10.170 -12.772  -5.927 -0.43 -0.38    +0.222    16.394
ATOM     47  O   UNL d   1      -8.530 -14.521  -7.662 -0.09 +0.22    -0.303    16.394
ATOM     48  H   UNL d   1      -7.850 -14.084  -7.109 -0.34 -0.33    +0.222    16.394
TER
ENDMDL
MODEL       31
USER    Run = 31
USER    Cluster Rank = 5
USER    Number of conformations in this cluster = 1
USER  
USER    RMSD from reference structure       = 19.529 A
USER  
USER    Estimated Free Energy of Binding    =   +0.50 kcal/mol  [=(1)+(2)+(3)-(4)]
USER    
USER    (1) Final Intermolecular Energy     =   -6.66 kcal/mol
USER        vdW + Hbond + desolv Energy     =   -6.53 kcal/mol
USER        Electrostatic Energy            =   -0.13 kcal/mol
USER    (2) Final Total Internal Energy     =  -13.53 kcal/mol
USER    (3) Torsional Free Energy           =   +7.16 kcal/mol
USER    (4) Unbound System's Energy  [=(2)] =  -13.53 kcal/mol
USER    
USER    
USER  
USER    DPF = D:/Protein_go_brrr/autodock/final/AncMH_nat/IHP/dock.dpf
USER    NEWDPF move	IHP_ideal_opt.pdbqt
USER    NEWDPF about	0.035000 0.082000 -0.065000
USER    NEWDPF tran0	-14.665976 1.746994 16.644904
USER    NEWDPF axisangle0	-0.390832 -0.188094 0.901039 -118.837429
USER    NEWDPF quaternion0	-0.336471 -0.161932 0.775712 -0.508760
USER    NEWDPF dihe0	168.65 -39.89 51.49 59.09 100.72 80.49 -56.31 7.44 147.68 33.54 149.73 -78.69 111.67 -72.97 -104.52 33.01 161.79 71.59 8.85 -5.05 158.70 -18.35 -177.62 31.28 
USER  
USER                              x       y       z    vdW   Elec        q     RMS 
ATOM      1  C   UNL d   1     -14.926   3.326  17.295 -0.10 +0.02    +0.194    19.529
ATOM      2  C   UNL d   1     -13.806   2.517  17.952 -0.08 +0.00    +0.194    19.529
ATOM      3  C   UNL d   1     -14.218   1.062  18.181 -0.07 +0.00    +0.194    19.529
ATOM      4  C   UNL d   1     -14.759   0.384  16.924 -0.10 +0.01    +0.194    19.529
ATOM      5  C   UNL d   1     -15.797   1.208  16.173 -0.07 +0.02    +0.194    19.529
ATOM      6  C   UNL d   1     -15.411   2.679  15.997 -0.16 +0.03    +0.194    19.529
ATOM      7  O   UNL d   1     -14.407   4.615  16.959 -0.14 -0.04    -0.278    19.529
ATOM      8  P   UNL d   1     -14.990   5.891  17.723 -0.08 +0.14    +0.473    19.529
ATOM      9  O   UNL d   1     -14.161   7.123  17.620 -0.09 -0.05    -0.228    19.529
ATOM     10  O   UNL d   1     -16.455   6.068  17.118 -0.06 -0.27    -0.303    19.529
ATOM     11  H   UNL d   1     -16.686   5.284  16.586 +0.04 +0.20    +0.222    19.529
ATOM     12  O   UNL d   1     -15.298   5.384  19.197 -0.01 -0.05    -0.303    19.529
ATOM     13  H   UNL d   1     -16.182   4.961  19.283 +0.02 +0.05    +0.222    19.529
ATOM     14  O   UNL d   1     -12.654   2.537  17.099 -0.16 +0.02    -0.278    19.529
ATOM     15  P   UNL d   1     -11.279   3.016  17.765 -0.14 -0.05    +0.473    19.529
ATOM     16  O   UNL d   1     -11.383   3.768  19.055 -0.05 +0.03    -0.228    19.529
ATOM     17  O   UNL d   1     -10.426   1.677  17.898 -0.25 +0.05    -0.303    19.529
ATOM     18  H   UNL d   1     -10.973   0.944  18.240 -0.08 -0.08    +0.222    19.529
ATOM     19  O   UNL d   1     -10.511   3.768  16.593 -0.82 +0.02    -0.303    19.529
ATOM     20  H   UNL d   1     -11.024   3.761  15.763 -0.45 -0.09    +0.222    19.529
ATOM     21  O   UNL d   1     -16.594   3.370  15.602 -0.13 -0.10    -0.278    19.529
ATOM     22  P   UNL d   1     -17.899   3.295  16.517 -0.06 +0.21    +0.473    19.529
ATOM     23  O   UNL d   1     -18.689   2.029  16.515 -0.02 -0.06    -0.228    19.529
ATOM     24  O   UNL d   1     -17.324   3.721  17.939 -0.03 -0.10    -0.303    19.529
ATOM     25  H   UNL d   1     -16.614   4.396  17.794 +0.03 +0.09    +0.222    19.529
ATOM     26  O   UNL d   1     -18.688   4.617  16.069 -0.56 -0.38    -0.303    19.529
ATOM     27  H   UNL d   1     -18.455   5.350  16.673 +0.01 +0.37    +0.222    19.529
ATOM     28  O   UNL d   1     -13.047   0.334  18.528 -0.11 +0.04    -0.278    19.529
ATOM     29  P   UNL d   1     -12.637   0.150  20.056 -0.01 -0.08    +0.473    19.529
ATOM     30  O   UNL d   1     -13.630   0.635  21.048 -0.02 +0.01    -0.228    19.529
ATOM     31  O   UNL d   1     -12.303  -1.415  20.068 +0.03 +0.09    -0.303    19.529
ATOM     32  H   UNL d   1     -12.519  -1.789  19.183 -0.40 -0.07    +0.222    19.529
ATOM     33  O   UNL d   1     -11.192   0.818  20.097 -0.08 +0.08    -0.303    19.529
ATOM     34  H   UNL d   1     -11.282   1.788  19.929 +0.04 -0.04    +0.222    19.529
ATOM     35  O   UNL d   1     -15.875   0.636  14.869 -0.07 -0.03    -0.278    19.529
ATOM     36  P   UNL d   1     -14.543   0.304  14.055 -0.21 +0.00    +0.473    19.529
ATOM     37  O   UNL d   1     -14.682   0.299  12.566 -0.34 +0.02    -0.228    19.529
ATOM     38  O   UNL d   1     -13.536   1.403  14.615 -0.26 +0.03    -0.303    19.529
ATOM     39  H   UNL d   1     -13.218   1.125  15.501 +0.11 -0.01    +0.222    19.529
ATOM     40  O   UNL d   1     -14.055  -1.047  14.739 -0.29 -0.00    -0.303    19.529
ATOM     41  H   UNL d   1     -14.586  -1.263  15.537 +0.07 +0.01    +0.222    19.529
ATOM     42  O   UNL d   1     -15.404  -0.821  17.348 -0.04 -0.03    -0.278    19.529
ATOM     43  P   UNL d   1     -14.511  -2.103  17.669 -0.12 +0.07    +0.473    19.529
ATOM     44  O   UNL d   1     -14.535  -2.624  19.065 -0.07 -0.04    -0.228    19.529
ATOM     45  O   UNL d   1     -14.996  -3.150  16.574 -0.16 -0.09    -0.303    19.529
ATOM     46  H   UNL d   1     -14.617  -2.950  15.695 -0.32 -0.01    +0.222    19.529
ATOM     47  O   UNL d   1     -13.066  -1.692  17.110 -0.23 -0.00    -0.303    19.529
ATOM     48  H   UNL d   1     -12.501  -1.402  17.856 -0.44 -0.06    +0.222    19.529
TER
ENDMDL
MODEL       64
USER    Run = 64
USER    Cluster Rank = 6
USER    Number of conformations in this cluster = 1
USER  
USER    RMSD from reference structure       = 20.381 A
USER  
USER    Estimated Free Energy of Binding    =   +0.55 kcal/mol  [=(1)+(2)+(3)-(4)]
USER    
USER    (1) Final Intermolecular Energy     =   -6.61 kcal/mol
USER        vdW + Hbond + desolv Energy     =   -6.24 kcal/mol
USER        Electrostatic Energy            =   -0.37 kcal/mol
USER    (2) Final Total Internal Energy     =  -11.17 kcal/mol
USER    (3) Torsional Free Energy           =   +7.16 kcal/mol
USER    (4) Unbound System's Energy  [=(2)] =  -11.17 kcal/mol
USER    
USER    
USER  
USER    DPF = D:/Protein_go_brrr/autodock/final/AncMH_nat/IHP/dock.dpf
USER    NEWDPF move	IHP_ideal_opt.pdbqt
USER    NEWDPF about	0.035000 0.082000 -0.065000
USER    NEWDPF tran0	-9.736797 -12.405457 17.672385
USER    NEWDPF axisangle0	0.141559 -0.068694 -0.987544 -142.071977
USER    NEWDPF quaternion0	0.133875 -0.064965 -0.933943 -0.324974
USER    NEWDPF dihe0	-170.44 93.04 82.97 -29.59 -16.41 -81.46 -90.96 -22.46 24.81 124.86 30.48 168.74 -92.48 151.84 -55.09 -166.05 106.78 168.16 26.07 7.69 -11.47 1.42 166.37 -3.25 
USER  
USER                              x       y       z    vdW   Elec        q     RMS 
ATOM      1  C   UNL d   1     -11.435 -12.468  17.983 -0.11 +0.00    +0.194    20.381
ATOM      2  C   UNL d   1     -10.862 -11.074  17.722 -0.13 +0.04    +0.194    20.381
ATOM      3  C   UNL d   1      -9.533 -10.862  18.451 -0.06 +0.03    +0.194    20.381
ATOM      4  C   UNL d   1      -8.514 -11.966  18.178 -0.06 +0.03    +0.194    20.381
ATOM      5  C   UNL d   1      -9.075 -13.376  18.315 -0.05 +0.02    +0.194    20.381
ATOM      6  C   UNL d   1     -10.433 -13.570  17.637 -0.12 +0.00    +0.194    20.381
ATOM      7  O   UNL d   1     -12.574 -12.647  17.138 -0.16 +0.03    -0.278    20.381
ATOM      8  P   UNL d   1     -14.023 -12.362  17.746 -0.12 -0.03    +0.473    20.381
ATOM      9  O   UNL d   1     -14.230 -12.848  19.138 -0.04 +0.01    -0.228    20.381
ATOM     10  O   UNL d   1     -14.201 -10.783  17.599 -0.14 -0.11    -0.303    20.381
ATOM     11  H   UNL d   1     -13.724 -10.473  16.807 +0.08 +0.10    +0.222    20.381
ATOM     12  O   UNL d   1     -15.043 -12.914  16.660 -0.22 +0.16    -0.303    20.381
ATOM     13  H   UNL d   1     -14.818 -13.818  16.344 -0.33 -0.29    +0.222    20.381
ATOM     14  O   UNL d   1     -10.640 -10.916  16.315 -0.26 -0.12    -0.278    20.381
ATOM     15  P   UNL d   1     -11.023  -9.494  15.686 -0.28 +0.21    +0.473    20.381
ATOM     16  O   UNL d   1     -11.405  -9.480  14.239 -0.46 -0.11    -0.228    20.381
ATOM     17  O   UNL d   1     -12.180  -8.949  16.635 -0.21 -0.14    -0.303    20.381
ATOM     18  H   UNL d   1     -12.517  -9.654  17.220 +0.08 +0.09    +0.222    20.381
ATOM     19  O   UNL d   1      -9.810  -8.545  16.083 -0.24 -0.09    -0.303    20.381
ATOM     20  H   UNL d   1      -9.957  -8.113  16.945 +0.12 +0.04    +0.222    20.381
ATOM     21  O   UNL d   1     -10.970 -14.794  18.134 -0.06 +0.03    -0.278    20.381
ATOM     22  P   UNL d   1     -11.162 -16.033  17.148 -0.12 -0.13    +0.473    20.381
ATOM     23  O   UNL d   1     -11.323 -15.756  15.691 -0.30 +0.09    -0.228    20.381
ATOM     24  O   UNL d   1      -9.909 -16.942  17.520 +0.00 +0.09    -0.303    20.381
ATOM     25  H   UNL d   1      -9.122 -16.598  17.027 -0.52 -0.11    +0.222    20.381
ATOM     26  O   UNL d   1     -12.366 -16.825  17.850 -0.05 +0.08    -0.303    20.381
ATOM     27  H   UNL d   1     -13.190 -16.671  17.345 +0.05 -0.09    +0.222    20.381
ATOM     28  O   UNL d   1      -8.948  -9.672  17.938 -0.10 -0.04    -0.278    20.381
ATOM     29  P   UNL d   1      -8.813  -8.380  18.859 -0.08 +0.01    +0.473    20.381
ATOM     30  O   UNL d   1      -7.947  -7.298  18.322 -0.30 +0.02    -0.228    20.381
ATOM     31  O   UNL d   1     -10.359  -8.031  19.078 -0.05 -0.03    -0.303    20.381
ATOM     32  H   UNL d   1     -10.839  -8.187  18.232 +0.09 +0.04    +0.222    20.381
ATOM     33  O   UNL d   1      -8.393  -9.010  20.259 -0.02 +0.00    -0.303    20.381
ATOM     34  H   UNL d   1      -7.793  -9.779  20.099 +0.04 -0.00    +0.222    20.381
ATOM     35  O   UNL d   1      -8.147 -14.228  17.647 -0.07 -0.03    -0.278    20.381
ATOM     36  P   UNL d   1      -7.891 -14.068  16.080 -0.20 +0.24    +0.473    20.381
ATOM     37  O   UNL d   1      -6.530 -14.465  15.605 -0.27 -0.07    -0.228    20.381
ATOM     38  O   UNL d   1      -9.077 -14.935  15.466 -0.31 -0.06    -0.303    20.381
ATOM     39  H   UNL d   1      -9.139 -15.785  15.953 -0.46 -0.10    +0.222    20.381
ATOM     40  O   UNL d   1      -8.338 -12.565  15.815 -0.63 -0.45    -0.303    20.381
ATOM     41  H   UNL d   1      -7.619 -11.928  16.025 +0.11 +0.22    +0.222    20.381
ATOM     42  O   UNL d   1      -7.480 -11.827  19.158 -0.02 -0.01    -0.278    20.381
ATOM     43  P   UNL d   1      -6.013 -11.425  18.679 -0.06 +0.02    +0.473    20.381
ATOM     44  O   UNL d   1      -4.863 -11.997  19.434 -0.07 +0.01    -0.228    20.381
ATOM     45  O   UNL d   1      -6.032 -11.810  17.135 -0.13 -0.06    -0.303    20.381
ATOM     46  H   UNL d   1      -6.470 -12.671  16.986 +0.08 +0.06    +0.222    20.381
ATOM     47  O   UNL d   1      -6.073  -9.825  18.617 -0.16 +0.00    -0.303    20.381
ATOM     48  H   UNL d   1      -7.006  -9.534  18.688 +0.08 -0.00    +0.222    20.381
TER
ENDMDL
MODEL       22
USER    Run = 22
USER    Cluster Rank = 7
USER    Number of conformations in this cluster = 1
USER  
USER    RMSD from reference structure       = 15.767 A
USER  
USER    Estimated Free Energy of Binding    =   +0.68 kcal/mol  [=(1)+(2)+(3)-(4)]
USER    
USER    (1) Final Intermolecular Energy     =   -6.48 kcal/mol
USER        vdW + Hbond + desolv Energy     =   -6.06 kcal/mol
USER        Electrostatic Energy            =   -0.42 kcal/mol
USER    (2) Final Total Internal Energy     =  -12.62 kcal/mol
USER    (3) Torsional Free Energy           =   +7.16 kcal/mol
USER    (4) Unbound System's Energy  [=(2)] =  -12.62 kcal/mol
USER    
USER    
USER  
USER    DPF = D:/Protein_go_brrr/autodock/final/AncMH_nat/IHP/dock.dpf
USER    NEWDPF move	IHP_ideal_opt.pdbqt
USER    NEWDPF about	0.035000 0.082000 -0.065000
USER    NEWDPF tran0	3.846816 17.961099 -5.202462
USER    NEWDPF axisangle0	-0.910572 -0.410301 -0.050115 -98.689110
USER    NEWDPF quaternion0	-0.690797 -0.311272 -0.038019 -0.651509
USER    NEWDPF dihe0	-125.51 37.66 64.28 154.26 3.17 -179.99 16.83 176.31 152.70 124.72 32.54 -123.94 -154.53 79.47 173.32 -76.56 80.36 -78.71 58.36 14.47 178.13 15.10 14.76 179.95 
USER  
USER                              x       y       z    vdW   Elec        q     RMS 
ATOM      1  C   UNL d   1       4.148  19.131  -3.967 -0.10 +0.02    +0.194    15.767
ATOM      2  C   UNL d   1       2.890  18.281  -3.780 -0.10 +0.01    +0.194    15.767
ATOM      3  C   UNL d   1       2.117  18.117  -5.090 -0.08 -0.00    +0.194    15.767
ATOM      4  C   UNL d   1       2.984  17.617  -6.242 -0.13 -0.00    +0.194    15.767
ATOM      5  C   UNL d   1       4.304  18.363  -6.394 -0.09 +0.01    +0.194    15.767
ATOM      6  C   UNL d   1       5.048  18.581  -5.075 -0.12 +0.03    +0.194    15.767
ATOM      7  O   UNL d   1       4.898  19.092  -2.751 -0.07 -0.06    -0.278    15.767
ATOM      8  P   UNL d   1       4.247  19.725  -1.437 -0.19 +0.09    +0.473    15.767
ATOM      9  O   UNL d   1       4.773  21.064  -1.055 -0.11 -0.05    -0.228    15.767
ATOM     10  O   UNL d   1       2.682  19.729  -1.745 -0.08 -0.04    -0.303    15.767
ATOM     11  H   UNL d   1       2.326  18.827  -1.641 +0.07 +0.03    +0.222    15.767
ATOM     12  O   UNL d   1       4.365  18.591  -0.330 -0.31 -0.07    -0.303    15.767
ATOM     13  H   UNL d   1       4.685  17.733  -0.690 -0.15 -0.01    +0.222    15.767
ATOM     14  O   UNL d   1       3.271  16.982  -3.309 -0.19 -0.02    -0.278    15.767
ATOM     15  P   UNL d   1       2.258  16.262  -2.298 -0.22 +0.02    +0.473    15.767
ATOM     16  O   UNL d   1       1.963  14.818  -2.557 -0.20 -0.01    -0.228    15.767
ATOM     17  O   UNL d   1       2.900  16.513  -0.862 -0.30 +0.01    -0.303    15.767
ATOM     18  H   UNL d   1       3.874  16.555  -0.914 -0.37 -0.08    +0.222    15.767
ATOM     19  O   UNL d   1       0.991  17.223  -2.255 -0.17 -0.02    -0.303    15.767
ATOM     20  H   UNL d   1       0.305  16.944  -2.889 +0.12 +0.02    +0.222    15.767
ATOM     21  O   UNL d   1       6.051  19.563  -5.325 -0.08 -0.03    -0.278    15.767
ATOM     22  P   UNL d   1       5.640  21.099  -5.459 -0.01 +0.02    +0.473    15.767
ATOM     23  O   UNL d   1       6.546  22.007  -6.220 -0.01 -0.00    -0.228    15.767
ATOM     24  O   UNL d   1       4.162  20.990  -6.041 -0.00 -0.00    -0.303    15.767
ATOM     25  H   UNL d   1       4.212  20.556  -6.930 +0.03 -0.00    +0.222    15.767
ATOM     26  O   UNL d   1       5.366  21.497  -3.931 -0.02 -0.02    -0.303    15.767
ATOM     27  H   UNL d   1       5.612  20.746  -3.353 +0.04 +0.03    +0.222    15.767
ATOM     28  O   UNL d   1       1.140  17.104  -4.886 -0.13 +0.00    -0.278    15.767
ATOM     29  P   UNL d   1      -0.396  17.394  -5.193 -0.22 +0.01    +0.473    15.767
ATOM     30  O   UNL d   1      -1.249  17.650  -4.004 -0.31 -0.04    -0.228    15.767
ATOM     31  O   UNL d   1      -0.249  18.586  -6.251 -0.12 +0.04    -0.303    15.767
ATOM     32  H   UNL d   1       0.141  18.224  -7.079 -0.18 -0.07    +0.222    15.767
ATOM     33  O   UNL d   1      -0.793  16.156  -6.111 -0.51 -0.04    -0.303    15.767
ATOM     34  H   UNL d   1      -1.168  16.493  -6.961 -0.04 -0.03    +0.222    15.767
ATOM     35  O   UNL d   1       5.127  17.531  -7.209 -0.20 -0.05    -0.278    15.767
ATOM     36  P   UNL d   1       6.152  18.180  -8.245 -0.08 +0.08    +0.473    15.767
ATOM     37  O   UNL d   1       7.577  17.751  -8.097 -0.21 +0.01    -0.228    15.767
ATOM     38  O   UNL d   1       5.493  17.792  -9.641 -0.58 -0.20    -0.303    15.767
ATOM     39  H   UNL d   1       4.788  18.440  -9.855 +0.06 +0.03    +0.222    15.767
ATOM     40  O   UNL d   1       5.847  19.734  -8.096 -0.01 -0.00    -0.303    15.767
ATOM     41  H   UNL d   1       6.324  20.127  -7.332 +0.04 +0.00    +0.222    15.767
ATOM     42  O   UNL d   1       2.239  17.831  -7.445 -0.15 +0.03    -0.278    15.767
ATOM     43  P   UNL d   1       1.986  19.326  -7.941 -0.04 -0.06    +0.473    15.767
ATOM     44  O   UNL d   1       1.830  20.378  -6.898 -0.02 +0.01    -0.228    15.767
ATOM     45  O   UNL d   1       3.200  19.573  -8.939 -0.03 +0.03    -0.303    15.767
ATOM     46  H   UNL d   1       4.032  19.192  -8.592 +0.05 -0.00    +0.222    15.767
ATOM     47  O   UNL d   1       0.755  19.172  -8.957 -0.06 +0.10    -0.303    15.767
ATOM     48  H   UNL d   1       0.013  18.726  -8.499 -0.48 -0.13    +0.222    15.767
TER
ENDMDL
MODEL       11
USER    Run = 11
USER    Cluster Rank = 8
USER    Number of conformations in this cluster = 1
USER  
USER    RMSD from reference structure       = 17.386 A
USER  
USER    Estimated Free Energy of Binding    =   +0.78 kcal/mol  [=(1)+(2)+(3)-(4)]
USER    
USER    (1) Final Intermolecular Energy     =   -6.38 kcal/mol
USER        vdW + Hbond + desolv Energy     =   -6.10 kcal/mol
USER        Electrostatic Energy            =   -0.28 kcal/mol
USER    (2) Final Total Internal Energy     =  -11.55 kcal/mol
USER    (3) Torsional Free Energy           =   +7.16 kcal/mol
USER    (4) Unbound System's Energy  [=(2)] =  -11.55 kcal/mol
USER    
USER    
USER  
USER    DPF = D:/Protein_go_brrr/autodock/final/AncMH_nat/IHP/dock.dpf
USER    NEWDPF move	IHP_ideal_opt.pdbqt
USER    NEWDPF about	0.035000 0.082000 -0.065000
USER    NEWDPF tran0	-19.621777 -2.423009 9.365801
USER    NEWDPF axisangle0	0.774588 -0.632429 0.006810 145.360078
USER    NEWDPF quaternion0	0.739466 -0.603753 0.006502 0.297707
USER    NEWDPF dihe0	156.72 97.89 56.02 36.12 44.78 65.83 -139.24 -14.22 16.26 -162.03 67.92 -170.48 148.50 129.87 101.31 17.55 -88.84 -7.67 15.89 -26.96 164.42 -33.20 11.05 148.91 
USER  
USER                              x       y       z    vdW   Elec        q     RMS 
ATOM      1  C   UNL d   1     -18.201  -3.121   8.675 -0.13 +0.05    +0.194    17.386
ATOM      2  C   UNL d   1     -17.960  -2.086   9.775 -0.10 +0.04    +0.194    17.386
ATOM      3  C   UNL d   1     -18.876  -0.870   9.619 -0.04 +0.05    +0.194    17.386
ATOM      4  C   UNL d   1     -20.351  -1.241   9.488 -0.01 +0.05    +0.194    17.386
ATOM      5  C   UNL d   1     -20.625  -2.352   8.482 -0.01 +0.06    +0.194    17.386
ATOM      6  C   UNL d   1     -19.669  -3.542   8.598 -0.10 +0.05    +0.194    17.386
ATOM      7  O   UNL d   1     -17.439  -4.290   8.987 -0.08 -0.02    -0.278    17.386
ATOM      8  P   UNL d   1     -16.128  -4.594   8.126 -0.24 +0.11    +0.473    17.386
ATOM      9  O   UNL d   1     -15.659  -6.006   8.168 -0.98 -0.10    -0.228    17.386
ATOM     10  O   UNL d   1     -16.509  -4.103   6.656 -0.12 -0.09    -0.303    17.386
ATOM     11  H   UNL d   1     -17.425  -3.768   6.650 +0.07 +0.07    +0.222    17.386
ATOM     12  O   UNL d   1     -15.072  -3.498   8.580 -0.28 -0.02    -0.303    17.386
ATOM     13  H   UNL d   1     -14.946  -3.464   9.555 -0.44 -0.04    +0.222    17.386
ATOM     14  O   UNL d   1     -18.217  -2.691  11.049 -0.08 -0.06    -0.278    17.386
ATOM     15  P   UNL d   1     -16.936  -3.076  11.930 -0.15 +0.12    +0.473    17.386
ATOM     16  O   UNL d   1     -17.195  -3.818  13.203 -0.20 -0.10    -0.228    17.386
ATOM     17  O   UNL d   1     -16.002  -3.883  10.923 -0.69 -0.12    -0.303    17.386
ATOM     18  H   UNL d   1     -16.529  -4.474  10.352 -0.38 +0.08    +0.222    17.386
ATOM     19  O   UNL d   1     -16.136  -1.710  12.083 -0.16 -0.03    -0.303    17.386
ATOM     20  H   UNL d   1     -16.347  -1.085  11.364 +0.10 +0.02    +0.222    17.386
ATOM     21  O   UNL d   1     -19.823  -4.311   7.408 -0.37 -0.10    -0.278    17.386
ATOM     22  P   UNL d   1     -19.471  -3.661   5.994 +0.04 +0.21    +0.473    17.386
ATOM     23  O   UNL d   1     -18.604  -4.435   5.059 -0.37 -0.11    -0.228    17.386
ATOM     24  O   UNL d   1     -20.916  -3.310   5.429 -0.04 -0.12    -0.303    17.386
ATOM     25  H   UNL d   1     -21.578  -3.875   5.902 +0.02 +0.07    +0.222    17.386
ATOM     26  O   UNL d   1     -18.924  -2.218   6.427 -0.02 -0.14    -0.303    17.386
ATOM     27  H   UNL d   1     -19.583  -1.537   6.181 +0.04 +0.13    +0.222    17.386
ATOM     28  O   UNL d   1     -18.784  -0.109  10.816 -0.03 -0.06    -0.278    17.386
ATOM     29  P   UNL d   1     -17.519   0.823  11.081 -0.13 +0.05    +0.473    17.386
ATOM     30  O   UNL d   1     -16.403   0.680  10.111 -0.48 -0.04    -0.228    17.386
ATOM     31  O   UNL d   1     -18.237   2.252  11.156 -0.04 +0.00    -0.303    17.386
ATOM     32  H   UNL d   1     -18.298   2.621  10.245 -0.39 -0.05    +0.222    17.386
ATOM     33  O   UNL d   1     -17.190   0.514  12.608 -0.07 -0.03    -0.303    17.386
ATOM     34  H   UNL d   1     -17.232  -0.463  12.754 +0.08 +0.03    +0.222    17.386
ATOM     35  O   UNL d   1     -21.933  -2.834   8.784 -0.00 -0.07    -0.278    17.386
ATOM     36  P   UNL d   1     -22.928  -3.249   7.608 +0.01 +0.11    +0.473    17.386
ATOM     37  O   UNL d   1     -22.991  -2.303   6.452 -0.00 -0.07    -0.228    17.386
ATOM     38  O   UNL d   1     -22.402  -4.705   7.235 -0.03 -0.07    -0.303    17.386
ATOM     39  H   UNL d   1     -21.440  -4.660   7.043 +0.02 +0.06    +0.222    17.386
ATOM     40  O   UNL d   1     -24.285  -3.522   8.392 +0.00 -0.05    -0.303    17.386
ATOM     41  H   UNL d   1     -25.069  -3.425   7.808 +0.00 +0.03    +0.222    17.386
ATOM     42  O   UNL d   1     -21.033  -0.073   9.020 -0.02 -0.10    -0.278    17.386
ATOM     43  P   UNL d   1     -20.311   0.864   7.949 -0.02 +0.29    +0.473    17.386
ATOM     44  O   UNL d   1     -19.507   0.198   6.887 -0.11 -0.18    -0.228    17.386
ATOM     45  O   UNL d   1     -21.511   1.751   7.397 -0.06 -0.25    -0.303    17.386
ATOM     46  H   UNL d   1     -22.369   1.464   7.768 +0.02 +0.12    +0.222    17.386
ATOM     47  O   UNL d   1     -19.518   1.918   8.859 -0.18 -0.13    -0.303    17.386
ATOM     48  H   UNL d   1     -19.568   1.637   9.797 +0.06 +0.06    +0.222    17.386
TER
ENDMDL
MODEL       71
USER    Run = 71
USER    Cluster Rank = 9
USER    Number of conformations in this cluster = 1
USER  
USER    RMSD from reference structure       = 16.555 A
USER  
USER    Estimated Free Energy of Binding    =   +1.01 kcal/mol  [=(1)+(2)+(3)-(4)]
USER    
USER    (1) Final Intermolecular Energy     =   -6.15 kcal/mol
USER        vdW + Hbond + desolv Energy     =   -5.92 kcal/mol
USER        Electrostatic Energy            =   -0.23 kcal/mol
USER    (2) Final Total Internal Energy     =  -12.93 kcal/mol
USER    (3) Torsional Free Energy           =   +7.16 kcal/mol
USER    (4) Unbound System's Energy  [=(2)] =  -12.93 kcal/mol
USER    
USER    
USER  
USER    DPF = D:/Protein_go_brrr/autodock/final/AncMH_nat/IHP/dock.dpf
USER    NEWDPF move	IHP_ideal_opt.pdbqt
USER    NEWDPF about	0.035000 0.082000 -0.065000
USER    NEWDPF tran0	3.553336 19.517220 -5.108892
USER    NEWDPF axisangle0	0.433953 -0.692038 -0.576860 -63.039113
USER    NEWDPF quaternion0	0.226866 -0.361790 -0.301577 -0.852462
USER    NEWDPF dihe0	118.66 122.48 -25.67 -86.09 118.99 145.50 11.13 -108.98 30.68 14.85 17.96 -163.79 -38.61 -154.18 40.05 -50.57 148.65 -1.49 23.26 -41.45 171.12 17.14 -8.80 -6.06 
USER  
USER                              x       y       z    vdW   Elec        q     RMS 
ATOM      1  C   UNL d   1       3.343  17.899  -4.542 -0.12 +0.01    +0.194    16.555
ATOM      2  C   UNL d   1       2.646  18.233  -5.862 -0.08 -0.00    +0.194    16.555
ATOM      3  C   UNL d   1       1.963  19.601  -5.812 -0.02 -0.01    +0.194    16.555
ATOM      4  C   UNL d   1       2.893  20.721  -5.351 -0.00 +0.00    +0.194    16.555
ATOM      5  C   UNL d   1       3.696  20.386  -4.101 -0.03 +0.01    +0.194    16.555
ATOM      6  C   UNL d   1       4.328  18.992  -4.125 -0.11 +0.02    +0.194    16.555
ATOM      7  O   UNL d   1       4.095  16.697  -4.727 -0.43 -0.05    -0.278    16.555
ATOM      8  P   UNL d   1       3.464  15.321  -4.217 -0.28 +0.03    +0.473    16.555
ATOM      9  O   UNL d   1       2.018  15.381  -3.868 -0.25 -0.00    -0.228    16.555
ATOM     10  O   UNL d   1       3.784  14.290  -5.391 -0.37 +0.00    -0.303    16.555
ATOM     11  H   UNL d   1       3.672  14.732  -6.254 -0.01 -0.02    +0.222    16.555
ATOM     12  O   UNL d   1       4.436  14.823  -3.063 -0.45 -0.03    -0.303    16.555
ATOM     13  H   UNL d   1       4.306  15.304  -2.215 -0.31 -0.03    +0.222    16.555
ATOM     14  O   UNL d   1       3.619  18.246  -6.914 -0.06 -0.01    -0.278    16.555
ATOM     15  P   UNL d   1       3.872  16.859  -7.673 -0.19 +0.08    +0.473    16.555
ATOM     16  O   UNL d   1       5.063  16.063  -7.238 -0.35 -0.07    -0.228    16.555
ATOM     17  O   UNL d   1       2.502  16.066  -7.499 -0.26 +0.06    -0.303    16.555
ATOM     18  H   UNL d   1       2.644  15.213  -7.045 -0.42 -0.09    +0.222    16.555
ATOM     19  O   UNL d   1       3.828  17.238  -9.217 -0.46 -0.08    -0.303    16.555
ATOM     20  H   UNL d   1       3.445  16.520  -9.754 -0.49 -0.06    +0.222    16.555
ATOM     21  O   UNL d   1       4.735  18.701  -2.790 -0.14 -0.06    -0.278    16.555
ATOM     22  P   UNL d   1       3.634  18.458  -1.661 -0.22 +0.06    +0.473    16.555
ATOM     23  O   UNL d   1       2.823  17.208  -1.725 -0.29 -0.01    -0.228    16.555
ATOM     24  O   UNL d   1       4.489  18.631  -0.330 -0.30 -0.07    -0.303    16.555
ATOM     25  H   UNL d   1       4.963  19.501  -0.379 -0.05 +0.05    +0.222    16.555
ATOM     26  O   UNL d   1       2.811  19.833  -1.708 -0.08 -0.04    -0.303    16.555
ATOM     27  H   UNL d   1       3.404  20.553  -2.006 +0.05 +0.03    +0.222    16.555
ATOM     28  O   UNL d   1       1.590  19.943  -7.141 -0.03 +0.02    -0.278    16.555
ATOM     29  P   UNL d   1       0.094  20.377  -7.470 -0.02 -0.05    +0.473    16.555
ATOM     30  O   UNL d   1      -0.895  19.269  -7.536 -0.11 +0.06    -0.228    16.555
ATOM     31  O   UNL d   1      -0.131  21.485  -6.338 -0.00 +0.01    -0.303    16.555
ATOM     32  H   UNL d   1       0.505  22.222  -6.489 +0.01 -0.01    +0.222    16.555
ATOM     33  O   UNL d   1       0.282  21.252  -8.787 -0.02 +0.03    -0.303    16.555
ATOM     34  H   UNL d   1       0.995  21.918  -8.630 +0.01 -0.02    +0.222    16.555
ATOM     35  O   UNL d   1       4.763  21.330  -4.061 -0.02 -0.02    -0.278    16.555
ATOM     36  P   UNL d   1       4.941  22.292  -2.801 +0.00 +0.04    +0.473    16.555
ATOM     37  O   UNL d   1       5.889  23.434  -2.990 -0.00 -0.01    -0.228    16.555
ATOM     38  O   UNL d   1       3.438  22.731  -2.511 -0.00 -0.02    -0.303    16.555
ATOM     39  H   UNL d   1       2.976  22.879  -3.365 +0.01 +0.01    +0.222    16.555
ATOM     40  O   UNL d   1       5.272  21.264  -1.633 -0.06 -0.04    -0.303    16.555
ATOM     41  H   UNL d   1       4.890  20.376  -1.811 +0.06 +0.04    +0.222    16.555
ATOM     42  O   UNL d   1       2.064  21.843  -5.031 -0.00 -0.00    -0.278    16.555
ATOM     43  P   UNL d   1       2.229  23.188  -5.872 +0.00 -0.01    +0.473    16.555
ATOM     44  O   UNL d   1       2.346  23.063  -7.352 -0.00 +0.01    -0.228    16.555
ATOM     45  O   UNL d   1       0.985  24.056  -5.389 -0.00 +0.00    -0.303    16.555
ATOM     46  H   UNL d   1       0.143  23.574  -5.511 +0.00 -0.00    +0.222    16.555
ATOM     47  O   UNL d   1       3.447  23.930  -5.141 -0.00 -0.00    -0.303    16.555
ATOM     48  H   UNL d   1       3.914  23.291  -4.563 +0.00 +0.00    +0.222    16.555
TER
ENDMDL
MODEL       92
USER    Run = 92
USER    Cluster Rank = 10
USER    Number of conformations in this cluster = 1
USER  
USER    RMSD from reference structure       = 13.146 A
USER  
USER    Estimated Free Energy of Binding    =   +1.02 kcal/mol  [=(1)+(2)+(3)-(4)]
USER    
USER    (1) Final Intermolecular Energy     =   -6.14 kcal/mol
USER        vdW + Hbond + desolv Energy     =   -6.08 kcal/mol
USER        Electrostatic Energy            =   -0.07 kcal/mol
USER    (2) Final Total Internal Energy     =  -11.70 kcal/mol
USER    (3) Torsional Free Energy           =   +7.16 kcal/mol
USER    (4) Unbound System's Energy  [=(2)] =  -11.70 kcal/mol
USER    
USER    
USER  
USER    DPF = D:/Protein_go_brrr/autodock/final/AncMH_nat/IHP/dock.dpf
USER    NEWDPF move	IHP_ideal_opt.pdbqt
USER    NEWDPF about	0.035000 0.082000 -0.065000
USER    NEWDPF tran0	1.066172 0.085096 -14.538402
USER    NEWDPF axisangle0	0.369584 -0.237682 0.898285 -121.435877
USER    NEWDPF quaternion0	0.322359 -0.207312 0.783504 -0.489109
USER    NEWDPF dihe0	18.05 84.98 27.48 101.14 117.66 -159.43 -125.12 18.00 -8.75 29.98 -86.50 -67.25 16.63 -83.91 69.18 -159.41 168.36 -29.33 -137.56 -3.14 29.00 -21.53 178.61 172.64 
USER  
USER                              x       y       z    vdW   Elec        q     RMS 
ATOM      1  C   UNL d   1       1.712   0.758 -13.084 -0.27 -0.02    +0.194    13.146
ATOM      2  C   UNL d   1       2.715   0.555 -14.221 -0.22 -0.02    +0.194    13.146
ATOM      3  C   UNL d   1       2.520  -0.795 -14.914 -0.12 -0.01    +0.194    13.146
ATOM      4  C   UNL d   1       1.082  -1.038 -15.364 -0.11 -0.01    +0.194    13.146
ATOM      5  C   UNL d   1       0.038  -0.737 -14.296 -0.22 -0.01    +0.194    13.146
ATOM      6  C   UNL d   1       0.269   0.585 -13.560 -0.25 -0.01    +0.194    13.146
ATOM      7  O   UNL d   1       1.844   2.099 -12.607 -0.27 +0.01    -0.278    13.146
ATOM      8  P   UNL d   1       0.790   3.191 -13.105 -0.20 +0.00    +0.473    13.146
ATOM      9  O   UNL d   1      -0.599   3.001 -12.605 -0.35 -0.01    -0.228    13.146
ATOM     10  O   UNL d   1       1.433   4.581 -12.661 -0.33 -0.03    -0.303    13.146
ATOM     11  H   UNL d   1       0.734   5.172 -12.325 +0.11 +0.02    +0.222    13.146
ATOM     12  O   UNL d   1       0.957   3.236 -14.685 -0.06 +0.01    -0.303    13.146
ATOM     13  H   UNL d   1       1.091   2.346 -15.084 +0.08 -0.01    +0.222    13.146
ATOM     14  O   UNL d   1       2.540   1.596 -15.190 -0.06 +0.03    -0.278    13.146
ATOM     15  P   UNL d   1       3.854   2.402 -15.621 -0.07 -0.08    +0.473    13.146
ATOM     16  O   UNL d   1       4.946   2.500 -14.602 -0.24 +0.07    -0.228    13.146
ATOM     17  O   UNL d   1       4.326   1.686 -16.964 -0.01 +0.06    -0.303    13.146
ATOM     18  H   UNL d   1       4.646   0.781 -16.786 +0.04 -0.05    +0.222    13.146
ATOM     19  O   UNL d   1       3.306   3.789 -16.174 -0.05 +0.02    -0.303    13.146
ATOM     20  H   UNL d   1       2.582   4.136 -15.621 +0.06 +0.00    +0.222    13.146
ATOM     21  O   UNL d   1      -0.555   0.558 -12.396 -0.19 -0.00    -0.278    13.146
ATOM     22  P   UNL d   1      -2.134   0.738 -12.539 -0.18 +0.05    +0.473    13.146
ATOM     23  O   UNL d   1      -2.988  -0.485 -12.517 -0.35 -0.01    -0.228    13.146
ATOM     24  O   UNL d   1      -2.446   1.792 -11.389 -1.32 -0.08    -0.303    13.146
ATOM     25  H   UNL d   1      -1.833   2.562 -11.501 +0.10 +0.03    +0.222    13.146
ATOM     26  O   UNL d   1      -2.240   1.645 -13.857 -0.25 -0.01    -0.303    13.146
ATOM     27  H   UNL d   1      -1.454   1.489 -14.419 +0.08 -0.00    +0.222    13.146
ATOM     28  O   UNL d   1       3.292  -0.778 -16.108 -0.05 +0.03    -0.278    13.146
ATOM     29  P   UNL d   1       4.811  -1.257 -16.092 -0.04 -0.08    +0.473    13.146
ATOM     30  O   UNL d   1       5.479  -1.314 -17.417 -0.02 +0.04    -0.228    13.146
ATOM     31  O   UNL d   1       5.414  -0.236 -15.018 -0.16 +0.09    -0.303    13.146
ATOM     32  H   UNL d   1       5.482   0.654 -15.435 +0.08 -0.08    +0.222    13.146
ATOM     33  O   UNL d   1       4.723  -2.619 -15.271 -0.11 +0.02    -0.303    13.146
ATOM     34  H   UNL d   1       4.362  -3.326 -15.860 +0.06 -0.02    +0.222    13.146
ATOM     35  O   UNL d   1      -1.203  -0.621 -14.989 -0.12 +0.01    -0.278    13.146
ATOM     36  P   UNL d   1      -1.327   0.332 -16.262 -0.01 -0.03    +0.473    13.146
ATOM     37  O   UNL d   1      -2.660   0.983 -16.453 -0.03 +0.01    -0.228    13.146
ATOM     38  O   UNL d   1      -0.128   1.352 -16.024 -0.01 +0.02    -0.303    13.146
ATOM     39  H   UNL d   1      -0.402   2.020 -15.360 +0.07 -0.01    +0.222    13.146
ATOM     40  O   UNL d   1      -0.806  -0.604 -17.438 -0.01 +0.02    -0.303    13.146
ATOM     41  H   UNL d   1      -0.379  -1.419 -17.093 +0.03 -0.01    +0.222    13.146
ATOM     42  O   UNL d   1       0.975  -2.431 -15.676 -0.09 +0.02    -0.278    13.146
ATOM     43  P   UNL d   1       1.234  -3.502 -14.523 -0.17 -0.06    +0.473    13.146
ATOM     44  O   UNL d   1       1.206  -3.016 -13.115 -0.29 +0.03    -0.228    13.146
ATOM     45  O   UNL d   1       0.158  -4.629 -14.844 -0.20 +0.03    -0.303    13.146
ATOM     46  H   UNL d   1      -0.024  -5.185 -14.060 +0.08 -0.02    +0.222    13.146
ATOM     47  O   UNL d   1       2.596  -4.212 -14.982 -0.14 +0.06    -0.303    13.146
ATOM     48  H   UNL d   1       3.312  -3.972 -14.357 -0.30 -0.06    +0.222    13.146
TER
ENDMDL
MODEL       20
USER    Run = 20
USER    Cluster Rank = 11
USER    Number of conformations in this cluster = 1
USER  
USER    RMSD from reference structure       = 14.964 A
USER  
USER    Estimated Free Energy of Binding    =   +1.05 kcal/mol  [=(1)+(2)+(3)-(4)]
USER    
USER    (1) Final Intermolecular Energy     =   -6.11 kcal/mol
USER        vdW + Hbond + desolv Energy     =   -5.56 kcal/mol
USER        Electrostatic Energy            =   -0.54 kcal/mol
USER    (2) Final Total Internal Energy     =  -14.02 kcal/mol
USER    (3) Torsional Free Energy           =   +7.16 kcal/mol
USER    (4) Unbound System's Energy  [=(2)] =  -14.02 kcal/mol
USER    
USER    
USER  
USER    DPF = D:/Protein_go_brrr/autodock/final/AncMH_nat/IHP/dock.dpf
USER    NEWDPF move	IHP_ideal_opt.pdbqt
USER    NEWDPF about	0.035000 0.082000 -0.065000
USER    NEWDPF tran0	-17.603789 -1.600769 5.821791
USER    NEWDPF axisangle0	-0.500237 -0.434604 -0.748920 -142.315580
USER    NEWDPF quaternion0	-0.473431 -0.411314 -0.708787 -0.322963
USER    NEWDPF dihe0	87.95 106.91 35.73 93.07 -39.89 -179.41 -25.65 -38.05 130.21 -87.18 126.60 110.55 -42.49 -90.52 -147.36 -27.96 -148.86 58.03 -166.44 6.22 -19.49 10.98 -5.02 -20.55 
USER  
USER                              x       y       z    vdW   Elec        q     RMS 
ATOM      1  C   UNL d   1     -18.465  -0.581   6.918 -0.13 +0.11    +0.194    14.964
ATOM      2  C   UNL d   1     -18.868  -0.459   5.447 -0.10 +0.18    +0.194    14.964
ATOM      3  C   UNL d   1     -17.647  -0.440   4.525 -0.10 +0.18    +0.194    14.964
ATOM      4  C   UNL d   1     -16.691  -1.605   4.768 -0.07 +0.12    +0.194    14.964
ATOM      5  C   UNL d   1     -16.353  -1.835   6.235 -0.10 +0.08    +0.194    14.964
ATOM      6  C   UNL d   1     -17.567  -1.794   7.165 -0.09 +0.08    +0.194    14.964
ATOM      7  O   UNL d   1     -19.653  -0.766   7.692 -0.04 -0.13    -0.278    14.964
ATOM      8  P   UNL d   1     -20.421  -2.162   7.581 +0.01 +0.17    +0.473    14.964
ATOM      9  O   UNL d   1     -19.696  -3.224   6.831 -0.12 -0.09    -0.228    14.964
ATOM     10  O   UNL d   1     -20.723  -2.559   9.097 -0.01 -0.08    -0.303    14.964
ATOM     11  H   UNL d   1     -19.889  -2.794   9.545 +0.04 +0.06    +0.222    14.964
ATOM     12  O   UNL d   1     -21.869  -1.795   7.039 -0.00 -0.12    -0.303    14.964
ATOM     13  H   UNL d   1     -21.853  -1.375   6.150 +0.02 +0.11    +0.222    14.964
ATOM     14  O   UNL d   1     -19.689  -1.580   5.094 -0.03 -0.19    -0.278    14.964
ATOM     15  P   UNL d   1     -20.970  -1.270   4.184 -0.02 +0.38    +0.473    14.964
ATOM     16  O   UNL d   1     -21.666   0.033   4.425 -0.56 -0.33    -0.228    14.964
ATOM     17  O   UNL d   1     -20.430  -1.415   2.692 -0.01 -0.24    -0.303    14.964
ATOM     18  H   UNL d   1     -19.707  -0.782   2.517 +0.03 +0.23    +0.222    14.964
ATOM     19  O   UNL d   1     -21.878  -2.568   4.322 +0.00 -0.13    -0.303    14.964
ATOM     20  H   UNL d   1     -21.800  -2.970   5.207 +0.02 +0.08    +0.222    14.964
ATOM     21  O   UNL d   1     -17.065  -1.678   8.494 -0.10 -0.07    -0.278    14.964
ATOM     22  P   UNL d   1     -17.440  -2.784   9.582 -0.11 +0.09    +0.473    14.964
ATOM     23  O   UNL d   1     -18.225  -2.359  10.776 -0.08 -0.05    -0.228    14.964
ATOM     24  O   UNL d   1     -18.138  -3.898   8.685 -0.15 -0.06    -0.303    14.964
ATOM     25  H   UNL d   1     -19.114  -3.861   8.852 +0.03 +0.06    +0.222    14.964
ATOM     26  O   UNL d   1     -16.010  -3.446   9.879 -0.76 -0.04    -0.303    14.964
ATOM     27  H   UNL d   1     -15.317  -2.938   9.411 -0.38 -0.02    +0.222    14.964
ATOM     28  O   UNL d   1     -18.114  -0.605   3.193 -0.08 -0.30    -0.278    14.964
ATOM     29  P   UNL d   1     -17.801   0.498   2.088 -0.10 +0.75    +0.473    14.964
ATOM     30  O   UNL d   1     -18.202   1.886   2.437 -0.62 -0.57    -0.228    14.964
ATOM     31  O   UNL d   1     -16.241   0.229   1.857 -0.42 -0.56    -0.303    14.964
ATOM     32  H   UNL d   1     -16.047  -0.709   2.088 +0.06 +0.28    +0.222    14.964
ATOM     33  O   UNL d   1     -18.464  -0.136   0.786 -0.04 -0.34    -0.303    14.964
ATOM     34  H   UNL d   1     -19.139  -0.802   1.062 +0.03 +0.20    +0.222    14.964
ATOM     35  O   UNL d   1     -15.815  -3.154   6.306 -0.09 -0.09    -0.278    14.964
ATOM     36  P   UNL d   1     -14.383  -3.405   6.964 -0.16 +0.11    +0.473    14.964
ATOM     37  O   UNL d   1     -13.269  -3.669   6.001 -0.12 -0.06    -0.228    14.964
ATOM     38  O   UNL d   1     -14.192  -2.089   7.841 -0.26 -0.02    -0.303    14.964
ATOM     39  H   UNL d   1     -14.917  -2.036   8.501 -0.08 +0.01    +0.222    14.964
ATOM     40  O   UNL d   1     -14.695  -4.538   8.035 -0.35 -0.08    -0.303    14.964
ATOM     41  H   UNL d   1     -14.353  -4.301   8.926 -0.23 +0.04    +0.222    14.964
ATOM     42  O   UNL d   1     -15.467  -1.284   4.099 -0.10 -0.19    -0.278    14.964
ATOM     43  P   UNL d   1     -14.791  -2.381   3.159 -0.10 +0.39    +0.473    14.964
ATOM     44  O   UNL d   1     -14.932  -2.205   1.686 -0.17 -0.27    -0.228    14.964
ATOM     45  O   UNL d   1     -13.285  -2.399   3.671 -0.06 -0.18    -0.303    14.964
ATOM     46  H   UNL d   1     -13.237  -2.544   4.637 +0.11 +0.09    +0.222    14.964
ATOM     47  O   UNL d   1     -15.352  -3.763   3.747 -0.09 -0.21    -0.303    14.964
ATOM     48  H   UNL d   1     -14.944  -3.931   4.621 +0.12 +0.11    +0.222    14.964
TER
ENDMDL
MODEL       26
USER    Run = 26
USER    Cluster Rank = 12
USER    Number of conformations in this cluster = 1
USER  
USER    RMSD from reference structure       = 18.142 A
USER  
USER    Estimated Free Energy of Binding    =   +1.10 kcal/mol  [=(1)+(2)+(3)-(4)]
USER    
USER    (1) Final Intermolecular Energy     =   -6.06 kcal/mol
USER        vdW + Hbond + desolv Energy     =   -5.87 kcal/mol
USER        Electrostatic Energy            =   -0.20 kcal/mol
USER    (2) Final Total Internal Energy     =  -14.94 kcal/mol
USER    (3) Torsional Free Energy           =   +7.16 kcal/mol
USER    (4) Unbound System's Energy  [=(2)] =  -14.94 kcal/mol
USER    
USER    
USER  
USER    DPF = D:/Protein_go_brrr/autodock/final/AncMH_nat/IHP/dock.dpf
USER    NEWDPF move	IHP_ideal_opt.pdbqt
USER    NEWDPF about	0.035000 0.082000 -0.065000
USER    NEWDPF tran0	-16.245223 0.330845 13.161395
USER    NEWDPF axisangle0	-0.856273 -0.347726 -0.381947 -176.406299
USER    NEWDPF quaternion0	-0.855852 -0.347555 -0.381759 -0.031356
USER    NEWDPF dihe0	108.13 121.66 50.95 83.62 95.46 113.80 24.27 -68.54 29.73 61.97 -4.91 27.40 -63.60 140.69 180.00 90.56 -32.84 -124.19 -154.58 -14.78 4.66 -14.30 176.70 -38.29 
USER  
USER                              x       y       z    vdW   Elec        q     RMS 
ATOM      1  C   UNL d   1     -15.710   1.970  13.261 -0.15 -0.01    +0.194    18.142
ATOM      2  C   UNL d   1     -17.023   1.748  12.508 -0.23 +0.01    +0.194    18.142
ATOM      3  C   UNL d   1     -16.947   0.533  11.581 -0.19 +0.02    +0.194    18.142
ATOM      4  C   UNL d   1     -16.464  -0.732  12.286 -0.15 +0.02    +0.194    18.142
ATOM      5  C   UNL d   1     -15.220  -0.530  13.142 -0.28 +0.01    +0.194    18.142
ATOM      6  C   UNL d   1     -15.271   0.720  14.024 -0.23 +0.00    +0.194    18.142
ATOM      7  O   UNL d   1     -15.917   3.006  14.224 -0.23 -0.04    -0.278    18.142
ATOM      8  P   UNL d   1     -16.573   2.617  15.628 -0.09 +0.12    +0.473    18.142
ATOM      9  O   UNL d   1     -17.161   1.252  15.693 -0.04 -0.04    -0.228    18.142
ATOM     10  O   UNL d   1     -15.396   2.845  16.680 -0.07 -0.05    -0.303    18.142
ATOM     11  H   UNL d   1     -14.587   2.398  16.368 +0.08 +0.01    +0.222    18.142
ATOM     12  O   UNL d   1     -17.560   3.815  15.969 -0.13 -0.19    -0.303    18.142
ATOM     13  H   UNL d   1     -18.396   3.784  15.451 +0.03 +0.16    +0.222    18.142
ATOM     14  O   UNL d   1     -18.075   1.532  13.458 -0.06 -0.05    -0.278    18.142
ATOM     15  P   UNL d   1     -19.253   2.616  13.480 -0.06 +0.14    +0.473    18.142
ATOM     16  O   UNL d   1     -20.141   2.619  14.685 -0.03 -0.08    -0.228    18.142
ATOM     17  O   UNL d   1     -18.506   4.006  13.260 -0.18 -0.16    -0.303    18.142
ATOM     18  H   UNL d   1     -17.705   4.066  13.816 +0.06 +0.14    +0.222    18.142
ATOM     19  O   UNL d   1     -19.992   2.426  12.084 -0.05 -0.07    -0.303    18.142
ATOM     20  H   UNL d   1     -19.854   1.532  11.722 +0.05 +0.04    +0.222    18.142
ATOM     21  O   UNL d   1     -13.942   0.955  14.483 -0.27 +0.01    -0.278    18.142
ATOM     22  P   UNL d   1     -13.504   0.448  15.931 -0.19 +0.00    +0.473    18.142
ATOM     23  O   UNL d   1     -12.460   1.223  16.662 -0.25 +0.01    -0.228    18.142
ATOM     24  O   UNL d   1     -14.905   0.346  16.678 -0.05 -0.02    -0.303    18.142
ATOM     25  H   UNL d   1     -15.601   0.144  16.002 +0.07 +0.02    +0.222    18.142
ATOM     26  O   UNL d   1     -13.166  -1.093  15.648 -0.35 -0.01    -0.303    18.142
ATOM     27  H   UNL d   1     -13.969  -1.542  15.312 -0.01 -0.01    +0.222    18.142
ATOM     28  O   UNL d   1     -18.269   0.242  11.147 -0.06 -0.05    -0.278    18.142
ATOM     29  P   UNL d   1     -18.795   0.791   9.747 -0.10 +0.12    +0.473    18.142
ATOM     30  O   UNL d   1     -18.098   0.258   8.548 -0.20 -0.09    -0.228    18.142
ATOM     31  O   UNL d   1     -20.355   0.461   9.886 -0.02 -0.09    -0.303    18.142
ATOM     32  H   UNL d   1     -20.762   1.124  10.491 +0.04 +0.06    +0.222    18.142
ATOM     33  O   UNL d   1     -18.747   2.367   9.966 +0.11 -0.01    -0.303    18.142
ATOM     34  H   UNL d   1     -18.564   2.553  10.920 -0.28 -0.01    +0.222    18.142
ATOM     35  O   UNL d   1     -15.162  -1.657  14.013 -0.22 -0.01    -0.278    18.142
ATOM     36  P   UNL d   1     -16.426  -2.051  14.903 -0.06 +0.11    +0.473    18.142
ATOM     37  O   UNL d   1     -17.701  -1.350  14.559 -0.02 -0.05    -0.228    18.142
ATOM     38  O   UNL d   1     -16.477  -3.632  14.715 -0.18 -0.16    -0.303    18.142
ATOM     39  H   UNL d   1     -16.277  -3.850  13.779 +0.06 +0.10    +0.222    18.142
ATOM     40  O   UNL d   1     -15.873  -1.860  16.382 -0.06 -0.06    -0.303    18.142
ATOM     41  H   UNL d   1     -15.084  -1.275  16.403 +0.07 +0.03    +0.222    18.142
ATOM     42  O   UNL d   1     -16.123  -1.672  11.262 -0.17 -0.01    -0.278    18.142
ATOM     43  P   UNL d   1     -16.294  -3.230  11.558 -0.04 +0.10    +0.473    18.142
ATOM     44  O   UNL d   1     -15.242  -3.894  12.378 -0.43 -0.05    -0.228    18.142
ATOM     45  O   UNL d   1     -17.754  -3.308  12.187 -0.12 -0.09    -0.303    18.142
ATOM     46  H   UNL d   1     -17.757  -3.021  13.122 +0.06 +0.07    +0.222    18.142
ATOM     47  O   UNL d   1     -16.533  -3.856  10.102 -0.79 -0.07    -0.303    18.142
ATOM     48  H   UNL d   1     -17.049  -4.684  10.187 -0.47 -0.02    +0.222    18.142
TER
ENDMDL
MODEL       10
USER    Run = 10
USER    Cluster Rank = 13
USER    Number of conformations in this cluster = 1
USER  
USER    RMSD from reference structure       = 18.909 A
USER  
USER    Estimated Free Energy of Binding    =   +1.39 kcal/mol  [=(1)+(2)+(3)-(4)]
USER    
USER    (1) Final Intermolecular Energy     =   -5.77 kcal/mol
USER        vdW + Hbond + desolv Energy     =   -5.43 kcal/mol
USER        Electrostatic Energy            =   -0.34 kcal/mol
USER    (2) Final Total Internal Energy     =  -15.35 kcal/mol
USER    (3) Torsional Free Energy           =   +7.16 kcal/mol
USER    (4) Unbound System's Energy  [=(2)] =  -15.35 kcal/mol
USER    
USER    
USER  
USER    DPF = D:/Protein_go_brrr/autodock/final/AncMH_nat/IHP/dock.dpf
USER    NEWDPF move	IHP_ideal_opt.pdbqt
USER    NEWDPF about	0.035000 0.082000 -0.065000
USER    NEWDPF tran0	-9.276515 7.697167 17.358362
USER    NEWDPF axisangle0	0.921903 0.078098 0.379468 -145.101831
USER    NEWDPF quaternion0	0.879480 0.074504 0.362006 -0.299858
USER    NEWDPF dihe0	123.32 102.51 54.19 57.64 29.87 -130.79 -133.07 29.79 71.13 130.64 -31.91 179.50 148.57 156.85 -13.36 65.15 67.97 -152.37 7.43 -17.96 -30.22 157.89 28.70 -60.02 
USER  
USER                              x       y       z    vdW   Elec        q     RMS 
ATOM      1  C   UNL d   1      -7.750   8.477  17.143 -0.22 -0.12    +0.194    18.909
ATOM      2  C   UNL d   1      -8.840   8.868  16.142 -0.27 -0.06    +0.194    18.909
ATOM      3  C   UNL d   1      -9.624   7.648  15.653 -0.39 -0.06    +0.194    18.909
ATOM      4  C   UNL d   1     -10.167   6.787  16.791 -0.26 -0.06    +0.194    18.909
ATOM      5  C   UNL d   1      -9.142   6.468  17.872 -0.16 -0.11    +0.194    18.909
ATOM      6  C   UNL d   1      -8.315   7.677  18.317 -0.12 -0.13    +0.194    18.909
ATOM      7  O   UNL d   1      -7.185   9.677  17.677 -0.10 +0.12    -0.278    18.909
ATOM      8  P   UNL d   1      -5.652   9.999  17.363 -0.10 -0.22    +0.473    18.909
ATOM      9  O   UNL d   1      -5.007  10.963  18.295 -0.03 +0.06    -0.228    18.909
ATOM     10  O   UNL d   1      -4.950   8.567  17.355 -0.20 +0.34    -0.303    18.909
ATOM     11  H   UNL d   1      -5.376   7.990  18.017 -0.13 -0.35    +0.222    18.909
ATOM     12  O   UNL d   1      -5.620  10.393  15.824 -0.12 +0.09    -0.303    18.909
ATOM     13  H   UNL d   1      -6.211  11.150  15.608 +0.09 -0.05    +0.222    18.909
ATOM     14  O   UNL d   1      -9.752   9.774  16.775 -0.09 +0.06    -0.278    18.909
ATOM     15  P   UNL d   1      -9.784  11.271  16.208 -0.12 -0.09    +0.473    18.909
ATOM     16  O   UNL d   1     -10.081  12.357  17.194 -0.06 +0.05    -0.228    18.909
ATOM     17  O   UNL d   1      -8.366  11.448  15.503 -0.23 +0.06    -0.303    18.909
ATOM     18  H   UNL d   1      -7.654  11.051  16.040 +0.08 -0.05    +0.222    18.909
ATOM     19  O   UNL d   1     -10.758  11.199  14.953 -0.16 +0.05    -0.303    18.909
ATOM     20  H   UNL d   1     -11.078  10.291  14.796 +0.11 -0.03    +0.222    18.909
ATOM     21  O   UNL d   1      -7.203   7.168  19.049 +0.11 +0.37    -0.278    18.909
ATOM     22  P   UNL d   1      -6.820   7.813  20.457 -0.03 -0.28    +0.473    18.909
ATOM     23  O   UNL d   1      -7.837   8.660  21.145 -0.01 +0.07    -0.228    18.909
ATOM     24  O   UNL d   1      -6.346   6.537  21.282 -0.04 +0.18    -0.303    18.909
ATOM     25  H   UNL d   1      -6.914   5.770  21.017 +0.00 -0.15    +0.222    18.909
ATOM     26  O   UNL d   1      -5.424   8.527  20.119 -0.04 +0.18    -0.303    18.909
ATOM     27  H   UNL d   1      -5.549   9.134  19.362 +0.03 -0.12    +0.222    18.909
ATOM     28  O   UNL d   1     -10.770   8.126  14.961 -0.32 +0.05    -0.278    18.909
ATOM     29  P   UNL d   1     -12.143   8.351  15.737 -0.15 -0.02    +0.473    18.909
ATOM     30  O   UNL d   1     -12.020   8.920  17.104 -0.05 +0.01    -0.228    18.909
ATOM     31  O   UNL d   1     -12.936   9.224  14.655 -0.22 -0.00    -0.303    18.909
ATOM     32  H   UNL d   1     -12.643  10.161  14.732 +0.11 -0.01    +0.222    18.909
ATOM     33  O   UNL d   1     -12.835   6.922  15.612 -0.13 -0.01    -0.303    18.909
ATOM     34  H   UNL d   1     -12.553   6.361  16.375 +0.05 -0.01    +0.222    18.909
ATOM     35  O   UNL d   1      -9.894   6.035  19.003 -0.05 +0.09    -0.278    18.909
ATOM     36  P   UNL d   1      -9.202   5.161  20.144 -0.02 -0.18    +0.473    18.909
ATOM     37  O   UNL d   1      -9.051   5.835  21.470 -0.01 +0.06    -0.228    18.909
ATOM     38  O   UNL d   1     -10.127   3.866  20.169 -0.01 +0.07    -0.303    18.909
ATOM     39  H   UNL d   1     -10.828   3.958  19.488 +0.05 -0.04    +0.222    18.909
ATOM     40  O   UNL d   1      -7.869   4.666  19.430 -0.05 +0.29    -0.303    18.909
ATOM     41  H   UNL d   1      -7.131   5.303  19.556 -0.52 -0.36    +0.222    18.909
ATOM     42  O   UNL d   1     -10.569   5.541  16.212 -0.31 +0.09    -0.278    18.909
ATOM     43  P   UNL d   1     -11.379   4.499  17.108 -0.17 -0.09    +0.473    18.909
ATOM     44  O   UNL d   1     -10.652   3.286  17.576 -0.57 +0.02    -0.228    18.909
ATOM     45  O   UNL d   1     -11.941   5.414  18.283 -0.04 +0.03    -0.303    18.909
ATOM     46  H   UNL d   1     -11.446   5.273  19.115 +0.05 -0.03    +0.222    18.909
ATOM     47  O   UNL d   1     -12.702   4.225  16.247 -0.13 +0.07    -0.303    18.909
ATOM     48  H   UNL d   1     -12.677   4.771  15.434 -0.47 -0.12    +0.222    18.909
TER
ENDMDL
MODEL       30
USER    Run = 30
USER    Cluster Rank = 14
USER    Number of conformations in this cluster = 1
USER  
USER    RMSD from reference structure       = 12.662 A
USER  
USER    Estimated Free Energy of Binding    =   +1.42 kcal/mol  [=(1)+(2)+(3)-(4)]
USER    
USER    (1) Final Intermolecular Energy     =   -5.74 kcal/mol
USER        vdW + Hbond + desolv Energy     =   -5.21 kcal/mol
USER        Electrostatic Energy            =   -0.53 kcal/mol
USER    (2) Final Total Internal Energy     =  -13.84 kcal/mol
USER    (3) Torsional Free Energy           =   +7.16 kcal/mol
USER    (4) Unbound System's Energy  [=(2)] =  -13.84 kcal/mol
USER    
USER    
USER  
USER    DPF = D:/Protein_go_brrr/autodock/final/AncMH_nat/IHP/dock.dpf
USER    NEWDPF move	IHP_ideal_opt.pdbqt
USER    NEWDPF about	0.035000 0.082000 -0.065000
USER    NEWDPF tran0	7.544793 -13.844440 -3.106976
USER    NEWDPF axisangle0	0.831750 0.282445 0.477929 -81.582289
USER    NEWDPF quaternion0	0.543386 0.184522 0.312233 -0.757096
USER    NEWDPF dihe0	180.00 -172.42 85.39 121.48 32.92 -124.34 -101.62 43.51 -15.70 134.54 156.34 154.27 110.47 -22.18 2.97 16.02 -41.73 172.80 -1.09 -36.34 142.06 -179.74 -41.96 -2.73 
USER  
USER                              x       y       z    vdW   Elec        q     RMS 
ATOM      1  C   UNL d   1       9.199 -13.751  -3.595 -0.15 -0.03    +0.194    12.662
ATOM      2  C   UNL d   1       8.270 -14.503  -4.550 -0.06 -0.02    +0.194    12.662
ATOM      3  C   UNL d   1       7.310 -15.426  -3.797 -0.04 -0.01    +0.194    12.662
ATOM      4  C   UNL d   1       6.543 -14.716  -2.684 -0.10 +0.01    +0.194    12.662
ATOM      5  C   UNL d   1       7.416 -13.861  -1.775 -0.16 +0.01    +0.194    12.662
ATOM      6  C   UNL d   1       8.419 -12.983  -2.527 -0.21 -0.00    +0.194    12.662
ATOM      7  O   UNL d   1       9.938 -12.791  -4.355 -0.16 +0.08    -0.278    12.662
ATOM      8  P   UNL d   1      11.534 -12.846  -4.300 -0.11 -0.14    +0.473    12.662
ATOM      9  O   UNL d   1      12.228 -12.124  -5.400 -0.14 +0.07    -0.228    12.662
ATOM     10  O   UNL d   1      11.891 -12.277  -2.852 -0.14 +0.13    -0.303    12.662
ATOM     11  H   UNL d   1      11.120 -12.376  -2.263 -0.43 -0.13    +0.222    12.662
ATOM     12  O   UNL d   1      11.890 -14.387  -4.149 -0.02 +0.05    -0.303    12.662
ATOM     13  H   UNL d   1      12.691 -14.649  -4.655 +0.02 -0.03    +0.222    12.662
ATOM     14  O   UNL d   1       7.499 -13.552  -5.296 -0.09 +0.02    -0.278    12.662
ATOM     15  P   UNL d   1       8.065 -13.146  -6.738 -0.03 -0.07    +0.473    12.662
ATOM     16  O   UNL d   1       8.790 -14.211  -7.500 -0.01 +0.03    -0.228    12.662
ATOM     17  O   UNL d   1       6.788 -12.592  -7.513 -0.04 +0.03    -0.303    12.662
ATOM     18  H   UNL d   1       5.968 -12.778  -7.017 +0.08 -0.02    +0.222    12.662
ATOM     19  O   UNL d   1       8.886 -11.808  -6.479 -0.06 +0.11    -0.303    12.662
ATOM     20  H   UNL d   1       9.631 -11.955  -5.867 -0.42 -0.11    +0.222    12.662
ATOM     21  O   UNL d   1       9.367 -12.525  -1.565 -0.20 +0.07    -0.278    12.662
ATOM     22  P   UNL d   1       9.881 -13.515  -0.425 -0.11 -0.11    +0.473    12.662
ATOM     23  O   UNL d   1      10.005 -14.965  -0.754 -0.04 +0.03    -0.228    12.662
ATOM     24  O   UNL d   1      11.237 -12.815   0.027 -0.11 +0.12    -0.303    12.662
ATOM     25  H   UNL d   1      11.639 -12.380  -0.768 -0.43 -0.14    +0.222    12.662
ATOM     26  O   UNL d   1       8.900 -13.151   0.789 -0.16 +0.07    -0.303    12.662
ATOM     27  H   UNL d   1       7.977 -13.344   0.526 +0.08 -0.03    +0.222    12.662
ATOM     28  O   UNL d   1       6.320 -15.859  -4.720 -0.02 +0.04    -0.278    12.662
ATOM     29  P   UNL d   1       5.244 -14.831  -5.289 -0.07 -0.14    +0.473    12.662
ATOM     30  O   UNL d   1       5.214 -13.503  -4.624 -0.12 -0.05    -0.228    12.662
ATOM     31  O   UNL d   1       5.628 -14.857  -6.842 -0.03 +0.07    -0.303    12.662
ATOM     32  H   UNL d   1       6.599 -14.719  -6.928 +0.04 -0.03    +0.222    12.662
ATOM     33  O   UNL d   1       3.905 -15.690  -5.243 -0.08 +0.27    -0.303    12.662
ATOM     34  H   UNL d   1       3.368 -15.407  -4.463 -0.41 -0.38    +0.222    12.662
ATOM     35  O   UNL d   1       6.523 -12.985  -1.091 -0.12 -0.08    -0.278    12.662
ATOM     36  P   UNL d   1       5.854 -13.433   0.287 -0.10 +0.09    +0.473    12.662
ATOM     37  O   UNL d   1       6.280 -14.770   0.806 -0.04 -0.02    -0.228    12.662
ATOM     38  O   UNL d   1       6.223 -12.213   1.241 -0.19 +0.01    -0.303    12.662
ATOM     39  H   UNL d   1       7.115 -12.363   1.623 +0.09 -0.07    +0.222    12.662
ATOM     40  O   UNL d   1       4.304 -13.234  -0.007 -0.30 -0.15    -0.303    12.662
ATOM     41  H   UNL d   1       3.886 -14.061  -0.337 +0.07 +0.09    +0.222    12.662
ATOM     42  O   UNL d   1       5.958 -15.736  -1.867 -0.03 -0.01    -0.278    12.662
ATOM     43  P   UNL d   1       4.369 -15.876  -1.827 -0.06 -0.02    +0.473    12.662
ATOM     44  O   UNL d   1       3.742 -16.204  -0.516 -0.05 -0.04    -0.228    12.662
ATOM     45  O   UNL d   1       3.882 -14.497  -2.455 -0.06 -0.00    -0.303    12.662
ATOM     46  H   UNL d   1       3.885 -14.528  -3.432 -0.47 -0.17    +0.222    12.662
ATOM     47  O   UNL d   1       4.061 -16.903  -3.017 -0.05 +0.08    -0.303    12.662
ATOM     48  H   UNL d   1       4.772 -16.842  -3.689 +0.02 -0.06    +0.222    12.662
TER
ENDMDL
MODEL       56
USER    Run = 56
USER    Cluster Rank = 15
USER    Number of conformations in this cluster = 1
USER  
USER    RMSD from reference structure       = 10.933 A
USER  
USER    Estimated Free Energy of Binding    =   +1.42 kcal/mol  [=(1)+(2)+(3)-(4)]
USER    
USER    (1) Final Intermolecular Energy     =   -5.74 kcal/mol
USER        vdW + Hbond + desolv Energy     =   -5.25 kcal/mol
USER        Electrostatic Energy            =   -0.49 kcal/mol
USER    (2) Final Total Internal Energy     =  -13.40 kcal/mol
USER    (3) Torsional Free Energy           =   +7.16 kcal/mol
USER    (4) Unbound System's Energy  [=(2)] =  -13.40 kcal/mol
USER    
USER    
USER  
USER    DPF = D:/Protein_go_brrr/autodock/final/AncMH_nat/IHP/dock.dpf
USER    NEWDPF move	IHP_ideal_opt.pdbqt
USER    NEWDPF about	0.035000 0.082000 -0.065000
USER    NEWDPF tran0	9.624406 7.937575 6.638705
USER    NEWDPF axisangle0	0.908863 0.260763 -0.325530 176.103281
USER    NEWDPF quaternion0	0.908338 0.260612 -0.325342 0.033999
USER    NEWDPF dihe0	141.60 128.46 180.00 -35.29 1.46 161.73 -36.22 -3.32 135.02 101.07 125.36 -89.06 106.72 80.86 -144.85 172.92 -10.76 -11.54 29.54 -37.23 -52.73 -29.96 146.63 132.19 
USER  
USER                              x       y       z    vdW   Elec        q     RMS 
ATOM      1  C   UNL d   1       9.560   9.239   5.504 -0.21 -0.05    +0.194    10.933
ATOM      2  C   UNL d   1       8.607   9.353   6.696 -0.13 -0.03    +0.194    10.933
ATOM      3  C   UNL d   1       7.925   8.019   7.005 -0.14 -0.04    +0.194    10.933
ATOM      4  C   UNL d   1       8.908   6.862   7.161 -0.11 -0.08    +0.194    10.933
ATOM      5  C   UNL d   1       9.950   6.779   6.053 -0.16 -0.11    +0.194    10.933
ATOM      6  C   UNL d   1      10.588   8.124   5.701 -0.17 -0.09    +0.194    10.933
ATOM      7  O   UNL d   1      10.280  10.468   5.389 -0.08 +0.04    -0.278    10.933
ATOM      8  P   UNL d   1       9.700  11.600   4.423 -0.16 -0.03    +0.473    10.933
ATOM      9  O   UNL d   1      10.172  12.981   4.715 -0.11 -0.00    -0.228    10.933
ATOM     10  O   UNL d   1      10.092  11.099   2.960 -0.21 +0.00    -0.303    10.933
ATOM     11  H   UNL d   1      10.779  10.409   3.025 +0.11 -0.02    +0.222    10.933
ATOM     12  O   UNL d   1       8.126  11.388   4.437 -0.15 +0.04    -0.303    10.933
ATOM     13  H   UNL d   1       7.686  11.816   5.206 -0.46 -0.06    +0.222    10.933
ATOM     14  O   UNL d   1       9.350   9.764   7.850 -0.02 +0.04    -0.278    10.933
ATOM     15  P   UNL d   1       9.384  11.335   8.157 -0.01 -0.03    +0.473    10.933
ATOM     16  O   UNL d   1       9.190  11.745   9.583 -0.00 +0.01    -0.228    10.933
ATOM     17  O   UNL d   1      10.780  11.817   7.560 -0.01 +0.02    -0.303    10.933
ATOM     18  H   UNL d   1      10.709  12.002   6.604 +0.04 -0.02    +0.222    10.933
ATOM     19  O   UNL d   1       8.358  11.965   7.117 -0.07 +0.01    -0.303    10.933
ATOM     20  H   UNL d   1       8.808  12.282   6.313 +0.04 -0.01    +0.222    10.933
ATOM     21  O   UNL d   1      11.259   7.949   4.455 -0.14 +0.23    -0.278    10.933
ATOM     22  P   UNL d   1      12.486   8.896   4.076 -0.12 -0.26    +0.473    10.933
ATOM     23  O   UNL d   1      12.330   9.821   2.917 -0.21 +0.05    -0.228    10.933
ATOM     24  O   UNL d   1      12.786   9.612   5.466 -0.03 +0.10    -0.303    10.933
ATOM     25  H   UNL d   1      11.999  10.166   5.702 +0.05 -0.05    +0.222    10.933
ATOM     26  O   UNL d   1      13.691   7.843   3.979 -0.06 +0.32    -0.303    10.933
ATOM     27  H   UNL d   1      13.403   6.988   4.359 -0.39 -0.50    +0.222    10.933
ATOM     28  O   UNL d   1       7.288   8.147   8.270 -0.05 +0.04    -0.278    10.933
ATOM     29  P   UNL d   1       5.872   8.865   8.390 -0.08 +0.02    +0.473    10.933
ATOM     30  O   UNL d   1       4.970   8.333   9.444 -0.17 -0.02    -0.228    10.933
ATOM     31  O   UNL d   1       6.343  10.388   8.537 -0.37 -0.04    -0.303    10.933
ATOM     32  H   UNL d   1       7.287  10.452   8.266 +0.05 +0.01    +0.222    10.933
ATOM     33  O   UNL d   1       5.340   8.805   6.890 -0.19 -0.05    -0.303    10.933
ATOM     34  H   UNL d   1       5.340   7.865   6.587 +0.14 -0.01    +0.222    10.933
ATOM     35  O   UNL d   1      10.988   5.942   6.559 -0.15 +0.23    -0.278    10.933
ATOM     36  P   UNL d   1      12.120   6.546   7.506 -0.04 -0.27    +0.473    10.933
ATOM     37  O   UNL d   1      11.678   7.648   8.417 -0.01 +0.07    -0.228    10.933
ATOM     38  O   UNL d   1      12.644   5.245   8.260 -0.03 +0.15    -0.303    10.933
ATOM     39  H   UNL d   1      13.062   4.643   7.607 +0.04 -0.14    +0.222    10.933
ATOM     40  O   UNL d   1      13.281   6.885   6.474 -0.08 +0.24    -0.303    10.933
ATOM     41  H   UNL d   1      12.985   7.523   5.789 +0.01 -0.20    +0.222    10.933
ATOM     42  O   UNL d   1       8.141   5.655   7.109 -0.13 +0.16    -0.278    10.933
ATOM     43  P   UNL d   1       6.698   5.687   6.428 -0.22 -0.23    +0.473    10.933
ATOM     44  O   UNL d   1       6.507   6.601   5.267 -0.41 +0.08    -0.228    10.933
ATOM     45  O   UNL d   1       6.433   4.153   6.100 -0.34 +0.22    -0.303    10.933
ATOM     46  H   UNL d   1       6.561   3.590   6.890 -0.25 -0.33    +0.222    10.933
ATOM     47  O   UNL d   1       5.713   5.930   7.669 -0.18 +0.15    -0.303    10.933
ATOM     48  H   UNL d   1       5.592   6.893   7.802 +0.13 -0.06    +0.222    10.933
TER
ENDMDL
MODEL       33
USER    Run = 33
USER    Cluster Rank = 16
USER    Number of conformations in this cluster = 1
USER  
USER    RMSD from reference structure       = 13.823 A
USER  
USER    Estimated Free Energy of Binding    =   +1.45 kcal/mol  [=(1)+(2)+(3)-(4)]
USER    
USER    (1) Final Intermolecular Energy     =   -5.71 kcal/mol
USER        vdW + Hbond + desolv Energy     =   -5.38 kcal/mol
USER        Electrostatic Energy            =   -0.32 kcal/mol
USER    (2) Final Total Internal Energy     =  -14.95 kcal/mol
USER    (3) Torsional Free Energy           =   +7.16 kcal/mol
USER    (4) Unbound System's Energy  [=(2)] =  -14.95 kcal/mol
USER    
USER    
USER  
USER    DPF = D:/Protein_go_brrr/autodock/final/AncMH_nat/IHP/dock.dpf
USER    NEWDPF move	IHP_ideal_opt.pdbqt
USER    NEWDPF about	0.035000 0.082000 -0.065000
USER    NEWDPF tran0	-6.937818 -7.744905 -12.905364
USER    NEWDPF axisangle0	0.987955 -0.152989 -0.023212 -95.546172
USER    NEWDPF quaternion0	0.731570 -0.113287 -0.017188 -0.672069
USER    NEWDPF dihe0	66.66 96.78 88.40 168.02 168.81 -168.60 -86.95 -50.98 -42.93 -16.12 174.00 -99.31 -77.80 58.80 78.55 42.18 170.86 77.39 -145.83 -3.22 22.76 -12.32 -175.91 27.46 
USER  
USER                              x       y       z    vdW   Elec        q     RMS 
ATOM      1  C   UNL d   1      -5.731  -8.693 -13.699 -0.03 +0.01    +0.194    13.823
ATOM      2  C   UNL d   1      -6.766  -8.039 -14.616 -0.01 +0.02    +0.194    13.823
ATOM      3  C   UNL d   1      -8.183  -8.161 -14.049 -0.01 +0.04    +0.194    13.823
ATOM      4  C   UNL d   1      -8.298  -7.672 -12.607 -0.05 +0.10    +0.194    13.823
ATOM      5  C   UNL d   1      -7.215  -8.210 -11.681 -0.08 +0.10    +0.194    13.823
ATOM      6  C   UNL d   1      -5.805  -8.145 -12.273 -0.08 +0.03    +0.194    13.823
ATOM      7  O   UNL d   1      -4.430  -8.388 -14.206 -0.04 +0.01    -0.278    13.823
ATOM      8  P   UNL d   1      -3.687  -7.085 -13.656 -0.17 -0.03    +0.473    13.823
ATOM      9  O   UNL d   1      -4.587  -6.008 -13.161 -0.13 +0.00    -0.228    13.823
ATOM     10  O   UNL d   1      -2.702  -7.646 -12.534 -0.26 +0.08    -0.303    13.823
ATOM     11  H   UNL d   1      -3.152  -7.634 -11.669 -0.20 -0.06    +0.222    13.823
ATOM     12  O   UNL d   1      -2.676  -6.669 -14.809 -0.14 +0.02    -0.303    13.823
ATOM     13  H   UNL d   1      -3.106  -6.595 -15.691 +0.04 -0.01    +0.222    13.823
ATOM     14  O   UNL d   1      -6.450  -6.649 -14.760 -0.05 -0.02    -0.278    13.823
ATOM     15  P   UNL d   1      -6.356  -6.087 -16.256 -0.03 +0.02    +0.473    13.823
ATOM     16  O   UNL d   1      -7.385  -5.079 -16.662 -0.02 -0.01    -0.228    13.823
ATOM     17  O   UNL d   1      -4.868  -5.531 -16.369 -0.06 -0.01    -0.303    13.823
ATOM     18  H   UNL d   1      -4.419  -5.550 -15.502 +0.03 +0.01    +0.222    13.823
ATOM     19  O   UNL d   1      -6.279  -7.391 -17.165 -0.00 -0.00    -0.303    13.823
ATOM     20  H   UNL d   1      -7.106  -7.534 -17.661 +0.00 +0.00    +0.222    13.823
ATOM     21  O   UNL d   1      -4.978  -8.977 -11.462 -0.08 -0.02    -0.278    13.823
ATOM     22  P   UNL d   1      -4.430  -8.429 -10.068 -0.24 +0.06    +0.473    13.823
ATOM     23  O   UNL d   1      -5.000  -8.999  -8.813 -0.77 -0.08    -0.228    13.823
ATOM     24  O   UNL d   1      -2.859  -8.625 -10.237 -0.49 +0.03    -0.303    13.823
ATOM     25  H   UNL d   1      -2.458  -7.741 -10.438 -0.41 -0.09    +0.222    13.823
ATOM     26  O   UNL d   1      -4.588  -6.844 -10.256 -0.29 -0.03    -0.303    13.823
ATOM     27  H   UNL d   1      -5.202  -6.668 -10.997 +0.10 +0.02    +0.222    13.823
ATOM     28  O   UNL d   1      -9.023  -7.300 -14.808 +0.00 -0.04    -0.278    13.823
ATOM     29  P   UNL d   1      -9.913  -7.884 -15.992 +0.01 +0.04    +0.473    13.823
ATOM     30  O   UNL d   1     -10.091  -9.359 -15.993 +0.00 -0.02    -0.228    13.823
ATOM     31  O   UNL d   1     -11.231  -6.993 -15.816 +0.00 -0.03    -0.303    13.823
ATOM     32  H   UNL d   1     -11.373  -6.829 -14.855 +0.00 +0.03    +0.222    13.823
ATOM     33  O   UNL d   1      -9.224  -7.242 -17.276 +0.00 -0.01    -0.303    13.823
ATOM     34  H   UNL d   1      -8.389  -6.790 -17.000 +0.01 +0.01    +0.222    13.823
ATOM     35  O   UNL d   1      -7.228  -7.361 -10.535 -0.11 -0.22    -0.278    13.823
ATOM     36  P   UNL d   1      -7.297  -5.777 -10.708 -0.11 +0.19    +0.473    13.823
ATOM     37  O   UNL d   1      -6.532  -4.984  -9.697 -0.28 -0.05    -0.228    13.823
ATOM     38  O   UNL d   1      -6.790  -5.590 -12.206 -0.12 -0.02    -0.303    13.823
ATOM     39  H   UNL d   1      -5.924  -5.128 -12.197 -0.50 -0.05    +0.222    13.823
ATOM     40  O   UNL d   1      -8.863  -5.513 -10.798 -0.09 -0.21    -0.303    13.823
ATOM     41  H   UNL d   1      -9.275  -6.012 -11.538 +0.03 +0.16    +0.222    13.823
ATOM     42  O   UNL d   1      -9.553  -8.146 -12.108 -0.55 -0.30    -0.278    13.823
ATOM     43  P   UNL d   1     -10.873  -7.306 -12.418 -0.02 +0.33    +0.473    13.823
ATOM     44  O   UNL d   1     -11.986  -8.009 -13.116 -0.01 -0.08    -0.228    13.823
ATOM     45  O   UNL d   1     -11.264  -6.729 -10.987 -0.20 -0.37    -0.303    13.823
ATOM     46  H   UNL d   1     -10.991  -5.795 -10.891 +0.01 +0.18    +0.222    13.823
ATOM     47  O   UNL d   1     -10.311  -5.998 -13.154 -0.01 -0.10    -0.303    13.823
ATOM     48  H   UNL d   1     -10.121  -6.212 -14.091 +0.01 +0.04    +0.222    13.823
TER
ENDMDL
MODEL       77
USER    Run = 77
USER    Cluster Rank = 17
USER    Number of conformations in this cluster = 1
USER  
USER    RMSD from reference structure       = 21.246 A
USER  
USER    Estimated Free Energy of Binding    =   +1.47 kcal/mol  [=(1)+(2)+(3)-(4)]
USER    
USER    (1) Final Intermolecular Energy     =   -5.69 kcal/mol
USER        vdW + Hbond + desolv Energy     =   -5.24 kcal/mol
USER        Electrostatic Energy            =   -0.45 kcal/mol
USER    (2) Final Total Internal Energy     =  -13.35 kcal/mol
USER    (3) Torsional Free Energy           =   +7.16 kcal/mol
USER    (4) Unbound System's Energy  [=(2)] =  -13.35 kcal/mol
USER    
USER    
USER  
USER    DPF = D:/Protein_go_brrr/autodock/final/AncMH_nat/IHP/dock.dpf
USER    NEWDPF move	IHP_ideal_opt.pdbqt
USER    NEWDPF about	0.035000 0.082000 -0.065000
USER    NEWDPF tran0	-13.987237 -19.355599 9.404042
USER    NEWDPF axisangle0	0.647270 -0.038812 0.761272 108.915893
USER    NEWDPF quaternion0	0.526677 -0.031581 0.619439 0.581300
USER    NEWDPF dihe0	128.61 43.54 172.05 -25.69 -129.45 169.99 -40.25 -94.61 -35.16 105.01 97.64 103.64 152.93 168.49 26.50 -42.58 -74.24 -116.08 51.09 20.01 160.57 12.57 -20.30 -8.10 
USER  
USER                              x       y       z    vdW   Elec        q     RMS 
ATOM      1  C   UNL d   1     -13.763 -19.560  11.105 -0.13 -0.07    +0.194    21.246
ATOM      2  C   UNL d   1     -14.857 -18.572  10.696 -0.12 -0.06    +0.194    21.246
ATOM      3  C   UNL d   1     -14.407 -17.672   9.544 -0.20 -0.04    +0.194    21.246
ATOM      4  C   UNL d   1     -13.858 -18.451   8.351 -0.12 -0.03    +0.194    21.246
ATOM      5  C   UNL d   1     -12.847 -19.527   8.725 -0.11 -0.05    +0.194    21.246
ATOM      6  C   UNL d   1     -13.270 -20.388   9.917 -0.07 -0.06    +0.194    21.246
ATOM      7  O   UNL d   1     -14.317 -20.470  12.058 -0.06 +0.08    -0.278    21.246
ATOM      8  P   UNL d   1     -14.639 -19.929  13.526 -0.07 -0.15    +0.473    21.246
ATOM      9  O   UNL d   1     -14.656 -20.968  14.592 -0.02 +0.05    -0.228    21.246
ATOM     10  O   UNL d   1     -13.542 -18.797  13.770 -0.01 +0.15    -0.303    21.246
ATOM     11  H   UNL d   1     -12.735 -19.010  13.265 -0.52 -0.16    +0.222    21.246
ATOM     12  O   UNL d   1     -15.969 -19.075  13.369 -0.10 +0.14    -0.303    21.246
ATOM     13  H   UNL d   1     -16.293 -19.033  12.441 +0.03 -0.10    +0.222    21.246
ATOM     14  O   UNL d   1     -16.015 -19.305  10.277 -0.04 +0.07    -0.278    21.246
ATOM     15  P   UNL d   1     -17.431 -18.584  10.479 -0.04 -0.16    +0.473    21.246
ATOM     16  O   UNL d   1     -18.539 -19.422  11.035 -0.02 +0.06    -0.228    21.246
ATOM     17  O   UNL d   1     -17.096 -17.321  11.389 -0.01 +0.28    -0.303    21.246
ATOM     18  H   UNL d   1     -16.670 -16.614  10.867 -0.20 -0.22    +0.222    21.246
ATOM     19  O   UNL d   1     -17.729 -17.897   9.076 -0.01 +0.07    -0.303    21.246
ATOM     20  H   UNL d   1     -17.313 -17.017   9.009 +0.05 -0.06    +0.222    21.246
ATOM     21  O   UNL d   1     -12.108 -21.091  10.351 -0.06 +0.12    -0.278    21.246
ATOM     22  P   UNL d   1     -10.811 -20.277  10.797 -0.13 -0.35    +0.473    21.246
ATOM     23  O   UNL d   1     -10.950 -19.272  11.890 -0.22 +0.14    -0.228    21.246
ATOM     24  O   UNL d   1      -9.778 -21.451  11.098 -0.07 +0.40    -0.303    21.246
ATOM     25  H   UNL d   1      -8.869 -21.058  11.139 -0.17 -0.61    +0.222    21.246
ATOM     26  O   UNL d   1     -10.277 -19.719   9.392 +0.12 +0.25    -0.303    21.246
ATOM     27  H   UNL d   1     -10.836 -20.075   8.671 +0.09 -0.14    +0.222    21.246
ATOM     28  O   UNL d   1     -15.557 -16.994   9.055 -0.11 +0.07    -0.278    21.246
ATOM     29  P   UNL d   1     -15.594 -15.402   9.010 -0.20 -0.15    +0.473    21.246
ATOM     30  O   UNL d   1     -15.633 -14.724  10.331 -0.39 +0.15    -0.228    21.246
ATOM     31  O   UNL d   1     -14.319 -15.120   8.085 -0.23 +0.05    -0.303    21.246
ATOM     32  H   UNL d   1     -14.025 -15.972   7.687 +0.12 -0.02    +0.222    21.246
ATOM     33  O   UNL d   1     -16.812 -15.125   8.022 -0.11 +0.05    -0.303    21.246
ATOM     34  H   UNL d   1     -16.823 -15.823   7.322 +0.06 -0.01    +0.222    21.246
ATOM     35  O   UNL d   1     -12.763 -20.390   7.593 -0.03 +0.07    -0.278    21.246
ATOM     36  P   UNL d   1     -11.442 -20.419   6.699 -0.07 -0.16    +0.473    21.246
ATOM     37  O   UNL d   1     -10.675 -19.136   6.641 -0.29 +0.07    -0.228    21.246
ATOM     38  O   UNL d   1     -10.640 -21.634   7.342 -0.10 +0.21    -0.303    21.246
ATOM     39  H   UNL d   1      -9.900 -21.281   7.881 -0.13 -0.31    +0.222    21.246
ATOM     40  O   UNL d   1     -11.978 -21.001   5.319 -0.03 +0.06    -0.303    21.246
ATOM     41  H   UNL d   1     -12.637 -20.402   4.902 +0.06 -0.02    +0.222    21.246
ATOM     42  O   UNL d   1     -13.179 -17.507   7.516 -0.16 +0.03    -0.278    21.246
ATOM     43  P   UNL d   1     -13.690 -17.292   6.021 -0.18 -0.01    +0.473    21.246
ATOM     44  O   UNL d   1     -13.462 -18.400   5.052 -0.16 +0.00    -0.228    21.246
ATOM     45  O   UNL d   1     -15.222 -16.913   6.226 -0.59 -0.03    -0.303    21.246
ATOM     46  H   UNL d   1     -15.380 -16.531   7.113 +0.08 -0.01    +0.222    21.246
ATOM     47  O   UNL d   1     -13.056 -15.877   5.616 -0.49 -0.03    -0.303    21.246
ATOM     48  H   UNL d   1     -13.579 -15.159   6.029 -0.10 -0.01    +0.222    21.246
TER
ENDMDL
MODEL       17
USER    Run = 17
USER    Cluster Rank = 18
USER    Number of conformations in this cluster = 2
USER  
USER    RMSD from reference structure       = 20.332 A
USER  
USER    Estimated Free Energy of Binding    =   +1.51 kcal/mol  [=(1)+(2)+(3)-(4)]
USER    
USER    (1) Final Intermolecular Energy     =   -5.65 kcal/mol
USER        vdW + Hbond + desolv Energy     =   -5.34 kcal/mol
USER        Electrostatic Energy            =   -0.32 kcal/mol
USER    (2) Final Total Internal Energy     =  -10.14 kcal/mol
USER    (3) Torsional Free Energy           =   +7.16 kcal/mol
USER    (4) Unbound System's Energy  [=(2)] =  -10.14 kcal/mol
USER    
USER    
USER  
USER    DPF = D:/Protein_go_brrr/autodock/final/AncMH_nat/IHP/dock.dpf
USER    NEWDPF move	IHP_ideal_opt.pdbqt
USER    NEWDPF about	0.035000 0.082000 -0.065000
USER    NEWDPF tran0	-1.667946 -15.921342 16.082603
USER    NEWDPF axisangle0	0.246068 0.932464 -0.264501 154.869482
USER    NEWDPF quaternion0	0.240175 0.910131 -0.258166 0.217551
USER    NEWDPF dihe0	94.65 67.26 26.10 29.62 -163.30 -82.47 53.59 -122.07 44.21 125.12 68.65 -105.23 21.75 178.95 29.49 -89.88 49.49 112.63 5.12 -36.54 79.33 -27.96 -178.85 160.99 
USER  
USER                              x       y       z    vdW   Elec        q     RMS 
ATOM      1  C   UNL d   1      -3.358 -16.189  16.323 -0.11 -0.03    +0.194    20.332
ATOM      2  C   UNL d   1      -2.441 -17.344  16.730 -0.06 -0.02    +0.194    20.332
ATOM      3  C   UNL d   1      -1.341 -17.587  15.695 -0.07 -0.01    +0.194    20.332
ATOM      4  C   UNL d   1      -0.557 -16.324  15.343 -0.07 -0.02    +0.194    20.332
ATOM      5  C   UNL d   1      -1.433 -15.115  15.041 -0.16 -0.02    +0.194    20.332
ATOM      6  C   UNL d   1      -2.571 -14.908  16.043 -0.11 -0.02    +0.194    20.332
ATOM      7  O   UNL d   1      -4.242 -15.916  17.412 -0.06 +0.02    -0.278    20.332
ATOM      8  P   UNL d   1      -5.811 -16.113  17.184 -0.08 -0.01    +0.473    20.332
ATOM      9  O   UNL d   1      -6.266 -17.529  17.118 -0.11 +0.01    -0.228    20.332
ATOM     10  O   UNL d   1      -6.481 -15.293  18.377 -0.03 +0.01    -0.303    20.332
ATOM     11  H   UNL d   1      -6.226 -15.691  19.231 +0.02 -0.01    +0.222    20.332
ATOM     12  O   UNL d   1      -6.161 -15.212  15.923 -0.15 -0.02    -0.303    20.332
ATOM     13  H   UNL d   1      -5.380 -15.022  15.357 -0.45 -0.03    +0.222    20.332
ATOM     14  O   UNL d   1      -1.825 -17.031  17.986 -0.01 +0.02    -0.278    20.332
ATOM     15  P   UNL d   1      -2.543 -17.604  19.297 +0.00 -0.04    +0.473    20.332
ATOM     16  O   UNL d   1      -2.895 -16.610  20.359 -0.00 +0.02    -0.228    20.332
ATOM     17  O   UNL d   1      -3.813 -18.384  18.735 -0.01 +0.02    -0.303    20.332
ATOM     18  H   UNL d   1      -4.475 -17.763  18.374 +0.03 -0.02    +0.222    20.332
ATOM     19  O   UNL d   1      -1.612 -18.807  19.765 -0.00 +0.02    -0.303    20.332
ATOM     20  H   UNL d   1      -1.161 -19.228  19.011 +0.00 -0.02    +0.222    20.332
ATOM     21  O   UNL d   1      -3.478 -13.981  15.451 -0.14 +0.03    -0.278    20.332
ATOM     22  P   UNL d   1      -2.963 -12.985  14.315 -0.25 -0.08    +0.473    20.332
ATOM     23  O   UNL d   1      -2.393 -13.572  13.068 -0.37 +0.04    -0.228    20.332
ATOM     24  O   UNL d   1      -4.238 -12.058  14.094 -0.30 +0.02    -0.303    20.332
ATOM     25  H   UNL d   1      -3.941 -11.113  14.126 -0.32 -0.12    +0.222    20.332
ATOM     26  O   UNL d   1      -1.991 -12.019  15.146 -0.33 +0.09    -0.303    20.332
ATOM     27  H   UNL d   1      -1.061 -12.264  14.965 -0.25 -0.08    +0.222    20.332
ATOM     28  O   UNL d   1      -0.391 -18.470  16.277 -0.01 +0.02    -0.278    20.332
ATOM     29  P   UNL d   1      -0.643 -20.043  16.267 -0.00 -0.04    +0.473    20.332
ATOM     30  O   UNL d   1      -0.810 -20.673  17.602 -0.01 +0.02    -0.228    20.332
ATOM     31  O   UNL d   1      -1.890 -20.119  15.267 -0.06 +0.02    -0.303    20.332
ATOM     32  H   UNL d   1      -1.576 -20.463  14.399 +0.04 -0.01    +0.222    20.332
ATOM     33  O   UNL d   1       0.561 -20.568  15.368 -0.00 +0.03    -0.303    20.332
ATOM     34  H   UNL d   1       0.469 -20.194  14.457 +0.03 -0.02    +0.222    20.332
ATOM     35  O   UNL d   1      -0.574 -13.981  15.142 -0.17 +0.05    -0.278    20.332
ATOM     36  P   UNL d   1       0.386 -13.808  16.404 -0.08 -0.09    +0.473    20.332
ATOM     37  O   UNL d   1       1.775 -14.337  16.236 -0.07 +0.04    -0.228    20.332
ATOM     38  O   UNL d   1       0.310 -12.238  16.659 -0.14 +0.11    -0.303    20.332
ATOM     39  H   UNL d   1       0.089 -11.786  15.816 -0.50 -0.17    +0.222    20.332
ATOM     40  O   UNL d   1      -0.486 -14.429  17.581 -0.02 +0.04    -0.303    20.332
ATOM     41  H   UNL d   1      -0.400 -15.407  17.620 +0.02 -0.02    +0.222    20.332
ATOM     42  O   UNL d   1       0.184 -16.615  14.153 -0.07 +0.02    -0.278    20.332
ATOM     43  P   UNL d   1      -0.576 -17.261  12.909 -0.14 +0.04    +0.473    20.332
ATOM     44  O   UNL d   1       0.048 -17.104  11.565 -0.33 -0.04    -0.228    20.332
ATOM     45  O   UNL d   1      -0.768 -18.774  13.364 -0.17 -0.01    -0.303    20.332
ATOM     46  H   UNL d   1      -0.330 -18.948  14.222 +0.05 -0.01    +0.222    20.332
ATOM     47  O   UNL d   1      -2.066 -16.687  13.051 -0.41 -0.02    -0.303    20.332
ATOM     48  H   UNL d   1      -2.074 -15.742  12.794 +0.08 -0.01    +0.222    20.332
TER
ENDMDL
MODEL       65
USER    Run = 65
USER    Cluster Rank = 19
USER    Number of conformations in this cluster = 1
USER  
USER    RMSD from reference structure       = 12.971 A
USER  
USER    Estimated Free Energy of Binding    =   +1.62 kcal/mol  [=(1)+(2)+(3)-(4)]
USER    
USER    (1) Final Intermolecular Energy     =   -5.54 kcal/mol
USER        vdW + Hbond + desolv Energy     =   -5.21 kcal/mol
USER        Electrostatic Energy            =   -0.33 kcal/mol
USER    (2) Final Total Internal Energy     =  -13.18 kcal/mol
USER    (3) Torsional Free Energy           =   +7.16 kcal/mol
USER    (4) Unbound System's Energy  [=(2)] =  -13.18 kcal/mol
USER    
USER    
USER  
USER    DPF = D:/Protein_go_brrr/autodock/final/AncMH_nat/IHP/dock.dpf
USER    NEWDPF move	IHP_ideal_opt.pdbqt
USER    NEWDPF about	0.035000 0.082000 -0.065000
USER    NEWDPF tran0	7.485516 -12.348963 -5.895303
USER    NEWDPF axisangle0	-0.126808 0.877242 -0.462997 166.139625
USER    NEWDPF quaternion0	-0.125882 0.870832 -0.459615 0.120660
USER    NEWDPF dihe0	179.90 5.90 47.52 12.47 -79.81 -172.37 -145.34 -88.64 26.74 -4.95 82.80 -146.74 59.39 156.49 -178.36 25.39 155.28 106.27 47.79 4.38 -179.77 28.73 -10.22 -8.35 
USER  
USER                              x       y       z    vdW   Elec        q     RMS 
ATOM      1  C   UNL d   1       6.527 -13.627  -5.237 -0.13 +0.00    +0.194    12.971
ATOM      2  C   UNL d   1       8.000 -13.624  -4.822 -0.13 -0.01    +0.194    12.971
ATOM      3  C   UNL d   1       8.921 -13.327  -6.007 -0.09 -0.04    +0.194    12.971
ATOM      4  C   UNL d   1       8.534 -12.062  -6.768 -0.13 -0.05    +0.194    12.971
ATOM      5  C   UNL d   1       7.050 -11.969  -7.103 -0.15 -0.02    +0.194    12.971
ATOM      6  C   UNL d   1       6.129 -12.325  -5.934 -0.19 +0.02    +0.194    12.971
ATOM      7  O   UNL d   1       5.731 -13.737  -4.055 -0.09 -0.07    -0.278    12.971
ATOM      8  P   UNL d   1       5.647 -15.157  -3.326 -0.07 -0.02    +0.473    12.971
ATOM      9  O   UNL d   1       6.322 -15.227  -2.001 -0.06 -0.01    -0.228    12.971
ATOM     10  O   UNL d   1       4.083 -15.461  -3.251 -0.07 +0.16    -0.303    12.971
ATOM     11  H   UNL d   1       3.616 -14.942  -3.933 -0.45 -0.36    +0.222    12.971
ATOM     12  O   UNL d   1       6.139 -16.208  -4.412 -0.02 +0.05    -0.303    12.971
ATOM     13  H   UNL d   1       5.816 -16.005  -5.318 +0.03 -0.05    +0.222    12.971
ATOM     14  O   UNL d   1       8.201 -12.616  -3.823 -0.23 +0.01    -0.278    12.971
ATOM     15  P   UNL d   1       9.101 -13.027  -2.564 -0.12 -0.07    +0.473    12.971
ATOM     16  O   UNL d   1       8.759 -12.385  -1.256 -0.29 +0.03    -0.228    12.971
ATOM     17  O   UNL d   1       9.000 -14.616  -2.517 -0.04 +0.03    -0.303    12.971
ATOM     18  H   UNL d   1       8.072 -14.911  -2.589 +0.04 -0.01    +0.222    12.971
ATOM     19  O   UNL d   1      10.598 -12.817  -3.060 -0.19 +0.10    -0.303    12.971
ATOM     20  H   UNL d   1      10.745 -13.214  -3.938 +0.05 -0.06    +0.222    12.971
ATOM     21  O   UNL d   1       4.828 -12.526  -6.482 -0.20 +0.01    -0.278    12.971
ATOM     22  P   UNL d   1       4.487 -13.891  -7.234 -0.11 -0.17    +0.473    12.971
ATOM     23  O   UNL d   1       3.508 -13.852  -8.358 -0.05 +0.10    -0.228    12.971
ATOM     24  O   UNL d   1       5.937 -14.416  -7.628 -0.01 +0.05    -0.303    12.971
ATOM     25  H   UNL d   1       5.868 -14.886  -8.498 +0.02 -0.04    +0.222    12.971
ATOM     26  O   UNL d   1       4.110 -14.852  -6.007 -0.12 +0.24    -0.303    12.971
ATOM     27  H   UNL d   1       3.979 -14.311  -5.202 -0.47 -0.24    +0.222    12.971
ATOM     28  O   UNL d   1      10.219 -13.071  -5.486 -0.10 +0.08    -0.278    12.971
ATOM     29  P   UNL d   1      11.510 -13.644  -6.223 -0.02 -0.10    +0.473    12.971
ATOM     30  O   UNL d   1      11.246 -14.447  -7.444 -0.01 +0.04    -0.228    12.971
ATOM     31  O   UNL d   1      12.348 -12.293  -6.409 -0.06 +0.08    -0.303    12.971
ATOM     32  H   UNL d   1      12.147 -11.919  -7.298 +0.06 -0.06    +0.222    12.971
ATOM     33  O   UNL d   1      12.278 -14.373  -5.034 -0.01 +0.05    -0.303    12.971
ATOM     34  H   UNL d   1      12.069 -13.910  -4.186 +0.04 -0.04    +0.222    12.971
ATOM     35  O   UNL d   1       6.811 -10.600  -7.423 -0.20 +0.03    -0.278    12.971
ATOM     36  P   UNL d   1       6.248 -10.196  -8.860 -0.13 -0.04    +0.473    12.971
ATOM     37  O   UNL d   1       6.460  -8.770  -9.259 -0.23 +0.02    -0.228    12.971
ATOM     38  O   UNL d   1       6.973 -11.255  -9.803 -0.04 +0.03    -0.303    12.971
ATOM     39  H   UNL d   1       7.913 -11.333  -9.534 +0.07 -0.03    +0.222    12.971
ATOM     40  O   UNL d   1       4.744 -10.711  -8.792 -0.64 -0.04    -0.303    12.971
ATOM     41  H   UNL d   1       4.688 -11.624  -8.432 +0.10 +0.03    +0.222    12.971
ATOM     42  O   UNL d   1       9.244 -12.091  -8.011 -0.06 +0.06    -0.278    12.971
ATOM     43  P   UNL d   1      10.268 -10.914  -8.342 -0.10 -0.16    +0.473    12.971
ATOM     44  O   UNL d   1      11.414 -11.233  -9.239 -0.05 +0.08    -0.228    12.971
ATOM     45  O   UNL d   1       9.314  -9.765  -8.889 -0.17 +0.10    -0.303    12.971
ATOM     46  H   UNL d   1       8.371  -9.984  -8.747 +0.10 -0.05    +0.222    12.971
ATOM     47  O   UNL d   1      10.660 -10.351  -6.893 -0.09 +0.16    -0.303    12.971
ATOM     48  H   UNL d   1      10.642 -11.086  -6.246 -0.43 -0.14    +0.222    12.971
TER
ENDMDL
MODEL       75
USER    Run = 75
USER    Cluster Rank = 20
USER    Number of conformations in this cluster = 1
USER  
USER    RMSD from reference structure       = 23.052 A
USER  
USER    Estimated Free Energy of Binding    =   +1.64 kcal/mol  [=(1)+(2)+(3)-(4)]
USER    
USER    (1) Final Intermolecular Energy     =   -5.52 kcal/mol
USER        vdW + Hbond + desolv Energy     =   -4.96 kcal/mol
USER        Electrostatic Energy            =   -0.56 kcal/mol
USER    (2) Final Total Internal Energy     =  -12.73 kcal/mol
USER    (3) Torsional Free Energy           =   +7.16 kcal/mol
USER    (4) Unbound System's Energy  [=(2)] =  -12.73 kcal/mol
USER    
USER    
USER  
USER    DPF = D:/Protein_go_brrr/autodock/final/AncMH_nat/IHP/dock.dpf
USER    NEWDPF move	IHP_ideal_opt.pdbqt
USER    NEWDPF about	0.035000 0.082000 -0.065000
USER    NEWDPF tran0	-13.708954 -13.599276 17.655485
USER    NEWDPF axisangle0	0.015548 0.128564 -0.991579 -103.861323
USER    NEWDPF quaternion0	0.012241 0.101214 -0.780636 -0.616615
USER    NEWDPF dihe0	74.16 144.68 60.26 109.19 117.27 169.44 43.33 -77.23 3.55 92.29 34.47 -123.01 -176.16 -83.84 51.41 93.31 -175.05 -55.09 -30.11 -13.00 -9.67 -24.74 -34.56 -4.98 
USER  
USER                              x       y       z    vdW   Elec        q     RMS 
ATOM      1  C   UNL d   1     -14.782 -14.745  18.377 -0.08 -0.08    +0.194    23.052
ATOM      2  C   UNL d   1     -15.299 -13.306  18.310 -0.10 -0.05    +0.194    23.052
ATOM      3  C   UNL d   1     -14.215 -12.297  18.694 -0.09 -0.00    +0.194    23.052
ATOM      4  C   UNL d   1     -12.917 -12.481  17.912 -0.15 -0.01    +0.194    23.052
ATOM      5  C   UNL d   1     -12.425 -13.922  17.855 -0.12 -0.04    +0.194    23.052
ATOM      6  C   UNL d   1     -13.523 -14.938  17.531 -0.17 -0.09    +0.194    23.052
ATOM      7  O   UNL d   1     -15.790 -15.606  17.842 -0.08 +0.20    -0.278    23.052
ATOM      8  P   UNL d   1     -15.850 -17.117  18.358 -0.02 -0.18    +0.473    23.052
ATOM      9  O   UNL d   1     -15.779 -18.151  17.290 -0.06 +0.10    -0.228    23.052
ATOM     10  O   UNL d   1     -14.653 -17.214  19.408 -0.00 +0.06    -0.303    23.052
ATOM     11  H   UNL d   1     -13.817 -17.389  18.936 +0.03 -0.05    +0.222    23.052
ATOM     12  O   UNL d   1     -17.126 -17.181  19.302 -0.00 +0.07    -0.303    23.052
ATOM     13  H   UNL d   1     -17.917 -17.560  18.856 +0.01 -0.05    +0.222    23.052
ATOM     14  O   UNL d   1     -15.730 -13.027  16.972 -0.19 +0.15    -0.278    23.052
ATOM     15  P   UNL d   1     -17.275 -12.653  16.781 -0.11 -0.17    +0.473    23.052
ATOM     16  O   UNL d   1     -18.234 -13.231  17.775 -0.04 +0.05    -0.228    23.052
ATOM     17  O   UNL d   1     -17.290 -11.060  16.763 -0.09 -0.10    -0.303    23.052
ATOM     18  H   UNL d   1     -16.620 -10.696  17.373 +0.04 +0.12    +0.222    23.052
ATOM     19  O   UNL d   1     -17.580 -12.993  15.257 -0.17 +0.29    -0.303    23.052
ATOM     20  H   UNL d   1     -17.268 -13.885  15.018 -0.46 -0.53    +0.222    23.052
ATOM     21  O   UNL d   1     -12.999 -16.226  17.850 -0.07 +0.09    -0.278    23.052
ATOM     22  P   UNL d   1     -12.700 -17.270  16.681 -0.16 -0.17    +0.473    23.052
ATOM     23  O   UNL d   1     -11.419 -17.137  15.929 -0.19 +0.08    -0.228    23.052
ATOM     24  O   UNL d   1     -12.892 -18.661  17.431 -0.03 +0.07    -0.303    23.052
ATOM     25  H   UNL d   1     -13.768 -18.643  17.893 +0.03 -0.05    +0.222    23.052
ATOM     26  O   UNL d   1     -14.041 -17.175  15.809 -0.17 +0.23    -0.303    23.052
ATOM     27  H   UNL d   1     -14.677 -16.584  16.260 -0.34 -0.28    +0.222    23.052
ATOM     28  O   UNL d   1     -14.689 -11.004  18.340 -0.12 -0.07    -0.278    23.052
ATOM     29  P   UNL d   1     -15.605 -10.179  19.348 -0.07 +0.19    +0.473    23.052
ATOM     30  O   UNL d   1     -14.938  -9.726  20.595 -0.02 -0.06    -0.228    23.052
ATOM     31  O   UNL d   1     -16.150  -9.042  18.362 -0.55 -0.46    -0.303    23.052
ATOM     32  H   UNL d   1     -17.026  -9.325  18.010 +0.02 +0.32    +0.222    23.052
ATOM     33  O   UNL d   1     -16.867 -11.136  19.512 -0.02 -0.06    -0.303    23.052
ATOM     34  H   UNL d   1     -16.878 -11.783  18.765 +0.03 +0.02    +0.222    23.052
ATOM     35  O   UNL d   1     -11.482 -13.968  16.786 +0.30 +0.09    -0.278    23.052
ATOM     36  P   UNL d   1      -9.922 -13.825  17.084 -0.11 +0.04    +0.473    23.052
ATOM     37  O   UNL d   1      -9.192 -12.831  16.237 -0.73 -0.18    -0.228    23.052
ATOM     38  O   UNL d   1      -9.916 -13.489  18.640 -0.02 -0.01    -0.303    23.052
ATOM     39  H   UNL d   1     -10.325 -12.608  18.780 +0.05 +0.01    +0.222    23.052
ATOM     40  O   UNL d   1      -9.424 -15.334  17.016 -0.14 +0.04    -0.303    23.052
ATOM     41  H   UNL d   1      -9.724 -15.780  16.193 -0.45 -0.09    +0.222    23.052
ATOM     42  O   UNL d   1     -11.912 -11.720  18.590 -0.05 -0.02    -0.278    23.052
ATOM     43  P   UNL d   1     -11.238 -10.487  17.836 -0.08 +0.09    +0.473    23.052
ATOM     44  O   UNL d   1     -11.537 -10.322  16.386 -0.27 -0.08    -0.228    23.052
ATOM     45  O   UNL d   1     -11.672  -9.248  18.735 -0.04 -0.06    -0.303    23.052
ATOM     46  H   UNL d   1     -12.590  -9.345  19.059 +0.05 +0.06    +0.222    23.052
ATOM     47  O   UNL d   1      -9.686 -10.633  18.210 -0.04 -0.05    -0.303    23.052
ATOM     48  H   UNL d   1      -9.373 -11.523  17.945 +0.07 +0.04    +0.222    23.052
TER
ENDMDL
MODEL        8
USER    Run = 8
USER    Cluster Rank = 21
USER    Number of conformations in this cluster = 1
USER  
USER    RMSD from reference structure       = 15.915 A
USER  
USER    Estimated Free Energy of Binding    =   +1.68 kcal/mol  [=(1)+(2)+(3)-(4)]
USER    
USER    (1) Final Intermolecular Energy     =   -5.48 kcal/mol
USER        vdW + Hbond + desolv Energy     =   -5.25 kcal/mol
USER        Electrostatic Energy            =   -0.23 kcal/mol
USER    (2) Final Total Internal Energy     =  -12.42 kcal/mol
USER    (3) Torsional Free Energy           =   +7.16 kcal/mol
USER    (4) Unbound System's Energy  [=(2)] =  -12.42 kcal/mol
USER    
USER    
USER  
USER    DPF = D:/Protein_go_brrr/autodock/final/AncMH_nat/IHP/dock.dpf
USER    NEWDPF move	IHP_ideal_opt.pdbqt
USER    NEWDPF about	0.035000 0.082000 -0.065000
USER    NEWDPF tran0	2.344790 19.379198 -4.056009
USER    NEWDPF axisangle0	-0.293283 -0.915586 -0.275113 171.236779
USER    NEWDPF quaternion0	-0.292426 -0.912910 -0.274309 0.076399
USER    NEWDPF dihe0	87.94 -114.88 -160.43 10.63 171.46 134.33 111.09 13.52 40.81 114.37 44.13 -22.21 -78.06 -179.89 -166.69 -5.47 -71.79 -92.18 -150.04 9.91 18.27 -14.24 -165.50 -140.98 
USER  
USER                              x       y       z    vdW   Elec        q     RMS 
ATOM      1  C   UNL d   1       1.121  19.859  -5.177 -0.02 -0.00    +0.194    15.915
ATOM      2  C   UNL d   1       1.635  18.427  -5.332 -0.07 -0.00    +0.194    15.915
ATOM      3  C   UNL d   1       3.158  18.354  -5.204 -0.07 +0.01    +0.194    15.915
ATOM      4  C   UNL d   1       3.687  19.023  -3.938 -0.09 +0.02    +0.194    15.915
ATOM      5  C   UNL d   1       3.112  20.410  -3.682 -0.03 +0.01    +0.194    15.915
ATOM      6  C   UNL d   1       1.596  20.497  -3.871 -0.01 +0.01    +0.194    15.915
ATOM      7  O   UNL d   1      -0.307  19.819  -5.136 -0.02 +0.00    -0.278    15.915
ATOM      8  P   UNL d   1      -1.021  19.598  -3.724 -0.02 +0.02    +0.473    15.915
ATOM      9  O   UNL d   1      -0.208  18.866  -2.714 -0.09 -0.02    -0.228    15.915
ATOM     10  O   UNL d   1      -1.422  21.070  -3.259 -0.01 -0.01    -0.303    15.915
ATOM     11  H   UNL d   1      -0.617  21.572  -3.031 +0.02 +0.01    +0.222    15.915
ATOM     12  O   UNL d   1      -2.435  18.961  -4.070 -0.13 -0.03    -0.303    15.915
ATOM     13  H   UNL d   1      -3.090  19.060  -3.343 -0.12 +0.01    +0.222    15.915
ATOM     14  O   UNL d   1       1.051  17.608  -4.312 -0.08 -0.01    -0.278    15.915
ATOM     15  P   UNL d   1       0.631  16.123  -4.739 -0.23 +0.01    +0.473    15.915
ATOM     16  O   UNL d   1      -0.793  15.731  -4.497 -0.32 -0.06    -0.228    15.915
ATOM     17  O   UNL d   1       1.044  16.029  -6.274 -0.36 +0.05    -0.303    15.915
ATOM     18  H   UNL d   1       1.864  15.510  -6.387 -0.33 -0.08    +0.222    15.915
ATOM     19  O   UNL d   1       1.724  15.190  -4.056 -0.14 +0.00    -0.303    15.915
ATOM     20  H   UNL d   1       2.629  15.507  -4.232 +0.15 +0.00    +0.222    15.915
ATOM     21  O   UNL d   1       1.268  21.882  -3.938 -0.00 -0.01    -0.278    15.915
ATOM     22  P   UNL d   1       1.055  22.712  -2.592 +0.00 +0.02    +0.473    15.915
ATOM     23  O   UNL d   1      -0.100  23.654  -2.520 -0.00 -0.01    -0.228    15.915
ATOM     24  O   UNL d   1       1.043  21.557  -1.497 -0.02 -0.03    -0.303    15.915
ATOM     25  H   UNL d   1       1.907  21.584  -1.012 +0.03 +0.03    +0.222    15.915
ATOM     26  O   UNL d   1       2.505  23.359  -2.375 -0.00 -0.02    -0.303    15.915
ATOM     27  H   UNL d   1       3.190  22.700  -2.608 +0.02 +0.02    +0.222    15.915
ATOM     28  O   UNL d   1       3.512  16.982  -5.083 -0.16 -0.02    -0.278    15.915
ATOM     29  P   UNL d   1       3.971  16.153  -6.363 -0.26 +0.04    +0.473    15.915
ATOM     30  O   UNL d   1       3.353  16.568  -7.649 -0.31 -0.01    -0.228    15.915
ATOM     31  O   UNL d   1       5.559  16.303  -6.239 -0.47 -0.04    -0.303    15.915
ATOM     32  H   UNL d   1       5.984  15.615  -6.802 -0.47 -0.02    +0.222    15.915
ATOM     33  O   UNL d   1       3.721  14.652  -5.896 -0.38 +0.01    -0.303    15.915
ATOM     34  H   UNL d   1       2.748  14.479  -5.877 -0.35 -0.08    +0.222    15.915
ATOM     35  O   UNL d   1       3.382  20.693  -2.310 -0.04 -0.03    -0.278    15.915
ATOM     36  P   UNL d   1       3.346  19.525  -1.225 -0.17 +0.09    +0.473    15.915
ATOM     37  O   UNL d   1       2.451  18.371  -1.548 -0.20 -0.02    -0.228    15.915
ATOM     38  O   UNL d   1       4.888  19.143  -1.107 -0.29 -0.05    -0.303    15.915
ATOM     39  H   UNL d   1       5.331  19.326  -1.964 +0.07 +0.05    +0.222    15.915
ATOM     40  O   UNL d   1       3.044  20.319   0.119 -0.15 -0.13    -0.303    15.915
ATOM     41  H   UNL d   1       2.114  20.635   0.155 +0.03 +0.07    +0.222    15.915
ATOM     42  O   UNL d   1       5.100  19.178  -4.111 -0.08 -0.05    -0.278    15.915
ATOM     43  P   UNL d   1       5.690  20.638  -4.364 -0.02 +0.05    +0.473    15.915
ATOM     44  O   UNL d   1       5.002  21.491  -5.372 -0.01 -0.01    -0.228    15.915
ATOM     45  O   UNL d   1       5.725  21.259  -2.899 -0.05 -0.03    -0.303    15.915
ATOM     46  H   UNL d   1       5.026  20.877  -2.331 +0.05 +0.03    +0.222    15.915
ATOM     47  O   UNL d   1       7.246  20.361  -4.637 -0.06 -0.05    -0.303    15.915
ATOM     48  H   UNL d   1       7.619  21.105  -5.153 +0.03 +0.02    +0.222    15.915
TER
ENDMDL
MODEL       38
USER    Run = 38
USER    Cluster Rank = 22
USER    Number of conformations in this cluster = 1
USER  
USER    RMSD from reference structure       = 15.305 A
USER  
USER    Estimated Free Energy of Binding    =   +1.81 kcal/mol  [=(1)+(2)+(3)-(4)]
USER    
USER    (1) Final Intermolecular Energy     =   -5.35 kcal/mol
USER        vdW + Hbond + desolv Energy     =   -5.21 kcal/mol
USER        Electrostatic Energy            =   -0.14 kcal/mol
USER    (2) Final Total Internal Energy     =  -13.50 kcal/mol
USER    (3) Torsional Free Energy           =   +7.16 kcal/mol
USER    (4) Unbound System's Energy  [=(2)] =  -13.50 kcal/mol
USER    
USER    
USER  
USER    DPF = D:/Protein_go_brrr/autodock/final/AncMH_nat/IHP/dock.dpf
USER    NEWDPF move	IHP_ideal_opt.pdbqt
USER    NEWDPF about	0.035000 0.082000 -0.065000
USER    NEWDPF tran0	-17.656697 -4.713898 4.814730
USER    NEWDPF axisangle0	-0.638543 -0.627408 -0.445671 -161.027476
USER    NEWDPF quaternion0	-0.629811 -0.618828 -0.439576 -0.164811
USER    NEWDPF dihe0	126.67 124.02 46.31 7.65 65.67 -82.68 -83.42 -72.48 29.36 89.84 105.17 75.88 87.62 157.16 118.16 -0.75 -67.79 -132.67 43.80 -6.26 -29.45 12.56 8.38 -16.63 
USER  
USER                              x       y       z    vdW   Elec        q     RMS 
ATOM      1  C   UNL d   1     -18.392  -3.165   5.023 -0.04 +0.10    +0.194    15.305
ATOM      2  C   UNL d   1     -19.074  -4.089   4.013 -0.04 +0.09    +0.194    15.305
ATOM      3  C   UNL d   1     -18.056  -4.805   3.123 -0.08 +0.11    +0.194    15.305
ATOM      4  C   UNL d   1     -16.963  -5.520   3.913 -0.12 +0.10    +0.194    15.305
ATOM      5  C   UNL d   1     -16.333  -4.670   5.010 -0.10 +0.09    +0.194    15.305
ATOM      6  C   UNL d   1     -17.349  -3.906   5.861 -0.08 +0.08    +0.194    15.305
ATOM      7  O   UNL d   1     -19.389  -2.672   5.921 -0.04 -0.13    -0.278    15.305
ATOM      8  P   UNL d   1     -20.331  -1.480   5.430 -0.02 +0.31    +0.473    15.305
ATOM      9  O   UNL d   1     -21.763  -1.606   5.817 -0.02 -0.12    -0.228    15.305
ATOM     10  O   UNL d   1     -19.635  -0.170   6.016 -0.08 -0.29    -0.303    15.305
ATOM     11  H   UNL d   1     -19.187  -0.385   6.855 +0.05 +0.15    +0.222    15.305
ATOM     12  O   UNL d   1     -20.044  -1.341   3.873 -0.03 -0.25    -0.303    15.305
ATOM     13  H   UNL d   1     -20.506  -2.021   3.333 +0.03 +0.14    +0.222    15.305
ATOM     14  O   UNL d   1     -19.833  -5.076   4.723 -0.42 -0.13    -0.278    15.305
ATOM     15  P   UNL d   1     -21.384  -5.197   4.341 -0.04 +0.14    +0.473    15.305
ATOM     16  O   UNL d   1     -22.319  -5.583   5.443 -0.06 -0.05    -0.228    15.305
ATOM     17  O   UNL d   1     -21.736  -3.781   3.700 -0.00 -0.10    -0.303    15.305
ATOM     18  H   UNL d   1     -21.429  -3.051   4.270 +0.02 +0.09    +0.222    15.305
ATOM     19  O   UNL d   1     -21.405  -6.141   3.061 -0.02 -0.08    -0.303    15.305
ATOM     20  H   UNL d   1     -20.795  -5.825   2.369 +0.02 +0.07    +0.222    15.305
ATOM     21  O   UNL d   1     -16.619  -2.920   6.588 -0.07 -0.10    -0.278    15.305
ATOM     22  P   UNL d   1     -16.856  -2.755   8.157 -0.10 +0.11    +0.473    15.305
ATOM     23  O   UNL d   1     -15.707  -2.318   9.001 -0.22 -0.01    -0.228    15.305
ATOM     24  O   UNL d   1     -18.119  -1.788   8.195 -0.04 -0.10    -0.303    15.305
ATOM     25  H   UNL d   1     -18.373  -1.574   7.261 +0.07 +0.09    +0.222    15.305
ATOM     26  O   UNL d   1     -17.511  -4.169   8.537 -0.19 -0.05    -0.303    15.305
ATOM     27  H   UNL d   1     -16.837  -4.728   8.975 -0.38 +0.01    +0.222    15.305
ATOM     28  O   UNL d   1     -18.747  -5.831   2.422 -0.05 -0.14    -0.278    15.305
ATOM     29  P   UNL d   1     -18.726  -5.873   0.830 -0.03 +0.34    +0.473    15.305
ATOM     30  O   UNL d   1     -18.529  -4.563   0.157 -0.09 -0.20    -0.228    15.305
ATOM     31  O   UNL d   1     -17.601  -6.987   0.594 -0.64 -0.33    -0.303    15.305
ATOM     32  H   UNL d   1     -16.947  -6.932   1.329 +0.05 +0.25    +0.222    15.305
ATOM     33  O   UNL d   1     -20.072  -6.656   0.498 -0.01 -0.12    -0.303    15.305
ATOM     34  H   UNL d   1     -20.413  -7.074   1.327 +0.02 +0.07    +0.222    15.305
ATOM     35  O   UNL d   1     -15.666  -5.586   5.874 -0.01 -0.11    -0.278    15.305
ATOM     36  P   UNL d   1     -14.227  -5.232   6.467 -0.20 +0.15    +0.473    15.305
ATOM     37  O   UNL d   1     -13.433  -4.238   5.680 -0.27 -0.07    -0.228    15.305
ATOM     38  O   UNL d   1     -14.590  -4.758   7.943 -0.34 -0.09    -0.303    15.305
ATOM     39  H   UNL d   1     -15.404  -4.210   7.914 +0.12 +0.05    +0.222    15.305
ATOM     40  O   UNL d   1     -13.581  -6.670   6.674 -0.49 -0.11    -0.303    15.305
ATOM     41  H   UNL d   1     -13.687  -7.235   5.876 +0.17 +0.08    +0.222    15.305
ATOM     42  O   UNL d   1     -15.924  -5.845   2.984 -0.51 -0.27    -0.278    15.305
ATOM     43  P   UNL d   1     -15.399  -7.349   2.909 -0.17 +0.32    +0.473    15.305
ATOM     44  O   UNL d   1     -14.311  -7.744   3.846 -0.38 -0.10    -0.228    15.305
ATOM     45  O   UNL d   1     -16.737  -8.194   3.071 -0.16 -0.14    -0.303    15.305
ATOM     46  H   UNL d   1     -17.504  -7.728   2.682 +0.07 +0.11    +0.222    15.305
ATOM     47  O   UNL d   1     -15.076  -7.547   1.351 -0.36 -0.31    -0.303    15.305
ATOM     48  H   UNL d   1     -15.775  -8.099   0.944 +0.09 +0.19    +0.222    15.305
TER
ENDMDL
MODEL       80
USER    Run = 80
USER    Cluster Rank = 23
USER    Number of conformations in this cluster = 1
USER  
USER    RMSD from reference structure       = 17.556 A
USER  
USER    Estimated Free Energy of Binding    =   +1.86 kcal/mol  [=(1)+(2)+(3)-(4)]
USER    
USER    (1) Final Intermolecular Energy     =   -5.30 kcal/mol
USER        vdW + Hbond + desolv Energy     =   -4.96 kcal/mol
USER        Electrostatic Energy            =   -0.34 kcal/mol
USER    (2) Final Total Internal Energy     =  -13.28 kcal/mol
USER    (3) Torsional Free Energy           =   +7.16 kcal/mol
USER    (4) Unbound System's Energy  [=(2)] =  -13.28 kcal/mol
USER    
USER    
USER  
USER    DPF = D:/Protein_go_brrr/autodock/final/AncMH_nat/IHP/dock.dpf
USER    NEWDPF move	IHP_ideal_opt.pdbqt
USER    NEWDPF about	0.035000 0.082000 -0.065000
USER    NEWDPF tran0	-4.508332 20.137048 3.937593
USER    NEWDPF axisangle0	-0.315601 -0.703691 0.636565 100.606214
USER    NEWDPF quaternion0	-0.242834 -0.541444 0.489795 0.638726
USER    NEWDPF dihe0	-145.05 54.28 139.33 -2.00 -16.46 -94.30 -102.61 12.46 104.72 23.54 5.60 -180.00 151.05 -179.30 -39.15 180.00 -143.14 167.86 51.54 12.42 9.01 22.60 -18.25 -16.82 
USER  
USER                              x       y       z    vdW   Elec        q     RMS 
ATOM      1  C   UNL d   1      -5.021  18.660   3.202 -0.16 +0.01    +0.194    17.556
ATOM      2  C   UNL d   1      -5.821  19.100   4.430 -0.10 +0.01    +0.194    17.556
ATOM      3  C   UNL d   1      -4.908  19.610   5.548 -0.09 +0.03    +0.194    17.556
ATOM      4  C   UNL d   1      -3.929  20.684   5.081 -0.04 +0.04    +0.194    17.556
ATOM      5  C   UNL d   1      -3.193  20.336   3.794 -0.06 +0.03    +0.194    17.556
ATOM      6  C   UNL d   1      -4.096  19.769   2.698 -0.10 +0.01    +0.194    17.556
ATOM      7  O   UNL d   1      -5.945  18.365   2.152 -0.13 -0.01    -0.278    17.556
ATOM      8  P   UNL d   1      -6.846  17.052   2.281 -0.17 +0.02    +0.473    17.556
ATOM      9  O   UNL d   1      -7.370  16.517   0.994 -0.41 -0.03    -0.228    17.556
ATOM     10  O   UNL d   1      -5.914  16.017   3.059 -0.65 +0.00    -0.303    17.556
ATOM     11  H   UNL d   1      -5.637  16.404   3.910 -0.45 -0.11    +0.222    17.556
ATOM     12  O   UNL d   1      -7.938  17.408   3.379 -0.14 +0.02    -0.303    17.556
ATOM     13  H   UNL d   1      -7.932  18.358   3.635 +0.08 -0.00    +0.222    17.556
ATOM     14  O   UNL d   1      -6.714  20.155   4.053 -0.03 -0.02    -0.278    17.556
ATOM     15  P   UNL d   1      -8.145  20.172   4.770 -0.01 +0.01    +0.473    17.556
ATOM     16  O   UNL d   1      -9.345  20.149   3.876 -0.03 -0.03    -0.228    17.556
ATOM     17  O   UNL d   1      -8.094  18.931   5.767 -0.13 +0.03    -0.303    17.556
ATOM     18  H   UNL d   1      -7.239  18.892   6.237 +0.05 -0.01    +0.222    17.556
ATOM     19  O   UNL d   1      -8.068  21.397   5.782 -0.01 -0.01    -0.303    17.556
ATOM     20  H   UNL d   1      -7.370  21.269   6.450 +0.03 +0.01    +0.222    17.556
ATOM     21  O   UNL d   1      -3.240  19.185   1.719 -0.15 -0.01    -0.278    17.556
ATOM     22  P   UNL d   1      -2.773  20.047   0.460 -0.10 +0.01    +0.473    17.556
ATOM     23  O   UNL d   1      -3.412  21.376   0.240 -0.03 -0.01    -0.228    17.556
ATOM     24  O   UNL d   1      -1.195  20.090   0.663 -0.08 -0.02    -0.303    17.556
ATOM     25  H   UNL d   1      -0.986  20.814   1.307 +0.01 +0.03    +0.222    17.556
ATOM     26  O   UNL d   1      -2.924  18.987  -0.734 -0.14 +0.03    -0.303    17.556
ATOM     27  H   UNL d   1      -3.818  19.069  -1.125 -0.43 -0.07    +0.222    17.556
ATOM     28  O   UNL d   1      -5.732  20.245   6.517 -0.07 -0.05    -0.278    17.556
ATOM     29  P   UNL d   1      -5.541  19.929   8.066 -0.14 +0.23    +0.473    17.556
ATOM     30  O   UNL d   1      -5.970  21.004   8.997 -0.12 -0.09    -0.228    17.556
ATOM     31  O   UNL d   1      -6.315  18.532   8.164 -0.02 -0.09    -0.303    17.556
ATOM     32  H   UNL d   1      -7.206  18.637   7.757 -0.37 -0.03    +0.222    17.556
ATOM     33  O   UNL d   1      -4.012  19.489   8.131 -0.69 -0.36    -0.303    17.556
ATOM     34  H   UNL d   1      -3.442  20.285   7.996 +0.04 +0.20    +0.222    17.556
ATOM     35  O   UNL d   1      -2.663  21.568   3.306 -0.02 -0.04    -0.278    17.556
ATOM     36  P   UNL d   1      -1.088  21.814   3.286 -0.04 +0.09    +0.473    17.556
ATOM     37  O   UNL d   1      -0.546  22.616   4.427 -0.02 -0.05    -0.228    17.556
ATOM     38  O   UNL d   1      -0.526  20.326   3.207 -0.10 -0.09    -0.303    17.556
ATOM     39  H   UNL d   1      -1.136  19.781   2.667 +0.00 +0.04    +0.222    17.556
ATOM     40  O   UNL d   1      -0.852  22.391   1.823 -0.02 -0.04    -0.303    17.556
ATOM     41  H   UNL d   1      -1.608  22.191   1.227 +0.02 +0.02    +0.222    17.556
ATOM     42  O   UNL d   1      -2.941  20.819   6.109 -0.02 -0.09    -0.278    17.556
ATOM     43  P   UNL d   1      -2.627  22.270   6.691 +0.01 +0.13    +0.473    17.556
ATOM     44  O   UNL d   1      -1.227  22.553   7.113 -0.00 -0.06    -0.228    17.556
ATOM     45  O   UNL d   1      -3.168  23.231   5.544 +0.00 -0.04    -0.303    17.556
ATOM     46  H   UNL d   1      -2.631  23.154   4.730 +0.01 +0.03    +0.222    17.556
ATOM     47  O   UNL d   1      -3.743  22.458   7.827 -0.01 -0.10    -0.303    17.556
ATOM     48  H   UNL d   1      -4.316  21.664   7.851 +0.03 +0.09    +0.222    17.556
TER
ENDMDL
MODEL       24
USER    Run = 24
USER    Cluster Rank = 24
USER    Number of conformations in this cluster = 1
USER  
USER    RMSD from reference structure       = 20.658 A
USER  
USER    Estimated Free Energy of Binding    =   +1.88 kcal/mol  [=(1)+(2)+(3)-(4)]
USER    
USER    (1) Final Intermolecular Energy     =   -5.28 kcal/mol
USER        vdW + Hbond + desolv Energy     =   -4.97 kcal/mol
USER        Electrostatic Energy            =   -0.32 kcal/mol
USER    (2) Final Total Internal Energy     =  -13.97 kcal/mol
USER    (3) Torsional Free Energy           =   +7.16 kcal/mol
USER    (4) Unbound System's Energy  [=(2)] =  -13.97 kcal/mol
USER    
USER    
USER  
USER    DPF = D:/Protein_go_brrr/autodock/final/AncMH_nat/IHP/dock.dpf
USER    NEWDPF move	IHP_ideal_opt.pdbqt
USER    NEWDPF about	0.035000 0.082000 -0.065000
USER    NEWDPF tran0	-13.283796 12.908233 15.566501
USER    NEWDPF axisangle0	0.124244 0.638833 0.759247 121.246100
USER    NEWDPF quaternion0	0.108268 0.556687 0.661616 0.490553
USER    NEWDPF dihe0	106.25 100.90 47.50 109.25 100.98 73.61 21.11 -92.86 40.91 72.97 78.07 -115.20 -77.10 -74.90 179.84 103.67 -66.47 -93.82 -144.38 -32.06 16.98 -34.57 -179.94 -130.80 
USER  
USER                              x       y       z    vdW   Elec        q     RMS 
ATOM      1  C   UNL d   1     -14.907  12.823  16.153 -0.01 -0.00    +0.194    20.658
ATOM      2  C   UNL d   1     -14.759  13.090  14.654 -0.04 -0.02    +0.194    20.658
ATOM      3  C   UNL d   1     -13.657  14.113  14.367 -0.10 -0.06    +0.194    20.658
ATOM      4  C   UNL d   1     -12.325  13.763  15.025 -0.15 -0.07    +0.194    20.658
ATOM      5  C   UNL d   1     -12.441  13.378  16.494 -0.06 -0.04    +0.194    20.658
ATOM      6  C   UNL d   1     -13.582  12.402  16.790 -0.02 -0.01    +0.194    20.658
ATOM      7  O   UNL d   1     -15.825  11.741  16.324 -0.02 -0.04    -0.278    20.658
ATOM      8  P   UNL d   1     -15.239  10.258  16.432 -0.06 +0.14    +0.473    20.658
ATOM      9  O   UNL d   1     -13.918  10.052  15.778 -0.09 -0.03    -0.228    20.658
ATOM     10  O   UNL d   1     -15.216   9.965  18.001 -0.02 -0.07    -0.303    20.658
ATOM     11  H   UNL d   1     -14.757  10.691  18.462 +0.01 +0.02    +0.222    20.658
ATOM     12  O   UNL d   1     -16.415   9.313  15.935 -0.35 -0.33    -0.303    20.658
ATOM     13  H   UNL d   1     -16.739   9.542  15.034 +0.04 +0.26    +0.222    20.658
ATOM     14  O   UNL d   1     -14.426  11.864  13.991 -0.08 +0.02    -0.278    20.658
ATOM     15  P   UNL d   1     -15.629  11.092  13.268 -0.19 +0.03    +0.473    20.658
ATOM     16  O   UNL d   1     -17.015  11.447  13.707 -0.11 -0.06    -0.228    20.658
ATOM     17  O   UNL d   1     -15.385  11.361  11.717 -0.08 +0.08    -0.303    20.658
ATOM     18  H   UNL d   1     -15.220  12.308  11.546 -0.47 -0.11    +0.222    20.658
ATOM     19  O   UNL d   1     -15.244   9.554  13.391 -0.27 -0.06    -0.303    20.658
ATOM     20  H   UNL d   1     -15.001   9.314  14.304 +0.08 +0.08    +0.222    20.658
ATOM     21  O   UNL d   1     -13.776  12.411  18.203 -0.00 +0.01    -0.278    20.658
ATOM     22  P   UNL d   1     -12.889  11.464  19.130 +0.00 -0.02    +0.473    20.658
ATOM     23  O   UNL d   1     -13.485  10.963  20.402 +0.00 +0.00    -0.228    20.658
ATOM     24  O   UNL d   1     -12.448  10.327  18.107 -0.01 +0.01    -0.303    20.658
ATOM     25  H   UNL d   1     -12.318  10.746  17.218 +0.04 -0.01    +0.222    20.658
ATOM     26  O   UNL d   1     -11.541  12.320  19.275 -0.00 +0.03    -0.303    20.658
ATOM     27  H   UNL d   1     -10.866  11.964  18.662 +0.02 -0.03    +0.222    20.658
ATOM     28  O   UNL d   1     -13.405  14.089  12.968 -0.17 +0.12    -0.278    20.658
ATOM     29  P   UNL d   1     -14.418  14.786  11.955 -0.11 -0.23    +0.473    20.658
ATOM     30  O   UNL d   1     -14.321  16.266  11.869 -0.11 +0.15    -0.228    20.658
ATOM     31  O   UNL d   1     -14.096  13.958  10.624 -0.15 +0.20    -0.303    20.658
ATOM     32  H   UNL d   1     -14.471  13.052  10.719 -0.40 -0.18    +0.222    20.658
ATOM     33  O   UNL d   1     -15.818  14.182  12.415 -0.06 +0.08    -0.303    20.658
ATOM     34  H   UNL d   1     -15.680  13.255  12.729 +0.05 -0.05    +0.222    20.658
ATOM     35  O   UNL d   1     -11.223  12.709  16.816 -0.06 +0.06    -0.278    20.658
ATOM     36  P   UNL d   1     -10.677  11.537  15.883 -0.12 -0.09    +0.473    20.658
ATOM     37  O   UNL d   1     -11.703  10.865  15.026 -0.18 +0.03    -0.228    20.658
ATOM     38  O   UNL d   1      -9.527  12.277  15.068 -0.17 +0.09    -0.303    20.658
ATOM     39  H   UNL d   1      -9.755  13.228  14.983 -0.52 -0.16    +0.222    20.658
ATOM     40  O   UNL d   1      -9.887  10.621  16.915 -0.06 +0.06    -0.303    20.658
ATOM     41  H   UNL d   1     -10.290  10.650  17.811 +0.04 -0.04    +0.222    20.658
ATOM     42  O   UNL d   1     -11.510  14.938  14.961 +0.05 +0.22    -0.278    20.658
ATOM     43  P   UNL d   1     -11.026  15.616  16.321 -0.06 -0.29    +0.473    20.658
ATOM     44  O   UNL d   1     -12.053  15.849  17.375 -0.04 +0.08    -0.228    20.658
ATOM     45  O   UNL d   1      -9.829  14.672  16.776 -0.09 +0.14    -0.303    20.658
ATOM     46  H   UNL d   1      -9.637  13.989  16.103 -0.33 -0.13    +0.222    20.658
ATOM     47  O   UNL d   1     -10.240  16.921  15.821 -0.18 +0.33    -0.303    20.658
ATOM     48  H   UNL d   1     -10.867  17.520  15.365 -0.34 -0.42    +0.222    20.658
TER
ENDMDL
MODEL       93
USER    Run = 93
USER    Cluster Rank = 25
USER    Number of conformations in this cluster = 1
USER  
USER    RMSD from reference structure       = 19.113 A
USER  
USER    Estimated Free Energy of Binding    =   +1.91 kcal/mol  [=(1)+(2)+(3)-(4)]
USER    
USER    (1) Final Intermolecular Energy     =   -5.25 kcal/mol
USER        vdW + Hbond + desolv Energy     =   -4.98 kcal/mol
USER        Electrostatic Energy            =   -0.26 kcal/mol
USER    (2) Final Total Internal Energy     =  -13.11 kcal/mol
USER    (3) Torsional Free Energy           =   +7.16 kcal/mol
USER    (4) Unbound System's Energy  [=(2)] =  -13.11 kcal/mol
USER    
USER    
USER  
USER    DPF = D:/Protein_go_brrr/autodock/final/AncMH_nat/IHP/dock.dpf
USER    NEWDPF move	IHP_ideal_opt.pdbqt
USER    NEWDPF about	0.035000 0.082000 -0.065000
USER    NEWDPF tran0	-18.173873 1.693577 13.312995
USER    NEWDPF axisangle0	-0.137120 0.607301 -0.782550 -167.771504
USER    NEWDPF quaternion0	-0.136340 0.603846 -0.778098 -0.106511
USER    NEWDPF dihe0	-111.27 14.88 66.72 42.86 24.60 -146.17 -112.37 -29.19 15.44 78.35 49.81 179.96 -135.79 141.82 -37.77 -164.23 -105.36 -93.82 26.36 -12.09 150.94 1.79 -32.05 173.33 
USER  
USER                              x       y       z    vdW   Elec        q     RMS 
ATOM      1  C   UNL d   1     -19.083   0.780  14.463 -0.01 +0.04    +0.194    19.113
ATOM      2  C   UNL d   1     -18.037   1.727  15.051 -0.05 +0.05    +0.194    19.113
ATOM      3  C   UNL d   1     -16.721   1.673  14.272 -0.14 +0.03    +0.194    19.113
ATOM      4  C   UNL d   1     -16.903   1.875  12.769 -0.24 +0.01    +0.194    19.113
ATOM      5  C   UNL d   1     -18.016   1.032  12.160 -0.11 +0.03    +0.194    19.113
ATOM      6  C   UNL d   1     -19.313   1.037  12.973 -0.03 +0.04    +0.194    19.113
ATOM      7  O   UNL d   1     -20.324   1.015  15.132 -0.00 -0.06    -0.278    19.113
ATOM      8  P   UNL d   1     -20.716   0.071  16.359 +0.01 +0.08    +0.473    19.113
ATOM      9  O   UNL d   1     -21.368  -1.214  15.985 +0.00 -0.04    -0.228    19.113
ATOM     10  O   UNL d   1     -19.343  -0.128  17.148 +0.00 -0.06    -0.303    19.113
ATOM     11  H   UNL d   1     -19.254   0.564  17.829 +0.00 +0.04    +0.222    19.113
ATOM     12  O   UNL d   1     -21.537   1.002  17.351 +0.00 -0.05    -0.303    19.113
ATOM     13  H   UNL d   1     -21.259   1.945  17.314 +0.01 +0.05    +0.222    19.113
ATOM     14  O   UNL d   1     -18.541   3.068  15.002 -0.09 -0.13    -0.278    19.113
ATOM     15  P   UNL d   1     -18.699   3.824  16.405 -0.06 +0.32    +0.473    19.113
ATOM     16  O   UNL d   1     -19.576   5.037  16.419 -0.64 -0.32    -0.228    19.113
ATOM     17  O   UNL d   1     -19.199   2.689  17.404 -0.01 -0.09    -0.303    19.113
ATOM     18  H   UNL d   1     -19.711   2.005  16.930 +0.01 +0.06    +0.222    19.113
ATOM     19  O   UNL d   1     -17.206   4.052  16.903 -0.09 -0.16    -0.303    19.113
ATOM     20  H   UNL d   1     -16.575   3.482  16.426 +0.04 +0.08    +0.222    19.113
ATOM     21  O   UNL d   1     -20.112  -0.036  12.481 -0.00 -0.05    -0.278    19.113
ATOM     22  P   UNL d   1     -19.468  -1.484  12.298 +0.02 +0.10    +0.473    19.113
ATOM     23  O   UNL d   1     -17.995  -1.629  12.487 -0.04 -0.05    -0.228    19.113
ATOM     24  O   UNL d   1     -20.357  -2.362  13.283 -0.00 -0.07    -0.303    19.113
ATOM     25  H   UNL d   1     -20.504  -1.841  14.113 +0.01 +0.05    +0.222    19.113
ATOM     26  O   UNL d   1     -20.038  -1.915  10.863 -0.01 -0.07    -0.303    19.113
ATOM     27  H   UNL d   1     -20.027  -1.140  10.266 +0.03 +0.05    +0.222    19.113
ATOM     28  O   UNL d   1     -15.921   2.765  14.705 -0.20 -0.05    -0.278    19.113
ATOM     29  P   UNL d   1     -14.581   2.505  15.527 -0.18 +0.01    +0.473    19.113
ATOM     30  O   UNL d   1     -13.709   3.692  15.722 -0.21 +0.02    -0.228    19.113
ATOM     31  O   UNL d   1     -15.189   1.826  16.842 -0.04 -0.03    -0.303    19.113
ATOM     32  H   UNL d   1     -15.798   2.468  17.274 +0.04 +0.03    +0.222    19.113
ATOM     33  O   UNL d   1     -13.949   1.267  14.751 -0.24 +0.01    -0.303    19.113
ATOM     34  H   UNL d   1     -14.220   1.310  13.802 +0.01 -0.03    +0.222    19.113
ATOM     35  O   UNL d   1     -18.309   1.630  10.899 -0.14 -0.02    -0.278    19.113
ATOM     36  P   UNL d   1     -17.687   1.028   9.559 -0.18 +0.10    +0.473    19.113
ATOM     37  O   UNL d   1     -16.193   1.028   9.484 -0.72 -0.08    -0.228    19.113
ATOM     38  O   UNL d   1     -18.344  -0.422   9.519 -0.05 -0.08    -0.303    19.113
ATOM     39  H   UNL d   1     -18.153  -0.885  10.363 +0.07 +0.05    +0.222    19.113
ATOM     40  O   UNL d   1     -18.467   1.833   8.431 -0.24 -0.13    -0.303    19.113
ATOM     41  H   UNL d   1     -18.628   2.766   8.695 -0.10 +0.06    +0.222    19.113
ATOM     42  O   UNL d   1     -15.680   1.471  12.145 -0.13 +0.04    -0.278    19.113
ATOM     43  P   UNL d   1     -15.204  -0.045  12.290 -0.21 -0.00    +0.473    19.113
ATOM     44  O   UNL d   1     -15.222  -0.643  13.654 -0.22 -0.01    -0.228    19.113
ATOM     45  O   UNL d   1     -16.124  -0.801  11.235 -0.15 -0.02    -0.303    19.113
ATOM     46  H   UNL d   1     -16.943  -0.300  11.050 +0.10 +0.03    +0.222    19.113
ATOM     47  O   UNL d   1     -13.783  -0.055  11.549 -0.35 +0.01    -0.303    19.113
ATOM     48  H   UNL d   1     -13.595   0.841  11.198 -0.43 -0.05    +0.222    19.113
TER
ENDMDL
MODEL        5
USER    Run = 5
USER    Cluster Rank = 26
USER    Number of conformations in this cluster = 1
USER  
USER    RMSD from reference structure       = 20.733 A
USER  
USER    Estimated Free Energy of Binding    =   +1.92 kcal/mol  [=(1)+(2)+(3)-(4)]
USER    
USER    (1) Final Intermolecular Energy     =   -5.24 kcal/mol
USER        vdW + Hbond + desolv Energy     =   -4.96 kcal/mol
USER        Electrostatic Energy            =   -0.28 kcal/mol
USER    (2) Final Total Internal Energy     =  -11.63 kcal/mol
USER    (3) Torsional Free Energy           =   +7.16 kcal/mol
USER    (4) Unbound System's Energy  [=(2)] =  -11.63 kcal/mol
USER    
USER    
USER  
USER    DPF = D:/Protein_go_brrr/autodock/final/AncMH_nat/IHP/dock.dpf
USER    NEWDPF move	IHP_ideal_opt.pdbqt
USER    NEWDPF about	0.035000 0.082000 -0.065000
USER    NEWDPF tran0	-10.166268 -9.316143 18.644771
USER    NEWDPF axisangle0	-0.103892 -0.959436 0.262086 -124.247684
USER    NEWDPF quaternion0	-0.091836 -0.848103 0.231674 -0.467562
USER    NEWDPF dihe0	120.41 72.67 169.37 -27.71 21.83 -135.85 73.67 -63.13 81.34 60.04 -12.99 81.01 27.07 82.17 6.95 -159.32 3.79 149.98 1.49 -47.14 148.42 3.68 118.51 -179.10 
USER  
USER                              x       y       z    vdW   Elec        q     RMS 
ATOM      1  C   UNL d   1     -11.457  -9.870  19.650 -0.03 +0.02    +0.194    20.733
ATOM      2  C   UNL d   1     -10.419 -10.926  19.267 -0.03 +0.02    +0.194    20.733
ATOM      3  C   UNL d   1     -10.029 -10.827  17.790 -0.11 +0.04    +0.194    20.733
ATOM      4  C   UNL d   1      -9.604  -9.421  17.374 -0.20 +0.04    +0.194    20.733
ATOM      5  C   UNL d   1     -10.553  -8.323  17.836 -0.19 +0.04    +0.194    20.733
ATOM      6  C   UNL d   1     -10.992  -8.457  19.295 -0.06 +0.03    +0.194    20.733
ATOM      7  O   UNL d   1     -11.637  -9.916  21.068 -0.00 -0.02    -0.278    20.733
ATOM      8  P   UNL d   1     -13.098 -10.219  21.638 +0.01 +0.04    +0.473    20.733
ATOM      9  O   UNL d   1     -13.503 -11.651  21.608 -0.00 -0.01    -0.228    20.733
ATOM     10  O   UNL d   1     -13.075  -9.604  23.109 +0.00 -0.01    -0.303    20.733
ATOM     11  H   UNL d   1     -12.199  -9.753  23.512 +0.00 +0.00    +0.222    20.733
ATOM     12  O   UNL d   1     -14.058  -9.211  20.871 -0.01 -0.06    -0.303    20.733
ATOM     13  H   UNL d   1     -13.719  -8.956  19.984 +0.03 +0.07    +0.222    20.733
ATOM     14  O   UNL d   1      -9.243 -10.735  20.063 -0.01 -0.01    -0.278    20.733
ATOM     15  P   UNL d   1      -9.244 -11.411  21.515 +0.00 -0.00    +0.473    20.733
ATOM     16  O   UNL d   1      -7.980 -12.089  21.941 -0.00 +0.01    -0.228    20.733
ATOM     17  O   UNL d   1      -9.672 -10.229  22.493 -0.00 +0.00    -0.303    20.733
ATOM     18  H   UNL d   1     -10.623 -10.027  22.405 +0.00 +0.00    +0.222    20.733
ATOM     19  O   UNL d   1     -10.548 -12.323  21.526 +0.00 +0.00    -0.303    20.733
ATOM     20  H   UNL d   1     -11.334 -11.823  21.814 +0.00 +0.00    +0.222    20.733
ATOM     21  O   UNL d   1     -12.112  -7.592  19.471 -0.05 -0.07    -0.278    20.733
ATOM     22  P   UNL d   1     -13.288  -7.591  18.393 -0.10 +0.29    +0.473    20.733
ATOM     23  O   UNL d   1     -13.676  -8.890  17.772 -0.14 -0.17    -0.228    20.733
ATOM     24  O   UNL d   1     -14.455  -6.855  19.186 -0.09 -0.23    -0.303    20.733
ATOM     25  H   UNL d   1     -14.487  -7.228  20.104 +0.03 +0.10    +0.222    20.733
ATOM     26  O   UNL d   1     -12.802  -6.445  17.382 -0.22 -0.18    -0.303    20.733
ATOM     27  H   UNL d   1     -11.871  -6.613  17.129 +0.11 +0.10    +0.222    20.733
ATOM     28  O   UNL d   1      -8.880 -11.641  17.595 -0.09 -0.08    -0.278    20.733
ATOM     29  P   UNL d   1      -8.961 -12.940  16.676 -0.13 +0.25    +0.473    20.733
ATOM     30  O   UNL d   1      -7.673 -13.644  16.447 -0.27 -0.11    -0.228    20.733
ATOM     31  O   UNL d   1     -10.107 -13.753  17.442 -0.10 -0.01    -0.303    20.733
ATOM     32  H   UNL d   1     -10.820 -13.972  16.799 -0.17 -0.03    +0.222    20.733
ATOM     33  O   UNL d   1      -9.720 -12.391  15.389 -0.20 -0.47    -0.303    20.733
ATOM     34  H   UNL d   1      -9.978 -11.449  15.545 +0.04 +0.23    +0.222    20.733
ATOM     35  O   UNL d   1      -9.819  -7.105  17.728 -0.26 -0.03    -0.278    20.733
ATOM     36  P   UNL d   1      -9.375  -6.315  19.041 -0.18 +0.02    +0.473    20.733
ATOM     37  O   UNL d   1      -8.725  -7.143  20.104 -0.08 +0.00    -0.228    20.733
ATOM     38  O   UNL d   1      -8.441  -5.176  18.436 -0.32 +0.02    -0.303    20.733
ATOM     39  H   UNL d   1      -8.544  -5.161  17.460 -0.33 -0.03    +0.222    20.733
ATOM     40  O   UNL d   1     -10.708  -5.545  19.441 -0.13 -0.03    -0.303    20.733
ATOM     41  H   UNL d   1     -11.500  -5.940  19.012 +0.07 +0.05    +0.222    20.733
ATOM     42  O   UNL d   1      -9.597  -9.397  15.942 -0.26 -0.12    -0.278    20.733
ATOM     43  P   UNL d   1     -10.987  -9.466  15.163 -0.25 +0.23    +0.473    20.733
ATOM     44  O   UNL d   1     -10.946  -9.799  13.712 -0.49 -0.15    -0.228    20.733
ATOM     45  O   UNL d   1     -11.829 -10.492  16.042 -0.19 -0.12    -0.303    20.733
ATOM     46  H   UNL d   1     -11.654 -11.417  15.777 -0.30 +0.06    +0.222    20.733
ATOM     47  O   UNL d   1     -11.685  -8.071  15.534 -0.37 -0.11    -0.303    20.733
ATOM     48  H   UNL d   1     -12.341  -8.218  16.246 +0.12 +0.12    +0.222    20.733
TER
ENDMDL
MODEL       58
USER    Run = 58
USER    Cluster Rank = 27
USER    Number of conformations in this cluster = 1
USER  
USER    RMSD from reference structure       = 16.586 A
USER  
USER    Estimated Free Energy of Binding    =   +2.01 kcal/mol  [=(1)+(2)+(3)-(4)]
USER    
USER    (1) Final Intermolecular Energy     =   -5.15 kcal/mol
USER        vdW + Hbond + desolv Energy     =   -4.58 kcal/mol
USER        Electrostatic Energy            =   -0.56 kcal/mol
USER    (2) Final Total Internal Energy     =  -12.94 kcal/mol
USER    (3) Torsional Free Energy           =   +7.16 kcal/mol
USER    (4) Unbound System's Energy  [=(2)] =  -12.94 kcal/mol
USER    
USER    
USER  
USER    DPF = D:/Protein_go_brrr/autodock/final/AncMH_nat/IHP/dock.dpf
USER    NEWDPF move	IHP_ideal_opt.pdbqt
USER    NEWDPF about	0.035000 0.082000 -0.065000
USER    NEWDPF tran0	5.153953 -11.703021 14.409606
USER    NEWDPF axisangle0	0.117457 0.193904 0.973964 -112.227125
USER    NEWDPF quaternion0	0.097506 0.160968 0.808530 -0.557549
USER    NEWDPF dihe0	-107.93 31.52 25.23 112.14 64.73 -164.19 -126.84 -114.95 5.26 90.52 152.59 115.88 -179.91 -82.71 7.28 66.50 -26.70 -175.49 67.11 8.57 130.96 -9.39 -43.04 14.54 
USER  
USER                              x       y       z    vdW   Elec        q     RMS 
ATOM      1  C   UNL d   1       5.743 -10.124  14.790 -0.13 -0.07    +0.194    16.586
ATOM      2  C   UNL d   1       6.767 -11.082  14.177 -0.07 -0.06    +0.194    16.586
ATOM      3  C   UNL d   1       6.665 -12.483  14.783 -0.02 -0.04    +0.194    16.586
ATOM      4  C   UNL d   1       5.248 -13.052  14.747 -0.05 -0.04    +0.194    16.586
ATOM      5  C   UNL d   1       4.179 -12.087  15.242 -0.14 -0.05    +0.194    16.586
ATOM      6  C   UNL d   1       4.318 -10.669  14.684 -0.21 -0.06    +0.194    16.586
ATOM      7  O   UNL d   1       5.786  -8.898  14.056 -0.06 +0.15    -0.278    16.586
ATOM      8  P   UNL d   1       7.187  -8.144  13.919 -0.06 -0.26    +0.473    16.586
ATOM      9  O   UNL d   1       7.171  -6.706  14.305 -0.09 +0.11    -0.228    16.586
ATOM     10  O   UNL d   1       8.186  -9.020  14.802 -0.02 +0.10    -0.303    16.586
ATOM     11  H   UNL d   1       8.643  -9.667  14.233 +0.02 -0.07    +0.222    16.586
ATOM     12  O   UNL d   1       7.683  -8.460  12.443 -0.12 +0.26    -0.303    16.586
ATOM     13  H   UNL d   1       7.180  -9.188  12.015 -0.13 -0.28    +0.222    16.586
ATOM     14  O   UNL d   1       6.533 -11.176  12.767 -0.10 +0.13    -0.278    16.586
ATOM     15  P   UNL d   1       7.829 -11.224  11.827 -0.05 -0.19    +0.473    16.586
ATOM     16  O   UNL d   1       9.065 -10.564  12.354 -0.03 +0.07    -0.228    16.586
ATOM     17  O   UNL d   1       8.036 -12.775  11.531 -0.01 +0.07    -0.303    16.586
ATOM     18  H   UNL d   1       8.339 -13.248  12.330 +0.02 -0.04    +0.222    16.586
ATOM     19  O   UNL d   1       7.316 -10.695  10.417 -0.49 +0.18    -0.303    16.586
ATOM     20  H   UNL d   1       6.857  -9.839  10.498 -0.47 -0.46    +0.222    16.586
ATOM     21  O   UNL d   1       3.489  -9.828  15.483 -0.18 +0.11    -0.278    16.586
ATOM     22  P   UNL d   1       3.208 -10.210  17.006 -0.13 -0.17    +0.473    16.586
ATOM     23  O   UNL d   1       4.320 -10.810  17.799 -0.04 +0.05    -0.228    16.586
ATOM     24  O   UNL d   1       2.638  -8.841  17.585 -0.16 +0.15    -0.303    16.586
ATOM     25  H   UNL d   1       2.648  -8.170  16.856 -0.41 -0.19    +0.222    16.586
ATOM     26  O   UNL d   1       1.877 -11.095  16.880 -0.14 +0.14    -0.303    16.586
ATOM     27  H   UNL d   1       1.808 -11.443  15.967 -0.38 -0.14    +0.222    16.586
ATOM     28  O   UNL d   1       7.443 -13.357  13.975 -0.00 +0.05    -0.278    16.586
ATOM     29  P   UNL d   1       8.898 -13.804  14.444 +0.01 -0.07    +0.473    16.586
ATOM     30  O   UNL d   1       9.038 -14.113  15.890 +0.00 +0.03    -0.228    16.586
ATOM     31  O   UNL d   1       9.166 -15.001  13.416 +0.00 +0.04    -0.303    16.586
ATOM     32  H   UNL d   1       8.638 -15.783  13.700 +0.00 -0.02    +0.222    16.586
ATOM     33  O   UNL d   1       9.809 -12.634  13.866 +0.00 +0.05    -0.303    16.586
ATOM     34  H   UNL d   1       9.658 -12.560  12.891 +0.01 -0.04    +0.222    16.586
ATOM     35  O   UNL d   1       2.939 -12.606  14.767 -0.15 +0.07    -0.278    16.586
ATOM     36  P   UNL d   1       2.134 -13.682  15.626 -0.07 -0.09    +0.473    16.586
ATOM     37  O   UNL d   1       2.525 -13.781  17.066 -0.04 +0.04    -0.228    16.586
ATOM     38  O   UNL d   1       0.626 -13.229  15.387 -0.16 +0.09    -0.303    16.586
ATOM     39  H   UNL d   1       0.492 -12.340  15.780 -0.49 -0.12    +0.222    16.586
ATOM     40  O   UNL d   1       2.283 -14.999  14.746 -0.06 +0.03    -0.303    16.586
ATOM     41  H   UNL d   1       3.216 -15.155  14.479 +0.03 -0.02    +0.222    16.586
ATOM     42  O   UNL d   1       5.233 -14.183  15.625 -0.01 +0.04    -0.278    16.586
ATOM     43  P   UNL d   1       5.429 -15.641  15.008 -0.00 -0.05    +0.473    16.586
ATOM     44  O   UNL d   1       4.441 -16.687  15.391 -0.01 +0.02    -0.228    16.586
ATOM     45  O   UNL d   1       5.497 -15.352  13.444 -0.01 +0.03    -0.303    16.586
ATOM     46  H   UNL d   1       6.382 -15.030  13.178 +0.01 -0.03    +0.222    16.586
ATOM     47  O   UNL d   1       6.959 -15.979  15.343 -0.00 +0.03    -0.303    16.586
ATOM     48  H   UNL d   1       7.541 -15.360  14.855 +0.00 -0.03    +0.222    16.586
TER
ENDMDL
MODEL       46
USER    Run = 46
USER    Cluster Rank = 28
USER    Number of conformations in this cluster = 1
USER  
USER    RMSD from reference structure       = 17.159 A
USER  
USER    Estimated Free Energy of Binding    =   +2.18 kcal/mol  [=(1)+(2)+(3)-(4)]
USER    
USER    (1) Final Intermolecular Energy     =   -4.98 kcal/mol
USER        vdW + Hbond + desolv Energy     =   -4.17 kcal/mol
USER        Electrostatic Energy            =   -0.80 kcal/mol
USER    (2) Final Total Internal Energy     =  -11.94 kcal/mol
USER    (3) Torsional Free Energy           =   +7.16 kcal/mol
USER    (4) Unbound System's Energy  [=(2)] =  -11.94 kcal/mol
USER    
USER    
USER  
USER    DPF = D:/Protein_go_brrr/autodock/final/AncMH_nat/IHP/dock.dpf
USER    NEWDPF move	IHP_ideal_opt.pdbqt
USER    NEWDPF about	0.035000 0.082000 -0.065000
USER    NEWDPF tran0	15.877873 4.840739 -11.622091
USER    NEWDPF axisangle0	-0.888551 0.300536 -0.346633 -177.575286
USER    NEWDPF quaternion0	-0.888352 0.300469 -0.346555 -0.021158
USER    NEWDPF dihe0	166.38 71.60 150.05 127.14 9.90 175.39 -44.21 3.79 9.70 -35.06 57.19 155.31 -79.02 91.23 149.73 28.96 27.26 -78.68 15.82 -26.27 -25.59 -44.35 -176.86 -156.54 
USER  
USER                              x       y       z    vdW   Elec        q     RMS 
ATOM      1  C   UNL d   1      17.562   4.745 -11.248 -0.02 -0.10    +0.194    17.159
ATOM      2  C   UNL d   1      17.024   6.151 -11.523 -0.03 -0.11    +0.194    17.159
ATOM      3  C   UNL d   1      16.080   6.171 -12.727 -0.09 -0.16    +0.194    17.159
ATOM      4  C   UNL d   1      14.963   5.134 -12.632 -0.15 -0.21    +0.194    17.159
ATOM      5  C   UNL d   1      15.441   3.740 -12.246 -0.07 -0.16    +0.194    17.159
ATOM      6  C   UNL d   1      16.434   3.726 -11.082 -0.04 -0.11    +0.194    17.159
ATOM      7  O   UNL d   1      18.290   4.779 -10.019 -0.05 +0.15    -0.278    17.159
ATOM      8  P   UNL d   1      19.885   4.701 -10.079 -0.03 -0.23    +0.473    17.159
ATOM      9  O   UNL d   1      20.437   3.988 -11.263 -0.01 +0.08    -0.228    17.159
ATOM     10  O   UNL d   1      20.350   6.224  -9.989 -0.02 +0.12    -0.303    17.159
ATOM     11  H   UNL d   1      19.581   6.789  -9.787 +0.02 -0.09    +0.222    17.159
ATOM     12  O   UNL d   1      20.324   4.135  -8.661 -0.11 +0.24    -0.303    17.159
ATOM     13  H   UNL d   1      19.629   3.585  -8.233 +0.05 -0.25    +0.222    17.159
ATOM     14  O   UNL d   1      16.306   6.610 -10.371 -0.06 +0.15    -0.278    17.159
ATOM     15  P   UNL d   1      17.036   7.709  -9.464 -0.05 -0.19    +0.473    17.159
ATOM     16  O   UNL d   1      16.157   8.721  -8.797 -0.11 +0.08    -0.228    17.159
ATOM     17  O   UNL d   1      17.888   6.852  -8.427 -0.09 +0.13    -0.303    17.159
ATOM     18  H   UNL d   1      18.471   6.219  -8.889 +0.04 -0.11    +0.222    17.159
ATOM     19  O   UNL d   1      18.176   8.303 -10.401 -0.02 +0.11    -0.303    17.159
ATOM     20  H   UNL d   1      17.803   8.807 -11.147 +0.03 -0.08    +0.222    17.159
ATOM     21  O   UNL d   1      17.036   2.434 -11.070 -0.02 +0.14    -0.278    17.159
ATOM     22  P   UNL d   1      17.053   1.581  -9.722 -0.04 -0.26    +0.473    17.159
ATOM     23  O   UNL d   1      17.690   0.232  -9.750 -0.05 +0.10    -0.228    17.159
ATOM     24  O   UNL d   1      17.706   2.606  -8.696 -0.21 +0.25    -0.303    17.159
ATOM     25  H   UNL d   1      18.583   2.890  -9.059 +0.06 -0.17    +0.222    17.159
ATOM     26  O   UNL d   1      15.509   1.620  -9.293 -0.15 +0.18    -0.303    17.159
ATOM     27  H   UNL d   1      15.001   2.120  -9.964 +0.11 -0.14    +0.222    17.159
ATOM     28  O   UNL d   1      15.424   7.433 -12.735 -0.14 +0.33    -0.278    17.159
ATOM     29  P   UNL d   1      16.251   8.768 -13.000 -0.07 -0.37    +0.473    17.159
ATOM     30  O   UNL d   1      17.694   8.579 -13.297 -0.02 +0.11    -0.228    17.159
ATOM     31  O   UNL d   1      15.354   9.428 -14.149 -0.09 +0.38    -0.303    17.159
ATOM     32  H   UNL d   1      14.532   8.895 -14.252 -0.49 -0.61    +0.222    17.159
ATOM     33  O   UNL d   1      15.887   9.645 -11.722 -0.08 +0.16    -0.303    17.159
ATOM     34  H   UNL d   1      16.218   9.184 -10.912 +0.06 -0.10    +0.222    17.159
ATOM     35  O   UNL d   1      14.278   3.038 -11.814 -0.12 +0.31    -0.278    17.159
ATOM     36  P   UNL d   1      13.249   3.726 -10.808 -0.00 -0.50    +0.473    17.159
ATOM     37  O   UNL d   1      12.420   4.828 -11.386 -0.25 +0.29    -0.228    17.159
ATOM     38  O   UNL d   1      12.408   2.475 -10.295 -0.28 +0.31    -0.303    17.159
ATOM     39  H   UNL d   1      11.967   2.048 -11.061 -0.39 -0.40    +0.222    17.159
ATOM     40  O   UNL d   1      14.179   4.095  -9.572 -0.15 +0.18    -0.303    17.159
ATOM     41  H   UNL d   1      14.386   3.306  -9.023 +0.14 -0.13    +0.222    17.159
ATOM     42  O   UNL d   1      14.379   5.034 -13.935 -0.10 +0.47    -0.278    17.159
ATOM     43  P   UNL d   1      14.934   3.933 -14.946 -0.06 -0.54    +0.473    17.159
ATOM     44  O   UNL d   1      16.384   3.597 -14.868 -0.02 +0.15    -0.228    17.159
ATOM     45  O   UNL d   1      13.966   2.698 -14.684 -0.09 +0.42    -0.303    17.159
ATOM     46  H   UNL d   1      13.470   2.803 -13.848 -0.42 -0.48    +0.222    17.159
ATOM     47  O   UNL d   1      14.420   4.453 -16.373 -0.06 +0.41    -0.303    17.159
ATOM     48  H   UNL d   1      13.618   5.000 -16.247 -0.44 -0.56    +0.222    17.159
TER
ENDMDL
MODEL       39
USER    Run = 39
USER    Cluster Rank = 29
USER    Number of conformations in this cluster = 1
USER  
USER    RMSD from reference structure       = 18.337 A
USER  
USER    Estimated Free Energy of Binding    =   +2.19 kcal/mol  [=(1)+(2)+(3)-(4)]
USER    
USER    (1) Final Intermolecular Energy     =   -4.96 kcal/mol
USER        vdW + Hbond + desolv Energy     =   -4.83 kcal/mol
USER        Electrostatic Energy            =   -0.13 kcal/mol
USER    (2) Final Total Internal Energy     =  -13.64 kcal/mol
USER    (3) Torsional Free Energy           =   +7.16 kcal/mol
USER    (4) Unbound System's Energy  [=(2)] =  -13.64 kcal/mol
USER    
USER    
USER  
USER    DPF = D:/Protein_go_brrr/autodock/final/AncMH_nat/IHP/dock.dpf
USER    NEWDPF move	IHP_ideal_opt.pdbqt
USER    NEWDPF about	0.035000 0.082000 -0.065000
USER    NEWDPF tran0	-17.140314 -1.498709 13.607534
USER    NEWDPF axisangle0	-0.538295 -0.687192 -0.487858 79.509025
USER    NEWDPF quaternion0	-0.344240 -0.439459 -0.311985 0.768791
USER    NEWDPF dihe0	-159.52 16.00 77.40 79.28 -14.34 -157.48 0.02 -145.12 157.97 14.00 75.07 68.83 27.26 -54.81 174.21 -46.44 120.75 -88.78 -131.59 -15.63 -172.40 143.21 141.06 -164.02 
USER  
USER                              x       y       z    vdW   Elec        q     RMS 
ATOM      1  C   UNL d   1     -15.754  -1.225  12.615 -0.23 +0.01    +0.194    18.337
ATOM      2  C   UNL d   1     -16.463  -2.564  12.405 -0.24 +0.03    +0.194    18.337
ATOM      3  C   UNL d   1     -16.856  -3.211  13.734 -0.20 +0.07    +0.194    18.337
ATOM      4  C   UNL d   1     -17.645  -2.277  14.648 -0.05 +0.06    +0.194    18.337
ATOM      5  C   UNL d   1     -17.034  -0.890  14.795 -0.04 +0.03    +0.194    18.337
ATOM      6  C   UNL d   1     -16.584  -0.268  13.471 -0.10 +0.02    +0.194    18.337
ATOM      7  O   UNL d   1     -15.577  -0.609  11.337 -0.22 -0.01    -0.278    18.337
ATOM      8  P   UNL d   1     -16.508   0.632  10.956 -0.19 +0.04    +0.473    18.337
ATOM      9  O   UNL d   1     -16.105   1.931  11.559 -0.23 +0.02    -0.228    18.337
ATOM     10  O   UNL d   1     -16.498   0.649   9.361 -0.75 -0.10    -0.303    18.337
ATOM     11  H   UNL d   1     -16.584  -0.262   9.024 +0.09 +0.07    +0.222    18.337
ATOM     12  O   UNL d   1     -17.988   0.149  11.274 -0.05 -0.05    -0.303    18.337
ATOM     13  H   UNL d   1     -18.106  -0.823  11.177 +0.07 +0.04    +0.222    18.337
ATOM     14  O   UNL d   1     -17.651  -2.347  11.633 -0.09 -0.06    -0.278    18.337
ATOM     15  P   UNL d   1     -17.703  -3.037  10.189 -0.09 +0.10    +0.473    18.337
ATOM     16  O   UNL d   1     -16.513  -3.853   9.791 -0.79 -0.05    -0.228    18.337
ATOM     17  O   UNL d   1     -19.052  -3.883  10.212 -0.07 -0.10    -0.303    18.337
ATOM     18  H   UNL d   1     -19.362  -4.027  11.127 +0.05 +0.08    +0.222    18.337
ATOM     19  O   UNL d   1     -18.085  -1.853   9.198 -0.04 -0.08    -0.303    18.337
ATOM     20  H   UNL d   1     -17.901  -0.980   9.591 +0.08 +0.05    +0.222    18.337
ATOM     21  O   UNL d   1     -15.744   0.836  13.798 -0.14 -0.01    -0.278    18.337
ATOM     22  P   UNL d   1     -14.191   0.595  14.075 -0.13 -0.01    +0.473    18.337
ATOM     23  O   UNL d   1     -13.464   1.585  14.922 -0.29 +0.02    -0.228    18.337
ATOM     24  O   UNL d   1     -14.188  -0.894  14.636 -0.28 -0.01    -0.303    18.337
ATOM     25  H   UNL d   1     -14.446  -0.863  15.593 +0.09 +0.01    +0.222    18.337
ATOM     26  O   UNL d   1     -13.624   0.390  12.590 -0.18 +0.03    -0.303    18.337
ATOM     27  H   UNL d   1     -14.185   0.886  11.959 -0.42 -0.07    +0.222    18.337
ATOM     28  O   UNL d   1     -17.738  -4.288  13.442 -0.11 -0.17    -0.278    18.337
ATOM     29  P   UNL d   1     -19.296  -4.155  13.745 -0.04 +0.22    +0.473    18.337
ATOM     30  O   UNL d   1     -19.676  -4.199  15.180 -0.03 -0.11    -0.228    18.337
ATOM     31  O   UNL d   1     -19.622  -2.806  12.948 -0.02 -0.08    -0.303    18.337
ATOM     32  H   UNL d   1     -19.280  -2.895  12.028 +0.04 +0.06    +0.222    18.337
ATOM     33  O   UNL d   1     -19.916  -5.279  12.802 -0.05 -0.15    -0.303    18.337
ATOM     34  H   UNL d   1     -20.062  -4.898  11.902 +0.05 +0.10    +0.222    18.337
ATOM     35  O   UNL d   1     -18.071  -0.062  15.316 -0.01 -0.05    -0.278    18.337
ATOM     36  P   UNL d   1     -19.078   0.684  14.329 +0.01 +0.10    +0.473    18.337
ATOM     37  O   UNL d   1     -20.316   1.232  14.964 -0.01 -0.05    -0.228    18.337
ATOM     38  O   UNL d   1     -18.135   1.787  13.674 -0.05 -0.06    -0.303    18.337
ATOM     39  H   UNL d   1     -17.694   1.405  12.884 +0.07 +0.03    +0.222    18.337
ATOM     40  O   UNL d   1     -19.275  -0.388  13.170 -0.00 -0.06    -0.303    18.337
ATOM     41  H   UNL d   1     -18.491  -0.974  13.079 +0.04 +0.04    +0.222    18.337
ATOM     42  O   UNL d   1     -17.649  -2.875  15.949 -0.04 -0.13    -0.278    18.337
ATOM     43  P   UNL d   1     -16.413  -2.613  16.922 -0.04 +0.18    +0.473    18.337
ATOM     44  O   UNL d   1     -15.047  -2.679  16.331 -0.17 -0.05    -0.228    18.337
ATOM     45  O   UNL d   1     -16.773  -1.206  17.573 -0.01 -0.06    -0.303    18.337
ATOM     46  H   UNL d   1     -17.639  -0.877  17.257 +0.02 +0.04    +0.222    18.337
ATOM     47  O   UNL d   1     -16.688  -3.616  18.142 -0.09 -0.18    -0.303    18.337
ATOM     48  H   UNL d   1     -16.897  -3.096  18.946 +0.02 +0.08    +0.222    18.337
TER
ENDMDL
MODEL       29
USER    Run = 29
USER    Cluster Rank = 30
USER    Number of conformations in this cluster = 1
USER  
USER    RMSD from reference structure       = 11.646 A
USER  
USER    Estimated Free Energy of Binding    =   +2.22 kcal/mol  [=(1)+(2)+(3)-(4)]
USER    
USER    (1) Final Intermolecular Energy     =   -4.94 kcal/mol
USER        vdW + Hbond + desolv Energy     =   -4.03 kcal/mol
USER        Electrostatic Energy            =   -0.91 kcal/mol
USER    (2) Final Total Internal Energy     =  -11.97 kcal/mol
USER    (3) Torsional Free Energy           =   +7.16 kcal/mol
USER    (4) Unbound System's Energy  [=(2)] =  -11.97 kcal/mol
USER    
USER    
USER  
USER    DPF = D:/Protein_go_brrr/autodock/final/AncMH_nat/IHP/dock.dpf
USER    NEWDPF move	IHP_ideal_opt.pdbqt
USER    NEWDPF about	0.035000 0.082000 -0.065000
USER    NEWDPF tran0	-10.626453 0.660770 -9.574557
USER    NEWDPF axisangle0	0.325653 0.211677 0.921490 -149.846503
USER    NEWDPF quaternion0	0.314443 0.204391 0.889770 -0.260113
USER    NEWDPF dihe0	130.29 108.90 -10.84 121.90 97.82 -77.50 -42.14 -124.72 32.80 -17.49 155.92 89.87 -75.80 -79.85 75.67 176.69 159.45 84.59 -144.03 -34.15 -179.64 -25.37 9.54 -37.04 
USER  
USER                              x       y       z    vdW   Elec        q     RMS 
ATOM      1  C   UNL d   1     -10.639   2.254  -8.906 -0.07 -0.20    +0.194    11.646
ATOM      2  C   UNL d   1      -9.783   2.070 -10.161 -0.05 -0.20    +0.194    11.646
ATOM      3  C   UNL d   1      -8.974   0.772 -10.110 -0.15 -0.12    +0.194    11.646
ATOM      4  C   UNL d   1      -9.827  -0.457  -9.808 -0.09 -0.04    +0.194    11.646
ATOM      5  C   UNL d   1     -10.780  -0.278  -8.633 -0.09 -0.04    +0.194    11.646
ATOM      6  C   UNL d   1     -11.544   1.048  -8.652 -0.07 -0.07    +0.194    11.646
ATOM      7  O   UNL d   1     -11.486   3.388  -9.106 -0.08 +0.22    -0.278    11.646
ATOM      8  P   UNL d   1     -12.954   3.145  -9.686 -0.00 -0.13    +0.473    11.646
ATOM      9  O   UNL d   1     -13.123   1.894 -10.474 -0.00 +0.04    -0.228    11.646
ATOM     10  O   UNL d   1     -13.894   3.207  -8.398 -0.00 +0.04    -0.303    11.646
ATOM     11  H   UNL d   1     -13.386   2.936  -7.610 +0.02 -0.04    +0.222    11.646
ATOM     12  O   UNL d   1     -13.330   4.494 -10.437 -0.00 +0.06    -0.303    11.646
ATOM     13  H   UNL d   1     -12.746   4.683 -11.206 +0.01 -0.05    +0.222    11.646
ATOM     14  O   UNL d   1     -10.640   2.028 -11.309 -0.03 +0.13    -0.278    11.646
ATOM     15  P   UNL d   1     -10.812   3.396 -12.124 -0.01 -0.19    +0.473    11.646
ATOM     16  O   UNL d   1     -10.565   4.664 -11.369 -0.07 +0.14    -0.228    11.646
ATOM     17  O   UNL d   1      -9.842   3.225 -13.376 -0.01 +0.10    -0.303    11.646
ATOM     18  H   UNL d   1      -9.043   3.778 -13.281 +0.04 -0.10    +0.222    11.646
ATOM     19  O   UNL d   1     -12.243   3.273 -12.809 +0.00 +0.06    -0.303    11.646
ATOM     20  H   UNL d   1     -12.955   3.204 -12.146 +0.01 -0.04    +0.222    11.646
ATOM     21  O   UNL d   1     -12.109   1.216  -7.354 -0.04 +0.07    -0.278    11.646
ATOM     22  P   UNL d   1     -11.189   1.709  -6.147 -0.10 -0.20    +0.473    11.646
ATOM     23  O   UNL d   1     -11.345   3.114  -5.671 -0.11 +0.13    -0.228    11.646
ATOM     24  O   UNL d   1     -11.473   0.596  -5.046 -0.12 -0.00    -0.303    11.646
ATOM     25  H   UNL d   1     -11.653  -0.260  -5.512 +0.08 +0.02    +0.222    11.646
ATOM     26  O   UNL d   1      -9.728   1.300  -6.663 -0.18 +0.21    -0.303    11.646
ATOM     27  H   UNL d   1      -9.234   2.110  -6.906 -0.31 -0.41    +0.222    11.646
ATOM     28  O   UNL d   1      -8.438   0.550 -11.408 -0.06 +0.11    -0.278    11.646
ATOM     29  P   UNL d   1      -7.065   1.232 -11.840 -0.05 -0.19    +0.473    11.646
ATOM     30  O   UNL d   1      -6.264   0.481 -12.840 -0.29 +0.04    -0.228    11.646
ATOM     31  O   UNL d   1      -7.595   2.679 -12.272 -0.58 +0.19    -0.303    11.646
ATOM     32  H   UNL d   1      -8.539   2.760 -12.003 +0.03 -0.17    +0.222    11.646
ATOM     33  O   UNL d   1      -6.376   1.515 -10.432 -0.30 +0.24    -0.303    11.646
ATOM     34  H   UNL d   1      -6.913   2.184  -9.941 -0.30 -0.44    +0.222    11.646
ATOM     35  O   UNL d   1     -11.745  -1.320  -8.754 -0.04 +0.00    -0.278    11.646
ATOM     36  P   UNL d   1     -12.267  -2.089  -7.458 -0.04 +0.06    +0.473    11.646
ATOM     37  O   UNL d   1     -12.808  -3.463  -7.697 -0.05 -0.06    -0.228    11.646
ATOM     38  O   UNL d   1     -10.984  -2.047  -6.515 -0.14 -0.00    -0.303    11.646
ATOM     39  H   UNL d   1     -10.178  -2.157  -7.065 -0.45 -0.07    +0.222    11.646
ATOM     40  O   UNL d   1     -13.255  -1.027  -6.807 -0.02 -0.04    -0.303    11.646
ATOM     41  H   UNL d   1     -12.794  -0.186  -6.590 +0.05 +0.01    +0.222    11.646
ATOM     42  O   UNL d   1      -8.925  -1.513  -9.461 -0.09 -0.00    -0.278    11.646
ATOM     43  P   UNL d   1      -9.319  -3.015  -9.824 -0.05 +0.07    +0.473    11.646
ATOM     44  O   UNL d   1      -8.300  -3.842 -10.529 -0.16 -0.04    -0.228    11.646
ATOM     45  O   UNL d   1      -9.776  -3.605  -8.418 -0.06 -0.04    -0.303    11.646
ATOM     46  H   UNL d   1     -10.706  -3.375  -8.219 +0.01 +0.03    +0.222    11.646
ATOM     47  O   UNL d   1     -10.723  -2.853 -10.581 -0.02 -0.03    -0.303    11.646
ATOM     48  H   UNL d   1     -11.451  -2.917  -9.928 +0.04 +0.03    +0.222    11.646
TER
ENDMDL
MODEL       78
USER    Run = 78
USER    Cluster Rank = 31
USER    Number of conformations in this cluster = 1
USER  
USER    RMSD from reference structure       = 13.239 A
USER  
USER    Estimated Free Energy of Binding    =   +2.29 kcal/mol  [=(1)+(2)+(3)-(4)]
USER    
USER    (1) Final Intermolecular Energy     =   -4.87 kcal/mol
USER        vdW + Hbond + desolv Energy     =   -4.47 kcal/mol
USER        Electrostatic Energy            =   -0.40 kcal/mol
USER    (2) Final Total Internal Energy     =  -12.40 kcal/mol
USER    (3) Torsional Free Energy           =   +7.16 kcal/mol
USER    (4) Unbound System's Energy  [=(2)] =  -12.40 kcal/mol
USER    
USER    
USER  
USER    DPF = D:/Protein_go_brrr/autodock/final/AncMH_nat/IHP/dock.dpf
USER    NEWDPF move	IHP_ideal_opt.pdbqt
USER    NEWDPF about	0.035000 0.082000 -0.065000
USER    NEWDPF tran0	-4.661513 -12.091596 -10.515563
USER    NEWDPF axisangle0	0.981763 0.153185 -0.112583 -164.565776
USER    NEWDPF quaternion0	0.972872 0.151798 -0.111563 -0.134282
USER    NEWDPF dihe0	-173.56 -29.68 111.06 110.38 46.98 179.93 19.86 133.45 79.95 71.89 -127.20 115.78 -122.33 96.34 17.78 -54.09 104.93 160.18 44.68 -3.70 121.90 146.12 145.01 -170.58 
USER  
USER                              x       y       z    vdW   Elec        q     RMS 
ATOM      1  C   UNL d   1      -3.926 -11.177 -11.783 -0.10 -0.03    +0.194    13.239
ATOM      2  C   UNL d   1      -5.282 -10.662 -11.298 -0.06 +0.01    +0.194    13.239
ATOM      3  C   UNL d   1      -6.280 -11.803 -11.088 -0.02 +0.01    +0.194    13.239
ATOM      4  C   UNL d   1      -5.737 -12.922 -10.203 -0.03 -0.02    +0.194    13.239
ATOM      5  C   UNL d   1      -4.337 -13.388 -10.581 -0.04 -0.03    +0.194    13.239
ATOM      6  C   UNL d   1      -3.355 -12.246 -10.851 -0.14 -0.04    +0.194    13.239
ATOM      7  O   UNL d   1      -3.008 -10.082 -11.788 -0.10 +0.09    -0.278    13.239
ATOM      8  P   UNL d   1      -3.087  -9.030 -12.988 -0.07 -0.10    +0.473    13.239
ATOM      9  O   UNL d   1      -2.626  -9.542 -14.307 -0.10 +0.04    -0.228    13.239
ATOM     10  O   UNL d   1      -4.612  -8.564 -12.993 -0.06 +0.01    -0.303    13.239
ATOM     11  H   UNL d   1      -4.978  -8.631 -12.091 +0.08 +0.01    +0.222    13.239
ATOM     12  O   UNL d   1      -2.344  -7.733 -12.449 -0.14 +0.10    -0.303    13.239
ATOM     13  H   UNL d   1      -2.879  -7.225 -11.798 -0.41 -0.09    +0.222    13.239
ATOM     14  O   UNL d   1      -5.102  -9.978 -10.051 -0.15 -0.03    -0.278    13.239
ATOM     15  P   UNL d   1      -5.706  -8.498  -9.954 -0.18 +0.16    +0.473    13.239
ATOM     16  O   UNL d   1      -6.118  -8.029  -8.594 -0.37 -0.12    -0.228    13.239
ATOM     17  O   UNL d   1      -4.583  -7.577 -10.610 -0.24 -0.02    -0.303    13.239
ATOM     18  H   UNL d   1      -3.941  -8.112 -11.116 +0.08 -0.01    +0.222    13.239
ATOM     19  O   UNL d   1      -6.841  -8.458 -11.067 -0.08 -0.16    -0.303    13.239
ATOM     20  H   UNL d   1      -7.450  -9.216 -10.988 +0.05 +0.16    +0.222    13.239
ATOM     21  O   UNL d   1      -2.228 -12.819 -11.511 -0.13 +0.11    -0.278    13.239
ATOM     22  P   UNL d   1      -2.367 -14.236 -12.229 -0.03 -0.10    +0.473    13.239
ATOM     23  O   UNL d   1      -3.533 -14.457 -13.133 -0.01 +0.03    -0.228    13.239
ATOM     24  O   UNL d   1      -0.945 -14.389 -12.926 -0.04 +0.07    -0.303    13.239
ATOM     25  H   UNL d   1      -0.533 -13.490 -12.986 +0.02 -0.07    +0.222    13.239
ATOM     26  O   UNL d   1      -2.239 -15.244 -10.989 -0.03 +0.07    -0.303    13.239
ATOM     27  H   UNL d   1      -2.209 -14.729 -10.157 +0.03 -0.07    +0.222    13.239
ATOM     28  O   UNL d   1      -7.395 -11.272 -10.385 -0.07 -0.07    -0.278    13.239
ATOM     29  P   UNL d   1      -7.574 -11.557  -8.828 -0.10 -0.07    +0.473    13.239
ATOM     30  O   UNL d   1      -8.145 -12.885  -8.481 -0.14 +0.14    -0.228    13.239
ATOM     31  O   UNL d   1      -6.090 -11.248  -8.315 -0.08 +0.04    -0.303    13.239
ATOM     32  H   UNL d   1      -5.938 -10.276  -8.362 +0.09 +0.03    +0.222    13.239
ATOM     33  O   UNL d   1      -8.387 -10.276  -8.345 -0.50 -0.28    -0.303    13.239
ATOM     34  H   UNL d   1      -8.381 -10.246  -7.357 -0.34 -0.19    +0.222    13.239
ATOM     35  O   UNL d   1      -3.849 -14.104  -9.448 -0.04 +0.06    -0.278    13.239
ATOM     36  P   UNL d   1      -3.164 -13.322  -8.237 -0.18 -0.11    +0.473    13.239
ATOM     37  O   UNL d   1      -3.332 -13.948  -6.889 -0.22 +0.06    -0.228    13.239
ATOM     38  O   UNL d   1      -1.653 -13.220  -8.728 -0.05 +0.16    -0.303    13.239
ATOM     39  H   UNL d   1      -1.599 -13.506  -9.665 -0.41 -0.14    +0.222    13.239
ATOM     40  O   UNL d   1      -3.727 -11.847  -8.423 -0.28 +0.01    -0.303    13.239
ATOM     41  H   UNL d   1      -4.622 -11.847  -8.830 +0.10 -0.02    +0.222    13.239
ATOM     42  O   UNL d   1      -6.613 -14.042 -10.367 -0.01 +0.03    -0.278    13.239
ATOM     43  P   UNL d   1      -6.474 -14.945 -11.674 +0.01 -0.03    +0.473    13.239
ATOM     44  O   UNL d   1      -7.683 -15.687 -12.128 +0.00 +0.01    -0.228    13.239
ATOM     45  O   UNL d   1      -5.899 -13.919 -12.747 +0.00 +0.01    -0.303    13.239
ATOM     46  H   UNL d   1      -5.469 -14.385 -13.492 +0.00 -0.01    +0.222    13.239
ATOM     47  O   UNL d   1      -5.186 -15.846 -11.362 +0.00 +0.03    -0.303    13.239
ATOM     48  H   UNL d   1      -4.395 -15.270 -11.306 +0.02 -0.03    +0.222    13.239
TER
ENDMDL
MODEL       69
USER    Run = 69
USER    Cluster Rank = 32
USER    Number of conformations in this cluster = 1
USER  
USER    RMSD from reference structure       = 14.486 A
USER  
USER    Estimated Free Energy of Binding    =   +2.38 kcal/mol  [=(1)+(2)+(3)-(4)]
USER    
USER    (1) Final Intermolecular Energy     =   -4.78 kcal/mol
USER        vdW + Hbond + desolv Energy     =   -4.59 kcal/mol
USER        Electrostatic Energy            =   -0.19 kcal/mol
USER    (2) Final Total Internal Energy     =  -13.95 kcal/mol
USER    (3) Torsional Free Energy           =   +7.16 kcal/mol
USER    (4) Unbound System's Energy  [=(2)] =  -13.95 kcal/mol
USER    
USER    
USER  
USER    DPF = D:/Protein_go_brrr/autodock/final/AncMH_nat/IHP/dock.dpf
USER    NEWDPF move	IHP_ideal_opt.pdbqt
USER    NEWDPF about	0.035000 0.082000 -0.065000
USER    NEWDPF tran0	17.173173 -4.807125 -0.909626
USER    NEWDPF axisangle0	0.830789 -0.512313 -0.217543 -165.969316
USER    NEWDPF quaternion0	0.824570 -0.508477 -0.215914 -0.122135
USER    NEWDPF dihe0	135.69 58.98 74.78 135.54 -102.63 -138.84 -103.13 23.06 -38.01 123.07 105.15 148.03 1.75 -17.29 3.78 14.88 -64.78 163.85 12.56 -36.79 -20.47 -179.39 163.23 12.20 
USER  
USER                              x       y       z    vdW   Elec        q     RMS 
ATOM      1  C   UNL d   1      17.979  -5.507  -2.268 -0.18 -0.04    +0.194    14.486
ATOM      2  C   UNL d   1      18.302  -4.037  -1.993 -0.20 -0.04    +0.194    14.486
ATOM      3  C   UNL d   1      17.045  -3.236  -1.648 -0.27 -0.07    +0.194    14.486
ATOM      4  C   UNL d   1      16.219  -3.865  -0.529 -0.25 -0.05    +0.194    14.486
ATOM      5  C   UNL d   1      15.971  -5.357  -0.704 -0.26 -0.05    +0.194    14.486
ATOM      6  C   UNL d   1      17.215  -6.149  -1.109 -0.15 -0.04    +0.194    14.486
ATOM      7  O   UNL d   1      19.213  -6.216  -2.409 -0.07 +0.04    -0.278    14.486
ATOM      8  P   UNL d   1      19.616  -6.755  -3.858 -0.05 -0.05    +0.473    14.486
ATOM      9  O   UNL d   1      19.608  -5.731  -4.938 -0.12 +0.03    -0.228    14.486
ATOM     10  O   UNL d   1      21.048  -7.423  -3.637 -0.01 +0.04    -0.303    14.486
ATOM     11  H   UNL d   1      21.463  -7.050  -2.837 +0.01 -0.03    +0.222    14.486
ATOM     12  O   UNL d   1      18.691  -8.024  -4.099 -0.09 +0.02    -0.303    14.486
ATOM     13  H   UNL d   1      17.948  -8.087  -3.456 +0.04 -0.02    +0.222    14.486
ATOM     14  O   UNL d   1      19.212  -3.957  -0.889 -0.05 +0.05    -0.278    14.486
ATOM     15  P   UNL d   1      20.769  -3.872  -1.249 -0.02 -0.07    +0.473    14.486
ATOM     16  O   UNL d   1      21.139  -3.048  -2.443 -0.06 +0.04    -0.228    14.486
ATOM     17  O   UNL d   1      21.450  -3.352   0.094 -0.01 +0.04    -0.303    14.486
ATOM     18  H   UNL d   1      20.799  -2.906   0.669 +0.02 -0.03    +0.222    14.486
ATOM     19  O   UNL d   1      21.252  -5.387  -1.286 -0.00 +0.04    -0.303    14.486
ATOM     20  H   UNL d   1      20.960  -5.839  -2.099 +0.02 -0.03    +0.222    14.486
ATOM     21  O   UNL d   1      16.764  -7.424  -1.561 -0.15 +0.03    -0.278    14.486
ATOM     22  P   UNL d   1      17.312  -8.751  -0.864 -0.05 -0.05    +0.473    14.486
ATOM     23  O   UNL d   1      17.612  -8.707   0.596 -0.02 +0.03    -0.228    14.486
ATOM     24  O   UNL d   1      16.210  -9.819  -1.287 -0.08 +0.03    -0.303    14.486
ATOM     25  H   UNL d   1      16.358 -10.641  -0.755 +0.04 -0.03    +0.222    14.486
ATOM     26  O   UNL d   1      18.536  -9.140  -1.823 -0.03 +0.03    -0.303    14.486
ATOM     27  H   UNL d   1      19.078  -8.343  -1.992 +0.03 -0.02    +0.222    14.486
ATOM     28  O   UNL d   1      17.466  -1.975  -1.145 -0.29 +0.07    -0.278    14.486
ATOM     29  P   UNL d   1      18.199  -1.876   0.266 -0.11 -0.06    +0.473    14.486
ATOM     30  O   UNL d   1      18.169  -3.111   1.091 -0.05 +0.02    -0.228    14.486
ATOM     31  O   UNL d   1      19.636  -1.350  -0.202 -0.06 +0.04    -0.303    14.486
ATOM     32  H   UNL d   1      19.968  -1.940  -0.918 +0.05 -0.03    +0.222    14.486
ATOM     33  O   UNL d   1      17.536  -0.573   0.896 -0.20 +0.02    -0.303    14.486
ATOM     34  H   UNL d   1      16.667  -0.817   1.300 +0.10 +0.01    +0.222    14.486
ATOM     35  O   UNL d   1      15.567  -5.836   0.578 -0.16 +0.04    -0.278    14.486
ATOM     36  P   UNL d   1      16.593  -5.826   1.799 -0.01 -0.05    +0.473    14.486
ATOM     37  O   UNL d   1      18.040  -5.760   1.426 -0.01 +0.03    -0.228    14.486
ATOM     38  O   UNL d   1      16.079  -4.581   2.648 -0.04 +0.00    -0.303    14.486
ATOM     39  H   UNL d   1      16.720  -3.844   2.557 +0.05 -0.00    +0.222    14.486
ATOM     40  O   UNL d   1      16.124  -7.087   2.647 -0.03 +0.04    -0.303    14.486
ATOM     41  H   UNL d   1      16.482  -7.926   2.281 +0.04 -0.03    +0.222    14.486
ATOM     42  O   UNL d   1      14.941  -3.220  -0.544 -0.27 +0.09    -0.278    14.486
ATOM     43  P   UNL d   1      14.658  -2.043   0.495 -0.26 +0.03    +0.473    14.486
ATOM     44  O   UNL d   1      13.252  -1.849   0.947 -0.86 -0.12    -0.228    14.486
ATOM     45  O   UNL d   1      15.681  -2.363   1.671 -0.19 -0.05    -0.303    14.486
ATOM     46  H   UNL d   1      16.498  -2.780   1.332 +0.09 -0.00    +0.222    14.486
ATOM     47  O   UNL d   1      15.345  -0.771  -0.197 -0.43 +0.05    -0.303    14.486
ATOM     48  H   UNL d   1      16.135  -1.063  -0.698 +0.02 -0.07    +0.222    14.486
TER
ENDMDL
MODEL       72
USER    Run = 72
USER    Cluster Rank = 33
USER    Number of conformations in this cluster = 1
USER  
USER    RMSD from reference structure       = 18.812 A
USER  
USER    Estimated Free Energy of Binding    =   +2.42 kcal/mol  [=(1)+(2)+(3)-(4)]
USER    
USER    (1) Final Intermolecular Energy     =   -4.74 kcal/mol
USER        vdW + Hbond + desolv Energy     =   -4.48 kcal/mol
USER        Electrostatic Energy            =   -0.26 kcal/mol
USER    (2) Final Total Internal Energy     =  -14.87 kcal/mol
USER    (3) Torsional Free Energy           =   +7.16 kcal/mol
USER    (4) Unbound System's Energy  [=(2)] =  -14.87 kcal/mol
USER    
USER    
USER  
USER    DPF = D:/Protein_go_brrr/autodock/final/AncMH_nat/IHP/dock.dpf
USER    NEWDPF move	IHP_ideal_opt.pdbqt
USER    NEWDPF about	0.035000 0.082000 -0.065000
USER    NEWDPF tran0	-19.334697 1.104146 12.462919
USER    NEWDPF axisangle0	0.309276 0.590396 0.745507 -149.397621
USER    NEWDPF quaternion0	0.298312 0.569468 0.719080 -0.263893
USER    NEWDPF dihe0	79.88 -16.91 66.29 90.86 1.56 -125.66 68.31 -78.11 58.37 31.39 2.46 -131.45 177.59 128.00 -37.05 -121.67 147.85 -14.92 16.97 -8.55 180.00 5.65 -7.06 175.76 
USER  
USER                              x       y       z    vdW   Elec        q     RMS 
ATOM      1  C   UNL d   1     -19.578   2.717  11.894 -0.12 +0.04    +0.194    18.812
ATOM      2  C   UNL d   1     -18.963   1.746  10.885 -0.12 +0.03    +0.194    18.812
ATOM      3  C   UNL d   1     -17.886   0.868  11.526 -0.14 +0.02    +0.194    18.812
ATOM      4  C   UNL d   1     -18.363   0.160  12.792 -0.04 +0.03    +0.194    18.812
ATOM      5  C   UNL d   1     -19.086   1.070  13.778 -0.02 +0.04    +0.194    18.812
ATOM      6  C   UNL d   1     -20.119   1.992  13.127 -0.03 +0.05    +0.194    18.812
ATOM      7  O   UNL d   1     -20.682   3.373  11.266 -0.07 -0.07    -0.278    18.812
ATOM      8  P   UNL d   1     -20.504   4.894  10.813 -0.14 +0.13    +0.473    18.812
ATOM      9  O   UNL d   1     -21.594   5.812  11.243 -0.07 -0.08    -0.228    18.812
ATOM     10  O   UNL d   1     -19.074   5.304  11.389 -0.25 -0.08    -0.303    18.812
ATOM     11  H   UNL d   1     -19.146   5.486  12.345 +0.05 +0.15    +0.222    18.812
ATOM     12  O   UNL d   1     -20.227   4.829   9.250 -0.19 -0.11    -0.303    18.812
ATOM     13  H   UNL d   1     -19.403   4.342   9.024 -0.22 +0.07    +0.222    18.812
ATOM     14  O   UNL d   1     -19.994   0.897  10.365 -0.04 -0.07    -0.278    18.812
ATOM     15  P   UNL d   1     -20.188   0.897   8.776 -0.07 +0.20    +0.473    18.812
ATOM     16  O   UNL d   1     -21.316   0.074   8.236 -0.04 -0.10    -0.228    18.812
ATOM     17  O   UNL d   1     -20.315   2.440   8.400 -0.14 -0.18    -0.303    18.812
ATOM     18  H   UNL d   1     -20.704   2.950   9.136 +0.05 +0.09    +0.222    18.812
ATOM     19  O   UNL d   1     -18.747   0.545   8.201 -0.15 -0.15    -0.303    18.812
ATOM     20  H   UNL d   1     -18.249  -0.034   8.806 +0.07 +0.08    +0.222    18.812
ATOM     21  O   UNL d   1     -20.445   2.991  14.090 -0.03 -0.10    -0.278    18.812
ATOM     22  P   UNL d   1     -19.441   4.204  14.344 -0.05 +0.40    +0.473    18.812
ATOM     23  O   UNL d   1     -18.111   4.171  13.670 -0.12 -0.15    -0.228    18.812
ATOM     24  O   UNL d   1     -20.347   5.459  13.972 -0.16 -0.37    -0.303    18.812
ATOM     25  H   UNL d   1     -20.567   5.405  13.007 +0.04 +0.17    +0.222    18.812
ATOM     26  O   UNL d   1     -19.416   4.277  15.945 -0.43 -0.29    -0.303    18.812
ATOM     27  H   UNL d   1     -19.088   3.426  16.301 +0.02 +0.12    +0.222    18.812
ATOM     28  O   UNL d   1     -17.577  -0.171  10.607 -0.08 -0.05    -0.278    18.812
ATOM     29  P   UNL d   1     -16.118  -0.278   9.975 -0.19 +0.08    +0.473    18.812
ATOM     30  O   UNL d   1     -16.057  -0.815   8.591 -0.63 -0.07    -0.228    18.812
ATOM     31  O   UNL d   1     -15.608   1.222  10.196 -0.30 -0.05    -0.303    18.812
ATOM     32  H   UNL d   1     -14.803   1.200  10.763 -0.40 -0.02    +0.222    18.812
ATOM     33  O   UNL d   1     -15.328  -1.087  11.096 -0.13 +0.02    -0.303    18.812
ATOM     34  H   UNL d   1     -15.824  -1.023  11.948 +0.10 +0.01    +0.222    18.812
ATOM     35  O   UNL d   1     -19.794   0.201  14.659 -0.00 -0.06    -0.278    18.812
ATOM     36  P   UNL d   1     -19.552   0.279  16.233 +0.01 +0.09    +0.473    18.812
ATOM     37  O   UNL d   1     -20.121  -0.851  17.031 +0.00 -0.04    -0.228    18.812
ATOM     38  O   UNL d   1     -17.966   0.403  16.313 -0.00 -0.06    -0.303    18.812
ATOM     39  H   UNL d   1     -17.584   0.210  15.430 +0.04 +0.04    +0.222    18.812
ATOM     40  O   UNL d   1     -20.068   1.742  16.584 -0.00 -0.07    -0.303    18.812
ATOM     41  H   UNL d   1     -20.241   2.271  15.774 +0.01 +0.07    +0.222    18.812
ATOM     42  O   UNL d   1     -17.195  -0.336  13.455 -0.04 -0.04    -0.278    18.812
ATOM     43  P   UNL d   1     -16.128   0.706  14.020 -0.08 +0.04    +0.473    18.812
ATOM     44  O   UNL d   1     -16.636   2.030  14.476 -0.13 -0.04    -0.228    18.812
ATOM     45  O   UNL d   1     -15.387  -0.132  15.151 -0.08 -0.03    -0.303    18.812
ATOM     46  H   UNL d   1     -15.969  -0.285  15.922 +0.07 +0.03    +0.222    18.812
ATOM     47  O   UNL d   1     -15.015   0.752  12.867 -0.23 +0.03    -0.303    18.812
ATOM     48  H   UNL d   1     -15.455   0.856  11.998 -0.01 -0.02    +0.222    18.812
TER
ENDMDL
MODEL       76
USER    Run = 76
USER    Cluster Rank = 34
USER    Number of conformations in this cluster = 1
USER  
USER    RMSD from reference structure       = 14.811 A
USER  
USER    Estimated Free Energy of Binding    =   +2.47 kcal/mol  [=(1)+(2)+(3)-(4)]
USER    
USER    (1) Final Intermolecular Energy     =   -4.69 kcal/mol
USER        vdW + Hbond + desolv Energy     =   -3.92 kcal/mol
USER        Electrostatic Energy            =   -0.77 kcal/mol
USER    (2) Final Total Internal Energy     =  -13.06 kcal/mol
USER    (3) Torsional Free Energy           =   +7.16 kcal/mol
USER    (4) Unbound System's Energy  [=(2)] =  -13.06 kcal/mol
USER    
USER    
USER  
USER    DPF = D:/Protein_go_brrr/autodock/final/AncMH_nat/IHP/dock.dpf
USER    NEWDPF move	IHP_ideal_opt.pdbqt
USER    NEWDPF about	0.035000 0.082000 -0.065000
USER    NEWDPF tran0	2.637130 -16.325668 -7.808538
USER    NEWDPF axisangle0	0.400050 -0.321763 -0.858154 -175.564001
USER    NEWDPF quaternion0	0.399751 -0.321522 -0.857511 -0.038702
USER    NEWDPF dihe0	65.07 124.64 166.18 11.98 119.25 -180.00 -36.88 -74.80 -49.29 133.89 162.21 150.47 -83.43 31.20 25.57 -67.98 21.69 180.00 -144.25 -28.61 167.04 -18.68 74.28 30.85 
USER  
USER                              x       y       z    vdW   Elec        q     RMS 
ATOM      1  C   UNL d   1       1.396 -15.617  -8.779 -0.12 -0.13    +0.194    14.811
ATOM      2  C   UNL d   1       2.657 -14.771  -8.597 -0.08 -0.12    +0.194    14.811
ATOM      3  C   UNL d   1       3.155 -14.799  -7.151 -0.01 -0.19    +0.194    14.811
ATOM      4  C   UNL d   1       3.325 -16.214  -6.602 -0.07 -0.15    +0.194    14.811
ATOM      5  C   UNL d   1       2.136 -17.128  -6.862 -0.06 -0.14    +0.194    14.811
ATOM      6  C   UNL d   1       1.598 -17.053  -8.293 -0.05 -0.10    +0.194    14.811
ATOM      7  O   UNL d   1       1.097 -15.679 -10.175 -0.09 +0.11    -0.278    14.811
ATOM      8  P   UNL d   1       1.667 -16.909 -11.021 -0.01 -0.10    +0.473    14.811
ATOM      9  O   UNL d   1       2.974 -17.445 -10.552 -0.00 +0.04    -0.228    14.811
ATOM     10  O   UNL d   1       0.492 -17.987 -10.974 -0.00 +0.05    -0.303    14.811
ATOM     11  H   UNL d   1       0.636 -18.595 -10.224 +0.01 -0.04    +0.222    14.811
ATOM     12  O   UNL d   1       1.616 -16.428 -12.534 -0.01 +0.05    -0.303    14.811
ATOM     13  H   UNL d   1       2.365 -15.837 -12.776 +0.02 -0.03    +0.222    14.811
ATOM     14  O   UNL d   1       3.690 -15.284  -9.447 -0.07 +0.08    -0.278    14.811
ATOM     15  P   UNL d   1       3.985 -14.465 -10.791 +0.00 -0.05    +0.473    14.811
ATOM     16  O   UNL d   1       4.955 -13.330 -10.687 -0.13 +0.02    -0.228    14.811
ATOM     17  O   UNL d   1       4.448 -15.579 -11.830 -0.01 +0.04    -0.303    14.811
ATOM     18  H   UNL d   1       3.700 -16.150 -12.091 +0.01 -0.03    +0.222    14.811
ATOM     19  O   UNL d   1       2.545 -14.086 -11.349 -0.60 +0.03    -0.303    14.811
ATOM     20  H   UNL d   1       1.946 -14.856 -11.354 +0.01 -0.05    +0.222    14.811
ATOM     21  O   UNL d   1       0.316 -17.677  -8.285 -0.03 +0.11    -0.278    14.811
ATOM     22  P   UNL d   1      -0.874 -17.030  -7.443 -0.04 -0.24    +0.473    14.811
ATOM     23  O   UNL d   1      -1.241 -15.610  -7.717 -0.13 +0.16    -0.228    14.811
ATOM     24  O   UNL d   1      -2.047 -18.079  -7.677 -0.00 +0.06    -0.303    14.811
ATOM     25  H   UNL d   1      -1.709 -18.979  -7.436 +0.01 -0.03    +0.222    14.811
ATOM     26  O   UNL d   1      -0.428 -17.363  -5.939 -0.08 +0.19    -0.303    14.811
ATOM     27  H   UNL d   1       0.464 -17.768  -5.951 +0.02 -0.13    +0.222    14.811
ATOM     28  O   UNL d   1       4.457 -14.229  -7.135 -0.11 +0.11    -0.278    14.811
ATOM     29  P   UNL d   1       4.650 -12.671  -6.867 -0.16 -0.05    +0.473    14.811
ATOM     30  O   UNL d   1       4.731 -11.817  -8.080 -0.47 -0.01    -0.228    14.811
ATOM     31  O   UNL d   1       3.425 -12.405  -5.872 -0.42 +0.05    -0.303    14.811
ATOM     32  H   UNL d   1       3.091 -13.273  -5.546 -0.31 -0.34    +0.222    14.811
ATOM     33  O   UNL d   1       5.907 -12.653  -5.890 -0.13 -0.02    -0.303    14.811
ATOM     34  H   UNL d   1       6.046 -13.563  -5.530 +0.07 -0.00    +0.222    14.811
ATOM     35  O   UNL d   1       2.617 -18.456  -6.663 -0.01 +0.09    -0.278    14.811
ATOM     36  P   UNL d   1       1.902 -19.687  -7.382 +0.01 -0.09    +0.473    14.811
ATOM     37  O   UNL d   1       2.008 -19.713  -8.874 +0.00 +0.04    -0.228    14.811
ATOM     38  O   UNL d   1       2.583 -20.929  -6.656 +0.00 +0.04    -0.303    14.811
ATOM     39  H   UNL d   1       3.053 -21.474  -7.324 +0.00 -0.02    +0.222    14.811
ATOM     40  O   UNL d   1       0.437 -19.638  -6.763 -0.00 +0.06    -0.303    14.811
ATOM     41  H   UNL d   1      -0.175 -19.105  -7.318 +0.01 -0.05    +0.222    14.811
ATOM     42  O   UNL d   1       3.461 -16.093  -5.181 -0.08 +0.28    -0.278    14.811
ATOM     43  P   UNL d   1       4.878 -15.683  -4.574 -0.05 -0.19    +0.473    14.811
ATOM     44  O   UNL d   1       5.376 -16.463  -3.406 -0.04 +0.04    -0.228    14.811
ATOM     45  O   UNL d   1       5.832 -15.736  -5.847 -0.02 +0.07    -0.303    14.811
ATOM     46  H   UNL d   1       5.856 -14.876  -6.312 +0.04 -0.05    +0.222    14.811
ATOM     47  O   UNL d   1       4.733 -14.104  -4.340 -0.31 +0.03    -0.303    14.811
ATOM     48  H   UNL d   1       4.124 -13.733  -5.012 -0.44 -0.13    +0.222    14.811
TER
ENDMDL
MODEL       37
USER    Run = 37
USER    Cluster Rank = 35
USER    Number of conformations in this cluster = 1
USER  
USER    RMSD from reference structure       = 17.334 A
USER  
USER    Estimated Free Energy of Binding    =   +2.51 kcal/mol  [=(1)+(2)+(3)-(4)]
USER    
USER    (1) Final Intermolecular Energy     =   -4.65 kcal/mol
USER        vdW + Hbond + desolv Energy     =   -3.86 kcal/mol
USER        Electrostatic Energy            =   -0.79 kcal/mol
USER    (2) Final Total Internal Energy     =  -12.28 kcal/mol
USER    (3) Torsional Free Energy           =   +7.16 kcal/mol
USER    (4) Unbound System's Energy  [=(2)] =  -12.28 kcal/mol
USER    
USER    
USER  
USER    DPF = D:/Protein_go_brrr/autodock/final/AncMH_nat/IHP/dock.dpf
USER    NEWDPF move	IHP_ideal_opt.pdbqt
USER    NEWDPF about	0.035000 0.082000 -0.065000
USER    NEWDPF tran0	-17.959756 10.227991 -1.211678
USER    NEWDPF axisangle0	0.342571 0.446240 0.826749 115.336096
USER    NEWDPF quaternion0	0.289460 0.377057 0.698573 0.534824
USER    NEWDPF dihe0	91.48 -167.29 92.84 141.72 44.22 39.53 -48.47 -111.73 -9.76 27.76 -125.52 69.52 -77.97 54.27 130.93 115.42 6.84 157.65 66.06 26.07 140.46 1.76 120.42 -177.18 
USER  
USER                              x       y       z    vdW   Elec        q     RMS 
ATOM      1  C   UNL d   1     -19.142  10.354   0.041 -0.02 +0.00    +0.194    17.334
ATOM      2  C   UNL d   1     -19.594  10.821  -1.344 -0.01 +0.00    +0.194    17.334
ATOM      3  C   UNL d   1     -18.516  11.654  -2.041 -0.02 -0.01    +0.194    17.334
ATOM      4  C   UNL d   1     -17.155  10.964  -2.080 -0.08 -0.01    +0.194    17.334
ATOM      5  C   UNL d   1     -16.716  10.382  -0.742 -0.15 -0.02    +0.194    17.334
ATOM      6  C   UNL d   1     -17.813   9.600  -0.017 -0.08 +0.01    +0.194    17.334
ATOM      7  O   UNL d   1     -20.125   9.448   0.549 -0.00 -0.04    -0.278    17.334
ATOM      8  P   UNL d   1     -21.637   9.951   0.659 +0.01 +0.05    +0.473    17.334
ATOM      9  O   UNL d   1     -21.803  11.422   0.814 +0.00 -0.01    -0.228    17.334
ATOM     10  O   UNL d   1     -22.332   9.377  -0.657 +0.00 -0.03    -0.303    17.334
ATOM     11  H   UNL d   1     -21.952   9.810  -1.444 +0.00 +0.02    +0.222    17.334
ATOM     12  O   UNL d   1     -22.288   9.055   1.797 +0.00 -0.06    -0.303    17.334
ATOM     13  H   UNL d   1     -22.978   9.529   2.315 +0.00 +0.03    +0.222    17.334
ATOM     14  O   UNL d   1     -19.879   9.674  -2.154 -0.00 -0.02    -0.278    17.334
ATOM     15  P   UNL d   1     -20.861   9.901  -3.398 +0.00 +0.03    +0.473    17.334
ATOM     16  O   UNL d   1     -20.247   9.831  -4.761 -0.00 -0.01    -0.228    17.334
ATOM     17  O   UNL d   1     -22.014   8.823  -3.183 +0.00 -0.03    -0.303    17.334
ATOM     18  H   UNL d   1     -21.834   8.267  -2.401 +0.00 +0.03    +0.222    17.334
ATOM     19  O   UNL d   1     -21.623  11.256  -3.058 +0.00 -0.01    -0.303    17.334
ATOM     20  H   UNL d   1     -21.091  12.038  -3.294 +0.00 +0.00    +0.222    17.334
ATOM     21  O   UNL d   1     -17.374   9.424   1.328 -0.11 -0.01    -0.278    17.334
ATOM     22  P   UNL d   1     -16.589  10.601   2.065 -0.18 -0.16    +0.473    17.334
ATOM     23  O   UNL d   1     -16.519  10.577   3.555 -0.33 +0.03    -0.228    17.334
ATOM     24  O   UNL d   1     -15.177  10.561   1.331 -0.30 +0.17    -0.303    17.334
ATOM     25  H   UNL d   1     -15.063   9.661   0.931 -0.35 -0.07    +0.222    17.334
ATOM     26  O   UNL d   1     -17.264  11.901   1.414 -0.11 +0.23    -0.303    17.334
ATOM     27  H   UNL d   1     -16.563  12.538   1.166 -0.45 -0.43    +0.222    17.334
ATOM     28  O   UNL d   1     -18.903  11.803  -3.401 -0.01 +0.00    -0.278    17.334
ATOM     29  P   UNL d   1     -19.320  13.233  -3.966 +0.00 -0.01    +0.473    17.334
ATOM     30  O   UNL d   1     -18.210  14.052  -4.518 -0.00 +0.00    -0.228    17.334
ATOM     31  O   UNL d   1     -20.480  12.804  -4.981 -0.00 -0.00    -0.303    17.334
ATOM     32  H   UNL d   1     -20.615  11.830  -4.911 +0.00 +0.00    +0.222    17.334
ATOM     33  O   UNL d   1     -20.132  13.851  -2.744 +0.00 +0.01    -0.303    17.334
ATOM     34  H   UNL d   1     -20.834  13.212  -2.469 +0.00 -0.00    +0.222    17.334
ATOM     35  O   UNL d   1     -15.673   9.457  -1.047 -0.14 -0.01    -0.278    17.334
ATOM     36  P   UNL d   1     -15.924   7.888  -0.908 -0.14 +0.12    +0.473    17.334
ATOM     37  O   UNL d   1     -17.143   7.366  -1.600 -0.05 -0.07    -0.228    17.334
ATOM     38  O   UNL d   1     -14.554   7.289  -1.455 -0.19 -0.09    -0.303    17.334
ATOM     39  H   UNL d   1     -14.567   7.300  -2.436 +0.07 +0.05    +0.222    17.334
ATOM     40  O   UNL d   1     -15.837   7.667   0.665 -0.22 -0.10    -0.303    17.334
ATOM     41  H   UNL d   1     -15.449   8.447   1.121 -0.05 +0.01    +0.222    17.334
ATOM     42  O   UNL d   1     -16.194  11.963  -2.439 -0.11 +0.03    -0.278    17.334
ATOM     43  P   UNL d   1     -15.814  13.087  -1.373 -0.11 -0.25    +0.473    17.334
ATOM     44  O   UNL d   1     -15.265  14.370  -1.895 -0.19 +0.07    -0.228    17.334
ATOM     45  O   UNL d   1     -17.159  13.245  -0.538 -0.09 +0.19    -0.303    17.334
ATOM     46  H   UNL d   1     -16.997  13.680   0.323 -0.36 -0.28    +0.222    17.334
ATOM     47  O   UNL d   1     -14.876  12.304  -0.335 +0.29 +0.30    -0.303    17.334
ATOM     48  H   UNL d   1     -15.343  12.222   0.522 -0.40 -0.45    +0.222    17.334
TER
ENDMDL
MODEL       74
USER    Run = 74
USER    Cluster Rank = 36
USER    Number of conformations in this cluster = 2
USER  
USER    RMSD from reference structure       = 20.550 A
USER  
USER    Estimated Free Energy of Binding    =   +2.52 kcal/mol  [=(1)+(2)+(3)-(4)]
USER    
USER    (1) Final Intermolecular Energy     =   -4.64 kcal/mol
USER        vdW + Hbond + desolv Energy     =   -4.43 kcal/mol
USER        Electrostatic Energy            =   -0.21 kcal/mol
USER    (2) Final Total Internal Energy     =  -13.33 kcal/mol
USER    (3) Torsional Free Energy           =   +7.16 kcal/mol
USER    (4) Unbound System's Energy  [=(2)] =  -13.33 kcal/mol
USER    
USER    
USER  
USER    DPF = D:/Protein_go_brrr/autodock/final/AncMH_nat/IHP/dock.dpf
USER    NEWDPF move	IHP_ideal_opt.pdbqt
USER    NEWDPF about	0.035000 0.082000 -0.065000
USER    NEWDPF tran0	-7.159635 -9.317642 20.212766
USER    NEWDPF axisangle0	-0.851058 -0.320348 -0.416026 140.015265
USER    NEWDPF quaternion0	-0.799771 -0.301043 -0.390956 0.341895
USER    NEWDPF dihe0	151.31 121.67 103.34 116.83 61.05 93.20 -140.51 -80.56 140.26 58.71 67.71 12.38 -86.11 90.90 64.79 -119.88 79.25 -92.93 -142.48 -7.90 179.66 -17.74 12.61 -178.57 
USER  
USER                              x       y       z    vdW   Elec        q     RMS 
ATOM      1  C   UNL d   1      -6.050  -8.106  19.679 -0.22 -0.03    +0.194    20.550
ATOM      2  C   UNL d   1      -7.169  -8.456  18.697 -0.22 -0.02    +0.194    20.550
ATOM      3  C   UNL d   1      -7.400  -9.966  18.615 -0.15 +0.01    +0.194    20.550
ATOM      4  C   UNL d   1      -7.606 -10.618  19.980 -0.04 +0.00    +0.194    20.550
ATOM      5  C   UNL d   1      -6.577 -10.207  21.026 -0.03 -0.01    +0.194    20.550
ATOM      6  C   UNL d   1      -6.300  -8.703  21.065 -0.07 -0.02    +0.194    20.550
ATOM      7  O   UNL d   1      -6.014  -6.685  19.827 -0.15 +0.05    -0.278    20.550
ATOM      8  P   UNL d   1      -6.808  -6.028  21.048 -0.07 -0.05    +0.473    20.550
ATOM      9  O   UNL d   1      -8.074  -6.717  21.420 -0.04 +0.01    -0.228    20.550
ATOM     10  O   UNL d   1      -5.739  -5.996  22.232 -0.04 +0.04    -0.303    20.550
ATOM     11  H   UNL d   1      -4.931  -6.466  21.956 +0.05 -0.04    +0.222    20.550
ATOM     12  O   UNL d   1      -6.939  -4.489  20.676 -0.13 +0.03    -0.303    20.550
ATOM     13  H   UNL d   1      -7.628  -4.314  19.996 +0.07 -0.02    +0.222    20.550
ATOM     14  O   UNL d   1      -8.383  -7.831  19.131 -0.13 +0.00    -0.278    20.550
ATOM     15  P   UNL d   1      -9.107  -6.864  18.079 -0.26 +0.02    +0.473    20.550
ATOM     16  O   UNL d   1     -10.602  -6.825  18.120 -0.21 -0.04    -0.228    20.550
ATOM     17  O   UNL d   1      -8.445  -5.439  18.343 -0.35 +0.01    -0.303    20.550
ATOM     18  H   UNL d   1      -7.699  -5.509  18.969 +0.06 -0.01    +0.222    20.550
ATOM     19  O   UNL d   1      -8.469  -7.258  16.676 -0.38 +0.02    -0.303    20.550
ATOM     20  H   UNL d   1      -8.590  -8.204  16.477 +0.00 +0.01    +0.222    20.550
ATOM     21  O   UNL d   1      -5.105  -8.523  21.821 -0.04 +0.03    -0.278    20.550
ATOM     22  P   UNL d   1      -3.690  -8.829  21.149 -0.07 -0.08    +0.473    20.550
ATOM     23  O   UNL d   1      -2.940  -7.694  20.538 -0.19 +0.08    -0.228    20.550
ATOM     24  O   UNL d   1      -2.926  -9.577  22.328 -0.02 +0.04    -0.303    20.550
ATOM     25  H   UNL d   1      -3.504  -9.557  23.132 +0.02 -0.03    +0.222    20.550
ATOM     26  O   UNL d   1      -4.052 -10.043  20.166 -0.09 +0.03    -0.303    20.550
ATOM     27  H   UNL d   1      -4.077 -10.876  20.680 +0.03 -0.02    +0.222    20.550
ATOM     28  O   UNL d   1      -8.616 -10.175  17.910 -0.09 -0.04    -0.278    20.550
ATOM     29  P   UNL d   1      -8.603 -10.405  16.333 -0.11 +0.26    +0.473    20.550
ATOM     30  O   UNL d   1      -9.767  -9.851  15.596 -0.34 -0.14    -0.228    20.550
ATOM     31  O   UNL d   1      -7.164  -9.803  15.976 -0.10 -0.09    -0.303    20.550
ATOM     32  H   UNL d   1      -7.262  -8.839  15.798 -0.37 -0.03    +0.222    20.550
ATOM     33  O   UNL d   1      -8.364 -11.975  16.226 -0.74 -0.30    -0.303    20.550
ATOM     34  H   UNL d   1      -7.957 -12.296  17.068 +0.09 +0.09    +0.222    20.550
ATOM     35  O   UNL d   1      -7.142 -10.563  22.286 -0.00 +0.01    -0.278    20.550
ATOM     36  P   UNL d   1      -6.212 -11.122  23.455 -0.00 -0.03    +0.473    20.550
ATOM     37  O   UNL d   1      -6.269 -10.363  24.743 +0.00 +0.01    -0.228    20.550
ATOM     38  O   UNL d   1      -6.700 -12.634  23.565 -0.00 +0.02    -0.303    20.550
ATOM     39  H   UNL d   1      -6.407 -13.125  22.767 +0.00 -0.01    +0.222    20.550
ATOM     40  O   UNL d   1      -4.795 -11.228  22.742 -0.00 +0.02    -0.303    20.550
ATOM     41  H   UNL d   1      -4.764 -10.701  21.912 +0.02 -0.02    +0.222    20.550
ATOM     42  O   UNL d   1      -7.472 -12.030  19.790 -0.01 -0.00    -0.278    20.550
ATOM     43  P   UNL d   1      -6.030 -12.632  19.467 -0.01 -0.00    +0.473    20.550
ATOM     44  O   UNL d   1      -5.223 -11.953  18.415 -0.10 -0.00    -0.228    20.550
ATOM     45  O   UNL d   1      -5.337 -12.665  20.899 -0.01 +0.01    -0.303    20.550
ATOM     46  H   UNL d   1      -5.902 -12.248  21.580 +0.01 -0.01    +0.222    20.550
ATOM     47  O   UNL d   1      -6.330 -14.186  19.214 -0.01 +0.00    -0.303    20.550
ATOM     48  H   UNL d   1      -5.483 -14.677  19.185 +0.02 -0.01    +0.222    20.550
TER
ENDMDL
MODEL       18
USER    Run = 18
USER    Cluster Rank = 37
USER    Number of conformations in this cluster = 1
USER  
USER    RMSD from reference structure       = 16.888 A
USER  
USER    Estimated Free Energy of Binding    =   +2.52 kcal/mol  [=(1)+(2)+(3)-(4)]
USER    
USER    (1) Final Intermolecular Energy     =   -4.64 kcal/mol
USER        vdW + Hbond + desolv Energy     =   -4.42 kcal/mol
USER        Electrostatic Energy            =   -0.21 kcal/mol
USER    (2) Final Total Internal Energy     =  -14.84 kcal/mol
USER    (3) Torsional Free Energy           =   +7.16 kcal/mol
USER    (4) Unbound System's Energy  [=(2)] =  -14.84 kcal/mol
USER    
USER    
USER  
USER    DPF = D:/Protein_go_brrr/autodock/final/AncMH_nat/IHP/dock.dpf
USER    NEWDPF move	IHP_ideal_opt.pdbqt
USER    NEWDPF about	0.035000 0.082000 -0.065000
USER    NEWDPF tran0	14.369195 15.276176 -0.140704
USER    NEWDPF axisangle0	0.936476 -0.107557 0.333832 112.968486
USER    NEWDPF quaternion0	0.780772 -0.089674 0.278327 0.552166
USER    NEWDPF dihe0	-155.53 -56.29 101.91 117.54 22.59 -154.11 -114.16 58.20 33.25 16.69 153.74 151.52 -131.45 109.11 149.67 42.24 165.65 -156.95 37.61 -5.04 -20.85 158.51 -9.92 -35.27 
USER  
USER                              x       y       z    vdW   Elec        q     RMS 
ATOM      1  C   UNL d   1      15.681  15.690   0.904 -0.00 +0.01    +0.194    16.888
ATOM      2  C   UNL d   1      14.315  16.250   1.305 -0.01 +0.01    +0.194    16.888
ATOM      3  C   UNL d   1      13.548  16.793   0.097 -0.02 +0.01    +0.194    16.888
ATOM      4  C   UNL d   1      13.448  15.792  -1.051 -0.08 +0.04    +0.194    16.888
ATOM      5  C   UNL d   1      14.769  15.123  -1.409 -0.05 +0.05    +0.194    16.888
ATOM      6  C   UNL d   1      15.564  14.635  -0.197 -0.03 +0.04    +0.194    16.888
ATOM      7  O   UNL d   1      16.255  15.052   2.047 -0.00 -0.00    -0.278    16.888
ATOM      8  P   UNL d   1      17.064  15.951   3.092 +0.00 -0.01    +0.473    16.888
ATOM      9  O   UNL d   1      18.457  16.285   2.691 +0.00 +0.01    -0.228    16.888
ATOM     10  O   UNL d   1      16.142  17.237   3.290 +0.00 +0.00    -0.303    16.888
ATOM     11  H   UNL d   1      15.217  16.959   3.429 +0.00 -0.00    +0.222    16.888
ATOM     12  O   UNL d   1      16.902  15.208   4.487 +0.00 +0.01    -0.303    16.888
ATOM     13  H   UNL d   1      16.228  15.624   5.070 +0.00 -0.01    +0.222    16.888
ATOM     14  O   UNL d   1      13.541  15.204   1.905 -0.03 -0.03    -0.278    16.888
ATOM     15  P   UNL d   1      12.927  15.509   3.353 -0.02 +0.02    +0.473    16.888
ATOM     16  O   UNL d   1      11.843  14.593   3.829 -0.08 -0.01    -0.228    16.888
ATOM     17  O   UNL d   1      14.195  15.521   4.317 -0.01 -0.00    -0.303    16.888
ATOM     18  H   UNL d   1      15.024  15.442   3.808 +0.01 -0.00    +0.222    16.888
ATOM     19  O   UNL d   1      12.547  17.053   3.305 -0.02 -0.02    -0.303    16.888
ATOM     20  H   UNL d   1      11.924  17.249   2.582 +0.04 +0.02    +0.222    16.888
ATOM     21  O   UNL d   1      16.886  14.360  -0.655 -0.00 -0.03    -0.278    16.888
ATOM     22  P   UNL d   1      17.511  12.907  -0.445 +0.00 +0.03    +0.473    16.888
ATOM     23  O   UNL d   1      18.895  12.657  -0.941 +0.00 +0.01    -0.228    16.888
ATOM     24  O   UNL d   1      17.314  12.691   1.120 -0.00 -0.00    -0.303    16.888
ATOM     25  H   UNL d   1      17.566  13.531   1.581 +0.01 -0.00    +0.222    16.888
ATOM     26  O   UNL d   1      16.365  11.968  -1.056 -0.12 -0.10    -0.303    16.888
ATOM     27  H   UNL d   1      15.915  12.442  -1.785 +0.03 +0.14    +0.222    16.888
ATOM     28  O   UNL d   1      12.209  17.028   0.512 -0.05 -0.02    -0.278    16.888
ATOM     29  P   UNL d   1      11.109  15.886   0.365 -0.17 +0.06    +0.473    16.888
ATOM     30  O   UNL d   1      11.635  14.514   0.146 -0.24 -0.07    -0.228    16.888
ATOM     31  O   UNL d   1      10.266  16.136   1.702 -0.19 -0.07    -0.303    16.888
ATOM     32  H   UNL d   1      10.855  15.984   2.477 +0.05 +0.03    +0.222    16.888
ATOM     33  O   UNL d   1      10.158  16.481  -0.766 -0.65 -0.01    -0.303    16.888
ATOM     34  H   UNL d   1      10.181  15.882  -1.552 -0.44 -0.09    +0.222    16.888
ATOM     35  O   UNL d   1      14.424  13.971  -2.176 -0.19 -0.25    -0.278    16.888
ATOM     36  P   UNL d   1      14.967  13.805  -3.667 -0.03 +0.20    +0.473    16.888
ATOM     37  O   UNL d   1      14.081  13.036  -4.594 -0.25 -0.04    -0.228    16.888
ATOM     38  O   UNL d   1      15.208  15.320  -4.097 -0.03 -0.02    -0.303    16.888
ATOM     39  H   UNL d   1      14.501  15.879  -3.709 +0.05 +0.02    +0.222    16.888
ATOM     40  O   UNL d   1      16.434  13.236  -3.432 -0.06 -0.06    -0.303    16.888
ATOM     41  H   UNL d   1      16.786  13.489  -2.550 +0.02 +0.04    +0.222    16.888
ATOM     42  O   UNL d   1      13.021  16.525  -2.204 -0.05 -0.02    -0.278    16.888
ATOM     43  P   UNL d   1      12.077  15.805  -3.270 -0.24 -0.01    +0.473    16.888
ATOM     44  O   UNL d   1      12.658  15.504  -4.608 -0.18 +0.01    -0.228    16.888
ATOM     45  O   UNL d   1      11.571  14.522  -2.477 -0.54 -0.08    -0.303    16.888
ATOM     46  H   UNL d   1      10.832  14.742  -1.874 -0.35 -0.03    +0.222    16.888
ATOM     47  O   UNL d   1      10.764  16.724  -3.276 -0.10 +0.08    -0.303    16.888
ATOM     48  H   UNL d   1      10.653  17.135  -2.394 -0.42 -0.08    +0.222    16.888
TER
ENDMDL
MODEL       84
USER    Run = 84
USER    Cluster Rank = 38
USER    Number of conformations in this cluster = 2
USER  
USER    RMSD from reference structure       = 14.413 A
USER  
USER    Estimated Free Energy of Binding    =   +2.53 kcal/mol  [=(1)+(2)+(3)-(4)]
USER    
USER    (1) Final Intermolecular Energy     =   -4.63 kcal/mol
USER        vdW + Hbond + desolv Energy     =   -4.57 kcal/mol
USER        Electrostatic Energy            =   -0.05 kcal/mol
USER    (2) Final Total Internal Energy     =  -12.57 kcal/mol
USER    (3) Torsional Free Energy           =   +7.16 kcal/mol
USER    (4) Unbound System's Energy  [=(2)] =  -12.57 kcal/mol
USER    
USER    
USER  
USER    DPF = D:/Protein_go_brrr/autodock/final/AncMH_nat/IHP/dock.dpf
USER    NEWDPF move	IHP_ideal_opt.pdbqt
USER    NEWDPF about	0.035000 0.082000 -0.065000
USER    NEWDPF tran0	6.142101 -12.966796 -10.107172
USER    NEWDPF axisangle0	-0.291695 0.079074 -0.953237 164.899310
USER    NEWDPF quaternion0	-0.289166 0.078388 -0.944973 0.131397
USER    NEWDPF dihe0	-140.59 -8.31 61.69 146.91 24.56 -145.52 16.45 -131.25 22.55 45.50 146.97 -165.09 86.69 -24.21 -14.76 -103.50 1.57 122.11 -11.05 -31.28 154.00 27.01 168.56 -17.85 
USER  
USER                              x       y       z    vdW   Elec        q     RMS 
ATOM      1  C   UNL d   1       5.819 -12.043  -8.684 -0.11 -0.01    +0.194    14.413
ATOM      2  C   UNL d   1       6.857 -11.448  -9.636 -0.08 -0.02    +0.194    14.413
ATOM      3  C   UNL d   1       7.822 -12.513 -10.160 -0.02 -0.03    +0.194    14.413
ATOM      4  C   UNL d   1       7.112 -13.723 -10.764 -0.01 -0.02    +0.194    14.413
ATOM      5  C   UNL d   1       5.990 -14.280  -9.897 -0.02 -0.02    +0.194    14.413
ATOM      6  C   UNL d   1       5.061 -13.208  -9.322 -0.02 -0.02    +0.194    14.413
ATOM      7  O   UNL d   1       4.860 -11.028  -8.378 -0.65 -0.03    -0.278    14.413
ATOM      8  P   UNL d   1       4.435 -10.820  -6.852 -0.27 +0.08    +0.473    14.413
ATOM      9  O   UNL d   1       4.306  -9.402  -6.420 -0.82 -0.06    -0.228    14.413
ATOM     10  O   UNL d   1       3.075 -11.644  -6.713 -0.43 +0.00    -0.303    14.413
ATOM     11  H   UNL d   1       3.244 -12.587  -6.900 +0.08 -0.09    +0.222    14.413
ATOM     12  O   UNL d   1       5.450 -11.711  -6.015 -0.19 -0.06    -0.303    14.413
ATOM     13  H   UNL d   1       5.483 -12.646  -6.318 +0.09 +0.00    +0.222    14.413
ATOM     14  O   UNL d   1       6.181 -10.855 -10.752 -0.07 +0.02    -0.278    14.413
ATOM     15  P   UNL d   1       6.001  -9.264 -10.717 -0.18 -0.04    +0.473    14.413
ATOM     16  O   UNL d   1       7.071  -8.482 -10.022 -0.29 +0.02    -0.228    14.413
ATOM     17  O   UNL d   1       5.835  -8.859 -12.249 -0.16 +0.02    -0.303    14.413
ATOM     18  H   UNL d   1       6.372  -9.436 -12.825 +0.06 -0.02    +0.222    14.413
ATOM     19  O   UNL d   1       4.524  -9.044 -10.167 -0.20 +0.06    -0.303    14.413
ATOM     20  H   UNL d   1       4.502  -9.021  -9.193 -0.24 -0.05    +0.222    14.413
ATOM     21  O   UNL d   1       4.304 -13.832  -8.287 -0.09 +0.08    -0.278    14.413
ATOM     22  P   UNL d   1       5.053 -14.647  -7.139 -0.05 -0.14    +0.473    14.413
ATOM     23  O   UNL d   1       6.522 -14.448  -6.977 -0.02 +0.03    -0.228    14.413
ATOM     24  O   UNL d   1       4.184 -14.277  -5.858 -0.16 +0.22    -0.303    14.413
ATOM     25  H   UNL d   1       3.967 -13.311  -5.901 -0.11 -0.11    +0.222    14.413
ATOM     26  O   UNL d   1       4.575 -16.147  -7.440 -0.02 +0.10    -0.303    14.413
ATOM     27  H   UNL d   1       4.569 -16.295  -8.408 +0.02 -0.06    +0.222    14.413
ATOM     28  O   UNL d   1       8.558 -11.935 -11.231 -0.01 +0.04    -0.278    14.413
ATOM     29  P   UNL d   1      10.124 -12.191 -11.361 +0.01 -0.09    +0.473    14.413
ATOM     30  O   UNL d   1      10.960 -10.975 -11.536 -0.02 +0.06    -0.228    14.413
ATOM     31  O   UNL d   1      10.375 -13.061 -10.042 +0.00 +0.05    -0.303    14.413
ATOM     32  H   UNL d   1       9.931 -13.933 -10.151 +0.00 -0.03    +0.222    14.413
ATOM     33  O   UNL d   1      10.189 -13.282 -12.519 +0.00 +0.04    -0.303    14.413
ATOM     34  H   UNL d   1       9.861 -14.145 -12.166 +0.00 -0.03    +0.222    14.413
ATOM     35  O   UNL d   1       5.204 -15.098 -10.761 -0.01 +0.04    -0.278    14.413
ATOM     36  P   UNL d   1       4.484 -14.463 -12.035 -0.03 -0.05    +0.473    14.413
ATOM     37  O   UNL d   1       5.331 -13.553 -12.867 -0.02 +0.02    -0.228    14.413
ATOM     38  O   UNL d   1       3.972 -15.762 -12.801 -0.00 +0.03    -0.303    14.413
ATOM     39  H   UNL d   1       4.704 -16.413 -12.853 +0.00 -0.02    +0.222    14.413
ATOM     40  O   UNL d   1       3.162 -13.843 -11.405 -0.63 -0.00    -0.303    14.413
ATOM     41  H   UNL d   1       3.143 -13.942 -10.427 +0.05 +0.00    +0.222    14.413
ATOM     42  O   UNL d   1       8.094 -14.756 -10.896 +0.00 +0.03    -0.278    14.413
ATOM     43  P   UNL d   1       8.255 -15.491 -12.303 +0.00 -0.05    +0.473    14.413
ATOM     44  O   UNL d   1       9.453 -16.355 -12.494 +0.00 +0.02    -0.228    14.413
ATOM     45  O   UNL d   1       6.869 -16.258 -12.456 +0.00 +0.03    -0.303    14.413
ATOM     46  H   UNL d   1       6.140 -15.642 -12.671 +0.00 -0.02    +0.222    14.413
ATOM     47  O   UNL d   1       8.085 -14.299 -13.361 +0.00 +0.03    -0.303    14.413
ATOM     48  H   UNL d   1       8.155 -13.441 -12.894 +0.00 -0.02    +0.222    14.413
TER
ENDMDL
MODEL       68
USER    Run = 68
USER    Cluster Rank = 39
USER    Number of conformations in this cluster = 1
USER  
USER    RMSD from reference structure       = 17.758 A
USER  
USER    Estimated Free Energy of Binding    =   +2.59 kcal/mol  [=(1)+(2)+(3)-(4)]
USER    
USER    (1) Final Intermolecular Energy     =   -4.57 kcal/mol
USER        vdW + Hbond + desolv Energy     =   -4.42 kcal/mol
USER        Electrostatic Energy            =   -0.16 kcal/mol
USER    (2) Final Total Internal Energy     =  -13.72 kcal/mol
USER    (3) Torsional Free Energy           =   +7.16 kcal/mol
USER    (4) Unbound System's Energy  [=(2)] =  -13.72 kcal/mol
USER    
USER    
USER  
USER    DPF = D:/Protein_go_brrr/autodock/final/AncMH_nat/IHP/dock.dpf
USER    NEWDPF move	IHP_ideal_opt.pdbqt
USER    NEWDPF about	0.035000 0.082000 -0.065000
USER    NEWDPF tran0	-18.343941 -10.229057 3.331599
USER    NEWDPF axisangle0	0.880328 -0.195818 -0.432062 -153.707547
USER    NEWDPF quaternion0	0.857257 -0.190686 -0.420739 -0.227437
USER    NEWDPF dihe0	-170.60 166.67 167.96 86.00 -93.40 170.24 -64.16 27.42 44.35 -23.69 92.95 -104.57 107.96 76.09 19.46 173.83 -151.86 101.17 37.80 -27.46 147.52 -30.93 -45.38 165.32 
USER  
USER                              x       y       z    vdW   Elec        q     RMS 
ATOM      1  C   UNL d   1     -18.145 -10.328   1.619 -0.08 +0.05    +0.194    17.758
ATOM      2  C   UNL d   1     -18.453  -8.935   2.168 -0.08 +0.06    +0.194    17.758
ATOM      3  C   UNL d   1     -19.549  -8.976   3.235 -0.11 +0.04    +0.194    17.758
ATOM      4  C   UNL d   1     -19.269  -9.986   4.346 -0.09 +0.02    +0.194    17.758
ATOM      5  C   UNL d   1     -18.845 -11.360   3.843 -0.17 +0.04    +0.194    17.758
ATOM      6  C   UNL d   1     -17.794 -11.316   2.732 -0.03 +0.06    +0.194    17.758
ATOM      7  O   UNL d   1     -17.003 -10.228   0.763 -0.10 -0.10    -0.278    17.758
ATOM      8  P   UNL d   1     -17.231  -9.804  -0.760 -0.03 +0.18    +0.473    17.758
ATOM      9  O   UNL d   1     -16.029  -9.265  -1.452 -0.12 -0.12    -0.228    17.758
ATOM     10  O   UNL d   1     -17.812 -11.122  -1.446 -0.01 -0.07    -0.303    17.758
ATOM     11  H   UNL d   1     -18.335 -11.626  -0.795 +0.04 +0.04    +0.222    17.758
ATOM     12  O   UNL d   1     -18.504  -8.852  -0.737 -0.02 -0.12    -0.303    17.758
ATOM     13  H   UNL d   1     -18.321  -7.956  -1.099 +0.03 +0.13    +0.222    17.758
ATOM     14  O   UNL d   1     -17.264  -8.391   2.755 -0.13 -0.12    -0.278    17.758
ATOM     15  P   UNL d   1     -16.496  -7.269   1.909 -0.02 +0.42    +0.473    17.758
ATOM     16  O   UNL d   1     -16.109  -6.022   2.641 -0.64 -0.25    -0.228    17.758
ATOM     17  O   UNL d   1     -15.244  -8.037   1.293 -0.29 -0.25    -0.303    17.758
ATOM     18  H   UNL d   1     -15.521  -8.647   0.582 +0.10 +0.15    +0.222    17.758
ATOM     19  O   UNL d   1     -17.405  -7.053   0.621 -0.64 -0.34    -0.303    17.758
ATOM     20  H   UNL d   1     -18.337  -7.278   0.796 +0.04 +0.15    +0.222    17.758
ATOM     21  O   UNL d   1     -17.761 -12.615   2.145 -0.11 -0.07    -0.278    17.758
ATOM     22  P   UNL d   1     -19.127 -13.360   1.795 -0.04 +0.06    +0.473    17.758
ATOM     23  O   UNL d   1     -20.162 -12.611   1.025 -0.01 -0.03    -0.228    17.758
ATOM     24  O   UNL d   1     -18.602 -14.688   1.090 -0.05 -0.03    -0.303    17.758
ATOM     25  H   UNL d   1     -19.341 -15.060   0.545 +0.03 +0.02    +0.222    17.758
ATOM     26  O   UNL d   1     -19.578 -13.906   3.234 -0.06 -0.04    -0.303    17.758
ATOM     27  H   UNL d   1     -18.884 -13.692   3.890 +0.04 +0.05    +0.222    17.758
ATOM     28  O   UNL d   1     -19.571  -7.707   3.876 -0.11 -0.05    -0.278    17.758
ATOM     29  P   UNL d   1     -20.300  -6.470   3.186 -0.04 +0.13    +0.473    17.758
ATOM     30  O   UNL d   1     -20.918  -5.491   4.117 -0.11 -0.07    -0.228    17.758
ATOM     31  O   UNL d   1     -19.118  -5.936   2.249 -0.03 -0.14    -0.303    17.758
ATOM     32  H   UNL d   1     -18.279  -6.375   2.521 +0.04 +0.12    +0.222    17.758
ATOM     33  O   UNL d   1     -21.271  -7.191   2.151 -0.01 -0.07    -0.303    17.758
ATOM     34  H   UNL d   1     -22.117  -7.419   2.609 +0.01 +0.04    +0.222    17.758
ATOM     35  O   UNL d   1     -18.248 -12.014   4.961 -0.49 -0.08    -0.278    17.758
ATOM     36  P   UNL d   1     -19.155 -12.797   6.014 -0.12 +0.07    +0.473    17.758
ATOM     37  O   UNL d   1     -19.313 -12.137   7.346 -0.54 -0.04    -0.228    17.758
ATOM     38  O   UNL d   1     -20.515 -12.973   5.205 -0.03 -0.03    -0.303    17.758
ATOM     39  H   UNL d   1     -20.586 -12.258   4.536 +0.03 +0.02    +0.222    17.758
ATOM     40  O   UNL d   1     -18.511 -14.252   6.000 -0.37 -0.06    -0.303    17.758
ATOM     41  H   UNL d   1     -18.624 -14.692   5.129 +0.03 +0.05    +0.222    17.758
ATOM     42  O   UNL d   1     -20.493 -10.160   5.066 -0.08 -0.03    -0.278    17.758
ATOM     43  P   UNL d   1     -21.810 -10.565   4.262 -0.03 +0.05    +0.473    17.758
ATOM     44  O   UNL d   1     -22.798 -11.436   4.958 -0.01 -0.02    -0.228    17.758
ATOM     45  O   UNL d   1     -22.391  -9.155   3.809 -0.03 -0.04    -0.303    17.758
ATOM     46  H   UNL d   1     -21.703  -8.460   3.833 +0.02 +0.03    +0.222    17.758
ATOM     47  O   UNL d   1     -21.234 -11.139   2.881 -0.01 -0.03    -0.303    17.758
ATOM     48  H   UNL d   1     -20.850 -12.027   3.035 +0.03 +0.02    +0.222    17.758
TER
ENDMDL
MODEL        6
USER    Run = 6
USER    Cluster Rank = 40
USER    Number of conformations in this cluster = 1
USER  
USER    RMSD from reference structure       = 13.586 A
USER  
USER    Estimated Free Energy of Binding    =   +2.65 kcal/mol  [=(1)+(2)+(3)-(4)]
USER    
USER    (1) Final Intermolecular Energy     =   -4.51 kcal/mol
USER        vdW + Hbond + desolv Energy     =   -3.38 kcal/mol
USER        Electrostatic Energy            =   -1.13 kcal/mol
USER    (2) Final Total Internal Energy     =  -14.21 kcal/mol
USER    (3) Torsional Free Energy           =   +7.16 kcal/mol
USER    (4) Unbound System's Energy  [=(2)] =  -14.21 kcal/mol
USER    
USER    
USER  
USER    DPF = D:/Protein_go_brrr/autodock/final/AncMH_nat/IHP/dock.dpf
USER    NEWDPF move	IHP_ideal_opt.pdbqt
USER    NEWDPF about	0.035000 0.082000 -0.065000
USER    NEWDPF tran0	-10.283987 0.761824 -12.347166
USER    NEWDPF axisangle0	0.497313 0.867537 -0.007715 148.697213
USER    NEWDPF quaternion0	0.478873 0.835370 -0.007429 0.269784
USER    NEWDPF dihe0	-141.60 -30.80 164.03 6.79 -173.43 103.04 -4.70 -160.25 139.18 -17.28 -43.76 125.37 75.39 -179.90 168.45 107.63 27.85 -157.01 -18.25 10.21 -6.73 -4.28 173.32 4.76 
USER  
USER                              x       y       z    vdW   Elec        q     RMS 
ATOM      1  C   UNL d   1     -11.849   1.483 -12.227 +0.00 -0.03    +0.194    13.586
ATOM      2  C   UNL d   1     -11.826  -0.046 -12.247 +0.01 -0.02    +0.194    13.586
ATOM      3  C   UNL d   1     -10.850  -0.584 -13.295 +0.01 -0.01    +0.194    13.586
ATOM      4  C   UNL d   1      -9.450   0.013 -13.175 -0.01 -0.03    +0.194    13.586
ATOM      5  C   UNL d   1      -9.431   1.529 -13.036 -0.02 -0.05    +0.194    13.586
ATOM      6  C   UNL d   1     -10.451   2.072 -12.033 -0.02 -0.07    +0.194    13.586
ATOM      7  O   UNL d   1     -12.646   1.902 -11.116 -0.00 +0.05    -0.278    13.586
ATOM      8  P   UNL d   1     -13.609   3.163 -11.305 +0.01 -0.07    +0.473    13.586
ATOM      9  O   UNL d   1     -15.031   2.931 -10.933 +0.00 +0.01    -0.228    13.586
ATOM     10  O   UNL d   1     -12.914   4.313 -10.446 -0.00 +0.08    -0.303    13.586
ATOM     11  H   UNL d   1     -12.021   4.488 -10.796 +0.02 -0.09    +0.222    13.586
ATOM     12  O   UNL d   1     -13.353   3.658 -12.793 +0.00 +0.04    -0.303    13.586
ATOM     13  H   UNL d   1     -12.507   4.148 -12.896 +0.01 -0.04    +0.222    13.586
ATOM     14  O   UNL d   1     -11.422  -0.525 -10.958 -0.00 +0.03    -0.278    13.586
ATOM     15  P   UNL d   1     -12.158  -1.840 -10.420 +0.01 +0.02    +0.473    13.586
ATOM     16  O   UNL d   1     -12.828  -1.737  -9.086 -0.01 -0.02    -0.228    13.586
ATOM     17  O   UNL d   1     -13.169  -2.225 -11.590 +0.00 -0.02    -0.303    13.586
ATOM     18  H   UNL d   1     -12.688  -2.526 -12.385 +0.01 +0.01    +0.222    13.586
ATOM     19  O   UNL d   1     -11.065  -2.989 -10.551 -0.02 -0.04    -0.303    13.586
ATOM     20  H   UNL d   1     -10.693  -3.031 -11.451 +0.03 +0.02    +0.222    13.586
ATOM     21  O   UNL d   1     -10.552   3.475 -12.265 -0.02 +0.12    -0.278    13.586
ATOM     22  P   UNL d   1      -9.952   4.499 -11.199 -0.02 -0.41    +0.473    13.586
ATOM     23  O   UNL d   1     -10.425   5.914 -11.238 -0.07 +0.12    -0.228    13.586
ATOM     24  O   UNL d   1     -10.228   3.740  -9.828 -0.04 +0.45    -0.303    13.586
ATOM     25  H   UNL d   1      -9.357   3.590  -9.379 -0.31 -0.72    +0.222    13.586
ATOM     26  O   UNL d   1      -8.375   4.280 -11.388 -0.08 +0.41    -0.303    13.586
ATOM     27  H   UNL d   1      -8.127   3.404 -11.029 -0.41 -0.42    +0.222    13.586
ATOM     28  O   UNL d   1     -10.688  -1.976 -13.056 -0.00 +0.00    -0.278    13.586
ATOM     29  P   UNL d   1     -11.362  -3.043 -14.028 +0.01 +0.02    +0.473    13.586
ATOM     30  O   UNL d   1     -10.614  -3.331 -15.279 -0.00 -0.01    -0.228    13.586
ATOM     31  O   UNL d   1     -11.567  -4.259 -13.008 +0.00 -0.04    -0.303    13.586
ATOM     32  H   UNL d   1     -11.965  -3.909 -12.178 +0.01 +0.04    +0.222    13.586
ATOM     33  O   UNL d   1     -12.837  -2.465 -14.188 +0.00 -0.01    -0.303    13.586
ATOM     34  H   UNL d   1     -13.447  -2.977 -13.603 +0.00 +0.01    +0.222    13.586
ATOM     35  O   UNL d   1      -8.136   1.857 -12.537 -0.18 +0.12    -0.278    13.586
ATOM     36  P   UNL d   1      -7.607   1.203 -11.182 -0.11 -0.30    +0.473    13.586
ATOM     37  O   UNL d   1      -7.243  -0.246 -11.263 -0.15 +0.07    -0.228    13.586
ATOM     38  O   UNL d   1      -6.393   2.163 -10.808 -0.28 +0.29    -0.303    13.586
ATOM     39  H   UNL d   1      -6.746   3.042 -10.550 -0.46 -0.46    +0.222    13.586
ATOM     40  O   UNL d   1      -8.745   1.604 -10.145 -0.10 +0.35    -0.303    13.586
ATOM     41  H   UNL d   1      -8.853   2.579 -10.082 -0.51 -0.48    +0.222    13.586
ATOM     42  O   UNL d   1      -8.757  -0.308 -14.386 -0.01 +0.03    -0.278    13.586
ATOM     43  P   UNL d   1      -7.627  -1.433 -14.354 -0.03 -0.04    +0.473    13.586
ATOM     44  O   UNL d   1      -6.216  -0.995 -14.552 -0.11 +0.02    -0.228    13.586
ATOM     45  O   UNL d   1      -7.894  -2.156 -12.963 -0.00 +0.06    -0.303    13.586
ATOM     46  H   UNL d   1      -7.135  -2.055 -12.355 -0.49 -0.10    +0.222    13.586
ATOM     47  O   UNL d   1      -8.166  -2.523 -15.398 -0.03 +0.00    -0.303    13.586
ATOM     48  H   UNL d   1      -9.066  -2.805 -15.134 +0.01 -0.00    +0.222    13.586
TER
ENDMDL
MODEL        1
USER    Run = 1
USER    Cluster Rank = 41
USER    Number of conformations in this cluster = 1
USER  
USER    RMSD from reference structure       = 14.978 A
USER  
USER    Estimated Free Energy of Binding    =   +2.65 kcal/mol  [=(1)+(2)+(3)-(4)]
USER    
USER    (1) Final Intermolecular Energy     =   -4.51 kcal/mol
USER        vdW + Hbond + desolv Energy     =   -4.36 kcal/mol
USER        Electrostatic Energy            =   -0.15 kcal/mol
USER    (2) Final Total Internal Energy     =  -14.71 kcal/mol
USER    (3) Torsional Free Energy           =   +7.16 kcal/mol
USER    (4) Unbound System's Energy  [=(2)] =  -14.71 kcal/mol
USER    
USER    
USER  
USER    DPF = D:/Protein_go_brrr/autodock/final/AncMH_nat/IHP/dock.dpf
USER    NEWDPF move	IHP_ideal_opt.pdbqt
USER    NEWDPF about	0.035000 0.082000 -0.065000
USER    NEWDPF tran0	-15.387575 -10.960202 -5.181873
USER    NEWDPF axisangle0	-0.069822 0.280166 0.957409 -102.456263
USER    NEWDPF quaternion0	-0.054436 0.218430 0.746440 -0.626221
USER    NEWDPF dihe0	92.47 108.59 127.57 -176.80 96.21 108.53 -74.41 -24.58 81.90 67.64 -161.48 137.21 -39.37 75.47 47.89 168.41 114.78 164.40 37.94 -19.85 179.67 -24.20 -4.73 173.89 
USER  
USER                              x       y       z    vdW   Elec        q     RMS 
ATOM      1  C   UNL d   1     -14.647  -9.400  -5.145 -0.05 +0.06    +0.194    14.978
ATOM      2  C   UNL d   1     -13.685 -10.586  -5.241 -0.08 +0.03    +0.194    14.978
ATOM      3  C   UNL d   1     -14.093 -11.724  -4.303 -0.10 +0.02    +0.194    14.978
ATOM      4  C   UNL d   1     -15.551 -12.147  -4.469 -0.04 +0.02    +0.194    14.978
ATOM      5  C   UNL d   1     -16.536 -10.985  -4.494 -0.01 +0.03    +0.194    14.978
ATOM      6  C   UNL d   1     -16.097  -9.821  -5.385 -0.01 +0.05    +0.194    14.978
ATOM      7  O   UNL d   1     -14.301  -8.461  -6.166 -0.03 -0.11    -0.278    14.978
ATOM      8  P   UNL d   1     -13.143  -7.403  -5.864 -0.11 +0.25    +0.473    14.978
ATOM      9  O   UNL d   1     -12.338  -7.681  -4.643 -0.29 -0.10    -0.228    14.978
ATOM     10  O   UNL d   1     -12.273  -7.390  -7.200 -0.28 -0.31    -0.303    14.978
ATOM     11  H   UNL d   1     -11.849  -8.260  -7.323 +0.05 +0.36    +0.222    14.978
ATOM     12  O   UNL d   1     -13.856  -5.984  -5.917 -0.06 -0.16    -0.303    14.978
ATOM     13  H   UNL d   1     -14.542  -5.871  -5.221 +0.06 +0.14    +0.222    14.978
ATOM     14  O   UNL d   1     -13.687 -11.080  -6.586 -0.02 -0.05    -0.278    14.978
ATOM     15  P   UNL d   1     -12.341 -10.869  -7.428 -0.08 +0.15    +0.473    14.978
ATOM     16  O   UNL d   1     -11.801 -12.067  -8.143 -0.06 -0.02    -0.228    14.978
ATOM     17  O   UNL d   1     -12.686  -9.665  -8.413 -0.52 -0.30    -0.303    14.978
ATOM     18  H   UNL d   1     -13.318  -9.044  -8.002 +0.03 +0.16    +0.222    14.978
ATOM     19  O   UNL d   1     -11.341 -10.170  -6.407 -0.20 -0.03    -0.303    14.978
ATOM     20  H   UNL d   1     -10.515 -10.679  -6.307 -0.46 -0.23    +0.222    14.978
ATOM     21  O   UNL d   1     -16.919  -8.707  -5.041 -0.01 -0.09    -0.278    14.978
ATOM     22  P   UNL d   1     -16.618  -7.883  -3.709 -0.04 +0.28    +0.473    14.978
ATOM     23  O   UNL d   1     -15.493  -6.903  -3.725 -0.40 -0.23    -0.228    14.978
ATOM     24  O   UNL d   1     -18.045  -7.256  -3.385 -0.05 -0.17    -0.303    14.978
ATOM     25  H   UNL d   1     -18.738  -7.878  -3.724 +0.01 +0.08    +0.222    14.978
ATOM     26  O   UNL d   1     -16.516  -9.054  -2.618 -0.06 -0.14    -0.303    14.978
ATOM     27  H   UNL d   1     -17.390  -9.484  -2.525 +0.04 +0.08    +0.222    14.978
ATOM     28  O   UNL d   1     -13.326 -12.867  -4.656 -0.07 +0.00    -0.278    14.978
ATOM     29  P   UNL d   1     -11.877 -13.087  -4.032 -0.23 -0.10    +0.473    14.978
ATOM     30  O   UNL d   1     -11.526 -14.494  -3.710 -0.24 +0.01    -0.228    14.978
ATOM     31  O   UNL d   1     -10.982 -12.350  -5.135 -0.17 +0.25    -0.303    14.978
ATOM     32  H   UNL d   1     -11.485 -12.324  -5.982 +0.03 -0.11    +0.222    14.978
ATOM     33  O   UNL d   1     -11.872 -12.050  -2.824 -0.27 +0.05    -0.303    14.978
ATOM     34  H   UNL d   1     -12.783 -11.997  -2.443 -0.27 -0.02    +0.222    14.978
ATOM     35  O   UNL d   1     -17.739 -11.510  -5.052 -0.00 -0.04    -0.278    14.978
ATOM     36  P   UNL d   1     -19.121 -11.360  -4.269 +0.00 +0.06    +0.473    14.978
ATOM     37  O   UNL d   1     -20.354 -11.487  -5.106 +0.00 -0.02    -0.228    14.978
ATOM     38  O   UNL d   1     -18.978 -12.474  -3.139 -0.00 -0.03    -0.303    14.978
ATOM     39  H   UNL d   1     -18.050 -12.791  -3.116 +0.02 +0.03    +0.222    14.978
ATOM     40  O   UNL d   1     -18.919  -9.991  -3.484 +0.00 -0.06    -0.303    14.978
ATOM     41  H   UNL d   1     -18.277  -9.402  -3.938 +0.01 +0.06    +0.222    14.978
ATOM     42  O   UNL d   1     -15.880 -12.954  -3.334 -0.05 -0.03    -0.278    14.978
ATOM     43  P   UNL d   1     -15.831 -12.298  -1.881 -0.11 +0.08    +0.473    14.978
ATOM     44  O   UNL d   1     -15.494 -13.189  -0.736 -0.22 -0.04    -0.228    14.978
ATOM     45  O   UNL d   1     -14.822 -11.084  -2.080 -0.10 -0.06    -0.303    14.978
ATOM     46  H   UNL d   1     -15.221 -10.236  -1.798 +0.09 +0.07    +0.222    14.978
ATOM     47  O   UNL d   1     -17.238 -11.537  -1.774 -0.03 -0.06    -0.303    14.978
ATOM     48  H   UNL d   1     -17.414 -11.065  -2.614 +0.03 +0.05    +0.222    14.978
TER
ENDMDL
MODEL       52
USER    Run = 52
USER    Cluster Rank = 42
USER    Number of conformations in this cluster = 1
USER  
USER    RMSD from reference structure       = 20.105 A
USER  
USER    Estimated Free Energy of Binding    =   +2.67 kcal/mol  [=(1)+(2)+(3)-(4)]
USER    
USER    (1) Final Intermolecular Energy     =   -4.49 kcal/mol
USER        vdW + Hbond + desolv Energy     =   -4.18 kcal/mol
USER        Electrostatic Energy            =   -0.31 kcal/mol
USER    (2) Final Total Internal Energy     =  -13.93 kcal/mol
USER    (3) Torsional Free Energy           =   +7.16 kcal/mol
USER    (4) Unbound System's Energy  [=(2)] =  -13.93 kcal/mol
USER    
USER    
USER  
USER    DPF = D:/Protein_go_brrr/autodock/final/AncMH_nat/IHP/dock.dpf
USER    NEWDPF move	IHP_ideal_opt.pdbqt
USER    NEWDPF about	0.035000 0.082000 -0.065000
USER    NEWDPF tran0	-12.459300 9.421433 16.268789
USER    NEWDPF axisangle0	-0.982666 -0.151589 -0.106718 142.071884
USER    NEWDPF quaternion0	-0.929329 -0.143361 -0.100926 0.324975
USER    NEWDPF dihe0	66.77 72.20 46.40 70.40 -174.01 179.86 -40.25 -165.61 142.37 -1.51 42.09 100.83 -93.69 -66.97 16.57 -40.25 114.70 -133.83 -142.15 0.66 114.84 137.07 151.68 -62.08 
USER  
USER                              x       y       z    vdW   Elec        q     RMS 
ATOM      1  C   UNL d   1     -11.240  10.047  15.217 -0.14 -0.02    +0.194    20.105
ATOM      2  C   UNL d   1     -12.676  10.445  14.874 -0.19 -0.01    +0.194    20.105
ATOM      3  C   UNL d   1     -13.638   9.262  14.997 -0.23 +0.02    +0.194    20.105
ATOM      4  C   UNL d   1     -13.543   8.548  16.343 -0.14 +0.03    +0.194    20.105
ATOM      5  C   UNL d   1     -12.118   8.232  16.780 -0.12 -0.01    +0.194    20.105
ATOM      6  C   UNL d   1     -11.143   9.398  16.599 -0.11 -0.02    +0.194    20.105
ATOM      7  O   UNL d   1     -10.442  11.233  15.247 -0.18 +0.05    -0.278    20.105
ATOM      8  P   UNL d   1     -10.196  11.947  16.654 -0.09 -0.10    +0.473    20.105
ATOM      9  O   UNL d   1     -11.391  12.028  17.538 -0.03 +0.03    -0.228    20.105
ATOM     10  O   UNL d   1      -8.992  11.124  17.300 -0.05 +0.06    -0.303    20.105
ATOM     11  H   UNL d   1      -9.348  10.395  17.842 +0.05 -0.05    +0.222    20.105
ATOM     12  O   UNL d   1      -9.501  13.331  16.299 -0.12 +0.12    -0.303    20.105
ATOM     13  H   UNL d   1      -9.735  13.661  15.402 -0.52 -0.18    +0.222    20.105
ATOM     14  O   UNL d   1     -13.102  11.476  15.774 -0.05 +0.02    -0.278    20.105
ATOM     15  P   UNL d   1     -13.808  12.754  15.117 -0.01 -0.06    +0.473    20.105
ATOM     16  O   UNL d   1     -13.720  12.878  13.628 -0.13 +0.05    -0.228    20.105
ATOM     17  O   UNL d   1     -15.310  12.680  15.643 -0.01 -0.00    -0.303    20.105
ATOM     18  H   UNL d   1     -15.687  11.790  15.508 +0.04 +0.03    +0.222    20.105
ATOM     19  O   UNL d   1     -13.241  13.989  15.943 -0.03 +0.07    -0.303    20.105
ATOM     20  H   UNL d   1     -12.498  13.728  16.518 +0.04 -0.05    +0.222    20.105
ATOM     21  O   UNL d   1      -9.828   8.857  16.715 -0.11 +0.06    -0.278    20.105
ATOM     22  P   UNL d   1      -9.617   7.276  16.686 -0.21 -0.16    +0.473    20.105
ATOM     23  O   UNL d   1     -10.314   6.491  15.627 -0.40 +0.08    -0.228    20.105
ATOM     24  O   UNL d   1      -8.030   7.161  16.666 -0.19 +0.24    -0.303    20.105
ATOM     25  H   UNL d   1      -7.747   6.656  17.471 -0.09 -0.33    +0.222    20.105
ATOM     26  O   UNL d   1      -9.959   6.874  18.200 -0.07 +0.10    -0.303    20.105
ATOM     27  H   UNL d   1     -10.283   7.665  18.677 +0.05 -0.05    +0.222    20.105
ATOM     28  O   UNL d   1     -14.961   9.777  14.936 -0.16 -0.09    -0.278    20.105
ATOM     29  P   UNL d   1     -15.906   9.722  16.217 -0.08 +0.29    +0.473    20.105
ATOM     30  O   UNL d   1     -16.303   8.362  16.663 -0.50 -0.28    -0.228    20.105
ATOM     31  O   UNL d   1     -15.041  10.598  17.240 -0.02 -0.06    -0.303    20.105
ATOM     32  H   UNL d   1     -14.319  11.043  16.739 +0.04 +0.02    +0.222    20.105
ATOM     33  O   UNL d   1     -17.081  10.717  15.809 -0.09 -0.18    -0.303    20.105
ATOM     34  H   UNL d   1     -16.984  11.556  16.323 +0.02 +0.07    +0.222    20.105
ATOM     35  O   UNL d   1     -12.192   7.961  18.178 -0.02 +0.01    -0.278    20.105
ATOM     36  P   UNL d   1     -12.316   9.158  19.225 +0.01 -0.02    +0.473    20.105
ATOM     37  O   UNL d   1     -12.865   8.788  20.566 -0.00 +0.00    -0.228    20.105
ATOM     38  O   UNL d   1     -10.824   9.716  19.259 -0.00 +0.04    -0.303    20.105
ATOM     39  H   UNL d   1     -10.639  10.189  18.420 +0.03 -0.03    +0.222    20.105
ATOM     40  O   UNL d   1     -13.115  10.254  18.394 -0.01 -0.00    -0.303    20.105
ATOM     41  H   UNL d   1     -12.779  10.331  17.474 +0.03 -0.00    +0.222    20.105
ATOM     42  O   UNL d   1     -14.225   7.297  16.198 -0.14 -0.09    -0.278    20.105
ATOM     43  P   UNL d   1     -14.444   6.384  17.488 -0.08 +0.12    +0.473    20.105
ATOM     44  O   UNL d   1     -13.365   5.419  17.837 -0.08 -0.01    -0.228    20.105
ATOM     45  O   UNL d   1     -14.753   7.454  18.625 -0.03 -0.06    -0.303    20.105
ATOM     46  H   UNL d   1     -14.290   8.299  18.457 +0.02 +0.03    +0.222    20.105
ATOM     47  O   UNL d   1     -15.892   5.743  17.241 -0.10 -0.17    -0.303    20.105
ATOM     48  H   UNL d   1     -16.580   6.395  17.488 +0.02 +0.19    +0.222    20.105
TER
ENDMDL
MODEL        4
USER    Run = 4
USER    Cluster Rank = 43
USER    Number of conformations in this cluster = 1
USER  
USER    RMSD from reference structure       = 18.421 A
USER  
USER    Estimated Free Energy of Binding    =   +2.67 kcal/mol  [=(1)+(2)+(3)-(4)]
USER    
USER    (1) Final Intermolecular Energy     =   -4.49 kcal/mol
USER        vdW + Hbond + desolv Energy     =   -4.11 kcal/mol
USER        Electrostatic Energy            =   -0.38 kcal/mol
USER    (2) Final Total Internal Energy     =  -12.64 kcal/mol
USER    (3) Torsional Free Energy           =   +7.16 kcal/mol
USER    (4) Unbound System's Energy  [=(2)] =  -12.64 kcal/mol
USER    
USER    
USER  
USER    DPF = D:/Protein_go_brrr/autodock/final/AncMH_nat/IHP/dock.dpf
USER    NEWDPF move	IHP_ideal_opt.pdbqt
USER    NEWDPF about	0.035000 0.082000 -0.065000
USER    NEWDPF tran0	9.770328 20.036299 2.008092
USER    NEWDPF axisangle0	0.435830 0.230739 0.869949 137.764710
USER    NEWDPF quaternion0	0.406561 0.215243 0.811526 0.360284
USER    NEWDPF dihe0	-170.15 -149.58 147.99 23.95 11.68 -38.50 170.77 -105.53 71.37 98.85 55.01 -12.71 89.88 -138.68 -103.71 -54.22 39.32 -83.48 -2.38 -1.84 -8.76 148.86 -175.53 -154.50 
USER  
USER                              x       y       z    vdW   Elec        q     RMS 
ATOM      1  C   UNL d   1       8.981  20.606   3.435 -0.09 +0.07    +0.194    18.421
ATOM      2  C   UNL d   1       8.696  21.401   2.160 -0.07 +0.05    +0.194    18.421
ATOM      3  C   UNL d   1       9.966  21.632   1.339 -0.02 +0.02    +0.194    18.421
ATOM      4  C   UNL d   1      10.741  20.347   1.057 -0.04 +0.01    +0.194    18.421
ATOM      5  C   UNL d   1      10.950  19.466   2.282 -0.04 +0.02    +0.194    18.421
ATOM      6  C   UNL d   1       9.693  19.286   3.137 -0.12 +0.05    +0.194    18.421
ATOM      7  O   UNL d   1       7.731  20.287   4.051 -0.21 -0.28    -0.278    18.421
ATOM      8  P   UNL d   1       7.503  20.718   5.572 -0.04 +0.41    +0.473    18.421
ATOM      9  O   UNL d   1       6.132  21.201   5.892 -0.08 -0.27    -0.228    18.421
ATOM     10  O   UNL d   1       7.923  19.425   6.408 -0.11 -0.18    -0.303    18.421
ATOM     11  H   UNL d   1       8.634  18.950   5.939 +0.03 +0.10    +0.222    18.421
ATOM     12  O   UNL d   1       8.687  21.725   5.899 -0.00 -0.10    -0.303    18.421
ATOM     13  H   UNL d   1       8.538  22.241   6.723 +0.01 +0.05    +0.222    18.421
ATOM     14  O   UNL d   1       7.759  20.674   1.356 -0.10 -0.07    -0.278    18.421
ATOM     15  P   UNL d   1       6.483  21.487   0.831 -0.02 +0.17    +0.473    18.421
ATOM     16  O   UNL d   1       5.331  21.614   1.777 -0.72 -0.22    -0.228    18.421
ATOM     17  O   UNL d   1       7.078  22.898   0.389 -0.01 -0.06    -0.303    18.421
ATOM     18  H   UNL d   1       7.831  22.786  -0.222 +0.03 +0.03    +0.222    18.421
ATOM     19  O   UNL d   1       6.145  20.828  -0.577 -0.15 -0.05    -0.303    18.421
ATOM     20  H   UNL d   1       6.953  20.563  -1.054 +0.04 +0.02    +0.222    18.421
ATOM     21  O   UNL d   1      10.118  18.748   4.387 -0.04 -0.06    -0.278    18.421
ATOM     22  P   UNL d   1       9.736  17.248   4.774 -0.08 +0.11    +0.473    18.421
ATOM     23  O   UNL d   1       8.325  16.958   5.160 -0.18 -0.10    -0.228    18.421
ATOM     24  O   UNL d   1      10.262  16.441   3.508 -0.13 -0.05    -0.303    18.421
ATOM     25  H   UNL d   1       9.854  16.839   2.697 +0.05 +0.05    +0.222    18.421
ATOM     26  O   UNL d   1      10.850  16.902   5.874 -0.02 -0.03    -0.303    18.421
ATOM     27  H   UNL d   1      10.470  16.289   6.536 +0.02 +0.02    +0.222    18.421
ATOM     28  O   UNL d   1       9.570  22.121   0.065 -0.01 -0.02    -0.278    18.421
ATOM     29  P   UNL d   1       9.516  21.143  -1.191 -0.05 +0.01    +0.473    18.421
ATOM     30  O   UNL d   1      10.821  20.866  -1.844 -0.05 -0.00    -0.228    18.421
ATOM     31  O   UNL d   1       8.750  19.897  -0.542 -0.15 +0.01    -0.303    18.421
ATOM     32  H   UNL d   1       9.186  19.067  -0.845 -0.55 -0.06    +0.222    18.421
ATOM     33  O   UNL d   1       8.390  21.818  -2.092 -0.05 -0.02    -0.303    18.421
ATOM     34  H   UNL d   1       7.615  22.044  -1.521 +0.03 +0.02    +0.222    18.421
ATOM     35  O   UNL d   1      11.302  18.179   1.778 -0.06 -0.03    -0.278    18.421
ATOM     36  P   UNL d   1      10.491  17.541   0.563 -0.18 +0.06    +0.473    18.421
ATOM     37  O   UNL d   1      10.925  17.975  -0.801 -0.23 +0.02    -0.228    18.421
ATOM     38  O   UNL d   1      10.662  15.982   0.838 -0.27 -0.05    -0.303    18.421
ATOM     39  H   UNL d   1      11.183  15.857   1.661 +0.06 +0.03    +0.222    18.421
ATOM     40  O   UNL d   1       8.982  17.838   0.968 -0.45 -0.09    -0.303    18.421
ATOM     41  H   UNL d   1       8.823  18.798   1.102 -0.06 +0.03    +0.222    18.421
ATOM     42  O   UNL d   1      12.038  20.738   0.594 -0.00 -0.01    -0.278    18.421
ATOM     43  P   UNL d   1      13.234  20.841   1.646 +0.01 +0.01    +0.473    18.421
ATOM     44  O   UNL d   1      12.913  21.372   3.000 +0.00 -0.01    -0.228    18.421
ATOM     45  O   UNL d   1      13.824  19.363   1.649 +0.00 -0.00    -0.303    18.421
ATOM     46  H   UNL d   1      13.187  18.722   1.273 +0.02 +0.01    +0.222    18.421
ATOM     47  O   UNL d   1      14.364  21.641   0.838 +0.00 +0.00    -0.303    18.421
ATOM     48  H   UNL d   1      15.053  21.946   1.464 +0.00 -0.00    +0.222    18.421
TER
ENDMDL
MODEL       51
USER    Run = 51
USER    Cluster Rank = 44
USER    Number of conformations in this cluster = 1
USER  
USER    RMSD from reference structure       = 24.110 A
USER  
USER    Estimated Free Energy of Binding    =   +2.69 kcal/mol  [=(1)+(2)+(3)-(4)]
USER    
USER    (1) Final Intermolecular Energy     =   -4.47 kcal/mol
USER        vdW + Hbond + desolv Energy     =   -3.79 kcal/mol
USER        Electrostatic Energy            =   -0.68 kcal/mol
USER    (2) Final Total Internal Energy     =  -12.89 kcal/mol
USER    (3) Torsional Free Energy           =   +7.16 kcal/mol
USER    (4) Unbound System's Energy  [=(2)] =  -12.89 kcal/mol
USER    
USER    
USER  
USER    DPF = D:/Protein_go_brrr/autodock/final/AncMH_nat/IHP/dock.dpf
USER    NEWDPF move	IHP_ideal_opt.pdbqt
USER    NEWDPF about	0.035000 0.082000 -0.065000
USER    NEWDPF tran0	-17.960288 -10.542623 18.241603
USER    NEWDPF axisangle0	0.211823 0.909968 0.356496 -139.882512
USER    NEWDPF quaternion0	0.198975 0.854770 0.334872 -0.342983
USER    NEWDPF dihe0	-154.79 125.32 -180.00 3.23 21.30 161.81 -5.95 -129.28 -77.38 53.87 119.41 177.48 -44.31 173.93 169.91 108.85 8.72 4.72 -18.10 15.34 -15.31 4.83 173.67 -180.00 
USER  
USER                              x       y       z    vdW   Elec        q     RMS 
ATOM      1  C   UNL d   1     -18.348 -10.102  16.617 -0.05 +0.13    +0.194    24.110
ATOM      2  C   UNL d   1     -17.847 -11.534  16.812 -0.12 +0.02    +0.194    24.110
ATOM      3  C   UNL d   1     -16.654 -11.592  17.769 -0.12 +0.03    +0.194    24.110
ATOM      4  C   UNL d   1     -16.914 -10.886  19.097 -0.06 +0.06    +0.194    24.110
ATOM      5  C   UNL d   1     -17.522  -9.496  18.952 -0.08 +0.14    +0.194    24.110
ATOM      6  C   UNL d   1     -18.676  -9.426  17.949 -0.08 +0.15    +0.194    24.110
ATOM      7  O   UNL d   1     -19.557 -10.153  15.856 -0.07 -0.10    -0.278    24.110
ATOM      8  P   UNL d   1     -19.801  -9.033  14.743 -0.08 +0.25    +0.473    24.110
ATOM      9  O   UNL d   1     -18.644  -8.131  14.491 -0.67 -0.30    -0.228    24.110
ATOM     10  O   UNL d   1     -20.244  -9.861  13.453 -0.05 -0.05    -0.303    24.110
ATOM     11  H   UNL d   1     -20.926 -10.512  13.700 +0.04 +0.02    +0.222    24.110
ATOM     12  O   UNL d   1     -21.158  -8.321  15.162 -0.02 -0.10    -0.303    24.110
ATOM     13  H   UNL d   1     -21.039  -7.656  15.877 +0.02 +0.10    +0.222    24.110
ATOM     14  O   UNL d   1     -18.907 -12.330  17.355 -0.02 +0.02    -0.278    24.110
ATOM     15  P   UNL d   1     -18.950 -13.867  16.908 -0.03 -0.18    +0.473    24.110
ATOM     16  O   UNL d   1     -20.266 -14.389  16.422 -0.02 +0.07    -0.228    24.110
ATOM     17  O   UNL d   1     -17.796 -13.986  15.816 -0.06 +0.39    -0.303    24.110
ATOM     18  H   UNL d   1     -16.927 -14.129  16.237 -0.55 -0.38    +0.222    24.110
ATOM     19  O   UNL d   1     -18.311 -14.655  18.134 -0.02 +0.10    -0.303    24.110
ATOM     20  H   UNL d   1     -17.416 -14.330  18.344 +0.03 -0.08    +0.222    24.110
ATOM     21  O   UNL d   1     -18.899  -8.046  17.674 -0.08 -0.37    -0.278    24.110
ATOM     22  P   UNL d   1     -20.302  -7.381  18.044 -0.02 +0.25    +0.473    24.110
ATOM     23  O   UNL d   1     -20.682  -6.111  17.360 -0.02 -0.11    -0.228    24.110
ATOM     24  O   UNL d   1     -21.307  -8.592  17.810 -0.00 -0.08    -0.303    24.110
ATOM     25  H   UNL d   1     -21.068  -9.030  16.954 +0.02 +0.07    +0.222    24.110
ATOM     26  O   UNL d   1     -20.222  -7.322  19.644 -0.00 -0.10    -0.303    24.110
ATOM     27  H   UNL d   1     -19.467  -7.866  19.949 +0.01 +0.08    +0.222    24.110
ATOM     28  O   UNL d   1     -16.439 -12.957  18.103 -0.07 +0.06    -0.278    24.110
ATOM     29  P   UNL d   1     -15.093 -13.689  17.669 -0.11 -0.23    +0.473    24.110
ATOM     30  O   UNL d   1     -13.928 -13.473  18.566 -0.07 +0.04    -0.228    24.110
ATOM     31  O   UNL d   1     -15.626 -15.190  17.520 -0.09 +0.27    -0.303    24.110
ATOM     32  H   UNL d   1     -16.474 -15.174  17.018 -0.32 -0.30    +0.222    24.110
ATOM     33  O   UNL d   1     -14.931 -13.221  16.156 -0.06 +0.28    -0.303    24.110
ATOM     34  H   UNL d   1     -15.630 -13.656  15.609 -0.36 -0.54    +0.222    24.110
ATOM     35  O   UNL d   1     -18.061  -9.174  20.233 -0.02 -0.10    -0.278    24.110
ATOM     36  P   UNL d   1     -19.119 -10.144  20.928 +0.01 +0.07    +0.473    24.110
ATOM     37  O   UNL d   1     -18.701 -11.576  21.047 +0.00 -0.02    -0.228    24.110
ATOM     38  O   UNL d   1     -19.362  -9.416  22.324 +0.00 -0.03    -0.303    24.110
ATOM     39  H   UNL d   1     -19.542 -10.092  23.012 +0.00 +0.01    +0.222    24.110
ATOM     40  O   UNL d   1     -20.446  -9.845  20.105 +0.00 -0.05    -0.303    24.110
ATOM     41  H   UNL d   1     -20.261  -9.325  19.292 +0.01 +0.06    +0.222    24.110
ATOM     42  O   UNL d   1     -15.644 -10.724  19.736 -0.03 -0.07    -0.278    24.110
ATOM     43  P   UNL d   1     -14.587  -9.709  19.107 -0.08 +0.22    +0.473    24.110
ATOM     44  O   UNL d   1     -15.060  -8.332  18.794 -0.42 -0.25    -0.228    24.110
ATOM     45  O   UNL d   1     -13.386  -9.764  20.150 -0.02 -0.06    -0.303    24.110
ATOM     46  H   UNL d   1     -13.164 -10.685  20.392 +0.02 +0.02    +0.222    24.110
ATOM     47  O   UNL d   1     -13.981 -10.530  17.871 -0.14 -0.11    -0.303    24.110
ATOM     48  H   UNL d   1     -14.365 -11.431  17.863 +0.05 +0.04    +0.222    24.110
TER
ENDMDL
MODEL       47
USER    Run = 47
USER    Cluster Rank = 45
USER    Number of conformations in this cluster = 1
USER  
USER    RMSD from reference structure       = 20.068 A
USER  
USER    Estimated Free Energy of Binding    =   +2.71 kcal/mol  [=(1)+(2)+(3)-(4)]
USER    
USER    (1) Final Intermolecular Energy     =   -4.45 kcal/mol
USER        vdW + Hbond + desolv Energy     =   -4.41 kcal/mol
USER        Electrostatic Energy            =   -0.04 kcal/mol
USER    (2) Final Total Internal Energy     =  -13.12 kcal/mol
USER    (3) Torsional Free Energy           =   +7.16 kcal/mol
USER    (4) Unbound System's Energy  [=(2)] =  -13.12 kcal/mol
USER    
USER    
USER  
USER    DPF = D:/Protein_go_brrr/autodock/final/AncMH_nat/IHP/dock.dpf
USER    NEWDPF move	IHP_ideal_opt.pdbqt
USER    NEWDPF about	0.035000 0.082000 -0.065000
USER    NEWDPF tran0	-9.109791 -6.994708 19.025975
USER    NEWDPF axisangle0	-0.734380 -0.660205 -0.157526 -149.957252
USER    NEWDPF quaternion0	-0.709286 -0.637646 -0.152144 -0.259179
USER    NEWDPF dihe0	-112.04 -28.38 93.70 137.70 101.99 110.39 -57.33 -105.42 13.83 105.37 9.62 132.00 176.60 51.46 111.15 120.57 -37.29 -156.38 70.58 27.13 -42.58 -1.49 176.03 -11.51 
USER  
USER                              x       y       z    vdW   Elec        q     RMS 
ATOM      1  C   UNL d   1      -9.898  -5.469  19.217 -0.15 +0.01    +0.194    20.068
ATOM      2  C   UNL d   1     -10.821  -6.665  18.977 -0.14 +0.03    +0.194    20.068
ATOM      3  C   UNL d   1     -10.281  -7.588  17.883 -0.23 +0.03    +0.194    20.068
ATOM      4  C   UNL d   1      -8.834  -8.014  18.116 -0.26 +0.01    +0.194    20.068
ATOM      5  C   UNL d   1      -7.898  -6.866  18.472 -0.22 -0.02    +0.194    20.068
ATOM      6  C   UNL d   1      -8.465  -5.908  19.522 -0.25 -0.01    +0.194    20.068
ATOM      7  O   UNL d   1     -10.378  -4.757  20.359 -0.12 +0.00    -0.278    20.068
ATOM      8  P   UNL d   1     -11.916  -4.326  20.394 -0.08 +0.02    +0.473    20.068
ATOM      9  O   UNL d   1     -12.165  -2.907  20.768 -0.10 +0.02    -0.228    20.068
ATOM     10  O   UNL d   1     -12.454  -4.695  18.938 -0.11 -0.07    -0.303    20.068
ATOM     11  H   UNL d   1     -12.794  -5.609  18.938 +0.06 +0.08    +0.222    20.068
ATOM     12  O   UNL d   1     -12.631  -5.418  21.300 -0.01 -0.03    -0.303    20.068
ATOM     13  H   UNL d   1     -12.732  -6.286  20.849 +0.03 +0.03    +0.222    20.068
ATOM     14  O   UNL d   1     -10.938  -7.416  20.192 -0.03 -0.03    -0.278    20.068
ATOM     15  P   UNL d   1     -12.221  -8.365  20.326 +0.00 +0.08    +0.473    20.068
ATOM     16  O   UNL d   1     -11.983  -9.837  20.204 -0.02 -0.03    -0.228    20.068
ATOM     17  O   UNL d   1     -12.859  -7.957  21.727 -0.00 -0.03    -0.303    20.068
ATOM     18  H   UNL d   1     -12.322  -7.275  22.174 +0.01 +0.02    +0.222    20.068
ATOM     19  O   UNL d   1     -13.275  -7.753  19.304 -0.06 -0.13    -0.303    20.068
ATOM     20  H   UNL d   1     -13.072  -8.003  18.384 +0.06 +0.12    +0.222    20.068
ATOM     21  O   UNL d   1      -7.653  -4.736  19.492 -0.22 +0.02    -0.278    20.068
ATOM     22  P   UNL d   1      -7.356  -3.943  20.844 -0.11 -0.05    +0.473    20.068
ATOM     23  O   UNL d   1      -5.992  -3.374  21.042 -0.11 +0.03    -0.228    20.068
ATOM     24  O   UNL d   1      -8.535  -2.874  20.860 -0.15 +0.04    -0.303    20.068
ATOM     25  H   UNL d   1      -9.345  -3.302  20.481 +0.03 -0.04    +0.222    20.068
ATOM     26  O   UNL d   1      -7.847  -4.993  21.951 -0.03 +0.02    -0.303    20.068
ATOM     27  H   UNL d   1      -8.810  -5.139  21.852 +0.04 -0.01    +0.222    20.068
ATOM     28  O   UNL d   1     -11.040  -8.790  17.923 -0.10 -0.06    -0.278    20.068
ATOM     29  P   UNL d   1     -12.072  -9.129  16.758 -0.08 +0.20    +0.473    20.068
ATOM     30  O   UNL d   1     -11.547  -9.989  15.667 -0.31 -0.10    -0.228    20.068
ATOM     31  O   UNL d   1     -13.286  -9.711  17.623 -0.15 -0.14    -0.303    20.068
ATOM     32  H   UNL d   1     -13.002  -9.770  18.564 +0.05 +0.07    +0.222    20.068
ATOM     33  O   UNL d   1     -12.596  -7.683  16.346 -0.26 -0.19    -0.303    20.068
ATOM     34  H   UNL d   1     -12.817  -7.175  17.165 +0.09 +0.15    +0.222    20.068
ATOM     35  O   UNL d   1      -6.739  -7.473  19.040 -0.23 +0.04    -0.278    20.068
ATOM     36  P   UNL d   1      -6.880  -8.495  20.257 -0.08 -0.03    +0.473    20.068
ATOM     37  O   UNL d   1      -8.280  -8.875  20.621 -0.03 +0.00    -0.228    20.068
ATOM     38  O   UNL d   1      -5.978  -9.712  19.767 -0.11 +0.02    -0.303    20.068
ATOM     39  H   UNL d   1      -6.302 -10.021  18.894 +0.06 -0.00    +0.222    20.068
ATOM     40  O   UNL d   1      -6.004  -7.799  21.388 -0.05 +0.04    -0.303    20.068
ATOM     41  H   UNL d   1      -6.379  -6.932  21.657 +0.05 -0.03    +0.222    20.068
ATOM     42  O   UNL d   1      -8.363  -8.575  16.886 -0.29 -0.01    -0.278    20.068
ATOM     43  P   UNL d   1      -7.807 -10.070  16.883 -0.17 +0.12    +0.473    20.068
ATOM     44  O   UNL d   1      -6.346 -10.260  16.667 -0.27 -0.04    -0.228    20.068
ATOM     45  O   UNL d   1      -8.341 -10.644  18.268 -0.06 -0.04    -0.303    20.068
ATOM     46  H   UNL d   1      -7.955 -10.162  19.027 +0.06 +0.01    +0.222    20.068
ATOM     47  O   UNL d   1      -8.764 -10.814  15.833 -0.49 -0.29    -0.303    20.068
ATOM     48  H   UNL d   1      -9.698 -10.610  16.047 +0.11 +0.14    +0.222    20.068
TER
ENDMDL
MODEL       95
USER    Run = 95
USER    Cluster Rank = 46
USER    Number of conformations in this cluster = 1
USER  
USER    RMSD from reference structure       = 22.355 A
USER  
USER    Estimated Free Energy of Binding    =   +2.73 kcal/mol  [=(1)+(2)+(3)-(4)]
USER    
USER    (1) Final Intermolecular Energy     =   -4.43 kcal/mol
USER        vdW + Hbond + desolv Energy     =   -3.89 kcal/mol
USER        Electrostatic Energy            =   -0.53 kcal/mol
USER    (2) Final Total Internal Energy     =  -13.80 kcal/mol
USER    (3) Torsional Free Energy           =   +7.16 kcal/mol
USER    (4) Unbound System's Energy  [=(2)] =  -13.80 kcal/mol
USER    
USER    
USER  
USER    DPF = D:/Protein_go_brrr/autodock/final/AncMH_nat/IHP/dock.dpf
USER    NEWDPF move	IHP_ideal_opt.pdbqt
USER    NEWDPF about	0.035000 0.082000 -0.065000
USER    NEWDPF tran0	-20.918096 -10.498894 12.275132
USER    NEWDPF axisangle0	-0.793229 0.583817 -0.173046 -136.008918
USER    NEWDPF quaternion0	-0.735493 0.541323 -0.160451 -0.374534
USER    NEWDPF dihe0	102.02 -5.08 34.68 126.89 46.54 178.68 -35.26 -104.48 56.78 -54.82 140.33 -180.00 30.81 -75.56 15.29 108.26 -166.04 -143.44 -136.01 -23.65 155.21 -34.34 -33.71 160.08 
USER  
USER                              x       y       z    vdW   Elec        q     RMS 
ATOM      1  C   UNL d   1     -19.356 -11.230  12.178 -0.15 -0.03    +0.194    22.355
ATOM      2  C   UNL d   1     -19.502 -10.119  13.219 -0.15 +0.02    +0.194    22.355
ATOM      3  C   UNL d   1     -20.285  -8.925  12.667 -0.13 +0.05    +0.194    22.355
ATOM      4  C   UNL d   1     -21.625  -9.319  12.051 -0.04 +0.02    +0.194    22.355
ATOM      5  C   UNL d   1     -21.545 -10.500  11.093 -0.04 +0.01    +0.194    22.355
ATOM      6  C   UNL d   1     -20.710 -11.669  11.619 -0.04 -0.02    +0.194    22.355
ATOM      7  O   UNL d   1     -18.771 -12.367  12.818 -0.14 +0.15    -0.278    22.355
ATOM      8  P   UNL d   1     -19.726 -13.576  13.239 -0.02 -0.30    +0.473    22.355
ATOM      9  O   UNL d   1     -20.046 -14.537  12.148 -0.06 +0.14    -0.228    22.355
ATOM     10  O   UNL d   1     -18.972 -14.253  14.471 -0.08 +0.34    -0.303    22.355
ATOM     11  H   UNL d   1     -18.068 -14.504  14.204 -0.47 -0.58    +0.222    22.355
ATOM     12  O   UNL d   1     -20.972 -12.891  13.948 -0.01 +0.06    -0.303    22.355
ATOM     13  H   UNL d   1     -20.713 -12.247  14.645 +0.03 -0.03    +0.222    22.355
ATOM     14  O   UNL d   1     -20.199 -10.635  14.359 -0.03 -0.03    -0.278    22.355
ATOM     15  P   UNL d   1     -19.331 -10.867  15.684 -0.05 +0.09    +0.473    22.355
ATOM     16  O   UNL d   1     -17.849 -10.978  15.506 -0.13 -0.05    -0.228    22.355
ATOM     17  O   UNL d   1     -19.750  -9.662  16.638 -0.05 -0.15    -0.303    22.355
ATOM     18  H   UNL d   1     -19.531  -8.801  16.233 +0.03 +0.19    +0.222    22.355
ATOM     19  O   UNL d   1     -20.029 -12.102  16.405 -0.01 +0.01    -0.303    22.355
ATOM     20  H   UNL d   1     -19.927 -12.924  15.891 +0.03 -0.05    +0.222    22.355
ATOM     21  O   UNL d   1     -20.447 -12.522  10.507 -0.03 +0.03    -0.278    22.355
ATOM     22  P   UNL d   1     -19.807 -11.914   9.178 -0.09 +0.02    +0.473    22.355
ATOM     23  O   UNL d   1     -18.651 -10.983   9.315 -0.50 -0.03    -0.228    22.355
ATOM     24  O   UNL d   1     -19.509 -13.228   8.331 -0.07 +0.01    -0.303    22.355
ATOM     25  H   UNL d   1     -19.493 -13.999   8.953 +0.05 -0.03    +0.222    22.355
ATOM     26  O   UNL d   1     -21.099 -11.326   8.433 -0.21 -0.03    -0.303    22.355
ATOM     27  H   UNL d   1     -21.881 -11.432   9.013 +0.03 +0.01    +0.222    22.355
ATOM     28  O   UNL d   1     -20.607  -8.081  13.764 -0.06 -0.11    -0.278    22.355
ATOM     29  P   UNL d   1     -19.495  -7.140  14.409 -0.07 +0.43    +0.473    22.355
ATOM     30  O   UNL d   1     -19.258  -5.853  13.707 -0.04 -0.17    -0.228    22.355
ATOM     31  O   UNL d   1     -20.037  -7.058  15.913 -0.22 -0.26    -0.303    22.355
ATOM     32  H   UNL d   1     -20.690  -7.783  16.052 +0.02 +0.12    +0.222    22.355
ATOM     33  O   UNL d   1     -18.254  -8.130  14.537 -0.48 -0.49    -0.303    22.355
ATOM     34  H   UNL d   1     -18.566  -8.990  14.910 +0.04 +0.24    +0.222    22.355
ATOM     35  O   UNL d   1     -22.883 -10.972  10.947 -0.00 -0.01    -0.278    22.355
ATOM     36  P   UNL d   1     -23.769 -10.509   9.704 +0.01 +0.02    +0.473    22.355
ATOM     37  O   UNL d   1     -25.049  -9.816  10.046 +0.00 -0.01    -0.228    22.355
ATOM     38  O   UNL d   1     -22.738  -9.613   8.885 -0.04 -0.03    -0.303    22.355
ATOM     39  H   UNL d   1     -21.959  -9.421   9.450 +0.04 +0.02    +0.222    22.355
ATOM     40  O   UNL d   1     -23.878 -11.845   8.848 +0.00 -0.01    -0.303    22.355
ATOM     41  H   UNL d   1     -23.206 -11.874   8.131 +0.01 +0.01    +0.222    22.355
ATOM     42  O   UNL d   1     -22.080  -8.192  11.294 -0.03 -0.04    -0.278    22.355
ATOM     43  P   UNL d   1     -21.073  -7.490  10.275 -0.11 +0.11    +0.473    22.355
ATOM     44  O   UNL d   1     -20.362  -6.269  10.744 -0.43 -0.15    -0.228    22.355
ATOM     45  O   UNL d   1     -20.109  -8.686   9.859 -0.23 -0.04    -0.303    22.355
ATOM     46  H   UNL d   1     -20.584  -9.364   9.337 +0.04 +0.02    +0.222    22.355
ATOM     47  O   UNL d   1     -21.959  -7.310   8.951 -0.08 -0.05    -0.303    22.355
ATOM     48  H   UNL d   1     -22.852  -7.682   9.107 +0.03 +0.03    +0.222    22.355
TER
ENDMDL
MODEL       62
USER    Run = 62
USER    Cluster Rank = 47
USER    Number of conformations in this cluster = 1
USER  
USER    RMSD from reference structure       = 20.744 A
USER  
USER    Estimated Free Energy of Binding    =   +2.77 kcal/mol  [=(1)+(2)+(3)-(4)]
USER    
USER    (1) Final Intermolecular Energy     =   -4.39 kcal/mol
USER        vdW + Hbond + desolv Energy     =   -3.59 kcal/mol
USER        Electrostatic Energy            =   -0.79 kcal/mol
USER    (2) Final Total Internal Energy     =  -13.18 kcal/mol
USER    (3) Torsional Free Energy           =   +7.16 kcal/mol
USER    (4) Unbound System's Energy  [=(2)] =  -13.18 kcal/mol
USER    
USER    
USER  
USER    DPF = D:/Protein_go_brrr/autodock/final/AncMH_nat/IHP/dock.dpf
USER    NEWDPF move	IHP_ideal_opt.pdbqt
USER    NEWDPF about	0.035000 0.082000 -0.065000
USER    NEWDPF tran0	12.035587 13.176133 -16.111818
USER    NEWDPF axisangle0	0.815297 0.555840 0.162274 -144.000527
USER    NEWDPF quaternion0	0.775395 0.528636 0.154332 -0.309013
USER    NEWDPF dihe0	139.47 107.76 140.66 24.81 -12.65 -179.48 -104.43 -31.92 -178.65 -75.40 44.15 -171.21 -87.02 -143.11 -179.36 58.81 104.61 -8.10 -138.18 3.28 -176.13 149.14 -61.35 147.07 
USER  
USER                              x       y       z    vdW   Elec        q     RMS 
ATOM      1  C   UNL d   1      12.333  14.295 -17.394 -0.02 -0.06    +0.194    20.744
ATOM      2  C   UNL d   1      11.051  13.471 -17.520 -0.03 -0.07    +0.194    20.744
ATOM      3  C   UNL d   1      11.282  12.003 -17.154 -0.04 -0.09    +0.194    20.744
ATOM      4  C   UNL d   1      11.954  11.821 -15.795 -0.12 -0.13    +0.194    20.744
ATOM      5  C   UNL d   1      13.172  12.710 -15.581 -0.08 -0.09    +0.194    20.744
ATOM      6  C   UNL d   1      12.960  14.164 -16.005 -0.05 -0.06    +0.194    20.744
ATOM      7  O   UNL d   1      11.998  15.672 -17.583 -0.01 +0.07    -0.278    20.744
ATOM      8  P   UNL d   1      11.818  16.593 -16.290 -0.03 -0.11    +0.473    20.744
ATOM      9  O   UNL d   1      11.213  15.915 -15.111 -0.03 +0.07    -0.228    20.744
ATOM     10  O   UNL d   1      13.284  17.155 -16.008 -0.01 +0.05    -0.303    20.744
ATOM     11  H   UNL d   1      13.941  16.600 -16.468 +0.01 -0.04    +0.222    20.744
ATOM     12  O   UNL d   1      11.060  17.889 -16.809 -0.01 +0.06    -0.303    20.744
ATOM     13  H   UNL d   1      10.165  17.695 -17.169 +0.01 -0.05    +0.222    20.744
ATOM     14  O   UNL d   1      10.059  14.010 -16.638 -0.08 +0.14    -0.278    20.744
ATOM     15  P   UNL d   1       8.586  14.189 -17.239 -0.04 -0.23    +0.473    20.744
ATOM     16  O   UNL d   1       8.299  15.478 -17.943 -0.02 +0.08    -0.228    20.744
ATOM     17  O   UNL d   1       8.394  12.917 -18.179 -0.00 +0.10    -0.303    20.744
ATOM     18  H   UNL d   1       8.702  12.103 -17.736 +0.03 -0.08    +0.222    20.744
ATOM     19  O   UNL d   1       7.618  13.839 -16.027 -0.05 +0.31    -0.303    20.744
ATOM     20  H   UNL d   1       7.986  13.135 -15.462 -0.35 -0.32    +0.222    20.744
ATOM     21  O   UNL d   1      14.251  14.767 -16.071 -0.01 +0.07    -0.278    20.744
ATOM     22  P   UNL d   1      15.158  14.557 -17.366 +0.00 -0.10    +0.473    20.744
ATOM     23  O   UNL d   1      16.640  14.549 -17.195 -0.00 +0.04    -0.228    20.744
ATOM     24  O   UNL d   1      14.549  13.218 -17.976 +0.00 +0.08    -0.303    20.744
ATOM     25  H   UNL d   1      14.907  12.453 -17.458 +0.01 -0.08    +0.222    20.744
ATOM     26  O   UNL d   1      14.571  15.670 -18.359 -0.00 +0.05    -0.303    20.744
ATOM     27  H   UNL d   1      13.918  16.218 -17.878 +0.01 -0.04    +0.222    20.744
ATOM     28  O   UNL d   1      10.007  11.386 -17.031 -0.03 +0.14    -0.278    20.744
ATOM     29  P   UNL d   1       9.365  11.148 -15.593 -0.12 -0.30    +0.473    20.744
ATOM     30  O   UNL d   1       9.691  12.173 -14.568 -0.19 +0.22    -0.228    20.744
ATOM     31  O   UNL d   1       7.824  10.992 -15.998 -0.07 +0.12    -0.303    20.744
ATOM     32  H   UNL d   1       7.562  11.770 -16.541 +0.06 -0.10    +0.222    20.744
ATOM     33  O   UNL d   1       9.799   9.650 -15.276 -0.19 +0.24    -0.303    20.744
ATOM     34  H   UNL d   1      10.637   9.449 -15.761 +0.07 -0.25    +0.222    20.744
ATOM     35  O   UNL d   1      13.407  12.712 -14.175 -0.14 +0.13    -0.278    20.744
ATOM     36  P   UNL d   1      13.926  11.393 -13.443 -0.15 -0.36    +0.473    20.744
ATOM     37  O   UNL d   1      14.794  11.619 -12.246 -0.13 +0.10    -0.228    20.744
ATOM     38  O   UNL d   1      12.561  10.637 -13.128 -0.27 +0.38    -0.303    20.744
ATOM     39  H   UNL d   1      12.506   9.829 -13.683 -0.37 -0.61    +0.222    20.744
ATOM     40  O   UNL d   1      14.555  10.563 -14.645 -0.10 +0.33    -0.303    20.744
ATOM     41  H   UNL d   1      14.082   9.713 -14.787 -0.54 -0.48    +0.222    20.744
ATOM     42  O   UNL d   1      12.406  10.464 -15.735 -0.11 +0.35    -0.278    20.744
ATOM     43  P   UNL d   1      12.957   9.775 -17.064 -0.04 -0.51    +0.473    20.744
ATOM     44  O   UNL d   1      13.761  10.618 -17.992 -0.02 +0.13    -0.228    20.744
ATOM     45  O   UNL d   1      13.733   8.504 -16.502 +0.20 +0.65    -0.303    20.744
ATOM     46  H   UNL d   1      14.082   8.666 -15.603 -0.52 -0.61    +0.222    20.744
ATOM     47  O   UNL d   1      11.648   9.103 -17.698 -0.08 +0.28    -0.303    20.744
ATOM     48  H   UNL d   1      10.860   9.389 -17.190 +0.04 -0.19    +0.222    20.744
TER
ENDMDL
MODEL       91
USER    Run = 91
USER    Cluster Rank = 48
USER    Number of conformations in this cluster = 1
USER  
USER    RMSD from reference structure       = 19.533 A
USER  
USER    Estimated Free Energy of Binding    =   +2.79 kcal/mol  [=(1)+(2)+(3)-(4)]
USER    
USER    (1) Final Intermolecular Energy     =   -4.37 kcal/mol
USER        vdW + Hbond + desolv Energy     =   -4.27 kcal/mol
USER        Electrostatic Energy            =   -0.10 kcal/mol
USER    (2) Final Total Internal Energy     =  -14.72 kcal/mol
USER    (3) Torsional Free Energy           =   +7.16 kcal/mol
USER    (4) Unbound System's Energy  [=(2)] =  -14.72 kcal/mol
USER    
USER    
USER  
USER    DPF = D:/Protein_go_brrr/autodock/final/AncMH_nat/IHP/dock.dpf
USER    NEWDPF move	IHP_ideal_opt.pdbqt
USER    NEWDPF about	0.035000 0.082000 -0.065000
USER    NEWDPF tran0	-15.589206 2.822556 15.865991
USER    NEWDPF axisangle0	-0.005933 0.922981 0.384800 -168.314884
USER    NEWDPF quaternion0	-0.005902 0.918186 0.382801 -0.101795
USER    NEWDPF dihe0	-161.78 11.81 31.15 109.52 148.27 150.30 -108.80 41.71 33.01 86.99 -180.00 159.64 49.02 -29.04 65.97 14.64 -31.00 172.37 -9.29 -54.09 -26.91 177.14 -27.20 -0.57 
USER  
USER                              x       y       z    vdW   Elec        q     RMS 
ATOM      1  C   UNL d   1     -16.593   2.836  14.460 -0.21 +0.05    +0.194    19.533
ATOM      2  C   UNL d   1     -15.367   1.924  14.388 -0.25 +0.00    +0.194    19.533
ATOM      3  C   UNL d   1     -14.120   2.605  14.957 -0.27 -0.01    +0.194    19.533
ATOM      4  C   UNL d   1     -14.333   3.176  16.357 -0.20 +0.01    +0.194    19.533
ATOM      5  C   UNL d   1     -15.607   3.999  16.504 -0.11 +0.06    +0.194    19.533
ATOM      6  C   UNL d   1     -16.842   3.346  15.880 -0.13 +0.08    +0.194    19.533
ATOM      7  O   UNL d   1     -17.739   2.074  14.074 -0.08 -0.06    -0.278    19.533
ATOM      8  P   UNL d   1     -18.742   2.701  13.001 -0.11 +0.12    +0.473    19.533
ATOM      9  O   UNL d   1     -18.582   2.190  11.613 -0.15 -0.02    -0.228    19.533
ATOM     10  O   UNL d   1     -20.189   2.418  13.611 -0.02 -0.09    -0.303    19.533
ATOM     11  H   UNL d   1     -20.171   2.567  14.575 +0.03 +0.08    +0.222    19.533
ATOM     12  O   UNL d   1     -18.607   4.274  13.181 -0.18 -0.19    -0.303    19.533
ATOM     13  H   UNL d   1     -18.432   4.543  14.111 +0.05 +0.23    +0.222    19.533
ATOM     14  O   UNL d   1     -15.624   0.735  15.146 -0.08 -0.02    -0.278    19.533
ATOM     15  P   UNL d   1     -16.559  -0.366  14.454 -0.02 +0.06    +0.473    19.533
ATOM     16  O   UNL d   1     -16.579  -0.386  12.958 -0.09 -0.02    -0.228    19.533
ATOM     17  O   UNL d   1     -16.065  -1.744  15.083 -0.08 -0.05    -0.303    19.533
ATOM     18  H   UNL d   1     -15.143  -1.938  14.826 -0.01 +0.01    +0.222    19.533
ATOM     19  O   UNL d   1     -17.974  -0.183  15.157 -0.00 -0.06    -0.303    19.533
ATOM     20  H   UNL d   1     -18.258   0.750  15.158 +0.03 +0.04    +0.222    19.533
ATOM     21  O   UNL d   1     -17.843   4.357  15.792 -0.17 -0.27    -0.278    19.533
ATOM     22  P   UNL d   1     -19.306   4.075  16.363 -0.06 +0.37    +0.473    19.533
ATOM     23  O   UNL d   1     -19.626   4.543  17.743 -0.07 -0.13    -0.228    19.533
ATOM     24  O   UNL d   1     -20.226   4.690  15.219 -0.43 -0.33    -0.303    19.533
ATOM     25  H   UNL d   1     -20.310   4.017  14.496 +0.03 +0.15    +0.222    19.533
ATOM     26  O   UNL d   1     -19.460   2.501  16.101 -0.02 -0.10    -0.303    19.533
ATOM     27  H   UNL d   1     -18.860   2.236  15.374 +0.03 +0.07    +0.222    19.533
ATOM     28  O   UNL d   1     -13.118   1.607  15.106 -0.19 +0.02    -0.278    19.533
ATOM     29  P   UNL d   1     -13.237   0.511  16.254 -0.19 -0.01    +0.473    19.533
ATOM     30  O   UNL d   1     -14.285   0.766  17.277 -0.08 -0.01    -0.228    19.533
ATOM     31  O   UNL d   1     -13.397  -0.810  15.364 -0.34 -0.01    -0.303    19.533
ATOM     32  H   UNL d   1     -14.178  -0.698  14.775 +0.10 +0.01    +0.222    19.533
ATOM     33  O   UNL d   1     -11.736   0.405  16.773 -0.20 +0.03    -0.303    19.533
ATOM     34  H   UNL d   1     -11.648   0.925  17.609 +0.02 -0.04    +0.222    19.533
ATOM     35  O   UNL d   1     -15.846   4.094  17.907 -0.05 -0.07    -0.278    19.533
ATOM     36  P   UNL d   1     -15.512   5.443  18.690 -0.03 +0.12    +0.473    19.533
ATOM     37  O   UNL d   1     -15.251   6.640  17.832 -0.09 -0.09    -0.228    19.533
ATOM     38  O   UNL d   1     -16.778   5.587  19.646 -0.01 -0.08    -0.303    19.533
ATOM     39  H   UNL d   1     -17.579   5.285  19.165 +0.02 +0.08    +0.222    19.533
ATOM     40  O   UNL d   1     -14.344   4.988  19.669 -0.01 -0.02    -0.303    19.533
ATOM     41  H   UNL d   1     -13.672   4.442  19.204 +0.03 +0.00    +0.222    19.533
ATOM     42  O   UNL d   1     -13.233   4.053  16.619 -0.18 +0.02    -0.278    19.533
ATOM     43  P   UNL d   1     -12.166   3.642  17.731 -0.10 -0.04    +0.473    19.533
ATOM     44  O   UNL d   1     -11.620   4.727  18.593 -0.05 +0.03    -0.228    19.533
ATOM     45  O   UNL d   1     -12.922   2.493  18.532 -0.04 +0.02    -0.303    19.533
ATOM     46  H   UNL d   1     -12.548   1.612  18.331 +0.07 -0.02    +0.222    19.533
ATOM     47  O   UNL d   1     -11.080   2.802  16.904 -0.47 +0.01    -0.303    19.533
ATOM     48  H   UNL d   1     -11.488   2.472  16.077 +0.09 -0.02    +0.222    19.533
TER
ENDMDL
MODEL       42
USER    Run = 42
USER    Cluster Rank = 49
USER    Number of conformations in this cluster = 1
USER  
USER    RMSD from reference structure       = 17.305 A
USER  
USER    Estimated Free Energy of Binding    =   +2.80 kcal/mol  [=(1)+(2)+(3)-(4)]
USER    
USER    (1) Final Intermolecular Energy     =   -4.36 kcal/mol
USER        vdW + Hbond + desolv Energy     =   -4.08 kcal/mol
USER        Electrostatic Energy            =   -0.28 kcal/mol
USER    (2) Final Total Internal Energy     =  -13.20 kcal/mol
USER    (3) Torsional Free Energy           =   +7.16 kcal/mol
USER    (4) Unbound System's Energy  [=(2)] =  -13.20 kcal/mol
USER    
USER    
USER  
USER    DPF = D:/Protein_go_brrr/autodock/final/AncMH_nat/IHP/dock.dpf
USER    NEWDPF move	IHP_ideal_opt.pdbqt
USER    NEWDPF about	0.035000 0.082000 -0.065000
USER    NEWDPF tran0	-5.452179 19.953628 0.823366
USER    NEWDPF axisangle0	-0.619930 -0.737339 0.268362 138.813216
USER    NEWDPF quaternion0	-0.580316 -0.690223 0.251213 0.351734
USER    NEWDPF dihe0	-40.66 104.48 151.07 13.43 16.19 -146.34 -103.09 -122.37 -1.06 12.67 169.98 -64.76 -66.88 168.48 109.68 74.36 165.70 83.57 -24.62 -2.56 -4.39 -12.22 -180.00 28.05 
USER  
USER                              x       y       z    vdW   Elec        q     RMS 
ATOM      1  C   UNL d   1      -6.266  19.961  -0.700 -0.08 +0.01    +0.194    17.305
ATOM      2  C   UNL d   1      -7.025  19.299   0.451 -0.11 +0.02    +0.194    17.305
ATOM      3  C   UNL d   1      -6.109  18.413   1.298 -0.16 +0.01    +0.194    17.305
ATOM      4  C   UNL d   1      -4.850  19.132   1.775 -0.13 +0.01    +0.194    17.305
ATOM      5  C   UNL d   1      -4.122  19.902   0.680 -0.11 +0.00    +0.194    17.305
ATOM      6  C   UNL d   1      -5.046  20.740  -0.206 -0.06 +0.00    +0.194    17.305
ATOM      7  O   UNL d   1      -7.142  20.897  -1.332 -0.03 -0.03    -0.278    17.305
ATOM      8  P   UNL d   1      -6.995  21.132  -2.906 -0.02 +0.04    +0.473    17.305
ATOM      9  O   UNL d   1      -5.733  20.619  -3.505 -0.07 -0.00    -0.228    17.305
ATOM     10  O   UNL d   1      -8.302  20.456  -3.522 -0.03 -0.05    -0.303    17.305
ATOM     11  H   UNL d   1      -8.452  20.795  -4.424 +0.04 +0.03    +0.222    17.305
ATOM     12  O   UNL d   1      -7.287  22.679  -3.122 -0.00 -0.02    -0.303    17.305
ATOM     13  H   UNL d   1      -6.669  23.261  -2.625 +0.01 +0.01    +0.222    17.305
ATOM     14  O   UNL d   1      -7.579  20.319   1.292 -0.02 -0.05    -0.278    17.305
ATOM     15  P   UNL d   1      -9.139  20.195   1.635 -0.05 +0.19    +0.473    17.305
ATOM     16  O   UNL d   1      -9.946  21.452   1.557 -0.06 -0.10    -0.228    17.305
ATOM     17  O   UNL d   1      -9.664  19.061   0.646 -0.16 -0.25    -0.303    17.305
ATOM     18  H   UNL d   1      -9.147  18.239   0.748 +0.06 +0.12    +0.222    17.305
ATOM     19  O   UNL d   1      -9.178  19.440   3.035 -0.05 -0.07    -0.303    17.305
ATOM     20  H   UNL d   1      -8.584  18.667   3.045 +0.07 +0.03    +0.222    17.305
ATOM     21  O   UNL d   1      -4.291  21.108  -1.358 -0.04 +0.00    -0.278    17.305
ATOM     22  P   UNL d   1      -3.781  22.611  -1.523 +0.00 +0.01    +0.473    17.305
ATOM     23  O   UNL d   1      -2.409  22.834  -2.064 -0.00 -0.01    -0.228    17.305
ATOM     24  O   UNL d   1      -4.951  23.259  -2.385 -0.00 -0.01    -0.303    17.305
ATOM     25  H   UNL d   1      -5.125  22.669  -3.162 +0.01 +0.00    +0.222    17.305
ATOM     26  O   UNL d   1      -4.068  23.214  -0.066 -0.00 -0.01    -0.303    17.305
ATOM     27  H   UNL d   1      -3.847  22.542   0.610 +0.01 +0.01    +0.222    17.305
ATOM     28  O   UNL d   1      -6.820  18.071   2.482 -0.13 -0.01    -0.278    17.305
ATOM     29  P   UNL d   1      -7.561  16.667   2.598 -0.20 +0.00    +0.473    17.305
ATOM     30  O   UNL d   1      -6.754  15.482   2.206 -0.99 -0.03    -0.228    17.305
ATOM     31  O   UNL d   1      -8.056  16.737   4.118 -0.11 +0.08    -0.303    17.305
ATOM     32  H   UNL d   1      -7.287  16.965   4.689 -0.44 -0.15    +0.222    17.305
ATOM     33  O   UNL d   1      -8.901  16.928   1.779 -0.13 -0.07    -0.303    17.305
ATOM     34  H   UNL d   1      -9.425  17.631   2.235 +0.08 +0.07    +0.222    17.305
ATOM     35  O   UNL d   1      -3.253  20.808   1.356 -0.04 -0.02    -0.278    17.305
ATOM     36  P   UNL d   1      -3.810  21.732   2.531 +0.00 +0.04    +0.473    17.305
ATOM     37  O   UNL d   1      -3.124  23.051   2.694 -0.01 -0.02    -0.228    17.305
ATOM     38  O   UNL d   1      -5.354  21.839   2.158 -0.00 -0.02    -0.303    17.305
ATOM     39  H   UNL d   1      -5.454  22.401   1.360 +0.01 +0.01    +0.222    17.305
ATOM     40  O   UNL d   1      -3.785  20.746   3.779 -0.02 -0.04    -0.303    17.305
ATOM     41  H   UNL d   1      -3.904  19.809   3.505 +0.06 +0.02    +0.222    17.305
ATOM     42  O   UNL d   1      -3.951  18.124   2.249 -0.14 -0.01    -0.278    17.305
ATOM     43  P   UNL d   1      -4.125  17.573   3.736 -0.15 +0.01    +0.473    17.305
ATOM     44  O   UNL d   1      -4.182  16.096   3.919 -0.35 +0.02    -0.228    17.305
ATOM     45  O   UNL d   1      -2.927  18.279   4.511 -0.16 -0.06    -0.303    17.305
ATOM     46  H   UNL d   1      -3.228  19.086   4.974 +0.08 +0.05    +0.222    17.305
ATOM     47  O   UNL d   1      -5.392  18.388   4.283 -0.11 +0.01    -0.303    17.305
ATOM     48  H   UNL d   1      -6.132  17.765   4.441 -0.34 -0.06    +0.222    17.305
TER
ENDMDL
MODEL       73
USER    Run = 73
USER    Cluster Rank = 50
USER    Number of conformations in this cluster = 1
USER  
USER    RMSD from reference structure       = 14.432 A
USER  
USER    Estimated Free Energy of Binding    =   +2.82 kcal/mol  [=(1)+(2)+(3)-(4)]
USER    
USER    (1) Final Intermolecular Energy     =   -4.34 kcal/mol
USER        vdW + Hbond + desolv Energy     =   -4.41 kcal/mol
USER        Electrostatic Energy            =   +0.07 kcal/mol
USER    (2) Final Total Internal Energy     =  -14.98 kcal/mol
USER    (3) Torsional Free Energy           =   +7.16 kcal/mol
USER    (4) Unbound System's Energy  [=(2)] =  -14.98 kcal/mol
USER    
USER    
USER  
USER    DPF = D:/Protein_go_brrr/autodock/final/AncMH_nat/IHP/dock.dpf
USER    NEWDPF move	IHP_ideal_opt.pdbqt
USER    NEWDPF about	0.035000 0.082000 -0.065000
USER    NEWDPF tran0	3.032871 3.691658 -15.042378
USER    NEWDPF axisangle0	0.439055 0.002484 0.898457 86.209573
USER    NEWDPF quaternion0	0.300022 0.001697 0.613947 0.730105
USER    NEWDPF dihe0	56.77 128.38 96.94 101.63 66.89 -131.35 -88.29 -56.74 84.47 -30.55 126.43 -99.48 -91.78 89.67 68.46 32.02 40.33 79.53 -144.77 -11.05 27.57 -8.01 -171.76 24.31 
USER  
USER                              x       y       z    vdW   Elec        q     RMS 
ATOM      1  C   UNL d   1       2.834   2.859 -13.542 -0.28 -0.01    +0.194    14.432
ATOM      2  C   UNL d   1       1.670   3.761 -13.957 -0.22 +0.01    +0.194    14.432
ATOM      3  C   UNL d   1       2.161   5.101 -14.510 -0.16 +0.03    +0.194    14.432
ATOM      4  C   UNL d   1       3.198   4.950 -15.619 -0.11 +0.01    +0.194    14.432
ATOM      5  C   UNL d   1       4.318   3.970 -15.293 -0.12 -0.01    +0.194    14.432
ATOM      6  C   UNL d   1       3.831   2.654 -14.683 -0.19 -0.03    +0.194    14.432
ATOM      7  O   UNL d   1       2.304   1.575 -13.203 -0.29 +0.03    -0.278    14.432
ATOM      8  P   UNL d   1       2.237   0.457 -14.342 -0.12 -0.05    +0.473    14.432
ATOM      9  O   UNL d   1       1.825   0.948 -15.685 -0.05 +0.02    -0.228    14.432
ATOM     10  O   UNL d   1       3.694  -0.194 -14.331 -0.10 +0.04    -0.303    14.432
ATOM     11  H   UNL d   1       4.219   0.168 -15.069 +0.09 -0.04    +0.222    14.432
ATOM     12  O   UNL d   1       1.348  -0.707 -13.726 -0.24 +0.02    -0.303    14.432
ATOM     13  H   UNL d   1       0.382  -0.546 -13.822 +0.11 -0.01    +0.222    14.432
ATOM     14  O   UNL d   1       0.906   3.100 -14.973 -0.05 +0.01    -0.278    14.432
ATOM     15  P   UNL d   1      -0.636   2.824 -14.644 -0.07 -0.01    +0.473    14.432
ATOM     16  O   UNL d   1      -1.595   2.914 -15.790 -0.07 +0.01    -0.228    14.432
ATOM     17  O   UNL d   1      -0.634   1.389 -13.952 -0.12 +0.01    -0.303    14.432
ATOM     18  H   UNL d   1       0.274   1.036 -13.876 +0.11 -0.01    +0.222    14.432
ATOM     19  O   UNL d   1      -0.954   3.774 -13.408 -0.06 -0.02    -0.303    14.432
ATOM     20  H   UNL d   1      -0.551   4.655 -13.517 +0.10 +0.02    +0.222    14.432
ATOM     21  O   UNL d   1       4.975   2.009 -14.128 -0.16 +0.10    -0.278    14.432
ATOM     22  P   UNL d   1       6.035   1.308 -15.092 -0.17 -0.25    +0.473    14.432
ATOM     23  O   UNL d   1       7.276   2.059 -15.440 -0.21 +0.25    -0.228    14.432
ATOM     24  O   UNL d   1       6.279  -0.080 -14.353 -0.29 +0.15    -0.303    14.432
ATOM     25  H   UNL d   1       5.708  -0.103 -13.544 -0.24 -0.11    +0.222    14.432
ATOM     26  O   UNL d   1       5.111   0.868 -16.326 -0.04 +0.08    -0.303    14.432
ATOM     27  H   UNL d   1       4.630   1.651 -16.664 +0.05 -0.05    +0.222    14.432
ATOM     28  O   UNL d   1       1.049   5.746 -15.117 -0.11 -0.03    -0.278    14.432
ATOM     29  P   UNL d   1       0.299   6.934 -14.367 -0.21 +0.08    +0.473    14.432
ATOM     30  O   UNL d   1       0.925   7.386 -13.098 -0.87 -0.11    -0.228    14.432
ATOM     31  O   UNL d   1       0.212   8.004 -15.554 -0.08 -0.02    -0.303    14.432
ATOM     32  H   UNL d   1       1.037   7.947 -16.090 +0.05 +0.02    +0.222    14.432
ATOM     33  O   UNL d   1      -1.192   6.385 -14.278 -0.16 -0.02    -0.303    14.432
ATOM     34  H   UNL d   1      -1.223   5.476 -14.665 +0.07 +0.01    +0.222    14.432
ATOM     35  O   UNL d   1       4.930   3.653 -16.541 -0.06 +0.05    -0.278    14.432
ATOM     36  P   UNL d   1       4.034   3.409 -17.838 +0.00 -0.07    +0.473    14.432
ATOM     37  O   UNL d   1       3.642   4.640 -18.592 -0.01 +0.02    -0.228    14.432
ATOM     38  O   UNL d   1       4.934   2.391 -18.669 -0.00 +0.06    -0.303    14.432
ATOM     39  H   UNL d   1       5.633   2.029 -18.084 +0.02 -0.06    +0.222    14.432
ATOM     40  O   UNL d   1       2.856   2.503 -17.272 -0.01 +0.03    -0.303    14.432
ATOM     41  H   UNL d   1       3.162   1.591 -17.072 +0.03 -0.03    +0.222    14.432
ATOM     42  O   UNL d   1       3.802   6.235 -15.800 -0.06 -0.06    -0.278    14.432
ATOM     43  P   UNL d   1       3.114   7.279 -16.790 -0.06 +0.06    +0.473    14.432
ATOM     44  O   UNL d   1       2.782   8.625 -16.246 -0.12 -0.06    -0.228    14.432
ATOM     45  O   UNL d   1       4.119   7.305 -18.024 -0.02 +0.01    -0.303    14.432
ATOM     46  H   UNL d   1       4.290   6.404 -18.365 +0.02 -0.02    +0.222    14.432
ATOM     47  O   UNL d   1       1.879   6.453 -17.393 -0.01 -0.00    -0.303    14.432
ATOM     48  H   UNL d   1       1.147   6.448 -16.743 +0.04 +0.01    +0.222    14.432
TER
ENDMDL
MODEL       34
USER    Run = 34
USER    Cluster Rank = 51
USER    Number of conformations in this cluster = 2
USER  
USER    RMSD from reference structure       = 14.746 A
USER  
USER    Estimated Free Energy of Binding    =   +2.83 kcal/mol  [=(1)+(2)+(3)-(4)]
USER    
USER    (1) Final Intermolecular Energy     =   -4.33 kcal/mol
USER        vdW + Hbond + desolv Energy     =   -4.00 kcal/mol
USER        Electrostatic Energy            =   -0.33 kcal/mol
USER    (2) Final Total Internal Energy     =  -13.04 kcal/mol
USER    (3) Torsional Free Energy           =   +7.16 kcal/mol
USER    (4) Unbound System's Energy  [=(2)] =  -13.04 kcal/mol
USER    
USER    
USER  
USER    DPF = D:/Protein_go_brrr/autodock/final/AncMH_nat/IHP/dock.dpf
USER    NEWDPF move	IHP_ideal_opt.pdbqt
USER    NEWDPF about	0.035000 0.082000 -0.065000
USER    NEWDPF tran0	4.295125 -1.305418 -15.101834
USER    NEWDPF axisangle0	-0.209209 0.958527 0.193537 -149.135857
USER    NEWDPF quaternion0	-0.201666 0.923969 0.186559 -0.266096
USER    NEWDPF dihe0	-142.48 -4.91 131.99 50.24 64.43 -110.54 -28.68 2.60 95.80 15.35 119.63 -64.40 -143.81 -150.56 -63.03 41.25 158.66 -117.97 28.47 -40.62 149.25 -51.62 -19.20 147.58 
USER  
USER                              x       y       z    vdW   Elec        q     RMS 
ATOM      1  C   UNL d   1       4.070  -2.044 -16.647 -0.05 -0.02    +0.194    14.746
ATOM      2  C   UNL d   1       5.266  -2.553 -15.839 -0.11 -0.02    +0.194    14.746
ATOM      3  C   UNL d   1       6.031  -1.405 -15.178 -0.18 -0.05    +0.194    14.746
ATOM      4  C   UNL d   1       5.136  -0.476 -14.361 -0.02 -0.05    +0.194    14.746
ATOM      5  C   UNL d   1       3.872  -0.036 -15.088 -0.15 -0.03    +0.194    14.746
ATOM      6  C   UNL d   1       3.139  -1.174 -15.802 -0.09 -0.02    +0.194    14.746
ATOM      7  O   UNL d   1       3.314  -3.176 -17.085 -0.03 +0.03    -0.278    14.746
ATOM      8  P   UNL d   1       3.615  -3.775 -18.535 +0.00 -0.05    +0.473    14.746
ATOM      9  O   UNL d   1       2.774  -3.224 -19.632 -0.00 +0.02    -0.228    14.746
ATOM     10  O   UNL d   1       5.174  -3.511 -18.746 -0.00 +0.04    -0.303    14.746
ATOM     11  H   UNL d   1       5.680  -3.964 -18.046 +0.01 -0.03    +0.222    14.746
ATOM     12  O   UNL d   1       3.566  -5.352 -18.349 -0.00 +0.03    -0.303    14.746
ATOM     13  H   UNL d   1       4.116  -5.668 -17.597 +0.02 -0.02    +0.222    14.746
ATOM     14  O   UNL d   1       4.795  -3.438 -14.815 -0.10 +0.02    -0.278    14.746
ATOM     15  P   UNL d   1       4.716  -4.992 -15.192 -0.09 -0.06    +0.473    14.746
ATOM     16  O   UNL d   1       3.393  -5.501 -15.672 -0.12 +0.03    -0.228    14.746
ATOM     17  O   UNL d   1       5.879  -5.190 -16.263 -0.04 +0.03    -0.303    14.746
ATOM     18  H   UNL d   1       6.653  -4.635 -16.048 +0.05 -0.02    +0.222    14.746
ATOM     19  O   UNL d   1       5.320  -5.739 -13.924 -0.22 +0.04    -0.303    14.746
ATOM     20  H   UNL d   1       5.725  -5.113 -13.296 +0.10 -0.03    +0.222    14.746
ATOM     21  O   UNL d   1       2.207  -0.568 -16.695 -0.02 +0.03    -0.278    14.746
ATOM     22  P   UNL d   1       2.677   0.630 -17.637 +0.01 -0.06    +0.473    14.746
ATOM     23  O   UNL d   1       3.722   1.562 -17.123 -0.02 +0.04    -0.228    14.746
ATOM     24  O   UNL d   1       3.070  -0.141 -18.973 -0.00 +0.04    -0.303    14.746
ATOM     25  H   UNL d   1       2.936  -1.111 -18.819 +0.01 -0.02    +0.222    14.746
ATOM     26  O   UNL d   1       1.276   1.297 -18.039 +0.00 +0.03    -0.303    14.746
ATOM     27  H   UNL d   1       0.935   1.811 -17.279 +0.02 -0.02    +0.222    14.746
ATOM     28  O   UNL d   1       6.935  -1.977 -14.241 -0.26 +0.07    -0.278    14.746
ATOM     29  P   UNL d   1       8.043  -3.015 -14.723 -0.14 -0.06    +0.473    14.746
ATOM     30  O   UNL d   1       8.288  -3.057 -16.187 -0.04 +0.04    -0.228    14.746
ATOM     31  O   UNL d   1       9.267  -2.568 -13.794 -0.21 +0.01    -0.303    14.746
ATOM     32  H   UNL d   1       8.908  -2.104 -13.003 -0.29 -0.05    +0.222    14.746
ATOM     33  O   UNL d   1       7.555  -4.367 -14.036 -0.20 -0.01    -0.303    14.746
ATOM     34  H   UNL d   1       6.660  -4.599 -14.384 +0.08 -0.01    +0.222    14.746
ATOM     35  O   UNL d   1       2.996   0.458 -14.077 -0.21 +0.04    -0.278    14.746
ATOM     36  P   UNL d   1       2.650   2.014 -14.002 -0.17 -0.05    +0.473    14.746
ATOM     37  O   UNL d   1       2.197   2.510 -12.666 -0.38 +0.01    -0.228    14.746
ATOM     38  O   UNL d   1       4.002   2.674 -14.522 -0.18 +0.04    -0.303    14.746
ATOM     39  H   UNL d   1       4.470   2.035 -15.101 +0.08 -0.05    +0.222    14.746
ATOM     40  O   UNL d   1       1.642   2.196 -15.220 -0.04 +0.02    -0.303    14.746
ATOM     41  H   UNL d   1       1.791   1.523 -15.920 +0.05 -0.02    +0.222    14.746
ATOM     42  O   UNL d   1       5.900   0.704 -14.092 -0.18 +0.16    -0.278    14.746
ATOM     43  P   UNL d   1       6.897   1.250 -15.210 -0.13 -0.39    +0.473    14.746
ATOM     44  O   UNL d   1       8.145   0.474 -15.456 -0.16 +0.24    -0.228    14.746
ATOM     45  O   UNL d   1       5.953   1.385 -16.484 -0.04 +0.12    -0.303    14.746
ATOM     46  H   UNL d   1       5.111   1.829 -16.260 +0.06 -0.06    +0.222    14.746
ATOM     47  O   UNL d   1       7.107   2.784 -14.797 -0.22 +0.34    -0.303    14.746
ATOM     48  H   UNL d   1       8.041   2.923 -14.536 -0.40 -0.58    +0.222    14.746
TER
ENDMDL
MODEL       99
USER    Run = 99
USER    Cluster Rank = 52
USER    Number of conformations in this cluster = 1
USER  
USER    RMSD from reference structure       = 19.397 A
USER  
USER    Estimated Free Energy of Binding    =   +2.85 kcal/mol  [=(1)+(2)+(3)-(4)]
USER    
USER    (1) Final Intermolecular Energy     =   -4.31 kcal/mol
USER        vdW + Hbond + desolv Energy     =   -4.02 kcal/mol
USER        Electrostatic Energy            =   -0.29 kcal/mol
USER    (2) Final Total Internal Energy     =  -13.94 kcal/mol
USER    (3) Torsional Free Energy           =   +7.16 kcal/mol
USER    (4) Unbound System's Energy  [=(2)] =  -13.94 kcal/mol
USER    
USER    
USER  
USER    DPF = D:/Protein_go_brrr/autodock/final/AncMH_nat/IHP/dock.dpf
USER    NEWDPF move	IHP_ideal_opt.pdbqt
USER    NEWDPF about	0.035000 0.082000 -0.065000
USER    NEWDPF tran0	3.018200 -2.705130 20.791885
USER    NEWDPF axisangle0	0.775593 -0.068905 -0.627462 134.386396
USER    NEWDPF quaternion0	0.714955 -0.063518 -0.578405 0.387625
USER    NEWDPF dihe0	126.01 36.02 119.62 100.68 -2.36 -114.03 -95.37 -13.68 -179.83 -179.00 -170.63 168.17 156.10 87.32 -52.44 161.29 180.00 167.72 38.67 -0.26 -170.42 17.36 24.03 -177.83 
USER  
USER                              x       y       z    vdW   Elec        q     RMS 
ATOM      1  C   UNL d   1       3.286  -1.147  20.097 -0.01 -0.05    +0.194    19.397
ATOM      2  C   UNL d   1       3.604  -1.269  21.588 +0.00 -0.04    +0.194    19.397
ATOM      3  C   UNL d   1       2.528  -2.062  22.334 +0.01 -0.04    +0.194    19.397
ATOM      4  C   UNL d   1       2.228  -3.415  21.695 +0.00 -0.06    +0.194    19.397
ATOM      5  C   UNL d   1       2.018  -3.357  20.187 -0.04 -0.09    +0.194    19.397
ATOM      6  C   UNL d   1       3.059  -2.513  19.449 -0.04 -0.07    +0.194    19.397
ATOM      7  O   UNL d   1       4.412  -0.550  19.448 -0.01 +0.07    -0.278    19.397
ATOM      8  P   UNL d   1       4.535   1.043  19.456 -0.01 -0.10    +0.473    19.397
ATOM      9  O   UNL d   1       5.278   1.624  18.304 -0.03 +0.05    -0.228    19.397
ATOM     10  O   UNL d   1       3.025   1.548  19.547 -0.06 +0.07    -0.303    19.397
ATOM     11  H   UNL d   1       2.440   0.915  19.089 +0.04 -0.06    +0.222    19.397
ATOM     12  O   UNL d   1       5.095   1.407  20.897 -0.00 +0.05    -0.303    19.397
ATOM     13  H   UNL d   1       5.110   0.639  21.511 +0.00 -0.04    +0.222    19.397
ATOM     14  O   UNL d   1       4.859  -1.942  21.745 +0.00 +0.05    -0.278    19.397
ATOM     15  P   UNL d   1       5.920  -1.260  22.731 +0.00 -0.07    +0.473    19.397
ATOM     16  O   UNL d   1       6.752  -2.182  23.566 +0.00 +0.03    -0.228    19.397
ATOM     17  O   UNL d   1       6.796  -0.333  21.776 +0.00 +0.04    -0.303    19.397
ATOM     18  H   UNL d   1       6.302  -0.093  20.969 +0.00 -0.04    +0.222    19.397
ATOM     19  O   UNL d   1       5.074  -0.180  23.537 +0.00 +0.04    -0.303    19.397
ATOM     20  H   UNL d   1       4.197  -0.524  23.789 +0.00 -0.03    +0.222    19.397
ATOM     21  O   UNL d   1       2.544  -2.275  18.141 -0.15 +0.14    -0.278    19.397
ATOM     22  P   UNL d   1       1.587  -1.024  17.882 -0.19 -0.26    +0.473    19.397
ATOM     23  O   UNL d   1       0.857  -0.442  19.045 -0.17 +0.11    -0.228    19.397
ATOM     24  O   UNL d   1       2.566  -0.015  17.136 -0.67 +0.09    -0.303    19.397
ATOM     25  H   UNL d   1       3.249   0.290  17.786 +0.05 -0.06    +0.222    19.397
ATOM     26  O   UNL d   1       0.676  -1.555  16.674 -0.34 +0.34    -0.303    19.397
ATOM     27  H   UNL d   1       0.057  -2.234  17.013 -0.39 -0.52    +0.222    19.397
ATOM     28  O   UNL d   1       3.036  -2.360  23.628 +0.00 +0.05    -0.278    19.397
ATOM     29  P   UNL d   1       2.184  -2.008  24.927 +0.00 -0.07    +0.473    19.397
ATOM     30  O   UNL d   1       2.127  -3.070  25.963 +0.00 +0.03    -0.228    19.397
ATOM     31  O   UNL d   1       2.869  -0.622  25.343 +0.00 +0.04    -0.303    19.397
ATOM     32  H   UNL d   1       3.846  -0.719  25.263 +0.00 -0.03    +0.222    19.397
ATOM     33  O   UNL d   1       0.797  -1.540  24.299 +0.00 +0.05    -0.303    19.397
ATOM     34  H   UNL d   1       0.531  -2.179  23.594 +0.01 -0.05    +0.222    19.397
ATOM     35  O   UNL d   1       2.161  -4.699  19.724 -0.05 +0.14    -0.278    19.397
ATOM     36  P   UNL d   1       1.449  -5.164  18.375 -0.22 -0.41    +0.473    19.397
ATOM     37  O   UNL d   1       0.758  -6.489  18.434 -0.31 +0.20    -0.228    19.397
ATOM     38  O   UNL d   1       0.482  -3.935  18.075 -0.62 +0.47    -0.303    19.397
ATOM     39  H   UNL d   1       0.812  -3.451  17.288 -0.14 -0.26    +0.222    19.397
ATOM     40  O   UNL d   1       2.614  -5.004  17.304 -0.23 +0.23    -0.303    19.397
ATOM     41  H   UNL d   1       2.625  -5.750  16.663 -0.39 -0.26    +0.222    19.397
ATOM     42  O   UNL d   1       1.006  -3.885  22.272 -0.00 +0.08    -0.278    19.397
ATOM     43  P   UNL d   1      -0.360  -3.160  21.881 -0.01 -0.19    +0.473    19.397
ATOM     44  O   UNL d   1      -1.417  -3.075  22.927 -0.01 +0.06    -0.228    19.397
ATOM     45  O   UNL d   1       0.136  -1.748  21.342 -0.02 +0.12    -0.303    19.397
ATOM     46  H   UNL d   1      -0.082  -1.629  20.395 +0.05 -0.12    +0.222    19.397
ATOM     47  O   UNL d   1      -0.789  -3.895  20.523 -0.12 +0.25    -0.303    19.397
ATOM     48  H   UNL d   1      -0.034  -4.422  20.189 +0.06 -0.18    +0.222    19.397
TER
ENDMDL
MODEL       88
USER    Run = 88
USER    Cluster Rank = 53
USER    Number of conformations in this cluster = 1
USER  
USER    RMSD from reference structure       = 21.385 A
USER  
USER    Estimated Free Energy of Binding    =   +2.86 kcal/mol  [=(1)+(2)+(3)-(4)]
USER    
USER    (1) Final Intermolecular Energy     =   -4.29 kcal/mol
USER        vdW + Hbond + desolv Energy     =   -4.31 kcal/mol
USER        Electrostatic Energy            =   +0.01 kcal/mol
USER    (2) Final Total Internal Energy     =  -14.28 kcal/mol
USER    (3) Torsional Free Energy           =   +7.16 kcal/mol
USER    (4) Unbound System's Energy  [=(2)] =  -14.28 kcal/mol
USER    
USER    
USER  
USER    DPF = D:/Protein_go_brrr/autodock/final/AncMH_nat/IHP/dock.dpf
USER    NEWDPF move	IHP_ideal_opt.pdbqt
USER    NEWDPF about	0.035000 0.082000 -0.065000
USER    NEWDPF tran0	-12.283491 -6.473068 20.344278
USER    NEWDPF axisangle0	0.067539 -0.875261 -0.478911 170.052348
USER    NEWDPF quaternion0	0.067285 -0.871966 -0.477108 0.086701
USER    NEWDPF dihe0	118.06 108.94 139.77 11.91 35.39 -110.37 128.87 -30.20 173.55 127.96 -144.25 154.32 -79.83 35.68 -57.03 173.65 87.08 170.62 -141.31 -28.35 -170.45 10.25 14.61 -178.42 
USER  
USER                              x       y       z    vdW   Elec        q     RMS 
ATOM      1  C   UNL d   1     -13.260  -6.325  18.927 -0.14 +0.09    +0.194    21.385
ATOM      2  C   UNL d   1     -11.913  -7.024  18.732 -0.14 +0.05    +0.194    21.385
ATOM      3  C   UNL d   1     -10.787  -6.300  19.472 -0.12 +0.02    +0.194    21.385
ATOM      4  C   UNL d   1     -11.099  -6.050  20.946 -0.04 +0.01    +0.194    21.385
ATOM      5  C   UNL d   1     -12.481  -5.459  21.196 -0.03 +0.02    +0.194    21.385
ATOM      6  C   UNL d   1     -13.599  -6.144  20.407 -0.04 +0.05    +0.194    21.385
ATOM      7  O   UNL d   1     -14.277  -7.149  18.354 -0.14 -0.30    -0.278    21.385
ATOM      8  P   UNL d   1     -15.083  -8.139  19.315 -0.04 +0.40    +0.473    21.385
ATOM      9  O   UNL d   1     -14.333  -8.605  20.514 -0.03 -0.07    -0.228    21.385
ATOM     10  O   UNL d   1     -16.409  -7.330  19.680 -0.28 -0.29    -0.303    21.385
ATOM     11  H   UNL d   1     -16.189  -6.391  19.824 +0.02 +0.17    +0.222    21.385
ATOM     12  O   UNL d   1     -15.641  -9.279  18.360 -0.47 -0.35    -0.303    21.385
ATOM     13  H   UNL d   1     -14.929  -9.809  17.935 +0.04 +0.17    +0.222    21.385
ATOM     14  O   UNL d   1     -12.004  -8.362  19.235 -0.04 -0.06    -0.278    21.385
ATOM     15  P   UNL d   1     -12.150  -9.528  18.146 -0.08 +0.13    +0.473    21.385
ATOM     16  O   UNL d   1     -10.881 -10.148  17.652 -0.11 -0.05    -0.228    21.385
ATOM     17  O   UNL d   1     -13.125 -10.582  18.836 -0.06 -0.06    -0.303    21.385
ATOM     18  H   UNL d   1     -13.878 -10.135  19.267 +0.04 +0.06    +0.222    21.385
ATOM     19  O   UNL d   1     -13.092  -8.908  17.025 -0.10 -0.19    -0.303    21.385
ATOM     20  H   UNL d   1     -13.881  -8.483  17.411 +0.07 +0.23    +0.222    21.385
ATOM     21  O   UNL d   1     -14.736  -5.286  20.474 -0.02 -0.09    -0.278    21.385
ATOM     22  P   UNL d   1     -14.913  -4.122  19.397 -0.04 +0.17    +0.473    21.385
ATOM     23  O   UNL d   1     -13.688  -3.560  18.758 -0.15 -0.05    -0.228    21.385
ATOM     24  O   UNL d   1     -15.956  -4.770  18.385 -0.29 -0.31    -0.303    21.385
ATOM     25  H   UNL d   1     -15.814  -5.751  18.383 +0.03 +0.36    +0.222    21.385
ATOM     26  O   UNL d   1     -15.831  -3.078  20.195 -0.00 -0.06    -0.303    21.385
ATOM     27  H   UNL d   1     -15.283  -2.605  20.854 +0.02 +0.03    +0.222    21.385
ATOM     28  O   UNL d   1      -9.652  -7.156  19.467 -0.08 -0.01    -0.278    21.385
ATOM     29  P   UNL d   1      -8.284  -6.675  18.808 -0.20 -0.02    +0.473    21.385
ATOM     30  O   UNL d   1      -7.047  -7.201  19.442 -0.23 +0.02    -0.228    21.385
ATOM     31  O   UNL d   1      -8.549  -7.085  17.284 -0.40 +0.01    -0.303    21.385
ATOM     32  H   UNL d   1      -7.756  -6.844  16.751 -0.43 -0.08    +0.222    21.385
ATOM     33  O   UNL d   1      -8.463  -5.093  18.783 -0.32 +0.02    -0.303    21.385
ATOM     34  H   UNL d   1      -9.051  -4.825  19.532 +0.07 -0.01    +0.222    21.385
ATOM     35  O   UNL d   1     -12.750  -5.676  22.579 -0.00 -0.02    -0.278    21.385
ATOM     36  P   UNL d   1     -13.579  -4.600  23.416 +0.00 +0.02    +0.473    21.385
ATOM     37  O   UNL d   1     -14.698  -5.150  24.243 +0.00 -0.01    -0.228    21.385
ATOM     38  O   UNL d   1     -12.432  -3.887  24.258 -0.00 +0.00    -0.303    21.385
ATOM     39  H   UNL d   1     -12.235  -3.013  23.858 +0.01 -0.00    +0.222    21.385
ATOM     40  O   UNL d   1     -13.962  -3.528  22.305 -0.00 -0.02    -0.303    21.385
ATOM     41  H   UNL d   1     -14.790  -3.770  21.835 +0.01 +0.02    +0.222    21.385
ATOM     42  O   UNL d   1     -10.142  -5.096  21.417 -0.04 +0.01    -0.278    21.385
ATOM     43  P   UNL d   1     -10.242  -3.587  20.908 -0.09 -0.05    +0.473    21.385
ATOM     44  O   UNL d   1      -8.966  -2.856  20.673 -0.16 +0.04    -0.228    21.385
ATOM     45  O   UNL d   1     -11.167  -3.714  19.619 -0.08 +0.02    -0.303    21.385
ATOM     46  H   UNL d   1     -11.774  -2.952  19.538 -0.19 -0.05    +0.222    21.385
ATOM     47  O   UNL d   1     -11.243  -2.912  21.962 -0.04 +0.02    -0.303    21.385
ATOM     48  H   UNL d   1     -11.835  -3.599  22.331 +0.02 -0.01    +0.222    21.385
TER
ENDMDL
MODEL        2
USER    Run = 2
USER    Cluster Rank = 54
USER    Number of conformations in this cluster = 1
USER  
USER    RMSD from reference structure       = 19.687 A
USER  
USER    Estimated Free Energy of Binding    =   +2.87 kcal/mol  [=(1)+(2)+(3)-(4)]
USER    
USER    (1) Final Intermolecular Energy     =   -4.29 kcal/mol
USER        vdW + Hbond + desolv Energy     =   -3.99 kcal/mol
USER        Electrostatic Energy            =   -0.30 kcal/mol
USER    (2) Final Total Internal Energy     =  -14.53 kcal/mol
USER    (3) Torsional Free Energy           =   +7.16 kcal/mol
USER    (4) Unbound System's Energy  [=(2)] =  -14.53 kcal/mol
USER    
USER    
USER  
USER    DPF = D:/Protein_go_brrr/autodock/final/AncMH_nat/IHP/dock.dpf
USER    NEWDPF move	IHP_ideal_opt.pdbqt
USER    NEWDPF about	0.035000 0.082000 -0.065000
USER    NEWDPF tran0	-15.779740 16.015735 5.009850
USER    NEWDPF axisangle0	0.573081 -0.232051 -0.785958 154.479948
USER    NEWDPF quaternion0	0.558928 -0.226320 -0.766548 0.220868
USER    NEWDPF dihe0	-85.47 12.11 122.61 33.11 19.69 -168.78 5.02 -78.62 117.64 -48.14 11.93 142.63 66.51 -106.07 -42.30 -37.08 165.60 -72.51 20.00 -8.21 174.36 144.87 19.05 -148.90 
USER  
USER                              x       y       z    vdW   Elec        q     RMS 
ATOM      1  C   UNL d   1     -16.201  17.303   3.938 -0.08 -0.09    +0.194    19.687
ATOM      2  C   UNL d   1     -15.100  17.620   4.951 -0.08 -0.06    +0.194    19.687
ATOM      3  C   UNL d   1     -15.438  17.082   6.343 -0.07 -0.05    +0.194    19.687
ATOM      4  C   UNL d   1     -15.811  15.602   6.341 -0.14 -0.04    +0.194    19.687
ATOM      5  C   UNL d   1     -16.823  15.219   5.268 -0.16 -0.07    +0.194    19.687
ATOM      6  C   UNL d   1     -16.518  15.808   3.890 +0.07 -0.16    +0.194    19.687
ATOM      7  O   UNL d   1     -15.736  17.682   2.640 -0.12 +0.13    -0.278    19.687
ATOM      8  P   UNL d   1     -16.278  19.045   2.007 -0.06 +0.11    +0.473    19.687
ATOM      9  O   UNL d   1     -15.237  20.072   1.734 -0.62 -0.20    -0.228    19.687
ATOM     10  O   UNL d   1     -17.060  18.579   0.697 -0.04 -0.04    -0.303    19.687
ATOM     11  H   UNL d   1     -18.005  18.804   0.783 +0.02 +0.01    +0.222    19.687
ATOM     12  O   UNL d   1     -17.466  19.498   2.960 -0.00 -0.01    -0.303    19.687
ATOM     13  H   UNL d   1     -17.960  18.741   3.348 +0.02 -0.01    +0.222    19.687
ATOM     14  O   UNL d   1     -13.875  17.018   4.513 -0.12 +0.17    -0.278    19.687
ATOM     15  P   UNL d   1     -12.623  17.998   4.322 -0.09 -0.04    +0.473    19.687
ATOM     16  O   UNL d   1     -12.851  19.226   3.498 -0.11 -0.10    -0.228    19.687
ATOM     17  O   UNL d   1     -12.161  18.330   5.810 -0.04 +0.05    -0.303    19.687
ATOM     18  H   UNL d   1     -12.402  17.609   6.423 +0.08 -0.06    +0.222    19.687
ATOM     19  O   UNL d   1     -11.448  17.048   3.827 -0.19 +0.03    -0.303    19.687
ATOM     20  H   UNL d   1     -11.571  16.131   4.135 +0.08 -0.07    +0.222    19.687
ATOM     21  O   UNL d   1     -17.699  15.656   3.106 -0.10 +0.16    -0.278    19.687
ATOM     22  P   UNL d   1     -18.975  16.563   3.412 +0.00 -0.09    +0.473    19.687
ATOM     23  O   UNL d   1     -18.993  17.349   4.680 -0.00 +0.03    -0.228    19.687
ATOM     24  O   UNL d   1     -19.081  17.435   2.085 -0.00 +0.04    -0.303    19.687
ATOM     25  H   UNL d   1     -18.176  17.775   1.866 +0.02 -0.03    +0.222    19.687
ATOM     26  O   UNL d   1     -20.174  15.517   3.217 -0.00 +0.03    -0.303    19.687
ATOM     27  H   UNL d   1     -19.814  14.607   3.246 +0.02 -0.03    +0.222    19.687
ATOM     28  O   UNL d   1     -14.261  17.173   7.135 -0.05 +0.08    -0.278    19.687
ATOM     29  P   UNL d   1     -13.409  15.868   7.464 -0.15 -0.15    +0.473    19.687
ATOM     30  O   UNL d   1     -14.110  14.831   8.264 -0.76 +0.06    -0.228    19.687
ATOM     31  O   UNL d   1     -12.947  15.457   5.988 -0.22 +0.08    -0.303    19.687
ATOM     32  H   UNL d   1     -12.468  16.217   5.586 +0.10 -0.07    +0.222    19.687
ATOM     33  O   UNL d   1     -12.081  16.484   8.090 -0.21 +0.15    -0.303    19.687
ATOM     34  H   UNL d   1     -12.009  17.432   7.819 +0.09 -0.11    +0.222    19.687
ATOM     35  O   UNL d   1     -16.740  13.800   5.147 -0.20 +0.07    -0.278    19.687
ATOM     36  P   UNL d   1     -18.023  12.952   4.726 -0.13 -0.08    +0.473    19.687
ATOM     37  O   UNL d   1     -18.082  11.559   5.270 -0.33 -0.02    -0.228    19.687
ATOM     38  O   UNL d   1     -19.211  13.895   5.212 -0.03 +0.03    -0.303    19.687
ATOM     39  H   UNL d   1     -19.038  14.812   4.907 +0.03 -0.03    +0.222    19.687
ATOM     40  O   UNL d   1     -18.031  13.110   3.143 -0.11 +0.15    -0.303    19.687
ATOM     41  H   UNL d   1     -18.550  13.895   2.859 +0.04 -0.09    +0.222    19.687
ATOM     42  O   UNL d   1     -16.416  15.325   7.608 -0.24 +0.04    -0.278    19.687
ATOM     43  P   UNL d   1     -18.007  15.257   7.706 -0.06 -0.06    +0.473    19.687
ATOM     44  O   UNL d   1     -18.790  16.043   6.713 -0.02 +0.02    -0.228    19.687
ATOM     45  O   UNL d   1     -18.292  13.691   7.667 -0.06 +0.02    -0.303    19.687
ATOM     46  H   UNL d   1     -17.974  13.290   6.834 +0.06 -0.02    +0.222    19.687
ATOM     47  O   UNL d   1     -18.294  15.602   9.244 -0.04 +0.03    -0.303    19.687
ATOM     48  H   UNL d   1     -17.608  15.182   9.803 +0.02 -0.04    +0.222    19.687
TER
ENDMDL
MODEL       14
USER    Run = 14
USER    Cluster Rank = 55
USER    Number of conformations in this cluster = 1
USER  
USER    RMSD from reference structure       = 16.458 A
USER  
USER    Estimated Free Energy of Binding    =   +3.00 kcal/mol  [=(1)+(2)+(3)-(4)]
USER    
USER    (1) Final Intermolecular Energy     =   -4.16 kcal/mol
USER        vdW + Hbond + desolv Energy     =   -4.09 kcal/mol
USER        Electrostatic Energy            =   -0.07 kcal/mol
USER    (2) Final Total Internal Energy     =  -15.52 kcal/mol
USER    (3) Torsional Free Energy           =   +7.16 kcal/mol
USER    (4) Unbound System's Energy  [=(2)] =  -15.52 kcal/mol
USER    
USER    
USER  
USER    DPF = D:/Protein_go_brrr/autodock/final/AncMH_nat/IHP/dock.dpf
USER    NEWDPF move	IHP_ideal_opt.pdbqt
USER    NEWDPF about	0.035000 0.082000 -0.065000
USER    NEWDPF tran0	13.790878 -10.092520 -9.053024
USER    NEWDPF axisangle0	-0.261864 -0.817528 0.512909 91.083801
USER    NEWDPF quaternion0	-0.186909 -0.583521 0.366095 0.700387
USER    NEWDPF dihe0	171.30 -13.25 150.00 -26.76 60.52 -128.83 8.69 168.20 30.90 28.71 -24.45 -106.47 34.31 175.16 127.10 -102.66 167.65 -37.03 -7.92 12.22 -10.74 -4.77 -11.88 156.37 
USER  
USER                              x       y       z    vdW   Elec        q     RMS 
ATOM      1  C   UNL d   1      13.744 -11.595  -9.905 -0.01 -0.06    +0.194    16.458
ATOM      2  C   UNL d   1      12.842 -11.505  -8.673 -0.04 -0.06    +0.194    16.458
ATOM      3  C   UNL d   1      13.554 -10.835  -7.496 -0.13 -0.07    +0.194    16.458
ATOM      4  C   UNL d   1      14.174  -9.487  -7.857 -0.27 -0.10    +0.194    16.458
ATOM      5  C   UNL d   1      14.989  -9.503  -9.144 -0.16 -0.11    +0.194    16.458
ATOM      6  C   UNL d   1      14.302 -10.228 -10.303 -0.06 -0.10    +0.194    16.458
ATOM      7  O   UNL d   1      12.957 -12.069 -11.000 -0.00 +0.07    -0.278    16.458
ATOM      8  P   UNL d   1      13.521 -13.286 -11.868 +0.01 -0.08    +0.473    16.458
ATOM      9  O   UNL d   1      13.206 -14.640 -11.337 +0.00 +0.03    -0.228    16.458
ATOM     10  O   UNL d   1      12.926 -13.029 -13.326 +0.00 +0.04    -0.303    16.458
ATOM     11  H   UNL d   1      12.568 -12.123 -13.378 +0.01 -0.04    +0.222    16.458
ATOM     12  O   UNL d   1      15.063 -12.964 -12.077 +0.00 +0.05    -0.303    16.458
ATOM     13  H   UNL d   1      15.220 -12.103 -12.526 +0.00 -0.04    +0.222    16.458
ATOM     14  O   UNL d   1      11.678 -10.735  -9.001 -0.07 +0.12    -0.278    16.458
ATOM     15  P   UNL d   1      10.300 -11.198  -8.330 -0.07 -0.15    +0.473    16.458
ATOM     16  O   UNL d   1       9.134 -11.382  -9.249 -0.06 +0.05    -0.228    16.458
ATOM     17  O   UNL d   1      10.681 -12.530  -7.543 -0.04 +0.08    -0.303    16.458
ATOM     18  H   UNL d   1      11.427 -12.376  -6.932 +0.05 -0.06    +0.222    16.458
ATOM     19  O   UNL d   1      10.077 -10.173  -7.135 -0.18 +0.15    -0.303    16.458
ATOM     20  H   UNL d   1      10.529 -10.464  -6.321 -0.47 -0.16    +0.222    16.458
ATOM     21  O   UNL d   1      15.301 -10.457 -11.295 -0.01 +0.09    -0.278    16.458
ATOM     22  P   UNL d   1      15.209  -9.705 -12.699 +0.00 -0.16    +0.473    16.458
ATOM     23  O   UNL d   1      16.460  -9.540 -13.494 -0.00 +0.05    -0.228    16.458
ATOM     24  O   UNL d   1      14.056 -10.523 -13.432 +0.00 +0.07    -0.303    16.458
ATOM     25  H   UNL d   1      13.809 -11.290 -12.856 +0.01 -0.05    +0.222    16.458
ATOM     26  O   UNL d   1      14.449  -8.352 -12.295 -0.09 +0.21    -0.303    16.458
ATOM     27  H   UNL d   1      14.960  -7.893 -11.598 -0.08 -0.23    +0.222    16.458
ATOM     28  O   UNL d   1      12.572 -10.546  -6.509 -0.22 +0.11    -0.278    16.458
ATOM     29  P   UNL d   1      12.488 -11.419  -5.179 -0.17 -0.16    +0.473    16.458
ATOM     30  O   UNL d   1      11.143 -11.960  -4.852 -0.14 +0.10    -0.228    16.458
ATOM     31  O   UNL d   1      13.647 -12.483  -5.470 -0.03 +0.06    -0.303    16.458
ATOM     32  H   UNL d   1      14.498 -11.998  -5.577 +0.05 -0.04    +0.222    16.458
ATOM     33  O   UNL d   1      13.156 -10.454  -4.104 -0.25 +0.09    -0.303    16.458
ATOM     34  H   UNL d   1      13.815 -10.969  -3.576 +0.08 -0.05    +0.222    16.458
ATOM     35  O   UNL d   1      15.133  -8.138  -9.528 -0.14 +0.29    -0.278    16.458
ATOM     36  P   UNL d   1      16.582  -7.479  -9.631 -0.11 -0.31    +0.473    16.458
ATOM     37  O   UNL d   1      16.653  -6.022  -9.300 -0.11 +0.19    -0.228    16.458
ATOM     38  O   UNL d   1      17.434  -8.412  -8.661 -0.11 +0.08    -0.303    16.458
ATOM     39  H   UNL d   1      16.891  -8.640  -7.876 +0.05 -0.04    +0.222    16.458
ATOM     40  O   UNL d   1      17.050  -7.912 -11.088 -0.05 +0.14    -0.303    16.458
ATOM     41  H   UNL d   1      16.470  -8.611 -11.464 +0.03 -0.10    +0.222    16.458
ATOM     42  O   UNL d   1      15.070  -9.145  -6.795 -0.48 +0.05    -0.278    16.458
ATOM     43  P   UNL d   1      16.060 -10.261  -6.231 -0.05 -0.02    +0.473    16.458
ATOM     44  O   UNL d   1      16.137 -11.549  -6.975 -0.03 +0.03    -0.228    16.458
ATOM     45  O   UNL d   1      17.444  -9.483  -6.132 -0.32 -0.00    -0.303    16.458
ATOM     46  H   UNL d   1      18.008  -9.654  -6.913 +0.04 -0.02    +0.222    16.458
ATOM     47  O   UNL d   1      15.641 -10.378  -4.689 -0.49 -0.00    -0.303    16.458
ATOM     48  H   UNL d   1      14.775 -10.831  -4.623 +0.06 -0.02    +0.222    16.458
TER
ENDMDL
MODEL       90
USER    Run = 90
USER    Cluster Rank = 56
USER    Number of conformations in this cluster = 1
USER  
USER    RMSD from reference structure       = 14.871 A
USER  
USER    Estimated Free Energy of Binding    =   +3.03 kcal/mol  [=(1)+(2)+(3)-(4)]
USER    
USER    (1) Final Intermolecular Energy     =   -4.13 kcal/mol
USER        vdW + Hbond + desolv Energy     =   -4.08 kcal/mol
USER        Electrostatic Energy            =   -0.05 kcal/mol
USER    (2) Final Total Internal Energy     =  -15.05 kcal/mol
USER    (3) Torsional Free Energy           =   +7.16 kcal/mol
USER    (4) Unbound System's Energy  [=(2)] =  -15.05 kcal/mol
USER    
USER    
USER  
USER    DPF = D:/Protein_go_brrr/autodock/final/AncMH_nat/IHP/dock.dpf
USER    NEWDPF move	IHP_ideal_opt.pdbqt
USER    NEWDPF about	0.035000 0.082000 -0.065000
USER    NEWDPF tran0	7.546055 -12.944601 -10.202830
USER    NEWDPF axisangle0	-0.052018 -0.169179 0.984212 -171.916515
USER    NEWDPF quaternion0	-0.051888 -0.168758 0.981764 -0.070483
USER    NEWDPF dihe0	-116.27 -27.57 144.26 30.44 37.62 177.20 15.31 -180.00 1.33 35.84 97.35 135.29 -172.84 180.00 161.49 121.36 153.49 31.38 59.17 3.67 -12.95 -17.14 -20.55 -8.87 
USER  
USER                              x       y       z    vdW   Elec        q     RMS 
ATOM      1  C   UNL d   1       6.320 -12.177  -9.258 -0.07 -0.02    +0.194    14.871
ATOM      2  C   UNL d   1       7.693 -11.502  -9.234 -0.07 -0.03    +0.194    14.871
ATOM      3  C   UNL d   1       8.824 -12.523  -9.099 -0.03 -0.03    +0.194    14.871
ATOM      4  C   UNL d   1       8.750 -13.644 -10.133 +0.00 -0.03    +0.194    14.871
ATOM      5  C   UNL d   1       7.368 -14.269 -10.272 +0.00 -0.02    +0.194    14.871
ATOM      6  C   UNL d   1       6.231 -13.249 -10.346 -0.03 -0.02    +0.194    14.871
ATOM      7  O   UNL d   1       5.339 -11.182  -9.559 -0.26 +0.00    -0.278    14.871
ATOM      8  P   UNL d   1       5.133  -9.982  -8.525 -0.19 +0.00    +0.473    14.871
ATOM      9  O   UNL d   1       3.759  -9.856  -7.969 -1.21 -0.05    -0.228    14.871
ATOM     10  O   UNL d   1       6.242 -10.240  -7.407 -0.19 +0.01    -0.303    14.871
ATOM     11  H   UNL d   1       7.086  -9.837  -7.684 +0.12 -0.03    +0.222    14.871
ATOM     12  O   UNL d   1       5.702  -8.696  -9.266 -0.21 +0.05    -0.303    14.871
ATOM     13  H   UNL d   1       6.684  -8.689  -9.326 +0.11 -0.02    +0.222    14.871
ATOM     14  O   UNL d   1       7.877 -10.776 -10.456 -0.04 +0.04    -0.278    14.871
ATOM     15  P   UNL d   1       8.480  -9.298 -10.326 -0.14 -0.09    +0.473    14.871
ATOM     16  O   UNL d   1       7.679  -8.190 -10.936 -0.23 +0.01    -0.228    14.871
ATOM     17  O   UNL d   1       8.706  -9.107  -8.761 -0.18 +0.08    -0.303    14.871
ATOM     18  H   UNL d   1       9.174  -9.874  -8.377 +0.09 -0.07    +0.222    14.871
ATOM     19  O   UNL d   1       9.976  -9.432 -10.851 -0.11 +0.12    -0.303    14.871
ATOM     20  H   UNL d   1      10.335 -10.324 -10.691 +0.05 -0.08    +0.222    14.871
ATOM     21  O   UNL d   1       5.018 -13.966 -10.127 -0.06 +0.03    -0.278    14.871
ATOM     22  P   UNL d   1       3.935 -14.065 -11.294 +0.06 -0.03    +0.473    14.871
ATOM     23  O   UNL d   1       2.579 -14.587 -10.955 -0.47 +0.04    -0.228    14.871
ATOM     24  O   UNL d   1       3.953 -12.585 -11.880 -0.36 +0.00    -0.303    14.871
ATOM     25  H   UNL d   1       4.210 -11.967 -11.149 +0.06 +0.00    +0.222    14.871
ATOM     26  O   UNL d   1       4.740 -14.876 -12.418 -0.01 +0.03    -0.303    14.871
ATOM     27  H   UNL d   1       5.621 -15.121 -12.069 +0.01 -0.02    +0.222    14.871
ATOM     28  O   UNL d   1      10.046 -11.846  -9.363 -0.02 +0.07    -0.278    14.871
ATOM     29  P   UNL d   1      10.897 -11.226  -8.168 -0.07 -0.16    +0.473    14.871
ATOM     30  O   UNL d   1      11.990 -12.087  -7.647 -0.05 +0.06    -0.228    14.871
ATOM     31  O   UNL d   1      11.323  -9.829  -8.823 -0.16 +0.19    -0.303    14.871
ATOM     32  H   UNL d   1      10.514  -9.278  -8.940 +0.05 -0.14    +0.222    14.871
ATOM     33  O   UNL d   1       9.763 -10.799  -7.136 -0.15 +0.14    -0.303    14.871
ATOM     34  H   UNL d   1       9.828  -9.827  -6.971 -0.30 -0.12    +0.222    14.871
ATOM     35  O   UNL d   1       7.384 -14.971 -11.513 +0.00 +0.03    -0.278    14.871
ATOM     36  P   UNL d   1       7.367 -16.566 -11.537 +0.01 -0.05    +0.473    14.871
ATOM     37  O   UNL d   1       7.799 -17.196 -12.823 +0.00 +0.02    -0.228    14.871
ATOM     38  O   UNL d   1       8.293 -16.920 -10.291 +0.00 +0.03    -0.303    14.871
ATOM     39  H   UNL d   1       9.218 -16.663 -10.495 +0.00 -0.02    +0.222    14.871
ATOM     40  O   UNL d   1       5.897 -16.897 -11.028 +0.00 +0.04    -0.303    14.871
ATOM     41  H   UNL d   1       5.417 -16.087 -10.747 +0.01 -0.03    +0.222    14.871
ATOM     42  O   UNL d   1       9.637 -14.676  -9.689 +0.00 +0.04    -0.278    14.871
ATOM     43  P   UNL d   1      10.853 -15.104 -10.628 +0.00 -0.06    +0.473    14.871
ATOM     44  O   UNL d   1      12.040 -14.204 -10.668 +0.00 +0.03    -0.228    14.871
ATOM     45  O   UNL d   1      11.173 -16.582 -10.133 +0.00 +0.03    -0.303    14.871
ATOM     46  H   UNL d   1      10.393 -16.996  -9.714 +0.00 -0.02    +0.222    14.871
ATOM     47  O   UNL d   1      10.147 -15.379 -12.040 +0.00 +0.03    -0.303    14.871
ATOM     48  H   UNL d   1       9.340 -15.917 -11.898 +0.00 -0.02    +0.222    14.871
TER
ENDMDL
MODEL       49
USER    Run = 49
USER    Cluster Rank = 57
USER    Number of conformations in this cluster = 1
USER  
USER    RMSD from reference structure       = 14.904 A
USER  
USER    Estimated Free Energy of Binding    =   +3.07 kcal/mol  [=(1)+(2)+(3)-(4)]
USER    
USER    (1) Final Intermolecular Energy     =   -4.09 kcal/mol
USER        vdW + Hbond + desolv Energy     =   -3.94 kcal/mol
USER        Electrostatic Energy            =   -0.15 kcal/mol
USER    (2) Final Total Internal Energy     =  -14.94 kcal/mol
USER    (3) Torsional Free Energy           =   +7.16 kcal/mol
USER    (4) Unbound System's Energy  [=(2)] =  -14.94 kcal/mol
USER    
USER    
USER  
USER    DPF = D:/Protein_go_brrr/autodock/final/AncMH_nat/IHP/dock.dpf
USER    NEWDPF move	IHP_ideal_opt.pdbqt
USER    NEWDPF about	0.035000 0.082000 -0.065000
USER    NEWDPF tran0	18.493555 -1.945418 2.189536
USER    NEWDPF axisangle0	-0.789175 -0.593396 0.158383 96.986134
USER    NEWDPF quaternion0	-0.590994 -0.444379 0.118609 0.662711
USER    NEWDPF dihe0	-112.87 37.27 -32.57 -6.57 152.36 89.83 -84.95 -40.83 110.24 87.63 10.75 -71.54 180.00 166.65 -140.91 -176.38 103.09 -55.17 51.55 1.21 1.33 -5.66 -8.55 170.17 
USER  
USER                              x       y       z    vdW   Elec        q     RMS 
ATOM      1  C   UNL d   1      18.965  -2.430   0.600 -0.09 -0.02    +0.194    14.904
ATOM      2  C   UNL d   1      17.531  -2.781   0.999 -0.10 -0.02    +0.194    14.904
ATOM      3  C   UNL d   1      17.458  -3.324   2.428 -0.04 -0.01    +0.194    14.904
ATOM      4  C   UNL d   1      18.136  -2.417   3.452 -0.02 -0.01    +0.194    14.904
ATOM      5  C   UNL d   1      19.526  -1.949   3.041 -0.02 -0.02    +0.194    14.904
ATOM      6  C   UNL d   1      19.613  -1.463   1.592 -0.07 -0.02    +0.194    14.904
ATOM      7  O   UNL d   1      18.927  -1.775  -0.670 -0.15 +0.04    -0.278    14.904
ATOM      8  P   UNL d   1      18.569  -2.643  -1.962 -0.13 -0.10    +0.473    14.904
ATOM      9  O   UNL d   1      19.528  -2.518  -3.093 -0.18 +0.04    -0.228    14.904
ATOM     10  O   UNL d   1      18.446  -4.133  -1.405 -0.08 +0.06    -0.303    14.904
ATOM     11  H   UNL d   1      17.528  -4.301  -1.121 +0.10 -0.05    +0.222    14.904
ATOM     12  O   UNL d   1      17.056  -2.286  -2.293 -0.20 +0.13    -0.303    14.904
ATOM     13  H   UNL d   1      16.630  -1.734  -1.599 -0.33 -0.11    +0.222    14.904
ATOM     14  O   UNL d   1      16.721  -1.602   0.917 -0.17 +0.01    -0.278    14.904
ATOM     15  P   UNL d   1      15.317  -1.749   0.162 -0.28 -0.05    +0.473    14.904
ATOM     16  O   UNL d   1      14.931  -0.636  -0.761 -0.44 +0.08    -0.228    14.904
ATOM     17  O   UNL d   1      15.420  -3.156  -0.577 -0.22 +0.10    -0.303    14.904
ATOM     18  H   UNL d   1      15.198  -3.073  -1.525 -0.35 -0.19    +0.222    14.904
ATOM     19  O   UNL d   1      14.276  -2.072   1.320 -0.83 -0.15    -0.303    14.904
ATOM     20  H   UNL d   1      14.448  -2.941   1.727 +0.11 +0.08    +0.222    14.904
ATOM     21  O   UNL d   1      20.999  -1.393   1.263 -0.04 +0.03    -0.278    14.904
ATOM     22  P   UNL d   1      21.744   0.018   1.271 -0.04 -0.06    +0.473    14.904
ATOM     23  O   UNL d   1      22.181   0.591  -0.035 -0.08 +0.04    -0.228    14.904
ATOM     24  O   UNL d   1      20.720   0.922   2.088 -0.06 +0.04    -0.303    14.904
ATOM     25  H   UNL d   1      20.917   0.816   3.053 +0.02 -0.03    +0.222    14.904
ATOM     26  O   UNL d   1      22.901  -0.231   2.352 -0.01 +0.04    -0.303    14.904
ATOM     27  H   UNL d   1      22.542  -0.075   3.250 +0.01 -0.03    +0.222    14.904
ATOM     28  O   UNL d   1      16.087  -3.357   2.804 -0.07 -0.03    -0.278    14.904
ATOM     29  P   UNL d   1      15.301  -4.741   2.859 -0.04 +0.02    +0.473    14.904
ATOM     30  O   UNL d   1      14.093  -4.758   3.724 -0.13 -0.03    -0.228    14.904
ATOM     31  O   UNL d   1      15.079  -4.999   1.296 -0.13 +0.01    -0.303    14.904
ATOM     32  H   UNL d   1      14.962  -4.130   0.848 +0.12 -0.01    +0.222    14.904
ATOM     33  O   UNL d   1      16.461  -5.769   3.224 -0.01 +0.02    -0.303    14.904
ATOM     34  H   UNL d   1      17.229  -5.269   3.595 +0.02 -0.01    +0.222    14.904
ATOM     35  O   UNL d   1      19.821  -0.831   3.876 -0.01 +0.02    -0.278    14.904
ATOM     36  P   UNL d   1      21.113  -0.845   4.812 -0.00 -0.05    +0.473    14.904
ATOM     37  O   UNL d   1      21.760   0.484   5.038 -0.00 +0.02    -0.228    14.904
ATOM     38  O   UNL d   1      20.550  -1.532   6.134 -0.00 +0.03    -0.303    14.904
ATOM     39  H   UNL d   1      19.948  -2.266   5.884 +0.00 -0.02    +0.222    14.904
ATOM     40  O   UNL d   1      22.006  -1.978   4.143 -0.00 +0.03    -0.303    14.904
ATOM     41  H   UNL d   1      22.046  -1.880   3.166 +0.01 -0.02    +0.222    14.904
ATOM     42  O   UNL d   1      18.288  -3.186   4.650 -0.00 +0.01    -0.278    14.904
ATOM     43  P   UNL d   1      19.132  -4.538   4.597 +0.01 -0.04    +0.473    14.904
ATOM     44  O   UNL d   1      19.538  -5.042   3.256 -0.00 +0.02    -0.228    14.904
ATOM     45  O   UNL d   1      20.351  -4.227   5.572 +0.00 +0.03    -0.303    14.904
ATOM     46  H   UNL d   1      20.892  -3.483   5.242 +0.00 -0.02    +0.222    14.904
ATOM     47  O   UNL d   1      18.258  -5.550   5.481 +0.00 +0.02    -0.303    14.904
ATOM     48  H   UNL d   1      17.825  -6.202   4.892 +0.01 -0.02    +0.222    14.904
TER
ENDMDL
MODEL       57
USER    Run = 57
USER    Cluster Rank = 58
USER    Number of conformations in this cluster = 1
USER  
USER    RMSD from reference structure       = 17.583 A
USER  
USER    Estimated Free Energy of Binding    =   +3.08 kcal/mol  [=(1)+(2)+(3)-(4)]
USER    
USER    (1) Final Intermolecular Energy     =   -4.08 kcal/mol
USER        vdW + Hbond + desolv Energy     =   -3.37 kcal/mol
USER        Electrostatic Energy            =   -0.71 kcal/mol
USER    (2) Final Total Internal Energy     =  -12.99 kcal/mol
USER    (3) Torsional Free Energy           =   +7.16 kcal/mol
USER    (4) Unbound System's Energy  [=(2)] =  -12.99 kcal/mol
USER    
USER    
USER  
USER    DPF = D:/Protein_go_brrr/autodock/final/AncMH_nat/IHP/dock.dpf
USER    NEWDPF move	IHP_ideal_opt.pdbqt
USER    NEWDPF about	0.035000 0.082000 -0.065000
USER    NEWDPF tran0	-19.751294 9.201050 0.492495
USER    NEWDPF axisangle0	0.566822 -0.142602 -0.811405 137.060131
USER    NEWDPF quaternion0	0.527490 -0.132707 -0.755101 0.366013
USER    NEWDPF dihe0	-170.92 -175.74 -170.74 -51.75 145.83 167.11 -45.07 121.39 30.93 71.50 47.03 117.70 97.25 -177.27 38.13 -180.00 -63.58 -176.97 -4.63 -36.23 -9.07 -30.70 -171.19 12.57 
USER  
USER                              x       y       z    vdW   Elec        q     RMS 
ATOM      1  C   UNL d   1     -19.909  10.801  -0.140 -0.01 +0.00    +0.194    17.583
ATOM      2  C   UNL d   1     -18.875  10.630   0.975 -0.04 -0.01    +0.194    17.583
ATOM      3  C   UNL d   1     -19.404   9.749   2.108 -0.04 +0.02    +0.194    17.583
ATOM      4  C   UNL d   1     -19.956   8.411   1.622 -0.03 +0.05    +0.194    17.583
ATOM      5  C   UNL d   1     -20.905   8.525   0.436 -0.00 +0.04    +0.194    17.583
ATOM      6  C   UNL d   1     -20.403   9.455  -0.671 -0.00 +0.02    +0.194    17.583
ATOM      7  O   UNL d   1     -19.284  11.485  -1.228 -0.01 +0.01    -0.278    17.583
ATOM      8  P   UNL d   1     -19.988  12.797  -1.805 +0.01 -0.02    +0.473    17.583
ATOM      9  O   UNL d   1     -19.059  13.822  -2.355 -0.00 +0.02    -0.228    17.583
ATOM     10  O   UNL d   1     -21.018  12.238  -2.888 +0.00 -0.00    -0.303    17.583
ATOM     11  H   UNL d   1     -21.335  11.358  -2.614 +0.00 +0.01    +0.222    17.583
ATOM     12  O   UNL d   1     -20.957  13.289  -0.647 +0.00 +0.01    -0.303    17.583
ATOM     13  H   UNL d   1     -20.956  14.267  -0.532 +0.00 -0.01    +0.222    17.583
ATOM     14  O   UNL d   1     -17.700  10.017   0.430 -0.06 +0.01    -0.278    17.583
ATOM     15  P   UNL d   1     -16.521  11.003  -0.019 -0.15 -0.18    +0.473    17.583
ATOM     16  O   UNL d   1     -16.089  10.926  -1.450 -0.14 +0.03    -0.228    17.583
ATOM     17  O   UNL d   1     -17.048  12.449   0.390 -0.05 +0.28    -0.303    17.583
ATOM     18  H   UNL d   1     -16.731  12.701   1.279 -0.42 -0.43    +0.222    17.583
ATOM     19  O   UNL d   1     -15.374  10.765   1.057 -0.33 +0.19    -0.303    17.583
ATOM     20  H   UNL d   1     -15.249  11.545   1.629 -0.46 -0.32    +0.222    17.583
ATOM     21  O   UNL d   1     -21.517   9.723  -1.520 +0.00 -0.02    -0.278    17.583
ATOM     22  P   UNL d   1     -21.539   9.142  -3.005 +0.00 +0.04    +0.473    17.583
ATOM     23  O   UNL d   1     -21.667   7.666  -3.182 +0.00 -0.03    -0.228    17.583
ATOM     24  O   UNL d   1     -22.703   9.998  -3.673 +0.00 -0.02    -0.303    17.583
ATOM     25  H   UNL d   1     -22.333  10.884  -3.916 +0.00 +0.01    +0.222    17.583
ATOM     26  O   UNL d   1     -20.229   9.814  -3.638 -0.00 -0.02    -0.303    17.583
ATOM     27  H   UNL d   1     -19.858  10.459  -3.001 +0.01 +0.01    +0.222    17.583
ATOM     28  O   UNL d   1     -18.303   9.421   2.945 -0.09 -0.04    -0.278    17.583
ATOM     29  P   UNL d   1     -17.772  10.466   4.023 -0.19 +0.01    +0.473    17.583
ATOM     30  O   UNL d   1     -17.081   9.879   5.200 -0.48 -0.03    -0.228    17.583
ATOM     31  O   UNL d   1     -16.909  11.427   3.079 -0.21 +0.13    -0.303    17.583
ATOM     32  H   UNL d   1     -17.051  11.157   2.142 +0.06 -0.10    +0.222    17.583
ATOM     33  O   UNL d   1     -19.074  11.336   4.314 -0.06 -0.00    -0.303    17.583
ATOM     34  H   UNL d   1     -18.853  12.034   4.977 +0.06 -0.00    +0.222    17.583
ATOM     35  O   UNL d   1     -20.986   7.215  -0.122 -0.00 -0.09    -0.278    17.583
ATOM     36  P   UNL d   1     -19.679   6.309  -0.242 -0.00 +0.23    +0.473    17.583
ATOM     37  O   UNL d   1     -18.378   7.042  -0.174 -0.05 -0.10    -0.228    17.583
ATOM     38  O   UNL d   1     -19.901   5.258   0.934 -0.06 -0.28    -0.303    17.583
ATOM     39  H   UNL d   1     -20.288   5.720   1.708 +0.04 +0.21    +0.222    17.583
ATOM     40  O   UNL d   1     -19.967   5.471  -1.563 +0.00 -0.13    -0.303    17.583
ATOM     41  H   UNL d   1     -20.527   5.971  -2.197 +0.01 +0.06    +0.222    17.583
ATOM     42  O   UNL d   1     -20.705   7.852   2.707 -0.03 -0.11    -0.278    17.583
ATOM     43  P   UNL d   1     -20.016   6.751   3.633 -0.07 +0.35    +0.473    17.583
ATOM     44  O   UNL d   1     -20.785   5.504   3.906 -0.40 -0.36    -0.228    17.583
ATOM     45  O   UNL d   1     -18.620   6.509   2.908 -0.19 -0.24    -0.303    17.583
ATOM     46  H   UNL d   1     -18.672   6.716   1.954 +0.07 +0.15    +0.222    17.583
ATOM     47  O   UNL d   1     -19.570   7.586   4.927 -0.16 -0.15    -0.303    17.583
ATOM     48  H   UNL d   1     -18.908   8.258   4.664 +0.10 +0.08    +0.222    17.583
TER
ENDMDL
MODEL       83
USER    Run = 83
USER    Cluster Rank = 59
USER    Number of conformations in this cluster = 1
USER  
USER    RMSD from reference structure       = 19.016 A
USER  
USER    Estimated Free Energy of Binding    =   +3.08 kcal/mol  [=(1)+(2)+(3)-(4)]
USER    
USER    (1) Final Intermolecular Energy     =   -4.08 kcal/mol
USER        vdW + Hbond + desolv Energy     =   -3.38 kcal/mol
USER        Electrostatic Energy            =   -0.70 kcal/mol
USER    (2) Final Total Internal Energy     =  -12.46 kcal/mol
USER    (3) Torsional Free Energy           =   +7.16 kcal/mol
USER    (4) Unbound System's Energy  [=(2)] =  -12.46 kcal/mol
USER    
USER    
USER  
USER    DPF = D:/Protein_go_brrr/autodock/final/AncMH_nat/IHP/dock.dpf
USER    NEWDPF move	IHP_ideal_opt.pdbqt
USER    NEWDPF about	0.035000 0.082000 -0.065000
USER    NEWDPF tran0	1.519135 19.284511 9.484708
USER    NEWDPF axisangle0	0.393015 -0.383526 0.835731 144.304619
USER    NEWDPF quaternion0	0.374101 -0.365069 0.795511 0.306488
USER    NEWDPF dihe0	156.89 74.88 47.17 49.32 -88.02 110.05 -114.98 67.60 34.45 179.89 -5.78 96.72 -45.37 175.27 75.60 13.78 -75.28 -180.00 14.64 -29.34 -39.59 -38.95 -153.22 20.25 
USER  
USER                              x       y       z    vdW   Elec        q     RMS 
ATOM      1  C   UNL d   1       1.310  18.538  11.028 -0.02 +0.08    +0.194    19.016
ATOM      2  C   UNL d   1       1.499  20.055  11.049 -0.00 +0.07    +0.194    19.016
ATOM      3  C   UNL d   1       2.607  20.501  10.091 +0.01 +0.06    +0.194    19.016
ATOM      4  C   UNL d   1       2.430  19.960   8.675 -0.01 +0.08    +0.194    19.016
ATOM      5  C   UNL d   1       2.125  18.469   8.613 -0.04 +0.08    +0.194    19.016
ATOM      6  C   UNL d   1       1.061  18.013   9.614 -0.05 +0.09    +0.194    19.016
ATOM      7  O   UNL d   1       0.154  18.222  11.809 -0.23 -0.22    -0.278    19.016
ATOM      8  P   UNL d   1       0.366  17.524  13.230 -0.02 +0.17    +0.473    19.016
ATOM      9  O   UNL d   1       1.783  17.400  13.668 +0.00 -0.04    -0.228    19.016
ATOM     10  O   UNL d   1      -0.525  18.396  14.226 -0.03 -0.12    -0.303    19.016
ATOM     11  H   UNL d   1      -0.949  19.123  13.733 +0.01 +0.14    +0.222    19.016
ATOM     12  O   UNL d   1      -0.456  16.167  13.150 -0.05 -0.07    -0.303    19.016
ATOM     13  H   UNL d   1      -0.510  15.802  12.238 +0.05 +0.04    +0.222    19.016
ATOM     14  O   UNL d   1       0.274  20.685  10.654 -0.02 -0.16    -0.278    19.016
ATOM     15  P   UNL d   1      -0.623  21.305  11.827 -0.04 +0.31    +0.473    19.016
ATOM     16  O   UNL d   1      -2.067  20.913  11.848 -0.39 -0.38    -0.228    19.016
ATOM     17  O   UNL d   1       0.147  20.897  13.160 -0.01 -0.12    -0.303    19.016
ATOM     18  H   UNL d   1       0.377  19.948  13.157 +0.01 +0.09    +0.222    19.016
ATOM     19  O   UNL d   1      -0.338  22.869  11.759 +0.00 -0.09    -0.303    19.016
ATOM     20  H   UNL d   1       0.407  23.074  11.164 +0.00 +0.05    +0.222    19.016
ATOM     21  O   UNL d   1       1.136  16.591   9.676 -0.07 -0.06    -0.278    19.016
ATOM     22  P   UNL d   1      -0.201  15.732   9.808 -0.16 +0.03    +0.473    19.016
ATOM     23  O   UNL d   1      -0.686  14.992   8.607 -0.28 +0.03    -0.228    19.016
ATOM     24  O   UNL d   1       0.123  14.817  11.069 -0.09 +0.18    -0.303    19.016
ATOM     25  H   UNL d   1      -0.417  13.989  10.997 -0.47 -0.48    +0.222    19.016
ATOM     26  O   UNL d   1      -1.217  16.805  10.430 -0.50 -0.40    -0.303    19.016
ATOM     27  H   UNL d   1      -0.903  17.068  11.319 +0.05 +0.30    +0.222    19.016
ATOM     28  O   UNL d   1       2.523  21.915   9.969 +0.01 -0.07    -0.278    19.016
ATOM     29  P   UNL d   1       2.957  22.855  11.179 +0.01 +0.07    +0.473    19.016
ATOM     30  O   UNL d   1       3.166  22.168  12.480 +0.00 -0.03    -0.228    19.016
ATOM     31  O   UNL d   1       4.227  23.579  10.529 +0.00 -0.04    -0.303    19.016
ATOM     32  H   UNL d   1       4.914  22.899  10.340 +0.00 +0.03    +0.222    19.016
ATOM     33  O   UNL d   1       1.844  23.992  11.136 +0.00 -0.04    -0.303    19.016
ATOM     34  H   UNL d   1       1.430  24.071  12.030 +0.00 +0.03    +0.222    19.016
ATOM     35  O   UNL d   1       1.601  18.235   7.307 -0.09 -0.14    -0.278    19.016
ATOM     36  P   UNL d   1       0.948  19.430   6.476 -0.09 +0.27    +0.473    19.016
ATOM     37  O   UNL d   1       0.282  20.493   7.290 -0.03 -0.11    -0.228    19.016
ATOM     38  O   UNL d   1       2.187  19.944   5.617 -0.66 -0.38    -0.303    19.016
ATOM     39  H   UNL d   1       3.005  19.867   6.154 +0.03 +0.34    +0.222    19.016
ATOM     40  O   UNL d   1       0.045  18.656   5.420 -0.14 -0.15    -0.303    19.016
ATOM     41  H   UNL d   1      -0.830  19.089   5.303 +0.07 +0.09    +0.222    19.016
ATOM     42  O   UNL d   1       3.674  20.164   7.995 -0.03 -0.16    -0.278    19.016
ATOM     43  P   UNL d   1       3.898  21.521   7.187 -0.03 +0.31    +0.473    19.016
ATOM     44  O   UNL d   1       4.480  21.418   5.820 -0.12 -0.34    -0.228    19.016
ATOM     45  O   UNL d   1       2.458  22.196   7.233 -0.01 -0.13    -0.303    19.016
ATOM     46  H   UNL d   1       1.854  21.796   6.576 +0.02 +0.11    +0.222    19.016
ATOM     47  O   UNL d   1       4.718  22.431   8.221 +0.00 -0.10    -0.303    19.016
ATOM     48  H   UNL d   1       4.090  22.877   8.826 +0.00 +0.05    +0.222    19.016
TER
ENDMDL
MODEL       21
USER    Run = 21
USER    Cluster Rank = 60
USER    Number of conformations in this cluster = 1
USER  
USER    RMSD from reference structure       = 13.261 A
USER  
USER    Estimated Free Energy of Binding    =   +3.15 kcal/mol  [=(1)+(2)+(3)-(4)]
USER    
USER    (1) Final Intermolecular Energy     =   -4.00 kcal/mol
USER        vdW + Hbond + desolv Energy     =   -3.91 kcal/mol
USER        Electrostatic Energy            =   -0.10 kcal/mol
USER    (2) Final Total Internal Energy     =  -13.04 kcal/mol
USER    (3) Torsional Free Energy           =   +7.16 kcal/mol
USER    (4) Unbound System's Energy  [=(2)] =  -13.04 kcal/mol
USER    
USER    
USER  
USER    DPF = D:/Protein_go_brrr/autodock/final/AncMH_nat/IHP/dock.dpf
USER    NEWDPF move	IHP_ideal_opt.pdbqt
USER    NEWDPF about	0.035000 0.082000 -0.065000
USER    NEWDPF tran0	-14.429183 7.822447 -4.479659
USER    NEWDPF axisangle0	-0.501481 -0.005363 -0.865152 -130.513519
USER    NEWDPF quaternion0	-0.455441 -0.004871 -0.785725 -0.418553
USER    NEWDPF dihe0	129.19 85.28 12.41 161.20 -23.80 -120.31 -23.09 -120.56 167.85 140.05 -5.40 -90.92 -61.92 -82.19 -65.79 78.67 68.33 -79.78 45.93 3.55 -169.36 -14.20 31.67 -155.92 
USER  
USER                              x       y       z    vdW   Elec        q     RMS 
ATOM      1  C   UNL d   1     -14.748   7.888  -2.783 -0.13 +0.03    +0.194    13.261
ATOM      2  C   UNL d   1     -15.250   9.082  -3.597 -0.06 +0.01    +0.194    13.261
ATOM      3  C   UNL d   1     -14.214   9.544  -4.624 -0.04 +0.00    +0.194    13.261
ATOM      4  C   UNL d   1     -13.704   8.413  -5.513 -0.08 -0.01    +0.194    13.261
ATOM      5  C   UNL d   1     -13.299   7.158  -4.751 -0.08 -0.00    +0.194    13.261
ATOM      6  C   UNL d   1     -14.307   6.732  -3.681 -0.08 +0.03    +0.194    13.261
ATOM      7  O   UNL d   1     -15.828   7.413  -1.976 -0.08 -0.08    -0.278    13.261
ATOM      8  P   UNL d   1     -16.215   8.238  -0.663 -0.13 +0.09    +0.473    13.261
ATOM      9  O   UNL d   1     -15.248   9.302  -0.279 -0.23 +0.01    -0.228    13.261
ATOM     10  O   UNL d   1     -17.675   8.799  -0.976 -0.03 -0.04    -0.303    13.261
ATOM     11  H   UNL d   1     -17.781   8.919  -1.938 +0.03 +0.03    +0.222    13.261
ATOM     12  O   UNL d   1     -16.512   7.137   0.443 -0.16 -0.15    -0.303    13.261
ATOM     13  H   UNL d   1     -15.884   6.380   0.412 +0.08 +0.18    +0.222    13.261
ATOM     14  O   UNL d   1     -16.445   8.705  -4.292 -0.03 -0.02    -0.278    13.261
ATOM     15  P   UNL d   1     -17.657   9.750  -4.253 -0.01 +0.02    +0.473    13.261
ATOM     16  O   UNL d   1     -17.713  10.671  -3.074 -0.03 -0.00    -0.228    13.261
ATOM     17  O   UNL d   1     -17.544  10.528  -5.638 -0.01 -0.00    -0.303    13.261
ATOM     18  H   UNL d   1     -16.893  11.254  -5.582 +0.01 +0.00    +0.222    13.261
ATOM     19  O   UNL d   1     -18.955   8.862  -4.491 -0.00 -0.02    -0.303    13.261
ATOM     20  H   UNL d   1     -19.430   8.686  -3.657 +0.00 +0.02    +0.222    13.261
ATOM     21  O   UNL d   1     -13.646   5.783  -2.846 -0.07 -0.08    -0.278    13.261
ATOM     22  P   UNL d   1     -12.808   6.287  -1.586 -0.23 +0.15    +0.473    13.261
ATOM     23  O   UNL d   1     -12.061   7.572  -1.703 -0.36 -0.02    -0.228    13.261
ATOM     24  O   UNL d   1     -13.904   6.255  -0.432 -0.23 -0.18    -0.303    13.261
ATOM     25  H   UNL d   1     -14.353   7.138  -0.409 +0.09 +0.08    +0.222    13.261
ATOM     26  O   UNL d   1     -11.928   4.991  -1.241 -0.17 -0.13    -0.303    13.261
ATOM     27  H   UNL d   1     -11.306   4.821  -1.977 +0.10 +0.05    +0.222    13.261
ATOM     28  O   UNL d   1     -14.860  10.454  -5.505 -0.07 +0.00    -0.278    13.261
ATOM     29  P   UNL d   1     -14.746  12.025  -5.264 -0.06 -0.01    +0.473    13.261
ATOM     30  O   UNL d   1     -13.365  12.552  -5.122 -0.18 +0.02    -0.228    13.261
ATOM     31  O   UNL d   1     -15.605  12.560  -6.504 -0.01 +0.01    -0.303    13.261
ATOM     32  H   UNL d   1     -16.280  11.881  -6.735 +0.01 -0.00    +0.222    13.261
ATOM     33  O   UNL d   1     -15.731  12.246  -4.033 -0.07 +0.01    -0.303    13.261
ATOM     34  H   UNL d   1     -16.645  11.978  -4.300 +0.03 -0.00    +0.222    13.261
ATOM     35  O   UNL d   1     -13.251   6.114  -5.721 -0.02 +0.03    -0.278    13.261
ATOM     36  P   UNL d   1     -12.470   4.759  -5.407 -0.01 -0.10    +0.473    13.261
ATOM     37  O   UNL d   1     -13.323   3.538  -5.275 -0.02 -0.00    -0.228    13.261
ATOM     38  O   UNL d   1     -11.423   4.700  -6.606 -0.07 +0.28    -0.303    13.261
ATOM     39  H   UNL d   1     -10.560   5.048  -6.296 -0.42 -0.34    +0.222    13.261
ATOM     40  O   UNL d   1     -11.586   5.161  -4.147 -0.06 +0.04    -0.303    13.261
ATOM     41  H   UNL d   1     -12.001   4.872  -3.304 +0.08 +0.02    +0.222    13.261
ATOM     42  O   UNL d   1     -12.531   8.901  -6.173 -0.08 +0.03    -0.278    13.261
ATOM     43  P   UNL d   1     -11.105   8.630  -5.511 -0.19 -0.10    +0.473    13.261
ATOM     44  O   UNL d   1     -11.029   8.618  -4.024 -0.23 +0.04    -0.228    13.261
ATOM     45  O   UNL d   1     -10.656   7.265  -6.196 -0.15 +0.13    -0.303    13.261
ATOM     46  H   UNL d   1     -11.103   6.496  -5.789 +0.08 -0.10    +0.222    13.261
ATOM     47  O   UNL d   1     -10.153   9.690  -6.244 -0.26 +0.06    -0.303    13.261
ATOM     48  H   UNL d   1     -10.172  10.537  -5.751 -0.30 -0.07    +0.222    13.261
TER
ENDMDL
MODEL       43
USER    Run = 43
USER    Cluster Rank = 61
USER    Number of conformations in this cluster = 1
USER  
USER    RMSD from reference structure       = 20.518 A
USER  
USER    Estimated Free Energy of Binding    =   +3.17 kcal/mol  [=(1)+(2)+(3)-(4)]
USER    
USER    (1) Final Intermolecular Energy     =   -3.98 kcal/mol
USER        vdW + Hbond + desolv Energy     =   -3.76 kcal/mol
USER        Electrostatic Energy            =   -0.23 kcal/mol
USER    (2) Final Total Internal Energy     =  -12.22 kcal/mol
USER    (3) Torsional Free Energy           =   +7.16 kcal/mol
USER    (4) Unbound System's Energy  [=(2)] =  -12.22 kcal/mol
USER    
USER    
USER  
USER    DPF = D:/Protein_go_brrr/autodock/final/AncMH_nat/IHP/dock.dpf
USER    NEWDPF move	IHP_ideal_opt.pdbqt
USER    NEWDPF about	0.035000 0.082000 -0.065000
USER    NEWDPF tran0	-12.262818 1.848583 19.735500
USER    NEWDPF axisangle0	-0.860676 0.240805 -0.448608 99.721903
USER    NEWDPF quaternion0	-0.657972 0.184091 -0.342953 0.644645
USER    NEWDPF dihe0	138.32 30.04 135.80 -34.99 2.56 167.21 -103.34 -51.83 158.35 127.82 112.80 93.62 5.86 77.56 162.16 -19.63 51.88 72.80 3.02 -49.71 -26.59 26.39 179.10 -179.92 
USER  
USER                              x       y       z    vdW   Elec        q     RMS 
ATOM      1  C   UNL d   1     -10.612   1.418  20.010 -0.09 -0.05    +0.194    20.518
ATOM      2  C   UNL d   1     -11.011   1.609  18.545 -0.17 -0.04    +0.194    20.518
ATOM      3  C   UNL d   1     -12.365   0.967  18.238 -0.14 -0.03    +0.194    20.518
ATOM      4  C   UNL d   1     -13.469   1.402  19.198 -0.06 -0.01    +0.194    20.518
ATOM      5  C   UNL d   1     -13.075   1.337  20.668 -0.03 -0.01    +0.194    20.518
ATOM      6  C   UNL d   1     -11.694   1.924  20.966 -0.03 -0.02    +0.194    20.518
ATOM      7  O   UNL d   1      -9.433   2.187  20.255 -0.05 +0.07    -0.278    20.518
ATOM      8  P   UNL d   1      -8.113   1.423  20.731 -0.05 -0.12    +0.473    20.518
ATOM      9  O   UNL d   1      -7.635   0.356  19.810 -0.60 +0.03    -0.228    20.518
ATOM     10  O   UNL d   1      -7.047   2.590  20.948 -0.02 +0.11    -0.303    20.518
ATOM     11  H   UNL d   1      -7.332   3.387  20.463 +0.04 -0.12    +0.222    20.518
ATOM     12  O   UNL d   1      -8.416   0.967  22.223 -0.01 +0.05    -0.303    20.518
ATOM     13  H   UNL d   1      -9.192   1.426  22.616 +0.01 -0.03    +0.222    20.518
ATOM     14  O   UNL d   1     -11.097   3.012  18.264 -0.15 +0.03    -0.278    20.518
ATOM     15  P   UNL d   1      -9.719   3.763  17.944 -0.14 -0.09    +0.473    20.518
ATOM     16  O   UNL d   1      -9.708   4.666  16.750 -0.56 +0.05    -0.228    20.518
ATOM     17  O   UNL d   1      -9.370   4.526  19.298 -0.07 +0.12    -0.303    20.518
ATOM     18  H   UNL d   1      -9.575   3.973  20.076 +0.04 -0.06    +0.222    20.518
ATOM     19  O   UNL d   1      -8.628   2.606  17.939 -0.15 +0.08    -0.303    20.518
ATOM     20  H   UNL d   1      -8.191   2.519  18.806 +0.07 -0.09    +0.222    20.518
ATOM     21  O   UNL d   1     -11.333   1.487  22.274 -0.01 +0.03    -0.278    20.518
ATOM     22  P   UNL d   1     -10.841   2.550  23.357 +0.01 -0.04    +0.473    20.518
ATOM     23  O   UNL d   1     -10.211   2.041  24.609 -0.00 +0.02    -0.228    20.518
ATOM     24  O   UNL d   1      -9.913   3.501  22.481 +0.00 +0.04    -0.303    20.518
ATOM     25  H   UNL d   1      -9.149   2.964  22.149 +0.01 -0.04    +0.222    20.518
ATOM     26  O   UNL d   1     -12.153   3.452  23.546 +0.00 +0.02    -0.303    20.518
ATOM     27  H   UNL d   1     -12.827   3.182  22.889 +0.00 -0.01    +0.222    20.518
ATOM     28  O   UNL d   1     -12.777   1.427  16.957 -0.19 +0.02    -0.278    20.518
ATOM     29  P   UNL d   1     -13.415   0.414  15.906 -0.17 +0.00    +0.473    20.518
ATOM     30  O   UNL d   1     -12.706  -0.882  15.752 -0.43 -0.01    -0.228    20.518
ATOM     31  O   UNL d   1     -14.919   0.359  16.450 -0.06 -0.02    -0.303    20.518
ATOM     32  H   UNL d   1     -14.897   0.155  17.413 +0.06 +0.01    +0.222    20.518
ATOM     33  O   UNL d   1     -13.545   1.322  14.604 -0.25 +0.02    -0.303    20.518
ATOM     34  H   UNL d   1     -13.099   2.189  14.771 +0.07 -0.04    +0.222    20.518
ATOM     35  O   UNL d   1     -14.030   2.138  21.361 -0.00 +0.00    -0.278    20.518
ATOM     36  P   UNL d   1     -14.351   3.619  20.863 +0.01 +0.01    +0.473    20.518
ATOM     37  O   UNL d   1     -15.551   3.756  19.981 -0.00 -0.02    -0.228    20.518
ATOM     38  O   UNL d   1     -14.457   4.411  22.240 -0.00 -0.00    -0.303    20.518
ATOM     39  H   UNL d   1     -13.565   4.732  22.495 +0.00 -0.00    +0.222    20.518
ATOM     40  O   UNL d   1     -12.955   4.085  20.260 -0.00 +0.01    -0.303    20.518
ATOM     41  H   UNL d   1     -12.854   3.810  19.321 +0.04 -0.01    +0.222    20.518
ATOM     42  O   UNL d   1     -14.561   0.495  19.014 -0.03 -0.00    -0.278    20.518
ATOM     43  P   UNL d   1     -14.393  -1.020  19.487 -0.03 +0.01    +0.473    20.518
ATOM     44  O   UNL d   1     -15.318  -1.516  20.543 -0.01 -0.02    -0.228    20.518
ATOM     45  O   UNL d   1     -14.477  -1.824  18.117 -0.09 -0.03    -0.303    20.518
ATOM     46  H   UNL d   1     -14.003  -1.359  17.399 +0.06 +0.01    +0.222    20.518
ATOM     47  O   UNL d   1     -12.831  -1.125  19.831 -0.07 +0.06    -0.303    20.518
ATOM     48  H   UNL d   1     -12.336  -1.358  19.018 -0.52 -0.11    +0.222    20.518
TER
ENDMDL
MODEL       48
USER    Run = 48
USER    Cluster Rank = 62
USER    Number of conformations in this cluster = 1
USER  
USER    RMSD from reference structure       = 19.191 A
USER  
USER    Estimated Free Energy of Binding    =   +3.18 kcal/mol  [=(1)+(2)+(3)-(4)]
USER    
USER    (1) Final Intermolecular Energy     =   -3.98 kcal/mol
USER        vdW + Hbond + desolv Energy     =   -3.47 kcal/mol
USER        Electrostatic Energy            =   -0.51 kcal/mol
USER    (2) Final Total Internal Energy     =  -13.49 kcal/mol
USER    (3) Torsional Free Energy           =   +7.16 kcal/mol
USER    (4) Unbound System's Energy  [=(2)] =  -13.49 kcal/mol
USER    
USER    
USER  
USER    DPF = D:/Protein_go_brrr/autodock/final/AncMH_nat/IHP/dock.dpf
USER    NEWDPF move	IHP_ideal_opt.pdbqt
USER    NEWDPF about	0.035000 0.082000 -0.065000
USER    NEWDPF tran0	4.157131 -3.199240 20.230217
USER    NEWDPF axisangle0	-0.536974 -0.826688 -0.168062 -83.798584
USER    NEWDPF quaternion0	-0.358604 -0.552082 -0.112236 -0.744320
USER    NEWDPF dihe0	-174.85 -19.07 129.71 56.07 85.10 -110.58 53.38 -179.11 94.05 -41.25 99.20 -86.70 13.64 2.30 17.95 -101.52 110.86 97.19 -135.36 -20.18 96.78 -17.36 152.29 160.05 
USER  
USER                              x       y       z    vdW   Elec        q     RMS 
ATOM      1  C   UNL d   1       3.528  -3.029  21.830 +0.01 -0.04    +0.194    19.191
ATOM      2  C   UNL d   1       2.893  -4.135  20.985 -0.00 -0.06    +0.194    19.191
ATOM      3  C   UNL d   1       2.624  -3.668  19.552 -0.06 -0.09    +0.194    19.191
ATOM      4  C   UNL d   1       3.850  -3.057  18.878 -0.05 -0.07    +0.194    19.191
ATOM      5  C   UNL d   1       4.582  -2.031  19.733 -0.01 -0.05    +0.194    19.191
ATOM      6  C   UNL d   1       4.797  -2.473  21.182 +0.00 -0.04    +0.194    19.191
ATOM      7  O   UNL d   1       3.904  -3.592  23.090 +0.00 +0.05    -0.278    19.191
ATOM      8  P   UNL d   1       5.443  -3.947  23.333 +0.00 -0.07    +0.473    19.191
ATOM      9  O   UNL d   1       6.364  -2.778  23.357 +0.00 +0.03    -0.228    19.191
ATOM     10  O   UNL d   1       5.438  -4.771  24.699 +0.00 +0.04    -0.303    19.191
ATOM     11  H   UNL d   1       4.577  -5.216  24.809 +0.00 -0.03    +0.222    19.191
ATOM     12  O   UNL d   1       5.781  -5.074  22.266 +0.00 +0.05    -0.303    19.191
ATOM     13  H   UNL d   1       5.276  -5.906  22.411 +0.00 -0.04    +0.222    19.191
ATOM     14  O   UNL d   1       3.783  -5.257  20.939 -0.00 +0.07    -0.278    19.191
ATOM     15  P   UNL d   1       3.308  -6.579  21.708 +0.01 -0.11    +0.473    19.191
ATOM     16  O   UNL d   1       1.999  -7.169  21.285 -0.02 +0.06    -0.228    19.191
ATOM     17  O   UNL d   1       4.526  -7.590  21.531 -0.00 +0.06    -0.303    19.191
ATOM     18  H   UNL d   1       5.379  -7.115  21.527 +0.00 -0.04    +0.222    19.191
ATOM     19  O   UNL d   1       3.424  -6.205  23.250 +0.00 +0.05    -0.303    19.191
ATOM     20  H   UNL d   1       3.799  -5.314  23.377 +0.00 -0.04    +0.222    19.191
ATOM     21  O   UNL d   1       5.166  -1.309  21.918 +0.00 +0.05    -0.278    19.191
ATOM     22  P   UNL d   1       5.407   0.069  21.151 +0.01 -0.08    +0.473    19.191
ATOM     23  O   UNL d   1       4.382   0.514  20.162 -0.01 +0.05    -0.228    19.191
ATOM     24  O   UNL d   1       5.650   1.076  22.359 +0.00 +0.04    -0.303    19.191
ATOM     25  H   UNL d   1       5.889   0.544  23.160 +0.00 -0.03    +0.222    19.191
ATOM     26  O   UNL d   1       6.892  -0.130  20.581 +0.00 +0.05    -0.303    19.191
ATOM     27  H   UNL d   1       6.864  -0.741  19.817 +0.01 -0.04    +0.222    19.191
ATOM     28  O   UNL d   1       2.302  -4.818  18.781 -0.12 +0.16    -0.278    19.191
ATOM     29  P   UNL d   1       0.784  -5.257  18.585 -0.21 -0.50    +0.473    19.191
ATOM     30  O   UNL d   1       0.476  -6.670  18.926 -0.26 +0.18    -0.228    19.191
ATOM     31  O   UNL d   1       0.053  -4.126  19.449 -0.16 +0.35    -0.303    19.191
ATOM     32  H   UNL d   1      -0.362  -3.479  18.833 -0.05 -0.42    +0.222    19.191
ATOM     33  O   UNL d   1       0.494  -4.798  17.088 -0.58 +0.45    -0.303    19.191
ATOM     34  H   UNL d   1      -0.246  -4.143  17.091 -0.29 -0.69    +0.222    19.191
ATOM     35  O   UNL d   1       5.872  -1.885  19.143 -0.00 +0.06    -0.278    19.191
ATOM     36  P   UNL d   1       6.994  -2.995  19.377 +0.01 -0.10    +0.473    19.191
ATOM     37  O   UNL d   1       8.049  -3.078  18.320 -0.00 +0.05    -0.228    19.191
ATOM     38  O   UNL d   1       7.542  -2.605  20.820 +0.00 +0.05    -0.303    19.191
ATOM     39  H   UNL d   1       6.849  -2.107  21.303 +0.00 -0.04    +0.222    19.191
ATOM     40  O   UNL d   1       6.128  -4.304  19.637 -0.00 +0.07    -0.303    19.191
ATOM     41  H   UNL d   1       5.829  -4.363  20.571 +0.00 -0.05    +0.222    19.191
ATOM     42  O   UNL d   1       3.383  -2.375  17.709 -0.12 +0.12    -0.278    19.191
ATOM     43  P   UNL d   1       2.144  -1.379  17.841 -0.17 -0.24    +0.473    19.191
ATOM     44  O   UNL d   1       2.170  -0.138  17.017 -0.77 +0.07    -0.228    19.191
ATOM     45  O   UNL d   1       0.901  -2.328  17.548 -0.64 +0.34    -0.303    19.191
ATOM     46  H   UNL d   1       1.101  -3.259  17.770 +0.00 -0.23    +0.222    19.191
ATOM     47  O   UNL d   1       2.019  -1.157  19.423 -0.04 +0.12    -0.303    19.191
ATOM     48  H   UNL d   1       2.540  -0.368  19.680 +0.04 -0.07    +0.222    19.191
TER
ENDMDL
MODEL       28
USER    Run = 28
USER    Cluster Rank = 63
USER    Number of conformations in this cluster = 1
USER  
USER    RMSD from reference structure       = 23.542 A
USER  
USER    Estimated Free Energy of Binding    =   +3.18 kcal/mol  [=(1)+(2)+(3)-(4)]
USER    
USER    (1) Final Intermolecular Energy     =   -3.98 kcal/mol
USER        vdW + Hbond + desolv Energy     =   -3.39 kcal/mol
USER        Electrostatic Energy            =   -0.59 kcal/mol
USER    (2) Final Total Internal Energy     =  -11.91 kcal/mol
USER    (3) Torsional Free Energy           =   +7.16 kcal/mol
USER    (4) Unbound System's Energy  [=(2)] =  -11.91 kcal/mol
USER    
USER    
USER  
USER    DPF = D:/Protein_go_brrr/autodock/final/AncMH_nat/IHP/dock.dpf
USER    NEWDPF move	IHP_ideal_opt.pdbqt
USER    NEWDPF about	0.035000 0.082000 -0.065000
USER    NEWDPF tran0	-11.126895 -14.355113 19.551964
USER    NEWDPF axisangle0	-0.992761 0.097982 0.069460 -134.444827
USER    NEWDPF quaternion0	-0.915340 0.090341 0.064043 -0.387155
USER    NEWDPF dihe0	94.94 -87.11 115.15 6.28 -138.03 56.95 -125.50 15.53 -12.88 -161.83 -5.08 91.62 -50.01 57.38 124.57 70.91 -91.53 -93.02 55.54 0.20 142.83 148.17 -167.08 -175.16 
USER  
USER                              x       y       z    vdW   Elec        q     RMS 
ATOM      1  C   UNL d   1      -9.751 -13.323  19.389 -0.01 +0.00    +0.194    23.542
ATOM      2  C   UNL d   1     -10.778 -12.895  20.439 -0.00 -0.00    +0.194    23.542
ATOM      3  C   UNL d   1     -12.211 -13.045  19.923 -0.01 -0.00    +0.194    23.542
ATOM      4  C   UNL d   1     -12.506 -14.433  19.361 -0.03 -0.02    +0.194    23.542
ATOM      5  C   UNL d   1     -11.446 -14.949  18.396 -0.07 -0.03    +0.194    23.542
ATOM      6  C   UNL d   1     -10.010 -14.743  18.884 -0.03 -0.01    +0.194    23.542
ATOM      7  O   UNL d   1      -8.459 -13.318  20.001 -0.00 -0.00    -0.278    23.542
ATOM      8  P   UNL d   1      -7.838 -11.917  20.452 +0.01 -0.00    +0.473    23.542
ATOM      9  O   UNL d   1      -8.710 -10.734  20.214 -0.01 -0.00    -0.228    23.542
ATOM     10  O   UNL d   1      -7.477 -12.131  21.991 -0.00 +0.01    -0.303    23.542
ATOM     11  H   UNL d   1      -8.293 -12.305  22.497 +0.00 -0.01    +0.222    23.542
ATOM     12  O   UNL d   1      -6.401 -11.866  19.777 -0.02 +0.00    -0.303    23.542
ATOM     13  H   UNL d   1      -5.691 -11.597  20.402 +0.03 -0.01    +0.222    23.542
ATOM     14  O   UNL d   1     -10.624 -13.713  21.605 +0.00 +0.01    -0.278    23.542
ATOM     15  P   UNL d   1     -10.560 -12.951  23.011 +0.00 -0.01    +0.473    23.542
ATOM     16  O   UNL d   1     -11.706 -13.172  23.948 +0.00 +0.01    -0.228    23.542
ATOM     17  O   UNL d   1      -9.161 -13.397  23.630 +0.00 +0.01    -0.303    23.542
ATOM     18  H   UNL d   1      -8.565 -13.742  22.939 +0.00 -0.01    +0.222    23.542
ATOM     19  O   UNL d   1     -10.270 -11.435  22.628 +0.00 +0.00    -0.303    23.542
ATOM     20  H   UNL d   1      -9.486 -11.351  22.054 +0.00 -0.00    +0.222    23.542
ATOM     21  O   UNL d   1      -9.159 -14.949  17.759 -0.08 +0.01    -0.278    23.542
ATOM     22  P   UNL d   1      -9.585 -14.383  16.329 -0.18 +0.06    +0.473    23.542
ATOM     23  O   UNL d   1      -8.510 -14.090  15.338 -0.50 -0.21    -0.228    23.542
ATOM     24  O   UNL d   1     -10.652 -15.466  15.856 -0.26 +0.10    -0.303    23.542
ATOM     25  H   UNL d   1     -11.254 -15.037  15.196 -0.50 -0.12    +0.222    23.542
ATOM     26  O   UNL d   1     -10.524 -13.149  16.734 -0.10 -0.02    -0.303    23.542
ATOM     27  H   UNL d   1     -11.431 -13.313  16.406 -0.40 -0.09    +0.222    23.542
ATOM     28  O   UNL d   1     -13.084 -12.896  21.036 -0.00 +0.00    -0.278    23.542
ATOM     29  P   UNL d   1     -13.730 -14.176  21.729 +0.00 -0.02    +0.473    23.542
ATOM     30  O   UNL d   1     -12.800 -15.307  21.978 +0.00 +0.01    -0.228    23.542
ATOM     31  O   UNL d   1     -14.400 -13.491  23.011 +0.00 +0.01    -0.303    23.542
ATOM     32  H   UNL d   1     -13.687 -13.255  23.649 +0.00 -0.00    +0.222    23.542
ATOM     33  O   UNL d   1     -14.983 -14.467  20.791 -0.00 +0.03    -0.303    23.542
ATOM     34  H   UNL d   1     -14.665 -14.868  19.946 +0.02 -0.03    +0.222    23.542
ATOM     35  O   UNL d   1     -11.660 -16.356  18.303 -0.04 +0.05    -0.278    23.542
ATOM     36  P   UNL d   1     -12.114 -17.188  19.586 +0.01 -0.06    +0.473    23.542
ATOM     37  O   UNL d   1     -11.343 -16.914  20.838 -0.00 +0.02    -0.228    23.542
ATOM     38  O   UNL d   1     -13.662 -16.825  19.678 -0.00 +0.05    -0.303    23.542
ATOM     39  H   UNL d   1     -13.763 -15.966  20.142 +0.02 -0.03    +0.222    23.542
ATOM     40  O   UNL d   1     -12.103 -18.683  19.044 -0.00 +0.04    -0.303    23.542
ATOM     41  H   UNL d   1     -11.998 -19.334  19.773 +0.01 -0.02    +0.222    23.542
ATOM     42  O   UNL d   1     -13.730 -14.332  18.627 -0.05 +0.07    -0.278    23.542
ATOM     43  P   UNL d   1     -13.723 -13.595  17.212 -0.10 -0.19    +0.473    23.542
ATOM     44  O   UNL d   1     -13.035 -12.276  17.129 -0.22 +0.01    -0.228    23.542
ATOM     45  O   UNL d   1     -13.123 -14.705  16.243 -0.01 +0.22    -0.303    23.542
ATOM     46  H   UNL d   1     -12.151 -14.770  16.332 -0.28 -0.12    +0.222    23.542
ATOM     47  O   UNL d   1     -15.269 -13.596  16.791 -0.14 +0.28    -0.303    23.542
ATOM     48  H   UNL d   1     -15.467 -14.414  16.290 -0.43 -0.55    +0.222    23.542
TER
ENDMDL
MODEL       87
USER    Run = 87
USER    Cluster Rank = 64
USER    Number of conformations in this cluster = 1
USER  
USER    RMSD from reference structure       = 19.134 A
USER  
USER    Estimated Free Energy of Binding    =   +3.20 kcal/mol  [=(1)+(2)+(3)-(4)]
USER    
USER    (1) Final Intermolecular Energy     =   -3.96 kcal/mol
USER        vdW + Hbond + desolv Energy     =   -3.67 kcal/mol
USER        Electrostatic Energy            =   -0.29 kcal/mol
USER    (2) Final Total Internal Energy     =  -14.12 kcal/mol
USER    (3) Torsional Free Energy           =   +7.16 kcal/mol
USER    (4) Unbound System's Energy  [=(2)] =  -14.12 kcal/mol
USER    
USER    
USER  
USER    DPF = D:/Protein_go_brrr/autodock/final/AncMH_nat/IHP/dock.dpf
USER    NEWDPF move	IHP_ideal_opt.pdbqt
USER    NEWDPF about	0.035000 0.082000 -0.065000
USER    NEWDPF tran0	2.218791 -8.094854 20.021402
USER    NEWDPF axisangle0	-0.015273 -0.711838 -0.702178 92.055736
USER    NEWDPF quaternion0	-0.010992 -0.512294 -0.505342 0.694308
USER    NEWDPF dihe0	138.24 31.00 47.92 25.59 134.17 -84.95 -57.03 23.08 171.38 -50.45 -180.00 81.50 -42.29 -176.57 122.17 -172.26 -171.85 176.27 37.67 -28.18 -39.38 -27.62 28.55 36.10 
USER  
USER                              x       y       z    vdW   Elec        q     RMS 
ATOM      1  C   UNL d   1       3.359  -7.238  19.046 -0.07 -0.08    +0.194    19.134
ATOM      2  C   UNL d   1       3.692  -8.707  19.316 -0.04 -0.05    +0.194    19.134
ATOM      3  C   UNL d   1       3.434  -9.087  20.776 -0.01 -0.04    +0.194    19.134
ATOM      4  C   UNL d   1       2.033  -8.715  21.256 -0.02 -0.04    +0.194    19.134
ATOM      5  C   UNL d   1       1.615  -7.292  20.906 -0.03 -0.06    +0.194    19.134
ATOM      6  C   UNL d   1       1.929  -6.892  19.463 -0.11 -0.09    +0.194    19.134
ATOM      7  O   UNL d   1       3.459  -7.010  17.639 -0.11 +0.17    -0.278    19.134
ATOM      8  P   UNL d   1       4.896  -6.675  17.025 -0.08 -0.20    +0.473    19.134
ATOM      9  O   UNL d   1       6.038  -6.847  17.962 -0.02 +0.06    -0.228    19.134
ATOM     10  O   UNL d   1       4.994  -7.611  15.737 -0.17 +0.14    -0.303    19.134
ATOM     11  H   UNL d   1       4.350  -8.340  15.813 +0.01 -0.10    +0.222    19.134
ATOM     12  O   UNL d   1       4.741  -5.232  16.376 -0.15 +0.15    -0.303    19.134
ATOM     13  H   UNL d   1       3.803  -4.952  16.280 +0.03 -0.14    +0.222    19.134
ATOM     14  O   UNL d   1       2.874  -9.533  18.478 -0.08 +0.09    -0.278    19.134
ATOM     15  P   UNL d   1       3.585 -10.177  17.196 -0.11 -0.16    +0.473    19.134
ATOM     16  O   UNL d   1       3.000  -9.837  15.861 -0.23 +0.10    -0.228    19.134
ATOM     17  O   UNL d   1       5.109  -9.734  17.334 -0.03 +0.08    -0.303    19.134
ATOM     18  H   UNL d   1       5.181  -8.780  17.528 +0.04 -0.07    +0.222    19.134
ATOM     19  O   UNL d   1       3.672 -11.730  17.530 -0.04 +0.07    -0.303    19.134
ATOM     20  H   UNL d   1       3.814 -11.887  18.482 +0.03 -0.04    +0.222    19.134
ATOM     21  O   UNL d   1       1.805  -5.473  19.393 -0.09 +0.16    -0.278    19.134
ATOM     22  P   UNL d   1       1.169  -4.797  18.096 -0.20 -0.48    +0.473    19.134
ATOM     23  O   UNL d   1       0.482  -3.482  18.251 -0.48 +0.34    -0.228    19.134
ATOM     24  O   UNL d   1       2.404  -4.790  17.093 -0.24 +0.24    -0.303    19.134
ATOM     25  H   UNL d   1       2.609  -5.729  16.850 -0.40 -0.24    +0.222    19.134
ATOM     26  O   UNL d   1       0.274  -5.992  17.511 -0.26 +0.42    -0.303    19.134
ATOM     27  H   UNL d   1      -0.662  -5.843  17.756 -0.46 -0.53    +0.222    19.134
ATOM     28  O   UNL d   1       3.500 -10.504  20.868 -0.00 +0.05    -0.278    19.134
ATOM     29  P   UNL d   1       4.907 -11.236  21.012 +0.00 -0.07    +0.473    19.134
ATOM     30  O   UNL d   1       4.854 -12.633  21.515 +0.00 +0.03    -0.228    19.134
ATOM     31  O   UNL d   1       5.489 -11.016  19.538 -0.00 +0.05    -0.303    19.134
ATOM     32  H   UNL d   1       4.792 -10.593  18.985 +0.02 -0.04    +0.222    19.134
ATOM     33  O   UNL d   1       5.740 -10.191  21.878 -0.00 +0.04    -0.303    19.134
ATOM     34  H   UNL d   1       5.514 -10.313  22.833 +0.00 -0.03    +0.222    19.134
ATOM     35  O   UNL d   1       0.197  -7.260  21.052 -0.05 +0.10    -0.278    19.134
ATOM     36  P   UNL d   1      -0.559  -5.870  21.260 -0.05 -0.23    +0.473    19.134
ATOM     37  O   UNL d   1      -1.476  -5.805  22.439 -0.03 +0.07    -0.228    19.134
ATOM     38  O   UNL d   1       0.657  -4.844  21.319 -0.02 +0.13    -0.303    19.134
ATOM     39  H   UNL d   1       0.737  -4.390  20.452 +0.06 -0.13    +0.222    19.134
ATOM     40  O   UNL d   1      -1.205  -5.617  19.828 -0.11 +0.38    -0.303    19.134
ATOM     41  H   UNL d   1      -0.614  -5.083  19.252 -0.13 -0.36    +0.222    19.134
ATOM     42  O   UNL d   1       2.046  -8.811  22.685 -0.00 +0.05    -0.278    19.134
ATOM     43  P   UNL d   1       2.027 -10.255  23.361 -0.00 -0.06    +0.473    19.134
ATOM     44  O   UNL d   1       1.151 -10.445  24.550 -0.00 +0.02    -0.228    19.134
ATOM     45  O   UNL d   1       1.678 -11.209  22.136 -0.00 +0.04    -0.303    19.134
ATOM     46  H   UNL d   1       2.459 -11.725  21.851 +0.00 -0.03    +0.222    19.134
ATOM     47  O   UNL d   1       3.582 -10.573  23.589 +0.00 +0.04    -0.303    19.134
ATOM     48  H   UNL d   1       3.900 -11.159  22.871 +0.00 -0.03    +0.222    19.134
TER
ENDMDL
MODEL       81
USER    Run = 81
USER    Cluster Rank = 65
USER    Number of conformations in this cluster = 1
USER  
USER    RMSD from reference structure       = 17.156 A
USER  
USER    Estimated Free Energy of Binding    =   +3.31 kcal/mol  [=(1)+(2)+(3)-(4)]
USER    
USER    (1) Final Intermolecular Energy     =   -3.85 kcal/mol
USER        vdW + Hbond + desolv Energy     =   -3.74 kcal/mol
USER        Electrostatic Energy            =   -0.11 kcal/mol
USER    (2) Final Total Internal Energy     =  -14.11 kcal/mol
USER    (3) Torsional Free Energy           =   +7.16 kcal/mol
USER    (4) Unbound System's Energy  [=(2)] =  -14.11 kcal/mol
USER    
USER    
USER  
USER    DPF = D:/Protein_go_brrr/autodock/final/AncMH_nat/IHP/dock.dpf
USER    NEWDPF move	IHP_ideal_opt.pdbqt
USER    NEWDPF about	0.035000 0.082000 -0.065000
USER    NEWDPF tran0	15.862420 0.445976 -12.528414
USER    NEWDPF axisangle0	0.199661 0.979727 -0.016460 164.539103
USER    NEWDPF quaternion0	0.197847 0.970823 -0.016310 0.134513
USER    NEWDPF dihe0	113.26 155.02 -131.76 3.66 121.84 87.01 -27.98 -88.03 -3.38 27.67 65.28 96.71 -77.55 -175.80 180.00 -51.70 166.46 -180.00 -148.17 -18.30 14.49 -28.13 -175.67 27.28 
USER  
USER                              x       y       z    vdW   Elec        q     RMS 
ATOM      1  C   UNL d   1      14.204   0.132 -12.896 -0.07 -0.13    +0.194    17.156
ATOM      2  C   UNL d   1      15.102  -1.102 -12.790 -0.03 -0.07    +0.194    17.156
ATOM      3  C   UNL d   1      16.447  -0.884 -13.487 +0.00 -0.06    +0.194    17.156
ATOM      4  C   UNL d   1      17.159   0.389 -13.036 +0.00 -0.07    +0.194    17.156
ATOM      5  C   UNL d   1      16.268   1.624 -13.017 -0.01 -0.11    +0.194    17.156
ATOM      6  C   UNL d   1      14.899   1.390 -12.375 -0.06 -0.15    +0.194    17.156
ATOM      7  O   UNL d   1      13.050  -0.086 -12.081 -0.14 +0.20    -0.278    17.156
ATOM      8  P   UNL d   1      13.108   0.361 -10.548 -0.12 -0.28    +0.473    17.156
ATOM      9  O   UNL d   1      14.471   0.398  -9.953 -0.17 +0.12    -0.228    17.156
ATOM     10  O   UNL d   1      12.376   1.779 -10.530 -0.19 +0.32    -0.303    17.156
ATOM     11  H   UNL d   1      12.692   2.318 -11.279 -0.43 -0.41    +0.222    17.156
ATOM     12  O   UNL d   1      12.052  -0.567  -9.807 -0.32 +0.09    -0.303    17.156
ATOM     13  H   UNL d   1      12.471  -1.232  -9.216 -0.36 -0.08    +0.222    17.156
ATOM     14  O   UNL d   1      15.346  -1.385 -11.406 -0.06 +0.09    -0.278    17.156
ATOM     15  P   UNL d   1      14.721  -2.744 -10.833 -0.13 -0.13    +0.473    17.156
ATOM     16  O   UNL d   1      13.753  -2.613  -9.700 -0.19 +0.02    -0.228    17.156
ATOM     17  O   UNL d   1      14.083  -3.447 -12.113 -0.38 -0.07    -0.303    17.156
ATOM     18  H   UNL d   1      14.338  -4.388 -12.161 -0.26 -0.06    +0.222    17.156
ATOM     19  O   UNL d   1      15.982  -3.673 -10.554 -0.20 +0.21    -0.303    17.156
ATOM     20  H   UNL d   1      16.528  -3.789 -11.354 +0.04 -0.11    +0.222    17.156
ATOM     21  O   UNL d   1      14.080   2.500 -12.735 -0.06 +0.41    -0.278    17.156
ATOM     22  P   UNL d   1      14.081   3.812 -11.827 -0.12 -0.55    +0.473    17.156
ATOM     23  O   UNL d   1      12.833   4.628 -11.767 -0.38 +0.33    -0.228    17.156
ATOM     24  O   UNL d   1      14.571   3.238 -10.426 -0.11 +0.22    -0.303    17.156
ATOM     25  H   UNL d   1      15.439   2.781 -10.567 +0.09 -0.14    +0.222    17.156
ATOM     26  O   UNL d   1      15.392   4.571 -12.352 -0.06 +0.26    -0.303    17.156
ATOM     27  H   UNL d   1      16.171   4.249 -11.854 +0.06 -0.15    +0.222    17.156
ATOM     28  O   UNL d   1      17.305  -1.952 -13.104 -0.00 +0.08    -0.278    17.156
ATOM     29  P   UNL d   1      17.225  -3.356 -13.853 +0.02 -0.12    +0.473    17.156
ATOM     30  O   UNL d   1      16.090  -4.228 -13.458 -0.03 +0.06    -0.228    17.156
ATOM     31  O   UNL d   1      17.268  -2.863 -15.375 +0.00 +0.06    -0.303    17.156
ATOM     32  H   UNL d   1      17.698  -1.978 -15.406 +0.00 -0.05    +0.222    17.156
ATOM     33  O   UNL d   1      18.691  -3.937 -13.630 +0.00 +0.07    -0.303    17.156
ATOM     34  H   UNL d   1      19.326  -3.184 -13.551 +0.01 -0.05    +0.222    17.156
ATOM     35  O   UNL d   1      16.952   2.582 -12.210 -0.01 +0.14    -0.278    17.156
ATOM     36  P   UNL d   1      17.604   2.145 -10.822 -0.01 -0.23    +0.473    17.156
ATOM     37  O   UNL d   1      17.642   3.204  -9.766 -0.10 +0.14    -0.228    17.156
ATOM     38  O   UNL d   1      16.731   0.869 -10.438 -0.06 +0.14    -0.303    17.156
ATOM     39  H   UNL d   1      15.841   1.165 -10.149 +0.09 -0.12    +0.222    17.156
ATOM     40  O   UNL d   1      18.998   1.531 -11.279 -0.01 +0.12    -0.303    17.156
ATOM     41  H   UNL d   1      19.023   1.365 -12.248 +0.01 -0.08    +0.222    17.156
ATOM     42  O   UNL d   1      18.203   0.638 -13.984 +0.00 +0.09    -0.278    17.156
ATOM     43  P   UNL d   1      19.600  -0.111 -13.807 -0.00 -0.12    +0.473    17.156
ATOM     44  O   UNL d   1      20.839   0.704 -13.950 -0.00 +0.05    -0.228    17.156
ATOM     45  O   UNL d   1      19.443  -0.812 -12.387 -0.00 +0.08    -0.303    17.156
ATOM     46  H   UNL d   1      18.625  -0.525 -11.935 +0.02 -0.07    +0.222    17.156
ATOM     47  O   UNL d   1      19.475  -1.361 -14.803 +0.00 +0.07    -0.303    17.156
ATOM     48  H   UNL d   1      19.008  -2.091 -14.346 +0.00 -0.05    +0.222    17.156
TER
ENDMDL
MODEL       16
USER    Run = 16
USER    Cluster Rank = 66
USER    Number of conformations in this cluster = 2
USER  
USER    RMSD from reference structure       = 14.315 A
USER  
USER    Estimated Free Energy of Binding    =   +3.38 kcal/mol  [=(1)+(2)+(3)-(4)]
USER    
USER    (1) Final Intermolecular Energy     =   -3.78 kcal/mol
USER        vdW + Hbond + desolv Energy     =   -3.63 kcal/mol
USER        Electrostatic Energy            =   -0.15 kcal/mol
USER    (2) Final Total Internal Energy     =  -13.03 kcal/mol
USER    (3) Torsional Free Energy           =   +7.16 kcal/mol
USER    (4) Unbound System's Energy  [=(2)] =  -13.03 kcal/mol
USER    
USER    
USER  
USER    DPF = D:/Protein_go_brrr/autodock/final/AncMH_nat/IHP/dock.dpf
USER    NEWDPF move	IHP_ideal_opt.pdbqt
USER    NEWDPF about	0.035000 0.082000 -0.065000
USER    NEWDPF tran0	-1.770840 -6.581867 -15.376476
USER    NEWDPF axisangle0	0.139084 0.972731 -0.185609 -168.389543
USER    NEWDPF quaternion0	0.138371 0.967742 -0.184657 -0.101147
USER    NEWDPF dihe0	80.65 50.47 6.55 44.56 66.70 -155.36 -54.96 82.88 14.98 71.20 139.67 123.96 -179.99 -178.26 -34.66 -180.00 -179.81 55.61 -14.95 -45.82 -21.53 -30.78 -29.12 -10.20 
USER  
USER                              x       y       z    vdW   Elec        q     RMS 
ATOM      1  C   UNL d   1      -3.107  -7.391 -16.114 -0.05 -0.01    +0.194    14.315
ATOM      2  C   UNL d   1      -2.231  -8.255 -15.205 -0.11 -0.02    +0.194    14.315
ATOM      3  C   UNL d   1      -0.742  -7.985 -15.430 -0.13 -0.02    +0.194    14.315
ATOM      4  C   UNL d   1      -0.379  -6.504 -15.343 -0.19 -0.01    +0.194    14.315
ATOM      5  C   UNL d   1      -1.299  -5.592 -16.145 -0.11 -0.01    +0.194    14.315
ATOM      6  C   UNL d   1      -2.787  -5.903 -15.968 -0.10 -0.00    +0.194    14.315
ATOM      7  O   UNL d   1      -4.470  -7.575 -15.725 -0.03 +0.00    -0.278    14.315
ATOM      8  P   UNL d   1      -5.572  -7.735 -16.871 +0.00 -0.00    +0.473    14.315
ATOM      9  O   UNL d   1      -6.745  -6.828 -16.750 -0.01 -0.00    -0.228    14.315
ATOM     10  O   UNL d   1      -4.754  -7.526 -18.225 -0.00 +0.01    -0.303    14.315
ATOM     11  H   UNL d   1      -4.581  -6.576 -18.360 +0.01 -0.01    +0.222    14.315
ATOM     12  O   UNL d   1      -5.898  -9.289 -16.916 +0.00 +0.00    -0.303    14.315
ATOM     13  H   UNL d   1      -5.444  -9.799 -16.208 +0.01 -0.00    +0.222    14.315
ATOM     14  O   UNL d   1      -2.547  -7.963 -13.838 -0.20 +0.04    -0.278    14.315
ATOM     15  P   UNL d   1      -3.773  -8.770 -13.199 -0.10 -0.05    +0.473    14.315
ATOM     16  O   UNL d   1      -4.896  -7.954 -12.639 -0.11 -0.00    -0.228    14.315
ATOM     17  O   UNL d   1      -4.243  -9.749 -14.365 -0.02 +0.02    -0.303    14.315
ATOM     18  H   UNL d   1      -4.915  -9.323 -14.932 +0.03 -0.00    +0.222    14.315
ATOM     19  O   UNL d   1      -3.092  -9.788 -12.183 -0.11 +0.09    -0.303    14.315
ATOM     20  H   UNL d   1      -2.134  -9.869 -12.342 -0.36 -0.16    +0.222    14.315
ATOM     21  O   UNL d   1      -3.478  -5.222 -17.013 -0.05 +0.00    -0.278    14.315
ATOM     22  P   UNL d   1      -4.645  -4.196 -16.653 -0.08 +0.02    +0.473    14.315
ATOM     23  O   UNL d   1      -5.046  -4.058 -15.223 -0.46 -0.08    -0.228    14.315
ATOM     24  O   UNL d   1      -4.120  -2.855 -17.331 -0.04 +0.00    -0.303    14.315
ATOM     25  H   UNL d   1      -3.254  -3.051 -17.771 +0.02 -0.01    +0.222    14.315
ATOM     26  O   UNL d   1      -5.801  -4.649 -17.667 -0.01 -0.00    -0.303    14.315
ATOM     27  H   UNL d   1      -5.722  -5.610 -17.836 +0.01 -0.00    +0.222    14.315
ATOM     28  O   UNL d   1      -0.028  -8.610 -14.370 -0.11 +0.03    -0.278    14.315
ATOM     29  P   UNL d   1       0.262 -10.176 -14.410 -0.03 -0.09    +0.473    14.315
ATOM     30  O   UNL d   1       1.455 -10.626 -13.649 -0.14 +0.04    -0.228    14.315
ATOM     31  O   UNL d   1      -1.159 -10.735 -13.930 -0.11 +0.10    -0.303    14.315
ATOM     32  H   UNL d   1      -1.740  -9.970 -13.711 -0.20 -0.08    +0.222    14.315
ATOM     33  O   UNL d   1       0.248 -10.478 -15.973 -0.03 +0.03    -0.303    14.315
ATOM     34  H   UNL d   1       0.950 -11.145 -16.178 +0.02 -0.02    +0.222    14.315
ATOM     35  O   UNL d   1      -1.081  -4.278 -15.636 -0.12 +0.01    -0.278    14.315
ATOM     36  P   UNL d   1      -0.162  -3.248 -16.434 -0.05 -0.03    +0.473    14.315
ATOM     37  O   UNL d   1       0.815  -2.478 -15.604 -0.11 +0.02    -0.228    14.315
ATOM     38  O   UNL d   1       0.508  -4.190 -17.529 -0.02 +0.02    -0.303    14.315
ATOM     39  H   UNL d   1       0.953  -4.940 -17.078 +0.04 -0.02    +0.222    14.315
ATOM     40  O   UNL d   1      -1.232  -2.406 -17.258 -0.03 +0.02    -0.303    14.315
ATOM     41  H   UNL d   1      -2.094  -2.354 -16.788 +0.03 -0.01    +0.222    14.315
ATOM     42  O   UNL d   1       0.935  -6.366 -15.894 -0.09 +0.02    -0.278    14.315
ATOM     43  P   UNL d   1       2.093  -5.756 -14.983 -0.13 -0.07    +0.473    14.315
ATOM     44  O   UNL d   1       3.059  -6.710 -14.371 -0.11 +0.03    -0.228    14.315
ATOM     45  O   UNL d   1       2.762  -4.678 -15.943 -0.08 +0.04    -0.303    14.315
ATOM     46  H   UNL d   1       2.149  -3.941 -16.136 +0.06 -0.02    +0.222    14.315
ATOM     47  O   UNL d   1       1.295  -4.823 -13.952 -0.32 +0.07    -0.303    14.315
ATOM     48  H   UNL d   1       0.770  -4.165 -14.452 +0.08 -0.03    +0.222    14.315
TER
ENDMDL
MODEL       66
USER    Run = 66
USER    Cluster Rank = 67
USER    Number of conformations in this cluster = 1
USER  
USER    RMSD from reference structure       = 14.471 A
USER  
USER    Estimated Free Energy of Binding    =   +3.41 kcal/mol  [=(1)+(2)+(3)-(4)]
USER    
USER    (1) Final Intermolecular Energy     =   -3.75 kcal/mol
USER        vdW + Hbond + desolv Energy     =   -3.31 kcal/mol
USER        Electrostatic Energy            =   -0.44 kcal/mol
USER    (2) Final Total Internal Energy     =  -14.00 kcal/mol
USER    (3) Torsional Free Energy           =   +7.16 kcal/mol
USER    (4) Unbound System's Energy  [=(2)] =  -14.00 kcal/mol
USER    
USER    
USER  
USER    DPF = D:/Protein_go_brrr/autodock/final/AncMH_nat/IHP/dock.dpf
USER    NEWDPF move	IHP_ideal_opt.pdbqt
USER    NEWDPF about	0.035000 0.082000 -0.065000
USER    NEWDPF tran0	-3.409224 -16.013347 -6.059633
USER    NEWDPF axisangle0	-0.069965 -0.857688 0.509388 -138.444714
USER    NEWDPF quaternion0	-0.065415 -0.801907 0.476260 -0.354742
USER    NEWDPF dihe0	106.75 105.82 105.71 1.77 98.17 -141.25 -70.76 -6.72 133.12 19.55 39.88 -145.82 -71.22 40.34 -6.24 119.50 114.43 -50.64 -148.96 -22.82 139.04 36.54 -37.59 167.36 
USER  
USER                              x       y       z    vdW   Elec        q     RMS 
ATOM      1  C   UNL d   1      -4.629 -16.504  -4.938 -0.12 +0.06    +0.194    14.471
ATOM      2  C   UNL d   1      -3.285 -17.224  -4.811 -0.07 +0.02    +0.194    14.471
ATOM      3  C   UNL d   1      -2.714 -17.605  -6.178 -0.03 -0.02    +0.194    14.471
ATOM      4  C   UNL d   1      -2.649 -16.430  -7.151 -0.06 -0.05    +0.194    14.471
ATOM      5  C   UNL d   1      -3.933 -15.614  -7.225 -0.06 -0.04    +0.194    14.471
ATOM      6  C   UNL d   1      -4.537 -15.285  -5.858 -0.16 -0.03    +0.194    14.471
ATOM      7  O   UNL d   1      -5.007 -16.032  -3.643 -0.22 -0.23    -0.278    14.471
ATOM      8  P   UNL d   1      -4.505 -14.586  -3.185 -0.25 +0.09    +0.473    14.471
ATOM      9  O   UNL d   1      -3.337 -14.056  -3.939 -0.21 -0.00    -0.228    14.471
ATOM     10  O   UNL d   1      -5.804 -13.668  -3.311 -0.25 +0.10    -0.303    14.471
ATOM     11  H   UNL d   1      -6.200 -13.782  -4.195 -0.46 -0.33    +0.222    14.471
ATOM     12  O   UNL d   1      -4.325 -14.692  -1.610 -0.29 -0.10    -0.303    14.471
ATOM     13  H   UNL d   1      -3.663 -15.369  -1.342 +0.12 +0.07    +0.222    14.471
ATOM     14  O   UNL d   1      -2.352 -16.358  -4.151 -0.12 +0.03    -0.278    14.471
ATOM     15  P   UNL d   1      -1.945 -16.753  -2.654 -0.06 +0.02    +0.473    14.471
ATOM     16  O   UNL d   1      -0.684 -17.541  -2.486 -0.07 +0.01    -0.228    14.471
ATOM     17  O   UNL d   1      -1.909 -15.360  -1.882 -0.18 -0.03    -0.303    14.471
ATOM     18  H   UNL d   1      -2.284 -14.644  -2.431 +0.13 +0.03    +0.222    14.471
ATOM     19  O   UNL d   1      -3.256 -17.420  -2.049 -0.11 -0.12    -0.303    14.471
ATOM     20  H   UNL d   1      -4.018 -16.812  -2.083 +0.08 +0.16    +0.222    14.471
ATOM     21  O   UNL d   1      -5.870 -14.838  -6.093 -0.10 +0.19    -0.278    14.471
ATOM     22  P   UNL d   1      -6.739 -15.511  -7.250 -0.03 -0.19    +0.473    14.471
ATOM     23  O   UNL d   1      -6.385 -16.894  -7.682 -0.02 +0.02    -0.228    14.471
ATOM     24  O   UNL d   1      -8.217 -15.347  -6.684 -0.08 +0.21    -0.303    14.471
ATOM     25  H   UNL d   1      -8.253 -14.511  -6.153 -0.48 -0.46    +0.222    14.471
ATOM     26  O   UNL d   1      -6.693 -14.385  -8.389 -0.07 +0.12    -0.303    14.471
ATOM     27  H   UNL d   1      -5.778 -14.050  -8.474 +0.06 -0.07    +0.222    14.471
ATOM     28  O   UNL d   1      -1.365 -18.007  -5.982 -0.03 +0.08    -0.278    14.471
ATOM     29  P   UNL d   1      -0.720 -19.137  -6.901 +0.00 -0.09    +0.473    14.471
ATOM     30  O   UNL d   1       0.016 -18.648  -8.095 -0.01 +0.06    -0.228    14.471
ATOM     31  O   UNL d   1       0.126 -19.940  -5.806 -0.00 +0.05    -0.303    14.471
ATOM     32  H   UNL d   1       0.253 -19.360  -5.020 +0.01 -0.04    +0.222    14.471
ATOM     33  O   UNL d   1      -1.960 -20.101  -7.165 +0.00 +0.02    -0.303    14.471
ATOM     34  H   UNL d   1      -2.717 -19.564  -7.505 +0.01 -0.01    +0.222    14.471
ATOM     35  O   UNL d   1      -3.569 -14.375  -7.832 -0.09 +0.07    -0.278    14.471
ATOM     36  P   UNL d   1      -3.699 -14.184  -9.410 -0.02 -0.10    +0.473    14.471
ATOM     37  O   UNL d   1      -3.777 -12.768  -9.884 -0.10 +0.04    -0.228    14.471
ATOM     38  O   UNL d   1      -2.427 -14.983  -9.940 -0.05 +0.09    -0.303    14.471
ATOM     39  H   UNL d   1      -2.518 -15.929  -9.698 +0.03 -0.05    +0.222    14.471
ATOM     40  O   UNL d   1      -4.923 -15.134  -9.768 -0.00 +0.05    -0.303    14.471
ATOM     41  H   UNL d   1      -5.059 -15.827  -9.084 +0.03 -0.03    +0.222    14.471
ATOM     42  O   UNL d   1      -2.426 -16.983  -8.453 -0.01 +0.06    -0.278    14.471
ATOM     43  P   UNL d   1      -3.451 -18.067  -9.017 +0.01 -0.05    +0.473    14.471
ATOM     44  O   UNL d   1      -4.531 -18.531  -8.102 +0.00 +0.01    -0.228    14.471
ATOM     45  O   UNL d   1      -3.978 -17.387 -10.355 +0.00 +0.03    -0.303    14.471
ATOM     46  H   UNL d   1      -4.021 -16.414 -10.269 +0.01 -0.03    +0.222    14.471
ATOM     47  O   UNL d   1      -2.490 -19.215  -9.591 +0.00 +0.03    -0.303    14.471
ATOM     48  H   UNL d   1      -1.682 -19.265  -9.040 +0.01 -0.03    +0.222    14.471
TER
ENDMDL
MODEL      100
USER    Run = 100
USER    Cluster Rank = 68
USER    Number of conformations in this cluster = 1
USER  
USER    RMSD from reference structure       = 20.022 A
USER  
USER    Estimated Free Energy of Binding    =   +3.42 kcal/mol  [=(1)+(2)+(3)-(4)]
USER    
USER    (1) Final Intermolecular Energy     =   -3.74 kcal/mol
USER        vdW + Hbond + desolv Energy     =   -3.32 kcal/mol
USER        Electrostatic Energy            =   -0.42 kcal/mol
USER    (2) Final Total Internal Energy     =  -15.36 kcal/mol
USER    (3) Torsional Free Energy           =   +7.16 kcal/mol
USER    (4) Unbound System's Energy  [=(2)] =  -15.36 kcal/mol
USER    
USER    
USER  
USER    DPF = D:/Protein_go_brrr/autodock/final/AncMH_nat/IHP/dock.dpf
USER    NEWDPF move	IHP_ideal_opt.pdbqt
USER    NEWDPF about	0.035000 0.082000 -0.065000
USER    NEWDPF tran0	0.938810 -2.377305 21.381439
USER    NEWDPF axisangle0	0.343091 0.704024 -0.621803 173.795676
USER    NEWDPF quaternion0	0.342588 0.702992 -0.620892 0.054116
USER    NEWDPF dihe0	178.75 19.35 149.05 81.45 43.31 -140.32 -146.58 52.17 166.92 1.87 137.21 148.88 36.04 123.62 -13.19 22.14 -170.08 177.05 7.84 -23.36 -29.42 173.43 17.09 -7.45 
USER  
USER                              x       y       z    vdW   Elec        q     RMS 
ATOM      1  C   UNL d   1      -0.777  -2.346  21.575 -0.05 -0.08    +0.194    20.022
ATOM      2  C   UNL d   1       0.022  -2.718  22.825 -0.00 -0.05    +0.194    20.022
ATOM      3  C   UNL d   1       1.158  -3.691  22.503 -0.00 -0.05    +0.194    20.022
ATOM      4  C   UNL d   1       2.056  -3.211  21.365 -0.00 -0.06    +0.194    20.022
ATOM      5  C   UNL d   1       1.295  -2.722  20.138 -0.06 -0.10    +0.194    20.022
ATOM      6  C   UNL d   1       0.121  -1.798  20.466 -0.07 -0.11    +0.194    20.022
ATOM      7  O   UNL d   1      -1.699  -1.311  21.927 -0.02 +0.09    -0.278    20.022
ATOM      8  P   UNL d   1      -3.263  -1.632  21.859 -0.03 -0.14    +0.473    20.022
ATOM      9  O   UNL d   1      -3.841  -2.220  23.097 -0.02 +0.05    -0.228    20.022
ATOM     10  O   UNL d   1      -3.926  -0.238  21.456 -0.02 +0.09    -0.303    20.022
ATOM     11  H   UNL d   1      -3.256   0.335  21.041 +0.04 -0.07    +0.222    20.022
ATOM     12  O   UNL d   1      -3.452  -2.485  20.532 -0.05 +0.14    -0.303    20.022
ATOM     13  H   UNL d   1      -2.757  -2.309  19.858 +0.08 -0.16    +0.222    20.022
ATOM     14  O   UNL d   1       0.587  -1.528  23.389 +0.00 +0.06    -0.278    20.022
ATOM     15  P   UNL d   1      -0.058  -1.009  24.760 +0.00 -0.07    +0.473    20.022
ATOM     16  O   UNL d   1       0.543   0.222  25.363 +0.00 +0.03    -0.228    20.022
ATOM     17  O   UNL d   1      -1.605  -0.837  24.420 -0.00 +0.05    -0.303    20.022
ATOM     18  H   UNL d   1      -1.974  -1.657  24.039 +0.01 -0.04    +0.222    20.022
ATOM     19  O   UNL d   1      -0.079  -2.293  25.700 +0.00 +0.04    -0.303    20.022
ATOM     20  H   UNL d   1       0.570  -2.961  25.411 +0.00 -0.03    +0.222    20.022
ATOM     21  O   UNL d   1      -0.676  -1.711  19.287 -0.14 +0.29    -0.278    20.022
ATOM     22  P   UNL d   1      -1.150  -0.283  18.755 -0.10 -0.36    +0.473    20.022
ATOM     23  O   UNL d   1      -0.445   0.928  19.265 -0.14 +0.10    -0.228    20.022
ATOM     24  O   UNL d   1      -1.077  -0.483  17.178 -0.23 +0.37    -0.303    20.022
ATOM     25  H   UNL d   1      -0.446  -1.223  16.989 -0.36 -0.40    +0.222    20.022
ATOM     26  O   UNL d   1      -2.729  -0.343  19.024 -0.12 +0.19    -0.303    20.022
ATOM     27  H   UNL d   1      -2.889  -0.696  19.923 +0.06 -0.11    +0.222    20.022
ATOM     28  O   UNL d   1       2.001  -3.759  23.645 +0.00 +0.05    -0.278    20.022
ATOM     29  P   UNL d   1       3.010  -2.571  23.973 +0.00 -0.08    +0.473    20.022
ATOM     30  O   UNL d   1       3.055  -1.475  22.971 +0.00 +0.04    -0.228    20.022
ATOM     31  O   UNL d   1       2.520  -2.187  25.447 +0.00 +0.04    -0.303    20.022
ATOM     32  H   UNL d   1       1.877  -1.444  25.381 +0.00 -0.03    +0.222    20.022
ATOM     33  O   UNL d   1       4.370  -3.353  24.246 +0.00 +0.04    -0.303    20.022
ATOM     34  H   UNL d   1       5.006  -3.156  23.515 +0.00 -0.03    +0.222    20.022
ATOM     35  O   UNL d   1       2.232  -1.959  19.381 -0.04 +0.12    -0.278    20.022
ATOM     36  P   UNL d   1       2.141  -1.923  17.789 -0.14 -0.27    +0.473    20.022
ATOM     37  O   UNL d   1       3.393  -2.301  17.063 -0.13 +0.10    -0.228    20.022
ATOM     38  O   UNL d   1       0.906  -2.889  17.511 -0.74 +0.36    -0.303    20.022
ATOM     39  H   UNL d   1       0.095  -2.348  17.396 -0.34 -0.50    +0.222    20.022
ATOM     40  O   UNL d   1       1.559  -0.469  17.515 -0.80 +0.13    -0.303    20.022
ATOM     41  H   UNL d   1       0.867  -0.224  18.169 +0.07 -0.11    +0.222    20.022
ATOM     42  O   UNL d   1       2.839  -4.336  20.953 -0.00 +0.09    -0.278    20.022
ATOM     43  P   UNL d   1       4.427  -4.258  21.082 +0.01 -0.11    +0.473    20.022
ATOM     44  O   UNL d   1       5.235  -4.783  19.945 -0.00 +0.06    -0.228    20.022
ATOM     45  O   UNL d   1       4.676  -2.720  21.402 +0.00 +0.06    -0.303    20.022
ATOM     46  H   UNL d   1       4.284  -2.465  22.261 +0.00 -0.04    +0.222    20.022
ATOM     47  O   UNL d   1       4.713  -4.938  22.505 +0.00 +0.05    -0.303    20.022
ATOM     48  H   UNL d   1       3.963  -4.752  23.108 +0.00 -0.04    +0.222    20.022
TER
ENDMDL
MODEL       89
USER    Run = 89
USER    Cluster Rank = 69
USER    Number of conformations in this cluster = 1
USER  
USER    RMSD from reference structure       = 20.370 A
USER  
USER    Estimated Free Energy of Binding    =   +3.43 kcal/mol  [=(1)+(2)+(3)-(4)]
USER    
USER    (1) Final Intermolecular Energy     =   -3.73 kcal/mol
USER        vdW + Hbond + desolv Energy     =   -3.05 kcal/mol
USER        Electrostatic Energy            =   -0.68 kcal/mol
USER    (2) Final Total Internal Energy     =  -14.71 kcal/mol
USER    (3) Torsional Free Energy           =   +7.16 kcal/mol
USER    (4) Unbound System's Energy  [=(2)] =  -14.71 kcal/mol
USER    
USER    
USER  
USER    DPF = D:/Protein_go_brrr/autodock/final/AncMH_nat/IHP/dock.dpf
USER    NEWDPF move	IHP_ideal_opt.pdbqt
USER    NEWDPF about	0.035000 0.082000 -0.065000
USER    NEWDPF tran0	-17.917756 16.351440 0.809853
USER    NEWDPF axisangle0	0.440364 0.138051 0.887142 -126.087890
USER    NEWDPF quaternion0	0.392521 0.123053 0.790758 -0.453307
USER    NEWDPF dihe0	117.52 30.84 127.79 14.33 84.46 143.19 -49.72 -93.02 153.20 -67.13 156.44 180.00 -43.92 73.21 -95.97 -34.45 -134.02 -137.30 38.78 -22.86 -24.77 -1.25 5.41 9.24 
USER  
USER                              x       y       z    vdW   Elec        q     RMS 
ATOM      1  C   UNL d   1     -17.140  17.739   1.482 -0.08 -0.03    +0.194    20.370
ATOM      2  C   UNL d   1     -16.561  17.233   0.160 -0.12 -0.02    +0.194    20.370
ATOM      3  C   UNL d   1     -16.446  15.707   0.139 -0.05 -0.16    +0.194    20.370
ATOM      4  C   UNL d   1     -17.749  15.001   0.507 -0.07 -0.12    +0.194    20.370
ATOM      5  C   UNL d   1     -18.422  15.552   1.758 -0.06 -0.08    +0.194    20.370
ATOM      6  C   UNL d   1     -18.481  17.080   1.807 -0.02 -0.04    +0.194    20.370
ATOM      7  O   UNL d   1     -17.374  19.144   1.357 -0.02 -0.03    -0.278    20.370
ATOM      8  P   UNL d   1     -16.155  20.143   1.615 -0.03 +0.20    +0.473    20.370
ATOM      9  O   UNL d   1     -14.829  19.489   1.790 -0.62 -0.31    -0.228    20.370
ATOM     10  O   UNL d   1     -16.203  21.141   0.371 -0.03 -0.13    -0.303    20.370
ATOM     11  H   UNL d   1     -16.409  20.641  -0.441 +0.01 +0.09    +0.222    20.370
ATOM     12  O   UNL d   1     -16.631  21.077   2.809 -0.00 -0.05    -0.303    20.370
ATOM     13  H   UNL d   1     -17.598  21.019   2.982 +0.01 +0.02    +0.222    20.370
ATOM     14  O   UNL d   1     -17.419  17.641  -0.912 -0.02 -0.01    -0.278    20.370
ATOM     15  P   UNL d   1     -16.860  18.788  -1.880 -0.01 +0.12    +0.473    20.370
ATOM     16  O   UNL d   1     -16.906  18.510  -3.349 -0.00 -0.03    -0.228    20.370
ATOM     17  O   UNL d   1     -17.695  20.082  -1.470 +0.00 -0.05    -0.303    20.370
ATOM     18  H   UNL d   1     -17.923  20.067  -0.520 +0.01 +0.03    +0.222    20.370
ATOM     19  O   UNL d   1     -15.423  19.137  -1.293 -0.18 -0.30    -0.303    20.370
ATOM     20  H   UNL d   1     -15.443  19.230  -0.322 +0.01 +0.27    +0.222    20.370
ATOM     21  O   UNL d   1     -18.808  17.437   3.148 -0.00 +0.04    -0.278    20.370
ATOM     22  P   UNL d   1     -20.040  18.411   3.431 +0.01 -0.02    +0.473    20.370
ATOM     23  O   UNL d   1     -19.947  19.821   2.953 +0.00 +0.00    -0.228    20.370
ATOM     24  O   UNL d   1     -21.256  17.580   2.828 +0.00 +0.01    -0.303    20.370
ATOM     25  H   UNL d   1     -20.971  16.635   2.742 +0.01 -0.01    +0.222    20.370
ATOM     26  O   UNL d   1     -20.255  18.215   5.007 +0.00 +0.01    -0.303    20.370
ATOM     27  H   UNL d   1     -19.996  17.305   5.257 +0.01 -0.01    +0.222    20.370
ATOM     28  O   UNL d   1     -16.170  15.317  -1.200 -0.12 +0.11    -0.278    20.370
ATOM     29  P   UNL d   1     -14.735  14.751  -1.593 -0.23 -0.16    +0.473    20.370
ATOM     30  O   UNL d   1     -13.596  15.677  -1.366 -0.15 -0.03    -0.228    20.370
ATOM     31  O   UNL d   1     -14.736  13.384  -0.761 -0.23 +0.30    -0.303    20.370
ATOM     32  H   UNL d   1     -15.603  13.297  -0.301 -0.45 -0.35    +0.222    20.370
ATOM     33  O   UNL d   1     -14.970  14.252  -3.087 -0.11 +0.02    -0.303    20.370
ATOM     34  H   UNL d   1     -15.894  13.911  -3.170 +0.05 -0.02    +0.222    20.370
ATOM     35  O   UNL d   1     -19.767  15.081   1.713 -0.01 +0.05    -0.278    20.370
ATOM     36  P   UNL d   1     -20.459  14.496   3.026 +0.01 -0.05    +0.473    20.370
ATOM     37  O   UNL d   1     -20.289  13.026   3.244 -0.01 +0.02    -0.228    20.370
ATOM     38  O   UNL d   1     -19.818  15.406   4.165 -0.00 +0.04    -0.303    20.370
ATOM     39  H   UNL d   1     -20.319  16.247   4.224 +0.01 -0.02    +0.222    20.370
ATOM     40  O   UNL d   1     -21.948  15.039   2.896 +0.00 +0.01    -0.303    20.370
ATOM     41  H   UNL d   1     -22.137  15.745   3.554 +0.00 -0.00    +0.222    20.370
ATOM     42  O   UNL d   1     -17.419  13.634   0.774 +0.01 +0.30    -0.278    20.370
ATOM     43  P   UNL d   1     -17.722  12.535  -0.342 -0.05 -0.20    +0.473    20.370
ATOM     44  O   UNL d   1     -19.042  11.846  -0.286 -0.02 +0.03    -0.228    20.370
ATOM     45  O   UNL d   1     -17.459  13.330  -1.695 -0.04 +0.08    -0.303    20.370
ATOM     46  H   UNL d   1     -16.509  13.338  -1.927 +0.05 -0.07    +0.222    20.370
ATOM     47  O   UNL d   1     -16.438  11.578  -0.272 -0.17 +0.16    -0.303    20.370
ATOM     48  H   UNL d   1     -15.818  11.919   0.405 -0.37 -0.28    +0.222    20.370
TER
ENDMDL
MODEL       63
USER    Run = 63
USER    Cluster Rank = 70
USER    Number of conformations in this cluster = 1
USER  
USER    RMSD from reference structure       = 16.635 A
USER  
USER    Estimated Free Energy of Binding    =   +3.43 kcal/mol  [=(1)+(2)+(3)-(4)]
USER    
USER    (1) Final Intermolecular Energy     =   -3.73 kcal/mol
USER        vdW + Hbond + desolv Energy     =   -3.64 kcal/mol
USER        Electrostatic Energy            =   -0.08 kcal/mol
USER    (2) Final Total Internal Energy     =  -13.80 kcal/mol
USER    (3) Torsional Free Energy           =   +7.16 kcal/mol
USER    (4) Unbound System's Energy  [=(2)] =  -13.80 kcal/mol
USER    
USER    
USER  
USER    DPF = D:/Protein_go_brrr/autodock/final/AncMH_nat/IHP/dock.dpf
USER    NEWDPF move	IHP_ideal_opt.pdbqt
USER    NEWDPF about	0.035000 0.082000 -0.065000
USER    NEWDPF tran0	-11.240532 14.355396 -8.682897
USER    NEWDPF axisangle0	-0.306849 0.715436 -0.627690 -76.411219
USER    NEWDPF quaternion0	-0.189781 0.442487 -0.388217 -0.785796
USER    NEWDPF dihe0	-163.11 -7.11 74.19 97.38 20.51 168.32 33.77 -57.93 12.41 73.18 19.01 -121.91 47.38 118.27 -14.92 99.27 173.85 -44.94 -16.40 -8.30 4.15 -4.92 -25.72 -5.98 
USER  
USER                              x       y       z    vdW   Elec        q     RMS 
ATOM      1  C   UNL d   1     -10.582  12.788  -8.375 -0.14 -0.03    +0.194    16.635
ATOM      2  C   UNL d   1     -11.631  13.272  -7.373 -0.05 -0.03    +0.194    16.635
ATOM      3  C   UNL d   1     -11.419  14.739  -6.994 -0.10 +0.00    +0.194    16.635
ATOM      4  C   UNL d   1     -11.307  15.663  -8.205 -0.09 +0.01    +0.194    16.635
ATOM      5  C   UNL d   1     -10.356  15.161  -9.283 +0.01 +0.01    +0.194    16.635
ATOM      6  C   UNL d   1     -10.527  13.678  -9.618 -0.12 -0.01    +0.194    16.635
ATOM      7  O   UNL d   1     -10.949  11.476  -8.807 -0.11 +0.04    -0.278    16.635
ATOM      8  P   UNL d   1      -9.797  10.381  -8.970 -0.19 -0.11    +0.473    16.635
ATOM      9  O   UNL d   1      -9.656   9.437  -7.828 -0.24 +0.06    -0.228    16.635
ATOM     10  O   UNL d   1     -10.148   9.653 -10.346 -0.10 +0.07    -0.303    16.635
ATOM     11  H   UNL d   1     -10.465  10.311 -10.992 +0.05 -0.03    +0.222    16.635
ATOM     12  O   UNL d   1      -8.494  11.206  -9.353 -0.28 +0.10    -0.303    16.635
ATOM     13  H   UNL d   1      -8.631  11.810 -10.118 +0.06 -0.06    +0.222    16.635
ATOM     14  O   UNL d   1     -12.933  13.136  -7.958 -0.05 +0.02    -0.278    16.635
ATOM     15  P   UNL d   1     -13.992  12.248  -7.148 -0.04 -0.03    +0.473    16.635
ATOM     16  O   UNL d   1     -15.391  12.221  -7.678 -0.01 +0.01    -0.228    16.635
ATOM     17  O   UNL d   1     -13.324  10.803  -7.092 -0.05 +0.03    -0.303    16.635
ATOM     18  H   UNL d   1     -12.662  10.694  -7.801 +0.05 -0.03    +0.222    16.635
ATOM     19  O   UNL d   1     -13.840  12.729  -5.639 -0.10 +0.02    -0.303    16.635
ATOM     20  H   UNL d   1     -13.686  13.690  -5.580 +0.06 -0.01    +0.222    16.635
ATOM     21  O   UNL d   1      -9.375  13.287 -10.362 -0.15 +0.04    -0.278    16.635
ATOM     22  P   UNL d   1      -9.444  13.223 -11.954 -0.06 -0.03    +0.473    16.635
ATOM     23  O   UNL d   1     -10.587  13.897 -12.638 -0.01 +0.01    -0.228    16.635
ATOM     24  O   UNL d   1      -8.006  13.768 -12.365 -0.10 +0.01    -0.303    16.635
ATOM     25  H   UNL d   1      -7.816  14.575 -11.822 +0.06 +0.00    +0.222    16.635
ATOM     26  O   UNL d   1      -9.292  11.650 -12.224 -0.36 +0.00    -0.303    16.635
ATOM     27  H   UNL d   1      -9.110  11.195 -11.377 +0.05 -0.02    +0.222    16.635
ATOM     28  O   UNL d   1     -12.578  15.173  -6.294 -0.09 -0.00    -0.278    16.635
ATOM     29  P   UNL d   1     -12.533  15.382  -4.716 -0.14 +0.03    +0.473    16.635
ATOM     30  O   UNL d   1     -11.792  16.581  -4.249 -0.17 -0.05    -0.228    16.635
ATOM     31  O   UNL d   1     -14.097  15.319  -4.382 -0.05 -0.02    -0.303    16.635
ATOM     32  H   UNL d   1     -14.356  14.375  -4.269 +0.07 -0.00    +0.222    16.635
ATOM     33  O   UNL d   1     -12.008  13.968  -4.207 -0.22 +0.04    -0.303    16.635
ATOM     34  H   UNL d   1     -11.845  13.385  -4.989 -0.49 -0.08    +0.222    16.635
ATOM     35  O   UNL d   1     -10.681  15.897 -10.460 -0.04 -0.00    -0.278    16.635
ATOM     36  P   UNL d   1      -9.731  17.077 -10.960 -0.04 +0.02    +0.473    16.635
ATOM     37  O   UNL d   1     -10.429  18.275 -11.520 -0.01 -0.00    -0.228    16.635
ATOM     38  O   UNL d   1      -8.867  17.374  -9.656 -0.44 -0.06    -0.303    16.635
ATOM     39  H   UNL d   1      -9.470  17.605  -8.917 +0.04 +0.03    +0.222    16.635
ATOM     40  O   UNL d   1      -8.721  16.314 -11.923 -0.05 -0.01    -0.303    16.635
ATOM     41  H   UNL d   1      -9.148  15.548 -12.366 +0.03 -0.00    +0.222    16.635
ATOM     42  O   UNL d   1     -10.785  16.908  -7.729 -0.09 -0.03    -0.278    16.635
ATOM     43  P   UNL d   1     -11.681  18.221  -7.859 +0.00 +0.03    +0.473    16.635
ATOM     44  O   UNL d   1     -13.036  18.070  -8.460 -0.00 -0.01    -0.228    16.635
ATOM     45  O   UNL d   1     -11.688  18.788  -6.373 -0.01 -0.04    -0.303    16.635
ATOM     46  H   UNL d   1     -11.984  18.111  -5.732 +0.04 +0.03    +0.222    16.635
ATOM     47  O   UNL d   1     -10.708  19.258  -8.599 -0.01 -0.02    -0.303    16.635
ATOM     48  H   UNL d   1     -10.411  18.871  -9.449 +0.02 +0.01    +0.222    16.635
TER
ENDMDL
MODEL       86
USER    Run = 86
USER    Cluster Rank = 71
USER    Number of conformations in this cluster = 1
USER  
USER    RMSD from reference structure       = 11.795 A
USER  
USER    Estimated Free Energy of Binding    =   +3.48 kcal/mol  [=(1)+(2)+(3)-(4)]
USER    
USER    (1) Final Intermolecular Energy     =   -3.68 kcal/mol
USER        vdW + Hbond + desolv Energy     =   -3.28 kcal/mol
USER        Electrostatic Energy            =   -0.40 kcal/mol
USER    (2) Final Total Internal Energy     =  -14.12 kcal/mol
USER    (3) Torsional Free Energy           =   +7.16 kcal/mol
USER    (4) Unbound System's Energy  [=(2)] =  -14.12 kcal/mol
USER    
USER    
USER  
USER    DPF = D:/Protein_go_brrr/autodock/final/AncMH_nat/IHP/dock.dpf
USER    NEWDPF move	IHP_ideal_opt.pdbqt
USER    NEWDPF about	0.035000 0.082000 -0.065000
USER    NEWDPF tran0	-14.211378 4.441830 -3.895830
USER    NEWDPF axisangle0	0.477398 0.495904 0.725376 168.911919
USER    NEWDPF quaternion0	0.475165 0.493585 0.721983 0.096611
USER    NEWDPF dihe0	-174.73 153.85 33.22 87.89 -133.60 -148.04 3.72 -57.86 38.37 0.46 143.12 -93.33 101.89 154.79 10.67 -42.06 160.53 -126.12 40.07 -6.95 168.56 143.29 -11.42 162.92 
USER  
USER                              x       y       z    vdW   Elec        q     RMS 
ATOM      1  C   UNL d   1     -14.948   5.930  -3.420 -0.05 +0.06    +0.194    11.795
ATOM      2  C   UNL d   1     -14.994   5.619  -4.917 -0.01 +0.02    +0.194    11.795
ATOM      3  C   UNL d   1     -13.659   5.070  -5.423 -0.01 -0.00    +0.194    11.795
ATOM      4  C   UNL d   1     -13.145   3.888  -4.603 -0.02 +0.01    +0.194    11.795
ATOM      5  C   UNL d   1     -13.189   4.112  -3.097 -0.07 +0.08    +0.194    11.795
ATOM      6  C   UNL d   1     -14.503   4.719  -2.599 -0.09 +0.13    +0.194    11.795
ATOM      7  O   UNL d   1     -16.270   6.270  -2.994 -0.02 -0.09    -0.278    11.795
ATOM      8  P   UNL d   1     -16.781   7.766  -3.226 -0.01 +0.08    +0.473    11.795
ATOM      9  O   UNL d   1     -18.256   7.916  -3.353 -0.01 -0.03    -0.228    11.795
ATOM     10  O   UNL d   1     -16.171   8.578  -1.995 -0.08 -0.04    -0.303    11.795
ATOM     11  H   UNL d   1     -15.352   8.144  -1.691 +0.07 +0.04    +0.222    11.795
ATOM     12  O   UNL d   1     -15.919   8.312  -4.444 -0.03 -0.02    -0.303    11.795
ATOM     13  H   UNL d   1     -16.442   8.411  -5.272 +0.01 +0.01    +0.222    11.795
ATOM     14  O   UNL d   1     -16.012   4.640  -5.159 +0.00 -0.05    -0.278    11.795
ATOM     15  P   UNL d   1     -17.138   5.027  -6.230 +0.01 +0.05    +0.473    11.795
ATOM     16  O   UNL d   1     -18.497   4.436  -6.020 +0.00 -0.03    -0.228    11.795
ATOM     17  O   UNL d   1     -17.150   6.620  -6.220 -0.00 -0.02    -0.303    11.795
ATOM     18  H   UNL d   1     -17.407   6.965  -5.344 +0.01 +0.02    +0.222    11.795
ATOM     19  O   UNL d   1     -16.468   4.721  -7.639 +0.00 -0.01    -0.303    11.795
ATOM     20  H   UNL d   1     -15.801   4.013  -7.575 +0.00 +0.00    +0.222    11.795
ATOM     21  O   UNL d   1     -14.267   5.178  -1.270 -0.26 -0.28    -0.278    11.795
ATOM     22  P   UNL d   1     -13.256   6.386  -1.017 -0.25 +0.19    +0.473    11.795
ATOM     23  O   UNL d   1     -13.287   7.540  -1.961 -0.28 -0.04    -0.228    11.795
ATOM     24  O   UNL d   1     -13.564   6.756   0.500 -0.12 -0.12    -0.303    11.795
ATOM     25  H   UNL d   1     -12.792   7.265   0.856 -0.27 +0.01    +0.222    11.795
ATOM     26  O   UNL d   1     -11.855   5.617  -0.893 -0.19 -0.11    -0.303    11.795
ATOM     27  H   UNL d   1     -11.835   4.878  -1.534 +0.10 +0.09    +0.222    11.795
ATOM     28  O   UNL d   1     -13.875   4.556  -6.731 -0.00 +0.03    -0.278    11.795
ATOM     29  P   UNL d   1     -13.923   2.984  -6.980 +0.01 -0.03    +0.473    11.795
ATOM     30  O   UNL d   1     -12.636   2.266  -6.792 -0.03 +0.05    -0.228    11.795
ATOM     31  O   UNL d   1     -15.127   2.583  -6.005 +0.00 -0.04    -0.303    11.795
ATOM     32  H   UNL d   1     -15.917   3.119  -6.246 +0.00 +0.03    +0.222    11.795
ATOM     33  O   UNL d   1     -14.593   2.894  -8.421 +0.00 +0.02    -0.303    11.795
ATOM     34  H   UNL d   1     -14.766   3.809  -8.753 +0.00 -0.02    +0.222    11.795
ATOM     35  O   UNL d   1     -13.076   2.817  -2.510 -0.06 -0.19    -0.278    11.795
ATOM     36  P   UNL d   1     -11.850   2.473  -1.549 -0.08 +0.30    +0.473    11.795
ATOM     37  O   UNL d   1     -11.490   1.025  -1.456 -0.19 -0.12    -0.228    11.795
ATOM     38  O   UNL d   1     -10.699   3.397  -2.147 -0.13 -0.06    -0.303    11.795
ATOM     39  H   UNL d   1     -10.833   3.492  -3.114 +0.10 +0.01    +0.222    11.795
ATOM     40  O   UNL d   1     -12.263   3.203  -0.198 -0.50 -0.37    -0.303    11.795
ATOM     41  H   UNL d   1     -12.655   4.089  -0.367 +0.08 +0.26    +0.222    11.795
ATOM     42  O   UNL d   1     -11.772   3.701  -4.961 -0.06 +0.08    -0.278    11.795
ATOM     43  P   UNL d   1     -10.783   4.951  -4.903 -0.06 -0.27    +0.473    11.795
ATOM     44  O   UNL d   1     -10.807   5.901  -6.050 -0.14 +0.18    -0.228    11.795
ATOM     45  O   UNL d   1     -11.140   5.614  -3.501 -0.11 +0.03    -0.303    11.795
ATOM     46  H   UNL d   1     -10.842   5.056  -2.755 +0.11 +0.01    +0.222    11.795
ATOM     47  O   UNL d   1      -9.361   4.279  -4.592 -0.24 +0.24    -0.303    11.795
ATOM     48  H   UNL d   1      -8.947   3.997  -5.433 -0.41 -0.45    +0.222    11.795
TER
ENDMDL
MODEL       13
USER    Run = 13
USER    Cluster Rank = 72
USER    Number of conformations in this cluster = 1
USER  
USER    RMSD from reference structure       = 20.458 A
USER  
USER    Estimated Free Energy of Binding    =   +3.52 kcal/mol  [=(1)+(2)+(3)-(4)]
USER    
USER    (1) Final Intermolecular Energy     =   -3.64 kcal/mol
USER        vdW + Hbond + desolv Energy     =   -3.61 kcal/mol
USER        Electrostatic Energy            =   -0.03 kcal/mol
USER    (2) Final Total Internal Energy     =  -13.86 kcal/mol
USER    (3) Torsional Free Energy           =   +7.16 kcal/mol
USER    (4) Unbound System's Energy  [=(2)] =  -13.86 kcal/mol
USER    
USER    
USER  
USER    DPF = D:/Protein_go_brrr/autodock/final/AncMH_nat/IHP/dock.dpf
USER    NEWDPF move	IHP_ideal_opt.pdbqt
USER    NEWDPF about	0.035000 0.082000 -0.065000
USER    NEWDPF tran0	-13.507637 -19.588699 2.253418
USER    NEWDPF axisangle0	0.040141 -0.617780 0.785325 -175.640136
USER    NEWDPF quaternion0	0.040112 -0.617333 0.784757 -0.038038
USER    NEWDPF dihe0	-122.56 -16.92 153.17 159.91 124.70 105.66 -49.83 -11.88 86.57 -15.19 38.51 -105.06 83.19 82.98 -142.95 167.56 -131.92 -14.41 -21.03 -30.97 5.84 -26.65 -19.40 139.16 
USER  
USER                              x       y       z    vdW   Elec        q     RMS 
ATOM      1  C   UNL d   1     -14.643 -20.136   3.434 -0.05 -0.00    +0.194    20.458
ATOM      2  C   UNL d   1     -13.321 -19.601   3.987 -0.12 -0.00    +0.194    20.458
ATOM      3  C   UNL d   1     -12.124 -20.102   3.176 -0.17 -0.01    +0.194    20.458
ATOM      4  C   UNL d   1     -12.266 -19.852   1.677 -0.11 +0.00    +0.194    20.458
ATOM      5  C   UNL d   1     -13.616 -20.266   1.104 -0.09 +0.01    +0.194    20.458
ATOM      6  C   UNL d   1     -14.810 -19.818   1.948 -0.08 +0.01    +0.194    20.458
ATOM      7  O   UNL d   1     -15.712 -19.491   4.131 -0.03 +0.00    -0.278    20.458
ATOM      8  P   UNL d   1     -17.024 -20.339   4.463 +0.01 -0.01    +0.473    20.458
ATOM      9  O   UNL d   1     -17.545 -20.181   5.848 -0.00 +0.01    -0.228    20.458
ATOM     10  O   UNL d   1     -18.068 -19.889   3.344 -0.00 +0.00    -0.303    20.458
ATOM     11  H   UNL d   1     -17.876 -20.357   2.510 +0.01 -0.00    +0.222    20.458
ATOM     12  O   UNL d   1     -16.679 -21.825   4.017 -0.00 +0.01    -0.303    20.458
ATOM     13  H   UNL d   1     -16.494 -21.905   3.054 +0.01 -0.01    +0.222    20.458
ATOM     14  O   UNL d   1     -13.339 -18.169   3.937 -0.22 -0.01    -0.278    20.458
ATOM     15  P   UNL d   1     -13.662 -17.409   5.309 -0.19 +0.00    +0.473    20.458
ATOM     16  O   UNL d   1     -12.846 -16.191   5.611 -0.62 -0.03    -0.228    20.458
ATOM     17  O   UNL d   1     -15.222 -17.101   5.223 -0.68 -0.05    -0.303    20.458
ATOM     18  H   UNL d   1     -15.737 -17.921   5.101 +0.05 +0.01    +0.222    20.458
ATOM     19  O   UNL d   1     -13.623 -18.552   6.415 -0.06 +0.02    -0.303    20.458
ATOM     20  H   UNL d   1     -12.777 -18.555   6.901 +0.10 -0.03    +0.222    20.458
ATOM     21  O   UNL d   1     -15.941 -20.555   1.487 -0.02 -0.00    -0.278    20.458
ATOM     22  P   UNL d   1     -16.932 -19.900   0.423 -0.02 +0.01    +0.473    20.458
ATOM     23  O   UNL d   1     -18.321 -19.575   0.860 -0.01 -0.00    -0.228    20.458
ATOM     24  O   UNL d   1     -16.085 -18.653  -0.087 -0.07 -0.02    -0.303    20.458
ATOM     25  H   UNL d   1     -15.233 -18.992  -0.464 +0.03 +0.02    +0.222    20.458
ATOM     26  O   UNL d   1     -16.803 -20.915  -0.811 -0.01 -0.01    -0.303    20.458
ATOM     27  H   UNL d   1     -15.907 -20.839  -1.198 +0.01 +0.01    +0.222    20.458
ATOM     28  O   UNL d   1     -10.988 -19.348   3.579 -0.26 +0.01    -0.278    20.458
ATOM     29  P   UNL d   1     -10.157 -19.771   4.870 -0.21 -0.10    +0.473    20.458
ATOM     30  O   UNL d   1      -8.684 -19.614   4.763 -0.31 +0.07    -0.228    20.458
ATOM     31  O   UNL d   1     -10.902 -18.894   5.982 -0.25 +0.06    -0.303    20.458
ATOM     32  H   UNL d   1     -11.639 -18.401   5.551 +0.12 -0.02    +0.222    20.458
ATOM     33  O   UNL d   1     -10.706 -21.239   5.154 -0.07 +0.08    -0.303    20.458
ATOM     34  H   UNL d   1     -10.711 -21.749   4.307 +0.06 -0.04    +0.222    20.458
ATOM     35  O   UNL d   1     -13.720 -19.606  -0.156 -0.07 -0.03    -0.278    20.458
ATOM     36  P   UNL d   1     -13.674 -20.446  -1.511 -0.04 +0.03    +0.473    20.458
ATOM     37  O   UNL d   1     -12.309 -20.698  -2.068 -0.04 -0.02    -0.228    20.458
ATOM     38  O   UNL d   1     -14.469 -21.765  -1.104 -0.01 -0.01    -0.303    20.458
ATOM     39  H   UNL d   1     -14.973 -21.594  -0.279 +0.01 +0.00    +0.222    20.458
ATOM     40  O   UNL d   1     -14.697 -19.654  -2.436 -0.04 -0.02    -0.303    20.458
ATOM     41  H   UNL d   1     -15.587 -19.589  -2.024 +0.02 +0.01    +0.222    20.458
ATOM     42  O   UNL d   1     -11.271 -20.650   1.028 -0.13 +0.00    -0.278    20.458
ATOM     43  P   UNL d   1     -10.782 -21.996   1.730 -0.04 -0.02    +0.473    20.458
ATOM     44  O   UNL d   1     -11.770 -22.733   2.566 -0.02 +0.02    -0.228    20.458
ATOM     45  O   UNL d   1     -10.206 -22.838   0.509 -0.01 +0.00    -0.303    20.458
ATOM     46  H   UNL d   1     -10.717 -22.678  -0.309 +0.02 +0.01    +0.222    20.458
ATOM     47  O   UNL d   1      -9.437 -21.550   2.481 -0.10 +0.02    -0.303    20.458
ATOM     48  H   UNL d   1      -9.669 -21.015   3.268 +0.08 -0.02    +0.222    20.458
TER
ENDMDL
MODEL       61
USER    Run = 61
USER    Cluster Rank = 73
USER    Number of conformations in this cluster = 1
USER  
USER    RMSD from reference structure       = 11.326 A
USER  
USER    Estimated Free Energy of Binding    =   +3.56 kcal/mol  [=(1)+(2)+(3)-(4)]
USER    
USER    (1) Final Intermolecular Energy     =   -3.60 kcal/mol
USER        vdW + Hbond + desolv Energy     =   -3.36 kcal/mol
USER        Electrostatic Energy            =   -0.24 kcal/mol
USER    (2) Final Total Internal Energy     =  -14.04 kcal/mol
USER    (3) Torsional Free Energy           =   +7.16 kcal/mol
USER    (4) Unbound System's Energy  [=(2)] =  -14.04 kcal/mol
USER    
USER    
USER  
USER    DPF = D:/Protein_go_brrr/autodock/final/AncMH_nat/IHP/dock.dpf
USER    NEWDPF move	IHP_ideal_opt.pdbqt
USER    NEWDPF about	0.035000 0.082000 -0.065000
USER    NEWDPF tran0	-14.126318 -0.009067 -4.169646
USER    NEWDPF axisangle0	-0.248320 0.786043 -0.566104 -125.681301
USER    NEWDPF quaternion0	-0.220941 0.699374 -0.503686 -0.456467
USER    NEWDPF dihe0	62.08 147.83 80.27 39.15 14.59 -137.13 47.74 -87.19 79.50 88.18 100.44 108.92 -39.48 121.79 -4.57 -139.21 117.29 27.82 -162.68 0.56 -28.27 13.40 1.37 177.49 
USER  
USER                              x       y       z    vdW   Elec        q     RMS 
ATOM      1  C   UNL d   1     -14.188  -1.721  -3.946 -0.07 +0.13    +0.194    11.326
ATOM      2  C   UNL d   1     -14.021  -0.893  -2.670 -0.02 +0.16    +0.194    11.326
ATOM      3  C   UNL d   1     -13.009   0.239  -2.858 -0.12 +0.12    +0.194    11.326
ATOM      4  C   UNL d   1     -13.301   1.110  -4.077 -0.05 +0.07    +0.194    11.326
ATOM      5  C   UNL d   1     -13.587   0.322  -5.349 -0.03 +0.04    +0.194    11.326
ATOM      6  C   UNL d   1     -14.552  -0.849  -5.148 -0.04 +0.07    +0.194    11.326
ATOM      7  O   UNL d   1     -15.265  -2.639  -3.744 -0.31 -0.27    -0.278    11.326
ATOM      8  P   UNL d   1     -16.759  -2.075  -3.778 -0.06 +0.31    +0.473    11.326
ATOM      9  O   UNL d   1     -16.898  -0.688  -4.297 -0.01 -0.10    -0.228    11.326
ATOM     10  O   UNL d   1     -17.559  -3.152  -4.641 -0.02 -0.15    -0.303    11.326
ATOM     11  H   UNL d   1     -17.608  -2.856  -5.569 +0.01 +0.08    +0.222    11.326
ATOM     12  O   UNL d   1     -17.329  -2.330  -2.317 -0.08 -0.26    -0.303    11.326
ATOM     13  H   UNL d   1     -17.347  -1.518  -1.762 +0.03 +0.19    +0.222    11.326
ATOM     14  O   UNL d   1     -15.286  -0.321  -2.316 -0.08 -0.26    -0.278    11.326
ATOM     15  P   UNL d   1     -15.738  -0.475  -0.787 -0.08 +0.64    +0.473    11.326
ATOM     16  O   UNL d   1     -17.029   0.176  -0.400 -0.39 -0.34    -0.228    11.326
ATOM     17  O   UNL d   1     -15.741  -2.049  -0.541 -0.03 -0.42    -0.303    11.326
ATOM     18  H   UNL d   1     -15.720  -2.537  -1.386 +0.04 +0.34    +0.222    11.326
ATOM     19  O   UNL d   1     -14.463  -0.024   0.051 -0.19 -0.54    -0.303    11.326
ATOM     20  H   UNL d   1     -13.647  -0.075  -0.479 +0.07 +0.29    +0.222    11.326
ATOM     21  O   UNL d   1     -14.449  -1.671  -6.308 -0.02 -0.08    -0.278    11.326
ATOM     22  P   UNL d   1     -15.772  -2.139  -7.067 +0.01 +0.11    +0.473    11.326
ATOM     23  O   UNL d   1     -16.994  -1.292  -6.940 -0.00 -0.05    -0.228    11.326
ATOM     24  O   UNL d   1     -15.244  -2.329  -8.556 +0.00 -0.05    -0.303    11.326
ATOM     25  H   UNL d   1     -14.768  -1.501  -8.822 +0.01 +0.02    +0.222    11.326
ATOM     26  O   UNL d   1     -15.913  -3.656  -6.570 -0.01 -0.10    -0.303    11.326
ATOM     27  H   UNL d   1     -15.821  -3.685  -5.596 +0.03 +0.11    +0.222    11.326
ATOM     28  O   UNL d   1     -13.124   1.107  -1.738 -0.11 -0.27    -0.278    11.326
ATOM     29  P   UNL d   1     -11.851   1.436  -0.840 -0.11 +0.37    +0.473    11.326
ATOM     30  O   UNL d   1     -12.139   2.059   0.477 -0.71 -0.31    -0.228    11.326
ATOM     31  O   UNL d   1     -11.141   0.002  -0.826 -0.19 -0.17    -0.303    11.326
ATOM     32  H   UNL d   1     -10.416   0.003  -1.492 +0.07 +0.07    +0.222    11.326
ATOM     33  O   UNL d   1     -10.939   2.269  -1.846 -0.13 -0.10    -0.303    11.326
ATOM     34  H   UNL d   1     -11.138   1.982  -2.771 +0.10 +0.05    +0.222    11.326
ATOM     35  O   UNL d   1     -14.220   1.240  -6.239 -0.00 -0.03    -0.278    11.326
ATOM     36  P   UNL d   1     -13.727   1.365  -7.750 +0.01 -0.02    +0.473    11.326
ATOM     37  O   UNL d   1     -14.694   2.009  -8.693 +0.00 +0.01    -0.228    11.326
ATOM     38  O   UNL d   1     -12.354   2.153  -7.581 -0.03 +0.10    -0.303    11.326
ATOM     39  H   UNL d   1     -12.127   2.201  -6.628 +0.04 -0.07    +0.222    11.326
ATOM     40  O   UNL d   1     -13.277  -0.123  -8.085 -0.00 -0.00    -0.303    11.326
ATOM     41  H   UNL d   1     -13.946  -0.781  -7.792 +0.02 +0.02    +0.222    11.326
ATOM     42  O   UNL d   1     -12.125   1.890  -4.321 -0.05 -0.02    -0.278    11.326
ATOM     43  P   UNL d   1     -10.789   1.148  -4.780 -0.18 -0.05    +0.473    11.326
ATOM     44  O   UNL d   1     -10.734   0.636  -6.178 -0.17 +0.05    -0.228    11.326
ATOM     45  O   UNL d   1      -9.661   2.215  -4.433 -0.23 +0.12    -0.303    11.326
ATOM     46  H   UNL d   1      -9.932   2.796  -3.694 +0.11 -0.04    +0.222    11.326
ATOM     47  O   UNL d   1     -10.566   0.052  -3.632 -0.27 -0.03    -0.303    11.326
ATOM     48  H   UNL d   1     -10.277   0.500  -2.810 -0.10 +0.01    +0.222    11.326
TER
ENDMDL
MODEL        3
USER    Run = 3
USER    Cluster Rank = 74
USER    Number of conformations in this cluster = 1
USER  
USER    RMSD from reference structure       = 15.743 A
USER  
USER    Estimated Free Energy of Binding    =   +3.69 kcal/mol  [=(1)+(2)+(3)-(4)]
USER    
USER    (1) Final Intermolecular Energy     =   -3.47 kcal/mol
USER        vdW + Hbond + desolv Energy     =   -3.29 kcal/mol
USER        Electrostatic Energy            =   -0.18 kcal/mol
USER    (2) Final Total Internal Energy     =  -14.35 kcal/mol
USER    (3) Torsional Free Energy           =   +7.16 kcal/mol
USER    (4) Unbound System's Energy  [=(2)] =  -14.35 kcal/mol
USER    
USER    
USER  
USER    DPF = D:/Protein_go_brrr/autodock/final/AncMH_nat/IHP/dock.dpf
USER    NEWDPF move	IHP_ideal_opt.pdbqt
USER    NEWDPF about	0.035000 0.082000 -0.065000
USER    NEWDPF tran0	0.996573 -11.069176 -15.954600
USER    NEWDPF axisangle0	0.664840 0.550371 -0.505054 -147.384105
USER    NEWDPF quaternion0	0.638091 0.528228 -0.484734 -0.280800
USER    NEWDPF dihe0	-163.33 53.67 92.44 93.12 53.93 -20.81 -46.07 -34.12 -11.38 29.20 179.57 138.95 15.98 89.41 -60.65 29.02 163.12 179.91 -129.88 -15.38 -173.28 -34.01 -176.56 34.96 
USER  
USER                              x       y       z    vdW   Elec        q     RMS 
ATOM      1  C   UNL d   1      -0.134 -11.002 -17.259 -0.01 -0.02    +0.194    15.743
ATOM      2  C   UNL d   1      -0.741 -10.954 -15.856 -0.04 -0.02    +0.194    15.743
ATOM      3  C   UNL d   1      -0.078 -11.964 -14.917 -0.07 -0.03    +0.194    15.743
ATOM      4  C   UNL d   1       1.445 -11.852 -14.892 -0.07 -0.03    +0.194    15.743
ATOM      5  C   UNL d   1       2.085 -11.781 -16.272 -0.02 -0.02    +0.194    15.743
ATOM      6  C   UNL d   1       1.384 -10.816 -17.231 -0.01 -0.02    +0.194    15.743
ATOM      7  O   UNL d   1      -0.681  -9.922 -18.019 -0.00 +0.02    -0.278    15.743
ATOM      8  P   UNL d   1       0.261  -8.675 -18.353 +0.00 -0.03    +0.473    15.743
ATOM      9  O   UNL d   1       1.383  -8.963 -19.286 -0.00 +0.02    -0.228    15.743
ATOM     10  O   UNL d   1      -0.746  -7.567 -18.905 -0.00 +0.02    -0.303    15.743
ATOM     11  H   UNL d   1      -1.575  -7.593 -18.391 +0.01 -0.01    +0.222    15.743
ATOM     12  O   UNL d   1       0.670  -8.077 -16.939 -0.02 +0.02    -0.303    15.743
ATOM     13  H   UNL d   1       0.392  -8.644 -16.185 +0.04 -0.02    +0.222    15.743
ATOM     14  O   UNL d   1      -0.560  -9.639 -15.314 -0.09 +0.04    -0.278    15.743
ATOM     15  P   UNL d   1      -1.890  -8.800 -15.013 -0.08 -0.06    +0.473    15.743
ATOM     16  O   UNL d   1      -1.862  -7.904 -13.815 -0.26 +0.04    -0.228    15.743
ATOM     17  O   UNL d   1      -2.166  -8.011 -16.368 -0.02 +0.02    -0.303    15.743
ATOM     18  H   UNL d   1      -1.459  -8.175 -17.021 +0.03 -0.01    +0.222    15.743
ATOM     19  O   UNL d   1      -3.055  -9.884 -15.031 -0.03 +0.03    -0.303    15.743
ATOM     20  H   UNL d   1      -2.750 -10.747 -14.696 +0.03 -0.03    +0.222    15.743
ATOM     21  O   UNL d   1       1.867 -11.112 -18.539 -0.00 +0.02    -0.278    15.743
ATOM     22  P   UNL d   1       1.193 -12.286 -19.385 -0.00 -0.03    +0.473    15.743
ATOM     23  O   UNL d   1       0.614 -13.444 -18.645 +0.00 +0.01    -0.228    15.743
ATOM     24  O   UNL d   1       0.155 -11.483 -20.286 +0.00 +0.02    -0.303    15.743
ATOM     25  H   UNL d   1       0.087 -10.561 -19.930 +0.00 -0.01    +0.222    15.743
ATOM     26  O   UNL d   1       2.349 -12.632 -20.440 +0.00 +0.02    -0.303    15.743
ATOM     27  H   UNL d   1       2.152 -13.493 -20.863 +0.00 -0.01    +0.222    15.743
ATOM     28  O   UNL d   1      -0.501 -11.660 -13.594 -0.14 +0.10    -0.278    15.743
ATOM     29  P   UNL d   1      -1.960 -12.067 -13.102 -0.07 -0.14    +0.473    15.743
ATOM     30  O   UNL d   1      -2.777 -12.826 -14.083 -0.02 +0.03    -0.228    15.743
ATOM     31  O   UNL d   1      -1.595 -12.809 -11.732 -0.09 +0.15    -0.303    15.743
ATOM     32  H   UNL d   1      -0.629 -12.711 -11.569 -0.44 -0.20    +0.222    15.743
ATOM     33  O   UNL d   1      -2.545 -10.674 -12.602 -0.02 +0.12    -0.303    15.743
ATOM     34  H   UNL d   1      -2.078  -9.941 -13.074 -0.42 -0.10    +0.222    15.743
ATOM     35  O   UNL d   1       3.403 -11.280 -16.062 -0.01 +0.02    -0.278    15.743
ATOM     36  P   UNL d   1       3.644 -10.023 -15.109 -0.02 -0.04    +0.473    15.743
ATOM     37  O   UNL d   1       4.850  -9.196 -15.425 -0.04 +0.02    -0.228    15.743
ATOM     38  O   UNL d   1       2.263  -9.242 -15.244 -0.07 +0.02    -0.303    15.743
ATOM     39  H   UNL d   1       2.274  -8.708 -16.068 +0.04 -0.02    +0.222    15.743
ATOM     40  O   UNL d   1       3.575 -10.676 -13.661 -0.08 +0.02    -0.303    15.743
ATOM     41  H   UNL d   1       3.220 -11.591 -13.691 +0.04 -0.02    +0.222    15.743
ATOM     42  O   UNL d   1       1.937 -13.038 -14.260 -0.04 +0.04    -0.278    15.743
ATOM     43  P   UNL d   1       1.823 -13.172 -12.674 -0.08 -0.10    +0.473    15.743
ATOM     44  O   UNL d   1       3.023 -13.658 -11.938 -0.67 +0.01    -0.228    15.743
ATOM     45  O   UNL d   1       1.334 -11.722 -12.236 -0.18 +0.12    -0.303    15.743
ATOM     46  H   UNL d   1       0.393 -11.726 -11.971 -0.26 -0.18    +0.222    15.743
ATOM     47  O   UNL d   1       0.490 -14.039 -12.474 -0.10 +0.10    -0.303    15.743
ATOM     48  H   UNL d   1      -0.198 -13.721 -13.095 +0.02 -0.06    +0.222    15.743
TER
ENDMDL
MODEL       85
USER    Run = 85
USER    Cluster Rank = 75
USER    Number of conformations in this cluster = 1
USER  
USER    RMSD from reference structure       = 15.189 A
USER  
USER    Estimated Free Energy of Binding    =   +3.72 kcal/mol  [=(1)+(2)+(3)-(4)]
USER    
USER    (1) Final Intermolecular Energy     =   -3.44 kcal/mol
USER        vdW + Hbond + desolv Energy     =   -3.47 kcal/mol
USER        Electrostatic Energy            =   +0.03 kcal/mol
USER    (2) Final Total Internal Energy     =  -12.69 kcal/mol
USER    (3) Torsional Free Energy           =   +7.16 kcal/mol
USER    (4) Unbound System's Energy  [=(2)] =  -12.69 kcal/mol
USER    
USER    
USER  
USER    DPF = D:/Protein_go_brrr/autodock/final/AncMH_nat/IHP/dock.dpf
USER    NEWDPF move	IHP_ideal_opt.pdbqt
USER    NEWDPF about	0.035000 0.082000 -0.065000
USER    NEWDPF tran0	-8.455030 6.998423 -13.174303
USER    NEWDPF axisangle0	0.811670 -0.473588 -0.341915 -153.607608
USER    NEWDPF quaternion0	0.790237 -0.461083 -0.332886 -0.228286
USER    NEWDPF dihe0	116.79 67.95 -97.47 46.63 124.87 169.15 -16.12 180.00 118.78 -36.79 2.85 -145.10 20.42 -13.55 -109.40 -63.68 80.04 -59.77 0.38 -24.51 143.84 3.10 -38.12 4.19 
USER  
USER                              x       y       z    vdW   Elec        q     RMS 
ATOM      1  C   UNL d   1      -8.083   6.270 -14.696 -0.08 -0.06    +0.194    15.189
ATOM      2  C   UNL d   1      -7.788   7.768 -14.590 -0.11 -0.05    +0.194    15.189
ATOM      3  C   UNL d   1      -8.919   8.519 -13.884 -0.08 -0.03    +0.194    15.189
ATOM      4  C   UNL d   1      -9.297   7.908 -12.537 -0.08 -0.05    +0.194    15.189
ATOM      5  C   UNL d   1      -9.488   6.398 -12.572 -0.09 -0.08    +0.194    15.189
ATOM      6  C   UNL d   1      -8.389   5.652 -13.331 -0.08 -0.10    +0.194    15.189
ATOM      7  O   UNL d   1      -6.916   5.621 -15.206 -0.07 +0.11    -0.278    15.189
ATOM      8  P   UNL d   1      -7.047   4.773 -16.554 -0.04 -0.09    +0.473    15.189
ATOM      9  O   UNL d   1      -7.219   5.581 -17.792 -0.01 +0.03    -0.228    15.189
ATOM     10  O   UNL d   1      -5.732   3.869 -16.571 -0.07 +0.05    -0.303    15.189
ATOM     11  H   UNL d   1      -4.968   4.398 -16.275 +0.02 -0.04    +0.222    15.189
ATOM     12  O   UNL d   1      -8.183   3.702 -16.260 -0.02 +0.05    -0.303    15.189
ATOM     13  H   UNL d   1      -8.790   3.974 -15.535 +0.02 -0.04    +0.222    15.189
ATOM     14  O   UNL d   1      -6.580   7.954 -13.843 -0.13 +0.10    -0.278    15.189
ATOM     15  P   UNL d   1      -5.286   8.402 -14.674 -0.19 -0.12    +0.473    15.189
ATOM     16  O   UNL d   1      -5.493   9.443 -15.730 -0.07 +0.04    -0.228    15.189
ATOM     17  O   UNL d   1      -4.245   8.855 -13.557 -0.26 +0.11    -0.303    15.189
ATOM     18  H   UNL d   1      -3.348   8.953 -13.931 -0.35 -0.10    +0.222    15.189
ATOM     19  O   UNL d   1      -4.644   7.036 -15.176 -0.16 +0.08    -0.303    15.189
ATOM     20  H   UNL d   1      -5.029   6.267 -14.717 -0.27 -0.11    +0.222    15.189
ATOM     21  O   UNL d   1      -8.876   4.333 -13.570 -0.07 +0.12    -0.278    15.189
ATOM     22  P   UNL d   1     -10.393   4.116 -14.012 +0.01 -0.11    +0.473    15.189
ATOM     23  O   UNL d   1     -11.448   4.167 -12.960 -0.01 +0.06    -0.228    15.189
ATOM     24  O   UNL d   1     -10.552   5.197 -15.170 -0.00 +0.05    -0.303    15.189
ATOM     25  H   UNL d   1      -9.882   4.997 -15.872 +0.01 -0.03    +0.222    15.189
ATOM     26  O   UNL d   1     -10.297   2.750 -14.846 +0.00 +0.05    -0.303    15.189
ATOM     27  H   UNL d   1      -9.359   2.482 -14.918 +0.02 -0.04    +0.222    15.189
ATOM     28  O   UNL d   1      -8.444   9.826 -13.586 -0.40 -0.02    -0.278    15.189
ATOM     29  P   UNL d   1      -9.086  11.097 -14.299 -0.04 -0.01    +0.473    15.189
ATOM     30  O   UNL d   1      -8.451  11.502 -15.579 -0.03 +0.01    -0.228    15.189
ATOM     31  O   UNL d   1     -10.618  10.638 -14.361 -0.01 +0.02    -0.303    15.189
ATOM     32  H   UNL d   1     -10.824  10.121 -13.548 +0.02 -0.02    +0.222    15.189
ATOM     33  O   UNL d   1      -9.088  12.172 -13.125 -0.28 +0.00    -0.303    15.189
ATOM     34  H   UNL d   1     -10.018  12.467 -12.961 +0.03 -0.01    +0.222    15.189
ATOM     35  O   UNL d   1      -9.425   5.968 -11.213 -0.13 +0.20    -0.278    15.189
ATOM     36  P   UNL d   1     -10.759   5.839 -10.347 -0.05 -0.30    +0.473    15.189
ATOM     37  O   UNL d   1     -10.998   4.499  -9.727 -0.10 +0.21    -0.228    15.189
ATOM     38  O   UNL d   1     -10.582   7.024  -9.298 -0.09 +0.17    -0.303    15.189
ATOM     39  H   UNL d   1     -10.334   7.844  -9.778 +0.07 -0.09    +0.222    15.189
ATOM     40  O   UNL d   1     -11.869   6.379 -11.351 -0.01 +0.08    -0.303    15.189
ATOM     41  H   UNL d   1     -11.872   7.361 -11.396 +0.02 -0.05    +0.222    15.189
ATOM     42  O   UNL d   1     -10.552   8.483 -12.158 -0.05 +0.05    -0.278    15.189
ATOM     43  P   UNL d   1     -10.584   9.563 -10.984 -0.05 -0.08    +0.473    15.189
ATOM     44  O   UNL d   1      -9.370   9.684 -10.130 -0.19 +0.06    -0.228    15.189
ATOM     45  O   UNL d   1     -10.976  10.901 -11.751 -0.03 +0.03    -0.303    15.189
ATOM     46  H   UNL d   1     -10.246  11.214 -12.321 +0.03 -0.01    +0.222    15.189
ATOM     47  O   UNL d   1     -11.944   9.220 -10.209 -0.01 +0.05    -0.303    15.189
ATOM     48  H   UNL d   1     -12.099   8.254 -10.240 +0.03 -0.04    +0.222    15.189
TER
ENDMDL
MODEL       55
USER    Run = 55
USER    Cluster Rank = 76
USER    Number of conformations in this cluster = 1
USER  
USER    RMSD from reference structure       = 16.963 A
USER  
USER    Estimated Free Energy of Binding    =   +3.72 kcal/mol  [=(1)+(2)+(3)-(4)]
USER    
USER    (1) Final Intermolecular Energy     =   -3.44 kcal/mol
USER        vdW + Hbond + desolv Energy     =   -3.31 kcal/mol
USER        Electrostatic Energy            =   -0.12 kcal/mol
USER    (2) Final Total Internal Energy     =  -14.38 kcal/mol
USER    (3) Torsional Free Energy           =   +7.16 kcal/mol
USER    (4) Unbound System's Energy  [=(2)] =  -14.38 kcal/mol
USER    
USER    
USER  
USER    DPF = D:/Protein_go_brrr/autodock/final/AncMH_nat/IHP/dock.dpf
USER    NEWDPF move	IHP_ideal_opt.pdbqt
USER    NEWDPF about	0.035000 0.082000 -0.065000
USER    NEWDPF tran0	2.937849 -15.762303 11.314610
USER    NEWDPF axisangle0	-0.169231 -0.923125 0.345254 106.292346
USER    NEWDPF quaternion0	-0.135413 -0.738656 0.276261 0.599776
USER    NEWDPF dihe0	-179.91 63.38 126.88 100.86 105.51 144.22 -119.77 -14.24 103.50 -39.02 -36.18 -153.06 -50.36 112.66 -132.74 177.13 -148.47 150.02 6.60 -11.06 -14.62 10.43 4.44 -179.45 
USER  
USER                              x       y       z    vdW   Elec        q     RMS 
ATOM      1  C   UNL d   1       2.802 -17.098  10.228 -0.07 +0.01    +0.194    16.963
ATOM      2  C   UNL d   1       2.380 -17.375  11.672 -0.07 -0.00    +0.194    16.963
ATOM      3  C   UNL d   1       3.358 -16.763  12.676 -0.04 -0.01    +0.194    16.963
ATOM      4  C   UNL d   1       3.626 -15.280  12.427 -0.03 -0.01    +0.194    16.963
ATOM      5  C   UNL d   1       3.939 -14.941  10.975 -0.07 -0.01    +0.194    16.963
ATOM      6  C   UNL d   1       2.997 -15.604   9.968 -0.10 +0.01    +0.194    16.963
ATOM      7  O   UNL d   1       1.756 -17.548   9.363 -0.01 -0.06    -0.278    16.963
ATOM      8  P   UNL d   1       2.069 -18.747   8.354 -0.08 +0.14    +0.473    16.963
ATOM      9  O   UNL d   1       3.446 -19.304   8.443 -0.02 -0.04    -0.228    16.963
ATOM     10  O   UNL d   1       0.934 -19.823   8.669 -0.14 -0.01    -0.303    16.963
ATOM     11  H   UNL d   1       0.173 -19.382   9.091 +0.08 +0.02    +0.222    16.963
ATOM     12  O   UNL d   1       1.629 -18.209   6.925 -0.47 -0.34    -0.303    16.963
ATOM     13  H   UNL d   1       1.544 -17.229   6.891 +0.06 +0.29    +0.222    16.963
ATOM     14  O   UNL d   1       1.082 -16.810  11.895 -0.13 -0.01    -0.278    16.963
ATOM     15  P   UNL d   1      -0.074 -17.825  12.338 -0.09 +0.05    +0.473    16.963
ATOM     16  O   UNL d   1      -1.348 -17.217  12.835 -0.71 -0.04    -0.228    16.963
ATOM     17  O   UNL d   1      -0.290 -18.749  11.058 -0.48 -0.05    -0.303    16.963
ATOM     18  H   UNL d   1       0.542 -18.856  10.558 +0.07 +0.02    +0.222    16.963
ATOM     19  O   UNL d   1       0.642 -18.830  13.341 -0.04 +0.01    -0.303    16.963
ATOM     20  H   UNL d   1       1.255 -18.366  13.941 +0.03 -0.01    +0.222    16.963
ATOM     21  O   UNL d   1       3.610 -15.479   8.687 -0.05 -0.05    -0.278    16.963
ATOM     22  P   UNL d   1       2.889 -14.632   7.543 -0.10 +0.16    +0.473    16.963
ATOM     23  O   UNL d   1       2.175 -15.372   6.463 -0.24 -0.25    -0.228    16.963
ATOM     24  O   UNL d   1       1.975 -13.647   8.395 -0.26 -0.02    -0.303    16.963
ATOM     25  H   UNL d   1       2.491 -13.357   9.190 +0.10 -0.01    +0.222    16.963
ATOM     26  O   UNL d   1       4.070 -13.658   7.065 -0.06 -0.05    -0.303    16.963
ATOM     27  H   UNL d   1       4.669 -13.485   7.820 +0.08 +0.01    +0.222    16.963
ATOM     28  O   UNL d   1       2.751 -16.826  13.960 -0.03 +0.02    -0.278    16.963
ATOM     29  P   UNL d   1       3.461 -17.614  15.148 -0.00 -0.04    +0.473    16.963
ATOM     30  O   UNL d   1       3.168 -17.112  16.515 -0.00 +0.02    -0.228    16.963
ATOM     31  O   UNL d   1       2.998 -19.108  14.808 -0.00 +0.02    -0.303    16.963
ATOM     32  H   UNL d   1       2.027 -19.177  14.958 +0.01 -0.02    +0.222    16.963
ATOM     33  O   UNL d   1       4.986 -17.606  14.689 -0.00 +0.03    -0.303    16.963
ATOM     34  H   UNL d   1       5.221 -16.700  14.371 +0.01 -0.02    +0.222    16.963
ATOM     35  O   UNL d   1       3.754 -13.532  10.859 -0.05 +0.03    -0.278    16.963
ATOM     36  P   UNL d   1       4.828 -12.641  10.085 -0.12 -0.11    +0.473    16.963
ATOM     37  O   UNL d   1       5.740 -11.833  10.952 -0.16 +0.12    -0.228    16.963
ATOM     38  O   UNL d   1       5.569 -13.729   9.189 -0.02 +0.02    -0.303    16.963
ATOM     39  H   UNL d   1       4.925 -14.421   8.925 +0.06 +0.00    +0.222    16.963
ATOM     40  O   UNL d   1       3.923 -11.843   9.048 -0.27 +0.05    -0.303    16.963
ATOM     41  H   UNL d   1       3.707 -12.388   8.259 +0.12 -0.00    +0.222    16.963
ATOM     42  O   UNL d   1       4.780 -14.932  13.199 -0.03 +0.03    -0.278    16.963
ATOM     43  P   UNL d   1       6.201 -15.514  12.767 +0.00 -0.05    +0.473    16.963
ATOM     44  O   UNL d   1       7.305 -15.441  13.765 -0.00 +0.03    -0.228    16.963
ATOM     45  O   UNL d   1       5.845 -16.992  12.298 -0.00 +0.02    -0.303    16.963
ATOM     46  H   UNL d   1       6.180 -17.659  12.929 +0.00 -0.02    +0.222    16.963
ATOM     47  O   UNL d   1       6.485 -14.787  11.367 -0.00 +0.04    -0.303    16.963
ATOM     48  H   UNL d   1       5.998 -13.937  11.341 +0.04 -0.03    +0.222    16.963
TER
ENDMDL
MODEL       59
USER    Run = 59
USER    Cluster Rank = 77
USER    Number of conformations in this cluster = 1
USER  
USER    RMSD from reference structure       = 15.121 A
USER  
USER    Estimated Free Energy of Binding    =   +3.72 kcal/mol  [=(1)+(2)+(3)-(4)]
USER    
USER    (1) Final Intermolecular Energy     =   -3.44 kcal/mol
USER        vdW + Hbond + desolv Energy     =   -2.91 kcal/mol
USER        Electrostatic Energy            =   -0.52 kcal/mol
USER    (2) Final Total Internal Energy     =  -12.62 kcal/mol
USER    (3) Torsional Free Energy           =   +7.16 kcal/mol
USER    (4) Unbound System's Energy  [=(2)] =  -12.62 kcal/mol
USER    
USER    
USER  
USER    DPF = D:/Protein_go_brrr/autodock/final/AncMH_nat/IHP/dock.dpf
USER    NEWDPF move	IHP_ideal_opt.pdbqt
USER    NEWDPF about	0.035000 0.082000 -0.065000
USER    NEWDPF tran0	17.642365 4.262157 6.153956
USER    NEWDPF axisangle0	-0.191152 0.821298 0.537523 85.588997
USER    NEWDPF quaternion0	-0.129863 0.557966 0.365177 0.733795
USER    NEWDPF dihe0	176.09 -110.47 26.34 35.44 10.01 180.00 -150.20 117.32 104.15 -45.92 21.39 -86.28 90.71 153.28 167.79 -1.98 -124.07 -12.95 2.81 -28.34 -23.45 -32.96 -3.96 157.38 
USER  
USER                              x       y       z    vdW   Elec        q     RMS 
ATOM      1  C   UNL d   1      16.711   2.959   6.802 -0.01 -0.04    +0.194    15.121
ATOM      2  C   UNL d   1      16.596   3.167   5.291 -0.07 -0.05    +0.194    15.121
ATOM      3  C   UNL d   1      16.466   4.648   4.930 -0.07 -0.08    +0.194    15.121
ATOM      4  C   UNL d   1      17.559   5.516   5.550 -0.00 -0.05    +0.194    15.121
ATOM      5  C   UNL d   1      17.787   5.260   7.034 +0.01 -0.04    +0.194    15.121
ATOM      6  C   UNL d   1      17.855   3.777   7.404 +0.01 -0.03    +0.194    15.121
ATOM      7  O   UNL d   1      17.000   1.580   7.042 -0.01 +0.03    -0.278    15.121
ATOM      8  P   UNL d   1      15.968   0.729   7.914 -0.00 -0.02    +0.473    15.121
ATOM      9  O   UNL d   1      15.769  -0.676   7.463 -0.03 -0.01    -0.228    15.121
ATOM     10  O   UNL d   1      16.536   0.836   9.401 +0.01 +0.03    -0.303    15.121
ATOM     11  H   UNL d   1      17.154   1.589   9.461 +0.01 -0.02    +0.222    15.121
ATOM     12  O   UNL d   1      14.658   1.624   7.994 -0.04 +0.02    -0.303    15.121
ATOM     13  H   UNL d   1      14.100   1.423   8.779 +0.02 -0.02    +0.222    15.121
ATOM     14  O   UNL d   1      17.770   2.644   4.657 -0.02 +0.04    -0.278    15.121
ATOM     15  P   UNL d   1      17.617   1.228   3.924 -0.04 -0.03    +0.473    15.121
ATOM     16  O   UNL d   1      18.844   0.373   3.851 -0.03 +0.02    -0.228    15.121
ATOM     17  O   UNL d   1      16.416   0.520   4.695 -0.11 -0.04    -0.303    15.121
ATOM     18  H   UNL d   1      16.678   0.276   5.604 +0.03 +0.01    +0.222    15.121
ATOM     19  O   UNL d   1      16.939   1.575   2.528 -0.15 +0.01    -0.303    15.121
ATOM     20  H   UNL d   1      16.439   2.411   2.568 +0.09 -0.03    +0.222    15.121
ATOM     21  O   UNL d   1      17.724   3.699   8.821 +0.00 +0.04    -0.278    15.121
ATOM     22  P   UNL d   1      18.826   2.926   9.677 +0.00 -0.05    +0.473    15.121
ATOM     23  O   UNL d   1      18.476   2.508  11.066 +0.00 +0.02    -0.228    15.121
ATOM     24  O   UNL d   1      19.219   1.733   8.700 +0.00 +0.03    -0.303    15.121
ATOM     25  H   UNL d   1      18.393   1.235   8.474 +0.01 -0.02    +0.222    15.121
ATOM     26  O   UNL d   1      20.091   3.901   9.535 +0.00 +0.03    -0.303    15.121
ATOM     27  H   UNL d   1      19.819   4.714   9.063 +0.00 -0.03    +0.222    15.121
ATOM     28  O   UNL d   1      16.644   4.764   3.524 -0.07 +0.12    -0.278    15.121
ATOM     29  P   UNL d   1      15.462   4.379   2.529 -0.25 -0.32    +0.473    15.121
ATOM     30  O   UNL d   1      14.511   3.354   3.030 -0.21 +0.19    -0.228    15.121
ATOM     31  O   UNL d   1      14.869   5.834   2.225 -0.22 +0.29    -0.303    15.121
ATOM     32  H   UNL d   1      14.081   5.978   2.799 -0.37 -0.48    +0.222    15.121
ATOM     33  O   UNL d   1      16.252   4.035   1.190 -0.30 +0.13    -0.303    15.121
ATOM     34  H   UNL d   1      15.607   3.723   0.508 -0.47 -0.13    +0.222    15.121
ATOM     35  O   UNL d   1      19.061   5.826   7.333 +0.00 +0.04    -0.278    15.121
ATOM     36  P   UNL d   1      19.217   6.874   8.526 +0.00 -0.06    +0.473    15.121
ATOM     37  O   UNL d   1      18.799   8.275   8.211 +0.00 +0.03    -0.228    15.121
ATOM     38  O   UNL d   1      18.367   6.181   9.681 +0.00 +0.04    -0.303    15.121
ATOM     39  H   UNL d   1      18.460   5.207   9.607 +0.00 -0.03    +0.222    15.121
ATOM     40  O   UNL d   1      20.726   6.655   8.976 +0.00 +0.03    -0.303    15.121
ATOM     41  H   UNL d   1      20.806   5.940   9.647 +0.00 -0.02    +0.222    15.121
ATOM     42  O   UNL d   1      17.132   6.876   5.418 -0.01 +0.08    -0.278    15.121
ATOM     43  P   UNL d   1      15.632   7.256   5.806 -0.01 -0.21    +0.473    15.121
ATOM     44  O   UNL d   1      14.994   6.489   6.912 -0.03 +0.10    -0.228    15.121
ATOM     45  O   UNL d   1      15.726   8.822   6.069 -0.00 +0.08    -0.303    15.121
ATOM     46  H   UNL d   1      16.444   9.038   6.696 +0.01 -0.04    +0.222    15.121
ATOM     47  O   UNL d   1      14.867   7.207   4.398 -0.08 +0.26    -0.303    15.121
ATOM     48  H   UNL d   1      14.484   6.314   4.270 -0.47 -0.35    +0.222    15.121
TER
ENDMDL
MODEL       32
USER    Run = 32
USER    Cluster Rank = 78
USER    Number of conformations in this cluster = 1
USER  
USER    RMSD from reference structure       = 19.281 A
USER  
USER    Estimated Free Energy of Binding    =   +3.74 kcal/mol  [=(1)+(2)+(3)-(4)]
USER    
USER    (1) Final Intermolecular Energy     =   -3.42 kcal/mol
USER        vdW + Hbond + desolv Energy     =   -3.17 kcal/mol
USER        Electrostatic Energy            =   -0.24 kcal/mol
USER    (2) Final Total Internal Energy     =  -14.96 kcal/mol
USER    (3) Torsional Free Energy           =   +7.16 kcal/mol
USER    (4) Unbound System's Energy  [=(2)] =  -14.96 kcal/mol
USER    
USER    
USER  
USER    DPF = D:/Protein_go_brrr/autodock/final/AncMH_nat/IHP/dock.dpf
USER    NEWDPF move	IHP_ideal_opt.pdbqt
USER    NEWDPF about	0.035000 0.082000 -0.065000
USER    NEWDPF tran0	-9.292147 19.985355 5.662859
USER    NEWDPF axisangle0	-0.556193 -0.101365 -0.824848 122.638019
USER    NEWDPF quaternion0	-0.487951 -0.088928 -0.723644 0.479932
USER    NEWDPF dihe0	-119.02 5.30 47.22 43.11 16.37 -174.62 -157.96 1.53 70.56 -172.77 97.95 -139.82 -140.27 163.45 -28.08 50.03 48.64 94.45 23.48 -21.32 165.31 159.58 15.95 -35.06 
USER  
USER                              x       y       z    vdW   Elec        q     RMS 
ATOM      1  C   UNL d   1      -8.205  21.161   6.312 -0.02 -0.00    +0.194    19.281
ATOM      2  C   UNL d   1      -7.930  20.732   4.870 -0.02 +0.01    +0.194    19.281
ATOM      3  C   UNL d   1      -8.067  19.218   4.693 -0.09 -0.00    +0.194    19.281
ATOM      4  C   UNL d   1      -9.392  18.669   5.216 -0.12 -0.02    +0.194    19.281
ATOM      5  C   UNL d   1      -9.763  19.163   6.608 -0.11 -0.04    +0.194    19.281
ATOM      6  C   UNL d   1      -9.567  20.668   6.804 -0.03 -0.02    +0.194    19.281
ATOM      7  O   UNL d   1      -8.228  22.589   6.356 -0.00 -0.00    -0.278    19.281
ATOM      8  P   UNL d   1      -6.917  23.355   6.853 +0.01 +0.03    +0.473    19.281
ATOM      9  O   UNL d   1      -6.838  23.583   8.322 -0.01 -0.01    -0.228    19.281
ATOM     10  O   UNL d   1      -5.715  22.469   6.290 -0.00 -0.04    -0.303    19.281
ATOM     11  H   UNL d   1      -5.538  22.711   5.362 +0.01 +0.02    +0.222    19.281
ATOM     12  O   UNL d   1      -6.827  24.654   5.944 +0.00 -0.01    -0.303    19.281
ATOM     13  H   UNL d   1      -7.067  24.485   5.005 +0.00 +0.01    +0.222    19.281
ATOM     14  O   UNL d   1      -8.869  21.379   4.003 -0.00 -0.03    -0.278    19.281
ATOM     15  P   UNL d   1      -8.285  22.512   3.033 +0.01 +0.05    +0.473    19.281
ATOM     16  O   UNL d   1      -9.136  23.725   2.827 +0.00 -0.02    -0.228    19.281
ATOM     17  O   UNL d   1      -6.859  22.856   3.654 +0.00 -0.02    -0.303    19.281
ATOM     18  H   UNL d   1      -6.921  23.007   4.617 +0.00 +0.01    +0.222    19.281
ATOM     19  O   UNL d   1      -7.877  21.728   1.710 -0.00 -0.05    -0.303    19.281
ATOM     20  H   UNL d   1      -7.817  20.767   1.864 +0.03 +0.04    +0.222    19.281
ATOM     21  O   UNL d   1      -9.618  20.911   8.208 -0.04 +0.07    -0.278    19.281
ATOM     22  P   UNL d   1      -8.518  20.264   9.164 -0.13 -0.13    +0.473    19.281
ATOM     23  O   UNL d   1      -7.432  19.453   8.541 -0.24 +0.02    -0.228    19.281
ATOM     24  O   UNL d   1      -8.017  21.530   9.988 -0.08 +0.03    -0.303    19.281
ATOM     25  H   UNL d   1      -7.804  22.252   9.344 +0.04 -0.00    +0.222    19.281
ATOM     26  O   UNL d   1      -9.430  19.506  10.243 +0.02 +0.33    -0.303    19.281
ATOM     27  H   UNL d   1     -10.357  19.492   9.928 -0.13 -0.31    +0.222    19.281
ATOM     28  O   UNL d   1      -8.071  18.949   3.297 -0.05 -0.02    -0.278    19.281
ATOM     29  P   UNL d   1      -9.442  18.927   2.486 -0.06 +0.16    +0.473    19.281
ATOM     30  O   UNL d   1     -10.552  19.712   3.084 -0.09 -0.09    -0.228    19.281
ATOM     31  O   UNL d   1      -8.920  19.388   1.045 -0.11 -0.13    -0.303    19.281
ATOM     32  H   UNL d   1      -9.207  20.318   0.890 +0.03 +0.11    +0.222    19.281
ATOM     33  O   UNL d   1      -9.688  17.367   2.288 -0.11 -0.09    -0.303    19.281
ATOM     34  H   UNL d   1      -9.764  16.938   3.176 +0.11 +0.02    +0.222    19.281
ATOM     35  O   UNL d   1     -11.156  18.898   6.754 -0.06 +0.07    -0.278    19.281
ATOM     36  P   UNL d   1     -11.757  18.511   8.181 -0.10 -0.27    +0.473    19.281
ATOM     37  O   UNL d   1     -12.284  19.653   8.990 -0.08 +0.15    -0.228    19.281
ATOM     38  O   UNL d   1     -12.853  17.425   7.789 -0.08 +0.13    -0.303    19.281
ATOM     39  H   UNL d   1     -12.846  17.298   6.816 +0.08 -0.07    +0.222    19.281
ATOM     40  O   UNL d   1     -10.581  17.654   8.823 -0.33 +0.30    -0.303    19.281
ATOM     41  H   UNL d   1     -10.521  17.789   9.795 -0.48 -0.46    +0.222    19.281
ATOM     42  O   UNL d   1      -9.248  17.247   5.298 -0.22 +0.06    -0.278    19.281
ATOM     43  P   UNL d   1     -10.517  16.325   5.007 -0.18 -0.08    +0.473    19.281
ATOM     44  O   UNL d   1     -10.293  15.073   4.231 -0.41 +0.04    -0.228    19.281
ATOM     45  O   UNL d   1     -11.118  16.090   6.462 -0.10 +0.06    -0.303    19.281
ATOM     46  H   UNL d   1     -10.868  16.811   7.073 +0.08 -0.08    +0.222    19.281
ATOM     47  O   UNL d   1     -11.577  17.349   4.378 -0.14 +0.03    -0.303    19.281
ATOM     48  H   UNL d   1     -11.110  17.974   3.785 +0.07 +0.03    +0.222    19.281
TER
ENDMDL
MODEL       40
USER    Run = 40
USER    Cluster Rank = 79
USER    Number of conformations in this cluster = 1
USER  
USER    RMSD from reference structure       = 13.596 A
USER  
USER    Estimated Free Energy of Binding    =   +3.82 kcal/mol  [=(1)+(2)+(3)-(4)]
USER    
USER    (1) Final Intermolecular Energy     =   -3.34 kcal/mol
USER        vdW + Hbond + desolv Energy     =   -3.08 kcal/mol
USER        Electrostatic Energy            =   -0.26 kcal/mol
USER    (2) Final Total Internal Energy     =  -12.27 kcal/mol
USER    (3) Torsional Free Energy           =   +7.16 kcal/mol
USER    (4) Unbound System's Energy  [=(2)] =  -12.27 kcal/mol
USER    
USER    
USER  
USER    DPF = D:/Protein_go_brrr/autodock/final/AncMH_nat/IHP/dock.dpf
USER    NEWDPF move	IHP_ideal_opt.pdbqt
USER    NEWDPF about	0.035000 0.082000 -0.065000
USER    NEWDPF tran0	5.909603 -15.546188 2.735865
USER    NEWDPF axisangle0	-0.940749 -0.302172 -0.153897 104.489656
USER    NEWDPF quaternion0	-0.743788 -0.238907 -0.121676 0.612289
USER    NEWDPF dihe0	-177.82 -11.45 73.33 90.59 84.38 -29.86 -68.23 -10.02 94.19 107.79 -86.99 -142.96 21.80 104.41 -74.24 140.68 32.08 -40.46 -138.05 -12.35 -165.68 13.06 -171.40 163.04 
USER  
USER                              x       y       z    vdW   Elec        q     RMS 
ATOM      1  C   UNL d   1       7.174 -15.468   1.561 -0.01 +0.00    +0.194    13.596
ATOM      2  C   UNL d   1       5.765 -15.673   1.003 -0.02 +0.03    +0.194    13.596
ATOM      3  C   UNL d   1       4.974 -16.695   1.822 -0.04 +0.09    +0.194    13.596
ATOM      4  C   UNL d   1       4.963 -16.388   3.318 -0.04 +0.15    +0.194    13.596
ATOM      5  C   UNL d   1       6.335 -16.064   3.895 -0.01 +0.04    +0.194    13.596
ATOM      6  C   UNL d   1       7.151 -15.089   3.042 -0.01 -0.00    +0.194    13.596
ATOM      7  O   UNL d   1       7.780 -14.384   0.853 -0.04 +0.02    -0.278    13.596
ATOM      8  P   UNL d   1       7.792 -12.941   1.540 -0.13 -0.13    +0.473    13.596
ATOM      9  O   UNL d   1       8.748 -12.788   2.670 -0.17 +0.15    -0.228    13.596
ATOM     10  O   UNL d   1       8.083 -11.941   0.332 -0.29 +0.06    -0.303    13.596
ATOM     11  H   UNL d   1       7.803 -12.351  -0.508 +0.09 -0.00    +0.222    13.596
ATOM     12  O   UNL d   1       6.270 -12.629   1.871 -0.13 +0.04    -0.303    13.596
ATOM     13  H   UNL d   1       5.687 -12.669   1.079 +0.10 +0.02    +0.222    13.596
ATOM     14  O   UNL d   1       5.064 -14.424   1.032 -0.06 -0.06    -0.278    13.596
ATOM     15  P   UNL d   1       4.567 -13.848  -0.377 -0.12 +0.20    +0.473    13.596
ATOM     16  O   UNL d   1       3.469 -12.832  -0.339 -0.69 -0.18    -0.228    13.596
ATOM     17  O   UNL d   1       5.896 -13.295  -1.060 -0.14 -0.12    -0.303    13.596
ATOM     18  H   UNL d   1       6.580 -13.101  -0.391 +0.08 +0.04    +0.222    13.596
ATOM     19  O   UNL d   1       4.273 -15.143  -1.253 -0.10 -0.04    -0.303    13.596
ATOM     20  H   UNL d   1       3.980 -15.892  -0.702 +0.05 +0.03    +0.222    13.596
ATOM     21  O   UNL d   1       8.495 -15.156   3.513 -0.01 +0.04    -0.278    13.596
ATOM     22  P   UNL d   1       9.520 -16.174   2.837 +0.01 -0.05    +0.473    13.596
ATOM     23  O   UNL d   1       9.052 -17.561   2.553 +0.00 +0.01    -0.228    13.596
ATOM     24  O   UNL d   1       9.996 -15.355   1.557 -0.01 +0.04    -0.303    13.596
ATOM     25  H   UNL d   1       9.778 -14.400   1.704 +0.04 -0.05    +0.222    13.596
ATOM     26  O   UNL d   1      10.792 -16.045   3.804 -0.00 +0.04    -0.303    13.596
ATOM     27  H   UNL d   1      11.328 -16.862   3.741 +0.01 -0.02    +0.222    13.596
ATOM     28  O   UNL d   1       3.615 -16.615   1.411 -0.14 -0.21    -0.278    13.596
ATOM     29  P   UNL d   1       2.859 -17.911   0.876 -0.04 +0.32    +0.473    13.596
ATOM     30  O   UNL d   1       1.731 -18.387   1.717 -0.59 -0.32    -0.228    13.596
ATOM     31  O   UNL d   1       2.505 -17.434  -0.610 -0.03 -0.05    -0.303    13.596
ATOM     32  H   UNL d   1       2.601 -16.454  -0.657 +0.05 +0.03    +0.222    13.596
ATOM     33  O   UNL d   1       4.062 -18.927   0.642 -0.01 -0.09    -0.303    13.596
ATOM     34  H   UNL d   1       4.633 -18.940   1.449 +0.01 +0.08    +0.222    13.596
ATOM     35  O   UNL d   1       6.088 -15.423   5.145 -0.01 -0.06    -0.278    13.596
ATOM     36  P   UNL d   1       4.906 -14.360   5.284 -0.01 +0.16    +0.473    13.596
ATOM     37  O   UNL d   1       3.528 -14.935   5.366 -0.58 -0.25    -0.228    13.596
ATOM     38  O   UNL d   1       5.353 -13.544   6.577 -0.04 -0.02    -0.303    13.596
ATOM     39  H   UNL d   1       6.325 -13.623   6.686 +0.05 -0.01    +0.222    13.596
ATOM     40  O   UNL d   1       5.202 -13.363   4.081 -0.06 -0.03    -0.303    13.596
ATOM     41  H   UNL d   1       5.087 -13.801   3.209 +0.08 +0.04    +0.222    13.596
ATOM     42  O   UNL d   1       4.496 -17.568   3.980 -0.06 -0.35    -0.278    13.596
ATOM     43  P   UNL d   1       5.200 -18.963   3.659 -0.03 +0.22    +0.473    13.596
ATOM     44  O   UNL d   1       6.394 -18.940   2.768 -0.00 -0.04    -0.228    13.596
ATOM     45  O   UNL d   1       5.481 -19.554   5.109 -0.00 -0.09    -0.303    13.596
ATOM     46  H   UNL d   1       6.175 -20.243   5.086 +0.01 +0.03    +0.222    13.596
ATOM     47  O   UNL d   1       3.984 -19.881   3.162 -0.04 -0.17    -0.303    13.596
ATOM     48  H   UNL d   1       3.353 -19.333   2.651 +0.01 +0.21    +0.222    13.596
TER
ENDMDL
MODEL        7
USER    Run = 7
USER    Cluster Rank = 80
USER    Number of conformations in this cluster = 1
USER  
USER    RMSD from reference structure       = 17.785 A
USER  
USER    Estimated Free Energy of Binding    =   +3.89 kcal/mol  [=(1)+(2)+(3)-(4)]
USER    
USER    (1) Final Intermolecular Energy     =   -3.27 kcal/mol
USER        vdW + Hbond + desolv Energy     =   -3.22 kcal/mol
USER        Electrostatic Energy            =   -0.05 kcal/mol
USER    (2) Final Total Internal Energy     =  -15.22 kcal/mol
USER    (3) Torsional Free Energy           =   +7.16 kcal/mol
USER    (4) Unbound System's Energy  [=(2)] =  -15.22 kcal/mol
USER    
USER    
USER  
USER    DPF = D:/Protein_go_brrr/autodock/final/AncMH_nat/IHP/dock.dpf
USER    NEWDPF move	IHP_ideal_opt.pdbqt
USER    NEWDPF about	0.035000 0.082000 -0.065000
USER    NEWDPF tran0	-7.376286 19.034985 4.063091
USER    NEWDPF axisangle0	-0.081635 0.229888 -0.969787 -136.035041
USER    NEWDPF quaternion0	-0.075700 0.213175 -0.899282 -0.374323
USER    NEWDPF dihe0	102.58 90.97 62.48 88.86 167.01 -143.67 -109.16 -22.11 25.13 54.68 63.30 128.82 -72.45 -70.01 66.03 60.56 -46.10 167.51 -147.56 -20.67 16.17 -26.60 175.87 10.09 
USER  
USER                              x       y       z    vdW   Elec        q     RMS 
ATOM      1  C   UNL d   1      -8.599  18.451   5.135 -0.15 -0.02    +0.194    17.785
ATOM      2  C   UNL d   1      -8.340  19.958   5.186 -0.05 -0.00    +0.194    17.785
ATOM      3  C   UNL d   1      -6.843  20.276   5.161 -0.05 +0.01    +0.194    17.785
ATOM      4  C   UNL d   1      -6.104  19.602   4.008 -0.07 +0.01    +0.194    17.785
ATOM      5  C   UNL d   1      -6.422  18.121   3.847 -0.06 -0.02    +0.194    17.785
ATOM      6  C   UNL d   1      -7.915  17.795   3.934 -0.15 -0.02    +0.194    17.785
ATOM      7  O   UNL d   1     -10.006  18.246   4.988 -0.09 +0.02    -0.278    17.785
ATOM      8  P   UNL d   1     -10.611  18.163   3.511 -0.07 +0.10    +0.473    17.785
ATOM      9  O   UNL d   1      -9.768  18.774   2.449 -0.13 -0.10    -0.228    17.785
ATOM     10  O   UNL d   1     -10.872  16.605   3.287 -0.21 +0.01    -0.303    17.785
ATOM     11  H   UNL d   1     -10.046  16.110   3.440 +0.13 -0.01    +0.222    17.785
ATOM     12  O   UNL d   1     -12.089  18.732   3.638 -0.10 -0.09    -0.303    17.785
ATOM     13  H   UNL d   1     -12.138  19.563   4.163 +0.04 +0.05    +0.222    17.785
ATOM     14  O   UNL d   1      -8.957  20.577   4.051 -0.01 -0.03    -0.278    17.785
ATOM     15  P   UNL d   1     -10.223  21.513   4.347 +0.01 +0.05    +0.473    17.785
ATOM     16  O   UNL d   1     -10.845  21.393   5.703 -0.00 +0.00    -0.228    17.785
ATOM     17  O   UNL d   1      -9.698  22.984   4.036 +0.00 -0.03    -0.303    17.785
ATOM     18  H   UNL d   1      -8.752  23.075   4.261 +0.00 +0.01    +0.222    17.785
ATOM     19  O   UNL d   1     -11.201  21.256   3.119 -0.03 -0.11    -0.303    17.785
ATOM     20  H   UNL d   1     -11.094  20.358   2.754 +0.02 +0.13    +0.222    17.785
ATOM     21  O   UNL d   1      -8.019  16.385   4.112 -0.07 +0.09    -0.278    17.785
ATOM     22  P   UNL d   1      -8.028  15.424   2.838 -0.30 -0.03    +0.473    17.785
ATOM     23  O   UNL d   1      -6.741  14.798   2.419 -0.94 -0.01    -0.228    17.785
ATOM     24  O   UNL d   1      -9.180  14.393   3.216 -0.40 +0.03    -0.303    17.785
ATOM     25  H   UNL d   1     -10.001  14.655   2.727 +0.05 -0.02    +0.222    17.785
ATOM     26  O   UNL d   1      -8.753  16.343   1.743 -0.03 -0.06    -0.303    17.785
ATOM     27  H   UNL d   1      -8.407  17.257   1.809 +0.11 +0.04    +0.222    17.785
ATOM     28  O   UNL d   1      -6.706  21.673   4.933 -0.00 -0.02    -0.278    17.785
ATOM     29  P   UNL d   1      -6.796  22.699   6.147 +0.01 +0.03    +0.473    17.785
ATOM     30  O   UNL d   1      -6.240  22.216   7.437 -0.02 -0.03    -0.228    17.785
ATOM     31  O   UNL d   1      -6.093  23.976   5.486 +0.00 -0.02    -0.303    17.785
ATOM     32  H   UNL d   1      -5.188  23.720   5.194 +0.00 +0.02    +0.222    17.785
ATOM     33  O   UNL d   1      -8.337  23.099   6.133 -0.00 -0.01    -0.303    17.785
ATOM     34  H   UNL d   1      -8.873  22.303   5.897 +0.01 +0.00    +0.222    17.785
ATOM     35  O   UNL d   1      -5.992  17.773   2.533 -0.23 -0.00    -0.278    17.785
ATOM     36  P   UNL d   1      -6.505  18.605   1.272 -0.09 +0.03    +0.473    17.785
ATOM     37  O   UNL d   1      -7.467  19.709   1.576 -0.04 -0.03    -0.228    17.785
ATOM     38  O   UNL d   1      -5.134  19.092   0.624 -0.12 +0.01    -0.303    17.785
ATOM     39  H   UNL d   1      -4.543  19.425   1.334 +0.06 +0.00    +0.222    17.785
ATOM     40  O   UNL d   1      -7.006  17.459   0.290 -0.25 -0.03    -0.303    17.785
ATOM     41  H   UNL d   1      -7.078  16.593   0.748 +0.13 +0.03    +0.222    17.785
ATOM     42  O   UNL d   1      -4.706  19.704   4.296 -0.06 -0.03    -0.278    17.785
ATOM     43  P   UNL d   1      -3.846  20.826   3.557 -0.01 +0.05    +0.473    17.785
ATOM     44  O   UNL d   1      -2.426  20.505   3.239 -0.08 -0.03    -0.228    17.785
ATOM     45  O   UNL d   1      -4.737  21.168   2.284 -0.01 -0.02    -0.303    17.785
ATOM     46  H   UNL d   1      -5.473  20.532   2.182 +0.04 +0.01    +0.222    17.785
ATOM     47  O   UNL d   1      -4.073  22.123   4.472 -0.00 -0.04    -0.303    17.785
ATOM     48  H   UNL d   1      -5.034  22.263   4.599 +0.01 +0.02    +0.222    17.785
TER
ENDMDL
MODEL       25
USER    Run = 25
USER    Cluster Rank = 81
USER    Number of conformations in this cluster = 1
USER  
USER    RMSD from reference structure       = 19.202 A
USER  
USER    Estimated Free Energy of Binding    =   +3.93 kcal/mol  [=(1)+(2)+(3)-(4)]
USER    
USER    (1) Final Intermolecular Energy     =   -3.22 kcal/mol
USER        vdW + Hbond + desolv Energy     =   -3.16 kcal/mol
USER        Electrostatic Energy            =   -0.07 kcal/mol
USER    (2) Final Total Internal Energy     =  -13.40 kcal/mol
USER    (3) Torsional Free Energy           =   +7.16 kcal/mol
USER    (4) Unbound System's Energy  [=(2)] =  -13.40 kcal/mol
USER    
USER    
USER  
USER    DPF = D:/Protein_go_brrr/autodock/final/AncMH_nat/IHP/dock.dpf
USER    NEWDPF move	IHP_ideal_opt.pdbqt
USER    NEWDPF about	0.035000 0.082000 -0.065000
USER    NEWDPF tran0	3.699731 -13.548176 16.806129
USER    NEWDPF axisangle0	-0.366590 0.281980 0.886622 -91.739548
USER    NEWDPF quaternion0	-0.263123 0.202394 0.636381 -0.696292
USER    NEWDPF dihe0	-160.87 -22.21 53.42 82.60 104.06 133.81 10.72 -126.86 96.77 -35.99 -137.60 164.66 15.69 117.60 57.89 -115.72 -139.28 -179.96 -138.12 -17.83 -180.00 17.49 -11.34 169.89 
USER  
USER                              x       y       z    vdW   Elec        q     RMS 
ATOM      1  C   UNL d   1       4.675 -12.123  16.747 -0.04 -0.04    +0.194    19.202
ATOM      2  C   UNL d   1       5.358 -13.368  17.316 -0.01 -0.03    +0.194    19.202
ATOM      3  C   UNL d   1       4.438 -14.132  18.271 -0.01 -0.03    +0.194    19.202
ATOM      4  C   UNL d   1       3.072 -14.449  17.665 -0.02 -0.03    +0.194    19.202
ATOM      5  C   UNL d   1       2.405 -13.261  16.984 -0.08 -0.04    +0.194    19.202
ATOM      6  C   UNL d   1       3.342 -12.460  16.078 -0.12 -0.05    +0.194    19.202
ATOM      7  O   UNL d   1       5.527 -11.567  15.743 -0.04 +0.06    -0.278    19.202
ATOM      8  P   UNL d   1       5.205 -11.888  14.211 -0.09 -0.13    +0.473    19.202
ATOM      9  O   UNL d   1       3.943 -11.292  13.694 -0.28 +0.07    -0.228    19.202
ATOM     10  O   UNL d   1       6.502 -11.386  13.430 -0.07 +0.11    -0.303    19.202
ATOM     11  H   UNL d   1       7.302 -11.635  13.930 +0.03 -0.06    +0.222    19.202
ATOM     12  O   UNL d   1       5.330 -13.466  14.084 -0.03 +0.05    -0.303    19.202
ATOM     13  H   UNL d   1       6.250 -13.791  14.204 +0.02 -0.04    +0.222    19.202
ATOM     14  O   UNL d   1       5.719 -14.238  16.236 -0.01 +0.04    -0.278    19.202
ATOM     15  P   UNL d   1       7.286 -14.452  15.982 -0.00 -0.06    +0.473    19.202
ATOM     16  O   UNL d   1       7.667 -15.479  14.963 -0.00 +0.03    -0.228    19.202
ATOM     17  O   UNL d   1       7.822 -12.995  15.622 -0.00 +0.05    -0.303    19.202
ATOM     18  H   UNL d   1       7.207 -12.533  15.020 +0.02 -0.04    +0.222    19.202
ATOM     19  O   UNL d   1       7.897 -14.667  17.435 +0.00 +0.03    -0.303    19.202
ATOM     20  H   UNL d   1       7.223 -14.977  18.068 +0.00 -0.02    +0.222    19.202
ATOM     21  O   UNL d   1       2.689 -11.223  15.800 -0.14 +0.13    -0.278    19.202
ATOM     22  P   UNL d   1       2.678 -10.069  16.901 -0.13 -0.20    +0.473    19.202
ATOM     23  O   UNL d   1       3.816  -9.105  16.922 -0.17 +0.09    -0.228    19.202
ATOM     24  O   UNL d   1       1.249  -9.409  16.667 -0.22 +0.20    -0.303    19.202
ATOM     25  H   UNL d   1       0.606 -10.133  16.458 -0.43 -0.17    +0.222    19.202
ATOM     26  O   UNL d   1       2.440 -10.906  18.248 -0.06 +0.08    -0.303    19.202
ATOM     27  H   UNL d   1       1.785 -11.612  18.076 +0.05 -0.06    +0.222    19.202
ATOM     28  O   UNL d   1       5.039 -15.395  18.526 -0.00 +0.03    -0.278    19.202
ATOM     29  P   UNL d   1       5.258 -15.895  20.022 +0.00 -0.05    +0.473    19.202
ATOM     30  O   UNL d   1       6.526 -16.625  20.275 +0.00 +0.02    -0.228    19.202
ATOM     31  O   UNL d   1       5.043 -14.518  20.810 +0.00 +0.03    -0.303    19.202
ATOM     32  H   UNL d   1       4.122 -14.206  20.653 +0.00 -0.02    +0.222    19.202
ATOM     33  O   UNL d   1       3.904 -16.681  20.313 +0.00 +0.03    -0.303    19.202
ATOM     34  H   UNL d   1       3.157 -16.034  20.341 +0.00 -0.02    +0.222    19.202
ATOM     35  O   UNL d   1       1.386 -13.813  16.153 -0.10 +0.06    -0.278    19.202
ATOM     36  P   UNL d   1      -0.143 -13.427  16.389 -0.10 -0.10    +0.473    19.202
ATOM     37  O   UNL d   1      -0.923 -14.374  17.245 -0.04 +0.03    -0.228    19.202
ATOM     38  O   UNL d   1      -0.019 -11.956  16.987 -0.17 +0.11    -0.303    19.202
ATOM     39  H   UNL d   1       0.812 -11.546  16.662 -0.31 -0.12    +0.222    19.202
ATOM     40  O   UNL d   1      -0.668 -13.194  14.906 -0.20 +0.07    -0.303    19.202
ATOM     41  H   UNL d   1      -0.384 -12.323  14.551 -0.44 -0.09    +0.222    19.202
ATOM     42  O   UNL d   1       2.222 -14.847  18.746 -0.00 +0.03    -0.278    19.202
ATOM     43  P   UNL d   1       1.977 -13.830  19.950 -0.00 -0.06    +0.473    19.202
ATOM     44  O   UNL d   1       2.072 -14.370  21.335 -0.00 +0.02    -0.228    19.202
ATOM     45  O   UNL d   1       3.009 -12.661  19.634 -0.00 +0.05    -0.303    19.202
ATOM     46  H   UNL d   1       2.680 -11.797  19.954 +0.02 -0.04    +0.222    19.202
ATOM     47  O   UNL d   1       0.580 -13.142  19.570 -0.01 +0.04    -0.303    19.202
ATOM     48  H   UNL d   1       0.384 -13.310  18.625 +0.03 -0.03    +0.222    19.202
TER
ENDMDL
MODEL       50
USER    Run = 50
USER    Cluster Rank = 82
USER    Number of conformations in this cluster = 1
USER  
USER    RMSD from reference structure       = 20.180 A
USER  
USER    Estimated Free Energy of Binding    =   +3.96 kcal/mol  [=(1)+(2)+(3)-(4)]
USER    
USER    (1) Final Intermolecular Energy     =   -3.20 kcal/mol
USER        vdW + Hbond + desolv Energy     =   -3.12 kcal/mol
USER        Electrostatic Energy            =   -0.08 kcal/mol
USER    (2) Final Total Internal Energy     =  -12.65 kcal/mol
USER    (3) Torsional Free Energy           =   +7.16 kcal/mol
USER    (4) Unbound System's Energy  [=(2)] =  -12.65 kcal/mol
USER    
USER    
USER  
USER    DPF = D:/Protein_go_brrr/autodock/final/AncMH_nat/IHP/dock.dpf
USER    NEWDPF move	IHP_ideal_opt.pdbqt
USER    NEWDPF about	0.035000 0.082000 -0.065000
USER    NEWDPF tran0	-7.128093 20.044535 -9.752047
USER    NEWDPF axisangle0	0.025924 -0.779961 -0.625291 145.938257
USER    NEWDPF quaternion0	0.024787 -0.745757 -0.597870 0.292887
USER    NEWDPF dihe0	-114.14 -4.84 126.10 -34.18 -47.81 156.66 -53.24 -12.32 17.29 118.94 -85.51 -96.53 93.43 -149.78 -118.96 27.94 -78.38 -4.71 -23.26 -29.87 145.18 -39.37 -175.21 139.77 
USER  
USER                              x       y       z    vdW   Elec        q     RMS 
ATOM      1  C   UNL d   1      -7.499  20.902 -11.205 -0.02 -0.00    +0.194    20.180
ATOM      2  C   UNL d   1      -6.305  19.948 -11.287 -0.06 -0.00    +0.194    20.180
ATOM      3  C   UNL d   1      -5.413  20.051 -10.048 -0.09 -0.01    +0.194    20.180
ATOM      4  C   UNL d   1      -6.182  19.902  -8.738 -0.09 -0.01    +0.194    20.180
ATOM      5  C   UNL d   1      -7.445  20.751  -8.660 -0.05 +0.00    +0.194    20.180
ATOM      6  C   UNL d   1      -8.307  20.696  -9.923 -0.02 +0.00    +0.194    20.180
ATOM      7  O   UNL d   1      -8.368  20.624 -12.306 -0.00 +0.00    -0.278    20.180
ATOM      8  P   UNL d   1      -9.161  21.839 -12.973 +0.01 -0.01    +0.473    20.180
ATOM      9  O   UNL d   1      -9.356  21.734 -14.444 +0.00 +0.00    -0.228    20.180
ATOM     10  O   UNL d   1     -10.533  21.898 -12.160 +0.00 +0.00    -0.303    20.180
ATOM     11  H   UNL d   1     -10.423  22.464 -11.374 +0.00 -0.00    +0.222    20.180
ATOM     12  O   UNL d   1      -8.417  23.147 -12.464 +0.00 +0.00    -0.303    20.180
ATOM     13  H   UNL d   1      -8.286  23.161 -11.489 +0.00 -0.00    +0.222    20.180
ATOM     14  O   UNL d   1      -6.789  18.603 -11.391 -0.05 -0.01    -0.278    20.180
ATOM     15  P   UNL d   1      -6.763  17.944 -12.850 -0.03 +0.01    +0.473    20.180
ATOM     16  O   UNL d   1      -8.021  18.043 -13.654 -0.01 +0.00    -0.228    20.180
ATOM     17  O   UNL d   1      -5.518  18.634 -13.565 -0.02 +0.01    -0.303    20.180
ATOM     18  H   UNL d   1      -4.827  18.871 -12.917 +0.03 -0.01    +0.222    20.180
ATOM     19  O   UNL d   1      -6.217  16.470 -12.610 -0.46 -0.04    -0.303    20.180
ATOM     20  H   UNL d   1      -5.251  16.418 -12.734 +0.05 +0.02    +0.222    20.180
ATOM     21  O   UNL d   1      -9.235  21.775  -9.836 +0.00 -0.00    -0.278    20.180
ATOM     22  P   UNL d   1      -8.740  23.206  -9.335 +0.01 +0.00    +0.473    20.180
ATOM     23  O   UNL d   1      -8.773  23.491  -7.871 +0.00 -0.00    -0.228    20.180
ATOM     24  O   UNL d   1      -7.298  23.304 -10.002 +0.00 +0.00    -0.303    20.180
ATOM     25  H   UNL d   1      -6.623  23.304  -9.277 +0.01 -0.00    +0.222    20.180
ATOM     26  O   UNL d   1      -9.601  24.191 -10.262 +0.00 +0.00    -0.303    20.180
ATOM     27  H   UNL d   1      -9.950  23.690 -11.027 +0.00 -0.00    +0.222    20.180
ATOM     28  O   UNL d   1      -4.507  18.955 -10.080 -0.05 +0.01    -0.278    20.180
ATOM     29  P   UNL d   1      -3.327  18.918 -11.149 -0.11 -0.02    +0.473    20.180
ATOM     30  O   UNL d   1      -3.231  20.103 -12.039 -0.03 +0.01    -0.228    20.180
ATOM     31  O   UNL d   1      -2.084  18.634 -10.182 -0.15 +0.07    -0.303    20.180
ATOM     32  H   UNL d   1      -2.411  18.597  -9.253 -0.20 -0.05    +0.222    20.180
ATOM     33  O   UNL d   1      -3.556  17.507 -11.851 -0.15 -0.01    -0.303    20.180
ATOM     34  H   UNL d   1      -4.514  17.411 -12.073 +0.04 +0.02    +0.222    20.180
ATOM     35  O   UNL d   1      -8.220  20.196  -7.599 -0.04 -0.01    -0.278    20.180
ATOM     36  P   UNL d   1      -8.399  18.615  -7.476 -0.11 +0.04    +0.473    20.180
ATOM     37  O   UNL d   1      -8.459  17.870  -8.771 -0.71 -0.06    -0.228    20.180
ATOM     38  O   UNL d   1      -7.166  18.219  -6.549 -0.21 +0.02    -0.303    20.180
ATOM     39  H   UNL d   1      -6.342  18.583  -6.938 -0.47 -0.07    +0.222    20.180
ATOM     40  O   UNL d   1      -9.658  18.491  -6.512 -0.08 -0.04    -0.303    20.180
ATOM     41  H   UNL d   1     -10.500  18.668  -6.988 +0.04 +0.02    +0.222    20.180
ATOM     42  O   UNL d   1      -5.311  20.347  -7.692 -0.09 +0.02    -0.278    20.180
ATOM     43  P   UNL d   1      -4.207  21.449  -8.025 -0.01 -0.02    +0.473    20.180
ATOM     44  O   UNL d   1      -4.609  22.577  -8.911 -0.01 +0.01    -0.228    20.180
ATOM     45  O   UNL d   1      -3.717  21.900  -6.580 -0.00 +0.01    -0.303    20.180
ATOM     46  H   UNL d   1      -3.299  22.783  -6.603 +0.01 -0.00    +0.222    20.180
ATOM     47  O   UNL d   1      -2.962  20.578  -8.535 -0.06 +0.03    -0.303    20.180
ATOM     48  H   UNL d   1      -3.089  20.356  -9.480 +0.04 -0.02    +0.222    20.180
TER
ENDMDL
MODEL       53
USER    Run = 53
USER    Cluster Rank = 83
USER    Number of conformations in this cluster = 1
USER  
USER    RMSD from reference structure       = 16.054 A
USER  
USER    Estimated Free Energy of Binding    =   +3.99 kcal/mol  [=(1)+(2)+(3)-(4)]
USER    
USER    (1) Final Intermolecular Energy     =   -3.17 kcal/mol
USER        vdW + Hbond + desolv Energy     =   -3.16 kcal/mol
USER        Electrostatic Energy            =   -0.01 kcal/mol
USER    (2) Final Total Internal Energy     =  -14.03 kcal/mol
USER    (3) Torsional Free Energy           =   +7.16 kcal/mol
USER    (4) Unbound System's Energy  [=(2)] =  -14.03 kcal/mol
USER    
USER    
USER  
USER    DPF = D:/Protein_go_brrr/autodock/final/AncMH_nat/IHP/dock.dpf
USER    NEWDPF move	IHP_ideal_opt.pdbqt
USER    NEWDPF about	0.035000 0.082000 -0.065000
USER    NEWDPF tran0	16.584660 -10.104070 -2.606645
USER    NEWDPF axisangle0	0.677456 -0.387015 0.625518 -138.225172
USER    NEWDPF quaternion0	0.632936 -0.361581 0.584411 -0.356533
USER    NEWDPF dihe0	-67.78 10.40 60.04 37.59 26.30 -127.69 33.98 -66.97 -47.93 -30.84 43.11 -139.22 -152.93 161.49 -57.89 87.66 41.64 140.26 45.36 -10.60 176.98 -17.11 -26.00 -1.90 
USER  
USER                              x       y       z    vdW   Elec        q     RMS 
ATOM      1  C   UNL d   1      17.812 -10.417  -1.432 -0.03 -0.02    +0.194    16.054
ATOM      2  C   UNL d   1      18.268  -9.654  -2.677 -0.07 -0.02    +0.194    16.054
ATOM      3  C   UNL d   1      17.676 -10.250  -3.955 -0.09 -0.01    +0.194    16.054
ATOM      4  C   UNL d   1      16.158 -10.408  -3.899 -0.10 -0.00    +0.194    16.054
ATOM      5  C   UNL d   1      15.650 -11.062  -2.620 -0.10 -0.02    +0.194    16.054
ATOM      6  C   UNL d   1      16.288 -10.507  -1.345 -0.08 -0.02    +0.194    16.054
ATOM      7  O   UNL d   1      18.263  -9.700  -0.280 -0.01 +0.03    -0.278    16.054
ATOM      8  P   UNL d   1      19.800  -9.822   0.136 +0.00 -0.05    +0.473    16.054
ATOM      9  O   UNL d   1      20.077 -10.750   1.266 -0.00 +0.02    -0.228    16.054
ATOM     10  O   UNL d   1      20.535 -10.241  -1.217 -0.00 +0.03    -0.303    16.054
ATOM     11  H   UNL d   1      21.339  -9.701  -1.333 +0.01 -0.02    +0.222    16.054
ATOM     12  O   UNL d   1      20.294  -8.324   0.332 -0.00 +0.03    -0.303    16.054
ATOM     13  H   UNL d   1      19.872  -7.694  -0.294 +0.01 -0.03    +0.222    16.054
ATOM     14  O   UNL d   1      17.843  -8.289  -2.570 -0.13 +0.02    -0.278    16.054
ATOM     15  P   UNL d   1      18.993  -7.176  -2.609 -0.07 -0.06    +0.473    16.054
ATOM     16  O   UNL d   1      18.806  -5.984  -1.723 -0.08 +0.04    -0.228    16.054
ATOM     17  O   UNL d   1      20.326  -7.985  -2.283 -0.01 +0.03    -0.303    16.054
ATOM     18  H   UNL d   1      20.157  -8.695  -1.635 +0.01 -0.02    +0.222    16.054
ATOM     19  O   UNL d   1      19.184  -6.857  -4.156 -0.09 +0.03    -0.303    16.054
ATOM     20  H   UNL d   1      18.867  -7.589  -4.717 +0.04 -0.01    +0.222    16.054
ATOM     21  O   UNL d   1      15.982 -11.426  -0.298 -0.02 +0.04    -0.278    16.054
ATOM     22  P   UNL d   1      16.749 -12.823  -0.221 +0.01 -0.06    +0.473    16.054
ATOM     23  O   UNL d   1      17.264 -13.414  -1.490 -0.00 +0.03    -0.228    16.054
ATOM     24  O   UNL d   1      17.863 -12.523   0.875 -0.00 +0.04    -0.303    16.054
ATOM     25  H   UNL d   1      18.206 -11.606   0.723 +0.01 -0.03    +0.222    16.054
ATOM     26  O   UNL d   1      15.708 -13.721   0.602 -0.00 +0.04    -0.303    16.054
ATOM     27  H   UNL d   1      14.855 -13.746   0.122 +0.02 -0.03    +0.222    16.054
ATOM     28  O   UNL d   1      17.920  -9.329  -5.011 -0.19 -0.00    -0.278    16.054
ATOM     29  P   UNL d   1      19.215  -9.480  -5.926 -0.04 -0.04    +0.473    16.054
ATOM     30  O   UNL d   1      19.306 -10.742  -6.704 -0.01 +0.03    -0.228    16.054
ATOM     31  O   UNL d   1      19.126  -8.117  -6.761 -0.07 +0.02    -0.303    16.054
ATOM     32  H   UNL d   1      19.559  -7.401  -6.240 +0.04 -0.02    +0.222    16.054
ATOM     33  O   UNL d   1      20.390  -9.184  -4.894 -0.02 +0.03    -0.303    16.054
ATOM     34  H   UNL d   1      19.998  -8.873  -4.041 +0.02 -0.02    +0.222    16.054
ATOM     35  O   UNL d   1      14.257 -10.759  -2.558 -0.18 +0.06    -0.278    16.054
ATOM     36  P   UNL d   1      13.175 -11.879  -2.903 -0.13 -0.15    +0.473    16.054
ATOM     37  O   UNL d   1      12.782 -12.768  -1.767 -0.11 +0.08    -0.228    16.054
ATOM     38  O   UNL d   1      11.981 -11.007  -3.495 -0.25 +0.15    -0.303    16.054
ATOM     39  H   UNL d   1      11.189 -11.118  -2.925 -0.47 -0.17    +0.222    16.054
ATOM     40  O   UNL d   1      13.807 -12.580  -4.183 -0.04 +0.06    -0.303    16.054
ATOM     41  H   UNL d   1      13.749 -12.007  -4.979 +0.06 -0.05    +0.222    16.054
ATOM     42  O   UNL d   1      15.790 -11.264  -4.985 -0.11 +0.03    -0.278    16.054
ATOM     43  P   UNL d   1      14.932 -10.661  -6.186 -0.12 -0.07    +0.473    16.054
ATOM     44  O   UNL d   1      14.450 -11.608  -7.230 -0.04 +0.05    -0.228    16.054
ATOM     45  O   UNL d   1      13.770  -9.881  -5.428 -0.25 +0.08    -0.303    16.054
ATOM     46  H   UNL d   1      13.558 -10.301  -4.570 +0.08 -0.05    +0.222    16.054
ATOM     47  O   UNL d   1      15.843  -9.453  -6.716 -0.57 +0.01    -0.303    16.054
ATOM     48  H   UNL d   1      16.783  -9.728  -6.704 +0.04 -0.01    +0.222    16.054
TER
ENDMDL
MODEL       45
USER    Run = 45
USER    Cluster Rank = 84
USER    Number of conformations in this cluster = 1
USER  
USER    RMSD from reference structure       = 14.220 A
USER  
USER    Estimated Free Energy of Binding    =   +4.03 kcal/mol  [=(1)+(2)+(3)-(4)]
USER    
USER    (1) Final Intermolecular Energy     =   -3.13 kcal/mol
USER        vdW + Hbond + desolv Energy     =   -2.88 kcal/mol
USER        Electrostatic Energy            =   -0.26 kcal/mol
USER    (2) Final Total Internal Energy     =  -12.80 kcal/mol
USER    (3) Torsional Free Energy           =   +7.16 kcal/mol
USER    (4) Unbound System's Energy  [=(2)] =  -12.80 kcal/mol
USER    
USER    
USER  
USER    DPF = D:/Protein_go_brrr/autodock/final/AncMH_nat/IHP/dock.dpf
USER    NEWDPF move	IHP_ideal_opt.pdbqt
USER    NEWDPF about	0.035000 0.082000 -0.065000
USER    NEWDPF tran0	-14.919174 -5.161162 -6.931213
USER    NEWDPF axisangle0	0.913129 0.402777 -0.062983 -169.746946
USER    NEWDPF quaternion0	0.909476 0.401166 -0.062731 -0.089355
USER    NEWDPF dihe0	-109.68 36.84 138.80 3.51 -45.27 -120.82 -31.67 -20.73 -161.46 114.30 121.13 -47.31 -152.46 81.93 -15.04 48.93 -13.10 -121.03 31.91 -33.01 -48.10 -38.21 136.07 10.30 
USER  
USER                              x       y       z    vdW   Elec        q     RMS 
ATOM      1  C   UNL d   1     -14.771  -3.841  -8.036 -0.00 +0.05    +0.194    14.220
ATOM      2  C   UNL d   1     -16.187  -4.127  -7.534 +0.00 +0.05    +0.194    14.220
ATOM      3  C   UNL d   1     -16.491  -5.627  -7.517 +0.00 +0.05    +0.194    14.220
ATOM      4  C   UNL d   1     -15.439  -6.445  -6.773 -0.01 +0.07    +0.194    14.220
ATOM      5  C   UNL d   1     -14.004  -6.110  -7.160 -0.05 +0.09    +0.194    14.220
ATOM      6  C   UNL d   1     -13.717  -4.609  -7.237 -0.05 +0.07    +0.194    14.220
ATOM      7  O   UNL d   1     -14.508  -2.447  -7.858 -0.00 -0.05    -0.278    14.220
ATOM      8  P   UNL d   1     -14.861  -1.450  -9.055 +0.01 +0.05    +0.473    14.220
ATOM      9  O   UNL d   1     -13.702  -1.027  -9.887 -0.00 -0.01    -0.228    14.220
ATOM     10  O   UNL d   1     -15.981  -2.224  -9.886 +0.00 -0.03    -0.303    14.220
ATOM     11  H   UNL d   1     -16.865  -1.964  -9.565 +0.00 +0.02    +0.222    14.220
ATOM     12  O   UNL d   1     -15.696  -0.278  -8.382 +0.00 -0.03    -0.303    14.220
ATOM     13  H   UNL d   1     -15.932  -0.461  -7.445 +0.01 +0.03    +0.222    14.220
ATOM     14  O   UNL d   1     -16.322  -3.619  -6.201 -0.01 -0.10    -0.278    14.220
ATOM     15  P   UNL d   1     -17.025  -2.189  -6.047 +0.01 +0.15    +0.473    14.220
ATOM     16  O   UNL d   1     -18.014  -2.043  -4.932 -0.00 -0.08    -0.228    14.220
ATOM     17  O   UNL d   1     -15.808  -1.169  -5.930 -0.00 -0.09    -0.303    14.220
ATOM     18  H   UNL d   1     -15.107  -1.382  -6.575 +0.02 +0.05    +0.222    14.220
ATOM     19  O   UNL d   1     -17.579  -1.861  -7.501 +0.00 -0.05    -0.303    14.220
ATOM     20  H   UNL d   1     -16.870  -1.886  -8.171 +0.00 +0.03    +0.222    14.220
ATOM     21  O   UNL d   1     -12.478  -4.461  -7.927 -0.07 -0.11    -0.278    14.220
ATOM     22  P   UNL d   1     -11.536  -3.216  -7.604 -0.09 +0.09    +0.473    14.220
ATOM     23  O   UNL d   1     -11.802  -2.434  -6.362 -0.17 -0.04    -0.228    14.220
ATOM     24  O   UNL d   1     -10.089  -3.874  -7.680 -0.13 -0.04    -0.303    14.220
ATOM     25  H   UNL d   1      -9.708  -3.889  -6.765 -0.44 -0.02    +0.222    14.220
ATOM     26  O   UNL d   1     -11.598  -2.394  -8.979 -0.04 -0.03    -0.303    14.220
ATOM     27  H   UNL d   1     -12.511  -2.070  -9.119 +0.03 +0.02    +0.222    14.220
ATOM     28  O   UNL d   1     -17.698  -5.811  -6.789 +0.00 -0.07    -0.278    14.220
ATOM     29  P   UNL d   1     -19.094  -5.379  -7.421 +0.01 +0.08    +0.473    14.220
ATOM     30  O   UNL d   1     -19.128  -5.300  -8.904 +0.00 -0.03    -0.228    14.220
ATOM     31  O   UNL d   1     -20.058  -6.452  -6.729 +0.00 -0.05    -0.303    14.220
ATOM     32  H   UNL d   1     -19.608  -6.808  -5.928 +0.00 +0.05    +0.222    14.220
ATOM     33  O   UNL d   1     -19.423  -4.042  -6.622 +0.00 -0.06    -0.303    14.220
ATOM     34  H   UNL d   1     -18.586  -3.534  -6.487 +0.01 +0.05    +0.222    14.220
ATOM     35  O   UNL d   1     -13.188  -6.641  -6.118 -0.10 -0.15    -0.278    14.220
ATOM     36  P   UNL d   1     -12.756  -5.723  -4.888 -0.22 +0.28    +0.473    14.220
ATOM     37  O   UNL d   1     -13.738  -4.664  -4.498 -0.65 -0.22    -0.228    14.220
ATOM     38  O   UNL d   1     -12.477  -6.806  -3.754 -0.28 -0.15    -0.303    14.220
ATOM     39  H   UNL d   1     -11.589  -6.646  -3.368 -0.44 +0.02    +0.222    14.220
ATOM     40  O   UNL d   1     -11.304  -5.237  -5.319 -0.32 -0.13    -0.303    14.220
ATOM     41  H   UNL d   1     -11.342  -4.575  -6.044 +0.09 +0.09    +0.222    14.220
ATOM     42  O   UNL d   1     -15.659  -7.817  -7.119 -0.00 -0.09    -0.278    14.220
ATOM     43  P   UNL d   1     -16.432  -8.757  -6.088 +0.02 +0.13    +0.473    14.220
ATOM     44  O   UNL d   1     -15.684  -9.221  -4.887 -0.03 -0.07    -0.228    14.220
ATOM     45  O   UNL d   1     -17.738  -7.911  -5.755 +0.00 -0.08    -0.303    14.220
ATOM     46  H   UNL d   1     -18.166  -7.578  -6.569 +0.01 +0.05    +0.222    14.220
ATOM     47  O   UNL d   1     -17.025  -9.916  -7.024 +0.00 -0.05    -0.303    14.220
ATOM     48  H   UNL d   1     -16.821 -10.788  -6.626 +0.01 +0.03    +0.222    14.220
TER
ENDMDL
MODEL       97
USER    Run = 97
USER    Cluster Rank = 85
USER    Number of conformations in this cluster = 1
USER  
USER    RMSD from reference structure       = 20.539 A
USER  
USER    Estimated Free Energy of Binding    =   +4.05 kcal/mol  [=(1)+(2)+(3)-(4)]
USER    
USER    (1) Final Intermolecular Energy     =   -3.11 kcal/mol
USER        vdW + Hbond + desolv Energy     =   -2.98 kcal/mol
USER        Electrostatic Energy            =   -0.13 kcal/mol
USER    (2) Final Total Internal Energy     =  -15.84 kcal/mol
USER    (3) Torsional Free Energy           =   +7.16 kcal/mol
USER    (4) Unbound System's Energy  [=(2)] =  -15.84 kcal/mol
USER    
USER    
USER  
USER    DPF = D:/Protein_go_brrr/autodock/final/AncMH_nat/IHP/dock.dpf
USER    NEWDPF move	IHP_ideal_opt.pdbqt
USER    NEWDPF about	0.035000 0.082000 -0.065000
USER    NEWDPF tran0	-3.808983 -15.201365 17.806068
USER    NEWDPF axisangle0	0.793900 -0.425808 -0.434064 -112.837591
USER    NEWDPF quaternion0	0.661400 -0.354741 -0.361620 -0.553118
USER    NEWDPF dihe0	85.37 121.39 130.98 -12.55 106.77 78.80 -102.79 -105.76 75.10 75.82 137.08 122.19 -67.33 177.40 -179.33 50.86 54.83 -163.31 -148.62 3.99 13.25 -3.51 -175.23 17.85 
USER  
USER                              x       y       z    vdW   Elec        q     RMS 
ATOM      1  C   UNL d   1      -3.826 -16.545  16.721 -0.11 -0.02    +0.194    20.539
ATOM      2  C   UNL d   1      -4.057 -15.175  16.080 -0.08 -0.03    +0.194    20.539
ATOM      3  C   UNL d   1      -5.010 -14.314  16.911 -0.12 +0.00    +0.194    20.539
ATOM      4  C   UNL d   1      -4.598 -14.204  18.377 -0.04 -0.01    +0.194    20.539
ATOM      5  C   UNL d   1      -4.247 -15.537  19.025 -0.01 -0.01    +0.194    20.539
ATOM      6  C   UNL d   1      -3.343 -16.425  18.167 -0.03 -0.01    +0.194    20.539
ATOM      7  O   UNL d   1      -2.801 -17.215  15.984 -0.10 +0.03    -0.278    20.539
ATOM      8  P   UNL d   1      -1.281 -16.990  16.420 -0.01 -0.04    +0.473    20.539
ATOM      9  O   UNL d   1      -1.049 -15.825  17.318 -0.02 +0.02    -0.228    20.539
ATOM     10  O   UNL d   1      -0.856 -18.381  17.074 -0.01 +0.02    -0.303    20.539
ATOM     11  H   UNL d   1      -1.289 -18.481  17.942 +0.01 -0.02    +0.222    20.539
ATOM     12  O   UNL d   1      -0.456 -16.994  15.062 -0.04 +0.02    -0.303    20.539
ATOM     13  H   UNL d   1      -0.548 -16.158  14.552 +0.07 -0.02    +0.222    20.539
ATOM     14  O   UNL d   1      -2.801 -14.493  15.973 -0.09 +0.03    -0.278    20.539
ATOM     15  P   UNL d   1      -2.506 -13.752  14.584 -0.22 -0.07    +0.473    20.539
ATOM     16  O   UNL d   1      -1.215 -14.087  13.905 -0.27 +0.03    -0.228    20.539
ATOM     17  O   UNL d   1      -3.780 -14.086  13.688 -0.18 +0.05    -0.303    20.539
ATOM     18  H   UNL d   1      -4.591 -14.122  14.230 -0.30 -0.03    +0.222    20.539
ATOM     19  O   UNL d   1      -2.734 -12.210  14.901 -0.31 +0.07    -0.303    20.539
ATOM     20  H   UNL d   1      -3.679 -12.001  15.015 +0.04 -0.03    +0.222    20.539
ATOM     21  O   UNL d   1      -3.390 -17.732  18.734 -0.01 +0.02    -0.278    20.539
ATOM     22  P   UNL d   1      -2.352 -18.138  19.875 +0.00 -0.04    +0.473    20.539
ATOM     23  O   UNL d   1      -1.925 -19.564  19.965 -0.00 +0.02    -0.228    20.539
ATOM     24  O   UNL d   1      -1.170 -17.102  19.623 -0.00 +0.02    -0.303    20.539
ATOM     25  H   UNL d   1      -1.572 -16.221  19.412 +0.01 -0.02    +0.222    20.539
ATOM     26  O   UNL d   1      -3.051 -17.529  21.183 -0.00 +0.02    -0.303    20.539
ATOM     27  H   UNL d   1      -2.677 -16.643  21.365 +0.00 -0.02    +0.222    20.539
ATOM     28  O   UNL d   1      -4.946 -12.989  16.401 -0.13 -0.02    -0.278    20.539
ATOM     29  P   UNL d   1      -6.156 -12.394  15.553 -0.12 +0.27    +0.473    20.539
ATOM     30  O   UNL d   1      -7.484 -13.008  15.813 -0.56 -0.23    -0.228    20.539
ATOM     31  O   UNL d   1      -5.996 -10.838  15.892 -0.22 -0.10    -0.303    20.539
ATOM     32  H   UNL d   1      -5.943 -10.734  16.870 +0.10 +0.04    +0.222    20.539
ATOM     33  O   UNL d   1      -5.599 -12.488  14.064 -0.28 -0.19    -0.303    20.539
ATOM     34  H   UNL d   1      -4.675 -12.137  14.044 +0.10 +0.03    +0.222    20.539
ATOM     35  O   UNL d   1      -3.518 -15.213  20.207 -0.00 +0.02    -0.278    20.539
ATOM     36  P   UNL d   1      -2.372 -14.104  20.166 -0.01 -0.04    +0.473    20.539
ATOM     37  O   UNL d   1      -2.770 -12.748  20.658 -0.02 +0.02    -0.228    20.539
ATOM     38  O   UNL d   1      -1.218 -14.795  21.017 -0.00 +0.03    -0.303    20.539
ATOM     39  H   UNL d   1      -1.492 -15.709  21.248 +0.00 -0.02    +0.222    20.539
ATOM     40  O   UNL d   1      -1.855 -14.204  18.666 -0.02 +0.03    -0.303    20.539
ATOM     41  H   UNL d   1      -2.583 -14.424  18.043 +0.04 -0.02    +0.222    20.539
ATOM     42  O   UNL d   1      -5.724 -13.675  19.086 -0.02 +0.00    -0.278    20.539
ATOM     43  P   UNL d   1      -5.824 -12.098  19.307 -0.03 -0.00    +0.473    20.539
ATOM     44  O   UNL d   1      -5.809 -11.600  20.711 -0.02 +0.01    -0.228    20.539
ATOM     45  O   UNL d   1      -4.635 -11.543  18.407 -0.08 +0.00    -0.303    20.539
ATOM     46  H   UNL d   1      -4.784 -11.734  17.459 +0.08 +0.01    +0.222    20.539
ATOM     47  O   UNL d   1      -7.108 -11.688  18.440 -0.05 -0.03    -0.303    20.539
ATOM     48  H   UNL d   1      -6.962 -11.944  17.506 +0.08 +0.05    +0.222    20.539
TER
ENDMDL
MODEL       79
USER    Run = 79
USER    Cluster Rank = 86
USER    Number of conformations in this cluster = 1
USER  
USER    RMSD from reference structure       = 13.426 A
USER  
USER    Estimated Free Energy of Binding    =   +4.14 kcal/mol  [=(1)+(2)+(3)-(4)]
USER    
USER    (1) Final Intermolecular Energy     =   -3.02 kcal/mol
USER        vdW + Hbond + desolv Energy     =   -3.10 kcal/mol
USER        Electrostatic Energy            =   +0.08 kcal/mol
USER    (2) Final Total Internal Energy     =  -17.14 kcal/mol
USER    (3) Torsional Free Energy           =   +7.16 kcal/mol
USER    (4) Unbound System's Energy  [=(2)] =  -17.14 kcal/mol
USER    
USER    
USER  
USER    DPF = D:/Protein_go_brrr/autodock/final/AncMH_nat/IHP/dock.dpf
USER    NEWDPF move	IHP_ideal_opt.pdbqt
USER    NEWDPF about	0.035000 0.082000 -0.065000
USER    NEWDPF tran0	-15.643923 -3.666133 -5.637175
USER    NEWDPF axisangle0	-0.476203 0.878377 0.041054 -163.984652
USER    NEWDPF quaternion0	-0.471560 0.869812 0.040653 -0.139306
USER    NEWDPF dihe0	-158.49 -2.43 138.70 30.53 107.34 94.58 -3.78 -115.98 -2.98 63.71 92.29 -109.90 39.92 28.19 175.04 -66.66 -58.19 89.26 -136.46 -24.33 17.45 6.93 173.34 12.69 
USER  
USER                              x       y       z    vdW   Elec        q     RMS 
ATOM      1  C   UNL d   1     -15.391  -5.010  -6.693 -0.02 +0.07    +0.194    13.426
ATOM      2  C   UNL d   1     -14.153  -4.519  -5.940 -0.10 +0.10    +0.194    13.426
ATOM      3  C   UNL d   1     -14.066  -2.991  -5.929 -0.08 +0.08    +0.194    13.426
ATOM      4  C   UNL d   1     -15.345  -2.319  -5.437 -0.05 +0.09    +0.194    13.426
ATOM      5  C   UNL d   1     -16.617  -2.860  -6.078 -0.01 +0.07    +0.194    13.426
ATOM      6  C   UNL d   1     -16.676  -4.387  -6.145 -0.01 +0.07    +0.194    13.426
ATOM      7  O   UNL d   1     -15.492  -6.424  -6.510 -0.01 -0.11    -0.278    13.426
ATOM      8  P   UNL d   1     -16.534  -6.979  -5.434 -0.01 +0.20    +0.473    13.426
ATOM      9  O   UNL d   1     -17.889  -7.287  -5.967 -0.00 -0.06    -0.228    13.426
ATOM     10  O   UNL d   1     -15.802  -8.250  -4.806 -0.03 -0.13    -0.303    13.426
ATOM     11  H   UNL d   1     -14.867  -8.035  -4.630 +0.06 +0.11    +0.222    13.426
ATOM     12  O   UNL d   1     -16.480  -5.939  -4.234 -0.61 -0.28    -0.303    13.426
ATOM     13  H   UNL d   1     -15.563  -5.716  -3.957 +0.03 +0.30    +0.222    13.426
ATOM     14  O   UNL d   1     -14.216  -4.982  -4.586 -0.65 -0.26    -0.278    13.426
ATOM     15  P   UNL d   1     -13.208  -6.160  -4.185 -0.20 +0.34    +0.473    13.426
ATOM     16  O   UNL d   1     -11.818  -5.755  -3.804 -0.19 -0.09    -0.228    13.426
ATOM     17  O   UNL d   1     -13.965  -6.939  -3.020 -0.23 -0.30    -0.303    13.426
ATOM     18  H   UNL d   1     -14.911  -7.058  -3.233 +0.05 +0.24    +0.222    13.426
ATOM     19  O   UNL d   1     -13.314  -7.199  -5.385 -0.12 -0.15    -0.303    13.426
ATOM     20  H   UNL d   1     -14.194  -7.175  -5.805 +0.06 +0.11    +0.222    13.426
ATOM     21  O   UNL d   1     -17.723  -4.720  -7.054 +0.00 -0.07    -0.278    13.426
ATOM     22  P   UNL d   1     -19.229  -4.796  -6.534 +0.01 +0.10    +0.473    13.426
ATOM     23  O   UNL d   1     -20.190  -5.659  -7.280 +0.00 -0.03    -0.228    13.426
ATOM     24  O   UNL d   1     -19.026  -5.190  -5.005 -0.00 -0.10    -0.303    13.426
ATOM     25  H   UNL d   1     -18.262  -4.667  -4.651 +0.01 +0.10    +0.222    13.426
ATOM     26  O   UNL d   1     -19.615  -3.244  -6.427 +0.00 -0.06    -0.303    13.426
ATOM     27  H   UNL d   1     -19.243  -2.875  -5.601 +0.01 +0.06    +0.222    13.426
ATOM     28  O   UNL d   1     -13.063  -2.626  -4.990 -0.15 -0.14    -0.278    13.426
ATOM     29  P   UNL d   1     -11.759  -1.847  -5.468 -0.14 +0.11    +0.473    13.426
ATOM     30  O   UNL d   1     -10.592  -2.700  -5.813 -0.31 -0.00    -0.228    13.426
ATOM     31  O   UNL d   1     -12.380  -0.958  -6.645 -0.06 -0.03    -0.303    13.426
ATOM     32  H   UNL d   1     -13.202  -0.528  -6.313 +0.05 +0.03    +0.222    13.426
ATOM     33  O   UNL d   1     -11.554  -0.788  -4.297 -0.21 -0.08    -0.303    13.426
ATOM     34  H   UNL d   1     -12.375  -0.243  -4.210 +0.07 +0.07    +0.222    13.426
ATOM     35  O   UNL d   1     -17.686  -2.435  -5.236 -0.00 -0.10    -0.278    13.426
ATOM     36  P   UNL d   1     -17.686  -2.807  -3.685 -0.04 +0.29    +0.473    13.426
ATOM     37  O   UNL d   1     -16.707  -3.861  -3.275 -0.19 -0.28    -0.228    13.426
ATOM     38  O   UNL d   1     -17.440  -1.387  -3.009 -0.02 -0.19    -0.303    13.426
ATOM     39  H   UNL d   1     -16.505  -1.121  -3.150 +0.03 +0.15    +0.222    13.426
ATOM     40  O   UNL d   1     -19.224  -3.103  -3.406 -0.01 -0.13    -0.303    13.426
ATOM     41  H   UNL d   1     -19.706  -3.332  -4.231 +0.01 +0.07    +0.222    13.426
ATOM     42  O   UNL d   1     -15.250  -0.936  -5.792 -0.01 -0.08    -0.278    13.426
ATOM     43  P   UNL d   1     -14.775   0.113  -4.687 +0.00 +0.18    +0.473    13.426
ATOM     44  O   UNL d   1     -13.764   1.129  -5.095 -0.02 -0.05    -0.228    13.426
ATOM     45  O   UNL d   1     -16.150   0.730  -4.177 +0.00 -0.14    -0.303    13.426
ATOM     46  H   UNL d   1     -16.906   0.152  -4.400 +0.02 +0.09    +0.222    13.426
ATOM     47  O   UNL d   1     -14.358  -0.820  -3.452 -0.09 -0.20    -0.303    13.426
ATOM     48  H   UNL d   1     -13.548  -1.320  -3.684 +0.05 +0.14    +0.222    13.426
TER
ENDMDL
MODEL        9
USER    Run = 9
USER    Cluster Rank = 87
USER    Number of conformations in this cluster = 1
USER  
USER    RMSD from reference structure       = 17.195 A
USER  
USER    Estimated Free Energy of Binding    =   +4.25 kcal/mol  [=(1)+(2)+(3)-(4)]
USER    
USER    (1) Final Intermolecular Energy     =   -2.91 kcal/mol
USER        vdW + Hbond + desolv Energy     =   -2.58 kcal/mol
USER        Electrostatic Energy            =   -0.33 kcal/mol
USER    (2) Final Total Internal Energy     =  -13.37 kcal/mol
USER    (3) Torsional Free Energy           =   +7.16 kcal/mol
USER    (4) Unbound System's Energy  [=(2)] =  -13.37 kcal/mol
USER    
USER    
USER  
USER    DPF = D:/Protein_go_brrr/autodock/final/AncMH_nat/IHP/dock.dpf
USER    NEWDPF move	IHP_ideal_opt.pdbqt
USER    NEWDPF about	0.035000 0.082000 -0.065000
USER    NEWDPF tran0	7.683932 0.363742 -16.865553
USER    NEWDPF axisangle0	0.348575 0.699827 0.623489 -128.270373
USER    NEWDPF quaternion0	0.313657 0.629722 0.561031 -0.436249
USER    NEWDPF dihe0	-171.85 2.21 27.83 -4.20 20.61 153.27 164.45 -6.35 78.15 125.90 101.31 -116.81 23.54 177.44 146.85 16.90 46.93 90.18 -1.79 -42.78 -20.08 -59.24 180.00 10.49 
USER  
USER                              x       y       z    vdW   Elec        q     RMS 
ATOM      1  C   UNL d   1       7.951   1.660 -17.975 -0.03 -0.09    +0.194    17.195
ATOM      2  C   UNL d   1       8.222   0.257 -18.521 -0.01 -0.07    +0.194    17.195
ATOM      3  C   UNL d   1       8.977  -0.608 -17.509 -0.02 -0.08    +0.194    17.195
ATOM      4  C   UNL d   1       8.315  -0.641 -16.134 -0.10 -0.10    +0.194    17.195
ATOM      5  C   UNL d   1       7.923   0.731 -15.601 -0.02 -0.20    +0.194    17.195
ATOM      6  C   UNL d   1       7.223   1.619 -16.632 -0.09 -0.12    +0.194    17.195
ATOM      7  O   UNL d   1       7.101   2.342 -18.900 -0.00 +0.09    -0.278    17.195
ATOM      8  P   UNL d   1       7.589   3.744 -19.490 +0.01 -0.14    +0.473    17.195
ATOM      9  O   UNL d   1       8.653   3.657 -20.526 +0.00 +0.06    -0.228    17.195
ATOM     10  O   UNL d   1       6.249   4.428 -20.021 +0.00 +0.06    -0.303    17.195
ATOM     11  H   UNL d   1       5.494   4.132 -19.479 +0.01 -0.04    +0.222    17.195
ATOM     12  O   UNL d   1       7.933   4.630 -18.216 -0.01 +0.13    -0.303    17.195
ATOM     13  H   UNL d   1       7.264   4.550 -17.499 +0.05 -0.09    +0.222    17.195
ATOM     14  O   UNL d   1       6.972  -0.377 -18.821 -0.00 +0.07    -0.278    17.195
ATOM     15  P   UNL d   1       6.385  -0.141 -20.292 +0.00 -0.08    +0.473    17.195
ATOM     16  O   UNL d   1       4.979   0.364 -20.382 +0.00 +0.03    -0.228    17.195
ATOM     17  O   UNL d   1       7.438   0.838 -20.977 +0.00 +0.06    -0.303    17.195
ATOM     18  H   UNL d   1       7.420   1.721 -20.561 +0.00 -0.05    +0.222    17.195
ATOM     19  O   UNL d   1       6.674  -1.506 -21.057 +0.00 +0.04    -0.303    17.195
ATOM     20  H   UNL d   1       7.630  -1.676 -21.143 +0.00 -0.03    +0.222    17.195
ATOM     21  O   UNL d   1       7.234   2.945 -16.109 -0.12 +0.22    -0.278    17.195
ATOM     22  P   UNL d   1       5.859   3.725 -15.898 -0.09 -0.16    +0.473    17.195
ATOM     23  O   UNL d   1       5.906   5.085 -15.286 -0.14 +0.03    -0.228    17.195
ATOM     24  O   UNL d   1       5.228   3.673 -17.358 -0.02 +0.07    -0.303    17.195
ATOM     25  H   UNL d   1       5.937   3.907 -18.009 +0.03 -0.06    +0.222    17.195
ATOM     26  O   UNL d   1       4.981   2.633 -15.118 -0.17 +0.08    -0.303    17.195
ATOM     27  H   UNL d   1       5.358   1.744 -15.278 +0.09 -0.08    +0.222    17.195
ATOM     28  O   UNL d   1       8.937  -1.950 -17.979 -0.00 +0.07    -0.278    17.195
ATOM     29  P   UNL d   1       9.377  -2.293 -19.471 +0.00 -0.09    +0.473    17.195
ATOM     30  O   UNL d   1       9.611  -1.122 -20.355 +0.00 +0.05    -0.228    17.195
ATOM     31  O   UNL d   1      10.629  -3.246 -19.181 +0.00 +0.05    -0.303    17.195
ATOM     32  H   UNL d   1      11.315  -3.081 -19.869 +0.00 -0.04    +0.222    17.195
ATOM     33  O   UNL d   1       8.249  -3.321 -19.923 +0.00 +0.04    -0.303    17.195
ATOM     34  H   UNL d   1       7.362  -2.918 -19.759 +0.00 -0.03    +0.222    17.195
ATOM     35  O   UNL d   1       6.987   0.486 -14.553 -0.28 +0.21    -0.278    17.195
ATOM     36  P   UNL d   1       5.748  -0.490 -14.792 -0.17 -0.15    +0.473    17.195
ATOM     37  O   UNL d   1       5.981  -1.925 -14.441 -0.21 +0.04    -0.228    17.195
ATOM     38  O   UNL d   1       4.606   0.216 -13.936 -0.20 +0.09    -0.303    17.195
ATOM     39  H   UNL d   1       4.932   1.088 -13.624 -0.12 -0.13    +0.222    17.195
ATOM     40  O   UNL d   1       5.350  -0.171 -16.299 -0.04 +0.08    -0.303    17.195
ATOM     41  H   UNL d   1       5.894  -0.686 -16.936 +0.04 -0.05    +0.222    17.195
ATOM     42  O   UNL d   1       9.276  -1.187 -15.224 -0.14 +0.15    -0.278    17.195
ATOM     43  P   UNL d   1       9.152  -2.720 -14.799 -0.11 -0.06    +0.473    17.195
ATOM     44  O   UNL d   1      10.402  -3.530 -14.776 -0.11 -0.03    -0.228    17.195
ATOM     45  O   UNL d   1       8.405  -2.634 -13.397 -0.21 +0.04    -0.303    17.195
ATOM     46  H   UNL d   1       7.836  -1.840 -13.342 -0.40 -0.10    +0.222    17.195
ATOM     47  O   UNL d   1       7.988  -3.272 -15.754 -0.05 +0.04    -0.303    17.195
ATOM     48  H   UNL d   1       8.273  -3.193 -16.688 +0.04 -0.04    +0.222    17.195
TER
ENDMDL
MODEL       96
USER    Run = 96
USER    Cluster Rank = 88
USER    Number of conformations in this cluster = 1
USER  
USER    RMSD from reference structure       = 13.544 A
USER  
USER    Estimated Free Energy of Binding    =   +4.25 kcal/mol  [=(1)+(2)+(3)-(4)]
USER    
USER    (1) Final Intermolecular Energy     =   -2.91 kcal/mol
USER        vdW + Hbond + desolv Energy     =   -2.81 kcal/mol
USER        Electrostatic Energy            =   -0.10 kcal/mol
USER    (2) Final Total Internal Energy     =  -13.51 kcal/mol
USER    (3) Torsional Free Energy           =   +7.16 kcal/mol
USER    (4) Unbound System's Energy  [=(2)] =  -13.51 kcal/mol
USER    
USER    
USER  
USER    DPF = D:/Protein_go_brrr/autodock/final/AncMH_nat/IHP/dock.dpf
USER    NEWDPF move	IHP_ideal_opt.pdbqt
USER    NEWDPF about	0.035000 0.082000 -0.065000
USER    NEWDPF tran0	15.680456 -5.007615 4.550648
USER    NEWDPF axisangle0	-0.123189 -0.210978 -0.969697 -166.480147
USER    NEWDPF quaternion0	-0.122332 -0.209511 -0.962956 -0.117709
USER    NEWDPF dihe0	-122.15 -61.74 -180.00 -22.13 -173.40 -129.62 -115.96 -36.35 -69.68 144.77 -179.66 150.23 115.95 -180.00 139.07 -10.28 12.76 -179.58 -9.58 19.61 157.53 12.10 -38.02 171.54 
USER  
USER                              x       y       z    vdW   Elec        q     RMS 
ATOM      1  C   UNL d   1      14.400  -4.100   5.273 -0.09 +0.03    +0.194    13.544
ATOM      2  C   UNL d   1      15.284  -3.329   4.290 -0.10 +0.04    +0.194    13.544
ATOM      3  C   UNL d   1      16.767  -3.649   4.492 -0.02 +0.00    +0.194    13.544
ATOM      4  C   UNL d   1      17.066  -5.146   4.486 -0.00 -0.01    +0.194    13.544
ATOM      5  C   UNL d   1      16.133  -5.969   5.365 -0.01 -0.01    +0.194    13.544
ATOM      6  C   UNL d   1      14.655  -5.607   5.208 -0.04 -0.01    +0.194    13.544
ATOM      7  O   UNL d   1      13.035  -3.883   4.909 -0.32 -0.12    -0.278    13.544
ATOM      8  P   UNL d   1      11.999  -3.480   6.057 -0.05 +0.20    +0.473    13.544
ATOM      9  O   UNL d   1      10.679  -2.992   5.572 -0.79 -0.11    -0.228    13.544
ATOM     10  O   UNL d   1      11.891  -4.791   6.959 -0.07 +0.01    -0.303    13.544
ATOM     11  H   UNL d   1      12.657  -4.837   7.561 +0.05 -0.01    +0.222    13.544
ATOM     12  O   UNL d   1      12.799  -2.488   7.006 -0.15 -0.12    -0.303    13.544
ATOM     13  H   UNL d   1      13.047  -2.895   7.867 +0.04 +0.02    +0.222    13.544
ATOM     14  O   UNL d   1      14.918  -3.688   2.952 -0.14 -0.06    -0.278    13.544
ATOM     15  P   UNL d   1      15.151  -2.576   1.824 -0.12 +0.13    +0.473    13.544
ATOM     16  O   UNL d   1      13.962  -2.195   1.000 -0.94 -0.09    -0.228    13.544
ATOM     17  O   UNL d   1      15.774  -1.343   2.617 -0.17 -0.10    -0.303    13.544
ATOM     18  H   UNL d   1      16.739  -1.444   2.723 +0.07 +0.02    +0.222    13.544
ATOM     19  O   UNL d   1      16.412  -3.100   1.007 -0.09 +0.02    -0.303    13.544
ATOM     20  H   UNL d   1      17.249  -2.873   1.452 +0.07 -0.01    +0.222    13.544
ATOM     21  O   UNL d   1      13.967  -6.195   6.310 -0.02 +0.03    -0.278    13.544
ATOM     22  P   UNL d   1      14.436  -5.870   7.800 +0.02 -0.05    +0.473    13.544
ATOM     23  O   UNL d   1      13.555  -6.299   8.925 -0.00 +0.03    -0.228    13.544
ATOM     24  O   UNL d   1      15.900  -6.493   7.824 +0.00 +0.03    -0.303    13.544
ATOM     25  H   UNL d   1      16.541  -5.766   8.032 +0.00 -0.02    +0.222    13.544
ATOM     26  O   UNL d   1      14.746  -4.300   7.709 +0.00 +0.01    -0.303    13.544
ATOM     27  H   UNL d   1      13.947  -3.832   7.390 +0.03 +0.01    +0.222    13.544
ATOM     28  O   UNL d   1      17.474  -3.118   3.379 -0.02 +0.00    -0.278    13.544
ATOM     29  P   UNL d   1      18.652  -2.068   3.600 +0.01 -0.02    +0.473    13.544
ATOM     30  O   UNL d   1      18.448  -1.102   4.710 -0.01 +0.01    -0.228    13.544
ATOM     31  O   UNL d   1      19.896  -3.067   3.725 -0.00 +0.03    -0.303    13.544
ATOM     32  H   UNL d   1      19.774  -3.621   4.530 +0.00 -0.02    +0.222    13.544
ATOM     33  O   UNL d   1      18.835  -1.459   2.140 -0.04 +0.02    -0.303    13.544
ATOM     34  H   UNL d   1      17.998  -1.591   1.630 +0.06 -0.01    +0.222    13.544
ATOM     35  O   UNL d   1      16.283  -7.319   4.930 -0.01 +0.03    -0.278    13.544
ATOM     36  P   UNL d   1      17.343  -8.279   5.637 +0.00 -0.06    +0.473    13.544
ATOM     37  O   UNL d   1      17.175  -8.448   7.114 -0.00 +0.03    -0.228    13.544
ATOM     38  O   UNL d   1      17.173  -9.623   4.801 -0.00 +0.04    -0.303    13.544
ATOM     39  H   UNL d   1      17.213 -10.390   5.413 +0.00 -0.03    +0.222    13.544
ATOM     40  O   UNL d   1      18.729  -7.685   5.132 -0.00 +0.03    -0.303    13.544
ATOM     41  H   UNL d   1      19.171  -7.150   5.828 +0.00 -0.02    +0.222    13.544
ATOM     42  O   UNL d   1      18.389  -5.306   5.009 +0.00 +0.02    -0.278    13.544
ATOM     43  P   UNL d   1      18.697  -4.806   6.492 +0.01 -0.04    +0.473    13.544
ATOM     44  O   UNL d   1      19.937  -4.009   6.704 +0.00 +0.02    -0.228    13.544
ATOM     45  O   UNL d   1      17.357  -4.045   6.889 +0.00 +0.02    -0.303    13.544
ATOM     46  H   UNL d   1      16.834  -4.556   7.539 +0.01 -0.01    +0.222    13.544
ATOM     47  O   UNL d   1      18.580  -6.147   7.363 +0.00 +0.03    -0.303    13.544
ATOM     48  H   UNL d   1      17.924  -6.745   6.948 +0.00 -0.02    +0.222    13.544
TER
ENDMDL
MODEL       54
USER    Run = 54
USER    Cluster Rank = 89
USER    Number of conformations in this cluster = 1
USER  
USER    RMSD from reference structure       = 14.202 A
USER  
USER    Estimated Free Energy of Binding    =   +4.40 kcal/mol  [=(1)+(2)+(3)-(4)]
USER    
USER    (1) Final Intermolecular Energy     =   -2.76 kcal/mol
USER        vdW + Hbond + desolv Energy     =   -2.46 kcal/mol
USER        Electrostatic Energy            =   -0.30 kcal/mol
USER    (2) Final Total Internal Energy     =  -13.53 kcal/mol
USER    (3) Torsional Free Energy           =   +7.16 kcal/mol
USER    (4) Unbound System's Energy  [=(2)] =  -13.53 kcal/mol
USER    
USER    
USER  
USER    DPF = D:/Protein_go_brrr/autodock/final/AncMH_nat/IHP/dock.dpf
USER    NEWDPF move	IHP_ideal_opt.pdbqt
USER    NEWDPF about	0.035000 0.082000 -0.065000
USER    NEWDPF tran0	-11.183544 0.339393 -12.665680
USER    NEWDPF axisangle0	0.772204 0.248951 0.584572 -113.047925
USER    NEWDPF quaternion0	0.644108 0.207654 0.487601 -0.551588
USER    NEWDPF dihe0	91.65 174.99 158.83 140.24 -79.98 157.35 -21.77 -180.00 6.75 -3.08 103.39 142.14 -179.75 89.02 -115.26 140.25 -161.65 -120.90 -13.25 -22.21 140.46 -35.28 -40.68 151.60 
USER  
USER                              x       y       z    vdW   Elec        q     RMS 
ATOM      1  C   UNL d   1      -9.716   1.218 -12.910 -0.01 -0.05    +0.194    14.202
ATOM      2  C   UNL d   1     -10.362   0.646 -14.173 +0.01 -0.02    +0.194    14.202
ATOM      3  C   UNL d   1     -10.862  -0.784 -13.956 +0.01 -0.01    +0.194    14.202
ATOM      4  C   UNL d   1     -11.763  -0.927 -12.732 +0.01 -0.01    +0.194    14.202
ATOM      5  C   UNL d   1     -11.210  -0.269 -11.474 +0.00 -0.02    +0.194    14.202
ATOM      6  C   UNL d   1     -10.653   1.137 -11.704 -0.01 -0.06    +0.194    14.202
ATOM      7  O   UNL d   1      -9.435   2.600 -13.140 -0.03 +0.10    -0.278    14.202
ATOM      8  P   UNL d   1      -8.017   3.174 -12.679 -0.06 -0.28    +0.473    14.202
ATOM      9  O   UNL d   1      -8.077   4.394 -11.829 -0.22 +0.25    -0.228    14.202
ATOM     10  O   UNL d   1      -7.317   1.937 -11.954 -0.50 +0.16    -0.303    14.202
ATOM     11  H   UNL d   1      -7.808   1.714 -11.141 +0.01 -0.19    +0.222    14.202
ATOM     12  O   UNL d   1      -7.168   3.300 -14.016 -0.36 +0.11    -0.303    14.202
ATOM     13  H   UNL d   1      -6.747   4.183 -14.123 -0.50 -0.16    +0.222    14.202
ATOM     14  O   UNL d   1     -11.476   1.468 -14.541 +0.00 +0.03    -0.278    14.202
ATOM     15  P   UNL d   1     -11.303   2.359 -15.860 +0.01 -0.04    +0.473    14.202
ATOM     16  O   UNL d   1     -12.522   2.549 -16.708 +0.00 +0.01    -0.228    14.202
ATOM     17  O   UNL d   1     -10.705   3.734 -15.323 +0.00 +0.04    -0.303    14.202
ATOM     18  H   UNL d   1      -9.827   3.601 -14.916 +0.02 -0.04    +0.222    14.202
ATOM     19  O   UNL d   1     -10.043   1.731 -16.601 +0.00 +0.03    -0.303    14.202
ATOM     20  H   UNL d   1     -10.284   0.932 -17.106 +0.00 -0.01    +0.222    14.202
ATOM     21  O   UNL d   1      -9.881   1.469 -10.552 -0.07 +0.18    -0.278    14.202
ATOM     22  P   UNL d   1      -8.994   0.348  -9.844 -0.11 -0.23    +0.473    14.202
ATOM     23  O   UNL d   1      -9.649  -0.538  -8.838 -0.11 +0.05    -0.228    14.202
ATOM     24  O   UNL d   1      -8.369  -0.411 -11.095 -0.06 +0.08    -0.303    14.202
ATOM     25  H   UNL d   1      -8.278  -1.370 -10.861 +0.07 -0.03    +0.222    14.202
ATOM     26  O   UNL d   1      -7.745   1.205  -9.319 -0.24 +0.35    -0.303    14.202
ATOM     27  H   UNL d   1      -7.727   2.066  -9.784 -0.39 -0.50    +0.222    14.202
ATOM     28  O   UNL d   1     -11.680  -1.126 -15.068 +0.00 +0.01    -0.278    14.202
ATOM     29  P   UNL d   1     -11.020  -1.475 -16.475 +0.00 -0.01    +0.473    14.202
ATOM     30  O   UNL d   1     -11.198  -2.875 -16.936 +0.00 +0.00    -0.228    14.202
ATOM     31  O   UNL d   1     -11.667  -0.324 -17.380 +0.00 +0.01    -0.303    14.202
ATOM     32  H   UNL d   1     -11.834   0.464 -16.813 +0.00 -0.01    +0.222    14.202
ATOM     33  O   UNL d   1      -9.524  -0.967 -16.277 +0.00 +0.01    -0.303    14.202
ATOM     34  H   UNL d   1      -9.324  -0.282 -16.961 +0.01 -0.01    +0.222    14.202
ATOM     35  O   UNL d   1     -12.317  -0.142 -10.584 -0.00 +0.02    -0.278    14.202
ATOM     36  P   UNL d   1     -12.663  -1.313  -9.558 +0.01 +0.01    +0.473    14.202
ATOM     37  O   UNL d   1     -13.996  -1.964  -9.747 -0.00 -0.02    -0.228    14.202
ATOM     38  O   UNL d   1     -11.423  -2.294  -9.752 -0.02 -0.02    -0.303    14.202
ATOM     39  H   UNL d   1     -11.424  -2.634 -10.672 +0.03 +0.02    +0.222    14.202
ATOM     40  O   UNL d   1     -12.389  -0.624  -8.151 -0.02 +0.01    -0.303    14.202
ATOM     41  H   UNL d   1     -11.548  -0.116  -8.152 +0.05 -0.03    +0.222    14.202
ATOM     42  O   UNL d   1     -11.875  -2.328 -12.460 +0.00 -0.01    -0.278    14.202
ATOM     43  P   UNL d   1     -10.579  -3.247 -12.602 +0.01 +0.04    +0.473    14.202
ATOM     44  O   UNL d   1     -10.125  -3.587 -13.980 -0.01 -0.01    -0.228    14.202
ATOM     45  O   UNL d   1      -9.498  -2.462 -11.736 -0.03 +0.00    -0.303    14.202
ATOM     46  H   UNL d   1      -9.916  -1.972 -11.001 +0.04 -0.00    +0.222    14.202
ATOM     47  O   UNL d   1     -10.910  -4.497 -11.655 -0.02 -0.09    -0.303    14.202
ATOM     48  H   UNL d   1     -11.368  -4.178 -10.849 +0.03 +0.07    +0.222    14.202
TER
ENDMDL
MODEL       36
USER    Run = 36
USER    Cluster Rank = 90
USER    Number of conformations in this cluster = 1
USER  
USER    RMSD from reference structure       = 15.110 A
USER  
USER    Estimated Free Energy of Binding    =   +4.40 kcal/mol  [=(1)+(2)+(3)-(4)]
USER    
USER    (1) Final Intermolecular Energy     =   -2.76 kcal/mol
USER        vdW + Hbond + desolv Energy     =   -2.52 kcal/mol
USER        Electrostatic Energy            =   -0.23 kcal/mol
USER    (2) Final Total Internal Energy     =  -14.08 kcal/mol
USER    (3) Torsional Free Energy           =   +7.16 kcal/mol
USER    (4) Unbound System's Energy  [=(2)] =  -14.08 kcal/mol
USER    
USER    
USER  
USER    DPF = D:/Protein_go_brrr/autodock/final/AncMH_nat/IHP/dock.dpf
USER    NEWDPF move	IHP_ideal_opt.pdbqt
USER    NEWDPF about	0.035000 0.082000 -0.065000
USER    NEWDPF tran0	-15.381905 -8.232104 -7.052417
USER    NEWDPF axisangle0	0.269258 0.545345 -0.793788 148.511587
USER    NEWDPF quaternion0	0.259156 0.524885 -0.764007 0.271343
USER    NEWDPF dihe0	74.37 121.21 80.94 65.42 151.80 -180.00 -124.88 -92.48 130.76 116.66 -77.78 -168.13 -82.23 -51.71 175.67 -45.77 26.03 152.50 -148.94 -5.90 29.26 145.78 -171.21 -163.51 
USER  
USER                              x       y       z    vdW   Elec        q     RMS 
ATOM      1  C   UNL d   1     -16.694  -7.627  -6.106 -0.00 +0.06    +0.194    15.110
ATOM      2  C   UNL d   1     -15.432  -7.997  -5.325 -0.04 +0.08    +0.194    15.110
ATOM      3  C   UNL d   1     -14.834  -9.320  -5.809 -0.03 +0.06    +0.194    15.110
ATOM      4  C   UNL d   1     -14.613  -9.364  -7.319 -0.02 +0.06    +0.194    15.110
ATOM      5  C   UNL d   1     -15.809  -8.892  -8.135 +0.00 +0.05    +0.194    15.110
ATOM      6  C   UNL d   1     -16.445  -7.602  -7.614 +0.01 +0.05    +0.194    15.110
ATOM      7  O   UNL d   1     -17.088  -6.309  -5.717 -0.02 -0.11    -0.278    15.110
ATOM      8  P   UNL d   1     -16.476  -5.067  -6.514 +0.01 +0.17    +0.473    15.110
ATOM      9  O   UNL d   1     -15.107  -5.280  -7.058 -0.02 -0.08    -0.228    15.110
ATOM     10  O   UNL d   1     -17.560  -4.761  -7.644 +0.00 -0.07    -0.303    15.110
ATOM     11  H   UNL d   1     -17.413  -5.351  -8.406 +0.00 +0.04    +0.222    15.110
ATOM     12  O   UNL d   1     -16.651  -3.824  -5.540 -0.02 -0.14    -0.303    15.110
ATOM     13  H   UNL d   1     -15.998  -3.816  -4.804 +0.03 +0.16    +0.222    15.110
ATOM     14  O   UNL d   1     -14.454  -6.964  -5.500 -0.06 -0.14    -0.278    15.110
ATOM     15  P   UNL d   1     -13.850  -6.317  -4.166 -0.16 +0.38    +0.473    15.110
ATOM     16  O   UNL d   1     -14.297  -6.912  -2.868 -0.18 -0.26    -0.228    15.110
ATOM     17  O   UNL d   1     -12.273  -6.403  -4.374 -0.33 -0.15    -0.303    15.110
ATOM     18  H   UNL d   1     -12.047  -7.011  -5.104 +0.10 +0.11    +0.222    15.110
ATOM     19  O   UNL d   1     -14.108  -4.756  -4.330 -0.65 -0.35    -0.303    15.110
ATOM     20  H   UNL d   1     -14.636  -4.559  -5.126 +0.05 +0.16    +0.222    15.110
ATOM     21  O   UNL d   1     -17.718  -7.485  -8.246 +0.00 -0.05    -0.278    15.110
ATOM     22  P   UNL d   1     -17.802  -7.089  -9.790 +0.00 +0.06    +0.473    15.110
ATOM     23  O   UNL d   1     -19.040  -6.415 -10.278 +0.00 -0.02    -0.228    15.110
ATOM     24  O   UNL d   1     -16.464  -6.248  -9.983 +0.00 -0.05    -0.303    15.110
ATOM     25  H   UNL d   1     -15.728  -6.881 -10.179 +0.01 +0.05    +0.222    15.110
ATOM     26  O   UNL d   1     -17.427  -8.475 -10.502 +0.00 -0.04    -0.303    15.110
ATOM     27  H   UNL d   1     -17.351  -9.176  -9.823 +0.00 +0.03    +0.222    15.110
ATOM     28  O   UNL d   1     -13.539  -9.441  -5.234 -0.09 -0.08    -0.278    15.110
ATOM     29  P   UNL d   1     -12.240  -9.169  -6.114 -0.11 +0.22    +0.473    15.110
ATOM     30  O   UNL d   1     -11.927 -10.204  -7.132 -0.24 -0.12    -0.228    15.110
ATOM     31  O   UNL d   1     -12.570  -7.698  -6.652 -0.17 -0.23    -0.303    15.110
ATOM     32  H   UNL d   1     -13.276  -7.764  -7.335 +0.04 +0.15    +0.222    15.110
ATOM     33  O   UNL d   1     -11.134  -8.897  -5.002 -0.26 -0.06    -0.303    15.110
ATOM     34  H   UNL d   1     -11.558  -8.448  -4.230 +0.10 +0.07    +0.222    15.110
ATOM     35  O   UNL d   1     -15.303  -8.614  -9.439 -0.00 -0.08    -0.278    15.110
ATOM     36  P   UNL d   1     -13.893  -7.890  -9.617 -0.03 +0.27    +0.473    15.110
ATOM     37  O   UNL d   1     -12.696  -8.710  -9.255 -0.48 -0.31    -0.228    15.110
ATOM     38  O   UNL d   1     -13.945  -7.446 -11.146 -0.01 -0.12    -0.303    15.110
ATOM     39  H   UNL d   1     -14.703  -6.837 -11.278 +0.01 +0.06    +0.222    15.110
ATOM     40  O   UNL d   1     -14.106  -6.532  -8.817 -0.02 -0.14    -0.303    15.110
ATOM     41  H   UNL d   1     -14.083  -6.674  -7.845 +0.03 +0.10    +0.222    15.110
ATOM     42  O   UNL d   1     -14.381 -10.733  -7.665 -0.01 -0.07    -0.278    15.110
ATOM     43  P   UNL d   1     -15.633 -11.683  -7.938 +0.01 +0.06    +0.473    15.110
ATOM     44  O   UNL d   1     -15.404 -13.154  -7.882 +0.00 -0.02    -0.228    15.110
ATOM     45  O   UNL d   1     -16.708 -11.151  -6.892 +0.00 -0.04    -0.303    15.110
ATOM     46  H   UNL d   1     -17.318 -11.864  -6.612 +0.00 +0.02    +0.222    15.110
ATOM     47  O   UNL d   1     -16.220 -11.126  -9.321 +0.00 -0.04    -0.303    15.110
ATOM     48  H   UNL d   1     -15.581 -10.494  -9.712 +0.00 +0.04    +0.222    15.110
TER
ENDMDL
MODEL       15
USER    Run = 15
USER    Cluster Rank = 91
USER    Number of conformations in this cluster = 1
USER  
USER    RMSD from reference structure       = 20.887 A
USER  
USER    Estimated Free Energy of Binding    =   +4.42 kcal/mol  [=(1)+(2)+(3)-(4)]
USER    
USER    (1) Final Intermolecular Energy     =   -2.74 kcal/mol
USER        vdW + Hbond + desolv Energy     =   -2.39 kcal/mol
USER        Electrostatic Energy            =   -0.35 kcal/mol
USER    (2) Final Total Internal Energy     =  -15.55 kcal/mol
USER    (3) Torsional Free Energy           =   +7.16 kcal/mol
USER    (4) Unbound System's Energy  [=(2)] =  -15.55 kcal/mol
USER    
USER    
USER  
USER    DPF = D:/Protein_go_brrr/autodock/final/AncMH_nat/IHP/dock.dpf
USER    NEWDPF move	IHP_ideal_opt.pdbqt
USER    NEWDPF about	0.035000 0.082000 -0.065000
USER    NEWDPF tran0	8.768422 22.198036 5.031664
USER    NEWDPF axisangle0	0.202325 -0.920775 0.333523 143.370424
USER    NEWDPF quaternion0	0.192076 -0.874133 0.316628 0.314237
USER    NEWDPF dihe0	173.86 -125.63 157.87 7.11 124.61 130.00 -69.53 0.24 21.19 106.67 118.64 63.84 -102.23 179.36 -177.87 1.92 -52.65 -140.42 51.49 9.97 -0.97 -8.06 166.34 3.42 
USER  
USER                              x       y       z    vdW   Elec        q     RMS 
ATOM      1  C   UNL d   1       8.508  20.541   4.618 -0.09 +0.11    +0.194    20.887
ATOM      2  C   UNL d   1       9.279  20.785   5.916 -0.01 +0.06    +0.194    20.887
ATOM      3  C   UNL d   1      10.322  21.894   5.756 +0.00 +0.03    +0.194    20.887
ATOM      4  C   UNL d   1       9.744  23.183   5.177 +0.01 +0.03    +0.194    20.887
ATOM      5  C   UNL d   1       8.872  22.974   3.946 -0.00 +0.04    +0.194    20.887
ATOM      6  C   UNL d   1       7.871  21.825   4.084 -0.07 +0.11    +0.194    20.887
ATOM      7  O   UNL d   1       7.447  19.623   4.895 -0.49 -0.39    -0.278    20.887
ATOM      8  P   UNL d   1       7.821  18.098   5.191 -0.13 +0.38    +0.473    20.887
ATOM      9  O   UNL d   1       8.720  17.463   4.189 -0.22 -0.09    -0.228    20.887
ATOM     10  O   UNL d   1       8.442  18.131   6.661 -0.04 -0.11    -0.303    20.887
ATOM     11  H   UNL d   1       8.211  18.973   7.095 +0.02 +0.09    +0.222    20.887
ATOM     12  O   UNL d   1       6.429  17.372   5.434 -0.44 -0.37    -0.303    20.887
ATOM     13  H   UNL d   1       6.528  16.452   5.768 +0.06 +0.14    +0.222    20.887
ATOM     14  O   UNL d   1       8.357  21.171   6.943 -0.00 -0.09    -0.278    20.887
ATOM     15  P   UNL d   1       8.636  20.593   8.410 +0.01 +0.09    +0.473    20.887
ATOM     16  O   UNL d   1       7.515  19.847   9.063 +0.00 -0.05    -0.228    20.887
ATOM     17  O   UNL d   1       9.948  19.706   8.234 +0.00 -0.04    -0.303    20.887
ATOM     18  H   UNL d   1      10.705  20.251   7.947 +0.00 +0.02    +0.222    20.887
ATOM     19  O   UNL d   1       9.199  21.837   9.226 +0.00 -0.03    -0.303    20.887
ATOM     20  H   UNL d   1       9.948  22.260   8.766 +0.00 +0.02    +0.222    20.887
ATOM     21  O   UNL d   1       7.389  21.538   2.773 -0.17 -0.18    -0.278    20.887
ATOM     22  P   UNL d   1       5.939  22.038   2.336 -0.03 +0.42    +0.473    20.887
ATOM     23  O   UNL d   1       5.166  21.201   1.373 -0.66 -0.20    -0.228    20.887
ATOM     24  O   UNL d   1       5.232  22.259   3.745 -0.20 -0.38    -0.303    20.887
ATOM     25  H   UNL d   1       5.766  22.919   4.257 +0.02 +0.16    +0.222    20.887
ATOM     26  O   UNL d   1       6.238  23.544   1.875 -0.02 -0.10    -0.303    20.887
ATOM     27  H   UNL d   1       6.830  23.968   2.529 +0.01 +0.06    +0.222    20.887
ATOM     28  O   UNL d   1      10.784  22.238   7.056 +0.00 -0.02    -0.278    20.887
ATOM     29  P   UNL d   1      12.197  21.713   7.572 +0.00 +0.02    +0.473    20.887
ATOM     30  O   UNL d   1      12.698  20.476   6.919 +0.00 -0.01    -0.228    20.887
ATOM     31  O   UNL d   1      13.073  23.039   7.386 +0.00 -0.00    -0.303    20.887
ATOM     32  H   UNL d   1      12.597  23.645   6.772 +0.00 +0.00    +0.222    20.887
ATOM     33  O   UNL d   1      11.976  21.655   9.148 +0.00 -0.01    -0.303    20.887
ATOM     34  H   UNL d   1      11.226  21.042   9.345 +0.00 +0.01    +0.222    20.887
ATOM     35  O   UNL d   1       8.115  24.174   3.800 +0.00 -0.05    -0.278    20.887
ATOM     36  P   UNL d   1       7.081  24.616   4.931 +0.01 +0.10    +0.473    20.887
ATOM     37  O   UNL d   1       6.837  23.610   6.010 -0.00 -0.07    -0.228    20.887
ATOM     38  O   UNL d   1       7.721  25.982   5.442 +0.00 -0.03    -0.303    20.887
ATOM     39  H   UNL d   1       8.675  25.842   5.621 +0.00 +0.02    +0.222    20.887
ATOM     40  O   UNL d   1       5.821  25.079   4.077 +0.00 -0.06    -0.303    20.887
ATOM     41  H   UNL d   1       5.421  24.330   3.583 +0.01 +0.07    +0.222    20.887
ATOM     42  O   UNL d   1      10.855  23.990   4.774 +0.00 -0.02    -0.278    20.887
ATOM     43  P   UNL d   1      11.220  25.284   5.632 +0.00 +0.02    +0.473    20.887
ATOM     44  O   UNL d   1      10.659  26.588   5.181 +0.00 -0.01    -0.228    20.887
ATOM     45  O   UNL d   1      10.785  24.862   7.103 +0.00 -0.01    -0.303    20.887
ATOM     46  H   UNL d   1      11.093  23.960   7.323 +0.00 +0.01    +0.222    20.887
ATOM     47  O   UNL d   1      12.819  25.218   5.734 +0.00 -0.00    -0.303    20.887
ATOM     48  H   UNL d   1      13.078  25.120   6.673 +0.00 +0.00    +0.222    20.887
TER
ENDMDL
MODEL       23
USER    Run = 23
USER    Cluster Rank = 92
USER    Number of conformations in this cluster = 1
USER  
USER    RMSD from reference structure       = 20.809 A
USER  
USER    Estimated Free Energy of Binding    =   +5.12 kcal/mol  [=(1)+(2)+(3)-(4)]
USER    
USER    (1) Final Intermolecular Energy     =   -2.03 kcal/mol
USER        vdW + Hbond + desolv Energy     =   -1.95 kcal/mol
USER        Electrostatic Energy            =   -0.09 kcal/mol
USER    (2) Final Total Internal Energy     =  -14.08 kcal/mol
USER    (3) Torsional Free Energy           =   +7.16 kcal/mol
USER    (4) Unbound System's Energy  [=(2)] =  -14.08 kcal/mol
USER    
USER    
USER  
USER    DPF = D:/Protein_go_brrr/autodock/final/AncMH_nat/IHP/dock.dpf
USER    NEWDPF move	IHP_ideal_opt.pdbqt
USER    NEWDPF about	0.035000 0.082000 -0.065000
USER    NEWDPF tran0	-8.794552 17.298963 -13.488016
USER    NEWDPF axisangle0	-0.172425 -0.515296 -0.839488 137.604151
USER    NEWDPF quaternion0	-0.160758 -0.480430 -0.782685 0.361591
USER    NEWDPF dihe0	92.55 83.24 12.78 14.98 -15.22 164.37 17.90 -104.30 26.30 27.99 -179.90 -154.77 -54.74 -179.99 -166.95 108.98 155.18 -0.18 2.34 -38.99 -38.46 -39.56 -8.93 -12.51 
USER  
USER                              x       y       z    vdW   Elec        q     RMS 
ATOM      1  C   UNL d   1      -8.816  18.951 -13.994 +0.00 -0.00    +0.194    20.809
ATOM      2  C   UNL d   1      -7.849  18.039 -14.752 +0.00 -0.00    +0.194    20.809
ATOM      3  C   UNL d   1      -7.095  17.102 -13.807 -0.03 +0.00    +0.194    20.809
ATOM      4  C   UNL d   1      -8.016  16.318 -12.875 -0.05 +0.01    +0.194    20.809
ATOM      5  C   UNL d   1      -9.072  17.172 -12.185 -0.04 +0.00    +0.194    20.809
ATOM      6  C   UNL d   1      -9.783  18.153 -13.119 -0.00 -0.00    +0.194    20.809
ATOM      7  O   UNL d   1      -9.599  19.666 -14.953 +0.00 +0.01    -0.278    20.809
ATOM      8  P   UNL d   1      -9.531  21.262 -14.950 +0.00 -0.01    +0.473    20.809
ATOM      9  O   UNL d   1      -8.690  21.855 -13.875 +0.00 +0.00    -0.228    20.809
ATOM     10  O   UNL d   1      -9.025  21.630 -16.418 +0.00 +0.01    -0.303    20.809
ATOM     11  H   UNL d   1      -8.116  21.297 -16.543 +0.00 -0.01    +0.222    20.809
ATOM     12  O   UNL d   1     -11.045  21.740 -14.990 +0.00 +0.01    -0.303    20.809
ATOM     13  H   UNL d   1     -11.642  21.176 -14.449 +0.00 -0.00    +0.222    20.809
ATOM     14  O   UNL d   1      -8.591  17.245 -15.687 +0.00 +0.01    -0.278    20.809
ATOM     15  P   UNL d   1      -8.734  17.832 -17.169 +0.00 -0.02    +0.473    20.809
ATOM     16  O   UNL d   1     -10.126  17.990 -17.698 +0.00 +0.01    -0.228    20.809
ATOM     17  O   UNL d   1      -7.933  19.209 -17.121 +0.00 +0.01    -0.303    20.809
ATOM     18  H   UNL d   1      -8.488  19.926 -16.759 +0.00 -0.01    +0.222    20.809
ATOM     19  O   UNL d   1      -7.764  16.929 -18.049 +0.00 +0.01    -0.303    20.809
ATOM     20  H   UNL d   1      -6.904  16.792 -17.611 +0.00 -0.01    +0.222    20.809
ATOM     21  O   UNL d   1     -10.467  19.090 -12.290 +0.00 +0.00    -0.278    20.809
ATOM     22  P   UNL d   1     -11.920  19.602 -12.704 +0.01 -0.00    +0.473    20.809
ATOM     23  O   UNL d   1     -12.221  21.056 -12.564 +0.00 +0.00    -0.228    20.809
ATOM     24  O   UNL d   1     -12.056  19.031 -14.183 +0.00 +0.00    -0.303    20.809
ATOM     25  H   UNL d   1     -11.581  19.648 -14.797 +0.00 -0.00    +0.222    20.809
ATOM     26  O   UNL d   1     -12.864  18.605 -11.876 +0.00 +0.00    -0.303    20.809
ATOM     27  H   UNL d   1     -12.318  17.890 -11.491 +0.01 +0.00    +0.222    20.809
ATOM     28  O   UNL d   1      -6.443  16.122 -14.605 -0.01 +0.01    -0.278    20.809
ATOM     29  P   UNL d   1      -5.191  16.521 -15.505 +0.01 -0.03    +0.473    20.809
ATOM     30  O   UNL d   1      -3.882  16.554 -14.803 -0.01 +0.02    -0.228    20.809
ATOM     31  O   UNL d   1      -5.351  15.460 -16.692 +0.00 +0.02    -0.303    20.809
ATOM     32  H   UNL d   1      -6.147  15.699 -17.222 +0.00 -0.01    +0.222    20.809
ATOM     33  O   UNL d   1      -5.681  17.878 -16.177 +0.00 +0.01    -0.303    20.809
ATOM     34  H   UNL d   1      -6.609  17.760 -16.499 +0.00 -0.01    +0.222    20.809
ATOM     35  O   UNL d   1     -10.057  16.257 -11.707 -0.02 -0.00    -0.278    20.809
ATOM     36  P   UNL d   1     -10.410  16.194 -10.153 -0.04 +0.01    +0.473    20.809
ATOM     37  O   UNL d   1     -11.086  14.941  -9.696 -0.07 +0.00    -0.228    20.809
ATOM     38  O   UNL d   1      -8.988  16.452  -9.485 -0.25 -0.05    -0.303    20.809
ATOM     39  H   UNL d   1      -8.310  15.923  -9.958 +0.05 +0.02    +0.222    20.809
ATOM     40  O   UNL d   1     -11.193  17.560  -9.927 -0.01 -0.01    -0.303    20.809
ATOM     41  H   UNL d   1     -11.081  18.174 -10.686 +0.02 +0.00    +0.222    20.809
ATOM     42  O   UNL d   1      -7.190  15.759 -11.849 -0.41 -0.06    -0.278    20.809
ATOM     43  P   UNL d   1      -7.209  14.181 -11.617 -0.09 +0.01    +0.473    20.809
ATOM     44  O   UNL d   1      -7.131  13.309 -12.823 -0.12 +0.01    -0.228    20.809
ATOM     45  O   UNL d   1      -6.022  13.965 -10.580 -0.38 -0.02    -0.303    20.809
ATOM     46  H   UNL d   1      -6.361  13.758  -9.686 -0.41 -0.06    +0.222    20.809
ATOM     47  O   UNL d   1      -8.497  13.963 -10.688 -0.17 +0.03    -0.303    20.809
ATOM     48  H   UNL d   1      -9.121  14.707 -10.821 +0.05 -0.01    +0.222    20.809
TER
ENDMDL


AVSFLD: # AVS field file
AVSFLD: #
AVSFLD: # Created by AutoDock
AVSFLD: #
AVSFLD: ndim=2           # number of dimensions in the field
AVSFLD: nspace=1         # number of physical coordinates
AVSFLD: veclen=7         # vector size
AVSFLD: dim1=48          # atoms
AVSFLD: dim2=92          # conformations
AVSFLD: data=Real       # data type (byte,integer,Real,double)
AVSFLD: field=uniform    # field coordinate layout
AVSFLD: label= x y z vdW Elec q RMS
AVSFLD: variable 1 file = D:/Protein_go_brrr/autodock/final/AncMH_nat/IHP/dock.dlg.pdb filetype = ascii offset = 5 stride = 12
AVSFLD: variable 2 file = D:/Protein_go_brrr/autodock/final/AncMH_nat/IHP/dock.dlg.pdb filetype = ascii offset = 6 stride = 12
AVSFLD: variable 3 file = D:/Protein_go_brrr/autodock/final/AncMH_nat/IHP/dock.dlg.pdb filetype = ascii offset = 7 stride = 12
AVSFLD: variable 4 file = D:/Protein_go_brrr/autodock/final/AncMH_nat/IHP/dock.dlg.pdb filetype = ascii offset = 8 stride = 12
AVSFLD: variable 5 file = D:/Protein_go_brrr/autodock/final/AncMH_nat/IHP/dock.dlg.pdb filetype = ascii offset = 9 stride = 12
AVSFLD: variable 6 file = D:/Protein_go_brrr/autodock/final/AncMH_nat/IHP/dock.dlg.pdb filetype = ascii offset = 10 stride = 12
AVSFLD: variable 7 file = D:/Protein_go_brrr/autodock/final/AncMH_nat/IHP/dock.dlg.pdb filetype = ascii offset = 11 stride = 12
AVSFLD: # end of file

>>> Closing the docking parameter file (DPF)...
This docking finished at:			11:37 58" a.m., 10/02/2025


________________________________________________________________________________

D:/autodockScripts/autodock4.exe: Successful Completion on "ACER"

Real= 11h 11m 21.84s,  CPU= 1m 33.41s,  System= 33.08s
________________________________________________________________________________

