          AutoDock 4.2 Release 4.2.6   
         (C) 1989-2012 The Scripps Research Institute
        AutoDock comes with ABSOLUTELY NO WARRANTY.
        AutoDock is free software, and you are welcome
        to redistribute it under certain conditions;
        for details type 'autodock4 -C'

                     main.cc  $Revision: 1.213 $

                   Compiled on Jul 18 2014 at 15:34:58


This file was created at:			5:41 19" p.m., 10/02/2025
                   on host:		"ACER"
Current Working Directory = "D:\Protein_go_brrr\autodock\final\mut_D99N\2_3_BPG"

      ________________________________________________________________

                   SETTING UP DEFAULT PARAMETER LIBRARY
      ________________________________________________________________


Random number generator was seeded with values 135160, 1759419679.
Docking parameter file (DPF) used for this docking:		D:/Protein_go_brrr/autodock/final/mut_D99N/2_3_BPG/dock.dpf
DPF> autodock_parameter_version 4.2       # used by autodock to validate parameter set

	Autodock parameter version 4.2.
DPF> outlev 1                             # diagnostic output level

Output Level = 1  ADT-COMPATIBLE OUTPUT DURING DOCKING.
DPF> intelec                              # calculate internal electrostatics

Electrostatic energies will be calculated for all non-bonds between moving atoms.
DPF> seed pid time                        # seeds for random generator

Random number generator was seeded with values 135160, 1759419679.
DPF> ligand_types P C OA                  # atoms types in ligand

DPF> fld mut_D99N_m0.maps.fld             # grid_data_file

Opening Grid Map Dimensions file:		mut_D99N_m0.maps.fld
Grid Point Spacing =				0.453 Angstroms

Even Number of User-specified Grid Points =	126 x-points
						124 y-points
						126 z-points

Coordinates of Central Grid Point of Maps =	(-0.119, -0.072, -0.886)
Macromolecule file used to create Grid Maps =	mut_D99N_m0.pdbqt
Grid Parameter file used to create Grid Maps =	D:/Protein_go_brrr/autodock/final/mut_D99N/2_3_BPG/grid.gpf
Minimum coordinates in grid = (-28.658, -28.158, -29.425)
Maximum coordinates in grid = (28.420, 28.014, 27.653)

DPF> map mut_D99N_m0.P.map                # atom-specific affinity map

DPF> map mut_D99N_m0.C.map                # atom-specific affinity map

DPF> map mut_D99N_m0.OA.map               # atom-specific affinity map

DPF> elecmap mut_D99N_m0.e.map            # electrostatics map

DPF> desolvmap mut_D99N_m0.d.map          # desolvation map

DPF> move 2_3_BPG_opt.pdbqt               # small molecule

1,4-interactions will be _ignored_ in the non-bonded internal energy calculation.

Ligand PDBQT file = "2_3_BPG_opt.pdbqt"

INPUT LIGAND PDBQT FILE:
________________________

INPUT-LIGAND-PDBQT: REMARK  6 active torsions:
INPUT-LIGAND-PDBQT: REMARK  status: ('A' for Active; 'I' for Inactive)
INPUT-LIGAND-PDBQT: REMARK    1  A    between atoms: P_1  and  O_3 
INPUT-LIGAND-PDBQT: REMARK    2  A    between atoms: P_2  and  O_4 
INPUT-LIGAND-PDBQT: REMARK    3  A    between atoms: O_3  and  C_13 
INPUT-LIGAND-PDBQT: REMARK    4  A    between atoms: O_4  and  C_14 
INPUT-LIGAND-PDBQT: REMARK    5  A    between atoms: C_13  and  C_14 
INPUT-LIGAND-PDBQT: REMARK    6  A    between atoms: C_13  and  C_15 
INPUT-LIGAND-PDBQT: ROOT
INPUT-LIGAND-PDBQT: ATOM      1  C   UNL d   1      -0.571  -0.229   0.124  0.00  0.00     0.193 C 
INPUT-LIGAND-PDBQT: ENDROOT
INPUT-LIGAND-PDBQT: BRANCH   1   2
INPUT-LIGAND-PDBQT: ATOM      2  O   UNL d   1      -1.621   0.569  -0.519  0.00  0.00    -0.356 OA
INPUT-LIGAND-PDBQT: BRANCH   2   3
INPUT-LIGAND-PDBQT: ATOM      3  P   UNL d   1      -3.039   0.957   0.218  0.00  0.00    -0.014 P 
INPUT-LIGAND-PDBQT: ATOM      4  O   UNL d   1      -3.756   1.871  -0.788  0.00  0.00    -0.577 OA
INPUT-LIGAND-PDBQT: ATOM      5  O   UNL d   1      -2.691   1.702   1.505  0.00  0.00    -0.577 OA
INPUT-LIGAND-PDBQT: ATOM      6  O   UNL d   1      -3.816  -0.334   0.454  0.00  0.00    -0.638 OA
INPUT-LIGAND-PDBQT: ENDBRANCH   2   3
INPUT-LIGAND-PDBQT: ENDBRANCH   1   2
INPUT-LIGAND-PDBQT: BRANCH   1   7
INPUT-LIGAND-PDBQT: ATOM      7  C   UNL d   1       0.831   0.324  -0.327  0.00  0.00     0.201 C 
INPUT-LIGAND-PDBQT: BRANCH   7   8
INPUT-LIGAND-PDBQT: ATOM      8  O   UNL d   1       1.946  -0.012   0.528  0.00  0.00    -0.364 OA
INPUT-LIGAND-PDBQT: BRANCH   8   9
INPUT-LIGAND-PDBQT: ATOM      9  P   UNL d   1       3.455   0.578   0.194  0.00  0.00    -0.015 P 
INPUT-LIGAND-PDBQT: ATOM     10  O   UNL d   1       4.367  -0.029   1.267  0.00  0.00    -0.577 OA
INPUT-LIGAND-PDBQT: ATOM     11  O   UNL d   1       3.374   2.100   0.308  0.00  0.00    -0.577 OA
INPUT-LIGAND-PDBQT: ATOM     12  O   UNL d   1       3.825   0.102  -1.210  0.00  0.00    -0.638 OA
INPUT-LIGAND-PDBQT: ENDBRANCH   8   9
INPUT-LIGAND-PDBQT: ENDBRANCH   7   8
INPUT-LIGAND-PDBQT: ENDBRANCH   1   7
INPUT-LIGAND-PDBQT: BRANCH   1  13
INPUT-LIGAND-PDBQT: ATOM     13  C   UNL d   1      -0.687  -1.734  -0.323  0.00  0.00     0.073 C 
INPUT-LIGAND-PDBQT: ATOM     14  O   UNL d   1      -0.704  -2.000  -1.576  0.00  0.00    -0.547 OA
INPUT-LIGAND-PDBQT: ATOM     15  O   UNL d   1      -0.694  -2.619   0.607  0.00  0.00    -0.547 OA
INPUT-LIGAND-PDBQT: ENDBRANCH   1  13
INPUT-LIGAND-PDBQT: TORSDOF 6
________________________________________________________________________________

Total charge on ligand                               =	-4.960 e
REMARK  6 active torsions:
REMARK  status: ('A' for Active; 'I' for Inactive)
REMARK    1  A    between atoms: P_1  and  O_3 
REMARK    2  A    between atoms: P_2  and  O_4 
REMARK    3  A    between atoms: O_3  and  C_13 
REMARK    4  A    between atoms: O_4  and  C_14 
REMARK    5  A    between atoms: C_13  and  C_14 
REMARK    6  A    between atoms: C_13  and  C_15 


Number of Rotatable Bonds in Small Molecule =	6 torsions
Number of atoms in ligand:  15

Number of non-hydrogen atoms in ligand:  15

Number of vibrational degrees of freedom of ligand:  39


Number of torsional degrees of freedom = 6
Estimated loss of torsional free energy upon binding = +1.7898 kcal/mol


DPF> about 0.015 0.083 0.031            # small molecule center

Small molecule center of rotation =	(+0.015, +0.083, +0.031)

DPF> tran0 random                         # initial coordinates/A or random

Initial translation =			(18.036, -10.947, 21.267) Angstroms
DPF> quaternion0 random                   # initial orientation

Each run will begin with a new, random initial orientation.
Initial quaternion,  (x,y,z,w) =	( 0.108, -0.267, -0.080, 0.954 ),
DPF> dihe0 random                         # initial dihedrals (relative) or random

DPF> torsdof 6                            # torsional degrees of freedom

Number of torsional degrees of freedom = 6
Free energy coefficient for torsional degrees of freedom = 0.2983, the factory default value.

Estimated loss of torsional free energy upon binding = +1.7898 kcal/mol

DPF> rmstol 2.0                           # cluster_tolerance/A

Maximum RMS tolerance for conformational cluster analysis = 2.00 Angstroms
DPF> extnrg 1000.0                        # external grid energy

External grid energy (beyond grid map walls) = 1000.00

DPF> e0max 0.0 10000                      # max initial energy; max number of retries

Using user-specified maximum number of retries for simanneal initialization, 10000 retries.
If the simanneal initial energy is greater than e0max, 0.000,
then a new, random initial state will be created.

DPF> ga_pop_size 150                      # number of individuals in population

A population of 150 individuals will be used
DPF> ga_num_evals 25000000                # maximum number of energy evaluations

There will be at most 25000000 function evaluations used.
DPF> ga_num_generations 27000             # maximum number of generations

The GA will run for at most 27000 generations.
DPF> ga_elitism 1                         # number of top individuals to survive to next generation

The 1 best will be preserved each GA generation.
DPF> ga_mutation_rate 0.02                # rate of gene mutation

The mutation rate is 0.020000.
DPF> ga_crossover_rate 0.8                # rate of crossover

The crossover rate is 0.800000.
DPF> ga_window_size 10                    # 

The GA's selection window is 10 generations.
DPF> ga_cauchy_alpha 0.0                  # Alpha parameter of Cauchy distribution

The alpha parameter (for the Cauchy distribution) is being set to 0.000000.
DPF> ga_cauchy_beta 1.0                   # Beta parameter Cauchy distribution

The beta parameter (for the Cauchy distribution) is being set to 1.000000.
DPF> set_ga                               # set the above parameters for GA or LGA

DPF> sw_max_its 300                       # iterations of Solis & Wets local search

Solis & Wets algorithms will perform at most 300 iterations.
DPF> sw_max_succ 4                        # consecutive successes before changing rho

Solis & Wets algorithms expand rho every 4 in a row successes.
DPF> sw_max_fail 4                        # consecutive failures before changing rho

Solis & Wets algorithms contract rho every 4 in a row failures.
DPF> sw_rho 1.0                           # size of local search space to sample

rho is set to 1.000000.
DPF> sw_lb_rho 0.01                       # lower bound on rho

rho will never get smaller than 0.010000.
DPF> ls_search_freq 0.06                  # probability of performing local search on individual

Local search will be performed with frequency 0.060000.
DPF> set_psw1                             # set the above pseudo-Solis & Wets parameters

Creating a new Local Search object using the pseudo-Solis-Wets algorithm (pSW1) with the current settings.

DPF> unbound_model bound                  # state of unbound ligand

DPF> ga_run 100                           # do this many hybrid GA-LS runs

centering ligand on specified point: 0.015 0.083 0.031
Furthest true ligand atom from "about" center is 4.525 Angstroms (maxrad).
Number of requested GA dockings = 100 runs
Unbound model to be used is 'same as bound' [AutoDock 4.2 default].

	BEGINNING GENETIC ALGORITHM DOCKING 1 of 100
Run: 1 Seed: 1681553031 1265819702 [ Run 1 of 100 GA/GALS ]
Beginning LAMARCKIAN GENETIC ALGORITHM (LGA), with a maximum of 25000000 energy evaluations.

Final-Value: -9.379


	FINAL GENETIC ALGORITHM DOCKED STATE
	_______________________________________________


Detailed state:  trans -4.037 -2.445 -16.802 quatxyzw -0.015819 -0.828353 0.006149 0.559950 center 0.015 0.083 0.031 ntor 6 -139.9569 14.5736 153.1946 37.8028 -47.1311 -83.4593
State:	 -4.037  -2.445 -16.802  -0.019 -1.000  0.007 111.895   -139.96   14.57  153.19   37.80  -47.13  -83.46

DOCKED: MODEL        1
DOCKED: USER    Run = 1
DOCKED: USER    DPF = D:/Protein_go_brrr/autodock/final/mut_D99N/2_3_BPG/dock.dpf
DOCKED: USER  
DOCKED: USER    Estimated Free Energy of Binding    =   -9.71 kcal/mol  [=(1)+(2)+(3)-(4)]
DOCKED: USER    Estimated Inhibition Constant, Ki   =   76.26 nM (nanomolar)  [Temperature = 298.15 K]
DOCKED: USER    
DOCKED: USER    (1) Final Intermolecular Energy     =  -11.50 kcal/mol
DOCKED: USER        vdW + Hbond + desolv Energy     =   -5.38 kcal/mol
DOCKED: USER        Electrostatic Energy            =   -6.12 kcal/mol
DOCKED: USER    (2) Final Total Internal Energy     =   +2.12 kcal/mol
DOCKED: USER    (3) Torsional Free Energy           =   +1.79 kcal/mol
DOCKED: USER    (4) Unbound System's Energy  [=(2)] =   +2.12 kcal/mol
DOCKED: USER    
DOCKED: USER    
DOCKED: USER    NEWDPF move 2_3_BPG_opt.pdbqt
DOCKED: USER    NEWDPF about 0.015000 0.083000 0.031000
DOCKED: USER    NEWDPF tran0 -4.036902 -2.444517 -16.802411
DOCKED: USER    NEWDPF quaternion0 -0.015819 -0.828353 0.006149 0.559950
DOCKED: USER    NEWDPF axisangle0 -0.019093 -0.999790 0.007421 111.895332
DOCKED: USER    NEWDPF quat0 -0.019093 -0.999790 0.007421 111.895332
DOCKED: USER    NEWDPF dihe0 -139.96 14.57 153.19 37.80 -47.13 -83.46 
DOCKED: USER  keepresnum = 1 
DOCKED: USER  
DOCKED: REMARK  6 active torsions:
DOCKED: REMARK  status: ('A' for Active; 'I' for Inactive)
DOCKED: REMARK    1  A    between atoms: P_1  and  O_3 
DOCKED: REMARK    2  A    between atoms: P_2  and  O_4 
DOCKED: REMARK    3  A    between atoms: O_3  and  C_13 
DOCKED: REMARK    4  A    between atoms: O_4  and  C_14 
DOCKED: REMARK    5  A    between atoms: C_13  and  C_14 
DOCKED: REMARK    6  A    between atoms: C_13  and  C_15 
DOCKED: USER                              x       y       z     vdW  Elec       q    Type
DOCKED: USER                           _______ _______ _______ _____ _____    ______ ____
DOCKED: ROOT
DOCKED: ATOM      1  C   UNL d   1      -3.743  -2.770 -16.296 -0.18 +0.31    +0.193 C 
DOCKED: ENDROOT
DOCKED: BRANCH   1   2
DOCKED: ATOM      2  O   UNL d   1      -3.922  -1.975 -15.076 -0.39 -0.45    -0.356 OA
DOCKED: BRANCH   2   3
DOCKED: ATOM      3  P   UNL d   1      -2.804  -0.902 -14.526 -0.72 -0.02    -0.014 P 
DOCKED: ATOM      4  O   UNL d   1      -3.293  -0.527 -13.118 +0.14 -0.28    -0.577 OA
DOCKED: ATOM      5  O   UNL d   1      -2.829   0.300 -15.467 -0.31 -1.01    -0.577 OA
DOCKED: ATOM      6  O   UNL d   1      -1.454  -1.610 -14.480 -0.45 -0.92    -0.638 OA
DOCKED: ENDBRANCH   2   3
DOCKED: ENDBRANCH   1   2
DOCKED: BRANCH   1   7
DOCKED: ATOM      7  C   UNL d   1      -4.665  -2.178 -17.424 -0.21 +0.31    +0.201 C 
DOCKED: BRANCH   7   8
DOCKED: ATOM      8  O   UNL d   1      -4.202  -0.955 -18.039 -0.64 -0.86    -0.364 OA
DOCKED: BRANCH   8   9
DOCKED: ATOM      9  P   UNL d   1      -4.272  -0.775 -19.682 -0.25 -0.02    -0.015 P 
DOCKED: ATOM     10  O   UNL d   1      -4.253  -2.203 -20.241 -0.09 -0.57    -0.577 OA
DOCKED: ATOM     11  O   UNL d   1      -3.032   0.017 -20.097 -0.11 -0.84    -0.577 OA
DOCKED: ATOM     12  O   UNL d   1      -5.578  -0.050 -20.002 -0.26 -1.12    -0.638 OA
DOCKED: ENDBRANCH   8   9
DOCKED: ENDBRANCH   7   8
DOCKED: ENDBRANCH   1   7
DOCKED: BRANCH   1  13
DOCKED: ATOM     13  C   UNL d   1      -4.164  -4.264 -16.033 -0.53 +0.06    +0.073 C 
DOCKED: ATOM     14  O   UNL d   1      -3.292  -5.069 -15.549 -0.77 -0.36    -0.547 OA
DOCKED: ATOM     15  O   UNL d   1      -5.389  -4.573 -16.262 -0.61 -0.35    -0.547 OA
DOCKED: ENDBRANCH   1  13
DOCKED: TORSDOF 6
DOCKED: TER
DOCKED: ENDMDL
________________________________________________________________________________


	BEGINNING GENETIC ALGORITHM DOCKING 2 of 100
Run: 2 Seed: 1756786670 658000673 [ Run 2 of 100 GA/GALS ]
Beginning LAMARCKIAN GENETIC ALGORITHM (LGA), with a maximum of 25000000 energy evaluations.

Final-Value: -8.983


	FINAL GENETIC ALGORITHM DOCKED STATE
	_______________________________________________


Detailed state:  trans -3.125 1.960 -16.068 quatxyzw -0.009499 -0.664918 0.503846 -0.551301 center 0.015 0.083 0.031 ntor 6 -166.4307 50.5947 151.7875 21.7955 46.5049 -73.0178
State:	 -3.125   1.960 -16.068  -0.011 -0.797  0.604 -113.087   -166.43   50.59  151.79   21.80   46.50  -73.02

DOCKED: MODEL        2
DOCKED: USER    Run = 2
DOCKED: USER    DPF = D:/Protein_go_brrr/autodock/final/mut_D99N/2_3_BPG/dock.dpf
DOCKED: USER  
DOCKED: USER    Estimated Free Energy of Binding    =   -9.57 kcal/mol  [=(1)+(2)+(3)-(4)]
DOCKED: USER    Estimated Inhibition Constant, Ki   =   97.36 nM (nanomolar)  [Temperature = 298.15 K]
DOCKED: USER    
DOCKED: USER    (1) Final Intermolecular Energy     =  -11.36 kcal/mol
DOCKED: USER        vdW + Hbond + desolv Energy     =   -4.22 kcal/mol
DOCKED: USER        Electrostatic Energy            =   -7.14 kcal/mol
DOCKED: USER    (2) Final Total Internal Energy     =   +2.37 kcal/mol
DOCKED: USER    (3) Torsional Free Energy           =   +1.79 kcal/mol
DOCKED: USER    (4) Unbound System's Energy  [=(2)] =   +2.37 kcal/mol
DOCKED: USER    
DOCKED: USER    
DOCKED: USER    NEWDPF move 2_3_BPG_opt.pdbqt
DOCKED: USER    NEWDPF about 0.015000 0.083000 0.031000
DOCKED: USER    NEWDPF tran0 -3.125213 1.959765 -16.067606
DOCKED: USER    NEWDPF quaternion0 -0.009499 -0.664918 0.503846 -0.551301
DOCKED: USER    NEWDPF axisangle0 -0.011386 -0.796971 0.603910 -113.087363
DOCKED: USER    NEWDPF quat0 -0.011386 -0.796971 0.603910 -113.087363
DOCKED: USER    NEWDPF dihe0 -166.43 50.59 151.79 21.80 46.50 -73.02 
DOCKED: USER  keepresnum = 1 
DOCKED: USER  
DOCKED: REMARK  6 active torsions:
DOCKED: REMARK  status: ('A' for Active; 'I' for Inactive)
DOCKED: REMARK    1  A    between atoms: P_1  and  O_3 
DOCKED: REMARK    2  A    between atoms: P_2  and  O_4 
DOCKED: REMARK    3  A    between atoms: O_3  and  C_13 
DOCKED: REMARK    4  A    between atoms: O_4  and  C_14 
DOCKED: REMARK    5  A    between atoms: C_13  and  C_14 
DOCKED: REMARK    6  A    between atoms: C_13  and  C_15 
DOCKED: USER                              x       y       z     vdW  Elec       q    Type
DOCKED: USER                           _______ _______ _______ _____ _____    ______ ____
DOCKED: ROOT
DOCKED: ATOM      1  C   UNL d   1      -2.795   1.412 -16.269 -0.24 +0.29    +0.193 C 
DOCKED: ENDROOT
DOCKED: BRANCH   1   2
DOCKED: ATOM      2  O   UNL d   1      -2.339   1.632 -17.646 -0.08 -0.57    -0.356 OA
DOCKED: BRANCH   2   3
DOCKED: ATOM      3  P   UNL d   1      -2.958   0.829 -18.941 -0.10 -0.03    -0.014 P 
DOCKED: ATOM      4  O   UNL d   1      -1.723   0.382 -19.739 -0.26 -0.99    -0.577 OA
DOCKED: ATOM      5  O   UNL d   1      -3.805   1.826 -19.729 -0.03 -0.84    -0.577 OA
DOCKED: ATOM      6  O   UNL d   1      -3.751  -0.365 -18.420 -0.36 -1.65    -0.638 OA
DOCKED: ENDBRANCH   2   3
DOCKED: ENDBRANCH   1   2
DOCKED: BRANCH   1   7
DOCKED: ATOM      7  C   UNL d   1      -3.310   2.778 -15.683 -0.19 +0.19    +0.201 C 
DOCKED: BRANCH   7   8
DOCKED: ATOM      8  O   UNL d   1      -4.692   3.100 -15.954 -0.06 -0.45    -0.364 OA
DOCKED: BRANCH   8   9
DOCKED: ATOM      9  P   UNL d   1      -5.095   4.586 -16.558 -0.38 -0.01    -0.015 P 
DOCKED: ATOM     10  O   UNL d   1      -3.974   5.523 -16.092 +0.01 -0.24    -0.577 OA
DOCKED: ATOM     11  O   UNL d   1      -6.445   4.964 -15.950 -0.53 -0.44    -0.577 OA
DOCKED: ATOM     12  O   UNL d   1      -5.140   4.457 -18.080 -0.45 -0.91    -0.638 OA
DOCKED: ENDBRANCH   8   9
DOCKED: ENDBRANCH   7   8
DOCKED: ENDBRANCH   1   7
DOCKED: BRANCH   1  13
DOCKED: ATOM     13  C   UNL d   1      -1.601   0.900 -15.380 -0.33 +0.11    +0.073 C 
DOCKED: ATOM     14  O   UNL d   1      -1.645  -0.297 -14.927 -0.70 -1.02    -0.547 OA
DOCKED: ATOM     15  O   UNL d   1      -0.613   1.703 -15.213 -0.51 -0.60    -0.547 OA
DOCKED: ENDBRANCH   1  13
DOCKED: TORSDOF 6
DOCKED: TER
DOCKED: ENDMDL
________________________________________________________________________________


	BEGINNING GENETIC ALGORITHM DOCKING 3 of 100
Run: 3 Seed: 1907234930 942482879 [ Run 3 of 100 GA/GALS ]
Beginning LAMARCKIAN GENETIC ALGORITHM (LGA), with a maximum of 25000000 energy evaluations.

Final-Value: -8.766


	FINAL GENETIC ALGORITHM DOCKED STATE
	_______________________________________________


Detailed state:  trans -2.528 2.132 -17.265 quatxyzw -0.494832 0.567012 0.093485 -0.651843 center 0.015 0.083 0.031 ntor 6 3.2884 117.0249 -179.6645 64.3196 6.1732 155.2490
State:	 -2.528   2.132 -17.265  -0.653  0.748  0.123 -98.639      3.29  117.02 -179.66   64.32    6.17  155.25

DOCKED: MODEL        3
DOCKED: USER    Run = 3
DOCKED: USER    DPF = D:/Protein_go_brrr/autodock/final/mut_D99N/2_3_BPG/dock.dpf
DOCKED: USER  
DOCKED: USER    Estimated Free Energy of Binding    =   -9.25 kcal/mol  [=(1)+(2)+(3)-(4)]
DOCKED: USER    Estimated Inhibition Constant, Ki   =  166.04 nM (nanomolar)  [Temperature = 298.15 K]
DOCKED: USER    
DOCKED: USER    (1) Final Intermolecular Energy     =  -11.04 kcal/mol
DOCKED: USER        vdW + Hbond + desolv Energy     =   -3.80 kcal/mol
DOCKED: USER        Electrostatic Energy            =   -7.24 kcal/mol
DOCKED: USER    (2) Final Total Internal Energy     =   +2.27 kcal/mol
DOCKED: USER    (3) Torsional Free Energy           =   +1.79 kcal/mol
DOCKED: USER    (4) Unbound System's Energy  [=(2)] =   +2.27 kcal/mol
DOCKED: USER    
DOCKED: USER    
DOCKED: USER    NEWDPF move 2_3_BPG_opt.pdbqt
DOCKED: USER    NEWDPF about 0.015000 0.083000 0.031000
DOCKED: USER    NEWDPF tran0 -2.528103 2.131922 -17.265056
DOCKED: USER    NEWDPF quaternion0 -0.494832 0.567012 0.093485 -0.651843
DOCKED: USER    NEWDPF axisangle0 -0.652508 0.747688 0.123274 -98.638609
DOCKED: USER    NEWDPF quat0 -0.652508 0.747688 0.123274 -98.638609
DOCKED: USER    NEWDPF dihe0 3.29 117.02 -179.66 64.32 6.17 155.25 
DOCKED: USER  keepresnum = 1 
DOCKED: USER  
DOCKED: REMARK  6 active torsions:
DOCKED: REMARK  status: ('A' for Active; 'I' for Inactive)
DOCKED: REMARK    1  A    between atoms: P_1  and  O_3 
DOCKED: REMARK    2  A    between atoms: P_2  and  O_4 
DOCKED: REMARK    3  A    between atoms: O_3  and  C_13 
DOCKED: REMARK    4  A    between atoms: O_4  and  C_14 
DOCKED: REMARK    5  A    between atoms: C_13  and  C_14 
DOCKED: REMARK    6  A    between atoms: C_13  and  C_15 
DOCKED: USER                              x       y       z     vdW  Elec       q    Type
DOCKED: USER                           _______ _______ _______ _____ _____    ______ ____
DOCKED: ROOT
DOCKED: ATOM      1  C   UNL d   1      -2.454   2.305 -16.622 -0.20 +0.22    +0.193 C 
DOCKED: ENDROOT
DOCKED: BRANCH   1   2
DOCKED: ATOM      2  O   UNL d   1      -3.771   2.677 -16.093 -0.14 -0.42    -0.356 OA
DOCKED: BRANCH   2   3
DOCKED: ATOM      3  P   UNL d   1      -4.592   4.018 -16.576 -0.30 -0.01    -0.014 P 
DOCKED: ATOM      4  O   UNL d   1      -3.747   5.192 -16.059 -0.00 -0.27    -0.577 OA
DOCKED: ATOM      5  O   UNL d   1      -5.964   3.974 -15.905 -0.20 -0.61    -0.577 OA
DOCKED: ATOM      6  O   UNL d   1      -4.660   4.005 -18.100 -0.50 -1.04    -0.638 OA
DOCKED: ENDBRANCH   2   3
DOCKED: ENDBRANCH   1   2
DOCKED: BRANCH   1   7
DOCKED: ATOM      7  C   UNL d   1      -2.647   1.623 -18.026 -0.12 +0.32    +0.201 C 
DOCKED: BRANCH   7   8
DOCKED: ATOM      8  O   UNL d   1      -3.698   0.636 -18.108 -0.09 -0.81    -0.364 OA
DOCKED: BRANCH   8   9
DOCKED: ATOM      9  P   UNL d   1      -3.847  -0.308 -19.459 -0.16 -0.03    -0.015 P 
DOCKED: ATOM     10  O   UNL d   1      -2.676   0.100 -20.361 -0.06 -0.74    -0.577 OA
DOCKED: ATOM     11  O   UNL d   1      -5.198   0.027 -20.090 -0.19 -0.93    -0.577 OA
DOCKED: ATOM     12  O   UNL d   1      -3.742  -1.764 -19.006 -0.51 -1.35    -0.638 OA
DOCKED: ENDBRANCH   8   9
DOCKED: ENDBRANCH   7   8
DOCKED: ENDBRANCH   1   7
DOCKED: BRANCH   1  13
DOCKED: ATOM     13  C   UNL d   1      -1.754   1.279 -15.655 -0.34 +0.10    +0.073 C 
DOCKED: ATOM     14  O   UNL d   1      -2.362   0.185 -15.382 -0.44 -1.07    -0.547 OA
DOCKED: ATOM     15  O   UNL d   1      -0.575   1.577 -15.243 -0.57 -0.61    -0.547 OA
DOCKED: ENDBRANCH   1  13
DOCKED: TORSDOF 6
DOCKED: TER
DOCKED: ENDMDL
________________________________________________________________________________


	BEGINNING GENETIC ALGORITHM DOCKING 4 of 100
Run: 4 Seed: 1969626769 2118724932 [ Run 4 of 100 GA/GALS ]
Beginning LAMARCKIAN GENETIC ALGORITHM (LGA), with a maximum of 25000000 energy evaluations.

Final-Value: -8.111


	FINAL GENETIC ALGORITHM DOCKED STATE
	_______________________________________________


Detailed state:  trans -0.098 1.594 -18.076 quatxyzw 0.044197 -0.629646 -0.639012 0.439609 center 0.015 0.083 0.031 ntor 6 -178.7770 -158.2523 -55.4532 76.0376 -30.8954 126.0223
State:	 -0.098   1.594 -18.076   0.049 -0.701 -0.711 127.842   -178.78 -158.25  -55.45   76.04  -30.90  126.02

DOCKED: MODEL        4
DOCKED: USER    Run = 4
DOCKED: USER    DPF = D:/Protein_go_brrr/autodock/final/mut_D99N/2_3_BPG/dock.dpf
DOCKED: USER  
DOCKED: USER    Estimated Free Energy of Binding    =   -8.85 kcal/mol  [=(1)+(2)+(3)-(4)]
DOCKED: USER    Estimated Inhibition Constant, Ki   =  325.06 nM (nanomolar)  [Temperature = 298.15 K]
DOCKED: USER    
DOCKED: USER    (1) Final Intermolecular Energy     =  -10.64 kcal/mol
DOCKED: USER        vdW + Hbond + desolv Energy     =   -3.65 kcal/mol
DOCKED: USER        Electrostatic Energy            =   -6.99 kcal/mol
DOCKED: USER    (2) Final Total Internal Energy     =   +2.53 kcal/mol
DOCKED: USER    (3) Torsional Free Energy           =   +1.79 kcal/mol
DOCKED: USER    (4) Unbound System's Energy  [=(2)] =   +2.53 kcal/mol
DOCKED: USER    
DOCKED: USER    
DOCKED: USER    NEWDPF move 2_3_BPG_opt.pdbqt
DOCKED: USER    NEWDPF about 0.015000 0.083000 0.031000
DOCKED: USER    NEWDPF tran0 -0.097672 1.593924 -18.075520
DOCKED: USER    NEWDPF quaternion0 0.044197 -0.629646 -0.639012 0.439609
DOCKED: USER    NEWDPF axisangle0 0.049207 -0.701017 -0.711445 127.842151
DOCKED: USER    NEWDPF quat0 0.049207 -0.701017 -0.711445 127.842151
DOCKED: USER    NEWDPF dihe0 -178.78 -158.25 -55.45 76.04 -30.90 126.02 
DOCKED: USER  keepresnum = 1 
DOCKED: USER  
DOCKED: REMARK  6 active torsions:
DOCKED: REMARK  status: ('A' for Active; 'I' for Inactive)
DOCKED: REMARK    1  A    between atoms: P_1  and  O_3 
DOCKED: REMARK    2  A    between atoms: P_2  and  O_4 
DOCKED: REMARK    3  A    between atoms: O_3  and  C_13 
DOCKED: REMARK    4  A    between atoms: O_4  and  C_14 
DOCKED: REMARK    5  A    between atoms: C_13  and  C_14 
DOCKED: REMARK    6  A    between atoms: C_13  and  C_15 
DOCKED: USER                              x       y       z     vdW  Elec       q    Type
DOCKED: USER                           _______ _______ _______ _____ _____    ______ ____
DOCKED: ROOT
DOCKED: ATOM      1  C   UNL d   1       0.498   1.320 -17.938 -0.13 +0.19    +0.193 C 
DOCKED: ENDROOT
DOCKED: BRANCH   1   2
DOCKED: ATOM      2  O   UNL d   1       0.326   0.389 -16.817 +0.03 -0.53    -0.356 OA
DOCKED: BRANCH   2   3
DOCKED: ATOM      3  P   UNL d   1      -0.303   0.833 -15.364 -0.47 -0.02    -0.014 P 
DOCKED: ATOM      4  O   UNL d   1      -1.022   2.161 -15.647 -0.26 -0.59    -0.577 OA
DOCKED: ATOM      5  O   UNL d   1       0.868   1.022 -14.402 -0.53 -0.43    -0.577 OA
DOCKED: ATOM      6  O   UNL d   1      -1.282  -0.251 -14.924 -0.65 -1.15    -0.638 OA
DOCKED: ENDBRANCH   2   3
DOCKED: ENDBRANCH   1   2
DOCKED: BRANCH   1   7
DOCKED: ATOM      7  C   UNL d   1      -0.922   1.748 -18.462 -0.10 +0.24    +0.201 C 
DOCKED: BRANCH   7   8
DOCKED: ATOM      8  O   UNL d   1      -1.637   0.755 -19.230 -0.27 -0.67    -0.364 OA
DOCKED: BRANCH   8   9
DOCKED: ATOM      9  P   UNL d   1      -3.291   0.755 -19.252 -0.19 -0.03    -0.015 P 
DOCKED: ATOM     10  O   UNL d   1      -3.670   0.772 -20.737 -0.01 -0.61    -0.577 OA
DOCKED: ATOM     11  O   UNL d   1      -3.746   2.025 -18.532 -0.08 -1.04    -0.577 OA
DOCKED: ATOM     12  O   UNL d   1      -3.751  -0.525 -18.556 -0.47 -1.65    -0.638 OA
DOCKED: ENDBRANCH   8   9
DOCKED: ENDBRANCH   7   8
DOCKED: ENDBRANCH   1   7
DOCKED: BRANCH   1  13
DOCKED: ATOM     13  C   UNL d   1       1.276   0.614 -19.111 -0.13 +0.05    +0.073 C 
DOCKED: ATOM     14  O   UNL d   1       2.342   1.167 -19.557 +0.00 -0.20    -0.547 OA
DOCKED: ATOM     15  O   UNL d   1       0.824  -0.519 -19.510 -0.41 -0.55    -0.547 OA
DOCKED: ENDBRANCH   1  13
DOCKED: TORSDOF 6
DOCKED: TER
DOCKED: ENDMDL
________________________________________________________________________________


	BEGINNING GENETIC ALGORITHM DOCKING 5 of 100
Run: 5 Seed: 1459351641 194446739 [ Run 5 of 100 GA/GALS ]
Beginning LAMARCKIAN GENETIC ALGORITHM (LGA), with a maximum of 25000000 energy evaluations.

Final-Value: -8.520


	FINAL GENETIC ALGORITHM DOCKED STATE
	_______________________________________________


Detailed state:  trans -2.240 1.924 -17.287 quatxyzw -0.533872 0.589888 0.073576 -0.601331 center 0.015 0.083 0.031 ntor 6 -0.4450 119.0030 -78.6321 59.3201 13.6621 -177.4472
State:	 -2.240   1.924 -17.287  -0.668  0.738  0.092 -106.069     -0.44  119.00  -78.63   59.32   13.66 -177.45

DOCKED: MODEL        5
DOCKED: USER    Run = 5
DOCKED: USER    DPF = D:/Protein_go_brrr/autodock/final/mut_D99N/2_3_BPG/dock.dpf
DOCKED: USER  
DOCKED: USER    Estimated Free Energy of Binding    =   -9.06 kcal/mol  [=(1)+(2)+(3)-(4)]
DOCKED: USER    Estimated Inhibition Constant, Ki   =  229.66 nM (nanomolar)  [Temperature = 298.15 K]
DOCKED: USER    
DOCKED: USER    (1) Final Intermolecular Energy     =  -10.85 kcal/mol
DOCKED: USER        vdW + Hbond + desolv Energy     =   -3.71 kcal/mol
DOCKED: USER        Electrostatic Energy            =   -7.14 kcal/mol
DOCKED: USER    (2) Final Total Internal Energy     =   +2.33 kcal/mol
DOCKED: USER    (3) Torsional Free Energy           =   +1.79 kcal/mol
DOCKED: USER    (4) Unbound System's Energy  [=(2)] =   +2.33 kcal/mol
DOCKED: USER    
DOCKED: USER    
DOCKED: USER    NEWDPF move 2_3_BPG_opt.pdbqt
DOCKED: USER    NEWDPF about 0.015000 0.083000 0.031000
DOCKED: USER    NEWDPF tran0 -2.240052 1.924012 -17.286851
DOCKED: USER    NEWDPF quaternion0 -0.533872 0.589888 0.073576 -0.601331
DOCKED: USER    NEWDPF axisangle0 -0.668175 0.738283 0.092085 -106.069375
DOCKED: USER    NEWDPF quat0 -0.668175 0.738283 0.092085 -106.069375
DOCKED: USER    NEWDPF dihe0 -0.44 119.00 -78.63 59.32 13.66 -177.45 
DOCKED: USER  keepresnum = 1 
DOCKED: USER  
DOCKED: REMARK  6 active torsions:
DOCKED: REMARK  status: ('A' for Active; 'I' for Inactive)
DOCKED: REMARK    1  A    between atoms: P_1  and  O_3 
DOCKED: REMARK    2  A    between atoms: P_2  and  O_4 
DOCKED: REMARK    3  A    between atoms: O_3  and  C_13 
DOCKED: REMARK    4  A    between atoms: O_4  and  C_14 
DOCKED: REMARK    5  A    between atoms: C_13  and  C_14 
DOCKED: REMARK    6  A    between atoms: C_13  and  C_15 
DOCKED: USER                              x       y       z     vdW  Elec       q    Type
DOCKED: USER                           _______ _______ _______ _____ _____    ______ ____
DOCKED: ROOT
DOCKED: ATOM      1  C   UNL d   1      -2.129   2.178 -16.677 -0.20 +0.23    +0.193 C 
DOCKED: ENDROOT
DOCKED: BRANCH   1   2
DOCKED: ATOM      2  O   UNL d   1      -3.416   2.613 -16.121 -0.15 -0.40    -0.356 OA
DOCKED: BRANCH   2   3
DOCKED: ATOM      3  P   UNL d   1      -4.219   3.950 -16.642 -0.29 -0.01    -0.014 P 
DOCKED: ATOM      4  O   UNL d   1      -3.300   5.121 -16.260 +0.01 -0.27    -0.577 OA
DOCKED: ATOM      5  O   UNL d   1      -5.544   4.006 -15.885 -0.14 -0.56    -0.577 OA
DOCKED: ATOM      6  O   UNL d   1      -4.387   3.840 -18.154 -0.45 -1.01    -0.638 OA
DOCKED: ENDBRANCH   2   3
DOCKED: ENDBRANCH   1   2
DOCKED: BRANCH   1   7
DOCKED: ATOM      7  C   UNL d   1      -2.400   1.322 -17.968 -0.04 +0.36    +0.201 C 
DOCKED: BRANCH   7   8
DOCKED: ATOM      8  O   UNL d   1      -3.741   0.805 -18.113 +0.02 -0.79    -0.364 OA
DOCKED: BRANCH   8   9
DOCKED: ATOM      9  P   UNL d   1      -4.047  -0.423 -19.177 +0.02 -0.03    -0.015 P 
DOCKED: ATOM     10  O   UNL d   1      -4.196  -1.677 -18.307 -0.59 -1.20    -0.577 OA
DOCKED: ATOM     11  O   UNL d   1      -2.839  -0.516 -20.110 -0.18 -0.92    -0.577 OA
DOCKED: ATOM     12  O   UNL d   1      -5.342  -0.075 -19.909 -0.21 -1.10    -0.638 OA
DOCKED: ENDBRANCH   8   9
DOCKED: ENDBRANCH   7   8
DOCKED: ENDBRANCH   1   7
DOCKED: BRANCH   1  13
DOCKED: ATOM     13  C   UNL d   1      -1.364   1.284 -15.631 -0.33 +0.10    +0.073 C 
DOCKED: ATOM     14  O   UNL d   1      -1.971   0.274 -15.130 -0.56 -0.96    -0.547 OA
DOCKED: ATOM     15  O   UNL d   1      -0.141   1.590 -15.388 -0.62 -0.58    -0.547 OA
DOCKED: ENDBRANCH   1  13
DOCKED: TORSDOF 6
DOCKED: TER
DOCKED: ENDMDL
________________________________________________________________________________


	BEGINNING GENETIC ALGORITHM DOCKING 6 of 100
Run: 6 Seed: 1173182804 882686300 [ Run 6 of 100 GA/GALS ]
Beginning LAMARCKIAN GENETIC ALGORITHM (LGA), with a maximum of 25000000 energy evaluations.

Final-Value: -9.226


	FINAL GENETIC ALGORITHM DOCKED STATE
	_______________________________________________


Detailed state:  trans -4.257 -2.248 -17.006 quatxyzw 0.002620 0.815737 -0.061821 -0.575104 center 0.015 0.083 0.031 ntor 6 22.2749 123.1667 121.7496 41.0687 -19.9505 -70.3917
State:	 -4.257  -2.248 -17.006   0.003  0.997 -0.076 -109.786     22.27  123.17  121.75   41.07  -19.95  -70.39

DOCKED: MODEL        6
DOCKED: USER    Run = 6
DOCKED: USER    DPF = D:/Protein_go_brrr/autodock/final/mut_D99N/2_3_BPG/dock.dpf
DOCKED: USER  
DOCKED: USER    Estimated Free Energy of Binding    =   -9.53 kcal/mol  [=(1)+(2)+(3)-(4)]
DOCKED: USER    Estimated Inhibition Constant, Ki   =  103.05 nM (nanomolar)  [Temperature = 298.15 K]
DOCKED: USER    
DOCKED: USER    (1) Final Intermolecular Energy     =  -11.32 kcal/mol
DOCKED: USER        vdW + Hbond + desolv Energy     =   -4.99 kcal/mol
DOCKED: USER        Electrostatic Energy            =   -6.34 kcal/mol
DOCKED: USER    (2) Final Total Internal Energy     =   +2.10 kcal/mol
DOCKED: USER    (3) Torsional Free Energy           =   +1.79 kcal/mol
DOCKED: USER    (4) Unbound System's Energy  [=(2)] =   +2.10 kcal/mol
DOCKED: USER    
DOCKED: USER    
DOCKED: USER    NEWDPF move 2_3_BPG_opt.pdbqt
DOCKED: USER    NEWDPF about 0.015000 0.083000 0.031000
DOCKED: USER    NEWDPF tran0 -4.256954 -2.248113 -17.006352
DOCKED: USER    NEWDPF quaternion0 0.002620 0.815737 -0.061821 -0.575104
DOCKED: USER    NEWDPF axisangle0 0.003202 0.997135 -0.075568 -109.786148
DOCKED: USER    NEWDPF quat0 0.003202 0.997135 -0.075568 -109.786148
DOCKED: USER    NEWDPF dihe0 22.27 123.17 121.75 41.07 -19.95 -70.39 
DOCKED: USER  keepresnum = 1 
DOCKED: USER  
DOCKED: REMARK  6 active torsions:
DOCKED: REMARK  status: ('A' for Active; 'I' for Inactive)
DOCKED: REMARK    1  A    between atoms: P_1  and  O_3 
DOCKED: REMARK    2  A    between atoms: P_2  and  O_4 
DOCKED: REMARK    3  A    between atoms: O_3  and  C_13 
DOCKED: REMARK    4  A    between atoms: O_4  and  C_14 
DOCKED: REMARK    5  A    between atoms: C_13  and  C_14 
DOCKED: REMARK    6  A    between atoms: C_13  and  C_15 
DOCKED: USER                              x       y       z     vdW  Elec       q    Type
DOCKED: USER                           _______ _______ _______ _____ _____    ______ ____
DOCKED: ROOT
DOCKED: ATOM      1  C   UNL d   1      -3.995  -2.528 -16.457 -0.14 +0.32    +0.193 C 
DOCKED: ENDROOT
DOCKED: BRANCH   1   2
DOCKED: ATOM      2  O   UNL d   1      -4.182  -1.599 -15.336 -0.29 -0.48    -0.356 OA
DOCKED: BRANCH   2   3
DOCKED: ATOM      3  P   UNL d   1      -3.072  -0.464 -14.909 -0.61 -0.02    -0.014 P 
DOCKED: ATOM      4  O   UNL d   1      -1.817  -1.274 -14.545 -0.56 -0.89    -0.577 OA
DOCKED: ATOM      5  O   UNL d   1      -3.630   0.281 -13.699 -0.05 -0.40    -0.577 OA
DOCKED: ATOM      6  O   UNL d   1      -2.827   0.434 -16.117 -0.01 -1.36    -0.638 OA
DOCKED: ENDBRANCH   2   3
DOCKED: ENDBRANCH   1   2
DOCKED: BRANCH   1   7
DOCKED: ATOM      7  C   UNL d   1      -4.851  -2.026 -17.677 -0.08 +0.31    +0.201 C 
DOCKED: BRANCH   7   8
DOCKED: ATOM      8  O   UNL d   1      -4.192  -1.103 -18.572 -0.75 -0.78    -0.364 OA
DOCKED: BRANCH   8   9
DOCKED: ATOM      9  P   UNL d   1      -4.807  -0.831 -20.084 -0.23 -0.02    -0.015 P 
DOCKED: ATOM     10  O   UNL d   1      -4.884  -2.216 -20.738 -0.02 -0.43    -0.577 OA
DOCKED: ATOM     11  O   UNL d   1      -3.822   0.087 -20.807 -0.02 -0.61    -0.577 OA
DOCKED: ATOM     12  O   UNL d   1      -6.188  -0.204 -19.903 -0.35 -1.20    -0.638 OA
DOCKED: ENDBRANCH   8   9
DOCKED: ENDBRANCH   7   8
DOCKED: ENDBRANCH   1   7
DOCKED: BRANCH   1  13
DOCKED: ATOM     13  C   UNL d   1      -4.488  -3.968 -16.053 -0.56 +0.07    +0.073 C 
DOCKED: ATOM     14  O   UNL d   1      -5.749  -4.193 -16.015 -0.70 -0.44    -0.547 OA
DOCKED: ATOM     15  O   UNL d   1      -3.585  -4.856 -15.844 -0.64 -0.38    -0.547 OA
DOCKED: ENDBRANCH   1  13
DOCKED: TORSDOF 6
DOCKED: TER
DOCKED: ENDMDL
________________________________________________________________________________


	BEGINNING GENETIC ALGORITHM DOCKING 7 of 100
Run: 7 Seed: 1709818670 415733329 [ Run 7 of 100 GA/GALS ]
Beginning LAMARCKIAN GENETIC ALGORITHM (LGA), with a maximum of 25000000 energy evaluations.

Final-Value: -8.669


	FINAL GENETIC ALGORITHM DOCKED STATE
	_______________________________________________


Detailed state:  trans -3.530 1.867 -15.822 quatxyzw 0.100942 0.727955 -0.411043 0.539385 center 0.015 0.083 0.031 ntor 6 145.3146 36.0752 136.1808 17.5791 52.2651 -52.2788
State:	 -3.530   1.867 -15.822   0.120  0.864 -0.488 114.716    145.31   36.08  136.18   17.58   52.27  -52.28

DOCKED: MODEL        7
DOCKED: USER    Run = 7
DOCKED: USER    DPF = D:/Protein_go_brrr/autodock/final/mut_D99N/2_3_BPG/dock.dpf
DOCKED: USER  
DOCKED: USER    Estimated Free Energy of Binding    =   -9.23 kcal/mol  [=(1)+(2)+(3)-(4)]
DOCKED: USER    Estimated Inhibition Constant, Ki   =  171.98 nM (nanomolar)  [Temperature = 298.15 K]
DOCKED: USER    
DOCKED: USER    (1) Final Intermolecular Energy     =  -11.02 kcal/mol
DOCKED: USER        vdW + Hbond + desolv Energy     =   -3.82 kcal/mol
DOCKED: USER        Electrostatic Energy            =   -7.20 kcal/mol
DOCKED: USER    (2) Final Total Internal Energy     =   +2.35 kcal/mol
DOCKED: USER    (3) Torsional Free Energy           =   +1.79 kcal/mol
DOCKED: USER    (4) Unbound System's Energy  [=(2)] =   +2.35 kcal/mol
DOCKED: USER    
DOCKED: USER    
DOCKED: USER    NEWDPF move 2_3_BPG_opt.pdbqt
DOCKED: USER    NEWDPF about 0.015000 0.083000 0.031000
DOCKED: USER    NEWDPF tran0 -3.529765 1.866672 -15.821969
DOCKED: USER    NEWDPF quaternion0 0.100942 0.727955 -0.411043 0.539385
DOCKED: USER    NEWDPF axisangle0 0.119876 0.864494 -0.488140 114.716447
DOCKED: USER    NEWDPF quat0 0.119876 0.864494 -0.488140 114.716447
DOCKED: USER    NEWDPF dihe0 145.31 36.08 136.18 17.58 52.27 -52.28 
DOCKED: USER  keepresnum = 1 
DOCKED: USER  
DOCKED: REMARK  6 active torsions:
DOCKED: REMARK  status: ('A' for Active; 'I' for Inactive)
DOCKED: REMARK    1  A    between atoms: P_1  and  O_3 
DOCKED: REMARK    2  A    between atoms: P_2  and  O_4 
DOCKED: REMARK    3  A    between atoms: O_3  and  C_13 
DOCKED: REMARK    4  A    between atoms: O_4  and  C_14 
DOCKED: REMARK    5  A    between atoms: C_13  and  C_14 
DOCKED: REMARK    6  A    between atoms: C_13  and  C_15 
DOCKED: USER                              x       y       z     vdW  Elec       q    Type
DOCKED: USER                           _______ _______ _______ _____ _____    ______ ____
DOCKED: ROOT
DOCKED: ATOM      1  C   UNL d   1      -3.285   1.275 -16.020 -0.15 +0.29    +0.193 C 
DOCKED: ENDROOT
DOCKED: BRANCH   1   2
DOCKED: ATOM      2  O   UNL d   1      -2.546   1.482 -17.271 -0.10 -0.61    -0.356 OA
DOCKED: BRANCH   2   3
DOCKED: ATOM      3  P   UNL d   1      -3.007   0.835 -18.710 -0.03 -0.03    -0.014 P 
DOCKED: ATOM      4  O   UNL d   1      -1.688   0.580 -19.456 -0.25 -1.05    -0.577 OA
DOCKED: ATOM      5  O   UNL d   1      -3.863   1.880 -19.422 -0.05 -0.94    -0.577 OA
DOCKED: ATOM      6  O   UNL d   1      -3.749  -0.467 -18.425 -0.37 -1.68    -0.638 OA
DOCKED: ENDBRANCH   2   3
DOCKED: ENDBRANCH   1   2
DOCKED: BRANCH   1   7
DOCKED: ATOM      7  C   UNL d   1      -3.615   2.678 -15.391 -0.20 +0.19    +0.201 C 
DOCKED: BRANCH   7   8
DOCKED: ATOM      8  O   UNL d   1      -4.995   3.097 -15.473 -0.17 -0.37    -0.364 OA
DOCKED: BRANCH   8   9
DOCKED: ATOM      9  P   UNL d   1      -5.382   4.547 -16.170 -0.47 -0.01    -0.015 P 
DOCKED: ATOM     10  O   UNL d   1      -4.321   5.530 -15.662 -0.02 -0.22    -0.577 OA
DOCKED: ATOM     11  O   UNL d   1      -6.783   4.916 -15.683 -0.44 -0.45    -0.577 OA
DOCKED: ATOM     12  O   UNL d   1      -5.307   4.353 -17.684 -0.29 -0.99    -0.638 OA
DOCKED: ENDBRANCH   8   9
DOCKED: ENDBRANCH   7   8
DOCKED: ENDBRANCH   1   7
DOCKED: BRANCH   1  13
DOCKED: ATOM     13  C   UNL d   1      -2.405   0.460 -15.001 -0.44 +0.11    +0.073 C 
DOCKED: ATOM     14  O   UNL d   1      -2.987  -0.129 -14.024 -0.23 -0.49    -0.547 OA
DOCKED: ATOM     15  O   UNL d   1      -1.148   0.381 -15.250 -0.61 -0.95    -0.547 OA
DOCKED: ENDBRANCH   1  13
DOCKED: TORSDOF 6
DOCKED: TER
DOCKED: ENDMDL
________________________________________________________________________________


	BEGINNING GENETIC ALGORITHM DOCKING 8 of 100
Run: 8 Seed: 1509481311 358471667 [ Run 8 of 100 GA/GALS ]
Beginning LAMARCKIAN GENETIC ALGORITHM (LGA), with a maximum of 25000000 energy evaluations.

Final-Value: -8.640


	FINAL GENETIC ALGORITHM DOCKED STATE
	_______________________________________________


Detailed state:  trans -4.934 -1.465 -18.669 quatxyzw -0.053151 0.389074 0.738300 0.548370 center 0.015 0.083 0.031 ntor 6 19.9811 -3.1526 -131.8427 21.5050 -14.0463 -97.2768
State:	 -4.934  -1.465 -18.669  -0.064  0.465  0.883 113.489     19.98   -3.15 -131.84   21.51  -14.05  -97.28

DOCKED: MODEL        8
DOCKED: USER    Run = 8
DOCKED: USER    DPF = D:/Protein_go_brrr/autodock/final/mut_D99N/2_3_BPG/dock.dpf
DOCKED: USER  
DOCKED: USER    Estimated Free Energy of Binding    =   -8.91 kcal/mol  [=(1)+(2)+(3)-(4)]
DOCKED: USER    Estimated Inhibition Constant, Ki   =  294.93 nM (nanomolar)  [Temperature = 298.15 K]
DOCKED: USER    
DOCKED: USER    (1) Final Intermolecular Energy     =  -10.70 kcal/mol
DOCKED: USER        vdW + Hbond + desolv Energy     =   -4.03 kcal/mol
DOCKED: USER        Electrostatic Energy            =   -6.67 kcal/mol
DOCKED: USER    (2) Final Total Internal Energy     =   +2.06 kcal/mol
DOCKED: USER    (3) Torsional Free Energy           =   +1.79 kcal/mol
DOCKED: USER    (4) Unbound System's Energy  [=(2)] =   +2.06 kcal/mol
DOCKED: USER    
DOCKED: USER    
DOCKED: USER    NEWDPF move 2_3_BPG_opt.pdbqt
DOCKED: USER    NEWDPF about 0.015000 0.083000 0.031000
DOCKED: USER    NEWDPF tran0 -4.934404 -1.464712 -18.668708
DOCKED: USER    NEWDPF quaternion0 -0.053151 0.389074 0.738300 0.548370
DOCKED: USER    NEWDPF axisangle0 -0.063560 0.465268 0.882885 113.489447
DOCKED: USER    NEWDPF quat0 -0.063560 0.465268 0.882885 113.489447
DOCKED: USER    NEWDPF dihe0 19.98 -3.15 -131.84 21.51 -14.05 -97.28 
DOCKED: USER  keepresnum = 1 
DOCKED: USER  
DOCKED: REMARK  6 active torsions:
DOCKED: REMARK  status: ('A' for Active; 'I' for Inactive)
DOCKED: REMARK    1  A    between atoms: P_1  and  O_3 
DOCKED: REMARK    2  A    between atoms: P_2  and  O_4 
DOCKED: REMARK    3  A    between atoms: O_3  and  C_13 
DOCKED: REMARK    4  A    between atoms: O_4  and  C_14 
DOCKED: REMARK    5  A    between atoms: C_13  and  C_14 
DOCKED: REMARK    6  A    between atoms: C_13  and  C_15 
DOCKED: USER                              x       y       z     vdW  Elec       q    Type
DOCKED: USER                           _______ _______ _______ _____ _____    ______ ____
DOCKED: ROOT
DOCKED: ATOM      1  C   UNL d   1      -4.991  -0.888 -19.006 +0.07 +0.33    +0.193 C 
DOCKED: ENDROOT
DOCKED: BRANCH   1   2
DOCKED: ATOM      2  O   UNL d   1      -3.640  -0.403 -19.311 -0.51 -0.71    -0.356 OA
DOCKED: BRANCH   2   3
DOCKED: ATOM      3  P   UNL d   1      -2.983   0.935 -18.617 -0.02 -0.03    -0.014 P 
DOCKED: ATOM      4  O   UNL d   1      -1.523   0.937 -19.095 -0.25 -1.02    -0.577 OA
DOCKED: ATOM      5  O   UNL d   1      -3.079   0.753 -17.103 +0.09 -1.28    -0.577 OA
DOCKED: ATOM      6  O   UNL d   1      -3.742   2.154 -19.131 -0.10 -1.02    -0.638 OA
DOCKED: ENDBRANCH   2   3
DOCKED: ENDBRANCH   1   2
DOCKED: BRANCH   1   7
DOCKED: ATOM      7  C   UNL d   1      -4.889  -2.367 -18.480 -0.25 +0.26    +0.201 C 
DOCKED: BRANCH   7   8
DOCKED: ATOM      8  O   UNL d   1      -4.143  -2.551 -17.256 -0.36 -0.63    -0.364 OA
DOCKED: BRANCH   8   9
DOCKED: ATOM      9  P   UNL d   1      -4.193  -4.002 -16.464 -0.79 -0.01    -0.015 P 
DOCKED: ATOM     10  O   UNL d   1      -3.888  -5.054 -17.537 -0.06 -0.24    -0.577 OA
DOCKED: ATOM     11  O   UNL d   1      -5.606  -4.154 -15.901 -0.72 -0.49    -0.577 OA
DOCKED: ATOM     12  O   UNL d   1      -3.118  -3.961 -15.379 -0.41 -0.64    -0.638 OA
DOCKED: ENDBRANCH   8   9
DOCKED: ENDBRANCH   7   8
DOCKED: ENDBRANCH   1   7
DOCKED: BRANCH   1  13
DOCKED: ATOM     13  C   UNL d   1      -5.876  -0.876 -20.308 -0.13 +0.08    +0.073 C 
DOCKED: ATOM     14  O   UNL d   1      -5.662  -1.769 -21.201 +0.00 -0.36    -0.547 OA
DOCKED: ATOM     15  O   UNL d   1      -6.812   0.001 -20.368 -0.59 -0.90    -0.547 OA
DOCKED: ENDBRANCH   1  13
DOCKED: TORSDOF 6
DOCKED: TER
DOCKED: ENDMDL
________________________________________________________________________________


	BEGINNING GENETIC ALGORITHM DOCKING 9 of 100
Run: 9 Seed: 817961045 99066135 [ Run 9 of 100 GA/GALS ]
Beginning LAMARCKIAN GENETIC ALGORITHM (LGA), with a maximum of 25000000 energy evaluations.

Final-Value: -9.285


	FINAL GENETIC ALGORITHM DOCKED STATE
	_______________________________________________


Detailed state:  trans -4.130 -2.499 -17.231 quatxyzw -0.009644 0.784878 -0.098032 -0.611771 center 0.015 0.083 0.031 ntor 6 -162.3561 27.5597 117.6103 26.1046 -7.3362 -102.0793
State:	 -4.130  -2.499 -17.231  -0.012  0.992 -0.124 -104.565   -162.36   27.56  117.61   26.10   -7.34 -102.08

DOCKED: MODEL        9
DOCKED: USER    Run = 9
DOCKED: USER    DPF = D:/Protein_go_brrr/autodock/final/mut_D99N/2_3_BPG/dock.dpf
DOCKED: USER  
DOCKED: USER    Estimated Free Energy of Binding    =   -9.60 kcal/mol  [=(1)+(2)+(3)-(4)]
DOCKED: USER    Estimated Inhibition Constant, Ki   =   91.28 nM (nanomolar)  [Temperature = 298.15 K]
DOCKED: USER    
DOCKED: USER    (1) Final Intermolecular Energy     =  -11.39 kcal/mol
DOCKED: USER        vdW + Hbond + desolv Energy     =   -4.98 kcal/mol
DOCKED: USER        Electrostatic Energy            =   -6.42 kcal/mol
DOCKED: USER    (2) Final Total Internal Energy     =   +2.11 kcal/mol
DOCKED: USER    (3) Torsional Free Energy           =   +1.79 kcal/mol
DOCKED: USER    (4) Unbound System's Energy  [=(2)] =   +2.11 kcal/mol
DOCKED: USER    
DOCKED: USER    
DOCKED: USER    NEWDPF move 2_3_BPG_opt.pdbqt
DOCKED: USER    NEWDPF about 0.015000 0.083000 0.031000
DOCKED: USER    NEWDPF tran0 -4.129902 -2.498692 -17.230879
DOCKED: USER    NEWDPF quaternion0 -0.009644 0.784878 -0.098032 -0.611771
DOCKED: USER    NEWDPF axisangle0 -0.012191 0.992216 -0.123929 -104.564688
DOCKED: USER    NEWDPF quat0 -0.012191 0.992216 -0.123929 -104.564688
DOCKED: USER    NEWDPF dihe0 -162.36 27.56 117.61 26.10 -7.34 -102.08 
DOCKED: USER  keepresnum = 1 
DOCKED: USER  
DOCKED: REMARK  6 active torsions:
DOCKED: REMARK  status: ('A' for Active; 'I' for Inactive)
DOCKED: REMARK    1  A    between atoms: P_1  and  O_3 
DOCKED: REMARK    2  A    between atoms: P_2  and  O_4 
DOCKED: REMARK    3  A    between atoms: O_3  and  C_13 
DOCKED: REMARK    4  A    between atoms: O_4  and  C_14 
DOCKED: REMARK    5  A    between atoms: C_13  and  C_14 
DOCKED: REMARK    6  A    between atoms: C_13  and  C_15 
DOCKED: USER                              x       y       z     vdW  Elec       q    Type
DOCKED: USER                           _______ _______ _______ _____ _____    ______ ____
DOCKED: ROOT
DOCKED: ATOM      1  C   UNL d   1      -3.926  -2.739 -16.639 -0.06 +0.31    +0.193 C 
DOCKED: ENDROOT
DOCKED: BRANCH   1   2
DOCKED: ATOM      2  O   UNL d   1      -4.197  -1.723 -15.616 -0.29 -0.51    -0.356 OA
DOCKED: BRANCH   2   3
DOCKED: ATOM      3  P   UNL d   1      -3.022  -0.809 -14.917 -0.53 -0.02    -0.014 P 
DOCKED: ATOM      4  O   UNL d   1      -3.624  -0.374 -13.572 -0.10 -0.40    -0.577 OA
DOCKED: ATOM      5  O   UNL d   1      -2.774   0.387 -15.835 -0.20 -1.15    -0.577 OA
DOCKED: ATOM      6  O   UNL d   1      -1.793  -1.690 -14.722 -0.29 -1.09    -0.638 OA
DOCKED: ENDBRANCH   2   3
DOCKED: ENDBRANCH   1   2
DOCKED: BRANCH   1   7
DOCKED: ATOM      7  C   UNL d   1      -4.654  -2.322 -17.970 -0.26 +0.30    +0.201 C 
DOCKED: BRANCH   7   8
DOCKED: ATOM      8  O   UNL d   1      -4.302  -1.026 -18.502 -0.70 -0.77    -0.364 OA
DOCKED: BRANCH   8   9
DOCKED: ATOM      9  P   UNL d   1      -4.924  -0.527 -19.951 -0.20 -0.02    -0.015 P 
DOCKED: ATOM     10  O   UNL d   1      -4.440  -1.564 -20.972 -0.02 -0.48    -0.577 OA
DOCKED: ATOM     11  O   UNL d   1      -4.347   0.861 -20.230 -0.04 -0.84    -0.577 OA
DOCKED: ATOM     12  O   UNL d   1      -6.446  -0.525 -19.812 -0.37 -1.04    -0.638 OA
DOCKED: ENDBRANCH   8   9
DOCKED: ENDBRANCH   7   8
DOCKED: ENDBRANCH   1   7
DOCKED: BRANCH   1  13
DOCKED: ATOM     13  C   UNL d   1      -4.485  -4.135 -16.175 -0.58 +0.06    +0.073 C 
DOCKED: ATOM     14  O   UNL d   1      -3.650  -5.046 -15.836 -0.63 -0.35    -0.547 OA
DOCKED: ATOM     15  O   UNL d   1      -5.761  -4.258 -16.103 -0.69 -0.42    -0.547 OA
DOCKED: ENDBRANCH   1  13
DOCKED: TORSDOF 6
DOCKED: TER
DOCKED: ENDMDL
________________________________________________________________________________


	BEGINNING GENETIC ALGORITHM DOCKING 10 of 100
Run: 10 Seed: 1088202788 771716790 [ Run 10 of 100 GA/GALS ]
Beginning LAMARCKIAN GENETIC ALGORITHM (LGA), with a maximum of 25000000 energy evaluations.

Final-Value: -8.441


	FINAL GENETIC ALGORITHM DOCKED STATE
	_______________________________________________


Detailed state:  trans -2.015 2.144 -18.625 quatxyzw 0.972895 0.211545 0.088829 -0.028871 center 0.015 0.083 0.031 ntor 6 -110.8226 -13.9533 -174.6312 21.6476 76.1092 -151.2057
State:	 -2.015   2.144 -18.625   0.973  0.212  0.089 -176.691   -110.82  -13.95 -174.63   21.65   76.11 -151.21

DOCKED: MODEL       10
DOCKED: USER    Run = 10
DOCKED: USER    DPF = D:/Protein_go_brrr/autodock/final/mut_D99N/2_3_BPG/dock.dpf
DOCKED: USER  
DOCKED: USER    Estimated Free Energy of Binding    =   -9.34 kcal/mol  [=(1)+(2)+(3)-(4)]
DOCKED: USER    Estimated Inhibition Constant, Ki   =  143.55 nM (nanomolar)  [Temperature = 298.15 K]
DOCKED: USER    
DOCKED: USER    (1) Final Intermolecular Energy     =  -11.13 kcal/mol
DOCKED: USER        vdW + Hbond + desolv Energy     =   -3.16 kcal/mol
DOCKED: USER        Electrostatic Energy            =   -7.97 kcal/mol
DOCKED: USER    (2) Final Total Internal Energy     =   +2.68 kcal/mol
DOCKED: USER    (3) Torsional Free Energy           =   +1.79 kcal/mol
DOCKED: USER    (4) Unbound System's Energy  [=(2)] =   +2.68 kcal/mol
DOCKED: USER    
DOCKED: USER    
DOCKED: USER    NEWDPF move 2_3_BPG_opt.pdbqt
DOCKED: USER    NEWDPF about 0.015000 0.083000 0.031000
DOCKED: USER    NEWDPF tran0 -2.015424 2.144047 -18.625025
DOCKED: USER    NEWDPF quaternion0 0.972895 0.211545 0.088829 -0.028871
DOCKED: USER    NEWDPF axisangle0 0.973301 0.211634 0.088866 -176.691136
DOCKED: USER    NEWDPF quat0 0.973301 0.211634 0.088866 -176.691136
DOCKED: USER    NEWDPF dihe0 -110.82 -13.95 -174.63 21.65 76.11 -151.21 
DOCKED: USER  keepresnum = 1 
DOCKED: USER  
DOCKED: REMARK  6 active torsions:
DOCKED: REMARK  status: ('A' for Active; 'I' for Inactive)
DOCKED: REMARK    1  A    between atoms: P_1  and  O_3 
DOCKED: REMARK    2  A    between atoms: P_2  and  O_4 
DOCKED: REMARK    3  A    between atoms: O_3  and  C_13 
DOCKED: REMARK    4  A    between atoms: O_4  and  C_14 
DOCKED: REMARK    5  A    between atoms: C_13  and  C_14 
DOCKED: REMARK    6  A    between atoms: C_13  and  C_15 
DOCKED: USER                              x       y       z     vdW  Elec       q    Type
DOCKED: USER                           _______ _______ _______ _____ _____    ______ ____
DOCKED: ROOT
DOCKED: ATOM      1  C   UNL d   1      -2.649   2.182 -18.840 -0.10 +0.23    +0.193 C 
DOCKED: ENDROOT
DOCKED: BRANCH   1   2
DOCKED: ATOM      2  O   UNL d   1      -3.383   1.031 -18.302 -0.12 -0.71    -0.356 OA
DOCKED: BRANCH   2   3
DOCKED: ATOM      3  P   UNL d   1      -3.927  -0.210 -19.235 -0.02 -0.03    -0.014 P 
DOCKED: ATOM      4  O   UNL d   1      -4.196  -1.348 -18.239 -0.60 -1.29    -0.577 OA
DOCKED: ATOM      5  O   UNL d   1      -2.806  -0.568 -20.208 -0.15 -0.88    -0.577 OA
DOCKED: ATOM      6  O   UNL d   1      -5.208   0.246 -19.925 -0.13 -1.18    -0.638 OA
DOCKED: ENDBRANCH   2   3
DOCKED: ENDBRANCH   1   2
DOCKED: BRANCH   1   7
DOCKED: ATOM      7  C   UNL d   1      -1.254   2.272 -18.120 -0.09 +0.21    +0.201 C 
DOCKED: BRANCH   7   8
DOCKED: ATOM      8  O   UNL d   1      -0.912   1.158 -17.265 +0.01 -0.67    -0.364 OA
DOCKED: BRANCH   8   9
DOCKED: ATOM      9  P   UNL d   1      -1.085   1.286 -15.625 -0.41 -0.02    -0.015 P 
DOCKED: ATOM     10  O   UNL d   1      -1.800   2.625 -15.403 +0.12 -0.53    -0.577 OA
DOCKED: ATOM     11  O   UNL d   1       0.321   1.284 -15.026 -0.69 -0.55    -0.577 OA
DOCKED: ATOM     12  O   UNL d   1      -1.933   0.100 -15.167 -0.43 -1.23    -0.638 OA
DOCKED: ENDBRANCH   8   9
DOCKED: ENDBRANCH   7   8
DOCKED: ENDBRANCH   1   7
DOCKED: BRANCH   1  13
DOCKED: ATOM     13  C   UNL d   1      -3.448   3.509 -18.560 -0.08 +0.08    +0.073 C 
DOCKED: ATOM     14  O   UNL d   1      -4.647   3.605 -18.999 -0.50 -1.04    -0.547 OA
DOCKED: ATOM     15  O   UNL d   1      -2.862   4.402 -17.847 +0.02 -0.36    -0.547 OA
DOCKED: ENDBRANCH   1  13
DOCKED: TORSDOF 6
DOCKED: TER
DOCKED: ENDMDL
________________________________________________________________________________


	BEGINNING GENETIC ALGORITHM DOCKING 11 of 100
Run: 11 Seed: 1276217631 190277845 [ Run 11 of 100 GA/GALS ]
Beginning LAMARCKIAN GENETIC ALGORITHM (LGA), with a maximum of 25000000 energy evaluations.

Final-Value: -8.806


	FINAL GENETIC ALGORITHM DOCKED STATE
	_______________________________________________


Detailed state:  trans -2.831 2.151 -16.327 quatxyzw 0.150979 0.644477 -0.468953 0.584754 center 0.015 0.083 0.031 ntor 6 -157.8057 -87.0411 103.2220 25.7421 60.9133 -26.4101
State:	 -2.831   2.151 -16.327   0.186  0.794 -0.578 108.429   -157.81  -87.04  103.22   25.74   60.91  -26.41

DOCKED: MODEL       11
DOCKED: USER    Run = 11
DOCKED: USER    DPF = D:/Protein_go_brrr/autodock/final/mut_D99N/2_3_BPG/dock.dpf
DOCKED: USER  
DOCKED: USER    Estimated Free Energy of Binding    =   -9.35 kcal/mol  [=(1)+(2)+(3)-(4)]
DOCKED: USER    Estimated Inhibition Constant, Ki   =  139.56 nM (nanomolar)  [Temperature = 298.15 K]
DOCKED: USER    
DOCKED: USER    (1) Final Intermolecular Energy     =  -11.14 kcal/mol
DOCKED: USER        vdW + Hbond + desolv Energy     =   -3.94 kcal/mol
DOCKED: USER        Electrostatic Energy            =   -7.20 kcal/mol
DOCKED: USER    (2) Final Total Internal Energy     =   +2.34 kcal/mol
DOCKED: USER    (3) Torsional Free Energy           =   +1.79 kcal/mol
DOCKED: USER    (4) Unbound System's Energy  [=(2)] =   +2.34 kcal/mol
DOCKED: USER    
DOCKED: USER    
DOCKED: USER    NEWDPF move 2_3_BPG_opt.pdbqt
DOCKED: USER    NEWDPF about 0.015000 0.083000 0.031000
DOCKED: USER    NEWDPF tran0 -2.831117 2.150864 -16.326539
DOCKED: USER    NEWDPF quaternion0 0.150979 0.644477 -0.468953 0.584754
DOCKED: USER    NEWDPF axisangle0 0.186116 0.794464 -0.578090 108.428744
DOCKED: USER    NEWDPF quat0 0.186116 0.794464 -0.578090 108.428744
DOCKED: USER    NEWDPF dihe0 -157.81 -87.04 103.22 25.74 60.91 -26.41 
DOCKED: USER  keepresnum = 1 
DOCKED: USER  
DOCKED: REMARK  6 active torsions:
DOCKED: REMARK  status: ('A' for Active; 'I' for Inactive)
DOCKED: REMARK    1  A    between atoms: P_1  and  O_3 
DOCKED: REMARK    2  A    between atoms: P_2  and  O_4 
DOCKED: REMARK    3  A    between atoms: O_3  and  C_13 
DOCKED: REMARK    4  A    between atoms: O_4  and  C_14 
DOCKED: REMARK    5  A    between atoms: C_13  and  C_14 
DOCKED: REMARK    6  A    between atoms: C_13  and  C_15 
DOCKED: USER                              x       y       z     vdW  Elec       q    Type
DOCKED: USER                           _______ _______ _______ _____ _____    ______ ____
DOCKED: ROOT
DOCKED: ATOM      1  C   UNL d   1      -2.645   1.515 -16.430 -0.22 +0.29    +0.193 C 
DOCKED: ENDROOT
DOCKED: BRANCH   1   2
DOCKED: ATOM      2  O   UNL d   1      -2.068   1.421 -17.776 -0.08 -0.62    -0.356 OA
DOCKED: BRANCH   2   3
DOCKED: ATOM      3  P   UNL d   1      -2.841   0.711 -19.042 +0.05 -0.03    -0.014 P 
DOCKED: ATOM      4  O   UNL d   1      -3.659   1.846 -19.676 -0.04 -0.81    -0.577 OA
DOCKED: ATOM      5  O   UNL d   1      -3.743  -0.379 -18.468 -0.41 -1.48    -0.577 OA
DOCKED: ATOM      6  O   UNL d   1      -1.782   0.180 -20.002 -0.21 -1.01    -0.638 OA
DOCKED: ENDBRANCH   2   3
DOCKED: ENDBRANCH   1   2
DOCKED: BRANCH   1   7
DOCKED: ATOM      7  C   UNL d   1      -2.817   3.034 -16.060 -0.17 +0.18    +0.201 C 
DOCKED: BRANCH   7   8
DOCKED: ATOM      8  O   UNL d   1      -4.094   3.406 -15.496 -0.21 -0.30    -0.364 OA
DOCKED: BRANCH   8   9
DOCKED: ATOM      9  P   UNL d   1      -5.086   4.452 -16.308 -0.43 -0.01    -0.015 P 
DOCKED: ATOM     10  O   UNL d   1      -4.445   5.833 -16.124 +0.01 -0.22    -0.577 OA
DOCKED: ATOM     11  O   UNL d   1      -6.460   4.369 -15.645 -0.34 -0.50    -0.577 OA
DOCKED: ATOM     12  O   UNL d   1      -5.100   4.016 -17.772 -0.31 -1.20    -0.638 OA
DOCKED: ENDBRANCH   8   9
DOCKED: ENDBRANCH   7   8
DOCKED: ENDBRANCH   1   7
DOCKED: BRANCH   1  13
DOCKED: ATOM     13  C   UNL d   1      -1.681   0.846 -15.381 -0.33 +0.11    +0.073 C 
DOCKED: ATOM     14  O   UNL d   1      -1.986  -0.310 -14.921 -0.66 -1.00    -0.547 OA
DOCKED: ATOM     15  O   UNL d   1      -0.602   1.479 -15.094 -0.58 -0.62    -0.547 OA
DOCKED: ENDBRANCH   1  13
DOCKED: TORSDOF 6
DOCKED: TER
DOCKED: ENDMDL
________________________________________________________________________________


	BEGINNING GENETIC ALGORITHM DOCKING 12 of 100
Run: 12 Seed: 185766984 1205741997 [ Run 12 of 100 GA/GALS ]
Beginning LAMARCKIAN GENETIC ALGORITHM (LGA), with a maximum of 25000000 energy evaluations.

Final-Value: -9.167


	FINAL GENETIC ALGORITHM DOCKED STATE
	_______________________________________________


Detailed state:  trans -4.829 -1.571 -18.586 quatxyzw 0.098123 -0.401861 -0.750957 -0.514726 center 0.015 0.083 0.031 ntor 6 14.3269 11.6176 -163.0461 8.8753 -56.7545 -121.8457
State:	 -4.829  -1.571 -18.586   0.114 -0.469 -0.876 -118.042     14.33   11.62 -163.05    8.88  -56.75 -121.85

DOCKED: MODEL       12
DOCKED: USER    Run = 12
DOCKED: USER    DPF = D:/Protein_go_brrr/autodock/final/mut_D99N/2_3_BPG/dock.dpf
DOCKED: USER  
DOCKED: USER    Estimated Free Energy of Binding    =   -9.56 kcal/mol  [=(1)+(2)+(3)-(4)]
DOCKED: USER    Estimated Inhibition Constant, Ki   =   98.76 nM (nanomolar)  [Temperature = 298.15 K]
DOCKED: USER    
DOCKED: USER    (1) Final Intermolecular Energy     =  -11.35 kcal/mol
DOCKED: USER        vdW + Hbond + desolv Energy     =   -4.29 kcal/mol
DOCKED: USER        Electrostatic Energy            =   -7.06 kcal/mol
DOCKED: USER    (2) Final Total Internal Energy     =   +2.18 kcal/mol
DOCKED: USER    (3) Torsional Free Energy           =   +1.79 kcal/mol
DOCKED: USER    (4) Unbound System's Energy  [=(2)] =   +2.18 kcal/mol
DOCKED: USER    
DOCKED: USER    
DOCKED: USER    NEWDPF move 2_3_BPG_opt.pdbqt
DOCKED: USER    NEWDPF about 0.015000 0.083000 0.031000
DOCKED: USER    NEWDPF tran0 -4.828921 -1.571060 -18.586239
DOCKED: USER    NEWDPF quaternion0 0.098123 -0.401861 -0.750957 -0.514726
DOCKED: USER    NEWDPF axisangle0 0.114449 -0.468722 -0.875900 -118.041654
DOCKED: USER    NEWDPF quat0 0.114449 -0.468722 -0.875900 -118.041654
DOCKED: USER    NEWDPF dihe0 14.33 11.62 -163.05 8.88 -56.75 -121.85 
DOCKED: USER  keepresnum = 1 
DOCKED: USER  
DOCKED: REMARK  6 active torsions:
DOCKED: REMARK  status: ('A' for Active; 'I' for Inactive)
DOCKED: REMARK    1  A    between atoms: P_1  and  O_3 
DOCKED: REMARK    2  A    between atoms: P_2  and  O_4 
DOCKED: REMARK    3  A    between atoms: O_3  and  C_13 
DOCKED: REMARK    4  A    between atoms: O_4  and  C_14 
DOCKED: REMARK    5  A    between atoms: C_13  and  C_14 
DOCKED: REMARK    6  A    between atoms: C_13  and  C_15 
DOCKED: USER                              x       y       z     vdW  Elec       q    Type
DOCKED: USER                           _______ _______ _______ _____ _____    ______ ____
DOCKED: ROOT
DOCKED: ATOM      1  C   UNL d   1      -4.833  -0.979 -18.901 +0.02 +0.33    +0.193 C 
DOCKED: ENDROOT
DOCKED: BRANCH   1   2
DOCKED: ATOM      2  O   UNL d   1      -3.445  -0.525 -19.041 -0.44 -0.87    -0.356 OA
DOCKED: BRANCH   2   3
DOCKED: ATOM      3  P   UNL d   1      -2.905   0.918 -18.468 +0.08 -0.03    -0.014 P 
DOCKED: ATOM      4  O   UNL d   1      -1.473   1.035 -19.012 -0.24 -1.00    -0.577 OA
DOCKED: ATOM      5  O   UNL d   1      -2.922   0.834 -16.943 +0.02 -1.22    -0.577 OA
DOCKED: ATOM      6  O   UNL d   1      -3.807   2.014 -19.026 -0.06 -1.10    -0.638 OA
DOCKED: ENDBRANCH   2   3
DOCKED: ENDBRANCH   1   2
DOCKED: BRANCH   1   7
DOCKED: ATOM      7  C   UNL d   1      -4.829  -2.482 -18.435 -0.26 +0.25    +0.201 C 
DOCKED: BRANCH   7   8
DOCKED: ATOM      8  O   UNL d   1      -3.798  -2.845 -17.490 -0.20 -0.66    -0.364 OA
DOCKED: BRANCH   8   9
DOCKED: ATOM      9  P   UNL d   1      -4.201  -3.581 -16.064 -0.79 -0.02    -0.015 P 
DOCKED: ATOM     10  O   UNL d   1      -5.608  -4.147 -16.292 -0.80 -0.43    -0.577 OA
DOCKED: ATOM     11  O   UNL d   1      -4.188  -2.500 -14.985 -0.31 -0.64    -0.577 OA
DOCKED: ATOM     12  O   UNL d   1      -3.171  -4.684 -15.819 -0.61 -0.49    -0.638 OA
DOCKED: ENDBRANCH   8   9
DOCKED: ENDBRANCH   7   8
DOCKED: ENDBRANCH   1   7
DOCKED: BRANCH   1  13
DOCKED: ATOM     13  C   UNL d   1      -5.575  -0.884 -20.286 -0.14 +0.08    +0.073 C 
DOCKED: ATOM     14  O   UNL d   1      -5.215  -1.674 -21.228 -0.00 -0.38    -0.547 OA
DOCKED: ATOM     15  O   UNL d   1      -6.550  -0.053 -20.369 -0.57 -0.88    -0.547 OA
DOCKED: ENDBRANCH   1  13
DOCKED: TORSDOF 6
DOCKED: TER
DOCKED: ENDMDL
________________________________________________________________________________


	BEGINNING GENETIC ALGORITHM DOCKING 13 of 100
Run: 13 Seed: 1864718146 885729716 [ Run 13 of 100 GA/GALS ]
Beginning LAMARCKIAN GENETIC ALGORITHM (LGA), with a maximum of 25000000 energy evaluations.

Final-Value: -8.712


	FINAL GENETIC ALGORITHM DOCKED STATE
	_______________________________________________


Detailed state:  trans -5.173 -2.292 -19.294 quatxyzw -0.803563 0.538875 -0.185293 0.171952 center 0.015 0.083 0.031 ntor 6 -9.7113 -11.4406 -178.7502 -12.7274 -26.1804 83.2289
State:	 -5.173  -2.292 -19.294  -0.816  0.547 -0.188 160.197     -9.71  -11.44 -178.75  -12.73  -26.18   83.23

DOCKED: MODEL       13
DOCKED: USER    Run = 13
DOCKED: USER    DPF = D:/Protein_go_brrr/autodock/final/mut_D99N/2_3_BPG/dock.dpf
DOCKED: USER  
DOCKED: USER    Estimated Free Energy of Binding    =   -9.21 kcal/mol  [=(1)+(2)+(3)-(4)]
DOCKED: USER    Estimated Inhibition Constant, Ki   =  178.55 nM (nanomolar)  [Temperature = 298.15 K]
DOCKED: USER    
DOCKED: USER    (1) Final Intermolecular Energy     =  -11.00 kcal/mol
DOCKED: USER        vdW + Hbond + desolv Energy     =   -4.66 kcal/mol
DOCKED: USER        Electrostatic Energy            =   -6.34 kcal/mol
DOCKED: USER    (2) Final Total Internal Energy     =   +2.28 kcal/mol
DOCKED: USER    (3) Torsional Free Energy           =   +1.79 kcal/mol
DOCKED: USER    (4) Unbound System's Energy  [=(2)] =   +2.28 kcal/mol
DOCKED: USER    
DOCKED: USER    
DOCKED: USER    NEWDPF move 2_3_BPG_opt.pdbqt
DOCKED: USER    NEWDPF about 0.015000 0.083000 0.031000
DOCKED: USER    NEWDPF tran0 -5.172853 -2.291761 -19.293502
DOCKED: USER    NEWDPF quaternion0 -0.803563 0.538875 -0.185293 0.171952
DOCKED: USER    NEWDPF axisangle0 -0.815712 0.547023 -0.188095 160.197304
DOCKED: USER    NEWDPF quat0 -0.815712 0.547023 -0.188095 160.197304
DOCKED: USER    NEWDPF dihe0 -9.71 -11.44 -178.75 -12.73 -26.18 83.23 
DOCKED: USER  keepresnum = 1 
DOCKED: USER  
DOCKED: REMARK  6 active torsions:
DOCKED: REMARK  status: ('A' for Active; 'I' for Inactive)
DOCKED: REMARK    1  A    between atoms: P_1  and  O_3 
DOCKED: REMARK    2  A    between atoms: P_2  and  O_4 
DOCKED: REMARK    3  A    between atoms: O_3  and  C_13 
DOCKED: REMARK    4  A    between atoms: O_4  and  C_14 
DOCKED: REMARK    5  A    between atoms: C_13  and  C_14 
DOCKED: REMARK    6  A    between atoms: C_13  and  C_15 
DOCKED: USER                              x       y       z     vdW  Elec       q    Type
DOCKED: USER                           _______ _______ _______ _____ _____    ______ ____
DOCKED: ROOT
DOCKED: ATOM      1  C   UNL d   1      -5.078  -1.754 -19.682 -0.18 +0.22    +0.193 C 
DOCKED: ENDROOT
DOCKED: BRANCH   1   2
DOCKED: ATOM      2  O   UNL d   1      -6.260  -0.892 -19.567 -0.26 -0.52    -0.356 OA
DOCKED: BRANCH   2   3
DOCKED: ATOM      3  P   UNL d   1      -6.855  -0.004 -20.817 -0.02 -0.02    -0.014 P 
DOCKED: ATOM      4  O   UNL d   1      -8.268   0.396 -20.364 -0.39 -0.72    -0.577 OA
DOCKED: ATOM      5  O   UNL d   1      -6.895  -0.916 -22.041 +0.01 -0.31    -0.577 OA
DOCKED: ATOM      6  O   UNL d   1      -5.958   1.216 -20.997 -0.27 -0.95    -0.638 OA
DOCKED: ENDBRANCH   2   3
DOCKED: ENDBRANCH   1   2
DOCKED: BRANCH   1   7
DOCKED: ATOM      7  C   UNL d   1      -5.151  -2.863 -18.569 -0.26 +0.20    +0.201 C 
DOCKED: BRANCH   7   8
DOCKED: ATOM      8  O   UNL d   1      -4.090  -2.843 -17.588 -0.34 -0.58    -0.364 OA
DOCKED: BRANCH   8   9
DOCKED: ATOM      9  P   UNL d   1      -4.323  -3.528 -16.100 -0.76 -0.02    -0.015 P 
DOCKED: ATOM     10  O   UNL d   1      -5.724  -4.148 -16.161 -0.74 -0.45    -0.577 OA
DOCKED: ATOM     11  O   UNL d   1      -4.243  -2.399 -15.073 -0.28 -0.66    -0.577 OA
DOCKED: ATOM     12  O   UNL d   1      -3.235  -4.584 -15.914 -0.55 -0.52    -0.638 OA
DOCKED: ENDBRANCH   8   9
DOCKED: ENDBRANCH   7   8
DOCKED: ENDBRANCH   1   7
DOCKED: BRANCH   1  13
DOCKED: ATOM     13  C   UNL d   1      -3.769  -0.906 -19.463 -0.07 +0.13    +0.073 C 
DOCKED: ATOM     14  O   UNL d   1      -3.743  -0.058 -18.503 -0.40 -1.30    -0.547 OA
DOCKED: ATOM     15  O   UNL d   1      -2.773  -1.163 -20.231 -0.15 -0.84    -0.547 OA
DOCKED: ENDBRANCH   1  13
DOCKED: TORSDOF 6
DOCKED: TER
DOCKED: ENDMDL
________________________________________________________________________________


	BEGINNING GENETIC ALGORITHM DOCKING 14 of 100
Run: 14 Seed: 326825015 1773937903 [ Run 14 of 100 GA/GALS ]
Beginning LAMARCKIAN GENETIC ALGORITHM (LGA), with a maximum of 25000000 energy evaluations.

Final-Value: -8.999


	FINAL GENETIC ALGORITHM DOCKED STATE
	_______________________________________________


Detailed state:  trans -3.191 2.078 -16.120 quatxyzw 0.066261 0.622140 -0.488823 0.607950 center 0.015 0.083 0.031 ntor 6 -163.4380 49.8536 -111.8204 14.7639 57.5828 -60.3289
State:	 -3.191   2.078 -16.120   0.083  0.784 -0.616 105.117   -163.44   49.85 -111.82   14.76   57.58  -60.33

DOCKED: MODEL       14
DOCKED: USER    Run = 14
DOCKED: USER    DPF = D:/Protein_go_brrr/autodock/final/mut_D99N/2_3_BPG/dock.dpf
DOCKED: USER  
DOCKED: USER    Estimated Free Energy of Binding    =   -9.61 kcal/mol  [=(1)+(2)+(3)-(4)]
DOCKED: USER    Estimated Inhibition Constant, Ki   =   90.05 nM (nanomolar)  [Temperature = 298.15 K]
DOCKED: USER    
DOCKED: USER    (1) Final Intermolecular Energy     =  -11.40 kcal/mol
DOCKED: USER        vdW + Hbond + desolv Energy     =   -3.79 kcal/mol
DOCKED: USER        Electrostatic Energy            =   -7.61 kcal/mol
DOCKED: USER    (2) Final Total Internal Energy     =   +2.40 kcal/mol
DOCKED: USER    (3) Torsional Free Energy           =   +1.79 kcal/mol
DOCKED: USER    (4) Unbound System's Energy  [=(2)] =   +2.40 kcal/mol
DOCKED: USER    
DOCKED: USER    
DOCKED: USER    NEWDPF move 2_3_BPG_opt.pdbqt
DOCKED: USER    NEWDPF about 0.015000 0.083000 0.031000
DOCKED: USER    NEWDPF tran0 -3.190833 2.078375 -16.119772
DOCKED: USER    NEWDPF quaternion0 0.066261 0.622140 -0.488823 0.607950
DOCKED: USER    NEWDPF axisangle0 0.083455 0.783576 -0.615666 105.117202
DOCKED: USER    NEWDPF quat0 0.083455 0.783576 -0.615666 105.117202
DOCKED: USER    NEWDPF dihe0 -163.44 49.85 -111.82 14.76 57.58 -60.33 
DOCKED: USER  keepresnum = 1 
DOCKED: USER  
DOCKED: REMARK  6 active torsions:
DOCKED: REMARK  status: ('A' for Active; 'I' for Inactive)
DOCKED: REMARK    1  A    between atoms: P_1  and  O_3 
DOCKED: REMARK    2  A    between atoms: P_2  and  O_4 
DOCKED: REMARK    3  A    between atoms: O_3  and  C_13 
DOCKED: REMARK    4  A    between atoms: O_4  and  C_14 
DOCKED: REMARK    5  A    between atoms: C_13  and  C_14 
DOCKED: REMARK    6  A    between atoms: C_13  and  C_15 
DOCKED: USER                              x       y       z     vdW  Elec       q    Type
DOCKED: USER                           _______ _______ _______ _____ _____    ______ ____
DOCKED: ROOT
DOCKED: ATOM      1  C   UNL d   1      -2.960   1.473 -16.290 -0.20 +0.29    +0.193 C 
DOCKED: ENDROOT
DOCKED: BRANCH   1   2
DOCKED: ATOM      2  O   UNL d   1      -2.576   1.511 -17.706 -0.09 -0.60    -0.356 OA
DOCKED: BRANCH   2   3
DOCKED: ATOM      3  P   UNL d   1      -3.289   0.582 -18.860 +0.02 -0.03    -0.014 P 
DOCKED: ATOM      4  O   UNL d   1      -2.116   0.014 -19.674 -0.08 -1.16    -0.577 OA
DOCKED: ATOM      5  O   UNL d   1      -4.165   1.505 -19.706 -0.01 -0.97    -0.577 OA
DOCKED: ATOM      6  O   UNL d   1      -4.072  -0.523 -18.159 -0.32 -1.58    -0.638 OA
DOCKED: ENDBRANCH   2   3
DOCKED: ENDBRANCH   1   2
DOCKED: BRANCH   1   7
DOCKED: ATOM      7  C   UNL d   1      -3.226   2.943 -15.799 -0.20 +0.19    +0.201 C 
DOCKED: BRANCH   7   8
DOCKED: ATOM      8  O   UNL d   1      -4.611   3.351 -15.751 -0.19 -0.37    -0.364 OA
DOCKED: BRANCH   8   9
DOCKED: ATOM      9  P   UNL d   1      -5.133   4.625 -16.668 -0.36 -0.01    -0.015 P 
DOCKED: ATOM     10  O   UNL d   1      -5.092   4.119 -18.115 -0.40 -1.07    -0.577 OA
DOCKED: ATOM     11  O   UNL d   1      -4.150   5.773 -16.437 +0.03 -0.24    -0.577 OA
DOCKED: ATOM     12  O   UNL d   1      -6.555   4.955 -16.215 -0.47 -0.55    -0.638 OA
DOCKED: ENDBRANCH   8   9
DOCKED: ENDBRANCH   7   8
DOCKED: ENDBRANCH   1   7
DOCKED: BRANCH   1  13
DOCKED: ATOM     13  C   UNL d   1      -1.793   0.857 -15.431 -0.30 +0.11    +0.073 C 
DOCKED: ATOM     14  O   UNL d   1      -1.958  -0.306 -14.919 -0.66 -1.00    -0.547 OA
DOCKED: ATOM     15  O   UNL d   1      -0.709   1.540 -15.346 -0.54 -0.63    -0.547 OA
DOCKED: ENDBRANCH   1  13
DOCKED: TORSDOF 6
DOCKED: TER
DOCKED: ENDMDL
________________________________________________________________________________


	BEGINNING GENETIC ALGORITHM DOCKING 15 of 100
Run: 15 Seed: 1583193995 189328245 [ Run 15 of 100 GA/GALS ]
Beginning LAMARCKIAN GENETIC ALGORITHM (LGA), with a maximum of 25000000 energy evaluations.

Final-Value: -8.219


	FINAL GENETIC ALGORITHM DOCKED STATE
	_______________________________________________


Detailed state:  trans -4.031 -1.221 -19.533 quatxyzw 0.673390 0.484495 -0.129819 -0.543101 center 0.015 0.083 0.031 ntor 6 14.2555 -168.7657 47.2182 19.6352 -41.3539 -179.6127
State:	 -4.031  -1.221 -19.533   0.802  0.577 -0.155 -114.210     14.26 -168.77   47.22   19.64  -41.35 -179.61

DOCKED: MODEL       15
DOCKED: USER    Run = 15
DOCKED: USER    DPF = D:/Protein_go_brrr/autodock/final/mut_D99N/2_3_BPG/dock.dpf
DOCKED: USER  
DOCKED: USER    Estimated Free Energy of Binding    =   -8.70 kcal/mol  [=(1)+(2)+(3)-(4)]
DOCKED: USER    Estimated Inhibition Constant, Ki   =  421.50 nM (nanomolar)  [Temperature = 298.15 K]
DOCKED: USER    
DOCKED: USER    (1) Final Intermolecular Energy     =  -10.49 kcal/mol
DOCKED: USER        vdW + Hbond + desolv Energy     =   -3.32 kcal/mol
DOCKED: USER        Electrostatic Energy            =   -7.17 kcal/mol
DOCKED: USER    (2) Final Total Internal Energy     =   +2.27 kcal/mol
DOCKED: USER    (3) Torsional Free Energy           =   +1.79 kcal/mol
DOCKED: USER    (4) Unbound System's Energy  [=(2)] =   +2.27 kcal/mol
DOCKED: USER    
DOCKED: USER    
DOCKED: USER    NEWDPF move 2_3_BPG_opt.pdbqt
DOCKED: USER    NEWDPF about 0.015000 0.083000 0.031000
DOCKED: USER    NEWDPF tran0 -4.030847 -1.221013 -19.533222
DOCKED: USER    NEWDPF quaternion0 0.673390 0.484495 -0.129819 -0.543101
DOCKED: USER    NEWDPF axisangle0 0.801972 0.577008 -0.154608 -114.210052
DOCKED: USER    NEWDPF quat0 0.801972 0.577008 -0.154608 -114.210052
DOCKED: USER    NEWDPF dihe0 14.26 -168.77 47.22 19.64 -41.35 -179.61 
DOCKED: USER  keepresnum = 1 
DOCKED: USER  
DOCKED: REMARK  6 active torsions:
DOCKED: REMARK  status: ('A' for Active; 'I' for Inactive)
DOCKED: REMARK    1  A    between atoms: P_1  and  O_3 
DOCKED: REMARK    2  A    between atoms: P_2  and  O_4 
DOCKED: REMARK    3  A    between atoms: O_3  and  C_13 
DOCKED: REMARK    4  A    between atoms: O_4  and  C_14 
DOCKED: REMARK    5  A    between atoms: C_13  and  C_14 
DOCKED: REMARK    6  A    between atoms: C_13  and  C_15 
DOCKED: USER                              x       y       z     vdW  Elec       q    Type
DOCKED: USER                           _______ _______ _______ _____ _____    ______ ____
DOCKED: ROOT
DOCKED: ATOM      1  C   UNL d   1      -4.537  -1.619 -19.346 -0.19 +0.27    +0.193 C 
DOCKED: ENDROOT
DOCKED: BRANCH   1   2
DOCKED: ATOM      2  O   UNL d   1      -4.651  -1.557 -17.885 -0.59 -0.65    -0.356 OA
DOCKED: BRANCH   2   3
DOCKED: ATOM      3  P   UNL d   1      -4.325  -2.833 -16.899 -0.54 -0.02    -0.014 P 
DOCKED: ATOM      4  O   UNL d   1      -3.741  -3.902 -17.836 -0.07 -0.64    -0.577 OA
DOCKED: ATOM      5  O   UNL d   1      -5.651  -3.284 -16.289 -0.60 -0.56    -0.577 OA
DOCKED: ATOM      6  O   UNL d   1      -3.303  -2.378 -15.863 +0.09 -1.18    -0.638 OA
DOCKED: ENDBRANCH   2   3
DOCKED: ENDBRANCH   1   2
DOCKED: BRANCH   1   7
DOCKED: ATOM      7  C   UNL d   1      -3.560  -0.482 -19.825 -0.11 +0.33    +0.201 C 
DOCKED: BRANCH   7   8
DOCKED: ATOM      8  O   UNL d   1      -3.358   0.607 -18.897 -0.24 -0.72    -0.364 OA
DOCKED: BRANCH   8   9
DOCKED: ATOM      9  P   UNL d   1      -1.860   1.289 -18.732 -0.04 -0.02    -0.015 P 
DOCKED: ATOM     10  O   UNL d   1      -1.603   1.325 -17.221 +0.01 -1.04    -0.577 OA
DOCKED: ATOM     11  O   UNL d   1      -1.940   2.692 -19.331 +0.02 -0.48    -0.577 OA
DOCKED: ATOM     12  O   UNL d   1      -0.869   0.383 -19.461 -0.49 -1.19    -0.638 OA
DOCKED: ENDBRANCH   8   9
DOCKED: ENDBRANCH   7   8
DOCKED: ENDBRANCH   1   7
DOCKED: BRANCH   1  13
DOCKED: ATOM     13  C   UNL d   1      -5.946  -1.385 -20.008 -0.16 +0.08    +0.073 C 
DOCKED: ATOM     14  O   UNL d   1      -6.482  -0.225 -19.911 -0.43 -1.04    -0.547 OA
DOCKED: ATOM     15  O   UNL d   1      -6.450  -2.364 -20.668 +0.01 -0.32    -0.547 OA
DOCKED: ENDBRANCH   1  13
DOCKED: TORSDOF 6
DOCKED: TER
DOCKED: ENDMDL
________________________________________________________________________________


	BEGINNING GENETIC ALGORITHM DOCKING 16 of 100
Run: 16 Seed: 821128720 1800221041 [ Run 16 of 100 GA/GALS ]
Beginning LAMARCKIAN GENETIC ALGORITHM (LGA), with a maximum of 25000000 energy evaluations.

Final-Value: -9.110


	FINAL GENETIC ALGORITHM DOCKED STATE
	_______________________________________________


Detailed state:  trans -3.035 2.069 -16.227 quatxyzw -0.079651 -0.645527 0.481641 -0.587343 center 0.015 0.083 0.031 ntor 6 -166.6737 40.4395 129.1316 19.5776 55.6668 -53.5073
State:	 -3.035   2.069 -16.227  -0.098 -0.798  0.595 -108.063   -166.67   40.44  129.13   19.58   55.67  -53.51

DOCKED: MODEL       16
DOCKED: USER    Run = 16
DOCKED: USER    DPF = D:/Protein_go_brrr/autodock/final/mut_D99N/2_3_BPG/dock.dpf
DOCKED: USER  
DOCKED: USER    Estimated Free Energy of Binding    =   -9.74 kcal/mol  [=(1)+(2)+(3)-(4)]
DOCKED: USER    Estimated Inhibition Constant, Ki   =   72.52 nM (nanomolar)  [Temperature = 298.15 K]
DOCKED: USER    
DOCKED: USER    (1) Final Intermolecular Energy     =  -11.53 kcal/mol
DOCKED: USER        vdW + Hbond + desolv Energy     =   -4.07 kcal/mol
DOCKED: USER        Electrostatic Energy            =   -7.46 kcal/mol
DOCKED: USER    (2) Final Total Internal Energy     =   +2.42 kcal/mol
DOCKED: USER    (3) Torsional Free Energy           =   +1.79 kcal/mol
DOCKED: USER    (4) Unbound System's Energy  [=(2)] =   +2.42 kcal/mol
DOCKED: USER    
DOCKED: USER    
DOCKED: USER    NEWDPF move 2_3_BPG_opt.pdbqt
DOCKED: USER    NEWDPF about 0.015000 0.083000 0.031000
DOCKED: USER    NEWDPF tran0 -3.034569 2.069224 -16.227108
DOCKED: USER    NEWDPF quaternion0 -0.079651 -0.645527 0.481641 -0.587343
DOCKED: USER    NEWDPF axisangle0 -0.098416 -0.797599 0.595105 -108.062587
DOCKED: USER    NEWDPF quat0 -0.098416 -0.797599 0.595105 -108.062587
DOCKED: USER    NEWDPF dihe0 -166.67 40.44 129.13 19.58 55.67 -53.51 
DOCKED: USER  keepresnum = 1 
DOCKED: USER  
DOCKED: REMARK  6 active torsions:
DOCKED: REMARK  status: ('A' for Active; 'I' for Inactive)
DOCKED: REMARK    1  A    between atoms: P_1  and  O_3 
DOCKED: REMARK    2  A    between atoms: P_2  and  O_4 
DOCKED: REMARK    3  A    between atoms: O_3  and  C_13 
DOCKED: REMARK    4  A    between atoms: O_4  and  C_14 
DOCKED: REMARK    5  A    between atoms: C_13  and  C_14 
DOCKED: REMARK    6  A    between atoms: C_13  and  C_15 
DOCKED: USER                              x       y       z     vdW  Elec       q    Type
DOCKED: USER                           _______ _______ _______ _____ _____    ______ ____
DOCKED: ROOT
DOCKED: ATOM      1  C   UNL d   1      -2.794   1.465 -16.389 -0.22 +0.30    +0.193 C 
DOCKED: ENDROOT
DOCKED: BRANCH   1   2
DOCKED: ATOM      2  O   UNL d   1      -2.314   1.520 -17.774 -0.08 -0.59    -0.356 OA
DOCKED: BRANCH   2   3
DOCKED: ATOM      3  P   UNL d   1      -3.022   0.695 -19.009 -0.00 -0.03    -0.014 P 
DOCKED: ATOM      4  O   UNL d   1      -1.849   0.263 -19.903 -0.23 -0.93    -0.577 OA
DOCKED: ATOM      5  O   UNL d   1      -3.949   1.670 -19.731 -0.02 -0.89    -0.577 OA
DOCKED: ATOM      6  O   UNL d   1      -3.747  -0.508 -18.416 -0.36 -1.70    -0.638 OA
DOCKED: ENDBRANCH   2   3
DOCKED: ENDBRANCH   1   2
DOCKED: BRANCH   1   7
DOCKED: ATOM      7  C   UNL d   1      -3.090   2.930 -15.898 -0.20 +0.19    +0.201 C 
DOCKED: BRANCH   7   8
DOCKED: ATOM      8  O   UNL d   1      -4.485   3.290 -15.794 -0.18 -0.37    -0.364 OA
DOCKED: BRANCH   8   9
DOCKED: ATOM      9  P   UNL d   1      -5.080   4.567 -16.662 -0.36 -0.01    -0.015 P 
DOCKED: ATOM     10  O   UNL d   1      -4.096   5.715 -16.406 +0.02 -0.24    -0.577 OA
DOCKED: ATOM     11  O   UNL d   1      -6.471   4.873 -16.107 -0.51 -0.49    -0.577 OA
DOCKED: ATOM     12  O   UNL d   1      -5.101   4.144 -18.130 -0.38 -1.17    -0.638 OA
DOCKED: ENDBRANCH   8   9
DOCKED: ENDBRANCH   7   8
DOCKED: ENDBRANCH   1   7
DOCKED: BRANCH   1  13
DOCKED: ATOM     13  C   UNL d   1      -1.689   0.836 -15.460 -0.27 +0.12    +0.073 C 
DOCKED: ATOM     14  O   UNL d   1      -1.917  -0.306 -14.926 -0.67 -1.01    -0.547 OA
DOCKED: ATOM     15  O   UNL d   1      -0.587   1.484 -15.344 -0.59 -0.63    -0.547 OA
DOCKED: ENDBRANCH   1  13
DOCKED: TORSDOF 6
DOCKED: TER
DOCKED: ENDMDL
________________________________________________________________________________


	BEGINNING GENETIC ALGORITHM DOCKING 17 of 100
Run: 17 Seed: 1174709603 848907772 [ Run 17 of 100 GA/GALS ]
Beginning LAMARCKIAN GENETIC ALGORITHM (LGA), with a maximum of 25000000 energy evaluations.

Final-Value: -8.838


	FINAL GENETIC ALGORITHM DOCKED STATE
	_______________________________________________


Detailed state:  trans -2.173 2.423 -17.481 quatxyzw 0.916883 0.255912 0.294946 0.082712 center 0.015 0.083 0.031 ntor 6 -129.3079 -130.9202 -92.9078 16.7701 -49.0547 -177.9094
State:	 -2.173   2.423 -17.481   0.920  0.257  0.296 170.511   -129.31 -130.92  -92.91   16.77  -49.05 -177.91

DOCKED: MODEL       17
DOCKED: USER    Run = 17
DOCKED: USER    DPF = D:/Protein_go_brrr/autodock/final/mut_D99N/2_3_BPG/dock.dpf
DOCKED: USER  
DOCKED: USER    Estimated Free Energy of Binding    =   -9.41 kcal/mol  [=(1)+(2)+(3)-(4)]
DOCKED: USER    Estimated Inhibition Constant, Ki   =  126.26 nM (nanomolar)  [Temperature = 298.15 K]
DOCKED: USER    
DOCKED: USER    (1) Final Intermolecular Energy     =  -11.20 kcal/mol
DOCKED: USER        vdW + Hbond + desolv Energy     =   -3.55 kcal/mol
DOCKED: USER        Electrostatic Energy            =   -7.65 kcal/mol
DOCKED: USER    (2) Final Total Internal Energy     =   +2.36 kcal/mol
DOCKED: USER    (3) Torsional Free Energy           =   +1.79 kcal/mol
DOCKED: USER    (4) Unbound System's Energy  [=(2)] =   +2.36 kcal/mol
DOCKED: USER    
DOCKED: USER    
DOCKED: USER    NEWDPF move 2_3_BPG_opt.pdbqt
DOCKED: USER    NEWDPF about 0.015000 0.083000 0.031000
DOCKED: USER    NEWDPF tran0 -2.173481 2.423297 -17.480681
DOCKED: USER    NEWDPF quaternion0 0.916883 0.255912 0.294946 0.082712
DOCKED: USER    NEWDPF axisangle0 0.920036 0.256792 0.295960 170.511076
DOCKED: USER    NEWDPF quat0 0.920036 0.256792 0.295960 170.511076
DOCKED: USER    NEWDPF dihe0 -129.31 -130.92 -92.91 16.77 -49.05 -177.91 
DOCKED: USER  keepresnum = 1 
DOCKED: USER  
DOCKED: REMARK  6 active torsions:
DOCKED: REMARK  status: ('A' for Active; 'I' for Inactive)
DOCKED: REMARK    1  A    between atoms: P_1  and  O_3 
DOCKED: REMARK    2  A    between atoms: P_2  and  O_4 
DOCKED: REMARK    3  A    between atoms: O_3  and  C_13 
DOCKED: REMARK    4  A    between atoms: O_4  and  C_14 
DOCKED: REMARK    5  A    between atoms: C_13  and  C_14 
DOCKED: REMARK    6  A    between atoms: C_13  and  C_15 
DOCKED: USER                              x       y       z     vdW  Elec       q    Type
DOCKED: USER                           _______ _______ _______ _____ _____    ______ ____
DOCKED: ROOT
DOCKED: ATOM      1  C   UNL d   1      -2.696   2.472 -17.898 -0.12 +0.23    +0.193 C 
DOCKED: ENDROOT
DOCKED: BRANCH   1   2
DOCKED: ATOM      2  O   UNL d   1      -3.333   1.153 -17.988 -0.09 -0.70    -0.356 OA
DOCKED: BRANCH   2   3
DOCKED: ATOM      3  P   UNL d   1      -3.392   0.272 -19.376 -0.10 -0.03    -0.014 P 
DOCKED: ATOM      4  O   UNL d   1      -1.970   0.370 -19.952 -0.18 -0.88    -0.577 OA
DOCKED: ATOM      5  O   UNL d   1      -4.416   0.939 -20.292 -0.04 -0.83    -0.577 OA
DOCKED: ATOM      6  O   UNL d   1      -3.750  -1.164 -19.008 -0.56 -1.45    -0.638 OA
DOCKED: ENDBRANCH   2   3
DOCKED: ENDBRANCH   1   2
DOCKED: BRANCH   1   7
DOCKED: ATOM      7  C   UNL d   1      -1.660   2.452 -16.714 -0.17 +0.20    +0.201 C 
DOCKED: BRANCH   7   8
DOCKED: ATOM      8  O   UNL d   1      -1.828   1.392 -15.747 -0.31 -0.51    -0.364 OA
DOCKED: BRANCH   8   9
DOCKED: ATOM      9  P   UNL d   1      -0.520   0.518 -15.237 -0.29 -0.02    -0.015 P 
DOCKED: ATOM     10  O   UNL d   1       0.026   1.286 -14.027 -0.44 -0.53    -0.577 OA
DOCKED: ATOM     11  O   UNL d   1       0.478   0.494 -16.394 -0.02 -0.70    -0.577 OA
DOCKED: ATOM     12  O   UNL d   1      -1.026  -0.871 -14.854 -0.52 -1.21    -0.638 OA
DOCKED: ENDBRANCH   8   9
DOCKED: ENDBRANCH   7   8
DOCKED: ENDBRANCH   1   7
DOCKED: BRANCH   1  13
DOCKED: ATOM     13  C   UNL d   1      -3.779   3.575 -17.601 -0.11 +0.09    +0.073 C 
DOCKED: ATOM     14  O   UNL d   1      -4.546   3.952 -18.556 -0.55 -0.87    -0.547 OA
DOCKED: ATOM     15  O   UNL d   1      -3.872   3.990 -16.390 -0.05 -0.47    -0.547 OA
DOCKED: ENDBRANCH   1  13
DOCKED: TORSDOF 6
DOCKED: TER
DOCKED: ENDMDL
________________________________________________________________________________


	BEGINNING GENETIC ALGORITHM DOCKING 18 of 100
Run: 18 Seed: 378162889 25114445 [ Run 18 of 100 GA/GALS ]
Beginning LAMARCKIAN GENETIC ALGORITHM (LGA), with a maximum of 25000000 energy evaluations.

Final-Value: -8.594


	FINAL GENETIC ALGORITHM DOCKED STATE
	_______________________________________________


Detailed state:  trans -2.427 1.489 -18.007 quatxyzw -0.867554 -0.187571 -0.421979 0.184664 center 0.015 0.083 0.031 ntor 6 -155.7029 -34.6505 -51.2708 4.9249 -37.0684 -161.3653
State:	 -2.427   1.489 -18.007  -0.883 -0.191 -0.429 158.717   -155.70  -34.65  -51.27    4.92  -37.07 -161.37

DOCKED: MODEL       18
DOCKED: USER    Run = 18
DOCKED: USER    DPF = D:/Protein_go_brrr/autodock/final/mut_D99N/2_3_BPG/dock.dpf
DOCKED: USER  
DOCKED: USER    Estimated Free Energy of Binding    =   -8.99 kcal/mol  [=(1)+(2)+(3)-(4)]
DOCKED: USER    Estimated Inhibition Constant, Ki   =  256.16 nM (nanomolar)  [Temperature = 298.15 K]
DOCKED: USER    
DOCKED: USER    (1) Final Intermolecular Energy     =  -10.78 kcal/mol
DOCKED: USER        vdW + Hbond + desolv Energy     =   -3.71 kcal/mol
DOCKED: USER        Electrostatic Energy            =   -7.08 kcal/mol
DOCKED: USER    (2) Final Total Internal Energy     =   +2.19 kcal/mol
DOCKED: USER    (3) Torsional Free Energy           =   +1.79 kcal/mol
DOCKED: USER    (4) Unbound System's Energy  [=(2)] =   +2.19 kcal/mol
DOCKED: USER    
DOCKED: USER    
DOCKED: USER    NEWDPF move 2_3_BPG_opt.pdbqt
DOCKED: USER    NEWDPF about 0.015000 0.083000 0.031000
DOCKED: USER    NEWDPF tran0 -2.427412 1.489421 -18.007301
DOCKED: USER    NEWDPF quaternion0 -0.867554 -0.187571 -0.421979 0.184664
DOCKED: USER    NEWDPF axisangle0 -0.882736 -0.190853 -0.429363 158.716924
DOCKED: USER    NEWDPF quat0 -0.882736 -0.190853 -0.429363 158.716924
DOCKED: USER    NEWDPF dihe0 -155.70 -34.65 -51.27 4.92 -37.07 -161.37 
DOCKED: USER  keepresnum = 1 
DOCKED: USER  
DOCKED: REMARK  6 active torsions:
DOCKED: REMARK  status: ('A' for Active; 'I' for Inactive)
DOCKED: REMARK    1  A    between atoms: P_1  and  O_3 
DOCKED: REMARK    2  A    between atoms: P_2  and  O_4 
DOCKED: REMARK    3  A    between atoms: O_3  and  C_13 
DOCKED: REMARK    4  A    between atoms: O_4  and  C_14 
DOCKED: REMARK    5  A    between atoms: C_13  and  C_14 
DOCKED: REMARK    6  A    between atoms: C_13  and  C_15 
DOCKED: USER                              x       y       z     vdW  Elec       q    Type
DOCKED: USER                           _______ _______ _______ _____ _____    ______ ____
DOCKED: ROOT
DOCKED: ATOM      1  C   UNL d   1      -2.742   1.461 -18.599 -0.12 +0.31    +0.193 C 
DOCKED: ENDROOT
DOCKED: BRANCH   1   2
DOCKED: ATOM      2  O   UNL d   1      -3.724   0.373 -18.543 -0.35 -0.78    -0.356 OA
DOCKED: BRANCH   2   3
DOCKED: ATOM      3  P   UNL d   1      -3.804  -0.830 -19.661 -0.13 -0.02    -0.014 P 
DOCKED: ATOM      4  O   UNL d   1      -4.123  -2.092 -18.845 -0.52 -1.00    -0.577 OA
DOCKED: ATOM      5  O   UNL d   1      -2.431  -0.922 -20.325 -0.11 -0.87    -0.577 OA
DOCKED: ATOM      6  O   UNL d   1      -4.928  -0.494 -20.635 -0.04 -0.71    -0.638 OA
DOCKED: ENDBRANCH   2   3
DOCKED: ENDBRANCH   1   2
DOCKED: BRANCH   1   7
DOCKED: ATOM      7  C   UNL d   1      -2.205   1.733 -17.145 -0.17 +0.30    +0.201 C 
DOCKED: BRANCH   7   8
DOCKED: ATOM      8  O   UNL d   1      -2.790   0.928 -16.097 -0.25 -0.64    -0.364 OA
DOCKED: BRANCH   8   9
DOCKED: ATOM      9  P   UNL d   1      -1.874   0.461 -14.801 -0.51 -0.02    -0.015 P 
DOCKED: ATOM     10  O   UNL d   1      -2.717   0.813 -13.569 +0.05 -0.38    -0.577 OA
DOCKED: ATOM     11  O   UNL d   1      -0.579   1.271 -14.855 -0.64 -0.63    -0.577 OA
DOCKED: ATOM     12  O   UNL d   1      -1.644  -1.044 -14.929 -0.43 -1.35    -0.638 OA
DOCKED: ENDBRANCH   8   9
DOCKED: ENDBRANCH   7   8
DOCKED: ENDBRANCH   1   7
DOCKED: BRANCH   1  13
DOCKED: ATOM     13  C   UNL d   1      -3.422   2.774 -19.139 -0.07 +0.09    +0.073 C 
DOCKED: ATOM     14  O   UNL d   1      -3.221   3.109 -20.359 +0.00 -0.43    -0.547 OA
DOCKED: ATOM     15  O   UNL d   1      -4.197   3.403 -18.331 -0.44 -0.94    -0.547 OA
DOCKED: ENDBRANCH   1  13
DOCKED: TORSDOF 6
DOCKED: TER
DOCKED: ENDMDL
________________________________________________________________________________


	BEGINNING GENETIC ALGORITHM DOCKING 19 of 100
Run: 19 Seed: 1460406778 223485745 [ Run 19 of 100 GA/GALS ]
Beginning LAMARCKIAN GENETIC ALGORITHM (LGA), with a maximum of 25000000 energy evaluations.

Final-Value: -8.021


	FINAL GENETIC ALGORITHM DOCKED STATE
	_______________________________________________


Detailed state:  trans -2.498 1.908 -18.443 quatxyzw 0.479373 -0.351358 -0.686461 0.418952 center 0.015 0.083 0.031 ntor 6 180.0000 -90.8148 -114.1222 -26.3409 62.9077 -104.5689
State:	 -2.498   1.908 -18.443   0.528 -0.387 -0.756 130.463    180.00  -90.81 -114.12  -26.34   62.91 -104.57

DOCKED: MODEL       19
DOCKED: USER    Run = 19
DOCKED: USER    DPF = D:/Protein_go_brrr/autodock/final/mut_D99N/2_3_BPG/dock.dpf
DOCKED: USER  
DOCKED: USER    Estimated Free Energy of Binding    =   -8.85 kcal/mol  [=(1)+(2)+(3)-(4)]
DOCKED: USER    Estimated Inhibition Constant, Ki   =  327.34 nM (nanomolar)  [Temperature = 298.15 K]
DOCKED: USER    
DOCKED: USER    (1) Final Intermolecular Energy     =  -10.64 kcal/mol
DOCKED: USER        vdW + Hbond + desolv Energy     =   -3.23 kcal/mol
DOCKED: USER        Electrostatic Energy            =   -7.40 kcal/mol
DOCKED: USER    (2) Final Total Internal Energy     =   +2.62 kcal/mol
DOCKED: USER    (3) Torsional Free Energy           =   +1.79 kcal/mol
DOCKED: USER    (4) Unbound System's Energy  [=(2)] =   +2.62 kcal/mol
DOCKED: USER    
DOCKED: USER    
DOCKED: USER    NEWDPF move 2_3_BPG_opt.pdbqt
DOCKED: USER    NEWDPF about 0.015000 0.083000 0.031000
DOCKED: USER    NEWDPF tran0 -2.498094 1.907543 -18.443407
DOCKED: USER    NEWDPF quaternion0 0.479373 -0.351358 -0.686461 0.418952
DOCKED: USER    NEWDPF axisangle0 0.527939 -0.386954 -0.756007 130.463131
DOCKED: USER    NEWDPF quat0 0.527939 -0.386954 -0.756007 130.463131
DOCKED: USER    NEWDPF dihe0 180.00 -90.81 -114.12 -26.34 62.91 -104.57 
DOCKED: USER  keepresnum = 1 
DOCKED: USER  
DOCKED: REMARK  6 active torsions:
DOCKED: REMARK  status: ('A' for Active; 'I' for Inactive)
DOCKED: REMARK    1  A    between atoms: P_1  and  O_3 
DOCKED: REMARK    2  A    between atoms: P_2  and  O_4 
DOCKED: REMARK    3  A    between atoms: O_3  and  C_13 
DOCKED: REMARK    4  A    between atoms: O_4  and  C_14 
DOCKED: REMARK    5  A    between atoms: C_13  and  C_14 
DOCKED: REMARK    6  A    between atoms: C_13  and  C_15 
DOCKED: USER                              x       y       z     vdW  Elec       q    Type
DOCKED: USER                           _______ _______ _______ _____ _____    ______ ____
DOCKED: ROOT
DOCKED: ATOM      1  C   UNL d   1      -2.136   1.976 -17.883 -0.13 +0.26    +0.193 C 
DOCKED: ENDROOT
DOCKED: BRANCH   1   2
DOCKED: ATOM      2  O   UNL d   1      -2.431   0.836 -17.007 +0.08 -0.81    -0.356 OA
DOCKED: BRANCH   2   3
DOCKED: ATOM      3  P   UNL d   1      -2.175   0.855 -15.383 -0.45 -0.02    -0.014 P 
DOCKED: ATOM      4  O   UNL d   1      -3.445   1.496 -14.802 -0.10 -0.59    -0.577 OA
DOCKED: ATOM      5  O   UNL d   1      -0.942   1.722 -15.130 -0.40 -0.64    -0.577 OA
DOCKED: ATOM      6  O   UNL d   1      -2.010  -0.587 -14.915 -0.55 -1.23    -0.638 OA
DOCKED: ENDBRANCH   2   3
DOCKED: ENDBRANCH   1   2
DOCKED: BRANCH   1   7
DOCKED: ATOM      7  C   UNL d   1      -2.742   1.689 -19.306 -0.10 +0.26    +0.201 C 
DOCKED: BRANCH   7   8
DOCKED: ATOM      8  O   UNL d   1      -4.153   1.377 -19.340 -0.01 -0.68    -0.364 OA
DOCKED: BRANCH   8   9
DOCKED: ATOM      9  P   UNL d   1      -4.659  -0.129 -19.801 -0.12 -0.02    -0.015 P 
DOCKED: ATOM     10  O   UNL d   1      -4.194  -1.066 -18.680 -0.66 -1.21    -0.577 OA
DOCKED: ATOM     11  O   UNL d   1      -3.973  -0.443 -21.130 -0.01 -0.52    -0.577 OA
DOCKED: ATOM     12  O   UNL d   1      -6.182  -0.078 -19.912 -0.34 -1.27    -0.638 OA
DOCKED: ENDBRANCH   8   9
DOCKED: ENDBRANCH   7   8
DOCKED: ENDBRANCH   1   7
DOCKED: BRANCH   1  13
DOCKED: ATOM     13  C   UNL d   1      -0.579   2.158 -18.025 -0.13 +0.07    +0.073 C 
DOCKED: ATOM     14  O   UNL d   1      -0.071   3.304 -17.763 +0.01 -0.30    -0.547 OA
DOCKED: ATOM     15  O   UNL d   1       0.103   1.116 -18.339 -0.34 -0.70    -0.547 OA
DOCKED: ENDBRANCH   1  13
DOCKED: TORSDOF 6
DOCKED: TER
DOCKED: ENDMDL
________________________________________________________________________________


	BEGINNING GENETIC ALGORITHM DOCKING 20 of 100
Run: 20 Seed: 1344850377 264035929 [ Run 20 of 100 GA/GALS ]
Beginning LAMARCKIAN GENETIC ALGORITHM (LGA), with a maximum of 25000000 energy evaluations.

Final-Value: -8.897


	FINAL GENETIC ALGORITHM DOCKED STATE
	_______________________________________________


Detailed state:  trans -4.717 -2.586 -16.904 quatxyzw 0.195214 0.583159 0.322390 0.719640 center 0.015 0.083 0.031 ntor 6 -61.3365 25.2009 -179.1608 22.5806 19.3366 -79.4763
State:	 -4.717  -2.586 -16.904   0.281  0.840  0.464 87.950    -61.34   25.20 -179.16   22.58   19.34  -79.48

DOCKED: MODEL       20
DOCKED: USER    Run = 20
DOCKED: USER    DPF = D:/Protein_go_brrr/autodock/final/mut_D99N/2_3_BPG/dock.dpf
DOCKED: USER  
DOCKED: USER    Estimated Free Energy of Binding    =   -9.27 kcal/mol  [=(1)+(2)+(3)-(4)]
DOCKED: USER    Estimated Inhibition Constant, Ki   =  159.34 nM (nanomolar)  [Temperature = 298.15 K]
DOCKED: USER    
DOCKED: USER    (1) Final Intermolecular Energy     =  -11.06 kcal/mol
DOCKED: USER        vdW + Hbond + desolv Energy     =   -4.65 kcal/mol
DOCKED: USER        Electrostatic Energy            =   -6.41 kcal/mol
DOCKED: USER    (2) Final Total Internal Energy     =   +2.17 kcal/mol
DOCKED: USER    (3) Torsional Free Energy           =   +1.79 kcal/mol
DOCKED: USER    (4) Unbound System's Energy  [=(2)] =   +2.17 kcal/mol
DOCKED: USER    
DOCKED: USER    
DOCKED: USER    NEWDPF move 2_3_BPG_opt.pdbqt
DOCKED: USER    NEWDPF about 0.015000 0.083000 0.031000
DOCKED: USER    NEWDPF tran0 -4.716727 -2.585805 -16.904193
DOCKED: USER    NEWDPF quaternion0 0.195214 0.583159 0.322390 0.719640
DOCKED: USER    NEWDPF axisangle0 0.281147 0.839866 0.464307 87.950452
DOCKED: USER    NEWDPF quat0 0.281147 0.839866 0.464307 87.950452
DOCKED: USER    NEWDPF dihe0 -61.34 25.20 -179.16 22.58 19.34 -79.48 
DOCKED: USER  keepresnum = 1 
DOCKED: USER  
DOCKED: REMARK  6 active torsions:
DOCKED: REMARK  status: ('A' for Active; 'I' for Inactive)
DOCKED: REMARK    1  A    between atoms: P_1  and  O_3 
DOCKED: REMARK    2  A    between atoms: P_2  and  O_4 
DOCKED: REMARK    3  A    between atoms: O_3  and  C_13 
DOCKED: REMARK    4  A    between atoms: O_4  and  C_14 
DOCKED: REMARK    5  A    between atoms: C_13  and  C_14 
DOCKED: REMARK    6  A    between atoms: C_13  and  C_15 
DOCKED: USER                              x       y       z     vdW  Elec       q    Type
DOCKED: USER                           _______ _______ _______ _____ _____    ______ ____
DOCKED: ROOT
DOCKED: ATOM      1  C   UNL d   1      -5.065  -2.610 -17.477 -0.26 +0.23    +0.193 C 
DOCKED: ENDROOT
DOCKED: BRANCH   1   2
DOCKED: ATOM      2  O   UNL d   1      -4.171  -2.213 -18.571 -0.63 -0.62    -0.356 OA
DOCKED: BRANCH   2   3
DOCKED: ATOM      3  P   UNL d   1      -4.319  -0.792 -19.387 -0.21 -0.02    -0.014 P 
DOCKED: ATOM      4  O   UNL d   1      -3.588  -1.037 -20.717 -0.07 -0.62    -0.577 OA
DOCKED: ATOM      5  O   UNL d   1      -3.625   0.283 -18.553 -0.27 -1.31    -0.577 OA
DOCKED: ATOM      6  O   UNL d   1      -5.805  -0.527 -19.605 -0.20 -1.08    -0.638 OA
DOCKED: ENDBRANCH   2   3
DOCKED: ENDBRANCH   1   2
DOCKED: BRANCH   1   7
DOCKED: ATOM      7  C   UNL d   1      -4.203  -2.841 -16.181 -0.46 +0.27    +0.201 C 
DOCKED: BRANCH   7   8
DOCKED: ATOM      8  O   UNL d   1      -3.824  -1.651 -15.455 -0.31 -0.56    -0.364 OA
DOCKED: BRANCH   8   9
DOCKED: ATOM      9  P   UNL d   1      -2.514  -1.677 -14.445 -0.71 -0.02    -0.015 P 
DOCKED: ATOM     10  O   UNL d   1      -1.921  -3.084 -14.598 -0.17 -0.66    -0.577 OA
DOCKED: ATOM     11  O   UNL d   1      -3.035  -1.428 -13.031 +0.06 -0.31    -0.577 OA
DOCKED: ATOM     12  O   UNL d   1      -1.551  -0.594 -14.928 -0.60 -1.29    -0.638 OA
DOCKED: ENDBRANCH   8   9
DOCKED: ENDBRANCH   7   8
DOCKED: ENDBRANCH   1   7
DOCKED: BRANCH   1  13
DOCKED: ATOM     13  C   UNL d   1      -5.800  -3.953 -17.841 -0.43 +0.04    +0.073 C 
DOCKED: ATOM     14  O   UNL d   1      -5.664  -4.423 -19.025 -0.04 -0.23    -0.547 OA
DOCKED: ATOM     15  O   UNL d   1      -6.447  -4.537 -16.898 -0.34 -0.24    -0.547 OA
DOCKED: ENDBRANCH   1  13
DOCKED: TORSDOF 6
DOCKED: TER
DOCKED: ENDMDL
________________________________________________________________________________


	BEGINNING GENETIC ALGORITHM DOCKING 21 of 100
Run: 21 Seed: 1424361290 942474386 [ Run 21 of 100 GA/GALS ]
Beginning LAMARCKIAN GENETIC ALGORITHM (LGA), with a maximum of 25000000 energy evaluations.

Final-Value: -9.311


	FINAL GENETIC ALGORITHM DOCKED STATE
	_______________________________________________


Detailed state:  trans -5.055 -1.632 -18.673 quatxyzw 0.041575 -0.376670 -0.750974 -0.540767 center 0.015 0.083 0.031 ntor 6 27.4008 -118.7760 -163.7063 10.8014 -57.3203 -115.2396
State:	 -5.055  -1.632 -18.673   0.049 -0.448 -0.893 -114.528     27.40 -118.78 -163.71   10.80  -57.32 -115.24

DOCKED: MODEL       21
DOCKED: USER    Run = 21
DOCKED: USER    DPF = D:/Protein_go_brrr/autodock/final/mut_D99N/2_3_BPG/dock.dpf
DOCKED: USER  
DOCKED: USER    Estimated Free Energy of Binding    =   -9.70 kcal/mol  [=(1)+(2)+(3)-(4)]
DOCKED: USER    Estimated Inhibition Constant, Ki   =   77.94 nM (nanomolar)  [Temperature = 298.15 K]
DOCKED: USER    
DOCKED: USER    (1) Final Intermolecular Energy     =  -11.49 kcal/mol
DOCKED: USER        vdW + Hbond + desolv Energy     =   -4.62 kcal/mol
DOCKED: USER        Electrostatic Energy            =   -6.87 kcal/mol
DOCKED: USER    (2) Final Total Internal Energy     =   +2.18 kcal/mol
DOCKED: USER    (3) Torsional Free Energy           =   +1.79 kcal/mol
DOCKED: USER    (4) Unbound System's Energy  [=(2)] =   +2.18 kcal/mol
DOCKED: USER    
DOCKED: USER    
DOCKED: USER    NEWDPF move 2_3_BPG_opt.pdbqt
DOCKED: USER    NEWDPF about 0.015000 0.083000 0.031000
DOCKED: USER    NEWDPF tran0 -5.055402 -1.632083 -18.673223
DOCKED: USER    NEWDPF quaternion0 0.041575 -0.376670 -0.750974 -0.540767
DOCKED: USER    NEWDPF axisangle0 0.049425 -0.447791 -0.892771 -114.528279
DOCKED: USER    NEWDPF quat0 0.049425 -0.447791 -0.892771 -114.528279
DOCKED: USER    NEWDPF dihe0 27.40 -118.78 -163.71 10.80 -57.32 -115.24 
DOCKED: USER  keepresnum = 1 
DOCKED: USER  
DOCKED: REMARK  6 active torsions:
DOCKED: REMARK  status: ('A' for Active; 'I' for Inactive)
DOCKED: REMARK    1  A    between atoms: P_1  and  O_3 
DOCKED: REMARK    2  A    between atoms: P_2  and  O_4 
DOCKED: REMARK    3  A    between atoms: O_3  and  C_13 
DOCKED: REMARK    4  A    between atoms: O_4  and  C_14 
DOCKED: REMARK    5  A    between atoms: C_13  and  C_14 
DOCKED: REMARK    6  A    between atoms: C_13  and  C_15 
DOCKED: USER                              x       y       z     vdW  Elec       q    Type
DOCKED: USER                           _______ _______ _______ _____ _____    ______ ____
DOCKED: ROOT
DOCKED: ATOM      1  C   UNL d   1      -5.101  -1.048 -19.000 -0.00 +0.31    +0.193 C 
DOCKED: ENDROOT
DOCKED: BRANCH   1   2
DOCKED: ATOM      2  O   UNL d   1      -3.744  -0.602 -19.333 -0.60 -0.69    -0.356 OA
DOCKED: BRANCH   2   3
DOCKED: ATOM      3  P   UNL d   1      -3.118   0.834 -18.834 -0.10 -0.03    -0.014 P 
DOCKED: ATOM      4  O   UNL d   1      -3.228   0.788 -17.302 +0.03 -1.26    -0.577 OA
DOCKED: ATOM      5  O   UNL d   1      -3.990   1.938 -19.427 -0.05 -0.98    -0.577 OA
DOCKED: ATOM      6  O   UNL d   1      -1.663   0.897 -19.289 -0.23 -1.07    -0.638 OA
DOCKED: ENDBRANCH   2   3
DOCKED: ENDBRANCH   1   2
DOCKED: BRANCH   1   7
DOCKED: ATOM      7  C   UNL d   1      -5.035  -2.538 -18.500 -0.25 +0.23    +0.201 C 
DOCKED: BRANCH   7   8
DOCKED: ATOM      8  O   UNL d   1      -3.972  -2.845 -17.571 -0.28 -0.62    -0.364 OA
DOCKED: BRANCH   8   9
DOCKED: ATOM      9  P   UNL d   1      -4.320  -3.548 -16.114 -0.76 -0.02    -0.015 P 
DOCKED: ATOM     10  O   UNL d   1      -5.722  -4.144 -16.284 -0.78 -0.43    -0.577 OA
DOCKED: ATOM     11  O   UNL d   1      -4.295  -2.437 -15.065 -0.29 -0.65    -0.577 OA
DOCKED: ATOM     12  O   UNL d   1      -3.264  -4.625 -15.870 -0.59 -0.51    -0.638 OA
DOCKED: ENDBRANCH   8   9
DOCKED: ENDBRANCH   7   8
DOCKED: ENDBRANCH   1   7
DOCKED: BRANCH   1  13
DOCKED: ATOM     13  C   UNL d   1      -6.019  -0.986 -20.277 -0.13 +0.08    +0.073 C 
DOCKED: ATOM     14  O   UNL d   1      -5.959  -1.948 -21.121 +0.00 -0.34    -0.547 OA
DOCKED: ATOM     15  O   UNL d   1      -6.827   0.008 -20.366 -0.60 -0.90    -0.547 OA
DOCKED: ENDBRANCH   1  13
DOCKED: TORSDOF 6
DOCKED: TER
DOCKED: ENDMDL
________________________________________________________________________________


	BEGINNING GENETIC ALGORITHM DOCKING 22 of 100
Run: 22 Seed: 1996189083 726476751 [ Run 22 of 100 GA/GALS ]
Beginning LAMARCKIAN GENETIC ALGORITHM (LGA), with a maximum of 25000000 energy evaluations.

Final-Value: -9.579


	FINAL GENETIC ALGORITHM DOCKED STATE
	_______________________________________________


Detailed state:  trans -4.027 -2.306 -16.819 quatxyzw -0.009880 -0.828343 0.054228 0.557504 center 0.015 0.083 0.031 ntor 6 -153.5484 122.3393 10.0720 49.3107 37.8320 -32.5384
State:	 -4.027  -2.306 -16.819  -0.012 -0.998  0.065 112.233   -153.55  122.34   10.07   49.31   37.83  -32.54

DOCKED: MODEL       22
DOCKED: USER    Run = 22
DOCKED: USER    DPF = D:/Protein_go_brrr/autodock/final/mut_D99N/2_3_BPG/dock.dpf
DOCKED: USER  
DOCKED: USER    Estimated Free Energy of Binding    =  -10.16 kcal/mol  [=(1)+(2)+(3)-(4)]
DOCKED: USER    Estimated Inhibition Constant, Ki   =   35.94 nM (nanomolar)  [Temperature = 298.15 K]
DOCKED: USER    
DOCKED: USER    (1) Final Intermolecular Energy     =  -11.95 kcal/mol
DOCKED: USER        vdW + Hbond + desolv Energy     =   -5.12 kcal/mol
DOCKED: USER        Electrostatic Energy            =   -6.83 kcal/mol
DOCKED: USER    (2) Final Total Internal Energy     =   +2.37 kcal/mol
DOCKED: USER    (3) Torsional Free Energy           =   +1.79 kcal/mol
DOCKED: USER    (4) Unbound System's Energy  [=(2)] =   +2.37 kcal/mol
DOCKED: USER    
DOCKED: USER    
DOCKED: USER    NEWDPF move 2_3_BPG_opt.pdbqt
DOCKED: USER    NEWDPF about 0.015000 0.083000 0.031000
DOCKED: USER    NEWDPF tran0 -4.026975 -2.306343 -16.819338
DOCKED: USER    NEWDPF quaternion0 -0.009880 -0.828343 0.054228 0.557504
DOCKED: USER    NEWDPF axisangle0 -0.011901 -0.997793 0.065321 112.233321
DOCKED: USER    NEWDPF quat0 -0.011901 -0.997793 0.065321 112.233321
DOCKED: USER    NEWDPF dihe0 -153.55 122.34 10.07 49.31 37.83 -32.54 
DOCKED: USER  keepresnum = 1 
DOCKED: USER  
DOCKED: REMARK  6 active torsions:
DOCKED: REMARK  status: ('A' for Active; 'I' for Inactive)
DOCKED: REMARK    1  A    between atoms: P_1  and  O_3 
DOCKED: REMARK    2  A    between atoms: P_2  and  O_4 
DOCKED: REMARK    3  A    between atoms: O_3  and  C_13 
DOCKED: REMARK    4  A    between atoms: O_4  and  C_14 
DOCKED: REMARK    5  A    between atoms: C_13  and  C_14 
DOCKED: REMARK    6  A    between atoms: C_13  and  C_15 
DOCKED: USER                              x       y       z     vdW  Elec       q    Type
DOCKED: USER                           _______ _______ _______ _____ _____    ______ ____
DOCKED: ROOT
DOCKED: ATOM      1  C   UNL d   1      -3.744  -2.600 -16.288 -0.11 +0.32    +0.193 C 
DOCKED: ENDROOT
DOCKED: BRANCH   1   2
DOCKED: ATOM      2  O   UNL d   1      -3.878  -1.696 -15.140 -0.35 -0.48    -0.356 OA
DOCKED: BRANCH   2   3
DOCKED: ATOM      3  P   UNL d   1      -2.846  -0.449 -14.847 -0.56 -0.02    -0.014 P 
DOCKED: ATOM      4  O   UNL d   1      -1.481  -1.123 -14.640 -0.57 -0.99    -0.577 OA
DOCKED: ATOM      5  O   UNL d   1      -3.327   0.247 -13.575 -0.11 -0.37    -0.577 OA
DOCKED: ATOM      6  O   UNL d   1      -2.843   0.458 -16.072 -0.04 -1.33    -0.638 OA
DOCKED: ENDBRANCH   2   3
DOCKED: ENDBRANCH   1   2
DOCKED: BRANCH   1   7
DOCKED: ATOM      7  C   UNL d   1      -4.647  -2.067 -17.460 -0.18 +0.32    +0.201 C 
DOCKED: BRANCH   7   8
DOCKED: ATOM      8  O   UNL d   1      -3.987  -1.883 -18.731 -0.61 -0.74    -0.364 OA
DOCKED: BRANCH   8   9
DOCKED: ATOM      9  P   UNL d   1      -4.326  -0.556 -19.659 -0.23 -0.02    -0.015 P 
DOCKED: ATOM     10  O   UNL d   1      -3.703  -0.855 -21.027 -0.03 -0.54    -0.577 OA
DOCKED: ATOM     11  O   UNL d   1      -3.665   0.643 -18.980 -0.14 -1.11    -0.577 OA
DOCKED: ATOM     12  O   UNL d   1      -5.848  -0.436 -19.735 -0.22 -1.09    -0.638 OA
DOCKED: ENDBRANCH   8   9
DOCKED: ENDBRANCH   7   8
DOCKED: ENDBRANCH   1   7
DOCKED: BRANCH   1  13
DOCKED: ATOM     13  C   UNL d   1      -4.228  -4.046 -15.895 -0.57 +0.07    +0.073 C 
DOCKED: ATOM     14  O   UNL d   1      -3.346  -4.926 -15.597 -0.70 -0.39    -0.547 OA
DOCKED: ATOM     15  O   UNL d   1      -5.495  -4.239 -15.836 -0.69 -0.46    -0.547 OA
DOCKED: ENDBRANCH   1  13
DOCKED: TORSDOF 6
DOCKED: TER
DOCKED: ENDMDL
________________________________________________________________________________


	BEGINNING GENETIC ALGORITHM DOCKING 23 of 100
Run: 23 Seed: 1185457634 9637171 [ Run 23 of 100 GA/GALS ]
Beginning LAMARCKIAN GENETIC ALGORITHM (LGA), with a maximum of 25000000 energy evaluations.

Final-Value: -9.025


	FINAL GENETIC ALGORITHM DOCKED STATE
	_______________________________________________


Detailed state:  trans -4.733 -1.593 -18.686 quatxyzw -0.068464 -0.311376 -0.719765 -0.616681 center 0.015 0.083 0.031 ntor 6 -143.4051 -155.8974 51.9660 30.2560 -55.6229 -81.3447
State:	 -4.733  -1.593 -18.686  -0.087 -0.396 -0.914 -103.852   -143.41 -155.90   51.97   30.26  -55.62  -81.34

DOCKED: MODEL       23
DOCKED: USER    Run = 23
DOCKED: USER    DPF = D:/Protein_go_brrr/autodock/final/mut_D99N/2_3_BPG/dock.dpf
DOCKED: USER  
DOCKED: USER    Estimated Free Energy of Binding    =   -9.32 kcal/mol  [=(1)+(2)+(3)-(4)]
DOCKED: USER    Estimated Inhibition Constant, Ki   =  146.24 nM (nanomolar)  [Temperature = 298.15 K]
DOCKED: USER    
DOCKED: USER    (1) Final Intermolecular Energy     =  -11.11 kcal/mol
DOCKED: USER        vdW + Hbond + desolv Energy     =   -4.27 kcal/mol
DOCKED: USER        Electrostatic Energy            =   -6.85 kcal/mol
DOCKED: USER    (2) Final Total Internal Energy     =   +2.09 kcal/mol
DOCKED: USER    (3) Torsional Free Energy           =   +1.79 kcal/mol
DOCKED: USER    (4) Unbound System's Energy  [=(2)] =   +2.09 kcal/mol
DOCKED: USER    
DOCKED: USER    
DOCKED: USER    NEWDPF move 2_3_BPG_opt.pdbqt
DOCKED: USER    NEWDPF about 0.015000 0.083000 0.031000
DOCKED: USER    NEWDPF tran0 -4.732818 -1.592601 -18.685902
DOCKED: USER    NEWDPF quaternion0 -0.068464 -0.311376 -0.719765 -0.616681
DOCKED: USER    NEWDPF axisangle0 -0.086971 -0.395542 -0.914321 -103.851651
DOCKED: USER    NEWDPF quat0 -0.086971 -0.395542 -0.914321 -103.851651
DOCKED: USER    NEWDPF dihe0 -143.41 -155.90 51.97 30.26 -55.62 -81.34 
DOCKED: USER  keepresnum = 1 
DOCKED: USER  
DOCKED: REMARK  6 active torsions:
DOCKED: REMARK  status: ('A' for Active; 'I' for Inactive)
DOCKED: REMARK    1  A    between atoms: P_1  and  O_3 
DOCKED: REMARK    2  A    between atoms: P_2  and  O_4 
DOCKED: REMARK    3  A    between atoms: O_3  and  C_13 
DOCKED: REMARK    4  A    between atoms: O_4  and  C_14 
DOCKED: REMARK    5  A    between atoms: C_13  and  C_14 
DOCKED: REMARK    6  A    between atoms: C_13  and  C_15 
DOCKED: USER                              x       y       z     vdW  Elec       q    Type
DOCKED: USER                           _______ _______ _______ _____ _____    ______ ____
DOCKED: ROOT
DOCKED: ATOM      1  C   UNL d   1      -4.915  -1.034 -19.008 -0.06 +0.32    +0.193 C 
DOCKED: ENDROOT
DOCKED: BRANCH   1   2
DOCKED: ATOM      2  O   UNL d   1      -3.747  -0.525 -19.737 -0.39 -0.58    -0.356 OA
DOCKED: BRANCH   2   3
DOCKED: ATOM      3  P   UNL d   1      -2.836   0.740 -19.212 -0.06 -0.02    -0.014 P 
DOCKED: ATOM      4  O   UNL d   1      -3.145   0.837 -17.710 -0.02 -1.26    -0.577 OA
DOCKED: ATOM      5  O   UNL d   1      -3.309   1.981 -19.965 -0.01 -0.66    -0.577 OA
DOCKED: ATOM      6  O   UNL d   1      -1.370   0.399 -19.461 -0.32 -1.25    -0.638 OA
DOCKED: ENDBRANCH   2   3
DOCKED: ENDBRANCH   1   2
DOCKED: BRANCH   1   7
DOCKED: ATOM      7  C   UNL d   1      -4.594  -2.484 -18.490 -0.24 +0.27    +0.201 C 
DOCKED: BRANCH   7   8
DOCKED: ATOM      8  O   UNL d   1      -3.761  -2.562 -17.312 -0.12 -0.76    -0.364 OA
DOCKED: BRANCH   8   9
DOCKED: ATOM      9  P   UNL d   1      -4.255  -3.446 -16.003 -0.76 -0.02    -0.015 P 
DOCKED: ATOM     10  O   UNL d   1      -4.191  -2.474 -14.819 -0.25 -0.62    -0.577 OA
DOCKED: ATOM     11  O   UNL d   1      -3.269  -4.602 -15.848 -0.66 -0.46    -0.577 OA
DOCKED: ATOM     12  O   UNL d   1      -5.683  -3.911 -16.287 -0.71 -0.51    -0.638 OA
DOCKED: ENDBRANCH   8   9
DOCKED: ENDBRANCH   7   8
DOCKED: ENDBRANCH   1   7
DOCKED: BRANCH   1  13
DOCKED: ATOM     13  C   UNL d   1      -6.161  -1.105 -19.968 -0.14 +0.09    +0.073 C 
DOCKED: ATOM     14  O   UNL d   1      -6.922  -0.079 -20.059 -0.52 -1.02    -0.547 OA
DOCKED: ATOM     15  O   UNL d   1      -6.305  -2.179 -20.657 +0.00 -0.35    -0.547 OA
DOCKED: ENDBRANCH   1  13
DOCKED: TORSDOF 6
DOCKED: TER
DOCKED: ENDMDL
________________________________________________________________________________


	BEGINNING GENETIC ALGORITHM DOCKING 24 of 100
Run: 24 Seed: 884231477 1245529478 [ Run 24 of 100 GA/GALS ]
Beginning LAMARCKIAN GENETIC ALGORITHM (LGA), with a maximum of 25000000 energy evaluations.

Final-Value: -8.630


	FINAL GENETIC ALGORITHM DOCKED STATE
	_______________________________________________


Detailed state:  trans -2.215 1.888 -16.771 quatxyzw 0.492659 -0.537816 -0.148487 0.667826 center 0.015 0.083 0.031 ntor 6 -4.8206 126.0132 -65.8699 59.9342 13.0190 -175.1136
State:	 -2.215   1.888 -16.771   0.662 -0.723 -0.199 96.201     -4.82  126.01  -65.87   59.93   13.02 -175.11

DOCKED: MODEL       24
DOCKED: USER    Run = 24
DOCKED: USER    DPF = D:/Protein_go_brrr/autodock/final/mut_D99N/2_3_BPG/dock.dpf
DOCKED: USER  
DOCKED: USER    Estimated Free Energy of Binding    =   -9.20 kcal/mol  [=(1)+(2)+(3)-(4)]
DOCKED: USER    Estimated Inhibition Constant, Ki   =  181.22 nM (nanomolar)  [Temperature = 298.15 K]
DOCKED: USER    
DOCKED: USER    (1) Final Intermolecular Energy     =  -10.99 kcal/mol
DOCKED: USER        vdW + Hbond + desolv Energy     =   -3.92 kcal/mol
DOCKED: USER        Electrostatic Energy            =   -7.07 kcal/mol
DOCKED: USER    (2) Final Total Internal Energy     =   +2.36 kcal/mol
DOCKED: USER    (3) Torsional Free Energy           =   +1.79 kcal/mol
DOCKED: USER    (4) Unbound System's Energy  [=(2)] =   +2.36 kcal/mol
DOCKED: USER    
DOCKED: USER    
DOCKED: USER    NEWDPF move 2_3_BPG_opt.pdbqt
DOCKED: USER    NEWDPF about 0.015000 0.083000 0.031000
DOCKED: USER    NEWDPF tran0 -2.214653 1.887760 -16.770736
DOCKED: USER    NEWDPF quaternion0 0.492659 -0.537816 -0.148487 0.667826
DOCKED: USER    NEWDPF axisangle0 0.661894 -0.722563 -0.199495 96.200986
DOCKED: USER    NEWDPF quat0 0.661894 -0.722563 -0.199495 96.200986
DOCKED: USER    NEWDPF dihe0 -4.82 126.01 -65.87 59.93 13.02 -175.11 
DOCKED: USER  keepresnum = 1 
DOCKED: USER  
DOCKED: REMARK  6 active torsions:
DOCKED: REMARK  status: ('A' for Active; 'I' for Inactive)
DOCKED: REMARK    1  A    between atoms: P_1  and  O_3 
DOCKED: REMARK    2  A    between atoms: P_2  and  O_4 
DOCKED: REMARK    3  A    between atoms: O_3  and  C_13 
DOCKED: REMARK    4  A    between atoms: O_4  and  C_14 
DOCKED: REMARK    5  A    between atoms: C_13  and  C_14 
DOCKED: REMARK    6  A    between atoms: C_13  and  C_15 
DOCKED: USER                              x       y       z     vdW  Elec       q    Type
DOCKED: USER                           _______ _______ _______ _____ _____    ______ ____
DOCKED: ROOT
DOCKED: ATOM      1  C   UNL d   1      -2.155   2.011 -16.115 -0.22 +0.23    +0.193 C 
DOCKED: ENDROOT
DOCKED: BRANCH   1   2
DOCKED: ATOM      2  O   UNL d   1      -3.501   2.209 -15.563 -0.20 -0.39    -0.356 OA
DOCKED: BRANCH   2   3
DOCKED: ATOM      3  P   UNL d   1      -4.405   3.552 -15.850 -0.38 -0.01    -0.014 P 
DOCKED: ATOM      4  O   UNL d   1      -3.538   4.714 -15.343 -0.05 -0.28    -0.577 OA
DOCKED: ATOM      5  O   UNL d   1      -5.691   3.414 -15.037 -0.15 -0.43    -0.577 OA
DOCKED: ATOM      6  O   UNL d   1      -4.644   3.647 -17.353 -0.22 -1.08    -0.638 OA
DOCKED: ENDBRANCH   2   3
DOCKED: ENDBRANCH   1   2
DOCKED: BRANCH   1   7
DOCKED: ATOM      7  C   UNL d   1      -2.287   1.438 -17.573 -0.04 +0.35    +0.201 C 
DOCKED: BRANCH   7   8
DOCKED: ATOM      8  O   UNL d   1      -3.583   0.905 -17.927 +0.06 -0.77    -0.364 OA
DOCKED: BRANCH   8   9
DOCKED: ATOM      9  P   UNL d   1      -3.745  -0.069 -19.254 -0.09 -0.03    -0.015 P 
DOCKED: ATOM     10  O   UNL d   1      -4.195  -1.426 -18.700 -0.66 -1.15    -0.577 OA
DOCKED: ATOM     11  O   UNL d   1      -2.371  -0.151 -19.918 -0.14 -1.01    -0.577 OA
DOCKED: ATOM     12  O   UNL d   1      -4.807   0.565 -20.152 -0.07 -1.04    -0.638 OA
DOCKED: ENDBRANCH   8   9
DOCKED: ENDBRANCH   7   8
DOCKED: ENDBRANCH   1   7
DOCKED: BRANCH   1  13
DOCKED: ATOM     13  C   UNL d   1      -1.359   0.976 -15.236 -0.35 +0.10    +0.073 C 
DOCKED: ATOM     14  O   UNL d   1      -1.926  -0.131 -14.930 -0.68 -0.96    -0.547 OA
DOCKED: ATOM     15  O   UNL d   1      -0.150   1.281 -14.928 -0.71 -0.58    -0.547 OA
DOCKED: ENDBRANCH   1  13
DOCKED: TORSDOF 6
DOCKED: TER
DOCKED: ENDMDL
________________________________________________________________________________


	BEGINNING GENETIC ALGORITHM DOCKING 25 of 100
Run: 25 Seed: 242347957 788169674 [ Run 25 of 100 GA/GALS ]
Beginning LAMARCKIAN GENETIC ALGORITHM (LGA), with a maximum of 25000000 energy evaluations.

Final-Value: -8.976


	FINAL GENETIC ALGORITHM DOCKED STATE
	_______________________________________________


Detailed state:  trans -3.030 2.014 -16.415 quatxyzw -0.152855 -0.593872 0.515080 -0.598869 center 0.015 0.083 0.031 ntor 6 -154.2362 33.0671 -124.3906 31.4493 44.9401 -37.8649
State:	 -3.030   2.014 -16.415  -0.191 -0.742  0.643 -106.422   -154.24   33.07 -124.39   31.45   44.94  -37.86

DOCKED: MODEL       25
DOCKED: USER    Run = 25
DOCKED: USER    DPF = D:/Protein_go_brrr/autodock/final/mut_D99N/2_3_BPG/dock.dpf
DOCKED: USER  
DOCKED: USER    Estimated Free Energy of Binding    =   -9.44 kcal/mol  [=(1)+(2)+(3)-(4)]
DOCKED: USER    Estimated Inhibition Constant, Ki   =  120.01 nM (nanomolar)  [Temperature = 298.15 K]
DOCKED: USER    
DOCKED: USER    (1) Final Intermolecular Energy     =  -11.23 kcal/mol
DOCKED: USER        vdW + Hbond + desolv Energy     =   -3.91 kcal/mol
DOCKED: USER        Electrostatic Energy            =   -7.32 kcal/mol
DOCKED: USER    (2) Final Total Internal Energy     =   +2.26 kcal/mol
DOCKED: USER    (3) Torsional Free Energy           =   +1.79 kcal/mol
DOCKED: USER    (4) Unbound System's Energy  [=(2)] =   +2.26 kcal/mol
DOCKED: USER    
DOCKED: USER    
DOCKED: USER    NEWDPF move 2_3_BPG_opt.pdbqt
DOCKED: USER    NEWDPF about 0.015000 0.083000 0.031000
DOCKED: USER    NEWDPF tran0 -3.029983 2.013574 -16.414696
DOCKED: USER    NEWDPF quaternion0 -0.152855 -0.593872 0.515080 -0.598869
DOCKED: USER    NEWDPF axisangle0 -0.190867 -0.741554 0.643169 -106.422145
DOCKED: USER    NEWDPF quat0 -0.190867 -0.741554 0.643169 -106.422145
DOCKED: USER    NEWDPF dihe0 -154.24 33.07 -124.39 31.45 44.94 -37.86 
DOCKED: USER  keepresnum = 1 
DOCKED: USER  
DOCKED: REMARK  6 active torsions:
DOCKED: REMARK  status: ('A' for Active; 'I' for Inactive)
DOCKED: REMARK    1  A    between atoms: P_1  and  O_3 
DOCKED: REMARK    2  A    between atoms: P_2  and  O_4 
DOCKED: REMARK    3  A    between atoms: O_3  and  C_13 
DOCKED: REMARK    4  A    between atoms: O_4  and  C_14 
DOCKED: REMARK    5  A    between atoms: C_13  and  C_14 
DOCKED: REMARK    6  A    between atoms: C_13  and  C_15 
DOCKED: USER                              x       y       z     vdW  Elec       q    Type
DOCKED: USER                           _______ _______ _______ _____ _____    ______ ____
DOCKED: ROOT
DOCKED: ATOM      1  C   UNL d   1      -2.837   1.374 -16.468 -0.21 +0.31    +0.193 C 
DOCKED: ENDROOT
DOCKED: BRANCH   1   2
DOCKED: ATOM      2  O   UNL d   1      -2.378   1.148 -17.843 -0.01 -0.71    -0.356 OA
DOCKED: BRANCH   2   3
DOCKED: ATOM      3  P   UNL d   1      -3.296   0.413 -18.993 -0.01 -0.03    -0.014 P 
DOCKED: ATOM      4  O   UNL d   1      -2.276  -0.256 -19.927 -0.14 -1.04    -0.577 OA
DOCKED: ATOM      5  O   UNL d   1      -4.083   1.507 -19.711 -0.01 -0.95    -0.577 OA
DOCKED: ATOM      6  O   UNL d   1      -4.181  -0.617 -18.300 -0.45 -1.47    -0.638 OA
DOCKED: ENDBRANCH   2   3
DOCKED: ENDBRANCH   1   2
DOCKED: BRANCH   1   7
DOCKED: ATOM      7  C   UNL d   1      -3.016   2.920 -16.243 -0.20 +0.20    +0.201 C 
DOCKED: BRANCH   7   8
DOCKED: ATOM      8  O   UNL d   1      -4.338   3.351 -15.850 -0.18 -0.36    -0.364 OA
DOCKED: BRANCH   8   9
DOCKED: ATOM      9  P   UNL d   1      -5.060   4.624 -16.622 -0.37 -0.01    -0.015 P 
DOCKED: ATOM     10  O   UNL d   1      -5.103   4.222 -18.101 -0.42 -1.00    -0.577 OA
DOCKED: ATOM     11  O   UNL d   1      -4.173   5.847 -16.388 +0.02 -0.23    -0.577 OA
DOCKED: ATOM     12  O   UNL d   1      -6.459   4.778 -16.028 -0.44 -0.55    -0.638 OA
DOCKED: ENDBRANCH   8   9
DOCKED: ENDBRANCH   7   8
DOCKED: ENDBRANCH   1   7
DOCKED: BRANCH   1  13
DOCKED: ATOM     13  C   UNL d   1      -1.766   0.837 -15.447 -0.28 +0.12    +0.073 C 
DOCKED: ATOM     14  O   UNL d   1      -1.964  -0.303 -14.896 -0.66 -0.98    -0.547 OA
DOCKED: ATOM     15  O   UNL d   1      -0.715   1.554 -15.274 -0.54 -0.62    -0.547 OA
DOCKED: ENDBRANCH   1  13
DOCKED: TORSDOF 6
DOCKED: TER
DOCKED: ENDMDL
________________________________________________________________________________


	BEGINNING GENETIC ALGORITHM DOCKING 26 of 100
Run: 26 Seed: 2090489292 785208777 [ Run 26 of 100 GA/GALS ]
Beginning LAMARCKIAN GENETIC ALGORITHM (LGA), with a maximum of 25000000 energy evaluations.

Final-Value: -8.761


	FINAL GENETIC ALGORITHM DOCKED STATE
	_______________________________________________


Detailed state:  trans -2.283 2.070 -18.855 quatxyzw 0.934179 0.220847 0.194545 -0.201712 center 0.015 0.083 0.031 ntor 6 158.3159 -34.8038 179.4433 12.0243 54.3991 -117.9576
State:	 -2.283   2.070 -18.855   0.954  0.225  0.199 -156.726    158.32  -34.80  179.44   12.02   54.40 -117.96

DOCKED: MODEL       26
DOCKED: USER    Run = 26
DOCKED: USER    DPF = D:/Protein_go_brrr/autodock/final/mut_D99N/2_3_BPG/dock.dpf
DOCKED: USER  
DOCKED: USER    Estimated Free Energy of Binding    =   -9.36 kcal/mol  [=(1)+(2)+(3)-(4)]
DOCKED: USER    Estimated Inhibition Constant, Ki   =  136.64 nM (nanomolar)  [Temperature = 298.15 K]
DOCKED: USER    
DOCKED: USER    (1) Final Intermolecular Energy     =  -11.15 kcal/mol
DOCKED: USER        vdW + Hbond + desolv Energy     =   -3.22 kcal/mol
DOCKED: USER        Electrostatic Energy            =   -7.93 kcal/mol
DOCKED: USER    (2) Final Total Internal Energy     =   +2.39 kcal/mol
DOCKED: USER    (3) Torsional Free Energy           =   +1.79 kcal/mol
DOCKED: USER    (4) Unbound System's Energy  [=(2)] =   +2.39 kcal/mol
DOCKED: USER    
DOCKED: USER    
DOCKED: USER    NEWDPF move 2_3_BPG_opt.pdbqt
DOCKED: USER    NEWDPF about 0.015000 0.083000 0.031000
DOCKED: USER    NEWDPF tran0 -2.283339 2.070254 -18.854616
DOCKED: USER    NEWDPF quaternion0 0.934179 0.220847 0.194545 -0.201712
DOCKED: USER    NEWDPF axisangle0 0.953785 0.225481 0.198628 -156.725785
DOCKED: USER    NEWDPF quat0 0.953785 0.225481 0.198628 -156.725785
DOCKED: USER    NEWDPF dihe0 158.32 -34.80 179.44 12.02 54.40 -117.96 
DOCKED: USER  keepresnum = 1 
DOCKED: USER  
DOCKED: REMARK  6 active torsions:
DOCKED: REMARK  status: ('A' for Active; 'I' for Inactive)
DOCKED: REMARK    1  A    between atoms: P_1  and  O_3 
DOCKED: REMARK    2  A    between atoms: P_2  and  O_4 
DOCKED: REMARK    3  A    between atoms: O_3  and  C_13 
DOCKED: REMARK    4  A    between atoms: O_4  and  C_14 
DOCKED: REMARK    5  A    between atoms: C_13  and  C_14 
DOCKED: REMARK    6  A    between atoms: C_13  and  C_15 
DOCKED: USER                              x       y       z     vdW  Elec       q    Type
DOCKED: USER                           _______ _______ _______ _____ _____    ______ ____
DOCKED: ROOT
DOCKED: ATOM      1  C   UNL d   1      -2.830   2.012 -19.238 -0.09 +0.24    +0.193 C 
DOCKED: ENDROOT
DOCKED: BRANCH   1   2
DOCKED: ATOM      2  O   UNL d   1      -3.722   1.028 -18.615 -0.09 -0.70    -0.356 OA
DOCKED: BRANCH   2   3
DOCKED: ATOM      3  P   UNL d   1      -4.203  -0.356 -19.362 -0.17 -0.02    -0.014 P 
DOCKED: ATOM      4  O   UNL d   1      -4.197  -1.415 -18.249 -0.61 -1.28    -0.577 OA
DOCKED: ATOM      5  O   UNL d   1      -3.170  -0.670 -20.442 -0.10 -0.74    -0.577 OA
DOCKED: ATOM      6  O   UNL d   1      -5.608  -0.131 -19.912 -0.26 -1.13    -0.638 OA
DOCKED: ENDBRANCH   2   3
DOCKED: ENDBRANCH   1   2
DOCKED: BRANCH   1   7
DOCKED: ATOM      7  C   UNL d   1      -1.690   2.377 -18.217 -0.09 +0.21    +0.201 C 
DOCKED: BRANCH   7   8
DOCKED: ATOM      8  O   UNL d   1      -1.134   1.272 -17.471 -0.10 -0.65    -0.364 OA
DOCKED: BRANCH   8   9
DOCKED: ATOM      9  P   UNL d   1      -1.164   1.289 -15.817 -0.38 -0.02    -0.015 P 
DOCKED: ATOM     10  O   UNL d   1      -1.884   2.591 -15.445 +0.11 -0.54    -0.577 OA
DOCKED: ATOM     11  O   UNL d   1       0.289   1.285 -15.344 -0.68 -0.56    -0.577 OA
DOCKED: ATOM     12  O   UNL d   1      -1.943   0.054 -15.368 -0.26 -1.42    -0.638 OA
DOCKED: ENDBRANCH   8   9
DOCKED: ENDBRANCH   7   8
DOCKED: ENDBRANCH   1   7
DOCKED: BRANCH   1  13
DOCKED: ATOM     13  C   UNL d   1      -3.631   3.320 -19.590 -0.06 +0.08    +0.073 C 
DOCKED: ATOM     14  O   UNL d   1      -3.276   3.997 -20.618 +0.01 -0.32    -0.547 OA
DOCKED: ATOM     15  O   UNL d   1      -4.644   3.599 -18.852 -0.43 -1.07    -0.547 OA
DOCKED: ENDBRANCH   1  13
DOCKED: TORSDOF 6
DOCKED: TER
DOCKED: ENDMDL
________________________________________________________________________________


	BEGINNING GENETIC ALGORITHM DOCKING 27 of 100
Run: 27 Seed: 719561293 253779323 [ Run 27 of 100 GA/GALS ]
Beginning LAMARCKIAN GENETIC ALGORITHM (LGA), with a maximum of 25000000 energy evaluations.

Final-Value: -9.299


	FINAL GENETIC ALGORITHM DOCKED STATE
	_______________________________________________


Detailed state:  trans -4.841 -1.959 -18.556 quatxyzw -0.084851 -0.311975 -0.768746 -0.551817 center 0.015 0.083 0.031 ntor 6 36.9276 -144.4144 -156.1939 3.2421 -69.3863 -98.9089
State:	 -4.841  -1.959 -18.556  -0.102 -0.374 -0.922 -113.016     36.93 -144.41 -156.19    3.24  -69.39  -98.91

DOCKED: MODEL       27
DOCKED: USER    Run = 27
DOCKED: USER    DPF = D:/Protein_go_brrr/autodock/final/mut_D99N/2_3_BPG/dock.dpf
DOCKED: USER  
DOCKED: USER    Estimated Free Energy of Binding    =   -9.65 kcal/mol  [=(1)+(2)+(3)-(4)]
DOCKED: USER    Estimated Inhibition Constant, Ki   =   84.15 nM (nanomolar)  [Temperature = 298.15 K]
DOCKED: USER    
DOCKED: USER    (1) Final Intermolecular Energy     =  -11.44 kcal/mol
DOCKED: USER        vdW + Hbond + desolv Energy     =   -4.53 kcal/mol
DOCKED: USER        Electrostatic Energy            =   -6.91 kcal/mol
DOCKED: USER    (2) Final Total Internal Energy     =   +2.14 kcal/mol
DOCKED: USER    (3) Torsional Free Energy           =   +1.79 kcal/mol
DOCKED: USER    (4) Unbound System's Energy  [=(2)] =   +2.14 kcal/mol
DOCKED: USER    
DOCKED: USER    
DOCKED: USER    NEWDPF move 2_3_BPG_opt.pdbqt
DOCKED: USER    NEWDPF about 0.015000 0.083000 0.031000
DOCKED: USER    NEWDPF tran0 -4.840997 -1.959396 -18.556030
DOCKED: USER    NEWDPF quaternion0 -0.084851 -0.311975 -0.768746 -0.551817
DOCKED: USER    NEWDPF axisangle0 -0.101745 -0.374086 -0.921796 -113.016476
DOCKED: USER    NEWDPF quat0 -0.101745 -0.374086 -0.921796 -113.016476
DOCKED: USER    NEWDPF dihe0 36.93 -144.41 -156.19 3.24 -69.39 -98.91 
DOCKED: USER  keepresnum = 1 
DOCKED: USER  
DOCKED: REMARK  6 active torsions:
DOCKED: REMARK  status: ('A' for Active; 'I' for Inactive)
DOCKED: REMARK    1  A    between atoms: P_1  and  O_3 
DOCKED: REMARK    2  A    between atoms: P_2  and  O_4 
DOCKED: REMARK    3  A    between atoms: O_3  and  C_13 
DOCKED: REMARK    4  A    between atoms: O_4  and  C_14 
DOCKED: REMARK    5  A    between atoms: C_13  and  C_14 
DOCKED: REMARK    6  A    between atoms: C_13  and  C_15 
DOCKED: USER                              x       y       z     vdW  Elec       q    Type
DOCKED: USER                           _______ _______ _______ _____ _____    ______ ____
DOCKED: ROOT
DOCKED: ATOM      1  C   UNL d   1      -4.921  -1.379 -18.881 -0.11 +0.30    +0.193 C 
DOCKED: ENDROOT
DOCKED: BRANCH   1   2
DOCKED: ATOM      2  O   UNL d   1      -3.669  -1.069 -19.580 -0.54 -0.64    -0.356 OA
DOCKED: BRANCH   2   3
DOCKED: ATOM      3  P   UNL d   1      -2.903   0.381 -19.459 -0.09 -0.03    -0.014 P 
DOCKED: ATOM      4  O   UNL d   1      -3.225   0.867 -18.037 -0.07 -1.22    -0.577 OA
DOCKED: ATOM      5  O   UNL d   1      -3.506   1.302 -20.518 -0.01 -0.63    -0.577 OA
DOCKED: ATOM      6  O   UNL d   1      -1.408   0.140 -19.643 -0.20 -1.29    -0.638 OA
DOCKED: ENDBRANCH   2   3
DOCKED: ENDBRANCH   1   2
DOCKED: BRANCH   1   7
DOCKED: ATOM      7  C   UNL d   1      -4.855  -2.861 -18.359 -0.28 +0.22    +0.201 C 
DOCKED: BRANCH   7   8
DOCKED: ATOM      8  O   UNL d   1      -3.790  -3.154 -17.427 -0.20 -0.58    -0.364 OA
DOCKED: BRANCH   8   9
DOCKED: ATOM      9  P   UNL d   1      -4.145  -3.550 -15.860 -0.79 -0.02    -0.015 P 
DOCKED: ATOM     10  O   UNL d   1      -5.557  -4.147 -15.910 -0.74 -0.49    -0.577 OA
DOCKED: ATOM     11  O   UNL d   1      -4.100  -2.255 -15.051 -0.24 -0.68    -0.577 OA
DOCKED: ATOM     12  O   UNL d   1      -3.105  -4.574 -15.408 -0.68 -0.51    -0.638 OA
DOCKED: ENDBRANCH   8   9
DOCKED: ENDBRANCH   7   8
DOCKED: ENDBRANCH   1   7
DOCKED: BRANCH   1  13
DOCKED: ATOM     13  C   UNL d   1      -6.139  -1.247 -19.871 -0.14 +0.08    +0.073 C 
DOCKED: ATOM     14  O   UNL d   1      -6.508  -2.284 -20.527 +0.01 -0.34    -0.547 OA
DOCKED: ATOM     15  O   UNL d   1      -6.735  -0.111 -19.913 -0.45 -1.09    -0.547 OA
DOCKED: ENDBRANCH   1  13
DOCKED: TORSDOF 6
DOCKED: TER
DOCKED: ENDMDL
________________________________________________________________________________


	BEGINNING GENETIC ALGORITHM DOCKING 28 of 100
Run: 28 Seed: 112085217 420376124 [ Run 28 of 100 GA/GALS ]
Beginning LAMARCKIAN GENETIC ALGORITHM (LGA), with a maximum of 25000000 energy evaluations.

Final-Value: -9.504


	FINAL GENETIC ALGORITHM DOCKED STATE
	_______________________________________________


Detailed state:  trans -4.204 -2.479 -17.024 quatxyzw -0.014068 0.832488 -0.045527 -0.551990 center 0.015 0.083 0.031 ntor 6 -155.1416 148.0622 -12.5394 10.1586 64.3220 -36.1860
State:	 -4.204  -2.479 -17.024  -0.017  0.998 -0.055 -112.993   -155.14  148.06  -12.54   10.16   64.32  -36.19

DOCKED: MODEL       28
DOCKED: USER    Run = 28
DOCKED: USER    DPF = D:/Protein_go_brrr/autodock/final/mut_D99N/2_3_BPG/dock.dpf
DOCKED: USER  
DOCKED: USER    Estimated Free Energy of Binding    =  -10.07 kcal/mol  [=(1)+(2)+(3)-(4)]
DOCKED: USER    Estimated Inhibition Constant, Ki   =   41.67 nM (nanomolar)  [Temperature = 298.15 K]
DOCKED: USER    
DOCKED: USER    (1) Final Intermolecular Energy     =  -11.86 kcal/mol
DOCKED: USER        vdW + Hbond + desolv Energy     =   -5.20 kcal/mol
DOCKED: USER        Electrostatic Energy            =   -6.66 kcal/mol
DOCKED: USER    (2) Final Total Internal Energy     =   +2.35 kcal/mol
DOCKED: USER    (3) Torsional Free Energy           =   +1.79 kcal/mol
DOCKED: USER    (4) Unbound System's Energy  [=(2)] =   +2.35 kcal/mol
DOCKED: USER    
DOCKED: USER    
DOCKED: USER    NEWDPF move 2_3_BPG_opt.pdbqt
DOCKED: USER    NEWDPF about 0.015000 0.083000 0.031000
DOCKED: USER    NEWDPF tran0 -4.204363 -2.478511 -17.024134
DOCKED: USER    NEWDPF quaternion0 -0.014068 0.832488 -0.045527 -0.551990
DOCKED: USER    NEWDPF axisangle0 -0.016871 0.998366 -0.054599 -112.992770
DOCKED: USER    NEWDPF quat0 -0.016871 0.998366 -0.054599 -112.992770
DOCKED: USER    NEWDPF dihe0 -155.14 148.06 -12.54 10.16 64.32 -36.19 
DOCKED: USER  keepresnum = 1 
DOCKED: USER  
DOCKED: REMARK  6 active torsions:
DOCKED: REMARK  status: ('A' for Active; 'I' for Inactive)
DOCKED: REMARK    1  A    between atoms: P_1  and  O_3 
DOCKED: REMARK    2  A    between atoms: P_2  and  O_4 
DOCKED: REMARK    3  A    between atoms: O_3  and  C_13 
DOCKED: REMARK    4  A    between atoms: O_4  and  C_14 
DOCKED: REMARK    5  A    between atoms: C_13  and  C_14 
DOCKED: REMARK    6  A    between atoms: C_13  and  C_15 
DOCKED: USER                              x       y       z     vdW  Elec       q    Type
DOCKED: USER                           _______ _______ _______ _____ _____    ______ ____
DOCKED: ROOT
DOCKED: ATOM      1  C   UNL d   1      -3.898  -2.752 -16.494 -0.13 +0.31    +0.193 C 
DOCKED: ENDROOT
DOCKED: BRANCH   1   2
DOCKED: ATOM      2  O   UNL d   1      -4.059  -1.841 -15.354 -0.34 -0.48    -0.356 OA
DOCKED: BRANCH   2   3
DOCKED: ATOM      3  P   UNL d   1      -2.792  -1.204 -14.522 -0.72 -0.02    -0.014 P 
DOCKED: ATOM      4  O   UNL d   1      -1.743  -2.327 -14.502 -0.23 -0.75    -0.577 OA
DOCKED: ATOM      5  O   UNL d   1      -3.292  -0.877 -13.117 +0.03 -0.30    -0.577 OA
DOCKED: ATOM      6  O   UNL d   1      -2.291   0.016 -15.288 -0.37 -1.28    -0.638 OA
DOCKED: ENDBRANCH   2   3
DOCKED: ENDBRANCH   1   2
DOCKED: BRANCH   1   7
DOCKED: ATOM      7  C   UNL d   1      -4.846  -2.277 -17.657 -0.21 +0.29    +0.201 C 
DOCKED: BRANCH   7   8
DOCKED: ATOM      8  O   UNL d   1      -4.202  -1.998 -18.920 -0.65 -0.60    -0.364 OA
DOCKED: BRANCH   8   9
DOCKED: ATOM      9  P   UNL d   1      -4.143  -0.449 -19.496 -0.22 -0.03    -0.015 P 
DOCKED: ATOM     10  O   UNL d   1      -3.178  -0.503 -20.687 -0.06 -0.66    -0.577 OA
DOCKED: ATOM     11  O   UNL d   1      -3.605   0.427 -18.366 -0.18 -1.30    -0.577 OA
DOCKED: ATOM     12  O   UNL d   1      -5.561  -0.071 -19.923 -0.26 -1.14    -0.638 OA
DOCKED: ENDBRANCH   8   9
DOCKED: ENDBRANCH   7   8
DOCKED: ENDBRANCH   1   7
DOCKED: BRANCH   1  13
DOCKED: ATOM     13  C   UNL d   1      -4.305  -4.214 -16.077 -0.54 +0.06    +0.073 C 
DOCKED: ATOM     14  O   UNL d   1      -3.375  -5.056 -15.814 -0.73 -0.34    -0.547 OA
DOCKED: ATOM     15  O   UNL d   1      -5.560  -4.460 -15.964 -0.58 -0.41    -0.547 OA
DOCKED: ENDBRANCH   1  13
DOCKED: TORSDOF 6
DOCKED: TER
DOCKED: ENDMDL
________________________________________________________________________________


	BEGINNING GENETIC ALGORITHM DOCKING 29 of 100
Run: 29 Seed: 945083341 517328025 [ Run 29 of 100 GA/GALS ]
Beginning LAMARCKIAN GENETIC ALGORITHM (LGA), with a maximum of 25000000 energy evaluations.

Final-Value: -8.268


	FINAL GENETIC ALGORITHM DOCKED STATE
	_______________________________________________


Detailed state:  trans -1.934 1.723 -18.553 quatxyzw 0.107728 -0.688620 -0.675512 0.240585 center 0.015 0.083 0.031 ntor 6 152.6799 52.8008 -4.4370 77.8981 57.4170 179.7110
State:	 -1.934   1.723 -18.553   0.111 -0.709 -0.696 152.158    152.68   52.80   -4.44   77.90   57.42  179.71

DOCKED: MODEL       29
DOCKED: USER    Run = 29
DOCKED: USER    DPF = D:/Protein_go_brrr/autodock/final/mut_D99N/2_3_BPG/dock.dpf
DOCKED: USER  
DOCKED: USER    Estimated Free Energy of Binding    =   -9.09 kcal/mol  [=(1)+(2)+(3)-(4)]
DOCKED: USER    Estimated Inhibition Constant, Ki   =  217.10 nM (nanomolar)  [Temperature = 298.15 K]
DOCKED: USER    
DOCKED: USER    (1) Final Intermolecular Energy     =  -10.88 kcal/mol
DOCKED: USER        vdW + Hbond + desolv Energy     =   -3.31 kcal/mol
DOCKED: USER        Electrostatic Energy            =   -7.57 kcal/mol
DOCKED: USER    (2) Final Total Internal Energy     =   +2.61 kcal/mol
DOCKED: USER    (3) Torsional Free Energy           =   +1.79 kcal/mol
DOCKED: USER    (4) Unbound System's Energy  [=(2)] =   +2.61 kcal/mol
DOCKED: USER    
DOCKED: USER    
DOCKED: USER    NEWDPF move 2_3_BPG_opt.pdbqt
DOCKED: USER    NEWDPF about 0.015000 0.083000 0.031000
DOCKED: USER    NEWDPF tran0 -1.934058 1.722964 -18.553032
DOCKED: USER    NEWDPF quaternion0 0.107728 -0.688620 -0.675512 0.240585
DOCKED: USER    NEWDPF axisangle0 0.110988 -0.709458 -0.695953 152.157846
DOCKED: USER    NEWDPF quat0 0.110988 -0.709458 -0.695953 152.157846
DOCKED: USER    NEWDPF dihe0 152.68 52.80 -4.44 77.90 57.42 179.71 
DOCKED: USER  keepresnum = 1 
DOCKED: USER  
DOCKED: REMARK  6 active torsions:
DOCKED: REMARK  status: ('A' for Active; 'I' for Inactive)
DOCKED: REMARK    1  A    between atoms: P_1  and  O_3 
DOCKED: REMARK    2  A    between atoms: P_2  and  O_4 
DOCKED: REMARK    3  A    between atoms: O_3  and  C_13 
DOCKED: REMARK    4  A    between atoms: O_4  and  C_14 
DOCKED: REMARK    5  A    between atoms: C_13  and  C_14 
DOCKED: REMARK    6  A    between atoms: C_13  and  C_15 
DOCKED: USER                              x       y       z     vdW  Elec       q    Type
DOCKED: USER                           _______ _______ _______ _____ _____    ______ ____
DOCKED: ROOT
DOCKED: ATOM      1  C   UNL d   1      -1.265   1.691 -18.545 -0.08 +0.25    +0.193 C 
DOCKED: ENDROOT
DOCKED: BRANCH   1   2
DOCKED: ATOM      2  O   UNL d   1      -0.858   0.925 -17.362 +0.22 -0.76    -0.356 OA
DOCKED: BRANCH   2   3
DOCKED: ATOM      3  P   UNL d   1      -1.336   1.302 -15.834 -0.38 -0.02    -0.014 P 
DOCKED: ATOM      4  O   UNL d   1      -0.038   1.288 -15.012 -0.70 -0.60    -0.577 OA
DOCKED: ATOM      5  O   UNL d   1      -2.301   0.208 -15.379 -0.41 -1.12    -0.577 OA
DOCKED: ATOM      6  O   UNL d   1      -1.964   2.691 -15.866 -0.00 -0.58    -0.638 OA
DOCKED: ENDBRANCH   2   3
DOCKED: ENDBRANCH   1   2
DOCKED: BRANCH   1   7
DOCKED: ATOM      7  C   UNL d   1      -2.817   1.531 -18.741 -0.12 +0.31    +0.201 C 
DOCKED: BRANCH   7   8
DOCKED: ATOM      8  O   UNL d   1      -3.419   0.384 -18.100 -0.19 -0.89    -0.364 OA
DOCKED: BRANCH   8   9
DOCKED: ATOM      9  P   UNL d   1      -4.197  -0.760 -19.007 -0.07 -0.03    -0.015 P 
DOCKED: ATOM     10  O   UNL d   1      -4.643  -1.829 -18.003 -0.47 -0.98    -0.577 OA
DOCKED: ATOM     11  O   UNL d   1      -3.177  -1.305 -20.007 -0.29 -0.93    -0.577 OA
DOCKED: ATOM     12  O   UNL d   1      -5.384  -0.072 -19.679 -0.09 -1.21    -0.638 OA
DOCKED: ENDBRANCH   8   9
DOCKED: ENDBRANCH   7   8
DOCKED: ENDBRANCH   1   7
DOCKED: BRANCH   1  13
DOCKED: ATOM     13  C   UNL d   1      -0.535   1.135 -19.825 -0.11 +0.07    +0.073 C 
DOCKED: ATOM     14  O   UNL d   1      -0.343   1.928 -20.812 +0.01 -0.29    -0.547 OA
DOCKED: ATOM     15  O   UNL d   1      -0.116  -0.078 -19.776 -0.63 -0.79    -0.547 OA
DOCKED: ENDBRANCH   1  13
DOCKED: TORSDOF 6
DOCKED: TER
DOCKED: ENDMDL
________________________________________________________________________________


	BEGINNING GENETIC ALGORITHM DOCKING 30 of 100
Run: 30 Seed: 657581113 1371032442 [ Run 30 of 100 GA/GALS ]
Beginning LAMARCKIAN GENETIC ALGORITHM (LGA), with a maximum of 25000000 energy evaluations.

Final-Value: -8.862


	FINAL GENETIC ALGORITHM DOCKED STATE
	_______________________________________________


Detailed state:  trans -2.429 2.250 -17.861 quatxyzw -0.910502 -0.083461 -0.402847 0.041651 center 0.015 0.083 0.031 ntor 6 132.0713 71.8375 22.4278 47.8489 5.0781 -136.8531
State:	 -2.429   2.250 -17.861  -0.911 -0.084 -0.403 175.226    132.07   71.84   22.43   47.85    5.08 -136.85

DOCKED: MODEL       30
DOCKED: USER    Run = 30
DOCKED: USER    DPF = D:/Protein_go_brrr/autodock/final/mut_D99N/2_3_BPG/dock.dpf
DOCKED: USER  
DOCKED: USER    Estimated Free Energy of Binding    =   -9.35 kcal/mol  [=(1)+(2)+(3)-(4)]
DOCKED: USER    Estimated Inhibition Constant, Ki   =  139.11 nM (nanomolar)  [Temperature = 298.15 K]
DOCKED: USER    
DOCKED: USER    (1) Final Intermolecular Energy     =  -11.14 kcal/mol
DOCKED: USER        vdW + Hbond + desolv Energy     =   -3.52 kcal/mol
DOCKED: USER        Electrostatic Energy            =   -7.62 kcal/mol
DOCKED: USER    (2) Final Total Internal Energy     =   +2.28 kcal/mol
DOCKED: USER    (3) Torsional Free Energy           =   +1.79 kcal/mol
DOCKED: USER    (4) Unbound System's Energy  [=(2)] =   +2.28 kcal/mol
DOCKED: USER    
DOCKED: USER    
DOCKED: USER    NEWDPF move 2_3_BPG_opt.pdbqt
DOCKED: USER    NEWDPF about 0.015000 0.083000 0.031000
DOCKED: USER    NEWDPF tran0 -2.428628 2.249661 -17.860937
DOCKED: USER    NEWDPF quaternion0 -0.910502 -0.083461 -0.402847 0.041651
DOCKED: USER    NEWDPF axisangle0 -0.911293 -0.083533 -0.403197 175.225783
DOCKED: USER    NEWDPF quat0 -0.911293 -0.083533 -0.403197 175.225783
DOCKED: USER    NEWDPF dihe0 132.07 71.84 22.43 47.85 5.08 -136.85 
DOCKED: USER  keepresnum = 1 
DOCKED: USER  
DOCKED: REMARK  6 active torsions:
DOCKED: REMARK  status: ('A' for Active; 'I' for Inactive)
DOCKED: REMARK    1  A    between atoms: P_1  and  O_3 
DOCKED: REMARK    2  A    between atoms: P_2  and  O_4 
DOCKED: REMARK    3  A    between atoms: O_3  and  C_13 
DOCKED: REMARK    4  A    between atoms: O_4  and  C_14 
DOCKED: REMARK    5  A    between atoms: C_13  and  C_14 
DOCKED: REMARK    6  A    between atoms: C_13  and  C_15 
DOCKED: USER                              x       y       z     vdW  Elec       q    Type
DOCKED: USER                           _______ _______ _______ _____ _____    ______ ____
DOCKED: ROOT
DOCKED: ATOM      1  C   UNL d   1      -2.784   2.447 -18.394 -0.10 +0.24    +0.193 C 
DOCKED: ENDROOT
DOCKED: BRANCH   1   2
DOCKED: ATOM      2  O   UNL d   1      -3.861   1.473 -18.611 +0.09 -0.71    -0.356 OA
DOCKED: BRANCH   2   3
DOCKED: ATOM      3  P   UNL d   1      -3.659   0.078 -19.457 -0.18 -0.02    -0.014 P 
DOCKED: ATOM      4  O   UNL d   1      -4.508   0.273 -20.724 -0.04 -0.67    -0.577 OA
DOCKED: ATOM      5  O   UNL d   1      -4.196  -1.059 -18.591 -0.66 -1.24    -0.577 OA
DOCKED: ATOM      6  O   UNL d   1      -2.177  -0.060 -19.792 -0.10 -1.21    -0.638 OA
DOCKED: ENDBRANCH   2   3
DOCKED: ENDBRANCH   1   2
DOCKED: BRANCH   1   7
DOCKED: ATOM      7  C   UNL d   1      -2.125   2.167 -16.993 -0.17 +0.24    +0.201 C 
DOCKED: BRANCH   7   8
DOCKED: ATOM      8  O   UNL d   1      -2.294   0.830 -16.472 -0.10 -0.77    -0.364 OA
DOCKED: BRANCH   8   9
DOCKED: ATOM      9  P   UNL d   1      -1.822   0.476 -14.927 -0.47 -0.02    -0.015 P 
DOCKED: ATOM     10  O   UNL d   1      -1.552  -1.033 -14.928 -0.49 -1.23    -0.577 OA
DOCKED: ATOM     11  O   UNL d   1      -2.987   0.846 -14.009 -0.12 -0.48    -0.577 OA
DOCKED: ATOM     12  O   UNL d   1      -0.558   1.286 -14.644 -0.56 -0.68    -0.638 OA
DOCKED: ENDBRANCH   8   9
DOCKED: ENDBRANCH   7   8
DOCKED: ENDBRANCH   1   7
DOCKED: BRANCH   1  13
DOCKED: ATOM     13  C   UNL d   1      -3.370   3.908 -18.393 -0.09 +0.07    +0.073 C 
DOCKED: ATOM     14  O   UNL d   1      -2.555   4.894 -18.329 +0.03 -0.28    -0.547 OA
DOCKED: ATOM     15  O   UNL d   1      -4.642   4.025 -18.523 -0.58 -0.87    -0.547 OA
DOCKED: ENDBRANCH   1  13
DOCKED: TORSDOF 6
DOCKED: TER
DOCKED: ENDMDL
________________________________________________________________________________


	BEGINNING GENETIC ALGORITHM DOCKING 31 of 100
Run: 31 Seed: 1568783012 115010324 [ Run 31 of 100 GA/GALS ]
Beginning LAMARCKIAN GENETIC ALGORITHM (LGA), with a maximum of 25000000 energy evaluations.

Final-Value: -8.807


	FINAL GENETIC ALGORITHM DOCKED STATE
	_______________________________________________


Detailed state:  trans -2.639 2.106 -17.332 quatxyzw -0.500955 0.578806 0.107017 -0.634488 center 0.015 0.083 0.031 ntor 6 -0.2311 122.6891 -40.2569 60.4827 -3.4715 143.3200
State:	 -2.639   2.106 -17.332  -0.648  0.749  0.138 -101.236     -0.23  122.69  -40.26   60.48   -3.47  143.32

DOCKED: MODEL       31
DOCKED: USER    Run = 31
DOCKED: USER    DPF = D:/Protein_go_brrr/autodock/final/mut_D99N/2_3_BPG/dock.dpf
DOCKED: USER  
DOCKED: USER    Estimated Free Energy of Binding    =   -9.26 kcal/mol  [=(1)+(2)+(3)-(4)]
DOCKED: USER    Estimated Inhibition Constant, Ki   =  162.27 nM (nanomolar)  [Temperature = 298.15 K]
DOCKED: USER    
DOCKED: USER    (1) Final Intermolecular Energy     =  -11.05 kcal/mol
DOCKED: USER        vdW + Hbond + desolv Energy     =   -3.82 kcal/mol
DOCKED: USER        Electrostatic Energy            =   -7.23 kcal/mol
DOCKED: USER    (2) Final Total Internal Energy     =   +2.25 kcal/mol
DOCKED: USER    (3) Torsional Free Energy           =   +1.79 kcal/mol
DOCKED: USER    (4) Unbound System's Energy  [=(2)] =   +2.25 kcal/mol
DOCKED: USER    
DOCKED: USER    
DOCKED: USER    NEWDPF move 2_3_BPG_opt.pdbqt
DOCKED: USER    NEWDPF about 0.015000 0.083000 0.031000
DOCKED: USER    NEWDPF tran0 -2.638813 2.106197 -17.332162
DOCKED: USER    NEWDPF quaternion0 -0.500955 0.578806 0.107017 -0.634488
DOCKED: USER    NEWDPF axisangle0 -0.648122 0.748844 0.138456 -101.235901
DOCKED: USER    NEWDPF quat0 -0.648122 0.748844 0.138456 -101.235901
DOCKED: USER    NEWDPF dihe0 -0.23 122.69 -40.26 60.48 -3.47 143.32 
DOCKED: USER  keepresnum = 1 
DOCKED: USER  
DOCKED: REMARK  6 active torsions:
DOCKED: REMARK  status: ('A' for Active; 'I' for Inactive)
DOCKED: REMARK    1  A    between atoms: P_1  and  O_3 
DOCKED: REMARK    2  A    between atoms: P_2  and  O_4 
DOCKED: REMARK    3  A    between atoms: O_3  and  C_13 
DOCKED: REMARK    4  A    between atoms: O_4  and  C_14 
DOCKED: REMARK    5  A    between atoms: C_13  and  C_14 
DOCKED: REMARK    6  A    between atoms: C_13  and  C_15 
DOCKED: USER                              x       y       z     vdW  Elec       q    Type
DOCKED: USER                           _______ _______ _______ _____ _____    ______ ____
DOCKED: ROOT
DOCKED: ATOM      1  C   UNL d   1      -2.537   2.289 -16.695 -0.19 +0.23    +0.193 C 
DOCKED: ENDROOT
DOCKED: BRANCH   1   2
DOCKED: ATOM      2  O   UNL d   1      -3.834   2.646 -16.109 -0.12 -0.43    -0.356 OA
DOCKED: BRANCH   2   3
DOCKED: ATOM      3  P   UNL d   1      -4.656   4.015 -16.502 -0.31 -0.01    -0.014 P 
DOCKED: ATOM      4  O   UNL d   1      -3.717   5.158 -16.087 +0.00 -0.28    -0.577 OA
DOCKED: ATOM      5  O   UNL d   1      -5.944   4.020 -15.682 -0.22 -0.53    -0.577 OA
DOCKED: ATOM      6  O   UNL d   1      -4.894   4.005 -18.009 -0.40 -1.15    -0.638 OA
DOCKED: ENDBRANCH   2   3
DOCKED: ENDBRANCH   1   2
DOCKED: BRANCH   1   7
DOCKED: ATOM      7  C   UNL d   1      -2.785   1.586 -18.081 -0.12 +0.33    +0.201 C 
DOCKED: BRANCH   7   8
DOCKED: ATOM      8  O   UNL d   1      -3.621   0.409 -18.050 -0.17 -0.86    -0.364 OA
DOCKED: BRANCH   8   9
DOCKED: ATOM      9  P   UNL d   1      -3.959  -0.406 -19.449 -0.16 -0.03    -0.015 P 
DOCKED: ATOM     10  O   UNL d   1      -3.943  -1.890 -19.061 -0.54 -1.07    -0.577 OA
DOCKED: ATOM     11  O   UNL d   1      -2.850  -0.064 -20.443 -0.06 -0.73    -0.577 OA
DOCKED: ATOM     12  O   UNL d   1      -5.341   0.050 -19.915 -0.18 -1.15    -0.638 OA
DOCKED: ENDBRANCH   8   9
DOCKED: ENDBRANCH   7   8
DOCKED: ENDBRANCH   1   7
DOCKED: BRANCH   1  13
DOCKED: ATOM     13  C   UNL d   1      -1.776   1.286 -15.750 -0.33 +0.11    +0.073 C 
DOCKED: ATOM     14  O   UNL d   1      -2.378   0.217 -15.381 -0.44 -1.05    -0.547 OA
DOCKED: ATOM     15  O   UNL d   1      -0.560   1.572 -15.455 -0.56 -0.62    -0.547 OA
DOCKED: ENDBRANCH   1  13
DOCKED: TORSDOF 6
DOCKED: TER
DOCKED: ENDMDL
________________________________________________________________________________


	BEGINNING GENETIC ALGORITHM DOCKING 32 of 100
Run: 32 Seed: 1851376505 2105777804 [ Run 32 of 100 GA/GALS ]
Beginning LAMARCKIAN GENETIC ALGORITHM (LGA), with a maximum of 25000000 energy evaluations.

Final-Value: -8.677


	FINAL GENETIC ALGORITHM DOCKED STATE
	_______________________________________________


Detailed state:  trans -2.459 1.816 -17.042 quatxyzw -0.506672 0.552630 0.099025 -0.654276 center 0.015 0.083 0.031 ntor 6 -1.6676 124.8631 166.1049 54.2427 2.1600 168.4560
State:	 -2.459   1.816 -17.042  -0.670  0.731  0.131 -98.270     -1.67  124.86  166.10   54.24    2.16  168.46

DOCKED: MODEL       32
DOCKED: USER    Run = 32
DOCKED: USER    DPF = D:/Protein_go_brrr/autodock/final/mut_D99N/2_3_BPG/dock.dpf
DOCKED: USER  
DOCKED: USER    Estimated Free Energy of Binding    =   -9.12 kcal/mol  [=(1)+(2)+(3)-(4)]
DOCKED: USER    Estimated Inhibition Constant, Ki   =  208.10 nM (nanomolar)  [Temperature = 298.15 K]
DOCKED: USER    
DOCKED: USER    (1) Final Intermolecular Energy     =  -10.91 kcal/mol
DOCKED: USER        vdW + Hbond + desolv Energy     =   -3.79 kcal/mol
DOCKED: USER        Electrostatic Energy            =   -7.11 kcal/mol
DOCKED: USER    (2) Final Total Internal Energy     =   +2.23 kcal/mol
DOCKED: USER    (3) Torsional Free Energy           =   +1.79 kcal/mol
DOCKED: USER    (4) Unbound System's Energy  [=(2)] =   +2.23 kcal/mol
DOCKED: USER    
DOCKED: USER    
DOCKED: USER    NEWDPF move 2_3_BPG_opt.pdbqt
DOCKED: USER    NEWDPF about 0.015000 0.083000 0.031000
DOCKED: USER    NEWDPF tran0 -2.459204 1.816167 -17.041937
DOCKED: USER    NEWDPF quaternion0 -0.506672 0.552630 0.099025 -0.654276
DOCKED: USER    NEWDPF axisangle0 -0.669975 0.730745 0.130942 -98.270423
DOCKED: USER    NEWDPF quat0 -0.669975 0.730745 0.130942 -98.270423
DOCKED: USER    NEWDPF dihe0 -1.67 124.86 166.10 54.24 2.16 168.46 
DOCKED: USER  keepresnum = 1 
DOCKED: USER  
DOCKED: REMARK  6 active torsions:
DOCKED: REMARK  status: ('A' for Active; 'I' for Inactive)
DOCKED: REMARK    1  A    between atoms: P_1  and  O_3 
DOCKED: REMARK    2  A    between atoms: P_2  and  O_4 
DOCKED: REMARK    3  A    between atoms: O_3  and  C_13 
DOCKED: REMARK    4  A    between atoms: O_4  and  C_14 
DOCKED: REMARK    5  A    between atoms: C_13  and  C_14 
DOCKED: REMARK    6  A    between atoms: C_13  and  C_15 
DOCKED: USER                              x       y       z     vdW  Elec       q    Type
DOCKED: USER                           _______ _______ _______ _____ _____    ______ ____
DOCKED: ROOT
DOCKED: ATOM      1  C   UNL d   1      -2.403   1.995 -16.398 -0.22 +0.24    +0.193 C 
DOCKED: ENDROOT
DOCKED: BRANCH   1   2
DOCKED: ATOM      2  O   UNL d   1      -3.742   2.322 -15.895 -0.15 -0.43    -0.356 OA
DOCKED: BRANCH   2   3
DOCKED: ATOM      3  P   UNL d   1      -4.501   3.747 -16.211 -0.29 -0.01    -0.014 P 
DOCKED: ATOM      4  O   UNL d   1      -3.557   4.818 -15.642 -0.04 -0.29    -0.577 OA
DOCKED: ATOM      5  O   UNL d   1      -5.835   3.723 -15.468 -0.17 -0.52    -0.577 OA
DOCKED: ATOM      6  O   UNL d   1      -4.649   3.877 -17.723 -0.36 -1.06    -0.638 OA
DOCKED: ENDBRANCH   2   3
DOCKED: ENDBRANCH   1   2
DOCKED: BRANCH   1   7
DOCKED: ATOM      7  C   UNL d   1      -2.547   1.301 -17.803 -0.06 +0.37    +0.201 C 
DOCKED: BRANCH   7   8
DOCKED: ATOM      8  O   UNL d   1      -3.735   0.502 -17.992 -0.09 -0.83    -0.364 OA
DOCKED: BRANCH   8   9
DOCKED: ATOM      9  P   UNL d   1      -3.931  -0.377 -19.380 -0.09 -0.03    -0.015 P 
DOCKED: ATOM     10  O   UNL d   1      -2.836   0.125 -20.328 -0.06 -0.75    -0.577 OA
DOCKED: ATOM     11  O   UNL d   1      -5.331  -0.068 -19.910 -0.22 -0.99    -0.577 OA
DOCKED: ATOM     12  O   UNL d   1      -3.742  -1.848 -19.012 -0.50 -1.32    -0.638 OA
DOCKED: ENDBRANCH   8   9
DOCKED: ENDBRANCH   7   8
DOCKED: ENDBRANCH   1   7
DOCKED: BRANCH   1  13
DOCKED: ATOM     13  C   UNL d   1      -1.686   0.996 -15.414 -0.33 +0.11    +0.073 C 
DOCKED: ATOM     14  O   UNL d   1      -2.303  -0.073 -15.072 -0.54 -0.99    -0.547 OA
DOCKED: ATOM     15  O   UNL d   1      -0.487   1.288 -15.060 -0.68 -0.61    -0.547 OA
DOCKED: ENDBRANCH   1  13
DOCKED: TORSDOF 6
DOCKED: TER
DOCKED: ENDMDL
________________________________________________________________________________


	BEGINNING GENETIC ALGORITHM DOCKING 33 of 100
Run: 33 Seed: 370169891 2062332222 [ Run 33 of 100 GA/GALS ]
Beginning LAMARCKIAN GENETIC ALGORITHM (LGA), with a maximum of 25000000 energy evaluations.

Final-Value: -8.661


	FINAL GENETIC ALGORITHM DOCKED STATE
	_______________________________________________


Detailed state:  trans -2.139 2.258 -16.619 quatxyzw 0.444845 -0.469939 -0.200853 0.735478 center 0.015 0.083 0.031 ntor 6 -20.7500 130.3397 -178.3729 62.6137 27.5140 -179.9473
State:	 -2.139   2.258 -16.619   0.657 -0.694 -0.296 85.305    -20.75  130.34 -178.37   62.61   27.51 -179.95

DOCKED: MODEL       33
DOCKED: USER    Run = 33
DOCKED: USER    DPF = D:/Protein_go_brrr/autodock/final/mut_D99N/2_3_BPG/dock.dpf
DOCKED: USER  
DOCKED: USER    Estimated Free Energy of Binding    =   -9.21 kcal/mol  [=(1)+(2)+(3)-(4)]
DOCKED: USER    Estimated Inhibition Constant, Ki   =  176.26 nM (nanomolar)  [Temperature = 298.15 K]
DOCKED: USER    
DOCKED: USER    (1) Final Intermolecular Energy     =  -11.00 kcal/mol
DOCKED: USER        vdW + Hbond + desolv Energy     =   -4.10 kcal/mol
DOCKED: USER        Electrostatic Energy            =   -6.90 kcal/mol
DOCKED: USER    (2) Final Total Internal Energy     =   +2.34 kcal/mol
DOCKED: USER    (3) Torsional Free Energy           =   +1.79 kcal/mol
DOCKED: USER    (4) Unbound System's Energy  [=(2)] =   +2.34 kcal/mol
DOCKED: USER    
DOCKED: USER    
DOCKED: USER    NEWDPF move 2_3_BPG_opt.pdbqt
DOCKED: USER    NEWDPF about 0.015000 0.083000 0.031000
DOCKED: USER    NEWDPF tran0 -2.138948 2.257703 -16.618690
DOCKED: USER    NEWDPF quaternion0 0.444845 -0.469939 -0.200853 0.735478
DOCKED: USER    NEWDPF axisangle0 0.656551 -0.693588 -0.296441 85.304781
DOCKED: USER    NEWDPF quat0 0.656551 -0.693588 -0.296441 85.304781
DOCKED: USER    NEWDPF dihe0 -20.75 130.34 -178.37 62.61 27.51 -179.95 
DOCKED: USER  keepresnum = 1 
DOCKED: USER  
DOCKED: REMARK  6 active torsions:
DOCKED: REMARK  status: ('A' for Active; 'I' for Inactive)
DOCKED: REMARK    1  A    between atoms: P_1  and  O_3 
DOCKED: REMARK    2  A    between atoms: P_2  and  O_4 
DOCKED: REMARK    3  A    between atoms: O_3  and  C_13 
DOCKED: REMARK    4  A    between atoms: O_4  and  C_14 
DOCKED: REMARK    5  A    between atoms: C_13  and  C_14 
DOCKED: REMARK    6  A    between atoms: C_13  and  C_15 
DOCKED: USER                              x       y       z     vdW  Elec       q    Type
DOCKED: USER                           _______ _______ _______ _____ _____    ______ ____
DOCKED: ROOT
DOCKED: ATOM      1  C   UNL d   1      -2.149   2.245 -15.949 -0.20 +0.21    +0.193 C 
DOCKED: ENDROOT
DOCKED: BRANCH   1   2
DOCKED: ATOM      2  O   UNL d   1      -3.549   2.249 -15.511 -0.21 -0.38    -0.356 OA
DOCKED: BRANCH   2   3
DOCKED: ATOM      3  P   UNL d   1      -4.541   3.551 -15.671 -0.41 -0.01    -0.014 P 
DOCKED: ATOM      4  O   UNL d   1      -3.775   4.701 -14.997 -0.06 -0.26    -0.577 OA
DOCKED: ATOM      5  O   UNL d   1      -5.836   3.227 -14.929 -0.17 -0.43    -0.577 OA
DOCKED: ATOM      6  O   UNL d   1      -4.742   3.810 -17.160 -0.19 -0.98    -0.638 OA
DOCKED: ENDBRANCH   2   3
DOCKED: ENDBRANCH   1   2
DOCKED: BRANCH   1   7
DOCKED: ATOM      7  C   UNL d   1      -2.105   1.982 -17.499 -0.14 +0.27    +0.201 C 
DOCKED: BRANCH   7   8
DOCKED: ATOM      8  O   UNL d   1      -3.281   1.364 -18.067 -0.10 -0.67    -0.364 OA
DOCKED: BRANCH   8   9
DOCKED: ATOM      9  P   UNL d   1      -3.143   0.379 -19.389 -0.10 -0.03    -0.015 P 
DOCKED: ATOM     10  O   UNL d   1      -1.637   0.283 -19.661 -0.23 -1.08    -0.577 OA
DOCKED: ATOM     11  O   UNL d   1      -3.888   1.063 -20.535 -0.01 -0.68    -0.577 OA
DOCKED: ATOM     12  O   UNL d   1      -3.745  -0.973 -19.008 -0.56 -1.46    -0.638 OA
DOCKED: ENDBRANCH   8   9
DOCKED: ENDBRANCH   7   8
DOCKED: ENDBRANCH   1   7
DOCKED: BRANCH   1  13
DOCKED: ATOM     13  C   UNL d   1      -1.359   1.094 -15.220 -0.34 +0.10    +0.073 C 
DOCKED: ATOM     14  O   UNL d   1      -1.983   0.013 -14.931 -0.67 -0.92    -0.547 OA
DOCKED: ATOM     15  O   UNL d   1      -0.107   1.287 -15.013 -0.72 -0.58    -0.547 OA
DOCKED: ENDBRANCH   1  13
DOCKED: TORSDOF 6
DOCKED: TER
DOCKED: ENDMDL
________________________________________________________________________________


	BEGINNING GENETIC ALGORITHM DOCKING 34 of 100
Run: 34 Seed: 1550192536 1078035524 [ Run 34 of 100 GA/GALS ]
Beginning LAMARCKIAN GENETIC ALGORITHM (LGA), with a maximum of 25000000 energy evaluations.

Final-Value: -8.774


	FINAL GENETIC ALGORITHM DOCKED STATE
	_______________________________________________


Detailed state:  trans -2.213 1.882 -17.922 quatxyzw -0.933838 -0.063002 -0.351882 0.012469 center 0.015 0.083 0.031 ntor 6 115.9708 179.6173 -50.2580 35.5714 -4.8066 -177.7262
State:	 -2.213   1.882 -17.922  -0.934 -0.063 -0.352 178.571    115.97  179.62  -50.26   35.57   -4.81 -177.73

DOCKED: MODEL       34
DOCKED: USER    Run = 34
DOCKED: USER    DPF = D:/Protein_go_brrr/autodock/final/mut_D99N/2_3_BPG/dock.dpf
DOCKED: USER  
DOCKED: USER    Estimated Free Energy of Binding    =   -9.14 kcal/mol  [=(1)+(2)+(3)-(4)]
DOCKED: USER    Estimated Inhibition Constant, Ki   =  200.63 nM (nanomolar)  [Temperature = 298.15 K]
DOCKED: USER    
DOCKED: USER    (1) Final Intermolecular Energy     =  -10.93 kcal/mol
DOCKED: USER        vdW + Hbond + desolv Energy     =   -3.65 kcal/mol
DOCKED: USER        Electrostatic Energy            =   -7.27 kcal/mol
DOCKED: USER    (2) Final Total Internal Energy     =   +2.15 kcal/mol
DOCKED: USER    (3) Torsional Free Energy           =   +1.79 kcal/mol
DOCKED: USER    (4) Unbound System's Energy  [=(2)] =   +2.15 kcal/mol
DOCKED: USER    
DOCKED: USER    
DOCKED: USER    NEWDPF move 2_3_BPG_opt.pdbqt
DOCKED: USER    NEWDPF about 0.015000 0.083000 0.031000
DOCKED: USER    NEWDPF tran0 -2.213193 1.881564 -17.922107
DOCKED: USER    NEWDPF quaternion0 -0.933838 -0.063002 -0.351882 0.012469
DOCKED: USER    NEWDPF axisangle0 -0.933911 -0.063007 -0.351909 178.571135
DOCKED: USER    NEWDPF quat0 -0.933911 -0.063007 -0.351909 178.571135
DOCKED: USER    NEWDPF dihe0 115.97 179.62 -50.26 35.57 -4.81 -177.73 
DOCKED: USER  keepresnum = 1 
DOCKED: USER  
DOCKED: REMARK  6 active torsions:
DOCKED: REMARK  status: ('A' for Active; 'I' for Inactive)
DOCKED: REMARK    1  A    between atoms: P_1  and  O_3 
DOCKED: REMARK    2  A    between atoms: P_2  and  O_4 
DOCKED: REMARK    3  A    between atoms: O_3  and  C_13 
DOCKED: REMARK    4  A    between atoms: O_4  and  C_14 
DOCKED: REMARK    5  A    between atoms: C_13  and  C_14 
DOCKED: REMARK    6  A    between atoms: C_13  and  C_15 
DOCKED: USER                              x       y       z     vdW  Elec       q    Type
DOCKED: USER                           _______ _______ _______ _____ _____    ______ ____
DOCKED: ROOT
DOCKED: ATOM      1  C   UNL d   1      -2.622   2.119 -18.397 -0.11 +0.25    +0.193 C 
DOCKED: ENDROOT
DOCKED: BRANCH   1   2
DOCKED: ATOM      2  O   UNL d   1      -3.740   1.181 -18.548 -0.06 -0.70    -0.356 OA
DOCKED: BRANCH   2   3
DOCKED: ATOM      3  P   UNL d   1      -3.789   0.012 -19.704 -0.21 -0.02    -0.014 P 
DOCKED: ATOM      4  O   UNL d   1      -2.528   0.255 -20.548 -0.04 -0.67    -0.577 OA
DOCKED: ATOM      5  O   UNL d   1      -5.061   0.235 -20.519 -0.15 -0.79    -0.577 OA
DOCKED: ATOM      6  O   UNL d   1      -3.743  -1.343 -19.006 -0.56 -1.44    -0.638 OA
DOCKED: ENDBRANCH   2   3
DOCKED: ENDBRANCH   1   2
DOCKED: BRANCH   1   7
DOCKED: ATOM      7  C   UNL d   1      -1.815   1.738 -17.102 -0.16 +0.29    +0.201 C 
DOCKED: BRANCH   7   8
DOCKED: ATOM      8  O   UNL d   1      -2.508   0.898 -16.152 -0.26 -0.68    -0.364 OA
DOCKED: BRANCH   8   9
DOCKED: ATOM      9  P   UNL d   1      -1.742   0.399 -14.773 -0.51 -0.02    -0.015 P 
DOCKED: ATOM     10  O   UNL d   1      -2.735   0.683 -13.640 -0.01 -0.40    -0.577 OA
DOCKED: ATOM     11  O   UNL d   1      -0.470   1.237 -14.641 -0.61 -0.61    -0.577 OA
DOCKED: ATOM     12  O   UNL d   1      -1.461  -1.095 -14.929 -0.41 -1.36    -0.638 OA
DOCKED: ENDBRANCH   8   9
DOCKED: ENDBRANCH   7   8
DOCKED: ENDBRANCH   1   7
DOCKED: BRANCH   1  13
DOCKED: ATOM     13  C   UNL d   1      -3.167   3.587 -18.239 -0.10 +0.07    +0.073 C 
DOCKED: ATOM     14  O   UNL d   1      -2.347   4.510 -17.897 +0.03 -0.31    -0.547 OA
DOCKED: ATOM     15  O   UNL d   1      -4.402   3.785 -18.528 -0.49 -0.90    -0.547 OA
DOCKED: ENDBRANCH   1  13
DOCKED: TORSDOF 6
DOCKED: TER
DOCKED: ENDMDL
________________________________________________________________________________


	BEGINNING GENETIC ALGORITHM DOCKING 35 of 100
Run: 35 Seed: 1341833503 1625006306 [ Run 35 of 100 GA/GALS ]
Beginning LAMARCKIAN GENETIC ALGORITHM (LGA), with a maximum of 25000000 energy evaluations.

Final-Value: -8.134


	FINAL GENETIC ALGORITHM DOCKED STATE
	_______________________________________________


Detailed state:  trans -2.760 2.003 -17.400 quatxyzw -0.757820 -0.231718 0.567679 0.223060 center 0.015 0.083 0.031 ntor 6 141.2193 -174.4735 -56.0064 41.6807 -113.4002 -69.5779
State:	 -2.760   2.003 -17.400  -0.777 -0.238  0.582 154.222    141.22 -174.47  -56.01   41.68 -113.40  -69.58

DOCKED: MODEL       35
DOCKED: USER    Run = 35
DOCKED: USER    DPF = D:/Protein_go_brrr/autodock/final/mut_D99N/2_3_BPG/dock.dpf
DOCKED: USER  
DOCKED: USER    Estimated Free Energy of Binding    =   -8.91 kcal/mol  [=(1)+(2)+(3)-(4)]
DOCKED: USER    Estimated Inhibition Constant, Ki   =  294.94 nM (nanomolar)  [Temperature = 298.15 K]
DOCKED: USER    
DOCKED: USER    (1) Final Intermolecular Energy     =  -10.70 kcal/mol
DOCKED: USER        vdW + Hbond + desolv Energy     =   -3.19 kcal/mol
DOCKED: USER        Electrostatic Energy            =   -7.51 kcal/mol
DOCKED: USER    (2) Final Total Internal Energy     =   +2.56 kcal/mol
DOCKED: USER    (3) Torsional Free Energy           =   +1.79 kcal/mol
DOCKED: USER    (4) Unbound System's Energy  [=(2)] =   +2.56 kcal/mol
DOCKED: USER    
DOCKED: USER    
DOCKED: USER    NEWDPF move 2_3_BPG_opt.pdbqt
DOCKED: USER    NEWDPF about 0.015000 0.083000 0.031000
DOCKED: USER    NEWDPF tran0 -2.759544 2.002528 -17.399737
DOCKED: USER    NEWDPF quaternion0 -0.757820 -0.231718 0.567679 0.223060
DOCKED: USER    NEWDPF axisangle0 -0.777407 -0.237707 0.582352 154.222341
DOCKED: USER    NEWDPF quat0 -0.777407 -0.237707 0.582352 154.222341
DOCKED: USER    NEWDPF dihe0 141.22 -174.47 -56.01 41.68 -113.40 -69.58 
DOCKED: USER  keepresnum = 1 
DOCKED: USER  
DOCKED: REMARK  6 active torsions:
DOCKED: REMARK  status: ('A' for Active; 'I' for Inactive)
DOCKED: REMARK    1  A    between atoms: P_1  and  O_3 
DOCKED: REMARK    2  A    between atoms: P_2  and  O_4 
DOCKED: REMARK    3  A    between atoms: O_3  and  C_13 
DOCKED: REMARK    4  A    between atoms: O_4  and  C_14 
DOCKED: REMARK    5  A    between atoms: C_13  and  C_14 
DOCKED: REMARK    6  A    between atoms: C_13  and  C_15 
DOCKED: USER                              x       y       z     vdW  Elec       q    Type
DOCKED: USER                           _______ _______ _______ _____ _____    ______ ____
DOCKED: ROOT
DOCKED: ATOM      1  C   UNL d   1      -3.164   2.137 -16.882 -0.10 +0.27    +0.193 C 
DOCKED: ENDROOT
DOCKED: BRANCH   1   2
DOCKED: ATOM      2  O   UNL d   1      -2.455   1.787 -15.646 -0.20 -0.42    -0.356 OA
DOCKED: BRANCH   2   3
DOCKED: ATOM      3  P   UNL d   1      -2.542   0.303 -14.944 -0.56 -0.02    -0.014 P 
DOCKED: ATOM      4  O   UNL d   1      -3.442  -0.513 -15.885 -0.02 -1.22    -0.577 OA
DOCKED: ATOM      5  O   UNL d   1      -3.184   0.488 -13.571 -0.06 -0.37    -0.577 OA
DOCKED: ATOM      6  O   UNL d   1      -1.130  -0.272 -14.882 -0.64 -1.11    -0.638 OA
DOCKED: ENDBRANCH   2   3
DOCKED: ENDBRANCH   1   2
DOCKED: BRANCH   1   7
DOCKED: ATOM      7  C   UNL d   1      -2.140   2.107 -18.076 -0.11 +0.25    +0.201 C 
DOCKED: BRANCH   7   8
DOCKED: ATOM      8  O   UNL d   1      -1.999   0.838 -18.754 -0.10 -0.75    -0.364 OA
DOCKED: BRANCH   8   9
DOCKED: ATOM      9  P   UNL d   1      -3.234   0.252 -19.685 -0.16 -0.02    -0.015 P 
DOCKED: ATOM     10  O   UNL d   1      -2.601  -0.037 -21.051 -0.02 -0.55    -0.577 OA
DOCKED: ATOM     11  O   UNL d   1      -4.292   1.353 -19.767 +0.03 -1.00    -0.577 OA
DOCKED: ATOM     12  O   UNL d   1      -3.745  -1.019 -19.008 -0.56 -1.46    -0.638 OA
DOCKED: ENDBRANCH   8   9
DOCKED: ENDBRANCH   7   8
DOCKED: ENDBRANCH   1   7
DOCKED: BRANCH   1  13
DOCKED: ATOM     13  C   UNL d   1      -3.764   3.588 -16.769 -0.21 +0.08    +0.073 C 
DOCKED: ATOM     14  O   UNL d   1      -4.650   3.951 -17.620 -0.41 -0.85    -0.547 OA
DOCKED: ATOM     15  O   UNL d   1      -3.370   4.305 -15.780 -0.05 -0.33    -0.547 OA
DOCKED: ENDBRANCH   1  13
DOCKED: TORSDOF 6
DOCKED: TER
DOCKED: ENDMDL
________________________________________________________________________________


	BEGINNING GENETIC ALGORITHM DOCKING 36 of 100
Run: 36 Seed: 854509428 1305871075 [ Run 36 of 100 GA/GALS ]
Beginning LAMARCKIAN GENETIC ALGORITHM (LGA), with a maximum of 25000000 energy evaluations.

Final-Value: -8.637


	FINAL GENETIC ALGORITHM DOCKED STATE
	_______________________________________________


Detailed state:  trans -2.466 2.016 -17.217 quatxyzw 0.532506 -0.540764 -0.140099 0.635912 center 0.015 0.083 0.031 ntor 6 -6.0895 127.5479 -179.8935 48.7076 3.9574 167.3365
State:	 -2.466   2.016 -17.217   0.690 -0.701 -0.182 101.025     -6.09  127.55 -179.89   48.71    3.96  167.34

DOCKED: MODEL       36
DOCKED: USER    Run = 36
DOCKED: USER    DPF = D:/Protein_go_brrr/autodock/final/mut_D99N/2_3_BPG/dock.dpf
DOCKED: USER  
DOCKED: USER    Estimated Free Energy of Binding    =   -9.02 kcal/mol  [=(1)+(2)+(3)-(4)]
DOCKED: USER    Estimated Inhibition Constant, Ki   =  243.40 nM (nanomolar)  [Temperature = 298.15 K]
DOCKED: USER    
DOCKED: USER    (1) Final Intermolecular Energy     =  -10.81 kcal/mol
DOCKED: USER        vdW + Hbond + desolv Energy     =   -3.74 kcal/mol
DOCKED: USER        Electrostatic Energy            =   -7.07 kcal/mol
DOCKED: USER    (2) Final Total Internal Energy     =   +2.18 kcal/mol
DOCKED: USER    (3) Torsional Free Energy           =   +1.79 kcal/mol
DOCKED: USER    (4) Unbound System's Energy  [=(2)] =   +2.18 kcal/mol
DOCKED: USER    
DOCKED: USER    
DOCKED: USER    NEWDPF move 2_3_BPG_opt.pdbqt
DOCKED: USER    NEWDPF about 0.015000 0.083000 0.031000
DOCKED: USER    NEWDPF tran0 -2.466386 2.016119 -17.217058
DOCKED: USER    NEWDPF quaternion0 0.532506 -0.540764 -0.140099 0.635912
DOCKED: USER    NEWDPF axisangle0 0.689988 -0.700687 -0.181532 101.024666
DOCKED: USER    NEWDPF quat0 0.689988 -0.700687 -0.181532 101.024666
DOCKED: USER    NEWDPF dihe0 -6.09 127.55 -179.89 48.71 3.96 167.34 
DOCKED: USER  keepresnum = 1 
DOCKED: USER  
DOCKED: REMARK  6 active torsions:
DOCKED: REMARK  status: ('A' for Active; 'I' for Inactive)
DOCKED: REMARK    1  A    between atoms: P_1  and  O_3 
DOCKED: REMARK    2  A    between atoms: P_2  and  O_4 
DOCKED: REMARK    3  A    between atoms: O_3  and  C_13 
DOCKED: REMARK    4  A    between atoms: O_4  and  C_14 
DOCKED: REMARK    5  A    between atoms: C_13  and  C_14 
DOCKED: REMARK    6  A    between atoms: C_13  and  C_15 
DOCKED: USER                              x       y       z     vdW  Elec       q    Type
DOCKED: USER                           _______ _______ _______ _____ _____    ______ ____
DOCKED: ROOT
DOCKED: ATOM      1  C   UNL d   1      -2.401   2.203 -16.577 -0.20 +0.23    +0.193 C 
DOCKED: ENDROOT
DOCKED: BRANCH   1   2
DOCKED: ATOM      2  O   UNL d   1      -3.744   2.402 -16.020 -0.13 -0.43    -0.356 OA
DOCKED: BRANCH   2   3
DOCKED: ATOM      3  P   UNL d   1      -4.598   3.796 -16.198 -0.29 -0.01    -0.014 P 
DOCKED: ATOM      4  O   UNL d   1      -3.678   4.885 -15.623 -0.04 -0.28    -0.577 OA
DOCKED: ATOM      5  O   UNL d   1      -5.877   3.651 -15.376 -0.18 -0.51    -0.577 OA
DOCKED: ATOM      6  O   UNL d   1      -4.852   4.007 -17.687 -0.36 -1.06    -0.638 OA
DOCKED: ENDBRANCH   2   3
DOCKED: ENDBRANCH   1   2
DOCKED: BRANCH   1   7
DOCKED: ATOM      7  C   UNL d   1      -2.534   1.490 -17.972 -0.09 +0.34    +0.201 C 
DOCKED: BRANCH   7   8
DOCKED: ATOM      8  O   UNL d   1      -3.631   0.558 -18.102 -0.13 -0.83    -0.364 OA
DOCKED: BRANCH   8   9
DOCKED: ATOM      9  P   UNL d   1      -3.768  -0.378 -19.459 -0.14 -0.03    -0.015 P 
DOCKED: ATOM     10  O   UNL d   1      -2.541  -0.029 -20.310 -0.08 -0.79    -0.577 OA
DOCKED: ATOM     11  O   UNL d   1      -5.073   0.022 -20.147 -0.16 -0.88    -0.577 OA
DOCKED: ATOM     12  O   UNL d   1      -3.754  -1.837 -19.004 -0.50 -1.32    -0.638 OA
DOCKED: ENDBRANCH   8   9
DOCKED: ENDBRANCH   7   8
DOCKED: ENDBRANCH   1   7
DOCKED: BRANCH   1  13
DOCKED: ATOM     13  C   UNL d   1      -1.551   1.287 -15.620 -0.34 +0.10    +0.073 C 
DOCKED: ATOM     14  O   UNL d   1      -2.079   0.205 -15.181 -0.51 -1.00    -0.547 OA
DOCKED: ATOM     15  O   UNL d   1      -0.342   1.651 -15.387 -0.58 -0.59    -0.547 OA
DOCKED: ENDBRANCH   1  13
DOCKED: TORSDOF 6
DOCKED: TER
DOCKED: ENDMDL
________________________________________________________________________________


	BEGINNING GENETIC ALGORITHM DOCKING 37 of 100
Run: 37 Seed: 31581342 2038580618 [ Run 37 of 100 GA/GALS ]
Beginning LAMARCKIAN GENETIC ALGORITHM (LGA), with a maximum of 25000000 energy evaluations.

Final-Value: -8.026


	FINAL GENETIC ALGORITHM DOCKED STATE
	_______________________________________________


Detailed state:  trans -4.897 -3.271 -18.925 quatxyzw -0.533733 -0.824892 0.049289 0.179593 center 0.015 0.083 0.031 ntor 6 61.6545 -125.6578 55.0035 -166.6413 -25.2136 -103.7004
State:	 -4.897  -3.271 -18.925  -0.543 -0.839  0.050 159.308     61.65 -125.66   55.00 -166.64  -25.21 -103.70

DOCKED: MODEL       37
DOCKED: USER    Run = 37
DOCKED: USER    DPF = D:/Protein_go_brrr/autodock/final/mut_D99N/2_3_BPG/dock.dpf
DOCKED: USER  
DOCKED: USER    Estimated Free Energy of Binding    =   -8.94 kcal/mol  [=(1)+(2)+(3)-(4)]
DOCKED: USER    Estimated Inhibition Constant, Ki   =  281.84 nM (nanomolar)  [Temperature = 298.15 K]
DOCKED: USER    
DOCKED: USER    (1) Final Intermolecular Energy     =  -10.73 kcal/mol
DOCKED: USER        vdW + Hbond + desolv Energy     =   -4.62 kcal/mol
DOCKED: USER        Electrostatic Energy            =   -6.10 kcal/mol
DOCKED: USER    (2) Final Total Internal Energy     =   +2.70 kcal/mol
DOCKED: USER    (3) Torsional Free Energy           =   +1.79 kcal/mol
DOCKED: USER    (4) Unbound System's Energy  [=(2)] =   +2.70 kcal/mol
DOCKED: USER    
DOCKED: USER    
DOCKED: USER    NEWDPF move 2_3_BPG_opt.pdbqt
DOCKED: USER    NEWDPF about 0.015000 0.083000 0.031000
DOCKED: USER    NEWDPF tran0 -4.896795 -3.270763 -18.925089
DOCKED: USER    NEWDPF quaternion0 -0.533733 -0.824892 0.049289 0.179593
DOCKED: USER    NEWDPF axisangle0 -0.542554 -0.838525 0.050104 159.307878
DOCKED: USER    NEWDPF quat0 -0.542554 -0.838525 0.050104 159.307878
DOCKED: USER    NEWDPF dihe0 61.65 -125.66 55.00 -166.64 -25.21 -103.70 
DOCKED: USER  keepresnum = 1 
DOCKED: USER  
DOCKED: REMARK  6 active torsions:
DOCKED: REMARK  status: ('A' for Active; 'I' for Inactive)
DOCKED: REMARK    1  A    between atoms: P_1  and  O_3 
DOCKED: REMARK    2  A    between atoms: P_2  and  O_4 
DOCKED: REMARK    3  A    between atoms: O_3  and  C_13 
DOCKED: REMARK    4  A    between atoms: O_4  and  C_14 
DOCKED: REMARK    5  A    between atoms: C_13  and  C_14 
DOCKED: REMARK    6  A    between atoms: C_13  and  C_15 
DOCKED: USER                              x       y       z     vdW  Elec       q    Type
DOCKED: USER                           _______ _______ _______ _____ _____    ______ ____
DOCKED: ROOT
DOCKED: ATOM      1  C   UNL d   1      -4.940  -3.935 -18.842 -0.24 +0.13    +0.193 C 
DOCKED: ENDROOT
DOCKED: BRANCH   1   2
DOCKED: ATOM      2  O   UNL d   1      -3.996  -4.325 -17.789 -0.28 -0.28    -0.356 OA
DOCKED: BRANCH   2   3
DOCKED: ATOM      3  P   UNL d   1      -4.086  -3.770 -16.244 -0.78 -0.01    -0.014 P 
DOCKED: ATOM      4  O   UNL d   1      -5.548  -4.009 -15.835 -0.72 -0.53    -0.577 OA
DOCKED: ATOM      5  O   UNL d   1      -3.749  -2.281 -16.277 -0.08 -1.06    -0.577 OA
DOCKED: ATOM      6  O   UNL d   1      -3.125  -4.592 -15.391 -0.68 -0.51    -0.638 OA
DOCKED: ENDBRANCH   2   3
DOCKED: ENDBRANCH   1   2
DOCKED: BRANCH   1   7
DOCKED: ATOM      7  C   UNL d   1      -5.066  -2.366 -18.850 -0.23 +0.23    +0.201 C 
DOCKED: BRANCH   7   8
DOCKED: ATOM      8  O   UNL d   1      -3.830  -1.635 -19.005 -0.65 -0.76    -0.364 OA
DOCKED: BRANCH   8   9
DOCKED: ATOM      9  P   UNL d   1      -3.850  -0.080 -19.569 -0.21 -0.03    -0.015 P 
DOCKED: ATOM     10  O   UNL d   1      -2.952  -0.095 -20.812 -0.03 -0.61    -0.577 OA
DOCKED: ATOM     11  O   UNL d   1      -3.277   0.803 -18.461 -0.11 -1.18    -0.577 OA
DOCKED: ATOM     12  O   UNL d   1      -5.300   0.256 -19.912 -0.12 -1.22    -0.638 OA
DOCKED: ENDBRANCH   8   9
DOCKED: ENDBRANCH   7   8
DOCKED: ENDBRANCH   1   7
DOCKED: BRANCH   1  13
DOCKED: ATOM     13  C   UNL d   1      -6.358  -4.553 -18.551 -0.32 +0.03    +0.073 C 
DOCKED: ATOM     14  O   UNL d   1      -7.333  -3.758 -18.305 -0.06 -0.23    -0.547 OA
DOCKED: ATOM     15  O   UNL d   1      -6.467  -5.829 -18.642 -0.11 -0.06    -0.547 OA
DOCKED: ENDBRANCH   1  13
DOCKED: TORSDOF 6
DOCKED: TER
DOCKED: ENDMDL
________________________________________________________________________________


	BEGINNING GENETIC ALGORITHM DOCKING 38 of 100
Run: 38 Seed: 2134372600 1415614786 [ Run 38 of 100 GA/GALS ]
Beginning LAMARCKIAN GENETIC ALGORITHM (LGA), with a maximum of 25000000 energy evaluations.

Final-Value: -8.724


	FINAL GENETIC ALGORITHM DOCKED STATE
	_______________________________________________


Detailed state:  trans -2.628 2.239 -15.802 quatxyzw 0.021505 -0.085457 -0.692571 0.715947 center 0.015 0.083 0.031 ntor 6 -172.7729 22.2576 123.6496 -14.6614 10.7600 -107.5387
State:	 -2.628   2.239 -15.802   0.031 -0.122 -0.992 88.558   -172.77   22.26  123.65  -14.66   10.76 -107.54

DOCKED: MODEL       38
DOCKED: USER    Run = 38
DOCKED: USER    DPF = D:/Protein_go_brrr/autodock/final/mut_D99N/2_3_BPG/dock.dpf
DOCKED: USER  
DOCKED: USER    Estimated Free Energy of Binding    =   -9.10 kcal/mol  [=(1)+(2)+(3)-(4)]
DOCKED: USER    Estimated Inhibition Constant, Ki   =  215.01 nM (nanomolar)  [Temperature = 298.15 K]
DOCKED: USER    
DOCKED: USER    (1) Final Intermolecular Energy     =  -10.89 kcal/mol
DOCKED: USER        vdW + Hbond + desolv Energy     =   -3.90 kcal/mol
DOCKED: USER        Electrostatic Energy            =   -6.98 kcal/mol
DOCKED: USER    (2) Final Total Internal Energy     =   +2.16 kcal/mol
DOCKED: USER    (3) Torsional Free Energy           =   +1.79 kcal/mol
DOCKED: USER    (4) Unbound System's Energy  [=(2)] =   +2.16 kcal/mol
DOCKED: USER    
DOCKED: USER    
DOCKED: USER    NEWDPF move 2_3_BPG_opt.pdbqt
DOCKED: USER    NEWDPF about 0.015000 0.083000 0.031000
DOCKED: USER    NEWDPF tran0 -2.628471 2.239427 -15.802235
DOCKED: USER    NEWDPF quaternion0 0.021505 -0.085457 -0.692571 0.715947
DOCKED: USER    NEWDPF axisangle0 0.030803 -0.122404 -0.992002 88.558325
DOCKED: USER    NEWDPF quat0 0.030803 -0.122404 -0.992002 88.558325
DOCKED: USER    NEWDPF dihe0 -172.77 22.26 123.65 -14.66 10.76 -107.54 
DOCKED: USER  keepresnum = 1 
DOCKED: USER  
DOCKED: REMARK  6 active torsions:
DOCKED: REMARK  status: ('A' for Active; 'I' for Inactive)
DOCKED: REMARK    1  A    between atoms: P_1  and  O_3 
DOCKED: REMARK    2  A    between atoms: P_2  and  O_4 
DOCKED: REMARK    3  A    between atoms: O_3  and  C_13 
DOCKED: REMARK    4  A    between atoms: O_4  and  C_14 
DOCKED: REMARK    5  A    between atoms: C_13  and  C_14 
DOCKED: REMARK    6  A    between atoms: C_13  and  C_15 
DOCKED: USER                              x       y       z     vdW  Elec       q    Type
DOCKED: USER                           _______ _______ _______ _____ _____    ______ ____
DOCKED: ROOT
DOCKED: ATOM      1  C   UNL d   1      -2.325   1.662 -15.649 -0.24 +0.24    +0.193 C 
DOCKED: ENDROOT
DOCKED: BRANCH   1   2
DOCKED: ATOM      2  O   UNL d   1      -3.206   0.560 -16.052 -0.23 -0.66    -0.356 OA
DOCKED: BRANCH   2   3
DOCKED: ATOM      3  P   UNL d   1      -3.293  -0.869 -15.243 -0.36 -0.02    -0.014 P 
DOCKED: ATOM      4  O   UNL d   1      -3.941  -1.837 -16.245 -0.07 -1.08    -0.577 OA
DOCKED: ATOM      5  O   UNL d   1      -4.183  -0.644 -14.022 -0.15 -0.50    -0.577 OA
DOCKED: ATOM      6  O   UNL d   1      -1.872  -1.297 -14.890 -0.36 -1.28    -0.638 OA
DOCKED: ENDBRANCH   2   3
DOCKED: ENDBRANCH   1   2
DOCKED: BRANCH   1   7
DOCKED: ATOM      7  C   UNL d   1      -2.880   3.002 -16.258 -0.19 +0.19    +0.201 C 
DOCKED: BRANCH   7   8
DOCKED: ATOM      8  O   UNL d   1      -4.274   3.281 -16.000 -0.16 -0.39    -0.364 OA
DOCKED: BRANCH   8   9
DOCKED: ATOM      9  P   UNL d   1      -5.056   4.461 -16.856 -0.30 -0.02    -0.015 P 
DOCKED: ATOM     10  O   UNL d   1      -4.200   5.720 -16.673 +0.03 -0.26    -0.577 OA
DOCKED: ATOM     11  O   UNL d   1      -6.443   4.619 -16.234 -0.41 -0.57    -0.577 OA
DOCKED: ATOM     12  O   UNL d   1      -5.102   4.005 -18.314 -0.37 -1.29    -0.638 OA
DOCKED: ENDBRANCH   8   9
DOCKED: ENDBRANCH   7   8
DOCKED: ENDBRANCH   1   7
DOCKED: BRANCH   1  13
DOCKED: ATOM     13  C   UNL d   1      -0.871   1.421 -16.203 -0.25 +0.10    +0.073 C 
DOCKED: ATOM     14  O   UNL d   1       0.092   1.308 -15.365 -0.70 -0.56    -0.547 OA
DOCKED: ATOM     15  O   UNL d   1      -0.747   1.287 -17.474 -0.11 -0.89    -0.547 OA
DOCKED: ENDBRANCH   1  13
DOCKED: TORSDOF 6
DOCKED: TER
DOCKED: ENDMDL
________________________________________________________________________________


	BEGINNING GENETIC ALGORITHM DOCKING 39 of 100
Run: 39 Seed: 925619454 1689554677 [ Run 39 of 100 GA/GALS ]
Beginning LAMARCKIAN GENETIC ALGORITHM (LGA), with a maximum of 25000000 energy evaluations.

Final-Value: -8.574


	FINAL GENETIC ALGORITHM DOCKED STATE
	_______________________________________________


Detailed state:  trans -5.267 -2.110 -19.224 quatxyzw 0.784040 -0.566387 0.165022 -0.193012 center 0.015 0.083 0.031 ntor 6 -13.9635 -24.1525 56.6319 7.5943 -17.1506 85.7122
State:	 -5.267  -2.110 -19.224   0.799 -0.577  0.168 -157.743    -13.96  -24.15   56.63    7.59  -17.15   85.71

DOCKED: MODEL       39
DOCKED: USER    Run = 39
DOCKED: USER    DPF = D:/Protein_go_brrr/autodock/final/mut_D99N/2_3_BPG/dock.dpf
DOCKED: USER  
DOCKED: USER    Estimated Free Energy of Binding    =   -8.92 kcal/mol  [=(1)+(2)+(3)-(4)]
DOCKED: USER    Estimated Inhibition Constant, Ki   =  287.68 nM (nanomolar)  [Temperature = 298.15 K]
DOCKED: USER    
DOCKED: USER    (1) Final Intermolecular Energy     =  -10.71 kcal/mol
DOCKED: USER        vdW + Hbond + desolv Energy     =   -4.51 kcal/mol
DOCKED: USER        Electrostatic Energy            =   -6.20 kcal/mol
DOCKED: USER    (2) Final Total Internal Energy     =   +2.14 kcal/mol
DOCKED: USER    (3) Torsional Free Energy           =   +1.79 kcal/mol
DOCKED: USER    (4) Unbound System's Energy  [=(2)] =   +2.14 kcal/mol
DOCKED: USER    
DOCKED: USER    
DOCKED: USER    NEWDPF move 2_3_BPG_opt.pdbqt
DOCKED: USER    NEWDPF about 0.015000 0.083000 0.031000
DOCKED: USER    NEWDPF tran0 -5.266991 -2.110492 -19.224224
DOCKED: USER    NEWDPF quaternion0 0.784040 -0.566387 0.165022 -0.193012
DOCKED: USER    NEWDPF axisangle0 0.799066 -0.577242 0.168184 -157.742796
DOCKED: USER    NEWDPF quat0 0.799066 -0.577242 0.168184 -157.742796
DOCKED: USER    NEWDPF dihe0 -13.96 -24.15 56.63 7.59 -17.15 85.71 
DOCKED: USER  keepresnum = 1 
DOCKED: USER  
DOCKED: REMARK  6 active torsions:
DOCKED: REMARK  status: ('A' for Active; 'I' for Inactive)
DOCKED: REMARK    1  A    between atoms: P_1  and  O_3 
DOCKED: REMARK    2  A    between atoms: P_2  and  O_4 
DOCKED: REMARK    3  A    between atoms: O_3  and  C_13 
DOCKED: REMARK    4  A    between atoms: O_4  and  C_14 
DOCKED: REMARK    5  A    between atoms: C_13  and  C_14 
DOCKED: REMARK    6  A    between atoms: C_13  and  C_15 
DOCKED: USER                              x       y       z     vdW  Elec       q    Type
DOCKED: USER                           _______ _______ _______ _____ _____    ______ ____
DOCKED: ROOT
DOCKED: ATOM      1  C   UNL d   1      -5.144  -1.584 -19.621 -0.18 +0.23    +0.193 C 
DOCKED: ENDROOT
DOCKED: BRANCH   1   2
DOCKED: ATOM      2  O   UNL d   1      -6.249  -0.630 -19.470 -0.25 -0.61    -0.356 OA
DOCKED: BRANCH   2   3
DOCKED: ATOM      3  P   UNL d   1      -7.138  -0.071 -20.735 -0.00 -0.02    -0.014 P 
DOCKED: ATOM      4  O   UNL d   1      -8.511   0.253 -20.125 -0.26 -0.69    -0.577 OA
DOCKED: ATOM      5  O   UNL d   1      -7.230  -1.200 -21.759 +0.01 -0.31    -0.577 OA
DOCKED: ATOM      6  O   UNL d   1      -6.455   1.183 -21.273 -0.35 -0.80    -0.638 OA
DOCKED: ENDBRANCH   2   3
DOCKED: ENDBRANCH   1   2
DOCKED: BRANCH   1   7
DOCKED: ATOM      7  C   UNL d   1      -5.263  -2.676 -18.495 -0.25 +0.21    +0.201 C 
DOCKED: BRANCH   7   8
DOCKED: ATOM      8  O   UNL d   1      -4.194  -2.698 -17.523 -0.41 -0.58    -0.364 OA
DOCKED: BRANCH   8   9
DOCKED: ATOM      9  P   UNL d   1      -4.371  -3.547 -16.114 -0.75 -0.02    -0.015 P 
DOCKED: ATOM     10  O   UNL d   1      -4.197  -2.509 -14.999 -0.31 -0.64    -0.577 OA
DOCKED: ATOM     11  O   UNL d   1      -3.267  -4.603 -16.088 -0.51 -0.47    -0.577 OA
DOCKED: ATOM     12  O   UNL d   1      -5.775  -4.149 -16.123 -0.67 -0.50    -0.638 OA
DOCKED: ENDBRANCH   8   9
DOCKED: ENDBRANCH   7   8
DOCKED: ENDBRANCH   1   7
DOCKED: BRANCH   1  13
DOCKED: ATOM     13  C   UNL d   1      -3.765  -0.843 -19.461 -0.08 +0.13    +0.073 C 
DOCKED: ATOM     14  O   UNL d   1      -3.660   0.066 -18.564 -0.34 -1.29    -0.547 OA
DOCKED: ATOM     15  O   UNL d   1      -2.799  -1.242 -20.207 -0.16 -0.85    -0.547 OA
DOCKED: ENDBRANCH   1  13
DOCKED: TORSDOF 6
DOCKED: TER
DOCKED: ENDMDL
________________________________________________________________________________


	BEGINNING GENETIC ALGORITHM DOCKING 40 of 100
Run: 40 Seed: 60359440 1215225688 [ Run 40 of 100 GA/GALS ]
Beginning LAMARCKIAN GENETIC ALGORITHM (LGA), with a maximum of 25000000 energy evaluations.

Final-Value: -8.400


	FINAL GENETIC ALGORITHM DOCKED STATE
	_______________________________________________


Detailed state:  trans -2.325 1.513 -17.443 quatxyzw 0.866462 0.072256 0.454096 -0.194470 center 0.015 0.083 0.031 ntor 6 150.2889 172.8328 -138.5990 1.3583 36.8333 -33.2247
State:	 -2.325   1.513 -17.443   0.883  0.074  0.463 -157.572    150.29  172.83 -138.60    1.36   36.83  -33.22

DOCKED: MODEL       40
DOCKED: USER    Run = 40
DOCKED: USER    DPF = D:/Protein_go_brrr/autodock/final/mut_D99N/2_3_BPG/dock.dpf
DOCKED: USER  
DOCKED: USER    Estimated Free Energy of Binding    =   -8.69 kcal/mol  [=(1)+(2)+(3)-(4)]
DOCKED: USER    Estimated Inhibition Constant, Ki   =  426.40 nM (nanomolar)  [Temperature = 298.15 K]
DOCKED: USER    
DOCKED: USER    (1) Final Intermolecular Energy     =  -10.48 kcal/mol
DOCKED: USER        vdW + Hbond + desolv Energy     =   -3.35 kcal/mol
DOCKED: USER        Electrostatic Energy            =   -7.13 kcal/mol
DOCKED: USER    (2) Final Total Internal Energy     =   +2.08 kcal/mol
DOCKED: USER    (3) Torsional Free Energy           =   +1.79 kcal/mol
DOCKED: USER    (4) Unbound System's Energy  [=(2)] =   +2.08 kcal/mol
DOCKED: USER    
DOCKED: USER    
DOCKED: USER    NEWDPF move 2_3_BPG_opt.pdbqt
DOCKED: USER    NEWDPF about 0.015000 0.083000 0.031000
DOCKED: USER    NEWDPF tran0 -2.325116 1.512600 -17.442684
DOCKED: USER    NEWDPF quaternion0 0.866462 0.072256 0.454096 -0.194470
DOCKED: USER    NEWDPF axisangle0 0.883326 0.073663 0.462934 -157.572419
DOCKED: USER    NEWDPF quat0 0.883326 0.073663 0.462934 -157.572419
DOCKED: USER    NEWDPF dihe0 150.29 172.83 -138.60 1.36 36.83 -33.22 
DOCKED: USER  keepresnum = 1 
DOCKED: USER  
DOCKED: REMARK  6 active torsions:
DOCKED: REMARK  status: ('A' for Active; 'I' for Inactive)
DOCKED: REMARK    1  A    between atoms: P_1  and  O_3 
DOCKED: REMARK    2  A    between atoms: P_2  and  O_4 
DOCKED: REMARK    3  A    between atoms: O_3  and  C_13 
DOCKED: REMARK    4  A    between atoms: O_4  and  C_14 
DOCKED: REMARK    5  A    between atoms: C_13  and  C_14 
DOCKED: REMARK    6  A    between atoms: C_13  and  C_15 
DOCKED: USER                              x       y       z     vdW  Elec       q    Type
DOCKED: USER                           _______ _______ _______ _____ _____    ______ ____
DOCKED: ROOT
DOCKED: ATOM      1  C   UNL d   1      -2.571   1.596 -18.061 -0.12 +0.31    +0.193 C 
DOCKED: ENDROOT
DOCKED: BRANCH   1   2
DOCKED: ATOM      2  O   UNL d   1      -3.743   0.724 -18.207 -0.06 -0.77    -0.356 OA
DOCKED: BRANCH   2   3
DOCKED: ATOM      3  P   UNL d   1      -3.964  -0.283 -19.488 -0.18 -0.02    -0.014 P 
DOCKED: ATOM      4  O   UNL d   1      -2.891   0.145 -20.501 -0.05 -0.69    -0.577 OA
DOCKED: ATOM      5  O   UNL d   1      -5.373  -0.031 -20.023 -0.23 -0.97    -0.577 OA
DOCKED: ATOM      6  O   UNL d   1      -3.743  -1.713 -19.008 -0.52 -1.36    -0.638 OA
DOCKED: ENDBRANCH   2   3
DOCKED: ENDBRANCH   1   2
DOCKED: BRANCH   1   7
DOCKED: ATOM      7  C   UNL d   1      -2.158   1.636 -16.543 -0.19 +0.29    +0.201 C 
DOCKED: BRANCH   7   8
DOCKED: ATOM      8  O   UNL d   1      -0.782   1.305 -16.256 -0.30 -0.52    -0.364 OA
DOCKED: BRANCH   8   9
DOCKED: ATOM      9  P   UNL d   1      -0.409   0.383 -14.933 -0.54 -0.02    -0.015 P 
DOCKED: ATOM     10  O   UNL d   1      -1.446  -0.746 -14.929 -0.59 -1.19    -0.577 OA
DOCKED: ATOM     11  O   UNL d   1      -0.545   1.287 -13.708 +0.05 -0.50    -0.577 OA
DOCKED: ATOM     12  O   UNL d   1       1.012  -0.142 -15.135 -0.08 -0.50    -0.638 OA
DOCKED: ENDBRANCH   8   9
DOCKED: ENDBRANCH   7   8
DOCKED: ENDBRANCH   1   7
DOCKED: BRANCH   1  13
DOCKED: ATOM     13  C   UNL d   1      -2.925   3.057 -18.526 -0.10 +0.08    +0.073 C 
DOCKED: ATOM     14  O   UNL d   1      -1.974   3.823 -18.912 +0.03 -0.34    -0.547 OA
DOCKED: ATOM     15  O   UNL d   1      -4.169   3.376 -18.549 -0.46 -0.93    -0.547 OA
DOCKED: ENDBRANCH   1  13
DOCKED: TORSDOF 6
DOCKED: TER
DOCKED: ENDMDL
________________________________________________________________________________


	BEGINNING GENETIC ALGORITHM DOCKING 41 of 100
Run: 41 Seed: 1983503148 1500981497 [ Run 41 of 100 GA/GALS ]
Beginning LAMARCKIAN GENETIC ALGORITHM (LGA), with a maximum of 25000000 energy evaluations.

Final-Value: -9.352


	FINAL GENETIC ALGORITHM DOCKED STATE
	_______________________________________________


Detailed state:  trans -4.090 -2.157 -16.776 quatxyzw -0.023583 -0.857727 0.029944 0.512691 center 0.015 0.083 0.031 ntor 6 -149.6500 -0.6913 142.8829 59.0522 -32.3927 -48.8025
State:	 -4.090  -2.157 -16.776  -0.027 -0.999  0.035 118.314   -149.65   -0.69  142.88   59.05  -32.39  -48.80

DOCKED: MODEL       41
DOCKED: USER    Run = 41
DOCKED: USER    DPF = D:/Protein_go_brrr/autodock/final/mut_D99N/2_3_BPG/dock.dpf
DOCKED: USER  
DOCKED: USER    Estimated Free Energy of Binding    =   -9.60 kcal/mol  [=(1)+(2)+(3)-(4)]
DOCKED: USER    Estimated Inhibition Constant, Ki   =   92.43 nM (nanomolar)  [Temperature = 298.15 K]
DOCKED: USER    
DOCKED: USER    (1) Final Intermolecular Energy     =  -11.39 kcal/mol
DOCKED: USER        vdW + Hbond + desolv Energy     =   -5.08 kcal/mol
DOCKED: USER        Electrostatic Energy            =   -6.31 kcal/mol
DOCKED: USER    (2) Final Total Internal Energy     =   +2.03 kcal/mol
DOCKED: USER    (3) Torsional Free Energy           =   +1.79 kcal/mol
DOCKED: USER    (4) Unbound System's Energy  [=(2)] =   +2.03 kcal/mol
DOCKED: USER    
DOCKED: USER    
DOCKED: USER    NEWDPF move 2_3_BPG_opt.pdbqt
DOCKED: USER    NEWDPF about 0.015000 0.083000 0.031000
DOCKED: USER    NEWDPF tran0 -4.090129 -2.156575 -16.775753
DOCKED: USER    NEWDPF quaternion0 -0.023583 -0.857727 0.029944 0.512691
DOCKED: USER    NEWDPF axisangle0 -0.027468 -0.999014 0.034876 118.313514
DOCKED: USER    NEWDPF quat0 -0.027468 -0.999014 0.034876 118.313514
DOCKED: USER    NEWDPF dihe0 -149.65 -0.69 142.88 59.05 -32.39 -48.80 
DOCKED: USER  keepresnum = 1 
DOCKED: USER  
DOCKED: REMARK  6 active torsions:
DOCKED: REMARK  status: ('A' for Active; 'I' for Inactive)
DOCKED: REMARK    1  A    between atoms: P_1  and  O_3 
DOCKED: REMARK    2  A    between atoms: P_2  and  O_4 
DOCKED: REMARK    3  A    between atoms: O_3  and  C_13 
DOCKED: REMARK    4  A    between atoms: O_4  and  C_14 
DOCKED: REMARK    5  A    between atoms: C_13  and  C_14 
DOCKED: REMARK    6  A    between atoms: C_13  and  C_15 
DOCKED: USER                              x       y       z     vdW  Elec       q    Type
DOCKED: USER                           _______ _______ _______ _____ _____    ______ ____
DOCKED: ROOT
DOCKED: ATOM      1  C   UNL d   1      -3.753  -2.480 -16.295 -0.05 +0.34    +0.193 C 
DOCKED: ENDROOT
DOCKED: BRANCH   1   2
DOCKED: ATOM      2  O   UNL d   1      -3.764  -1.646 -15.088 -0.36 -0.48    -0.356 OA
DOCKED: BRANCH   2   3
DOCKED: ATOM      3  P   UNL d   1      -2.865  -0.279 -14.927 -0.56 -0.02    -0.014 P 
DOCKED: ATOM      4  O   UNL d   1      -3.294   0.305 -13.572 -0.11 -0.37    -0.577 OA
DOCKED: ATOM      5  O   UNL d   1      -3.241   0.648 -16.082 -0.07 -1.05    -0.577 OA
DOCKED: ATOM      6  O   UNL d   1      -1.394  -0.680 -14.924 -0.57 -1.29    -0.638 OA
DOCKED: ENDBRANCH   2   3
DOCKED: ENDBRANCH   1   2
DOCKED: BRANCH   1   7
DOCKED: ATOM      7  C   UNL d   1      -4.773  -1.881 -17.332 +0.09 +0.33    +0.201 C 
DOCKED: BRANCH   7   8
DOCKED: ATOM      8  O   UNL d   1      -4.194  -1.285 -18.513 -0.74 -0.78    -0.364 OA
DOCKED: BRANCH   8   9
DOCKED: ATOM      9  P   UNL d   1      -5.034  -1.283 -19.939 -0.25 -0.02    -0.015 P 
DOCKED: ATOM     10  O   UNL d   1      -5.808  -2.607 -19.947 -0.00 -0.42    -0.577 OA
DOCKED: ATOM     11  O   UNL d   1      -4.002  -1.218 -21.064 -0.03 -0.50    -0.577 OA
DOCKED: ATOM     12  O   UNL d   1      -5.966  -0.073 -19.912 -0.31 -1.24    -0.638 OA
DOCKED: ENDBRANCH   8   9
DOCKED: ENDBRANCH   7   8
DOCKED: ENDBRANCH   1   7
DOCKED: BRANCH   1  13
DOCKED: ATOM     13  C   UNL d   1      -4.198  -3.948 -15.941 -0.60 +0.07    +0.073 C 
DOCKED: ATOM     14  O   UNL d   1      -3.291  -4.824 -15.715 -0.74 -0.39    -0.547 OA
DOCKED: ATOM     15  O   UNL d   1      -5.459  -4.166 -15.836 -0.76 -0.47    -0.547 OA
DOCKED: ENDBRANCH   1  13
DOCKED: TORSDOF 6
DOCKED: TER
DOCKED: ENDMDL
________________________________________________________________________________


	BEGINNING GENETIC ALGORITHM DOCKING 42 of 100
Run: 42 Seed: 505852029 943264954 [ Run 42 of 100 GA/GALS ]
Beginning LAMARCKIAN GENETIC ALGORITHM (LGA), with a maximum of 25000000 energy evaluations.

Final-Value: -9.322


	FINAL GENETIC ALGORITHM DOCKED STATE
	_______________________________________________


Detailed state:  trans -5.002 -1.784 -18.692 quatxyzw 0.063049 -0.305965 -0.772541 -0.552802 center 0.015 0.083 0.031 ntor 6 18.4712 -0.8548 -154.3663 1.2868 -77.4347 -110.7750
State:	 -5.002  -1.784 -18.692   0.076 -0.367 -0.927 -112.881     18.47   -0.85 -154.37    1.29  -77.43 -110.78

DOCKED: MODEL       42
DOCKED: USER    Run = 42
DOCKED: USER    DPF = D:/Protein_go_brrr/autodock/final/mut_D99N/2_3_BPG/dock.dpf
DOCKED: USER  
DOCKED: USER    Estimated Free Energy of Binding    =   -9.77 kcal/mol  [=(1)+(2)+(3)-(4)]
DOCKED: USER    Estimated Inhibition Constant, Ki   =   68.96 nM (nanomolar)  [Temperature = 298.15 K]
DOCKED: USER    
DOCKED: USER    (1) Final Intermolecular Energy     =  -11.56 kcal/mol
DOCKED: USER        vdW + Hbond + desolv Energy     =   -4.48 kcal/mol
DOCKED: USER        Electrostatic Energy            =   -7.08 kcal/mol
DOCKED: USER    (2) Final Total Internal Energy     =   +2.24 kcal/mol
DOCKED: USER    (3) Torsional Free Energy           =   +1.79 kcal/mol
DOCKED: USER    (4) Unbound System's Energy  [=(2)] =   +2.24 kcal/mol
DOCKED: USER    
DOCKED: USER    
DOCKED: USER    NEWDPF move 2_3_BPG_opt.pdbqt
DOCKED: USER    NEWDPF about 0.015000 0.083000 0.031000
DOCKED: USER    NEWDPF tran0 -5.002202 -1.784096 -18.692433
DOCKED: USER    NEWDPF quaternion0 0.063049 -0.305965 -0.772541 -0.552802
DOCKED: USER    NEWDPF axisangle0 0.075661 -0.367168 -0.927072 -112.881062
DOCKED: USER    NEWDPF quat0 0.075661 -0.367168 -0.927072 -112.881062
DOCKED: USER    NEWDPF dihe0 18.47 -0.85 -154.37 1.29 -77.43 -110.78 
DOCKED: USER  keepresnum = 1 
DOCKED: USER  
DOCKED: REMARK  6 active torsions:
DOCKED: REMARK  status: ('A' for Active; 'I' for Inactive)
DOCKED: REMARK    1  A    between atoms: P_1  and  O_3 
DOCKED: REMARK    2  A    between atoms: P_2  and  O_4 
DOCKED: REMARK    3  A    between atoms: O_3  and  C_13 
DOCKED: REMARK    4  A    between atoms: O_4  and  C_14 
DOCKED: REMARK    5  A    between atoms: C_13  and  C_14 
DOCKED: REMARK    6  A    between atoms: C_13  and  C_15 
DOCKED: USER                              x       y       z     vdW  Elec       q    Type
DOCKED: USER                           _______ _______ _______ _____ _____    ______ ____
DOCKED: ROOT
DOCKED: ATOM      1  C   UNL d   1      -5.074  -1.161 -18.928 +0.02 +0.30    +0.193 C 
DOCKED: ENDROOT
DOCKED: BRANCH   1   2
DOCKED: ATOM      2  O   UNL d   1      -3.743  -0.643 -19.266 -0.61 -0.72    -0.356 OA
DOCKED: BRANCH   2   3
DOCKED: ATOM      3  P   UNL d   1      -3.196   0.829 -18.778 -0.10 -0.03    -0.014 P 
DOCKED: ATOM      4  O   UNL d   1      -1.736   0.873 -19.255 -0.22 -0.99    -0.577 OA
DOCKED: ATOM      5  O   UNL d   1      -3.290   0.864 -17.254 +0.01 -1.21    -0.577 OA
DOCKED: ATOM      6  O   UNL d   1      -4.042   1.897 -19.463 -0.03 -1.10    -0.638 OA
DOCKED: ENDBRANCH   2   3
DOCKED: ENDBRANCH   1   2
DOCKED: BRANCH   1   7
DOCKED: ATOM      7  C   UNL d   1      -4.960  -2.705 -18.653 -0.25 +0.22    +0.201 C 
DOCKED: BRANCH   7   8
DOCKED: ATOM      8  O   UNL d   1      -3.903  -3.110 -17.756 -0.24 -0.56    -0.364 OA
DOCKED: BRANCH   8   9
DOCKED: ATOM      9  P   UNL d   1      -4.261  -3.584 -16.212 -0.78 -0.02    -0.015 P 
DOCKED: ATOM     10  O   UNL d   1      -5.686  -4.144 -16.287 -0.78 -0.43    -0.577 OA
DOCKED: ATOM     11  O   UNL d   1      -4.184  -2.335 -15.333 -0.26 -0.71    -0.577 OA
DOCKED: ATOM     12  O   UNL d   1      -3.243  -4.654 -15.821 -0.61 -0.50    -0.638 OA
DOCKED: ENDBRANCH   8   9
DOCKED: ENDBRANCH   7   8
DOCKED: ENDBRANCH   1   7
DOCKED: BRANCH   1  13
DOCKED: ATOM     13  C   UNL d   1      -6.062  -0.934 -20.132 -0.13 +0.09    +0.073 C 
DOCKED: ATOM     14  O   UNL d   1      -5.923  -1.654 -21.182 +0.00 -0.36    -0.547 OA
DOCKED: ATOM     15  O   UNL d   1      -7.000  -0.073 -19.962 -0.49 -1.06    -0.547 OA
DOCKED: ENDBRANCH   1  13
DOCKED: TORSDOF 6
DOCKED: TER
DOCKED: ENDMDL
________________________________________________________________________________


	BEGINNING GENETIC ALGORITHM DOCKING 43 of 100
Run: 43 Seed: 1700155714 286655686 [ Run 43 of 100 GA/GALS ]
Beginning LAMARCKIAN GENETIC ALGORITHM (LGA), with a maximum of 25000000 energy evaluations.

Final-Value: -8.542


	FINAL GENETIC ALGORITHM DOCKED STATE
	_______________________________________________


Detailed state:  trans -5.308 -2.363 -19.219 quatxyzw 0.742520 -0.592823 0.109344 -0.292007 center 0.015 0.083 0.031 ntor 6 -8.4067 -64.7934 -175.2186 28.0055 -27.2671 85.4358
State:	 -5.308  -2.363 -19.219   0.776 -0.620  0.114 -146.044     -8.41  -64.79 -175.22   28.01  -27.27   85.44

DOCKED: MODEL       43
DOCKED: USER    Run = 43
DOCKED: USER    DPF = D:/Protein_go_brrr/autodock/final/mut_D99N/2_3_BPG/dock.dpf
DOCKED: USER  
DOCKED: USER    Estimated Free Energy of Binding    =   -8.88 kcal/mol  [=(1)+(2)+(3)-(4)]
DOCKED: USER    Estimated Inhibition Constant, Ki   =  310.67 nM (nanomolar)  [Temperature = 298.15 K]
DOCKED: USER    
DOCKED: USER    (1) Final Intermolecular Energy     =  -10.67 kcal/mol
DOCKED: USER        vdW + Hbond + desolv Energy     =   -4.35 kcal/mol
DOCKED: USER        Electrostatic Energy            =   -6.31 kcal/mol
DOCKED: USER    (2) Final Total Internal Energy     =   +2.13 kcal/mol
DOCKED: USER    (3) Torsional Free Energy           =   +1.79 kcal/mol
DOCKED: USER    (4) Unbound System's Energy  [=(2)] =   +2.13 kcal/mol
DOCKED: USER    
DOCKED: USER    
DOCKED: USER    NEWDPF move 2_3_BPG_opt.pdbqt
DOCKED: USER    NEWDPF about 0.015000 0.083000 0.031000
DOCKED: USER    NEWDPF tran0 -5.308475 -2.363061 -19.219475
DOCKED: USER    NEWDPF quaternion0 0.742520 -0.592823 0.109344 -0.292007
DOCKED: USER    NEWDPF axisangle0 0.776357 -0.619838 0.114327 -146.043725
DOCKED: USER    NEWDPF quat0 0.776357 -0.619838 0.114327 -146.043725
DOCKED: USER    NEWDPF dihe0 -8.41 -64.79 -175.22 28.01 -27.27 85.44 
DOCKED: USER  keepresnum = 1 
DOCKED: USER  
DOCKED: REMARK  6 active torsions:
DOCKED: REMARK  status: ('A' for Active; 'I' for Inactive)
DOCKED: REMARK    1  A    between atoms: P_1  and  O_3 
DOCKED: REMARK    2  A    between atoms: P_2  and  O_4 
DOCKED: REMARK    3  A    between atoms: O_3  and  C_13 
DOCKED: REMARK    4  A    between atoms: O_4  and  C_14 
DOCKED: REMARK    5  A    between atoms: C_13  and  C_14 
DOCKED: REMARK    6  A    between atoms: C_13  and  C_15 
DOCKED: USER                              x       y       z     vdW  Elec       q    Type
DOCKED: USER                           _______ _______ _______ _____ _____    ______ ____
DOCKED: ROOT
DOCKED: ATOM      1  C   UNL d   1      -5.191  -1.897 -19.687 -0.18 +0.20    +0.193 C 
DOCKED: ENDROOT
DOCKED: BRANCH   1   2
DOCKED: ATOM      2  O   UNL d   1      -6.113  -0.779 -19.461 -0.24 -0.57    -0.356 OA
DOCKED: BRANCH   2   3
DOCKED: ATOM      3  P   UNL d   1      -7.444  -0.504 -20.388 -0.12 -0.02    -0.014 P 
DOCKED: ATOM      4  O   UNL d   1      -8.628  -0.804 -19.456 -0.09 -0.53    -0.577 OA
DOCKED: ATOM      5  O   UNL d   1      -7.389  -1.481 -21.560 +0.01 -0.30    -0.577 OA
DOCKED: ATOM      6  O   UNL d   1      -7.425   0.960 -20.815 -0.49 -0.96    -0.638 OA
DOCKED: ENDBRANCH   2   3
DOCKED: ENDBRANCH   1   2
DOCKED: BRANCH   1   7
DOCKED: ATOM      7  C   UNL d   1      -5.247  -2.858 -18.443 -0.26 +0.20    +0.201 C 
DOCKED: BRANCH   7   8
DOCKED: ATOM      8  O   UNL d   1      -4.031  -2.961 -17.671 -0.30 -0.57    -0.364 OA
DOCKED: BRANCH   8   9
DOCKED: ATOM      9  P   UNL d   1      -4.093  -3.414 -16.081 -0.75 -0.02    -0.015 P 
DOCKED: ATOM     10  O   UNL d   1      -5.555  -3.808 -15.835 -0.69 -0.57    -0.577 OA
DOCKED: ATOM     11  O   UNL d   1      -3.683  -2.196 -15.254 -0.18 -0.79    -0.577 OA
DOCKED: ATOM     12  O   UNL d   1      -3.143  -4.600 -15.912 -0.53 -0.52    -0.638 OA
DOCKED: ENDBRANCH   8   9
DOCKED: ENDBRANCH   7   8
DOCKED: ENDBRANCH   1   7
DOCKED: BRANCH   1  13
DOCKED: ATOM     13  C   UNL d   1      -3.720  -1.360 -19.844 -0.16 +0.11    +0.073 C 
DOCKED: ATOM     14  O   UNL d   1      -3.298  -0.480 -19.014 -0.28 -1.41    -0.547 OA
DOCKED: ATOM     15  O   UNL d   1      -3.001  -1.890 -20.767 -0.09 -0.57    -0.547 OA
DOCKED: ENDBRANCH   1  13
DOCKED: TORSDOF 6
DOCKED: TER
DOCKED: ENDMDL
________________________________________________________________________________


	BEGINNING GENETIC ALGORITHM DOCKING 44 of 100
Run: 44 Seed: 1513058604 1789902914 [ Run 44 of 100 GA/GALS ]
Beginning LAMARCKIAN GENETIC ALGORITHM (LGA), with a maximum of 25000000 energy evaluations.

Final-Value: -8.347


	FINAL GENETIC ALGORITHM DOCKED STATE
	_______________________________________________


Detailed state:  trans -2.562 1.761 -18.682 quatxyzw 0.939975 0.081261 0.331183 -0.012693 center 0.015 0.083 0.031 ntor 6 165.8606 177.8910 -66.7092 74.6328 17.7214 180.0000
State:	 -2.562   1.761 -18.682   0.940  0.081  0.331 -178.545    165.86  177.89  -66.71   74.63   17.72  180.00

DOCKED: MODEL       44
DOCKED: USER    Run = 44
DOCKED: USER    DPF = D:/Protein_go_brrr/autodock/final/mut_D99N/2_3_BPG/dock.dpf
DOCKED: USER  
DOCKED: USER    Estimated Free Energy of Binding    =   -9.02 kcal/mol  [=(1)+(2)+(3)-(4)]
DOCKED: USER    Estimated Inhibition Constant, Ki   =  245.53 nM (nanomolar)  [Temperature = 298.15 K]
DOCKED: USER    
DOCKED: USER    (1) Final Intermolecular Energy     =  -10.81 kcal/mol
DOCKED: USER        vdW + Hbond + desolv Energy     =   -2.96 kcal/mol
DOCKED: USER        Electrostatic Energy            =   -7.85 kcal/mol
DOCKED: USER    (2) Final Total Internal Energy     =   +2.46 kcal/mol
DOCKED: USER    (3) Torsional Free Energy           =   +1.79 kcal/mol
DOCKED: USER    (4) Unbound System's Energy  [=(2)] =   +2.46 kcal/mol
DOCKED: USER    
DOCKED: USER    
DOCKED: USER    NEWDPF move 2_3_BPG_opt.pdbqt
DOCKED: USER    NEWDPF about 0.015000 0.083000 0.031000
DOCKED: USER    NEWDPF tran0 -2.562498 1.761322 -18.681615
DOCKED: USER    NEWDPF quaternion0 0.939975 0.081261 0.331183 -0.012693
DOCKED: USER    NEWDPF axisangle0 0.940051 0.081268 0.331210 -178.545435
DOCKED: USER    NEWDPF quat0 0.940051 0.081268 0.331210 -178.545435
DOCKED: USER    NEWDPF dihe0 165.86 177.89 -66.71 74.63 17.72 180.00 
DOCKED: USER  keepresnum = 1 
DOCKED: USER  
DOCKED: REMARK  6 active torsions:
DOCKED: REMARK  status: ('A' for Active; 'I' for Inactive)
DOCKED: REMARK    1  A    between atoms: P_1  and  O_3 
DOCKED: REMARK    2  A    between atoms: P_2  and  O_4 
DOCKED: REMARK    3  A    between atoms: O_3  and  C_13 
DOCKED: REMARK    4  A    between atoms: O_4  and  C_14 
DOCKED: REMARK    5  A    between atoms: C_13  and  C_14 
DOCKED: REMARK    6  A    between atoms: C_13  and  C_15 
DOCKED: USER                              x       y       z     vdW  Elec       q    Type
DOCKED: USER                           _______ _______ _______ _____ _____    ______ ____
DOCKED: ROOT
DOCKED: ATOM      1  C   UNL d   1      -2.999   1.977 -19.142 -0.10 +0.25    +0.193 C 
DOCKED: ENDROOT
DOCKED: BRANCH   1   2
DOCKED: ATOM      2  O   UNL d   1      -4.091   1.002 -19.230 -0.03 -0.67    -0.356 OA
DOCKED: BRANCH   2   3
DOCKED: ATOM      3  P   UNL d   1      -3.857  -0.585 -19.591 -0.16 -0.02    -0.014 P 
DOCKED: ATOM      4  O   UNL d   1      -2.363  -0.683 -19.938 -0.11 -1.10    -0.577 OA
DOCKED: ATOM      5  O   UNL d   1      -4.736  -0.910 -20.797 -0.02 -0.56    -0.577 OA
DOCKED: ATOM      6  O   UNL d   1      -4.199  -1.406 -18.352 -0.59 -1.38    -0.638 OA
DOCKED: ENDBRANCH   2   3
DOCKED: ENDBRANCH   1   2
DOCKED: BRANCH   1   7
DOCKED: ATOM      7  C   UNL d   1      -2.125   1.644 -17.877 -0.09 +0.31    +0.201 C 
DOCKED: BRANCH   7   8
DOCKED: ATOM      8  O   UNL d   1      -2.766   0.841 -16.862 -0.07 -0.78    -0.364 OA
DOCKED: BRANCH   8   9
DOCKED: ATOM      9  P   UNL d   1      -2.188   0.847 -15.312 -0.47 -0.02    -0.015 P 
DOCKED: ATOM     10  O   UNL d   1      -3.314   1.458 -14.469 -0.04 -0.54    -0.577 OA
DOCKED: ATOM     11  O   UNL d   1      -0.933   1.719 -15.307 -0.44 -0.64    -0.577 OA
DOCKED: ATOM     12  O   UNL d   1      -1.909  -0.606 -14.929 -0.56 -1.26    -0.638 OA
DOCKED: ENDBRANCH   8   9
DOCKED: ENDBRANCH   7   8
DOCKED: ENDBRANCH   1   7
DOCKED: BRANCH   1  13
DOCKED: ATOM     13  C   UNL d   1      -3.585   3.430 -18.982 -0.07 +0.08    +0.073 C 
DOCKED: ATOM     14  O   UNL d   1      -3.016   4.391 -19.610 +0.01 -0.33    -0.547 OA
DOCKED: ATOM     15  O   UNL d   1      -4.648   3.555 -18.274 -0.23 -1.18    -0.547 OA
DOCKED: ENDBRANCH   1  13
DOCKED: TORSDOF 6
DOCKED: TER
DOCKED: ENDMDL
________________________________________________________________________________


	BEGINNING GENETIC ALGORITHM DOCKING 45 of 100
Run: 45 Seed: 181792176 1106830664 [ Run 45 of 100 GA/GALS ]
Beginning LAMARCKIAN GENETIC ALGORITHM (LGA), with a maximum of 25000000 energy evaluations.

Final-Value: -9.219


	FINAL GENETIC ALGORITHM DOCKED STATE
	_______________________________________________


Detailed state:  trans -4.892 -1.613 -18.648 quatxyzw -0.028943 -0.363553 -0.760948 -0.536609 center 0.015 0.083 0.031 ntor 6 13.8346 -133.6721 67.3590 9.6013 -48.4170 -104.8814
State:	 -4.892  -1.613 -18.648  -0.034 -0.431 -0.902 -115.094     13.83 -133.67   67.36    9.60  -48.42 -104.88

DOCKED: MODEL       45
DOCKED: USER    Run = 45
DOCKED: USER    DPF = D:/Protein_go_brrr/autodock/final/mut_D99N/2_3_BPG/dock.dpf
DOCKED: USER  
DOCKED: USER    Estimated Free Energy of Binding    =   -9.50 kcal/mol  [=(1)+(2)+(3)-(4)]
DOCKED: USER    Estimated Inhibition Constant, Ki   =  109.03 nM (nanomolar)  [Temperature = 298.15 K]
DOCKED: USER    
DOCKED: USER    (1) Final Intermolecular Energy     =  -11.29 kcal/mol
DOCKED: USER        vdW + Hbond + desolv Energy     =   -4.56 kcal/mol
DOCKED: USER        Electrostatic Energy            =   -6.72 kcal/mol
DOCKED: USER    (2) Final Total Internal Energy     =   +2.07 kcal/mol
DOCKED: USER    (3) Torsional Free Energy           =   +1.79 kcal/mol
DOCKED: USER    (4) Unbound System's Energy  [=(2)] =   +2.07 kcal/mol
DOCKED: USER    
DOCKED: USER    
DOCKED: USER    NEWDPF move 2_3_BPG_opt.pdbqt
DOCKED: USER    NEWDPF about 0.015000 0.083000 0.031000
DOCKED: USER    NEWDPF tran0 -4.891953 -1.613080 -18.648054
DOCKED: USER    NEWDPF quaternion0 -0.028943 -0.363553 -0.760948 -0.536609
DOCKED: USER    NEWDPF axisangle0 -0.034299 -0.430836 -0.901778 -115.093838
DOCKED: USER    NEWDPF quat0 -0.034299 -0.430836 -0.901778 -115.093838
DOCKED: USER    NEWDPF dihe0 13.83 -133.67 67.36 9.60 -48.42 -104.88 
DOCKED: USER  keepresnum = 1 
DOCKED: USER  
DOCKED: REMARK  6 active torsions:
DOCKED: REMARK  status: ('A' for Active; 'I' for Inactive)
DOCKED: REMARK    1  A    between atoms: P_1  and  O_3 
DOCKED: REMARK    2  A    between atoms: P_2  and  O_4 
DOCKED: REMARK    3  A    between atoms: O_3  and  C_13 
DOCKED: REMARK    4  A    between atoms: O_4  and  C_14 
DOCKED: REMARK    5  A    between atoms: C_13  and  C_14 
DOCKED: REMARK    6  A    between atoms: C_13  and  C_15 
DOCKED: USER                              x       y       z     vdW  Elec       q    Type
DOCKED: USER                           _______ _______ _______ _____ _____    ______ ____
DOCKED: ROOT
DOCKED: ATOM      1  C   UNL d   1      -4.938  -1.043 -18.997 -0.05 +0.32    +0.193 C 
DOCKED: ENDROOT
DOCKED: BRANCH   1   2
DOCKED: ATOM      2  O   UNL d   1      -3.603  -0.710 -19.508 -0.53 -0.67    -0.356 OA
DOCKED: BRANCH   2   3
DOCKED: ATOM      3  P   UNL d   1      -2.840   0.710 -19.185 -0.02 -0.03    -0.014 P 
DOCKED: ATOM      4  O   UNL d   1      -3.112   0.959 -17.693 -0.01 -1.22    -0.577 OA
DOCKED: ATOM      5  O   UNL d   1      -3.488   1.781 -20.060 -0.01 -0.69    -0.577 OA
DOCKED: ATOM      6  O   UNL d   1      -1.352   0.519 -19.459 -0.34 -1.18    -0.638 OA
DOCKED: ENDBRANCH   2   3
DOCKED: ENDBRANCH   1   2
DOCKED: BRANCH   1   7
DOCKED: ATOM      7  C   UNL d   1      -4.911  -2.510 -18.431 -0.26 +0.25    +0.201 C 
DOCKED: BRANCH   7   8
DOCKED: ATOM      8  O   UNL d   1      -3.900  -2.783 -17.435 -0.24 -0.65    -0.364 OA
DOCKED: BRANCH   8   9
DOCKED: ATOM      9  P   UNL d   1      -4.292  -3.618 -16.062 -0.76 -0.02    -0.015 P 
DOCKED: ATOM     10  O   UNL d   1      -4.204  -2.588 -14.930 -0.33 -0.63    -0.577 OA
DOCKED: ATOM     11  O   UNL d   1      -3.255  -4.730 -15.905 -0.64 -0.43    -0.577 OA
DOCKED: ATOM     12  O   UNL d   1      -5.713  -4.148 -16.246 -0.72 -0.48    -0.638 OA
DOCKED: ENDBRANCH   8   9
DOCKED: ENDBRANCH   7   8
DOCKED: ENDBRANCH   1   7
DOCKED: BRANCH   1  13
DOCKED: ATOM     13  C   UNL d   1      -5.995  -0.971 -20.162 -0.13 +0.09    +0.073 C 
DOCKED: ATOM     14  O   UNL d   1      -5.926  -1.837 -21.104 +0.00 -0.36    -0.547 OA
DOCKED: ATOM     15  O   UNL d   1      -6.911  -0.078 -20.062 -0.52 -1.02    -0.547 OA
DOCKED: ENDBRANCH   1  13
DOCKED: TORSDOF 6
DOCKED: TER
DOCKED: ENDMDL
________________________________________________________________________________


	BEGINNING GENETIC ALGORITHM DOCKING 46 of 100
Run: 46 Seed: 1631265685 54849563 [ Run 46 of 100 GA/GALS ]
Beginning LAMARCKIAN GENETIC ALGORITHM (LGA), with a maximum of 25000000 energy evaluations.

Final-Value: -9.179


	FINAL GENETIC ALGORITHM DOCKED STATE
	_______________________________________________


Detailed state:  trans -4.770 -1.785 -18.693 quatxyzw -0.093200 -0.292469 -0.748142 -0.588269 center 0.015 0.083 0.031 ntor 6 -147.0236 -151.8714 61.1410 17.4100 -56.9346 -84.5633
State:	 -4.770  -1.785 -18.693  -0.115 -0.362 -0.925 -107.932   -147.02 -151.87   61.14   17.41  -56.93  -84.56

DOCKED: MODEL       46
DOCKED: USER    Run = 46
DOCKED: USER    DPF = D:/Protein_go_brrr/autodock/final/mut_D99N/2_3_BPG/dock.dpf
DOCKED: USER  
DOCKED: USER    Estimated Free Energy of Binding    =   -9.45 kcal/mol  [=(1)+(2)+(3)-(4)]
DOCKED: USER    Estimated Inhibition Constant, Ki   =  118.99 nM (nanomolar)  [Temperature = 298.15 K]
DOCKED: USER    
DOCKED: USER    (1) Final Intermolecular Energy     =  -11.24 kcal/mol
DOCKED: USER        vdW + Hbond + desolv Energy     =   -4.56 kcal/mol
DOCKED: USER        Electrostatic Energy            =   -6.67 kcal/mol
DOCKED: USER    (2) Final Total Internal Energy     =   +2.06 kcal/mol
DOCKED: USER    (3) Torsional Free Energy           =   +1.79 kcal/mol
DOCKED: USER    (4) Unbound System's Energy  [=(2)] =   +2.06 kcal/mol
DOCKED: USER    
DOCKED: USER    
DOCKED: USER    NEWDPF move 2_3_BPG_opt.pdbqt
DOCKED: USER    NEWDPF about 0.015000 0.083000 0.031000
DOCKED: USER    NEWDPF tran0 -4.769936 -1.784768 -18.692842
DOCKED: USER    NEWDPF quaternion0 -0.093200 -0.292469 -0.748142 -0.588269
DOCKED: USER    NEWDPF axisangle0 -0.115252 -0.361668 -0.925156 -107.931517
DOCKED: USER    NEWDPF quat0 -0.115252 -0.361668 -0.925156 -107.931517
DOCKED: USER    NEWDPF dihe0 -147.02 -151.87 61.14 17.41 -56.93 -84.56 
DOCKED: USER  keepresnum = 1 
DOCKED: USER  
DOCKED: REMARK  6 active torsions:
DOCKED: REMARK  status: ('A' for Active; 'I' for Inactive)
DOCKED: REMARK    1  A    between atoms: P_1  and  O_3 
DOCKED: REMARK    2  A    between atoms: P_2  and  O_4 
DOCKED: REMARK    3  A    between atoms: O_3  and  C_13 
DOCKED: REMARK    4  A    between atoms: O_4  and  C_14 
DOCKED: REMARK    5  A    between atoms: C_13  and  C_14 
DOCKED: REMARK    6  A    between atoms: C_13  and  C_15 
DOCKED: USER                              x       y       z     vdW  Elec       q    Type
DOCKED: USER                           _______ _______ _______ _____ _____    ______ ____
DOCKED: ROOT
DOCKED: ATOM      1  C   UNL d   1      -4.910  -1.207 -19.003 -0.11 +0.30    +0.193 C 
DOCKED: ENDROOT
DOCKED: BRANCH   1   2
DOCKED: ATOM      2  O   UNL d   1      -3.728  -0.801 -19.771 -0.42 -0.58    -0.356 OA
DOCKED: BRANCH   2   3
DOCKED: ATOM      3  P   UNL d   1      -2.858   0.554 -19.439 -0.10 -0.02    -0.014 P 
DOCKED: ATOM      4  O   UNL d   1      -3.139   0.837 -17.955 -0.05 -1.25    -0.577 OA
DOCKED: ATOM      5  O   UNL d   1      -3.396   1.668 -20.335 -0.01 -0.63    -0.577 OA
DOCKED: ATOM      6  O   UNL d   1      -1.385   0.239 -19.680 -0.27 -1.20    -0.638 OA
DOCKED: ENDBRANCH   2   3
DOCKED: ENDBRANCH   1   2
DOCKED: BRANCH   1   7
DOCKED: ATOM      7  C   UNL d   1      -4.708  -2.687 -18.510 -0.26 +0.24    +0.201 C 
DOCKED: BRANCH   7   8
DOCKED: ATOM      8  O   UNL d   1      -3.788  -2.866 -17.411 -0.19 -0.66    -0.364 OA
DOCKED: BRANCH   8   9
DOCKED: ATOM      9  P   UNL d   1      -4.269  -3.668 -16.047 -0.77 -0.02    -0.015 P 
DOCKED: ATOM     10  O   UNL d   1      -4.192  -2.627 -14.924 -0.33 -0.62    -0.577 OA
DOCKED: ATOM     11  O   UNL d   1      -3.281  -4.814 -15.832 -0.71 -0.41    -0.577 OA
DOCKED: ATOM     12  O   UNL d   1      -5.699  -4.149 -16.287 -0.73 -0.47    -0.638 OA
DOCKED: ENDBRANCH   8   9
DOCKED: ENDBRANCH   7   8
DOCKED: ENDBRANCH   1   7
DOCKED: BRANCH   1  13
DOCKED: ATOM     13  C   UNL d   1      -6.192  -1.150 -19.915 -0.14 +0.09    +0.073 C 
DOCKED: ATOM     14  O   UNL d   1      -6.895  -0.080 -19.915 -0.48 -1.10    -0.547 OA
DOCKED: ATOM     15  O   UNL d   1      -6.422  -2.170 -20.661 +0.00 -0.35    -0.547 OA
DOCKED: ENDBRANCH   1  13
DOCKED: TORSDOF 6
DOCKED: TER
DOCKED: ENDMDL
________________________________________________________________________________


	BEGINNING GENETIC ALGORITHM DOCKING 47 of 100
Run: 47 Seed: 717017518 21485738 [ Run 47 of 100 GA/GALS ]
Beginning LAMARCKIAN GENETIC ALGORITHM (LGA), with a maximum of 25000000 energy evaluations.

Final-Value: -8.990


	FINAL GENETIC ALGORITHM DOCKED STATE
	_______________________________________________


Detailed state:  trans -2.291 2.525 -17.097 quatxyzw -0.890144 -0.291134 -0.335070 -0.103022 center 0.015 0.083 0.031 ntor 6 -135.4369 -116.8532 16.0892 11.0467 -59.5293 -172.2551
State:	 -2.291   2.525 -17.097  -0.895 -0.293 -0.337 -168.174   -135.44 -116.85   16.09   11.05  -59.53 -172.26

DOCKED: MODEL       47
DOCKED: USER    Run = 47
DOCKED: USER    DPF = D:/Protein_go_brrr/autodock/final/mut_D99N/2_3_BPG/dock.dpf
DOCKED: USER  
DOCKED: USER    Estimated Free Energy of Binding    =   -9.68 kcal/mol  [=(1)+(2)+(3)-(4)]
DOCKED: USER    Estimated Inhibition Constant, Ki   =   80.18 nM (nanomolar)  [Temperature = 298.15 K]
DOCKED: USER    
DOCKED: USER    (1) Final Intermolecular Energy     =  -11.47 kcal/mol
DOCKED: USER        vdW + Hbond + desolv Energy     =   -3.76 kcal/mol
DOCKED: USER        Electrostatic Energy            =   -7.71 kcal/mol
DOCKED: USER    (2) Final Total Internal Energy     =   +2.48 kcal/mol
DOCKED: USER    (3) Torsional Free Energy           =   +1.79 kcal/mol
DOCKED: USER    (4) Unbound System's Energy  [=(2)] =   +2.48 kcal/mol
DOCKED: USER    
DOCKED: USER    
DOCKED: USER    NEWDPF move 2_3_BPG_opt.pdbqt
DOCKED: USER    NEWDPF about 0.015000 0.083000 0.031000
DOCKED: USER    NEWDPF tran0 -2.291436 2.525069 -17.097053
DOCKED: USER    NEWDPF quaternion0 -0.890144 -0.291134 -0.335070 -0.103022
DOCKED: USER    NEWDPF axisangle0 -0.894906 -0.292691 -0.336862 -168.173601
DOCKED: USER    NEWDPF quat0 -0.894906 -0.292691 -0.336862 -168.173601
DOCKED: USER    NEWDPF dihe0 -135.44 -116.85 16.09 11.05 -59.53 -172.26 
DOCKED: USER  keepresnum = 1 
DOCKED: USER  
DOCKED: REMARK  6 active torsions:
DOCKED: REMARK  status: ('A' for Active; 'I' for Inactive)
DOCKED: REMARK    1  A    between atoms: P_1  and  O_3 
DOCKED: REMARK    2  A    between atoms: P_2  and  O_4 
DOCKED: REMARK    3  A    between atoms: O_3  and  C_13 
DOCKED: REMARK    4  A    between atoms: O_4  and  C_14 
DOCKED: REMARK    5  A    between atoms: C_13  and  C_14 
DOCKED: REMARK    6  A    between atoms: C_13  and  C_15 
DOCKED: USER                              x       y       z     vdW  Elec       q    Type
DOCKED: USER                           _______ _______ _______ _____ _____    ______ ____
DOCKED: ROOT
DOCKED: ATOM      1  C   UNL d   1      -2.780   2.549 -17.556 -0.13 +0.23    +0.193 C 
DOCKED: ENDROOT
DOCKED: BRANCH   1   2
DOCKED: ATOM      2  O   UNL d   1      -3.292   1.189 -17.751 -0.10 -0.69    -0.356 OA
DOCKED: BRANCH   2   3
DOCKED: ATOM      3  P   UNL d   1      -3.283   0.420 -19.205 -0.10 -0.03    -0.014 P 
DOCKED: ATOM      4  O   UNL d   1      -1.801   0.382 -19.608 -0.22 -1.06    -0.577 OA
DOCKED: ATOM      5  O   UNL d   1      -4.107   1.270 -20.170 -0.02 -0.81    -0.577 OA
DOCKED: ATOM      6  O   UNL d   1      -3.844  -0.983 -18.999 -0.57 -1.41    -0.638 OA
DOCKED: ENDBRANCH   2   3
DOCKED: ENDBRANCH   1   2
DOCKED: BRANCH   1   7
DOCKED: ATOM      7  C   UNL d   1      -1.848   2.561 -16.289 -0.18 +0.19    +0.201 C 
DOCKED: BRANCH   7   8
DOCKED: ATOM      8  O   UNL d   1      -1.913   1.389 -15.447 -0.32 -0.47    -0.364 OA
DOCKED: BRANCH   8   9
DOCKED: ATOM      9  P   UNL d   1      -0.540   0.527 -15.116 -0.39 -0.02    -0.015 P 
DOCKED: ATOM     10  O   UNL d   1      -1.036  -0.839 -14.627 -0.64 -0.92    -0.577 OA
DOCKED: ATOM     11  O   UNL d   1       0.211   1.287 -14.024 -0.43 -0.51    -0.577 OA
DOCKED: ATOM     12  O   UNL d   1       0.249   0.417 -16.420 +0.03 -0.92    -0.638 OA
DOCKED: ENDBRANCH   8   9
DOCKED: ENDBRANCH   7   8
DOCKED: ENDBRANCH   1   7
DOCKED: BRANCH   1  13
DOCKED: ATOM     13  C   UNL d   1      -3.974   3.546 -17.312 -0.07 +0.09    +0.073 C 
DOCKED: ATOM     14  O   UNL d   1      -4.613   3.994 -18.328 -0.55 -0.87    -0.547 OA
DOCKED: ATOM     15  O   UNL d   1      -4.279   3.803 -16.092 -0.07 -0.50    -0.547 OA
DOCKED: ENDBRANCH   1  13
DOCKED: TORSDOF 6
DOCKED: TER
DOCKED: ENDMDL
________________________________________________________________________________


	BEGINNING GENETIC ALGORITHM DOCKING 48 of 100
Run: 48 Seed: 2014948775 668384155 [ Run 48 of 100 GA/GALS ]
Beginning LAMARCKIAN GENETIC ALGORITHM (LGA), with a maximum of 25000000 energy evaluations.

Final-Value: -8.665


	FINAL GENETIC ALGORITHM DOCKED STATE
	_______________________________________________


Detailed state:  trans -2.323 1.941 -16.937 quatxyzw 0.493540 -0.530894 -0.134908 0.675551 center 0.015 0.083 0.031 ntor 6 -8.1009 125.8833 162.1380 55.6764 10.3141 179.6308
State:	 -2.323   1.941 -16.937   0.669 -0.720 -0.183 95.006     -8.10  125.88  162.14   55.68   10.31  179.63

DOCKED: MODEL       48
DOCKED: USER    Run = 48
DOCKED: USER    DPF = D:/Protein_go_brrr/autodock/final/mut_D99N/2_3_BPG/dock.dpf
DOCKED: USER  
DOCKED: USER    Estimated Free Energy of Binding    =   -9.14 kcal/mol  [=(1)+(2)+(3)-(4)]
DOCKED: USER    Estimated Inhibition Constant, Ki   =  198.47 nM (nanomolar)  [Temperature = 298.15 K]
DOCKED: USER    
DOCKED: USER    (1) Final Intermolecular Energy     =  -10.93 kcal/mol
DOCKED: USER        vdW + Hbond + desolv Energy     =   -3.93 kcal/mol
DOCKED: USER        Electrostatic Energy            =   -7.00 kcal/mol
DOCKED: USER    (2) Final Total Internal Energy     =   +2.27 kcal/mol
DOCKED: USER    (3) Torsional Free Energy           =   +1.79 kcal/mol
DOCKED: USER    (4) Unbound System's Energy  [=(2)] =   +2.27 kcal/mol
DOCKED: USER    
DOCKED: USER    
DOCKED: USER    NEWDPF move 2_3_BPG_opt.pdbqt
DOCKED: USER    NEWDPF about 0.015000 0.083000 0.031000
DOCKED: USER    NEWDPF tran0 -2.322933 1.940934 -16.937476
DOCKED: USER    NEWDPF quaternion0 0.493540 -0.530894 -0.134908 0.675551
DOCKED: USER    NEWDPF axisangle0 0.669376 -0.720039 -0.182973 95.006103
DOCKED: USER    NEWDPF quat0 0.669376 -0.720039 -0.182973 95.006103
DOCKED: USER    NEWDPF dihe0 -8.10 125.88 162.14 55.68 10.31 179.63 
DOCKED: USER  keepresnum = 1 
DOCKED: USER  
DOCKED: REMARK  6 active torsions:
DOCKED: REMARK  status: ('A' for Active; 'I' for Inactive)
DOCKED: REMARK    1  A    between atoms: P_1  and  O_3 
DOCKED: REMARK    2  A    between atoms: P_2  and  O_4 
DOCKED: REMARK    3  A    between atoms: O_3  and  C_13 
DOCKED: REMARK    4  A    between atoms: O_4  and  C_14 
DOCKED: REMARK    5  A    between atoms: C_13  and  C_14 
DOCKED: REMARK    6  A    between atoms: C_13  and  C_15 
DOCKED: USER                              x       y       z     vdW  Elec       q    Type
DOCKED: USER                           _______ _______ _______ _____ _____    ______ ____
DOCKED: ROOT
DOCKED: ATOM      1  C   UNL d   1      -2.283   2.068 -16.280 -0.22 +0.23    +0.193 C 
DOCKED: ENDROOT
DOCKED: BRANCH   1   2
DOCKED: ATOM      2  O   UNL d   1      -3.642   2.286 -15.773 -0.18 -0.41    -0.356 OA
DOCKED: BRANCH   2   3
DOCKED: ATOM      3  P   UNL d   1      -4.481   3.680 -16.010 -0.34 -0.01    -0.014 P 
DOCKED: ATOM      4  O   UNL d   1      -3.594   4.772 -15.393 -0.05 -0.28    -0.577 OA
DOCKED: ATOM      5  O   UNL d   1      -5.806   3.543 -15.263 -0.16 -0.49    -0.577 OA
DOCKED: ATOM      6  O   UNL d   1      -4.649   3.878 -17.513 -0.33 -1.01    -0.638 OA
DOCKED: ENDBRANCH   2   3
DOCKED: ENDBRANCH   1   2
DOCKED: BRANCH   1   7
DOCKED: ATOM      7  C   UNL d   1      -2.376   1.487 -17.739 -0.07 +0.34    +0.201 C 
DOCKED: BRANCH   7   8
DOCKED: ATOM      8  O   UNL d   1      -3.631   0.862 -18.090 -0.00 -0.78    -0.364 OA
DOCKED: BRANCH   8   9
DOCKED: ATOM      9  P   UNL d   1      -3.742  -0.067 -19.454 -0.20 -0.03    -0.015 P 
DOCKED: ATOM     10  O   UNL d   1      -2.495   0.281 -20.277 -0.06 -0.75    -0.577 OA
DOCKED: ATOM     11  O   UNL d   1      -5.030   0.343 -20.169 -0.16 -0.94    -0.577 OA
DOCKED: ATOM     12  O   UNL d   1      -3.745  -1.528 -19.006 -0.55 -1.41    -0.638 OA
DOCKED: ENDBRANCH   8   9
DOCKED: ENDBRANCH   7   8
DOCKED: ENDBRANCH   1   7
DOCKED: BRANCH   1  13
DOCKED: ATOM     13  C   UNL d   1      -1.527   1.028 -15.371 -0.34 +0.11    +0.073 C 
DOCKED: ATOM     14  O   UNL d   1      -2.142  -0.041 -15.024 -0.58 -0.98    -0.547 OA
DOCKED: ATOM     15  O   UNL d   1      -0.304   1.289 -15.081 -0.69 -0.60    -0.547 OA
DOCKED: ENDBRANCH   1  13
DOCKED: TORSDOF 6
DOCKED: TER
DOCKED: ENDMDL
________________________________________________________________________________


	BEGINNING GENETIC ALGORITHM DOCKING 49 of 100
Run: 49 Seed: 1633126475 783029189 [ Run 49 of 100 GA/GALS ]
Beginning LAMARCKIAN GENETIC ALGORITHM (LGA), with a maximum of 25000000 energy evaluations.

Final-Value: -8.636


	FINAL GENETIC ALGORITHM DOCKED STATE
	_______________________________________________


Detailed state:  trans -3.096 1.826 -17.263 quatxyzw 0.327001 0.217114 -0.852702 -0.344720 center 0.015 0.083 0.031 ntor 6 68.4498 19.5232 -19.7597 77.5209 -10.3830 -41.0061
State:	 -3.096   1.826 -17.263   0.348  0.231 -0.908 -139.671     68.45   19.52  -19.76   77.52  -10.38  -41.01

DOCKED: MODEL       49
DOCKED: USER    Run = 49
DOCKED: USER    DPF = D:/Protein_go_brrr/autodock/final/mut_D99N/2_3_BPG/dock.dpf
DOCKED: USER  
DOCKED: USER    Estimated Free Energy of Binding    =   -8.98 kcal/mol  [=(1)+(2)+(3)-(4)]
DOCKED: USER    Estimated Inhibition Constant, Ki   =  262.75 nM (nanomolar)  [Temperature = 298.15 K]
DOCKED: USER    
DOCKED: USER    (1) Final Intermolecular Energy     =  -10.77 kcal/mol
DOCKED: USER        vdW + Hbond + desolv Energy     =   -3.55 kcal/mol
DOCKED: USER        Electrostatic Energy            =   -7.22 kcal/mol
DOCKED: USER    (2) Final Total Internal Energy     =   +2.13 kcal/mol
DOCKED: USER    (3) Torsional Free Energy           =   +1.79 kcal/mol
DOCKED: USER    (4) Unbound System's Energy  [=(2)] =   +2.13 kcal/mol
DOCKED: USER    
DOCKED: USER    
DOCKED: USER    NEWDPF move 2_3_BPG_opt.pdbqt
DOCKED: USER    NEWDPF about 0.015000 0.083000 0.031000
DOCKED: USER    NEWDPF tran0 -3.096133 1.825861 -17.262653
DOCKED: USER    NEWDPF quaternion0 0.327001 0.217114 -0.852702 -0.344720
DOCKED: USER    NEWDPF axisangle0 0.348353 0.231291 -0.908380 -139.670628
DOCKED: USER    NEWDPF quat0 0.348353 0.231291 -0.908380 -139.670628
DOCKED: USER    NEWDPF dihe0 68.45 19.52 -19.76 77.52 -10.38 -41.01 
DOCKED: USER  keepresnum = 1 
DOCKED: USER  
DOCKED: REMARK  6 active torsions:
DOCKED: REMARK  status: ('A' for Active; 'I' for Inactive)
DOCKED: REMARK    1  A    between atoms: P_1  and  O_3 
DOCKED: REMARK    2  A    between atoms: P_2  and  O_4 
DOCKED: REMARK    3  A    between atoms: O_3  and  C_13 
DOCKED: REMARK    4  A    between atoms: O_4  and  C_14 
DOCKED: REMARK    5  A    between atoms: C_13  and  C_14 
DOCKED: REMARK    6  A    between atoms: C_13  and  C_15 
DOCKED: USER                              x       y       z     vdW  Elec       q    Type
DOCKED: USER                           _______ _______ _______ _____ _____    ______ ____
DOCKED: ROOT
DOCKED: ATOM      1  C   UNL d   1      -3.040   2.240 -16.739 -0.15 +0.25    +0.193 C 
DOCKED: ENDROOT
DOCKED: BRANCH   1   2
DOCKED: ATOM      2  O   UNL d   1      -1.620   2.558 -16.556 -0.12 -0.34    -0.356 OA
DOCKED: BRANCH   2   3
DOCKED: ATOM      3  P   UNL d   1      -0.454   1.413 -16.377 -0.30 -0.02    -0.014 P 
DOCKED: ATOM      4  O   UNL d   1       0.759   2.182 -15.831 -0.33 -0.44    -0.577 OA
DOCKED: ATOM      5  O   UNL d   1      -0.174   0.831 -17.761 -0.15 -1.03    -0.577 OA
DOCKED: ATOM      6  O   UNL d   1      -0.959   0.380 -15.375 -0.51 -1.14    -0.638 OA
DOCKED: ENDBRANCH   2   3
DOCKED: ENDBRANCH   1   2
DOCKED: BRANCH   1   7
DOCKED: ATOM      7  C   UNL d   1      -3.222   1.514 -18.122 -0.06 +0.35    +0.201 C 
DOCKED: BRANCH   7   8
DOCKED: ATOM      8  O   UNL d   1      -3.743   0.168 -18.065 -0.27 -0.89    -0.364 OA
DOCKED: BRANCH   8   9
DOCKED: ATOM      9  P   UNL d   1      -4.146  -0.626 -19.459 -0.22 -0.03    -0.015 P 
DOCKED: ATOM     10  O   UNL d   1      -4.217  -2.107 -19.068 -0.48 -0.89    -0.577 OA
DOCKED: ATOM     11  O   UNL d   1      -3.029  -0.354 -20.466 -0.08 -0.73    -0.577 OA
DOCKED: ATOM     12  O   UNL d   1      -5.502  -0.086 -19.910 -0.24 -1.13    -0.638 OA
DOCKED: ENDBRANCH   8   9
DOCKED: ENDBRANCH   7   8
DOCKED: ENDBRANCH   1   7
DOCKED: BRANCH   1  13
DOCKED: ATOM     13  C   UNL d   1      -3.893   3.564 -16.748 -0.20 +0.08    +0.073 C 
DOCKED: ATOM     14  O   UNL d   1      -4.616   3.818 -17.774 -0.38 -0.94    -0.547 OA
DOCKED: ATOM     15  O   UNL d   1      -3.860   4.285 -15.686 -0.07 -0.35    -0.547 OA
DOCKED: ENDBRANCH   1  13
DOCKED: TORSDOF 6
DOCKED: TER
DOCKED: ENDMDL
________________________________________________________________________________


	BEGINNING GENETIC ALGORITHM DOCKING 50 of 100
Run: 50 Seed: 5316417 1504783090 [ Run 50 of 100 GA/GALS ]
Beginning LAMARCKIAN GENETIC ALGORITHM (LGA), with a maximum of 25000000 energy evaluations.

Final-Value: -8.540


	FINAL GENETIC ALGORITHM DOCKED STATE
	_______________________________________________


Detailed state:  trans -3.000 1.768 -15.611 quatxyzw 0.133877 -0.018034 -0.728980 0.671073 center 0.015 0.083 0.031 ntor 6 -174.3614 -111.4395 92.3844 -17.6680 2.6121 -60.6439
State:	 -3.000   1.768 -15.611   0.181 -0.024 -0.983 95.700   -174.36 -111.44   92.38  -17.67    2.61  -60.64

DOCKED: MODEL       50
DOCKED: USER    Run = 50
DOCKED: USER    DPF = D:/Protein_go_brrr/autodock/final/mut_D99N/2_3_BPG/dock.dpf
DOCKED: USER  
DOCKED: USER    Estimated Free Energy of Binding    =   -8.80 kcal/mol  [=(1)+(2)+(3)-(4)]
DOCKED: USER    Estimated Inhibition Constant, Ki   =  357.07 nM (nanomolar)  [Temperature = 298.15 K]
DOCKED: USER    
DOCKED: USER    (1) Final Intermolecular Energy     =  -10.59 kcal/mol
DOCKED: USER        vdW + Hbond + desolv Energy     =   -4.30 kcal/mol
DOCKED: USER        Electrostatic Energy            =   -6.29 kcal/mol
DOCKED: USER    (2) Final Total Internal Energy     =   +2.05 kcal/mol
DOCKED: USER    (3) Torsional Free Energy           =   +1.79 kcal/mol
DOCKED: USER    (4) Unbound System's Energy  [=(2)] =   +2.05 kcal/mol
DOCKED: USER    
DOCKED: USER    
DOCKED: USER    NEWDPF move 2_3_BPG_opt.pdbqt
DOCKED: USER    NEWDPF about 0.015000 0.083000 0.031000
DOCKED: USER    NEWDPF tran0 -2.999873 1.767629 -15.610588
DOCKED: USER    NEWDPF quaternion0 0.133877 -0.018034 -0.728980 0.671073
DOCKED: USER    NEWDPF axisangle0 0.180575 -0.024325 -0.983260 95.700087
DOCKED: USER    NEWDPF quat0 0.180575 -0.024325 -0.983260 95.700087
DOCKED: USER    NEWDPF dihe0 -174.36 -111.44 92.38 -17.67 2.61 -60.64 
DOCKED: USER  keepresnum = 1 
DOCKED: USER  
DOCKED: REMARK  6 active torsions:
DOCKED: REMARK  status: ('A' for Active; 'I' for Inactive)
DOCKED: REMARK    1  A    between atoms: P_1  and  O_3 
DOCKED: REMARK    2  A    between atoms: P_2  and  O_4 
DOCKED: REMARK    3  A    between atoms: O_3  and  C_13 
DOCKED: REMARK    4  A    between atoms: O_4  and  C_14 
DOCKED: REMARK    5  A    between atoms: C_13  and  C_14 
DOCKED: REMARK    6  A    between atoms: C_13  and  C_15 
DOCKED: USER                              x       y       z     vdW  Elec       q    Type
DOCKED: USER                           _______ _______ _______ _____ _____    ______ ____
DOCKED: ROOT
DOCKED: ATOM      1  C   UNL d   1      -2.672   1.247 -15.345 -0.33 +0.25    +0.193 C 
DOCKED: ENDROOT
DOCKED: BRANCH   1   2
DOCKED: ATOM      2  O   UNL d   1      -3.280   0.014 -15.856 -0.29 -0.70    -0.356 OA
DOCKED: BRANCH   2   3
DOCKED: ATOM      3  P   UNL d   1      -3.316  -1.395 -15.007 -0.62 -0.02    -0.014 P 
DOCKED: ATOM      4  O   UNL d   1      -4.193  -1.083 -13.785 -0.05 -0.46    -0.577 OA
DOCKED: ATOM      5  O   UNL d   1      -1.879  -1.715 -14.601 -0.40 -0.90    -0.577 OA
DOCKED: ATOM      6  O   UNL d   1      -3.949  -2.462 -15.893 -0.14 -0.94    -0.638 OA
DOCKED: ENDBRANCH   2   3
DOCKED: ENDBRANCH   1   2
DOCKED: BRANCH   1   7
DOCKED: ATOM      7  C   UNL d   1      -3.227   2.465 -16.172 -0.20 +0.23    +0.201 C 
DOCKED: BRANCH   7   8
DOCKED: ATOM      8  O   UNL d   1      -4.304   3.206 -15.556 -0.21 -0.34    -0.364 OA
DOCKED: BRANCH   8   9
DOCKED: ATOM      9  P   UNL d   1      -5.061   4.417 -16.391 -0.40 -0.01    -0.015 P 
DOCKED: ATOM     10  O   UNL d   1      -4.199   5.663 -16.155 +0.01 -0.24    -0.577 OA
DOCKED: ATOM     11  O   UNL d   1      -6.458   4.567 -15.791 -0.41 -0.49    -0.577 OA
DOCKED: ATOM     12  O   UNL d   1      -5.083   4.005 -17.862 -0.32 -1.22    -0.638 OA
DOCKED: ENDBRANCH   8   9
DOCKED: ENDBRANCH   7   8
DOCKED: ENDBRANCH   1   7
DOCKED: BRANCH   1  13
DOCKED: ATOM     13  C   UNL d   1      -1.108   1.191 -15.519 -0.32 +0.10    +0.073 C 
DOCKED: ATOM     14  O   UNL d   1      -0.373   1.286 -14.474 -0.62 -0.56    -0.547 OA
DOCKED: ATOM     15  O   UNL d   1      -0.661   0.987 -16.705 +0.00 -0.99    -0.547 OA
DOCKED: ENDBRANCH   1  13
DOCKED: TORSDOF 6
DOCKED: TER
DOCKED: ENDMDL
________________________________________________________________________________


	BEGINNING GENETIC ALGORITHM DOCKING 51 of 100
Run: 51 Seed: 1026228281 1450562083 [ Run 51 of 100 GA/GALS ]
Beginning LAMARCKIAN GENETIC ALGORITHM (LGA), with a maximum of 25000000 energy evaluations.

Final-Value: -9.028


	FINAL GENETIC ALGORITHM DOCKED STATE
	_______________________________________________


Detailed state:  trans -3.078 1.912 -16.169 quatxyzw -0.068799 -0.612194 0.527868 -0.584671 center 0.015 0.083 0.031 ntor 6 -155.4977 39.8804 140.1402 32.4325 36.7549 -60.4421
State:	 -3.078   1.912 -16.169  -0.085 -0.755  0.651 -108.440   -155.50   39.88  140.14   32.43   36.75  -60.44

DOCKED: MODEL       51
DOCKED: USER    Run = 51
DOCKED: USER    DPF = D:/Protein_go_brrr/autodock/final/mut_D99N/2_3_BPG/dock.dpf
DOCKED: USER  
DOCKED: USER    Estimated Free Energy of Binding    =   -9.55 kcal/mol  [=(1)+(2)+(3)-(4)]
DOCKED: USER    Estimated Inhibition Constant, Ki   =   99.61 nM (nanomolar)  [Temperature = 298.15 K]
DOCKED: USER    
DOCKED: USER    (1) Final Intermolecular Energy     =  -11.34 kcal/mol
DOCKED: USER        vdW + Hbond + desolv Energy     =   -4.04 kcal/mol
DOCKED: USER        Electrostatic Energy            =   -7.30 kcal/mol
DOCKED: USER    (2) Final Total Internal Energy     =   +2.31 kcal/mol
DOCKED: USER    (3) Torsional Free Energy           =   +1.79 kcal/mol
DOCKED: USER    (4) Unbound System's Energy  [=(2)] =   +2.31 kcal/mol
DOCKED: USER    
DOCKED: USER    
DOCKED: USER    NEWDPF move 2_3_BPG_opt.pdbqt
DOCKED: USER    NEWDPF about 0.015000 0.083000 0.031000
DOCKED: USER    NEWDPF tran0 -3.077877 1.912484 -16.168827
DOCKED: USER    NEWDPF quaternion0 -0.068799 -0.612194 0.527868 -0.584671
DOCKED: USER    NEWDPF axisangle0 -0.084805 -0.754611 0.650669 -108.440443
DOCKED: USER    NEWDPF quat0 -0.084805 -0.754611 0.650669 -108.440443
DOCKED: USER    NEWDPF dihe0 -155.50 39.88 140.14 32.43 36.75 -60.44 
DOCKED: USER  keepresnum = 1 
DOCKED: USER  
DOCKED: REMARK  6 active torsions:
DOCKED: REMARK  status: ('A' for Active; 'I' for Inactive)
DOCKED: REMARK    1  A    between atoms: P_1  and  O_3 
DOCKED: REMARK    2  A    between atoms: P_2  and  O_4 
DOCKED: REMARK    3  A    between atoms: O_3  and  C_13 
DOCKED: REMARK    4  A    between atoms: O_4  and  C_14 
DOCKED: REMARK    5  A    between atoms: C_13  and  C_14 
DOCKED: REMARK    6  A    between atoms: C_13  and  C_15 
DOCKED: USER                              x       y       z     vdW  Elec       q    Type
DOCKED: USER                           _______ _______ _______ _____ _____    ______ ____
DOCKED: ROOT
DOCKED: ATOM      1  C   UNL d   1      -2.805   1.314 -16.297 -0.23 +0.31    +0.193 C 
DOCKED: ENDROOT
DOCKED: BRANCH   1   2
DOCKED: ATOM      2  O   UNL d   1      -2.401   1.287 -17.707 -0.08 -0.66    -0.356 OA
DOCKED: BRANCH   2   3
DOCKED: ATOM      3  P   UNL d   1      -3.291   0.566 -18.887 +0.01 -0.03    -0.014 P 
DOCKED: ATOM      4  O   UNL d   1      -2.247  -0.029 -19.845 -0.13 -1.04    -0.577 OA
DOCKED: ATOM      5  O   UNL d   1      -4.115   1.660 -19.564 -0.01 -1.00    -0.577 OA
DOCKED: ATOM      6  O   UNL d   1      -4.141  -0.522 -18.239 -0.39 -1.51    -0.638 OA
DOCKED: ENDBRANCH   2   3
DOCKED: ENDBRANCH   1   2
DOCKED: BRANCH   1   7
DOCKED: ATOM      7  C   UNL d   1      -3.174   2.792 -15.905 -0.22 +0.20    +0.201 C 
DOCKED: BRANCH   7   8
DOCKED: ATOM      8  O   UNL d   1      -4.584   3.110 -15.903 -0.12 -0.42    -0.364 OA
DOCKED: BRANCH   8   9
DOCKED: ATOM      9  P   UNL d   1      -5.105   4.570 -16.480 -0.40 -0.01    -0.015 P 
DOCKED: ATOM     10  O   UNL d   1      -4.042   5.580 -16.029 +0.01 -0.23    -0.577 OA
DOCKED: ATOM     11  O   UNL d   1      -6.463   4.845 -15.834 -0.51 -0.44    -0.577 OA
DOCKED: ATOM     12  O   UNL d   1      -5.179   4.455 -18.001 -0.42 -0.91    -0.638 OA
DOCKED: ENDBRANCH   8   9
DOCKED: ENDBRANCH   7   8
DOCKED: ENDBRANCH   1   7
DOCKED: BRANCH   1  13
DOCKED: ATOM     13  C   UNL d   1      -1.615   0.833 -15.385 -0.32 +0.11    +0.073 C 
DOCKED: ATOM     14  O   UNL d   1      -1.640  -0.363 -14.926 -0.70 -1.04    -0.547 OA
DOCKED: ATOM     15  O   UNL d   1      -0.648   1.659 -15.206 -0.52 -0.61    -0.547 OA
DOCKED: ENDBRANCH   1  13
DOCKED: TORSDOF 6
DOCKED: TER
DOCKED: ENDMDL
________________________________________________________________________________


	BEGINNING GENETIC ALGORITHM DOCKING 52 of 100
Run: 52 Seed: 31573654 1769875184 [ Run 52 of 100 GA/GALS ]
Beginning LAMARCKIAN GENETIC ALGORITHM (LGA), with a maximum of 25000000 energy evaluations.

Final-Value: -8.889


	FINAL GENETIC ALGORITHM DOCKED STATE
	_______________________________________________


Detailed state:  trans -2.635 1.978 -17.682 quatxyzw -0.835843 -0.064159 -0.543727 0.040140 center 0.015 0.083 0.031 ntor 6 151.5315 -178.4526 -159.0038 42.9436 -4.1711 -72.7658
State:	 -2.635   1.978 -17.682  -0.837 -0.064 -0.544 175.399    151.53 -178.45 -159.00   42.94   -4.17  -72.77

DOCKED: MODEL       52
DOCKED: USER    Run = 52
DOCKED: USER    DPF = D:/Protein_go_brrr/autodock/final/mut_D99N/2_3_BPG/dock.dpf
DOCKED: USER  
DOCKED: USER    Estimated Free Energy of Binding    =   -9.20 kcal/mol  [=(1)+(2)+(3)-(4)]
DOCKED: USER    Estimated Inhibition Constant, Ki   =  180.51 nM (nanomolar)  [Temperature = 298.15 K]
DOCKED: USER    
DOCKED: USER    (1) Final Intermolecular Energy     =  -10.99 kcal/mol
DOCKED: USER        vdW + Hbond + desolv Energy     =   -3.47 kcal/mol
DOCKED: USER        Electrostatic Energy            =   -7.51 kcal/mol
DOCKED: USER    (2) Final Total Internal Energy     =   +2.10 kcal/mol
DOCKED: USER    (3) Torsional Free Energy           =   +1.79 kcal/mol
DOCKED: USER    (4) Unbound System's Energy  [=(2)] =   +2.10 kcal/mol
DOCKED: USER    
DOCKED: USER    
DOCKED: USER    NEWDPF move 2_3_BPG_opt.pdbqt
DOCKED: USER    NEWDPF about 0.015000 0.083000 0.031000
DOCKED: USER    NEWDPF tran0 -2.634973 1.978086 -17.682075
DOCKED: USER    NEWDPF quaternion0 -0.835843 -0.064159 -0.543727 0.040140
DOCKED: USER    NEWDPF axisangle0 -0.836517 -0.064211 -0.544166 175.399112
DOCKED: USER    NEWDPF quat0 -0.836517 -0.064211 -0.544166 175.399112
DOCKED: USER    NEWDPF dihe0 151.53 -178.45 -159.00 42.94 -4.17 -72.77 
DOCKED: USER  keepresnum = 1 
DOCKED: USER  
DOCKED: REMARK  6 active torsions:
DOCKED: REMARK  status: ('A' for Active; 'I' for Inactive)
DOCKED: REMARK    1  A    between atoms: P_1  and  O_3 
DOCKED: REMARK    2  A    between atoms: P_2  and  O_4 
DOCKED: REMARK    3  A    between atoms: O_3  and  C_13 
DOCKED: REMARK    4  A    between atoms: O_4  and  C_14 
DOCKED: REMARK    5  A    between atoms: C_13  and  C_14 
DOCKED: REMARK    6  A    between atoms: C_13  and  C_15 
DOCKED: USER                              x       y       z     vdW  Elec       q    Type
DOCKED: USER                           _______ _______ _______ _____ _____    ______ ____
DOCKED: ROOT
DOCKED: ATOM      1  C   UNL d   1      -2.804   2.198 -18.292 -0.11 +0.26    +0.193 C 
DOCKED: ENDROOT
DOCKED: BRANCH   1   2
DOCKED: ATOM      2  O   UNL d   1      -3.762   1.249 -18.871 -0.07 -0.66    -0.356 OA
DOCKED: BRANCH   2   3
DOCKED: ATOM      3  P   UNL d   1      -3.311  -0.057 -19.762 -0.15 -0.02    -0.014 P 
DOCKED: ATOM      4  O   UNL d   1      -1.781   0.049 -19.851 -0.21 -1.04    -0.577 OA
DOCKED: ATOM      5  O   UNL d   1      -3.965   0.084 -21.135 -0.00 -0.54    -0.577 OA
DOCKED: ATOM      6  O   UNL d   1      -3.743  -1.312 -19.010 -0.56 -1.44    -0.638 OA
DOCKED: ENDBRANCH   2   3
DOCKED: ENDBRANCH   1   2
DOCKED: BRANCH   1   7
DOCKED: ATOM      7  C   UNL d   1      -2.620   1.862 -16.766 -0.20 +0.28    +0.201 C 
DOCKED: BRANCH   7   8
DOCKED: ATOM      8  O   UNL d   1      -1.619   0.867 -16.457 -0.03 -0.79    -0.364 OA
DOCKED: BRANCH   8   9
DOCKED: ATOM      9  P   UNL d   1      -1.320   0.454 -14.883 -0.45 -0.02    -0.015 P 
DOCKED: ATOM     10  O   UNL d   1      -2.599   0.823 -14.123 -0.13 -0.52    -0.577 OA
DOCKED: ATOM     11  O   UNL d   1      -0.123   1.286 -14.424 -0.62 -0.58    -0.577 OA
DOCKED: ATOM     12  O   UNL d   1      -1.049  -1.050 -14.855 -0.45 -1.22    -0.638 OA
DOCKED: ENDBRANCH   8   9
DOCKED: ENDBRANCH   7   8
DOCKED: ENDBRANCH   1   7
DOCKED: BRANCH   1  13
DOCKED: ATOM     13  C   UNL d   1      -3.355   3.667 -18.422 -0.09 +0.07    +0.073 C 
DOCKED: ATOM     14  O   UNL d   1      -2.516   4.635 -18.440 +0.03 -0.30    -0.547 OA
DOCKED: ATOM     15  O   UNL d   1      -4.624   3.803 -18.566 -0.45 -1.00    -0.547 OA
DOCKED: ENDBRANCH   1  13
DOCKED: TORSDOF 6
DOCKED: TER
DOCKED: ENDMDL
________________________________________________________________________________


	BEGINNING GENETIC ALGORITHM DOCKING 53 of 100
Run: 53 Seed: 1271175624 736309109 [ Run 53 of 100 GA/GALS ]
Beginning LAMARCKIAN GENETIC ALGORITHM (LGA), with a maximum of 25000000 energy evaluations.

Final-Value: -8.202


	FINAL GENETIC ALGORITHM DOCKED STATE
	_______________________________________________


Detailed state:  trans -2.613 1.696 -17.176 quatxyzw -0.841360 -0.204097 0.443808 0.231284 center 0.015 0.083 0.031 ntor 6 160.7622 166.3909 100.2382 52.3699 95.7062 2.1139
State:	 -2.613   1.696 -17.176  -0.865 -0.210  0.456 153.255    160.76  166.39  100.24   52.37   95.71    2.11

DOCKED: MODEL       53
DOCKED: USER    Run = 53
DOCKED: USER    DPF = D:/Protein_go_brrr/autodock/final/mut_D99N/2_3_BPG/dock.dpf
DOCKED: USER  
DOCKED: USER    Estimated Free Energy of Binding    =   -8.88 kcal/mol  [=(1)+(2)+(3)-(4)]
DOCKED: USER    Estimated Inhibition Constant, Ki   =  309.22 nM (nanomolar)  [Temperature = 298.15 K]
DOCKED: USER    
DOCKED: USER    (1) Final Intermolecular Energy     =  -10.67 kcal/mol
DOCKED: USER        vdW + Hbond + desolv Energy     =   -3.03 kcal/mol
DOCKED: USER        Electrostatic Energy            =   -7.64 kcal/mol
DOCKED: USER    (2) Final Total Internal Energy     =   +2.47 kcal/mol
DOCKED: USER    (3) Torsional Free Energy           =   +1.79 kcal/mol
DOCKED: USER    (4) Unbound System's Energy  [=(2)] =   +2.47 kcal/mol
DOCKED: USER    
DOCKED: USER    
DOCKED: USER    NEWDPF move 2_3_BPG_opt.pdbqt
DOCKED: USER    NEWDPF about 0.015000 0.083000 0.031000
DOCKED: USER    NEWDPF tran0 -2.612971 1.695988 -17.175589
DOCKED: USER    NEWDPF quaternion0 -0.841360 -0.204097 0.443808 0.231284
DOCKED: USER    NEWDPF axisangle0 -0.864808 -0.209785 0.456176 153.254659
DOCKED: USER    NEWDPF quat0 -0.864808 -0.209785 0.456176 153.254659
DOCKED: USER    NEWDPF dihe0 160.76 166.39 100.24 52.37 95.71 2.11 
DOCKED: USER  keepresnum = 1 
DOCKED: USER  
DOCKED: REMARK  6 active torsions:
DOCKED: REMARK  status: ('A' for Active; 'I' for Inactive)
DOCKED: REMARK    1  A    between atoms: P_1  and  O_3 
DOCKED: REMARK    2  A    between atoms: P_2  and  O_4 
DOCKED: REMARK    3  A    between atoms: O_3  and  C_13 
DOCKED: REMARK    4  A    between atoms: O_4  and  C_14 
DOCKED: REMARK    5  A    between atoms: C_13  and  C_14 
DOCKED: REMARK    6  A    between atoms: C_13  and  C_15 
DOCKED: USER                              x       y       z     vdW  Elec       q    Type
DOCKED: USER                           _______ _______ _______ _____ _____    ______ ____
DOCKED: ROOT
DOCKED: ATOM      1  C   UNL d   1      -3.151   1.815 -16.794 -0.07 +0.29    +0.193 C 
DOCKED: ENDROOT
DOCKED: BRANCH   1   2
DOCKED: ATOM      2  O   UNL d   1      -2.843   1.390 -15.424 -0.25 -0.45    -0.356 OA
DOCKED: BRANCH   2   3
DOCKED: ATOM      3  P   UNL d   1      -2.904  -0.177 -14.929 -0.60 -0.02    -0.014 P 
DOCKED: ATOM      4  O   UNL d   1      -3.744  -0.885 -16.003 -0.04 -1.16    -0.577 OA
DOCKED: ATOM      5  O   UNL d   1      -3.601  -0.195 -13.569 -0.09 -0.39    -0.577 OA
DOCKED: ATOM      6  O   UNL d   1      -1.478  -0.715 -14.888 -0.57 -1.28    -0.638 OA
DOCKED: ENDBRANCH   2   3
DOCKED: ENDBRANCH   1   2
DOCKED: BRANCH   1   7
DOCKED: ATOM      7  C   UNL d   1      -1.821   1.818 -17.633 -0.13 +0.28    +0.201 C 
DOCKED: BRANCH   7   8
DOCKED: ATOM      8  O   UNL d   1      -1.981   1.804 -19.069 -0.07 -0.44    -0.364 OA
DOCKED: BRANCH   8   9
DOCKED: ATOM      9  P   UNL d   1      -2.278   0.380 -19.857 -0.07 -0.02    -0.015 P 
DOCKED: ATOM     10  O   UNL d   1      -0.920  -0.329 -19.926 -0.39 -1.03    -0.577 OA
DOCKED: ATOM     11  O   UNL d   1      -2.805   0.741 -21.246 +0.01 -0.46    -0.577 OA
DOCKED: ATOM     12  O   UNL d   1      -3.290  -0.397 -19.017 -0.26 -1.61    -0.638 OA
DOCKED: ENDBRANCH   8   9
DOCKED: ENDBRANCH   7   8
DOCKED: ENDBRANCH   1   7
DOCKED: BRANCH   1  13
DOCKED: ATOM     13  C   UNL d   1      -3.746   3.272 -16.786 -0.18 +0.08    +0.073 C 
DOCKED: ATOM     14  O   UNL d   1      -4.644   3.570 -17.650 -0.28 -1.06    -0.547 OA
DOCKED: ATOM     15  O   UNL d   1      -3.335   4.064 -15.863 -0.06 -0.37    -0.547 OA
DOCKED: ENDBRANCH   1  13
DOCKED: TORSDOF 6
DOCKED: TER
DOCKED: ENDMDL
________________________________________________________________________________


	BEGINNING GENETIC ALGORITHM DOCKING 54 of 100
Run: 54 Seed: 352277582 1397930125 [ Run 54 of 100 GA/GALS ]
Beginning LAMARCKIAN GENETIC ALGORITHM (LGA), with a maximum of 25000000 energy evaluations.

Final-Value: -8.933


	FINAL GENETIC ALGORITHM DOCKED STATE
	_______________________________________________


Detailed state:  trans -3.118 2.324 -16.195 quatxyzw 0.062680 0.658693 -0.457219 0.594261 center 0.015 0.083 0.031 ntor 6 8.6049 64.4874 -118.0204 1.5304 69.7887 -55.2758
State:	 -3.118   2.324 -16.195   0.078  0.819 -0.568 107.080      8.60   64.49 -118.02    1.53   69.79  -55.28

DOCKED: MODEL       54
DOCKED: USER    Run = 54
DOCKED: USER    DPF = D:/Protein_go_brrr/autodock/final/mut_D99N/2_3_BPG/dock.dpf
DOCKED: USER  
DOCKED: USER    Estimated Free Energy of Binding    =   -9.54 kcal/mol  [=(1)+(2)+(3)-(4)]
DOCKED: USER    Estimated Inhibition Constant, Ki   =  100.88 nM (nanomolar)  [Temperature = 298.15 K]
DOCKED: USER    
DOCKED: USER    (1) Final Intermolecular Energy     =  -11.33 kcal/mol
DOCKED: USER        vdW + Hbond + desolv Energy     =   -3.93 kcal/mol
DOCKED: USER        Electrostatic Energy            =   -7.40 kcal/mol
DOCKED: USER    (2) Final Total Internal Energy     =   +2.40 kcal/mol
DOCKED: USER    (3) Torsional Free Energy           =   +1.79 kcal/mol
DOCKED: USER    (4) Unbound System's Energy  [=(2)] =   +2.40 kcal/mol
DOCKED: USER    
DOCKED: USER    
DOCKED: USER    NEWDPF move 2_3_BPG_opt.pdbqt
DOCKED: USER    NEWDPF about 0.015000 0.083000 0.031000
DOCKED: USER    NEWDPF tran0 -3.117831 2.324066 -16.194790
DOCKED: USER    NEWDPF quaternion0 0.062680 0.658693 -0.457219 0.594261
DOCKED: USER    NEWDPF axisangle0 0.077933 0.818992 -0.568488 107.080109
DOCKED: USER    NEWDPF quat0 0.077933 0.818992 -0.568488 107.080109
DOCKED: USER    NEWDPF dihe0 8.60 64.49 -118.02 1.53 69.79 -55.28 
DOCKED: USER  keepresnum = 1 
DOCKED: USER  
DOCKED: REMARK  6 active torsions:
DOCKED: REMARK  status: ('A' for Active; 'I' for Inactive)
DOCKED: REMARK    1  A    between atoms: P_1  and  O_3 
DOCKED: REMARK    2  A    between atoms: P_2  and  O_4 
DOCKED: REMARK    3  A    between atoms: O_3  and  C_13 
DOCKED: REMARK    4  A    between atoms: O_4  and  C_14 
DOCKED: REMARK    5  A    between atoms: C_13  and  C_14 
DOCKED: REMARK    6  A    between atoms: C_13  and  C_15 
DOCKED: USER                              x       y       z     vdW  Elec       q    Type
DOCKED: USER                           _______ _______ _______ _____ _____    ______ ____
DOCKED: ROOT
DOCKED: ATOM      1  C   UNL d   1      -2.885   1.729 -16.397 -0.21 +0.27    +0.193 C 
DOCKED: ENDROOT
DOCKED: BRANCH   1   2
DOCKED: ATOM      2  O   UNL d   1      -2.412   1.869 -17.779 -0.08 -0.51    -0.356 OA
DOCKED: BRANCH   2   3
DOCKED: ATOM      3  P   UNL d   1      -2.834   0.836 -18.987 -0.10 -0.03    -0.014 P 
DOCKED: ATOM      4  O   UNL d   1      -1.500   0.241 -19.466 -0.18 -1.24    -0.577 OA
DOCKED: ATOM      5  O   UNL d   1      -3.504   1.667 -20.080 -0.01 -0.70    -0.577 OA
DOCKED: ATOM      6  O   UNL d   1      -3.744  -0.235 -18.394 -0.34 -1.61    -0.638 OA
DOCKED: ENDBRANCH   2   3
DOCKED: ENDBRANCH   1   2
DOCKED: BRANCH   1   7
DOCKED: ATOM      7  C   UNL d   1      -3.161   3.162 -15.810 -0.18 +0.18    +0.201 C 
DOCKED: BRANCH   7   8
DOCKED: ATOM      8  O   UNL d   1      -4.551   3.545 -15.711 -0.21 -0.33    -0.364 OA
DOCKED: BRANCH   8   9
DOCKED: ATOM      9  P   UNL d   1      -5.179   4.665 -16.754 -0.35 -0.01    -0.015 P 
DOCKED: ATOM     10  O   UNL d   1      -5.085   4.017 -18.140 -0.38 -1.15    -0.577 OA
DOCKED: ATOM     11  O   UNL d   1      -4.304   5.914 -16.647 +0.03 -0.23    -0.577 OA
DOCKED: ATOM     12  O   UNL d   1      -6.627   4.911 -16.333 -0.43 -0.59    -0.638 OA
DOCKED: ENDBRANCH   8   9
DOCKED: ENDBRANCH   7   8
DOCKED: ENDBRANCH   1   7
DOCKED: BRANCH   1  13
DOCKED: ATOM     13  C   UNL d   1      -1.782   1.028 -15.518 -0.28 +0.11    +0.073 C 
DOCKED: ATOM     14  O   UNL d   1      -0.653   1.615 -15.372 -0.55 -0.62    -0.547 OA
DOCKED: ATOM     15  O   UNL d   1      -2.109  -0.072 -14.943 -0.64 -0.93    -0.547 OA
DOCKED: ENDBRANCH   1  13
DOCKED: TORSDOF 6
DOCKED: TER
DOCKED: ENDMDL
________________________________________________________________________________


	BEGINNING GENETIC ALGORITHM DOCKING 55 of 100
Run: 55 Seed: 157295315 356919111 [ Run 55 of 100 GA/GALS ]
Beginning LAMARCKIAN GENETIC ALGORITHM (LGA), with a maximum of 25000000 energy evaluations.

Final-Value: -8.852


	FINAL GENETIC ALGORITHM DOCKED STATE
	_______________________________________________


Detailed state:  trans -2.979 1.894 -16.165 quatxyzw 0.047926 0.662654 -0.514177 0.542415 center 0.015 0.083 0.031 ntor 6 -159.7301 39.4739 -113.9366 34.2421 -46.8364 -100.7072
State:	 -2.979   1.894 -16.165   0.057  0.789 -0.612 114.304   -159.73   39.47 -113.94   34.24  -46.84 -100.71

DOCKED: MODEL       55
DOCKED: USER    Run = 55
DOCKED: USER    DPF = D:/Protein_go_brrr/autodock/final/mut_D99N/2_3_BPG/dock.dpf
DOCKED: USER  
DOCKED: USER    Estimated Free Energy of Binding    =   -9.22 kcal/mol  [=(1)+(2)+(3)-(4)]
DOCKED: USER    Estimated Inhibition Constant, Ki   =  175.61 nM (nanomolar)  [Temperature = 298.15 K]
DOCKED: USER    
DOCKED: USER    (1) Final Intermolecular Energy     =  -11.01 kcal/mol
DOCKED: USER        vdW + Hbond + desolv Energy     =   -3.99 kcal/mol
DOCKED: USER        Electrostatic Energy            =   -7.02 kcal/mol
DOCKED: USER    (2) Final Total Internal Energy     =   +2.15 kcal/mol
DOCKED: USER    (3) Torsional Free Energy           =   +1.79 kcal/mol
DOCKED: USER    (4) Unbound System's Energy  [=(2)] =   +2.15 kcal/mol
DOCKED: USER    
DOCKED: USER    
DOCKED: USER    NEWDPF move 2_3_BPG_opt.pdbqt
DOCKED: USER    NEWDPF about 0.015000 0.083000 0.031000
DOCKED: USER    NEWDPF tran0 -2.978923 1.893761 -16.165236
DOCKED: USER    NEWDPF quaternion0 0.047926 0.662654 -0.514177 0.542415
DOCKED: USER    NEWDPF axisangle0 0.057048 0.788770 -0.612036 114.303578
DOCKED: USER    NEWDPF quat0 0.057048 0.788770 -0.612036 114.303578
DOCKED: USER    NEWDPF dihe0 -159.73 39.47 -113.94 34.24 -46.84 -100.71 
DOCKED: USER  keepresnum = 1 
DOCKED: USER  
DOCKED: REMARK  6 active torsions:
DOCKED: REMARK  status: ('A' for Active; 'I' for Inactive)
DOCKED: REMARK    1  A    between atoms: P_1  and  O_3 
DOCKED: REMARK    2  A    between atoms: P_2  and  O_4 
DOCKED: REMARK    3  A    between atoms: O_3  and  C_13 
DOCKED: REMARK    4  A    between atoms: O_4  and  C_14 
DOCKED: REMARK    5  A    between atoms: C_13  and  C_14 
DOCKED: REMARK    6  A    between atoms: C_13  and  C_15 
DOCKED: USER                              x       y       z     vdW  Elec       q    Type
DOCKED: USER                           _______ _______ _______ _____ _____    ______ ____
DOCKED: ROOT
DOCKED: ATOM      1  C   UNL d   1      -2.658   1.326 -16.318 -0.22 +0.31    +0.193 C 
DOCKED: ENDROOT
DOCKED: BRANCH   1   2
DOCKED: ATOM      2  O   UNL d   1      -2.131   1.450 -17.682 -0.08 -0.62    -0.356 OA
DOCKED: BRANCH   2   3
DOCKED: ATOM      3  P   UNL d   1      -2.888   0.828 -19.002 -0.11 -0.03    -0.014 P 
DOCKED: ATOM      4  O   UNL d   1      -1.743   0.369 -19.919 -0.27 -0.89    -0.577 OA
DOCKED: ATOM      5  O   UNL d   1      -3.695   1.959 -19.636 -0.05 -0.82    -0.577 OA
DOCKED: ATOM      6  O   UNL d   1      -3.744  -0.348 -18.544 -0.43 -1.60    -0.638 OA
DOCKED: ENDBRANCH   2   3
DOCKED: ENDBRANCH   1   2
DOCKED: BRANCH   1   7
DOCKED: ATOM      7  C   UNL d   1      -3.155   2.739 -15.838 -0.22 +0.20    +0.201 C 
DOCKED: BRANCH   7   8
DOCKED: ATOM      8  O   UNL d   1      -4.182   3.354 -16.647 -0.16 -0.46    -0.364 OA
DOCKED: BRANCH   8   9
DOCKED: ATOM      9  P   UNL d   1      -5.475   4.092 -15.926 -0.44 -0.01    -0.015 P 
DOCKED: ATOM     10  O   UNL d   1      -4.893   5.330 -15.233 -0.08 -0.21    -0.577 OA
DOCKED: ATOM     11  O   UNL d   1      -6.055   3.095 -14.923 -0.13 -0.46    -0.577 OA
DOCKED: ATOM     12  O   UNL d   1      -6.458   4.464 -17.035 -0.25 -0.88    -0.638 OA
DOCKED: ENDBRANCH   8   9
DOCKED: ENDBRANCH   7   8
DOCKED: ENDBRANCH   1   7
DOCKED: BRANCH   1  13
DOCKED: ATOM     13  C   UNL d   1      -1.523   0.833 -15.344 -0.33 +0.11    +0.073 C 
DOCKED: ATOM     14  O   UNL d   1      -1.558  -0.379 -14.929 -0.70 -1.05    -0.547 OA
DOCKED: ATOM     15  O   UNL d   1      -0.586   1.666 -15.072 -0.51 -0.61    -0.547 OA
DOCKED: ENDBRANCH   1  13
DOCKED: TORSDOF 6
DOCKED: TER
DOCKED: ENDMDL
________________________________________________________________________________


	BEGINNING GENETIC ALGORITHM DOCKING 56 of 100
Run: 56 Seed: 2096114650 141328475 [ Run 56 of 100 GA/GALS ]
Beginning LAMARCKIAN GENETIC ALGORITHM (LGA), with a maximum of 25000000 energy evaluations.

Final-Value: -8.968


	FINAL GENETIC ALGORITHM DOCKED STATE
	_______________________________________________


Detailed state:  trans -2.963 1.936 -16.421 quatxyzw -0.140287 -0.576773 0.538125 -0.598393 center 0.015 0.083 0.031 ntor 6 -150.9463 29.3725 114.1720 37.7291 42.5413 -38.6011
State:	 -2.963   1.936 -16.421  -0.175 -0.720  0.672 -106.490   -150.95   29.37  114.17   37.73   42.54  -38.60

DOCKED: MODEL       56
DOCKED: USER    Run = 56
DOCKED: USER    DPF = D:/Protein_go_brrr/autodock/final/mut_D99N/2_3_BPG/dock.dpf
DOCKED: USER  
DOCKED: USER    Estimated Free Energy of Binding    =   -9.50 kcal/mol  [=(1)+(2)+(3)-(4)]
DOCKED: USER    Estimated Inhibition Constant, Ki   =  108.61 nM (nanomolar)  [Temperature = 298.15 K]
DOCKED: USER    
DOCKED: USER    (1) Final Intermolecular Energy     =  -11.29 kcal/mol
DOCKED: USER        vdW + Hbond + desolv Energy     =   -3.78 kcal/mol
DOCKED: USER        Electrostatic Energy            =   -7.51 kcal/mol
DOCKED: USER    (2) Final Total Internal Energy     =   +2.32 kcal/mol
DOCKED: USER    (3) Torsional Free Energy           =   +1.79 kcal/mol
DOCKED: USER    (4) Unbound System's Energy  [=(2)] =   +2.32 kcal/mol
DOCKED: USER    
DOCKED: USER    
DOCKED: USER    NEWDPF move 2_3_BPG_opt.pdbqt
DOCKED: USER    NEWDPF about 0.015000 0.083000 0.031000
DOCKED: USER    NEWDPF tran0 -2.962806 1.935784 -16.420568
DOCKED: USER    NEWDPF quaternion0 -0.140287 -0.576773 0.538125 -0.598393
DOCKED: USER    NEWDPF axisangle0 -0.175095 -0.719884 0.671646 -106.490230
DOCKED: USER    NEWDPF quat0 -0.175095 -0.719884 0.671646 -106.490230
DOCKED: USER    NEWDPF dihe0 -150.95 29.37 114.17 37.73 42.54 -38.60 
DOCKED: USER  keepresnum = 1 
DOCKED: USER  
DOCKED: REMARK  6 active torsions:
DOCKED: REMARK  status: ('A' for Active; 'I' for Inactive)
DOCKED: REMARK    1  A    between atoms: P_1  and  O_3 
DOCKED: REMARK    2  A    between atoms: P_2  and  O_4 
DOCKED: REMARK    3  A    between atoms: O_3  and  C_13 
DOCKED: REMARK    4  A    between atoms: O_4  and  C_14 
DOCKED: REMARK    5  A    between atoms: C_13  and  C_14 
DOCKED: REMARK    6  A    between atoms: C_13  and  C_15 
DOCKED: USER                              x       y       z     vdW  Elec       q    Type
DOCKED: USER                           _______ _______ _______ _____ _____    ______ ____
DOCKED: ROOT
DOCKED: ATOM      1  C   UNL d   1      -2.747   1.302 -16.463 -0.21 +0.32    +0.193 C 
DOCKED: ENDROOT
DOCKED: BRANCH   1   2
DOCKED: ATOM      2  O   UNL d   1      -2.334   1.052 -17.849 +0.05 -0.75    -0.356 OA
DOCKED: BRANCH   2   3
DOCKED: ATOM      3  P   UNL d   1      -3.324   0.382 -18.978 +0.01 -0.03    -0.014 P 
DOCKED: ATOM      4  O   UNL d   1      -2.366  -0.269 -19.989 -0.13 -1.00    -0.577 OA
DOCKED: ATOM      5  O   UNL d   1      -4.122   1.519 -19.613 -0.01 -0.99    -0.577 OA
DOCKED: ATOM      6  O   UNL d   1      -4.196  -0.658 -18.283 -0.47 -1.46    -0.638 OA
DOCKED: ENDBRANCH   2   3
DOCKED: ENDBRANCH   1   2
DOCKED: BRANCH   1   7
DOCKED: ATOM      7  C   UNL d   1      -2.977   2.847 -16.276 -0.20 +0.20    +0.201 C 
DOCKED: BRANCH   7   8
DOCKED: ATOM      8  O   UNL d   1      -4.303   3.242 -15.859 -0.18 -0.38    -0.364 OA
DOCKED: BRANCH   8   9
DOCKED: ATOM      9  P   UNL d   1      -5.067   4.504 -16.606 -0.37 -0.01    -0.015 P 
DOCKED: ATOM     10  O   UNL d   1      -4.203   5.733 -16.297 +0.02 -0.24    -0.577 OA
DOCKED: ATOM     11  O   UNL d   1      -6.459   4.615 -15.985 -0.42 -0.52    -0.577 OA
DOCKED: ATOM     12  O   UNL d   1      -5.103   4.189 -18.101 -0.39 -1.13    -0.638 OA
DOCKED: ENDBRANCH   8   9
DOCKED: ENDBRANCH   7   8
DOCKED: ENDBRANCH   1   7
DOCKED: BRANCH   1  13
DOCKED: ATOM     13  C   UNL d   1      -1.617   0.837 -15.471 -0.25 +0.12    +0.073 C 
DOCKED: ATOM     14  O   UNL d   1      -1.718  -0.319 -14.928 -0.69 -1.02    -0.547 OA
DOCKED: ATOM     15  O   UNL d   1      -0.619   1.629 -15.312 -0.55 -0.61    -0.547 OA
DOCKED: ENDBRANCH   1  13
DOCKED: TORSDOF 6
DOCKED: TER
DOCKED: ENDMDL
________________________________________________________________________________


	BEGINNING GENETIC ALGORITHM DOCKING 57 of 100
Run: 57 Seed: 567062183 1858357103 [ Run 57 of 100 GA/GALS ]
Beginning LAMARCKIAN GENETIC ALGORITHM (LGA), with a maximum of 25000000 energy evaluations.

Final-Value: -7.834


	FINAL GENETIC ALGORITHM DOCKED STATE
	_______________________________________________


Detailed state:  trans -2.542 2.970 -16.226 quatxyzw 0.260895 0.921634 0.272977 -0.089482 center 0.015 0.083 0.031 ntor 6 -176.5332 -12.1277 180.0000 -63.3746 57.4394 43.6283
State:	 -2.542   2.970 -16.226   0.262  0.925  0.274 -169.732   -176.53  -12.13  180.00  -63.37   57.44   43.63

DOCKED: MODEL       57
DOCKED: USER    Run = 57
DOCKED: USER    DPF = D:/Protein_go_brrr/autodock/final/mut_D99N/2_3_BPG/dock.dpf
DOCKED: USER  
DOCKED: USER    Estimated Free Energy of Binding    =   -8.74 kcal/mol  [=(1)+(2)+(3)-(4)]
DOCKED: USER    Estimated Inhibition Constant, Ki   =  395.25 nM (nanomolar)  [Temperature = 298.15 K]
DOCKED: USER    
DOCKED: USER    (1) Final Intermolecular Energy     =  -10.53 kcal/mol
DOCKED: USER        vdW + Hbond + desolv Energy     =   -3.84 kcal/mol
DOCKED: USER        Electrostatic Energy            =   -6.68 kcal/mol
DOCKED: USER    (2) Final Total Internal Energy     =   +2.69 kcal/mol
DOCKED: USER    (3) Torsional Free Energy           =   +1.79 kcal/mol
DOCKED: USER    (4) Unbound System's Energy  [=(2)] =   +2.69 kcal/mol
DOCKED: USER    
DOCKED: USER    
DOCKED: USER    NEWDPF move 2_3_BPG_opt.pdbqt
DOCKED: USER    NEWDPF about 0.015000 0.083000 0.031000
DOCKED: USER    NEWDPF tran0 -2.542042 2.970295 -16.225534
DOCKED: USER    NEWDPF quaternion0 0.260895 0.921634 0.272977 -0.089482
DOCKED: USER    NEWDPF axisangle0 0.261946 0.925346 0.274077 -169.732423
DOCKED: USER    NEWDPF quat0 0.261946 0.925346 0.274077 -169.732423
DOCKED: USER    NEWDPF dihe0 -176.53 -12.13 180.00 -63.37 57.44 43.63 
DOCKED: USER  keepresnum = 1 
DOCKED: USER  
DOCKED: REMARK  6 active torsions:
DOCKED: REMARK  status: ('A' for Active; 'I' for Inactive)
DOCKED: REMARK    1  A    between atoms: P_1  and  O_3 
DOCKED: REMARK    2  A    between atoms: P_2  and  O_4 
DOCKED: REMARK    3  A    between atoms: O_3  and  C_13 
DOCKED: REMARK    4  A    between atoms: O_4  and  C_14 
DOCKED: REMARK    5  A    between atoms: C_13  and  C_14 
DOCKED: REMARK    6  A    between atoms: C_13  and  C_15 
DOCKED: USER                              x       y       z     vdW  Elec       q    Type
DOCKED: USER                           _______ _______ _______ _____ _____    ______ ____
DOCKED: ROOT
DOCKED: ATOM      1  C   UNL d   1      -2.151   2.479 -16.462 -0.19 +0.20    +0.193 C 
DOCKED: ENDROOT
DOCKED: BRANCH   1   2
DOCKED: ATOM      2  O   UNL d   1      -1.114   2.200 -15.462 -0.33 -0.36    -0.356 OA
DOCKED: BRANCH   2   3
DOCKED: ATOM      3  P   UNL d   1      -0.193   0.838 -15.474 -0.45 -0.02    -0.014 P 
DOCKED: ATOM      4  O   UNL d   1       0.985   1.164 -14.543 -0.54 -0.42    -0.577 OA
DOCKED: ATOM      5  O   UNL d   1       0.272   0.618 -16.912 +0.05 -0.83    -0.577 OA
DOCKED: ATOM      6  O   UNL d   1      -1.039  -0.307 -14.926 -0.64 -1.14    -0.638 OA
DOCKED: ENDBRANCH   2   3
DOCKED: ENDBRANCH   1   2
DOCKED: BRANCH   1   7
DOCKED: ATOM      7  C   UNL d   1      -3.240   3.411 -15.812 -0.19 +0.16    +0.201 C 
DOCKED: BRANCH   7   8
DOCKED: ATOM      8  O   UNL d   1      -4.548   3.374 -16.424 -0.10 -0.48    -0.364 OA
DOCKED: BRANCH   8   9
DOCKED: ATOM      9  P   UNL d   1      -5.199   4.749 -17.075 -0.28 -0.01    -0.015 P 
DOCKED: ATOM     10  O   UNL d   1      -4.121   5.825 -16.895 +0.04 -0.25    -0.577 OA
DOCKED: ATOM     11  O   UNL d   1      -6.462   5.066 -16.275 -0.56 -0.46    -0.577 OA
DOCKED: ATOM     12  O   UNL d   1      -5.481   4.460 -18.549 -0.41 -1.00    -0.638 OA
DOCKED: ENDBRANCH   8   9
DOCKED: ENDBRANCH   7   8
DOCKED: ENDBRANCH   1   7
DOCKED: BRANCH   1  13
DOCKED: ATOM     13  C   UNL d   1      -2.841   1.138 -16.913 -0.09 +0.14    +0.073 C 
DOCKED: ATOM     14  O   UNL d   1      -2.831   0.835 -18.158 -0.03 -1.19    -0.547 OA
DOCKED: ATOM     15  O   UNL d   1      -3.321   0.390 -15.988 -0.11 -1.02    -0.547 OA
DOCKED: ENDBRANCH   1  13
DOCKED: TORSDOF 6
DOCKED: TER
DOCKED: ENDMDL
________________________________________________________________________________


	BEGINNING GENETIC ALGORITHM DOCKING 58 of 100
Run: 58 Seed: 1826405024 2044373181 [ Run 58 of 100 GA/GALS ]
Beginning LAMARCKIAN GENETIC ALGORITHM (LGA), with a maximum of 25000000 energy evaluations.

Final-Value: -9.364


	FINAL GENETIC ALGORITHM DOCKED STATE
	_______________________________________________


Detailed state:  trans -4.264 -2.369 -17.053 quatxyzw -0.027656 -0.822777 0.037064 0.566480 center 0.015 0.083 0.031 ntor 6 -148.8847 -13.2840 87.3201 60.9266 -7.4005 -68.0324
State:	 -4.264  -2.369 -17.053  -0.034 -0.998  0.045 110.990   -148.88  -13.28   87.32   60.93   -7.40  -68.03

DOCKED: MODEL       58
DOCKED: USER    Run = 58
DOCKED: USER    DPF = D:/Protein_go_brrr/autodock/final/mut_D99N/2_3_BPG/dock.dpf
DOCKED: USER  
DOCKED: USER    Estimated Free Energy of Binding    =   -9.86 kcal/mol  [=(1)+(2)+(3)-(4)]
DOCKED: USER    Estimated Inhibition Constant, Ki   =   58.91 nM (nanomolar)  [Temperature = 298.15 K]
DOCKED: USER    
DOCKED: USER    (1) Final Intermolecular Energy     =  -11.65 kcal/mol
DOCKED: USER        vdW + Hbond + desolv Energy     =   -5.05 kcal/mol
DOCKED: USER        Electrostatic Energy            =   -6.60 kcal/mol
DOCKED: USER    (2) Final Total Internal Energy     =   +2.29 kcal/mol
DOCKED: USER    (3) Torsional Free Energy           =   +1.79 kcal/mol
DOCKED: USER    (4) Unbound System's Energy  [=(2)] =   +2.29 kcal/mol
DOCKED: USER    
DOCKED: USER    
DOCKED: USER    NEWDPF move 2_3_BPG_opt.pdbqt
DOCKED: USER    NEWDPF about 0.015000 0.083000 0.031000
DOCKED: USER    NEWDPF tran0 -4.264083 -2.369020 -17.052986
DOCKED: USER    NEWDPF quaternion0 -0.027656 -0.822777 0.037064 0.566480
DOCKED: USER    NEWDPF axisangle0 -0.033560 -0.998424 0.044977 110.989809
DOCKED: USER    NEWDPF quat0 -0.033560 -0.998424 0.044977 110.989809
DOCKED: USER    NEWDPF dihe0 -148.88 -13.28 87.32 60.93 -7.40 -68.03 
DOCKED: USER  keepresnum = 1 
DOCKED: USER  
DOCKED: REMARK  6 active torsions:
DOCKED: REMARK  status: ('A' for Active; 'I' for Inactive)
DOCKED: REMARK    1  A    between atoms: P_1  and  O_3 
DOCKED: REMARK    2  A    between atoms: P_2  and  O_4 
DOCKED: REMARK    3  A    between atoms: O_3  and  C_13 
DOCKED: REMARK    4  A    between atoms: O_4  and  C_14 
DOCKED: REMARK    5  A    between atoms: C_13  and  C_14 
DOCKED: REMARK    6  A    between atoms: C_13  and  C_15 
DOCKED: USER                              x       y       z     vdW  Elec       q    Type
DOCKED: USER                           _______ _______ _______ _____ _____    ______ ____
DOCKED: ROOT
DOCKED: ATOM      1  C   UNL d   1      -3.996  -2.690 -16.529 -0.17 +0.30    +0.193 C 
DOCKED: ENDROOT
DOCKED: BRANCH   1   2
DOCKED: ATOM      2  O   UNL d   1      -4.150  -1.840 -15.344 -0.34 -0.47    -0.356 OA
DOCKED: BRANCH   2   3
DOCKED: ATOM      3  P   UNL d   1      -3.292  -0.457 -15.107 -0.56 -0.02    -0.014 P 
DOCKED: ATOM      4  O   UNL d   1      -4.073   0.297 -14.019 -0.13 -0.47    -0.577 OA
DOCKED: ATOM      5  O   UNL d   1      -3.291   0.307 -16.429 +0.01 -1.26    -0.577 OA
DOCKED: ATOM      6  O   UNL d   1      -1.897  -0.844 -14.627 -0.57 -1.05    -0.638 OA
DOCKED: ENDBRANCH   2   3
DOCKED: ENDBRANCH   1   2
DOCKED: BRANCH   1   7
DOCKED: ATOM      7  C   UNL d   1      -4.867  -2.093 -17.695 -0.11 +0.30    +0.201 C 
DOCKED: BRANCH   7   8
DOCKED: ATOM      8  O   UNL d   1      -4.196  -1.158 -18.568 -0.75 -0.78    -0.364 OA
DOCKED: BRANCH   8   9
DOCKED: ATOM      9  P   UNL d   1      -4.980  -0.548 -19.891 -0.19 -0.02    -0.015 P 
DOCKED: ATOM     10  O   UNL d   1      -4.654  -1.520 -21.031 -0.01 -0.46    -0.577 OA
DOCKED: ATOM     11  O   UNL d   1      -4.407   0.845 -20.147 -0.04 -0.88    -0.577 OA
DOCKED: ATOM     12  O   UNL d   1      -6.472  -0.530 -19.562 -0.22 -1.13    -0.638 OA
DOCKED: ENDBRANCH   8   9
DOCKED: ENDBRANCH   7   8
DOCKED: ENDBRANCH   1   7
DOCKED: BRANCH   1  13
DOCKED: ATOM     13  C   UNL d   1      -4.502  -4.148 -16.217 -0.60 +0.06    +0.073 C 
DOCKED: ATOM     14  O   UNL d   1      -3.645  -5.028 -15.853 -0.63 -0.35    -0.547 OA
DOCKED: ATOM     15  O   UNL d   1      -5.767  -4.353 -16.287 -0.74 -0.37    -0.547 OA
DOCKED: ENDBRANCH   1  13
DOCKED: TORSDOF 6
DOCKED: TER
DOCKED: ENDMDL
________________________________________________________________________________


	BEGINNING GENETIC ALGORITHM DOCKING 59 of 100
Run: 59 Seed: 1398431612 2065364357 [ Run 59 of 100 GA/GALS ]
Beginning LAMARCKIAN GENETIC ALGORITHM (LGA), with a maximum of 25000000 energy evaluations.

Final-Value: -8.566


	FINAL GENETIC ALGORITHM DOCKED STATE
	_______________________________________________


Detailed state:  trans -2.394 2.118 -17.443 quatxyzw -0.523101 0.526853 0.105168 -0.661612 center 0.015 0.083 0.031 ntor 6 174.4184 -104.8611 153.9906 49.1902 34.8952 -171.0415
State:	 -2.394   2.118 -17.443  -0.698  0.703  0.140 -97.154    174.42 -104.86  153.99   49.19   34.90 -171.04

DOCKED: MODEL       59
DOCKED: USER    Run = 59
DOCKED: USER    DPF = D:/Protein_go_brrr/autodock/final/mut_D99N/2_3_BPG/dock.dpf
DOCKED: USER  
DOCKED: USER    Estimated Free Energy of Binding    =   -9.08 kcal/mol  [=(1)+(2)+(3)-(4)]
DOCKED: USER    Estimated Inhibition Constant, Ki   =  221.66 nM (nanomolar)  [Temperature = 298.15 K]
DOCKED: USER    
DOCKED: USER    (1) Final Intermolecular Energy     =  -10.87 kcal/mol
DOCKED: USER        vdW + Hbond + desolv Energy     =   -3.71 kcal/mol
DOCKED: USER        Electrostatic Energy            =   -7.16 kcal/mol
DOCKED: USER    (2) Final Total Internal Energy     =   +2.30 kcal/mol
DOCKED: USER    (3) Torsional Free Energy           =   +1.79 kcal/mol
DOCKED: USER    (4) Unbound System's Energy  [=(2)] =   +2.30 kcal/mol
DOCKED: USER    
DOCKED: USER    
DOCKED: USER    NEWDPF move 2_3_BPG_opt.pdbqt
DOCKED: USER    NEWDPF about 0.015000 0.083000 0.031000
DOCKED: USER    NEWDPF tran0 -2.393646 2.117821 -17.443214
DOCKED: USER    NEWDPF quaternion0 -0.523101 0.526853 0.105168 -0.661612
DOCKED: USER    NEWDPF axisangle0 -0.697611 0.702615 0.140253 -97.154133
DOCKED: USER    NEWDPF quat0 -0.697611 0.702615 0.140253 -97.154133
DOCKED: USER    NEWDPF dihe0 174.42 -104.86 153.99 49.19 34.90 -171.04 
DOCKED: USER  keepresnum = 1 
DOCKED: USER  
DOCKED: REMARK  6 active torsions:
DOCKED: REMARK  status: ('A' for Active; 'I' for Inactive)
DOCKED: REMARK    1  A    between atoms: P_1  and  O_3 
DOCKED: REMARK    2  A    between atoms: P_2  and  O_4 
DOCKED: REMARK    3  A    between atoms: O_3  and  C_13 
DOCKED: REMARK    4  A    between atoms: O_4  and  C_14 
DOCKED: REMARK    5  A    between atoms: C_13  and  C_14 
DOCKED: REMARK    6  A    between atoms: C_13  and  C_15 
DOCKED: USER                              x       y       z     vdW  Elec       q    Type
DOCKED: USER                           _______ _______ _______ _____ _____    ______ ____
DOCKED: ROOT
DOCKED: ATOM      1  C   UNL d   1      -2.371   2.300 -16.798 -0.19 +0.23    +0.193 C 
DOCKED: ENDROOT
DOCKED: BRANCH   1   2
DOCKED: ATOM      2  O   UNL d   1      -3.744   2.560 -16.349 -0.10 -0.46    -0.356 OA
DOCKED: BRANCH   2   3
DOCKED: ATOM      3  P   UNL d   1      -4.519   3.989 -16.594 -0.28 -0.01    -0.014 P 
DOCKED: ATOM      4  O   UNL d   1      -4.802   4.017 -18.104 -0.47 -1.00    -0.577 OA
DOCKED: ATOM      5  O   UNL d   1      -3.557   5.102 -16.183 +0.00 -0.28    -0.577 OA
DOCKED: ATOM      6  O   UNL d   1      -5.810   3.971 -15.783 -0.14 -0.62    -0.638 OA
DOCKED: ENDBRANCH   2   3
DOCKED: ENDBRANCH   1   2
DOCKED: BRANCH   1   7
DOCKED: ATOM      7  C   UNL d   1      -2.425   1.598 -18.205 -0.11 +0.32    +0.201 C 
DOCKED: BRANCH   7   8
DOCKED: ATOM      8  O   UNL d   1      -3.725   1.130 -18.627 -0.08 -0.71    -0.364 OA
DOCKED: BRANCH   8   9
DOCKED: ATOM      9  P   UNL d   1      -3.866  -0.299 -19.449 -0.16 -0.03    -0.015 P 
DOCKED: ATOM     10  O   UNL d   1      -2.495  -0.522 -20.099 -0.14 -0.97    -0.577 OA
DOCKED: ATOM     11  O   UNL d   1      -4.967  -0.107 -20.492 -0.10 -0.74    -0.577 OA
DOCKED: ATOM     12  O   UNL d   1      -4.197  -1.380 -18.422 -0.61 -1.37    -0.638 OA
DOCKED: ENDBRANCH   8   9
DOCKED: ENDBRANCH   7   8
DOCKED: ENDBRANCH   1   7
DOCKED: BRANCH   1  13
DOCKED: ATOM     13  C   UNL d   1      -1.644   1.340 -15.784 -0.32 +0.10    +0.073 C 
DOCKED: ATOM     14  O   UNL d   1      -0.471   1.657 -15.377 -0.57 -0.60    -0.547 OA
DOCKED: ATOM     15  O   UNL d   1      -2.304   0.319 -15.373 -0.46 -1.01    -0.547 OA
DOCKED: ENDBRANCH   1  13
DOCKED: TORSDOF 6
DOCKED: TER
DOCKED: ENDMDL
________________________________________________________________________________


	BEGINNING GENETIC ALGORITHM DOCKING 60 of 100
Run: 60 Seed: 1694426168 537567901 [ Run 60 of 100 GA/GALS ]
Beginning LAMARCKIAN GENETIC ALGORITHM (LGA), with a maximum of 25000000 energy evaluations.

Final-Value: -8.714


	FINAL GENETIC ALGORITHM DOCKED STATE
	_______________________________________________


Detailed state:  trans -2.398 2.202 -16.909 quatxyzw -0.443757 0.518680 0.131757 -0.718812 center 0.015 0.083 0.031 ntor 6 -1.7081 121.8494 41.7916 67.0120 37.2937 180.0000
State:	 -2.398   2.202 -16.909  -0.638  0.746  0.190 -88.087     -1.71  121.85   41.79   67.01   37.29  180.00

DOCKED: MODEL       60
DOCKED: USER    Run = 60
DOCKED: USER    DPF = D:/Protein_go_brrr/autodock/final/mut_D99N/2_3_BPG/dock.dpf
DOCKED: USER  
DOCKED: USER    Estimated Free Energy of Binding    =   -9.37 kcal/mol  [=(1)+(2)+(3)-(4)]
DOCKED: USER    Estimated Inhibition Constant, Ki   =  135.61 nM (nanomolar)  [Temperature = 298.15 K]
DOCKED: USER    
DOCKED: USER    (1) Final Intermolecular Energy     =  -11.16 kcal/mol
DOCKED: USER        vdW + Hbond + desolv Energy     =   -3.88 kcal/mol
DOCKED: USER        Electrostatic Energy            =   -7.28 kcal/mol
DOCKED: USER    (2) Final Total Internal Energy     =   +2.44 kcal/mol
DOCKED: USER    (3) Torsional Free Energy           =   +1.79 kcal/mol
DOCKED: USER    (4) Unbound System's Energy  [=(2)] =   +2.44 kcal/mol
DOCKED: USER    
DOCKED: USER    
DOCKED: USER    NEWDPF move 2_3_BPG_opt.pdbqt
DOCKED: USER    NEWDPF about 0.015000 0.083000 0.031000
DOCKED: USER    NEWDPF tran0 -2.398299 2.202169 -16.908968
DOCKED: USER    NEWDPF quaternion0 -0.443757 0.518680 0.131757 -0.718812
DOCKED: USER    NEWDPF axisangle0 -0.638312 0.746082 0.189523 -88.086977
DOCKED: USER    NEWDPF quat0 -0.638312 0.746082 0.189523 -88.086977
DOCKED: USER    NEWDPF dihe0 -1.71 121.85 41.79 67.01 37.29 180.00 
DOCKED: USER  keepresnum = 1 
DOCKED: USER  
DOCKED: REMARK  6 active torsions:
DOCKED: REMARK  status: ('A' for Active; 'I' for Inactive)
DOCKED: REMARK    1  A    between atoms: P_1  and  O_3 
DOCKED: REMARK    2  A    between atoms: P_2  and  O_4 
DOCKED: REMARK    3  A    between atoms: O_3  and  C_13 
DOCKED: REMARK    4  A    between atoms: O_4  and  C_14 
DOCKED: REMARK    5  A    between atoms: C_13  and  C_14 
DOCKED: REMARK    6  A    between atoms: C_13  and  C_15 
DOCKED: USER                              x       y       z     vdW  Elec       q    Type
DOCKED: USER                           _______ _______ _______ _____ _____    ______ ____
DOCKED: ROOT
DOCKED: ATOM      1  C   UNL d   1      -2.387   2.255 -16.241 -0.22 +0.22    +0.193 C 
DOCKED: ENDROOT
DOCKED: BRANCH   1   2
DOCKED: ATOM      2  O   UNL d   1      -3.759   2.497 -15.779 -0.18 -0.40    -0.356 OA
DOCKED: BRANCH   2   3
DOCKED: ATOM      3  P   UNL d   1      -4.604   3.861 -16.137 -0.34 -0.01    -0.014 P 
DOCKED: ATOM      4  O   UNL d   1      -3.791   4.996 -15.493 -0.04 -0.26    -0.577 OA
DOCKED: ATOM      5  O   UNL d   1      -5.982   3.722 -15.492 -0.17 -0.54    -0.577 OA
DOCKED: ATOM      6  O   UNL d   1      -4.654   4.000 -17.655 -0.40 -0.97    -0.638 OA
DOCKED: ENDBRANCH   2   3
DOCKED: ENDBRANCH   1   2
DOCKED: BRANCH   1   7
DOCKED: ATOM      7  C   UNL d   1      -2.431   1.841 -17.758 -0.14 +0.29    +0.201 C 
DOCKED: BRANCH   7   8
DOCKED: ATOM      8  O   UNL d   1      -3.699   1.342 -18.239 +0.04 -0.72    -0.364 OA
DOCKED: BRANCH   8   9
DOCKED: ATOM      9  P   UNL d   1      -3.743   0.058 -19.281 -0.12 -0.03    -0.015 P 
DOCKED: ATOM     10  O   UNL d   1      -4.769   0.448 -20.352 -0.10 -0.84    -0.577 OA
DOCKED: ATOM     11  O   UNL d   1      -4.196  -1.157 -18.472 -0.64 -1.26    -0.577 OA
DOCKED: ATOM     12  O   UNL d   1      -2.339  -0.100 -19.863 -0.11 -1.15    -0.638 OA
DOCKED: ENDBRANCH   8   9
DOCKED: ENDBRANCH   7   8
DOCKED: ENDBRANCH   1   7
DOCKED: BRANCH   1  13
DOCKED: ATOM     13  C   UNL d   1      -1.740   1.080 -15.417 -0.34 +0.10    +0.073 C 
DOCKED: ATOM     14  O   UNL d   1      -2.378  -0.027 -15.326 -0.44 -1.12    -0.547 OA
DOCKED: ATOM     15  O   UNL d   1      -0.569   1.284 -14.932 -0.67 -0.61    -0.547 OA
DOCKED: ENDBRANCH   1  13
DOCKED: TORSDOF 6
DOCKED: TER
DOCKED: ENDMDL
________________________________________________________________________________


	BEGINNING GENETIC ALGORITHM DOCKING 61 of 100
Run: 61 Seed: 1700699986 1402206972 [ Run 61 of 100 GA/GALS ]
Beginning LAMARCKIAN GENETIC ALGORITHM (LGA), with a maximum of 25000000 energy evaluations.

Final-Value: -8.204


	FINAL GENETIC ALGORITHM DOCKED STATE
	_______________________________________________


Detailed state:  trans -2.711 1.838 -16.873 quatxyzw -0.473822 0.686649 0.084591 -0.544840 center 0.015 0.083 0.031 ntor 6 12.5087 91.2289 75.9890 81.7190 -40.6606 -28.2770
State:	 -2.711   1.838 -16.873  -0.565  0.819  0.101 -113.972     12.51   91.23   75.99   81.72  -40.66  -28.28

DOCKED: MODEL       61
DOCKED: USER    Run = 61
DOCKED: USER    DPF = D:/Protein_go_brrr/autodock/final/mut_D99N/2_3_BPG/dock.dpf
DOCKED: USER  
DOCKED: USER    Estimated Free Energy of Binding    =   -8.55 kcal/mol  [=(1)+(2)+(3)-(4)]
DOCKED: USER    Estimated Inhibition Constant, Ki   =  542.04 nM (nanomolar)  [Temperature = 298.15 K]
DOCKED: USER    
DOCKED: USER    (1) Final Intermolecular Energy     =  -10.34 kcal/mol
DOCKED: USER        vdW + Hbond + desolv Energy     =   -3.79 kcal/mol
DOCKED: USER        Electrostatic Energy            =   -6.55 kcal/mol
DOCKED: USER    (2) Final Total Internal Energy     =   +2.13 kcal/mol
DOCKED: USER    (3) Torsional Free Energy           =   +1.79 kcal/mol
DOCKED: USER    (4) Unbound System's Energy  [=(2)] =   +2.13 kcal/mol
DOCKED: USER    
DOCKED: USER    
DOCKED: USER    NEWDPF move 2_3_BPG_opt.pdbqt
DOCKED: USER    NEWDPF about 0.015000 0.083000 0.031000
DOCKED: USER    NEWDPF tran0 -2.711191 1.837956 -16.873013
DOCKED: USER    NEWDPF quaternion0 -0.473822 0.686649 0.084591 -0.544840
DOCKED: USER    NEWDPF axisangle0 -0.565056 0.818862 0.100879 -113.972491
DOCKED: USER    NEWDPF quat0 -0.565056 0.818862 0.100879 -113.972491
DOCKED: USER    NEWDPF dihe0 12.51 91.23 75.99 81.72 -40.66 -28.28 
DOCKED: USER  keepresnum = 1 
DOCKED: USER  
DOCKED: REMARK  6 active torsions:
DOCKED: REMARK  status: ('A' for Active; 'I' for Inactive)
DOCKED: REMARK    1  A    between atoms: P_1  and  O_3 
DOCKED: REMARK    2  A    between atoms: P_2  and  O_4 
DOCKED: REMARK    3  A    between atoms: O_3  and  C_13 
DOCKED: REMARK    4  A    between atoms: O_4  and  C_14 
DOCKED: REMARK    5  A    between atoms: C_13  and  C_14 
DOCKED: REMARK    6  A    between atoms: C_13  and  C_15 
DOCKED: USER                              x       y       z     vdW  Elec       q    Type
DOCKED: USER                           _______ _______ _______ _____ _____    ______ ____
DOCKED: ROOT
DOCKED: ATOM      1  C   UNL d   1      -2.442   2.057 -16.299 -0.23 +0.23    +0.193 C 
DOCKED: ENDROOT
DOCKED: BRANCH   1   2
DOCKED: ATOM      2  O   UNL d   1      -3.510   2.665 -15.497 -0.20 -0.35    -0.356 OA
DOCKED: BRANCH   2   3
DOCKED: ATOM      3  P   UNL d   1      -4.545   3.800 -16.083 -0.34 -0.01    -0.014 P 
DOCKED: ATOM      4  O   UNL d   1      -3.886   5.141 -15.726 -0.02 -0.26    -0.577 OA
DOCKED: ATOM      5  O   UNL d   1      -5.876   3.617 -15.356 -0.17 -0.51    -0.577 OA
DOCKED: ATOM      6  O   UNL d   1      -4.646   3.610 -17.593 -0.25 -1.19    -0.638 OA
DOCKED: ENDBRANCH   2   3
DOCKED: ENDBRANCH   1   2
DOCKED: BRANCH   1   7
DOCKED: ATOM      7  C   UNL d   1      -3.095   1.285 -17.505 +0.01 +0.38    +0.201 C 
DOCKED: BRANCH   7   8
DOCKED: ATOM      8  O   UNL d   1      -2.527   1.553 -18.806 -0.08 -0.54    -0.364 OA
DOCKED: BRANCH   8   9
DOCKED: ATOM      9  P   UNL d   1      -2.372   0.333 -19.912 -0.13 -0.02    -0.015 P 
DOCKED: ATOM     10  O   UNL d   1      -0.892  -0.066 -19.862 -0.43 -1.01    -0.577 OA
DOCKED: ATOM     11  O   UNL d   1      -2.762   0.911 -21.272 +0.01 -0.45    -0.577 OA
DOCKED: ATOM     12  O   UNL d   1      -3.288  -0.804 -19.460 -0.38 -1.35    -0.638 OA
DOCKED: ENDBRANCH   8   9
DOCKED: ENDBRANCH   7   8
DOCKED: ENDBRANCH   1   7
DOCKED: BRANCH   1  13
DOCKED: ATOM     13  C   UNL d   1      -1.628   1.031 -15.426 -0.32 +0.11    +0.073 C 
DOCKED: ATOM     14  O   UNL d   1      -2.220  -0.028 -15.015 -0.58 -0.95    -0.547 OA
DOCKED: ATOM     15  O   UNL d   1      -0.386   1.291 -15.229 -0.68 -0.62    -0.547 OA
DOCKED: ENDBRANCH   1  13
DOCKED: TORSDOF 6
DOCKED: TER
DOCKED: ENDMDL
________________________________________________________________________________


	BEGINNING GENETIC ALGORITHM DOCKING 62 of 100
Run: 62 Seed: 1488815427 1833350543 [ Run 62 of 100 GA/GALS ]
Beginning LAMARCKIAN GENETIC ALGORITHM (LGA), with a maximum of 25000000 energy evaluations.

Final-Value: -8.556


	FINAL GENETIC ALGORITHM DOCKED STATE
	_______________________________________________


Detailed state:  trans -5.291 -2.428 -19.203 quatxyzw 0.740360 -0.593255 0.102424 -0.299039 center 0.015 0.083 0.031 ntor 6 172.2727 -62.2740 -176.9549 25.8327 -20.0493 96.8606
State:	 -5.291  -2.428 -19.203   0.776 -0.622  0.107 -145.200    172.27  -62.27 -176.95   25.83  -20.05   96.86

DOCKED: MODEL       62
DOCKED: USER    Run = 62
DOCKED: USER    DPF = D:/Protein_go_brrr/autodock/final/mut_D99N/2_3_BPG/dock.dpf
DOCKED: USER  
DOCKED: USER    Estimated Free Energy of Binding    =   -8.87 kcal/mol  [=(1)+(2)+(3)-(4)]
DOCKED: USER    Estimated Inhibition Constant, Ki   =  313.02 nM (nanomolar)  [Temperature = 298.15 K]
DOCKED: USER    
DOCKED: USER    (1) Final Intermolecular Energy     =  -10.66 kcal/mol
DOCKED: USER        vdW + Hbond + desolv Energy     =   -4.50 kcal/mol
DOCKED: USER        Electrostatic Energy            =   -6.16 kcal/mol
DOCKED: USER    (2) Final Total Internal Energy     =   +2.11 kcal/mol
DOCKED: USER    (3) Torsional Free Energy           =   +1.79 kcal/mol
DOCKED: USER    (4) Unbound System's Energy  [=(2)] =   +2.11 kcal/mol
DOCKED: USER    
DOCKED: USER    
DOCKED: USER    NEWDPF move 2_3_BPG_opt.pdbqt
DOCKED: USER    NEWDPF about 0.015000 0.083000 0.031000
DOCKED: USER    NEWDPF tran0 -5.291445 -2.427855 -19.202904
DOCKED: USER    NEWDPF quaternion0 0.740360 -0.593255 0.102424 -0.299039
DOCKED: USER    NEWDPF axisangle0 0.775863 -0.621704 0.107335 -145.200209
DOCKED: USER    NEWDPF quat0 0.775863 -0.621704 0.107335 -145.200209
DOCKED: USER    NEWDPF dihe0 172.27 -62.27 -176.95 25.83 -20.05 96.86 
DOCKED: USER  keepresnum = 1 
DOCKED: USER  
DOCKED: REMARK  6 active torsions:
DOCKED: REMARK  status: ('A' for Active; 'I' for Inactive)
DOCKED: REMARK    1  A    between atoms: P_1  and  O_3 
DOCKED: REMARK    2  A    between atoms: P_2  and  O_4 
DOCKED: REMARK    3  A    between atoms: O_3  and  C_13 
DOCKED: REMARK    4  A    between atoms: O_4  and  C_14 
DOCKED: REMARK    5  A    between atoms: C_13  and  C_14 
DOCKED: REMARK    6  A    between atoms: C_13  and  C_15 
DOCKED: USER                              x       y       z     vdW  Elec       q    Type
DOCKED: USER                           _______ _______ _______ _____ _____    ______ ____
DOCKED: ROOT
DOCKED: ATOM      1  C   UNL d   1      -5.178  -1.965 -19.674 -0.18 +0.20    +0.193 C 
DOCKED: ENDROOT
DOCKED: BRANCH   1   2
DOCKED: ATOM      2  O   UNL d   1      -6.086  -0.838 -19.435 -0.21 -0.55    -0.356 OA
DOCKED: BRANCH   2   3
DOCKED: ATOM      3  P   UNL d   1      -7.402  -0.524 -20.371 -0.12 -0.02    -0.014 P 
DOCKED: ATOM      4  O   UNL d   1      -8.600  -0.763 -19.439 -0.09 -0.55    -0.577 OA
DOCKED: ATOM      5  O   UNL d   1      -7.382  -1.521 -21.528 +0.01 -0.30    -0.577 OA
DOCKED: ATOM      6  O   UNL d   1      -7.324   0.931 -20.821 -0.51 -0.98    -0.638 OA
DOCKED: ENDBRANCH   2   3
DOCKED: ENDBRANCH   1   2
DOCKED: BRANCH   1   7
DOCKED: ATOM      7  C   UNL d   1      -5.221  -2.921 -18.426 -0.27 +0.19    +0.201 C 
DOCKED: BRANCH   7   8
DOCKED: ATOM      8  O   UNL d   1      -4.089  -2.840 -17.531 -0.33 -0.58    -0.364 OA
DOCKED: BRANCH   8   9
DOCKED: ATOM      9  P   UNL d   1      -4.195  -3.459 -16.001 -0.78 -0.02    -0.015 P 
DOCKED: ATOM     10  O   UNL d   1      -5.567  -4.142 -15.941 -0.74 -0.49    -0.577 OA
DOCKED: ATOM     11  O   UNL d   1      -4.103  -2.278 -15.035 -0.25 -0.67    -0.577 OA
DOCKED: ATOM     12  O   UNL d   1      -3.050  -4.457 -15.836 -0.48 -0.56    -0.638 OA
DOCKED: ENDBRANCH   8   9
DOCKED: ENDBRANCH   7   8
DOCKED: ENDBRANCH   1   7
DOCKED: BRANCH   1  13
DOCKED: ATOM     13  C   UNL d   1      -3.705  -1.441 -19.859 -0.16 +0.11    +0.073 C 
DOCKED: ATOM     14  O   UNL d   1      -3.009  -1.904 -20.830 -0.09 -0.55    -0.547 OA
DOCKED: ATOM     15  O   UNL d   1      -3.308  -0.524 -19.053 -0.30 -1.40    -0.547 OA
DOCKED: ENDBRANCH   1  13
DOCKED: TORSDOF 6
DOCKED: TER
DOCKED: ENDMDL
________________________________________________________________________________


	BEGINNING GENETIC ALGORITHM DOCKING 63 of 100
Run: 63 Seed: 576935664 964326299 [ Run 63 of 100 GA/GALS ]
Beginning LAMARCKIAN GENETIC ALGORITHM (LGA), with a maximum of 25000000 energy evaluations.

Final-Value: -9.005


	FINAL GENETIC ALGORITHM DOCKED STATE
	_______________________________________________


Detailed state:  trans -4.319 -2.320 -17.342 quatxyzw -0.090256 -0.795475 0.111932 0.588680 center 0.015 0.083 0.031 ntor 6 -164.1588 158.2051 77.3173 16.6383 0.5440 -86.5960
State:	 -4.319  -2.320 -17.342  -0.112 -0.984  0.138 107.873   -164.16  158.21   77.32   16.64    0.54  -86.60

DOCKED: MODEL       63
DOCKED: USER    Run = 63
DOCKED: USER    DPF = D:/Protein_go_brrr/autodock/final/mut_D99N/2_3_BPG/dock.dpf
DOCKED: USER  
DOCKED: USER    Estimated Free Energy of Binding    =   -9.28 kcal/mol  [=(1)+(2)+(3)-(4)]
DOCKED: USER    Estimated Inhibition Constant, Ki   =  158.90 nM (nanomolar)  [Temperature = 298.15 K]
DOCKED: USER    
DOCKED: USER    (1) Final Intermolecular Energy     =  -11.07 kcal/mol
DOCKED: USER        vdW + Hbond + desolv Energy     =   -4.33 kcal/mol
DOCKED: USER        Electrostatic Energy            =   -6.73 kcal/mol
DOCKED: USER    (2) Final Total Internal Energy     =   +2.06 kcal/mol
DOCKED: USER    (3) Torsional Free Energy           =   +1.79 kcal/mol
DOCKED: USER    (4) Unbound System's Energy  [=(2)] =   +2.06 kcal/mol
DOCKED: USER    
DOCKED: USER    
DOCKED: USER    NEWDPF move 2_3_BPG_opt.pdbqt
DOCKED: USER    NEWDPF about 0.015000 0.083000 0.031000
DOCKED: USER    NEWDPF tran0 -4.318887 -2.320300 -17.342412
DOCKED: USER    NEWDPF quaternion0 -0.090256 -0.795475 0.111932 0.588680
DOCKED: USER    NEWDPF axisangle0 -0.111652 -0.984053 0.138466 107.873183
DOCKED: USER    NEWDPF quat0 -0.111652 -0.984053 0.138466 107.873183
DOCKED: USER    NEWDPF dihe0 -164.16 158.21 77.32 16.64 0.54 -86.60 
DOCKED: USER  keepresnum = 1 
DOCKED: USER  
DOCKED: REMARK  6 active torsions:
DOCKED: REMARK  status: ('A' for Active; 'I' for Inactive)
DOCKED: REMARK    1  A    between atoms: P_1  and  O_3 
DOCKED: REMARK    2  A    between atoms: P_2  and  O_4 
DOCKED: REMARK    3  A    between atoms: O_3  and  C_13 
DOCKED: REMARK    4  A    between atoms: O_4  and  C_14 
DOCKED: REMARK    5  A    between atoms: C_13  and  C_14 
DOCKED: REMARK    6  A    between atoms: C_13  and  C_15 
DOCKED: USER                              x       y       z     vdW  Elec       q    Type
DOCKED: USER                           _______ _______ _______ _____ _____    ______ ____
DOCKED: ROOT
DOCKED: ATOM      1  C   UNL d   1      -4.149  -2.653 -16.786 -0.25 +0.30    +0.193 C 
DOCKED: ENDROOT
DOCKED: BRANCH   1   2
DOCKED: ATOM      2  O   UNL d   1      -4.214  -1.717 -15.657 -0.26 -0.52    -0.356 OA
DOCKED: BRANCH   2   3
DOCKED: ATOM      3  P   UNL d   1      -2.898  -1.277 -14.774 -0.55 -0.02    -0.014 P 
DOCKED: ATOM      4  O   UNL d   1      -1.924  -2.455 -14.923 -0.08 -0.93    -0.577 OA
DOCKED: ATOM      5  O   UNL d   1      -3.360  -1.109 -13.327 -0.05 -0.36    -0.577 OA
DOCKED: ATOM      6  O   UNL d   1      -2.329   0.001 -15.382 -0.34 -1.35    -0.638 OA
DOCKED: ENDBRANCH   2   3
DOCKED: ENDBRANCH   1   2
DOCKED: BRANCH   1   7
DOCKED: ATOM      7  C   UNL d   1      -4.818  -1.978 -18.040 -0.16 +0.31    +0.201 C 
DOCKED: BRANCH   7   8
DOCKED: ATOM      8  O   UNL d   1      -4.059  -0.920 -18.665 -0.61 -0.83    -0.364 OA
DOCKED: BRANCH   8   9
DOCKED: ATOM      9  P   UNL d   1      -4.701  -0.078 -19.937 -0.15 -0.02    -0.015 P 
DOCKED: ATOM     10  O   UNL d   1      -4.055  -0.689 -21.186 -0.01 -0.50    -0.577 OA
DOCKED: ATOM     11  O   UNL d   1      -4.306   1.386 -19.747 +0.04 -1.01    -0.577 OA
DOCKED: ATOM     12  O   UNL d   1      -6.213  -0.299 -19.906 -0.36 -1.14    -0.638 OA
DOCKED: ENDBRANCH   8   9
DOCKED: ENDBRANCH   7   8
DOCKED: ENDBRANCH   1   7
DOCKED: BRANCH   1  13
DOCKED: ATOM     13  C   UNL d   1      -4.940  -3.970 -16.441 -0.59 +0.06    +0.073 C 
DOCKED: ATOM     14  O   UNL d   1      -4.277  -5.051 -16.260 -0.34 -0.30    -0.547 OA
DOCKED: ATOM     15  O   UNL d   1      -6.211  -3.866 -16.297 -0.61 -0.42    -0.547 OA
DOCKED: ENDBRANCH   1  13
DOCKED: TORSDOF 6
DOCKED: TER
DOCKED: ENDMDL
________________________________________________________________________________


	BEGINNING GENETIC ALGORITHM DOCKING 64 of 100
Run: 64 Seed: 418082696 397809940 [ Run 64 of 100 GA/GALS ]
Beginning LAMARCKIAN GENETIC ALGORITHM (LGA), with a maximum of 25000000 energy evaluations.

Final-Value: -8.329


	FINAL GENETIC ALGORITHM DOCKED STATE
	_______________________________________________


Detailed state:  trans -2.767 1.687 -16.634 quatxyzw 0.319673 -0.577099 0.038897 0.750502 center 0.015 0.083 0.031 ntor 6 152.9241 128.6268 -46.4799 85.5808 0.7821 118.5236
State:	 -2.767   1.687 -16.634   0.484 -0.873  0.059 82.732    152.92  128.63  -46.48   85.58    0.78  118.52

DOCKED: MODEL       64
DOCKED: USER    Run = 64
DOCKED: USER    DPF = D:/Protein_go_brrr/autodock/final/mut_D99N/2_3_BPG/dock.dpf
DOCKED: USER  
DOCKED: USER    Estimated Free Energy of Binding    =   -8.86 kcal/mol  [=(1)+(2)+(3)-(4)]
DOCKED: USER    Estimated Inhibition Constant, Ki   =  322.80 nM (nanomolar)  [Temperature = 298.15 K]
DOCKED: USER    
DOCKED: USER    (1) Final Intermolecular Energy     =  -10.65 kcal/mol
DOCKED: USER        vdW + Hbond + desolv Energy     =   -3.58 kcal/mol
DOCKED: USER        Electrostatic Energy            =   -7.06 kcal/mol
DOCKED: USER    (2) Final Total Internal Energy     =   +2.32 kcal/mol
DOCKED: USER    (3) Torsional Free Energy           =   +1.79 kcal/mol
DOCKED: USER    (4) Unbound System's Energy  [=(2)] =   +2.32 kcal/mol
DOCKED: USER    
DOCKED: USER    
DOCKED: USER    NEWDPF move 2_3_BPG_opt.pdbqt
DOCKED: USER    NEWDPF about 0.015000 0.083000 0.031000
DOCKED: USER    NEWDPF tran0 -2.766945 1.687346 -16.633835
DOCKED: USER    NEWDPF quaternion0 0.319673 -0.577099 0.038897 0.750502
DOCKED: USER    NEWDPF axisangle0 0.483717 -0.873243 0.058858 82.732225
DOCKED: USER    NEWDPF quat0 0.483717 -0.873243 0.058858 82.732225
DOCKED: USER    NEWDPF dihe0 152.92 128.63 -46.48 85.58 0.78 118.52 
DOCKED: USER  keepresnum = 1 
DOCKED: USER  
DOCKED: REMARK  6 active torsions:
DOCKED: REMARK  status: ('A' for Active; 'I' for Inactive)
DOCKED: REMARK    1  A    between atoms: P_1  and  O_3 
DOCKED: REMARK    2  A    between atoms: P_2  and  O_4 
DOCKED: REMARK    3  A    between atoms: O_3  and  C_13 
DOCKED: REMARK    4  A    between atoms: O_4  and  C_14 
DOCKED: REMARK    5  A    between atoms: C_13  and  C_14 
DOCKED: REMARK    6  A    between atoms: C_13  and  C_15 
DOCKED: USER                              x       y       z     vdW  Elec       q    Type
DOCKED: USER                           _______ _______ _______ _____ _____    ______ ____
DOCKED: ROOT
DOCKED: ATOM      1  C   UNL d   1      -2.781   1.731 -15.965 -0.27 +0.25    +0.193 C 
DOCKED: ENDROOT
DOCKED: BRANCH   1   2
DOCKED: ATOM      2  O   UNL d   1      -3.949   2.532 -15.584 -0.17 -0.38    -0.356 OA
DOCKED: BRANCH   2   3
DOCKED: ATOM      3  P   UNL d   1      -4.337   3.961 -16.300 -0.36 -0.01    -0.014 P 
DOCKED: ATOM      4  O   UNL d   1      -3.073   4.822 -16.145 -0.01 -0.29    -0.577 OA
DOCKED: ATOM      5  O   UNL d   1      -5.515   4.550 -15.527 -0.15 -0.37    -0.577 OA
DOCKED: ATOM      6  O   UNL d   1      -4.649   3.684 -17.766 -0.28 -1.20    -0.638 OA
DOCKED: ENDBRANCH   2   3
DOCKED: ENDBRANCH   1   2
DOCKED: BRANCH   1   7
DOCKED: ATOM      7  C   UNL d   1      -2.891   1.374 -17.493 -0.09 +0.36    +0.201 C 
DOCKED: BRANCH   7   8
DOCKED: ATOM      8  O   UNL d   1      -3.732   0.246 -17.818 -0.11 -0.88    -0.364 OA
DOCKED: BRANCH   8   9
DOCKED: ATOM      9  P   UNL d   1      -3.848  -0.280 -19.382 -0.09 -0.03    -0.015 P 
DOCKED: ATOM     10  O   UNL d   1      -3.749  -1.808 -19.298 -0.52 -1.06    -0.577 OA
DOCKED: ATOM     11  O   UNL d   1      -2.670   0.326 -20.145 -0.07 -0.79    -0.577 OA
DOCKED: ATOM     12  O   UNL d   1      -5.205   0.179 -19.914 -0.14 -1.16    -0.638 OA
DOCKED: ENDBRANCH   8   9
DOCKED: ENDBRANCH   7   8
DOCKED: ENDBRANCH   1   7
DOCKED: BRANCH   1  13
DOCKED: ATOM     13  C   UNL d   1      -2.750   0.393 -15.136 -0.43 +0.11    +0.073 C 
DOCKED: ATOM     14  O   UNL d   1      -1.619  -0.171 -14.928 -0.71 -0.99    -0.547 OA
DOCKED: ATOM     15  O   UNL d   1      -3.867  -0.022 -14.658 -0.17 -0.61    -0.547 OA
DOCKED: ENDBRANCH   1  13
DOCKED: TORSDOF 6
DOCKED: TER
DOCKED: ENDMDL
________________________________________________________________________________


	BEGINNING GENETIC ALGORITHM DOCKING 65 of 100
Run: 65 Seed: 1489513548 949952898 [ Run 65 of 100 GA/GALS ]
Beginning LAMARCKIAN GENETIC ALGORITHM (LGA), with a maximum of 25000000 energy evaluations.

Final-Value: -8.334


	FINAL GENETIC ALGORITHM DOCKED STATE
	_______________________________________________


Detailed state:  trans -3.042 2.301 -17.012 quatxyzw -0.766151 -0.096567 -0.621074 -0.133996 center 0.015 0.083 0.031 ntor 6 -58.8040 75.7149 -79.6965 47.7037 20.3814 -107.0513
State:	 -3.042   2.301 -17.012  -0.773 -0.097 -0.627 -164.599    -58.80   75.71  -79.70   47.70   20.38 -107.05

DOCKED: MODEL       65
DOCKED: USER    Run = 65
DOCKED: USER    DPF = D:/Protein_go_brrr/autodock/final/mut_D99N/2_3_BPG/dock.dpf
DOCKED: USER  
DOCKED: USER    Estimated Free Energy of Binding    =   -8.93 kcal/mol  [=(1)+(2)+(3)-(4)]
DOCKED: USER    Estimated Inhibition Constant, Ki   =  284.56 nM (nanomolar)  [Temperature = 298.15 K]
DOCKED: USER    
DOCKED: USER    (1) Final Intermolecular Energy     =  -10.72 kcal/mol
DOCKED: USER        vdW + Hbond + desolv Energy     =   -3.22 kcal/mol
DOCKED: USER        Electrostatic Energy            =   -7.50 kcal/mol
DOCKED: USER    (2) Final Total Internal Energy     =   +2.39 kcal/mol
DOCKED: USER    (3) Torsional Free Energy           =   +1.79 kcal/mol
DOCKED: USER    (4) Unbound System's Energy  [=(2)] =   +2.39 kcal/mol
DOCKED: USER    
DOCKED: USER    
DOCKED: USER    NEWDPF move 2_3_BPG_opt.pdbqt
DOCKED: USER    NEWDPF about 0.015000 0.083000 0.031000
DOCKED: USER    NEWDPF tran0 -3.042342 2.301173 -17.011581
DOCKED: USER    NEWDPF quaternion0 -0.766151 -0.096567 -0.621074 -0.133996
DOCKED: USER    NEWDPF axisangle0 -0.773123 -0.097446 -0.626725 -164.598910
DOCKED: USER    NEWDPF quat0 -0.773123 -0.097446 -0.626725 -164.598910
DOCKED: USER    NEWDPF dihe0 -58.80 75.71 -79.70 47.70 20.38 -107.05 
DOCKED: USER  keepresnum = 1 
DOCKED: USER  
DOCKED: REMARK  6 active torsions:
DOCKED: REMARK  status: ('A' for Active; 'I' for Inactive)
DOCKED: REMARK    1  A    between atoms: P_1  and  O_3 
DOCKED: REMARK    2  A    between atoms: P_2  and  O_4 
DOCKED: REMARK    3  A    between atoms: O_3  and  C_13 
DOCKED: REMARK    4  A    between atoms: O_4  and  C_14 
DOCKED: REMARK    5  A    between atoms: C_13  and  C_14 
DOCKED: REMARK    6  A    between atoms: C_13  and  C_15 
DOCKED: USER                              x       y       z     vdW  Elec       q    Type
DOCKED: USER                           _______ _______ _______ _____ _____    ______ ____
DOCKED: ROOT
DOCKED: ATOM      1  C   UNL d   1      -3.177   2.637 -17.576 -0.10 +0.25    +0.193 C 
DOCKED: ENDROOT
DOCKED: BRANCH   1   2
DOCKED: ATOM      2  O   UNL d   1      -3.742   1.693 -18.546 -0.08 -0.67    -0.356 OA
DOCKED: BRANCH   2   3
DOCKED: ATOM      3  P   UNL d   1      -2.821   0.743 -19.522 -0.17 -0.02    -0.014 P 
DOCKED: ATOM      4  O   UNL d   1      -2.993   1.351 -20.923 +0.01 -0.50    -0.577 OA
DOCKED: ATOM      5  O   UNL d   1      -3.394  -0.671 -19.450 -0.42 -1.18    -0.577 OA
DOCKED: ATOM      6  O   UNL d   1      -1.376   0.838 -19.045 -0.28 -1.20    -0.638 OA
DOCKED: ENDBRANCH   2   3
DOCKED: ENDBRANCH   1   2
DOCKED: BRANCH   1   7
DOCKED: ATOM      7  C   UNL d   1      -3.127   1.942 -16.166 -0.19 +0.26    +0.201 C 
DOCKED: BRANCH   7   8
DOCKED: ATOM      8  O   UNL d   1      -2.474   0.654 -16.121 -0.17 -0.76    -0.364 OA
DOCKED: BRANCH   8   9
DOCKED: ATOM      9  P   UNL d   1      -2.837  -0.419 -14.915 -0.52 -0.02    -0.015 P 
DOCKED: ATOM     10  O   UNL d   1      -3.769  -1.449 -15.564 -0.11 -0.95    -0.577 OA
DOCKED: ATOM     11  O   UNL d   1      -3.540   0.372 -13.812 -0.10 -0.43    -0.577 OA
DOCKED: ATOM     12  O   UNL d   1      -1.521  -1.045 -14.456 -0.59 -0.93    -0.638 OA
DOCKED: ENDBRANCH   8   9
DOCKED: ENDBRANCH   7   8
DOCKED: ENDBRANCH   1   7
DOCKED: BRANCH   1  13
DOCKED: ATOM     13  C   UNL d   1      -4.089   3.917 -17.475 -0.10 +0.09    +0.073 C 
DOCKED: ATOM     14  O   UNL d   1      -5.086   4.022 -18.272 -0.40 -1.09    -0.547 OA
DOCKED: ATOM     15  O   UNL d   1      -3.811   4.758 -16.545 -0.01 -0.35    -0.547 OA
DOCKED: ENDBRANCH   1  13
DOCKED: TORSDOF 6
DOCKED: TER
DOCKED: ENDMDL
________________________________________________________________________________


	BEGINNING GENETIC ALGORITHM DOCKING 66 of 100
Run: 66 Seed: 851245690 429594623 [ Run 66 of 100 GA/GALS ]
Beginning LAMARCKIAN GENETIC ALGORITHM (LGA), with a maximum of 25000000 energy evaluations.

Final-Value: -8.284


	FINAL GENETIC ALGORITHM DOCKED STATE
	_______________________________________________


Detailed state:  trans -2.784 1.474 -16.827 quatxyzw -0.499597 0.743784 0.023898 -0.443415 center 0.015 0.083 0.031 ntor 6 28.6318 97.0576 132.5669 69.8377 -6.1874 -32.4249
State:	 -2.784   1.474 -16.827  -0.557  0.830  0.027 -127.356     28.63   97.06  132.57   69.84   -6.19  -32.42

DOCKED: MODEL       66
DOCKED: USER    Run = 66
DOCKED: USER    DPF = D:/Protein_go_brrr/autodock/final/mut_D99N/2_3_BPG/dock.dpf
DOCKED: USER  
DOCKED: USER    Estimated Free Energy of Binding    =   -8.65 kcal/mol  [=(1)+(2)+(3)-(4)]
DOCKED: USER    Estimated Inhibition Constant, Ki   =  454.30 nM (nanomolar)  [Temperature = 298.15 K]
DOCKED: USER    
DOCKED: USER    (1) Final Intermolecular Energy     =  -10.44 kcal/mol
DOCKED: USER        vdW + Hbond + desolv Energy     =   -3.70 kcal/mol
DOCKED: USER        Electrostatic Energy            =   -6.74 kcal/mol
DOCKED: USER    (2) Final Total Internal Energy     =   +2.16 kcal/mol
DOCKED: USER    (3) Torsional Free Energy           =   +1.79 kcal/mol
DOCKED: USER    (4) Unbound System's Energy  [=(2)] =   +2.16 kcal/mol
DOCKED: USER    
DOCKED: USER    
DOCKED: USER    NEWDPF move 2_3_BPG_opt.pdbqt
DOCKED: USER    NEWDPF about 0.015000 0.083000 0.031000
DOCKED: USER    NEWDPF tran0 -2.783975 1.474358 -16.827194
DOCKED: USER    NEWDPF quaternion0 -0.499597 0.743784 0.023898 -0.443415
DOCKED: USER    NEWDPF axisangle0 -0.557389 0.829823 0.026662 -127.355997
DOCKED: USER    NEWDPF quat0 -0.557389 0.829823 0.026662 -127.355997
DOCKED: USER    NEWDPF dihe0 28.63 97.06 132.57 69.84 -6.19 -32.42 
DOCKED: USER  keepresnum = 1 
DOCKED: USER  
DOCKED: REMARK  6 active torsions:
DOCKED: REMARK  status: ('A' for Active; 'I' for Inactive)
DOCKED: REMARK    1  A    between atoms: P_1  and  O_3 
DOCKED: REMARK    2  A    between atoms: P_2  and  O_4 
DOCKED: REMARK    3  A    between atoms: O_3  and  C_13 
DOCKED: REMARK    4  A    between atoms: O_4  and  C_14 
DOCKED: REMARK    5  A    between atoms: C_13  and  C_14 
DOCKED: REMARK    6  A    between atoms: C_13  and  C_15 
DOCKED: USER                              x       y       z     vdW  Elec       q    Type
DOCKED: USER                           _______ _______ _______ _____ _____    ______ ____
DOCKED: ROOT
DOCKED: ATOM      1  C   UNL d   1      -2.423   1.786 -16.356 -0.23 +0.26    +0.193 C 
DOCKED: ENDROOT
DOCKED: BRANCH   1   2
DOCKED: ATOM      2  O   UNL d   1      -3.329   2.635 -15.574 -0.19 -0.35    -0.356 OA
DOCKED: BRANCH   2   3
DOCKED: ATOM      3  P   UNL d   1      -4.170   3.892 -16.219 -0.36 -0.01    -0.014 P 
DOCKED: ATOM      4  O   UNL d   1      -3.206   5.086 -16.127 -0.00 -0.27    -0.577 OA
DOCKED: ATOM      5  O   UNL d   1      -5.408   4.102 -15.351 -0.15 -0.40    -0.577 OA
DOCKED: ATOM      6  O   UNL d   1      -4.495   3.547 -17.669 -0.26 -1.17    -0.638 OA
DOCKED: ENDBRANCH   2   3
DOCKED: ENDBRANCH   1   2
DOCKED: BRANCH   1   7
DOCKED: ATOM      7  C   UNL d   1      -3.284   0.834 -17.266 +0.24 +0.43    +0.201 C 
DOCKED: BRANCH   7   8
DOCKED: ATOM      8  O   UNL d   1      -2.959   0.845 -18.674 -0.15 -0.72    -0.364 OA
DOCKED: BRANCH   8   9
DOCKED: ATOM      9  P   UNL d   1      -3.745  -0.172 -19.715 -0.21 -0.02    -0.015 P 
DOCKED: ATOM     10  O   UNL d   1      -3.758  -1.533 -19.008 -0.57 -1.26    -0.577 OA
DOCKED: ATOM     11  O   UNL d   1      -2.928  -0.208 -21.006 -0.03 -0.56    -0.577 OA
DOCKED: ATOM     12  O   UNL d   1      -5.154   0.385 -19.913 -0.11 -1.21    -0.638 OA
DOCKED: ENDBRANCH   8   9
DOCKED: ENDBRANCH   7   8
DOCKED: ENDBRANCH   1   7
DOCKED: BRANCH   1  13
DOCKED: ATOM     13  C   UNL d   1      -1.545   0.904 -15.393 -0.32 +0.11    +0.073 C 
DOCKED: ATOM     14  O   UNL d   1      -2.047  -0.179 -14.927 -0.66 -0.96    -0.547 OA
DOCKED: ATOM     15  O   UNL d   1      -0.341   1.296 -15.180 -0.68 -0.61    -0.547 OA
DOCKED: ENDBRANCH   1  13
DOCKED: TORSDOF 6
DOCKED: TER
DOCKED: ENDMDL
________________________________________________________________________________


	BEGINNING GENETIC ALGORITHM DOCKING 67 of 100
Run: 67 Seed: 105803401 1426901877 [ Run 67 of 100 GA/GALS ]
Beginning LAMARCKIAN GENETIC ALGORITHM (LGA), with a maximum of 25000000 energy evaluations.

Final-Value: -9.417


	FINAL GENETIC ALGORITHM DOCKED STATE
	_______________________________________________


Detailed state:  trans -3.988 -2.550 -17.001 quatxyzw -0.054415 0.791032 -0.096906 -0.601595 center 0.015 0.083 0.031 ntor 6 -156.5027 24.0422 -166.0571 30.4570 -56.0057 -121.1668
State:	 -3.988  -2.550 -17.001  -0.068  0.990 -0.121 -106.032   -156.50   24.04 -166.06   30.46  -56.01 -121.17

DOCKED: MODEL       67
DOCKED: USER    Run = 67
DOCKED: USER    DPF = D:/Protein_go_brrr/autodock/final/mut_D99N/2_3_BPG/dock.dpf
DOCKED: USER  
DOCKED: USER    Estimated Free Energy of Binding    =   -9.96 kcal/mol  [=(1)+(2)+(3)-(4)]
DOCKED: USER    Estimated Inhibition Constant, Ki   =   50.27 nM (nanomolar)  [Temperature = 298.15 K]
DOCKED: USER    
DOCKED: USER    (1) Final Intermolecular Energy     =  -11.75 kcal/mol
DOCKED: USER        vdW + Hbond + desolv Energy     =   -4.87 kcal/mol
DOCKED: USER        Electrostatic Energy            =   -6.88 kcal/mol
DOCKED: USER    (2) Final Total Internal Energy     =   +2.33 kcal/mol
DOCKED: USER    (3) Torsional Free Energy           =   +1.79 kcal/mol
DOCKED: USER    (4) Unbound System's Energy  [=(2)] =   +2.33 kcal/mol
DOCKED: USER    
DOCKED: USER    
DOCKED: USER    NEWDPF move 2_3_BPG_opt.pdbqt
DOCKED: USER    NEWDPF about 0.015000 0.083000 0.031000
DOCKED: USER    NEWDPF tran0 -3.988461 -2.550362 -17.000674
DOCKED: USER    NEWDPF quaternion0 -0.054415 0.791032 -0.096906 -0.601595
DOCKED: USER    NEWDPF axisangle0 -0.068121 0.990274 -0.121314 -106.031551
DOCKED: USER    NEWDPF quat0 -0.068121 0.990274 -0.121314 -106.031551
DOCKED: USER    NEWDPF dihe0 -156.50 24.04 -166.06 30.46 -56.01 -121.17 
DOCKED: USER  keepresnum = 1 
DOCKED: USER  
DOCKED: REMARK  6 active torsions:
DOCKED: REMARK  status: ('A' for Active; 'I' for Inactive)
DOCKED: REMARK    1  A    between atoms: P_1  and  O_3 
DOCKED: REMARK    2  A    between atoms: P_2  and  O_4 
DOCKED: REMARK    3  A    between atoms: O_3  and  C_13 
DOCKED: REMARK    4  A    between atoms: O_4  and  C_14 
DOCKED: REMARK    5  A    between atoms: C_13  and  C_14 
DOCKED: REMARK    6  A    between atoms: C_13  and  C_15 
DOCKED: USER                              x       y       z     vdW  Elec       q    Type
DOCKED: USER                           _______ _______ _______ _____ _____    ______ ____
DOCKED: ROOT
DOCKED: ATOM      1  C   UNL d   1      -3.750  -2.744 -16.405 -0.08 +0.32    +0.193 C 
DOCKED: ENDROOT
DOCKED: BRANCH   1   2
DOCKED: ATOM      2  O   UNL d   1      -4.061  -1.696 -15.426 -0.31 -0.50    -0.356 OA
DOCKED: BRANCH   2   3
DOCKED: ATOM      3  P   UNL d   1      -2.955  -0.602 -14.893 -0.55 -0.02    -0.014 P 
DOCKED: ATOM      4  O   UNL d   1      -3.540  -0.079 -13.572 -0.10 -0.39    -0.577 OA
DOCKED: ATOM      5  O   UNL d   1      -2.868   0.502 -15.945 -0.14 -1.13    -0.577 OA
DOCKED: ATOM      6  O   UNL d   1      -1.636  -1.335 -14.670 -0.44 -1.10    -0.638 OA
DOCKED: ENDBRANCH   2   3
DOCKED: ENDBRANCH   1   2
DOCKED: BRANCH   1   7
DOCKED: ATOM      7  C   UNL d   1      -4.546  -2.449 -17.729 -0.23 +0.30    +0.201 C 
DOCKED: BRANCH   7   8
DOCKED: ATOM      8  O   UNL d   1      -4.650  -1.058 -18.106 -0.52 -0.72    -0.364 OA
DOCKED: BRANCH   8   9
DOCKED: ATOM      9  P   UNL d   1      -4.198  -0.573 -19.622 -0.24 -0.02    -0.015 P 
DOCKED: ATOM     10  O   UNL d   1      -4.128  -1.863 -20.449 -0.08 -0.58    -0.577 OA
DOCKED: ATOM     11  O   UNL d   1      -2.829   0.093 -19.486 -0.18 -1.13    -0.577 OA
DOCKED: ATOM     12  O   UNL d   1      -5.278   0.378 -20.132 -0.16 -1.15    -0.638 OA
DOCKED: ENDBRANCH   8   9
DOCKED: ENDBRANCH   7   8
DOCKED: ENDBRANCH   1   7
DOCKED: BRANCH   1  13
DOCKED: ATOM     13  C   UNL d   1      -4.195  -4.149 -15.851 -0.55 +0.06    +0.073 C 
DOCKED: ATOM     14  O   UNL d   1      -3.296  -4.936 -15.389 -0.76 -0.39    -0.547 OA
DOCKED: ATOM     15  O   UNL d   1      -5.454  -4.398 -15.839 -0.53 -0.43    -0.547 OA
DOCKED: ENDBRANCH   1  13
DOCKED: TORSDOF 6
DOCKED: TER
DOCKED: ENDMDL
________________________________________________________________________________


	BEGINNING GENETIC ALGORITHM DOCKING 68 of 100
Run: 68 Seed: 70747764 594803639 [ Run 68 of 100 GA/GALS ]
Beginning LAMARCKIAN GENETIC ALGORITHM (LGA), with a maximum of 25000000 energy evaluations.

Final-Value: -8.527


	FINAL GENETIC ALGORITHM DOCKED STATE
	_______________________________________________


Detailed state:  trans -2.792 2.433 -17.049 quatxyzw 0.185322 0.586817 -0.522171 0.590456 center 0.015 0.083 0.031 ntor 6 19.1875 48.4589 -160.0242 15.4951 69.3995 -17.3735
State:	 -2.792   2.433 -17.049   0.230  0.727 -0.647 107.621     19.19   48.46 -160.02   15.50   69.40  -17.37

DOCKED: MODEL       68
DOCKED: USER    Run = 68
DOCKED: USER    DPF = D:/Protein_go_brrr/autodock/final/mut_D99N/2_3_BPG/dock.dpf
DOCKED: USER  
DOCKED: USER    Estimated Free Energy of Binding    =   -8.96 kcal/mol  [=(1)+(2)+(3)-(4)]
DOCKED: USER    Estimated Inhibition Constant, Ki   =  270.16 nM (nanomolar)  [Temperature = 298.15 K]
DOCKED: USER    
DOCKED: USER    (1) Final Intermolecular Energy     =  -10.75 kcal/mol
DOCKED: USER        vdW + Hbond + desolv Energy     =   -3.22 kcal/mol
DOCKED: USER        Electrostatic Energy            =   -7.53 kcal/mol
DOCKED: USER    (2) Final Total Internal Energy     =   +2.22 kcal/mol
DOCKED: USER    (3) Torsional Free Energy           =   +1.79 kcal/mol
DOCKED: USER    (4) Unbound System's Energy  [=(2)] =   +2.22 kcal/mol
DOCKED: USER    
DOCKED: USER    
DOCKED: USER    NEWDPF move 2_3_BPG_opt.pdbqt
DOCKED: USER    NEWDPF about 0.015000 0.083000 0.031000
DOCKED: USER    NEWDPF tran0 -2.792361 2.432945 -17.049476
DOCKED: USER    NEWDPF quaternion0 0.185322 0.586817 -0.522171 0.590456
DOCKED: USER    NEWDPF axisangle0 0.229624 0.727096 -0.646996 107.621267
DOCKED: USER    NEWDPF quat0 0.229624 0.727096 -0.646996 107.621267
DOCKED: USER    NEWDPF dihe0 19.19 48.46 -160.02 15.50 69.40 -17.37 
DOCKED: USER  keepresnum = 1 
DOCKED: USER  
DOCKED: REMARK  6 active torsions:
DOCKED: REMARK  status: ('A' for Active; 'I' for Inactive)
DOCKED: REMARK    1  A    between atoms: P_1  and  O_3 
DOCKED: REMARK    2  A    between atoms: P_2  and  O_4 
DOCKED: REMARK    3  A    between atoms: O_3  and  C_13 
DOCKED: REMARK    4  A    between atoms: O_4  and  C_14 
DOCKED: REMARK    5  A    between atoms: C_13  and  C_14 
DOCKED: REMARK    6  A    between atoms: C_13  and  C_15 
DOCKED: USER                              x       y       z     vdW  Elec       q    Type
DOCKED: USER                           _______ _______ _______ _____ _____    ______ ____
DOCKED: ROOT
DOCKED: ATOM      1  C   UNL d   1      -2.613   1.787 -17.060 -0.18 +0.28    +0.193 C 
DOCKED: ENDROOT
DOCKED: BRANCH   1   2
DOCKED: ATOM      2  O   UNL d   1      -2.116   1.473 -18.404 -0.11 -0.57    -0.356 OA
DOCKED: BRANCH   2   3
DOCKED: ATOM      3  P   UNL d   1      -2.839   0.384 -19.402 +0.01 -0.03    -0.014 P 
DOCKED: ATOM      4  O   UNL d   1      -1.676  -0.438 -19.979 -0.16 -1.09    -0.577 OA
DOCKED: ATOM      5  O   UNL d   1      -3.560   1.177 -20.490 -0.01 -0.65    -0.577 OA
DOCKED: ATOM      6  O   UNL d   1      -3.772  -0.480 -18.561 -0.46 -1.62    -0.638 OA
DOCKED: ENDBRANCH   2   3
DOCKED: ENDBRANCH   1   2
DOCKED: BRANCH   1   7
DOCKED: ATOM      7  C   UNL d   1      -2.762   3.348 -16.929 -0.14 +0.18    +0.201 C 
DOCKED: BRANCH   7   8
DOCKED: ATOM      8  O   UNL d   1      -3.907   3.811 -16.180 -0.15 -0.32    -0.364 OA
DOCKED: BRANCH   8   9
DOCKED: ATOM      9  P   UNL d   1      -5.184   4.511 -16.964 -0.26 -0.02    -0.015 P 
DOCKED: ATOM     10  O   UNL d   1      -5.090   4.007 -18.409 -0.40 -1.16    -0.577 OA
DOCKED: ATOM     11  O   UNL d   1      -4.988   6.024 -16.874 +0.01 -0.25    -0.577 OA
DOCKED: ATOM     12  O   UNL d   1      -6.458   4.031 -16.270 -0.13 -0.83    -0.638 OA
DOCKED: ENDBRANCH   8   9
DOCKED: ENDBRANCH   7   8
DOCKED: ENDBRANCH   1   7
DOCKED: BRANCH   1  13
DOCKED: ATOM     13  C   UNL d   1      -1.589   1.286 -15.975 -0.28 +0.11    +0.073 C 
DOCKED: ATOM     14  O   UNL d   1      -0.490   1.927 -15.829 -0.43 -0.57    -0.547 OA
DOCKED: ATOM     15  O   UNL d   1      -1.950   0.290 -15.249 -0.52 -1.02    -0.547 OA
DOCKED: ENDBRANCH   1  13
DOCKED: TORSDOF 6
DOCKED: TER
DOCKED: ENDMDL
________________________________________________________________________________


	BEGINNING GENETIC ALGORITHM DOCKING 69 of 100
Run: 69 Seed: 1371922071 1271318616 [ Run 69 of 100 GA/GALS ]
Beginning LAMARCKIAN GENETIC ALGORITHM (LGA), with a maximum of 25000000 energy evaluations.

Final-Value: -8.529


	FINAL GENETIC ALGORITHM DOCKED STATE
	_______________________________________________


Detailed state:  trans -4.517 -1.434 -18.848 quatxyzw 0.061080 0.308984 0.733673 0.602099 center 0.015 0.083 0.031 ntor 6 -167.9733 -158.6903 -151.1055 30.7205 -19.3147 -55.7569
State:	 -4.517  -1.434 -18.848   0.077  0.387  0.919 105.959   -167.97 -158.69 -151.11   30.72  -19.31  -55.76

DOCKED: MODEL       69
DOCKED: USER    Run = 69
DOCKED: USER    DPF = D:/Protein_go_brrr/autodock/final/mut_D99N/2_3_BPG/dock.dpf
DOCKED: USER  
DOCKED: USER    Estimated Free Energy of Binding    =   -8.68 kcal/mol  [=(1)+(2)+(3)-(4)]
DOCKED: USER    Estimated Inhibition Constant, Ki   =  430.69 nM (nanomolar)  [Temperature = 298.15 K]
DOCKED: USER    
DOCKED: USER    (1) Final Intermolecular Energy     =  -10.47 kcal/mol
DOCKED: USER        vdW + Hbond + desolv Energy     =   -4.09 kcal/mol
DOCKED: USER        Electrostatic Energy            =   -6.39 kcal/mol
DOCKED: USER    (2) Final Total Internal Energy     =   +1.95 kcal/mol
DOCKED: USER    (3) Torsional Free Energy           =   +1.79 kcal/mol
DOCKED: USER    (4) Unbound System's Energy  [=(2)] =   +1.95 kcal/mol
DOCKED: USER    
DOCKED: USER    
DOCKED: USER    NEWDPF move 2_3_BPG_opt.pdbqt
DOCKED: USER    NEWDPF about 0.015000 0.083000 0.031000
DOCKED: USER    NEWDPF tran0 -4.516922 -1.433832 -18.848425
DOCKED: USER    NEWDPF quaternion0 0.061080 0.308984 0.733673 0.602099
DOCKED: USER    NEWDPF axisangle0 0.076501 0.386993 0.918904 105.959301
DOCKED: USER    NEWDPF quat0 0.076501 0.386993 0.918904 105.959301
DOCKED: USER    NEWDPF dihe0 -167.97 -158.69 -151.11 30.72 -19.31 -55.76 
DOCKED: USER  keepresnum = 1 
DOCKED: USER  
DOCKED: REMARK  6 active torsions:
DOCKED: REMARK  status: ('A' for Active; 'I' for Inactive)
DOCKED: REMARK    1  A    between atoms: P_1  and  O_3 
DOCKED: REMARK    2  A    between atoms: P_2  and  O_4 
DOCKED: REMARK    3  A    between atoms: O_3  and  C_13 
DOCKED: REMARK    4  A    between atoms: O_4  and  C_14 
DOCKED: REMARK    5  A    between atoms: C_13  and  C_14 
DOCKED: REMARK    6  A    between atoms: C_13  and  C_15 
DOCKED: USER                              x       y       z     vdW  Elec       q    Type
DOCKED: USER                           _______ _______ _______ _____ _____    ______ ____
DOCKED: ROOT
DOCKED: ATOM      1  C   UNL d   1      -4.674  -0.863 -19.163 -0.10 +0.32    +0.193 C 
DOCKED: ENDROOT
DOCKED: BRANCH   1   2
DOCKED: ATOM      2  O   UNL d   1      -3.476  -0.381 -19.860 -0.30 -0.57    -0.356 OA
DOCKED: BRANCH   2   3
DOCKED: ATOM      3  P   UNL d   1      -2.527   0.834 -19.289 -0.09 -0.02    -0.014 P 
DOCKED: ATOM      4  O   UNL d   1      -2.909   0.954 -17.805 +0.00 -1.23    -0.577 OA
DOCKED: ATOM      5  O   UNL d   1      -2.892   2.097 -20.066 +0.00 -0.57    -0.577 OA
DOCKED: ATOM      6  O   UNL d   1      -1.071   0.415 -19.460 -0.43 -1.22    -0.638 OA
DOCKED: ENDBRANCH   2   3
DOCKED: ENDBRANCH   1   2
DOCKED: BRANCH   1   7
DOCKED: ATOM      7  C   UNL d   1      -4.412  -2.333 -18.667 -0.18 +0.30    +0.201 C 
DOCKED: BRANCH   7   8
DOCKED: ATOM      8  O   UNL d   1      -4.137  -2.483 -17.257 -0.37 -0.64    -0.364 OA
DOCKED: BRANCH   8   9
DOCKED: ATOM      9  P   UNL d   1      -4.243  -3.972 -16.544 -0.78 -0.01    -0.015 P 
DOCKED: ATOM     10  O   UNL d   1      -3.858  -4.969 -17.645 -0.07 -0.27    -0.577 OA
DOCKED: ATOM     11  O   UNL d   1      -5.693  -4.149 -16.095 -0.73 -0.46    -0.577 OA
DOCKED: ATOM     12  O   UNL d   1      -3.251  -3.988 -15.383 -0.44 -0.63    -0.638 OA
DOCKED: ENDBRANCH   8   9
DOCKED: ENDBRANCH   7   8
DOCKED: ENDBRANCH   1   7
DOCKED: BRANCH   1  13
DOCKED: ATOM     13  C   UNL d   1      -5.903  -0.874 -20.146 -0.12 +0.09    +0.073 C 
DOCKED: ATOM     14  O   UNL d   1      -6.879  -0.077 -19.915 -0.47 -1.10    -0.547 OA
DOCKED: ATOM     15  O   UNL d   1      -5.824  -1.646 -21.169 +0.00 -0.37    -0.547 OA
DOCKED: ENDBRANCH   1  13
DOCKED: TORSDOF 6
DOCKED: TER
DOCKED: ENDMDL
________________________________________________________________________________


	BEGINNING GENETIC ALGORITHM DOCKING 70 of 100
Run: 70 Seed: 1091541942 885240745 [ Run 70 of 100 GA/GALS ]
Beginning LAMARCKIAN GENETIC ALGORITHM (LGA), with a maximum of 25000000 energy evaluations.

Final-Value: -8.093


	FINAL GENETIC ALGORITHM DOCKED STATE
	_______________________________________________


Detailed state:  trans -4.865 -1.362 -18.745 quatxyzw 0.118832 -0.732981 -0.524017 -0.417163 center 0.015 0.083 0.031 ntor 6 147.2967 20.9140 -140.9187 46.1261 -14.7206 167.8784
State:	 -4.865  -1.362 -18.745   0.131 -0.807 -0.577 -130.689    147.30   20.91 -140.92   46.13  -14.72  167.88

DOCKED: MODEL       70
DOCKED: USER    Run = 70
DOCKED: USER    DPF = D:/Protein_go_brrr/autodock/final/mut_D99N/2_3_BPG/dock.dpf
DOCKED: USER  
DOCKED: USER    Estimated Free Energy of Binding    =   -8.50 kcal/mol  [=(1)+(2)+(3)-(4)]
DOCKED: USER    Estimated Inhibition Constant, Ki   =  592.91 nM (nanomolar)  [Temperature = 298.15 K]
DOCKED: USER    
DOCKED: USER    (1) Final Intermolecular Energy     =  -10.28 kcal/mol
DOCKED: USER        vdW + Hbond + desolv Energy     =   -3.66 kcal/mol
DOCKED: USER        Electrostatic Energy            =   -6.63 kcal/mol
DOCKED: USER    (2) Final Total Internal Energy     =   +2.19 kcal/mol
DOCKED: USER    (3) Torsional Free Energy           =   +1.79 kcal/mol
DOCKED: USER    (4) Unbound System's Energy  [=(2)] =   +2.19 kcal/mol
DOCKED: USER    
DOCKED: USER    
DOCKED: USER    NEWDPF move 2_3_BPG_opt.pdbqt
DOCKED: USER    NEWDPF about 0.015000 0.083000 0.031000
DOCKED: USER    NEWDPF tran0 -4.864661 -1.362467 -18.744865
DOCKED: USER    NEWDPF quaternion0 0.118832 -0.732981 -0.524017 -0.417163
DOCKED: USER    NEWDPF axisangle0 0.130753 -0.806508 -0.576583 -130.688829
DOCKED: USER    NEWDPF quat0 0.130753 -0.806508 -0.576583 -130.688829
DOCKED: USER    NEWDPF dihe0 147.30 20.91 -140.92 46.13 -14.72 167.88 
DOCKED: USER  keepresnum = 1 
DOCKED: USER  
DOCKED: REMARK  6 active torsions:
DOCKED: REMARK  status: ('A' for Active; 'I' for Inactive)
DOCKED: REMARK    1  A    between atoms: P_1  and  O_3 
DOCKED: REMARK    2  A    between atoms: P_2  and  O_4 
DOCKED: REMARK    3  A    between atoms: O_3  and  C_13 
DOCKED: REMARK    4  A    between atoms: O_4  and  C_14 
DOCKED: REMARK    5  A    between atoms: C_13  and  C_14 
DOCKED: REMARK    6  A    between atoms: C_13  and  C_15 
DOCKED: USER                              x       y       z     vdW  Elec       q    Type
DOCKED: USER                           _______ _______ _______ _____ _____    ______ ____
DOCKED: ROOT
DOCKED: ATOM      1  C   UNL d   1      -4.650  -1.074 -19.310 -0.17 +0.30    +0.193 C 
DOCKED: ENDROOT
DOCKED: BRANCH   1   2
DOCKED: ATOM      2  O   UNL d   1      -3.312  -0.525 -19.064 -0.37 -0.90    -0.356 OA
DOCKED: BRANCH   2   3
DOCKED: ATOM      3  P   UNL d   1      -3.052   0.972 -18.433 +0.02 -0.03    -0.014 P 
DOCKED: ATOM      4  O   UNL d   1      -1.580   1.274 -18.756 -0.18 -0.93    -0.577 OA
DOCKED: ATOM      5  O   UNL d   1      -3.288   0.875 -16.927 +0.02 -1.16    -0.577 OA
DOCKED: ATOM      6  O   UNL d   1      -3.991   1.948 -19.134 +0.01 -1.18    -0.638 OA
DOCKED: ENDBRANCH   2   3
DOCKED: ENDBRANCH   1   2
DOCKED: BRANCH   1   7
DOCKED: ATOM      7  C   UNL d   1      -5.047  -1.999 -18.102 -0.14 +0.28    +0.201 C 
DOCKED: BRANCH   7   8
DOCKED: ATOM      8  O   UNL d   1      -3.959  -2.706 -17.465 -0.27 -0.65    -0.364 OA
DOCKED: BRANCH   8   9
DOCKED: ATOM      9  P   UNL d   1      -4.202  -3.473 -16.020 -0.78 -0.02    -0.015 P 
DOCKED: ATOM     10  O   UNL d   1      -5.575  -4.144 -16.150 -0.78 -0.46    -0.577 OA
DOCKED: ATOM     11  O   UNL d   1      -4.194  -2.396 -14.936 -0.29 -0.64    -0.577 OA
DOCKED: ATOM     12  O   UNL d   1      -3.078  -4.495 -15.857 -0.50 -0.55    -0.638 OA
DOCKED: ENDBRANCH   8   9
DOCKED: ENDBRANCH   7   8
DOCKED: ENDBRANCH   1   7
DOCKED: BRANCH   1  13
DOCKED: ATOM     13  C   UNL d   1      -4.644  -1.938 -20.626 -0.17 +0.06    +0.073 C 
DOCKED: ATOM     14  O   UNL d   1      -5.758  -2.154 -21.220 +0.00 -0.32    -0.547 OA
DOCKED: ATOM     15  O   UNL d   1      -3.501  -2.325 -21.064 -0.08 -0.43    -0.547 OA
DOCKED: ENDBRANCH   1  13
DOCKED: TORSDOF 6
DOCKED: TER
DOCKED: ENDMDL
________________________________________________________________________________


	BEGINNING GENETIC ALGORITHM DOCKING 71 of 100
Run: 71 Seed: 1976870821 127782906 [ Run 71 of 100 GA/GALS ]
Beginning LAMARCKIAN GENETIC ALGORITHM (LGA), with a maximum of 25000000 energy evaluations.

Final-Value: -8.888


	FINAL GENETIC ALGORITHM DOCKED STATE
	_______________________________________________


Detailed state:  trans -2.283 2.103 -17.693 quatxyzw -0.948966 -0.201267 -0.240412 -0.034008 center 0.015 0.083 0.031 ntor 6 -124.7429 -20.7119 150.2470 21.3949 -34.6240 -177.3533
State:	 -2.283   2.103 -17.693  -0.950 -0.201 -0.241 -176.102   -124.74  -20.71  150.25   21.39  -34.62 -177.35

DOCKED: MODEL       71
DOCKED: USER    Run = 71
DOCKED: USER    DPF = D:/Protein_go_brrr/autodock/final/mut_D99N/2_3_BPG/dock.dpf
DOCKED: USER  
DOCKED: USER    Estimated Free Energy of Binding    =   -9.36 kcal/mol  [=(1)+(2)+(3)-(4)]
DOCKED: USER    Estimated Inhibition Constant, Ki   =  138.70 nM (nanomolar)  [Temperature = 298.15 K]
DOCKED: USER    
DOCKED: USER    (1) Final Intermolecular Energy     =  -11.15 kcal/mol
DOCKED: USER        vdW + Hbond + desolv Energy     =   -3.28 kcal/mol
DOCKED: USER        Electrostatic Energy            =   -7.87 kcal/mol
DOCKED: USER    (2) Final Total Internal Energy     =   +2.26 kcal/mol
DOCKED: USER    (3) Torsional Free Energy           =   +1.79 kcal/mol
DOCKED: USER    (4) Unbound System's Energy  [=(2)] =   +2.26 kcal/mol
DOCKED: USER    
DOCKED: USER    
DOCKED: USER    NEWDPF move 2_3_BPG_opt.pdbqt
DOCKED: USER    NEWDPF about 0.015000 0.083000 0.031000
DOCKED: USER    NEWDPF tran0 -2.282861 2.102770 -17.693382
DOCKED: USER    NEWDPF quaternion0 -0.948966 -0.201267 -0.240412 -0.034008
DOCKED: USER    NEWDPF axisangle0 -0.949516 -0.201383 -0.240552 -176.102244
DOCKED: USER    NEWDPF quat0 -0.949516 -0.201383 -0.240552 -176.102244
DOCKED: USER    NEWDPF dihe0 -124.74 -20.71 150.25 21.39 -34.62 -177.35 
DOCKED: USER  keepresnum = 1 
DOCKED: USER  
DOCKED: REMARK  6 active torsions:
DOCKED: REMARK  status: ('A' for Active; 'I' for Inactive)
DOCKED: REMARK    1  A    between atoms: P_1  and  O_3 
DOCKED: REMARK    2  A    between atoms: P_2  and  O_4 
DOCKED: REMARK    3  A    between atoms: O_3  and  C_13 
DOCKED: REMARK    4  A    between atoms: O_4  and  C_14 
DOCKED: REMARK    5  A    between atoms: C_13  and  C_14 
DOCKED: REMARK    6  A    between atoms: C_13  and  C_15 
DOCKED: USER                              x       y       z     vdW  Elec       q    Type
DOCKED: USER                           _______ _______ _______ _____ _____    ______ ____
DOCKED: ROOT
DOCKED: ATOM      1  C   UNL d   1      -2.837   2.190 -18.061 -0.12 +0.26    +0.193 C 
DOCKED: ENDROOT
DOCKED: BRANCH   1   2
DOCKED: ATOM      2  O   UNL d   1      -3.647   0.970 -17.961 +0.09 -0.75    -0.356 OA
DOCKED: BRANCH   2   3
DOCKED: ATOM      3  P   UNL d   1      -3.881  -0.064 -19.219 -0.06 -0.03    -0.014 P 
DOCKED: ATOM      4  O   UNL d   1      -4.196  -1.412 -18.553 -0.66 -1.20    -0.577 OA
DOCKED: ATOM      5  O   UNL d   1      -2.574  -0.119 -20.008 -0.14 -0.94    -0.577 OA
DOCKED: ATOM      6  O   UNL d   1      -5.063   0.448 -20.036 -0.11 -1.14    -0.638 OA
DOCKED: ENDBRANCH   2   3
DOCKED: ENDBRANCH   1   2
DOCKED: BRANCH   1   7
DOCKED: ATOM      7  C   UNL d   1      -1.690   2.122 -16.986 -0.17 +0.24    +0.201 C 
DOCKED: BRANCH   7   8
DOCKED: ATOM      8  O   UNL d   1      -1.884   1.172 -15.916 -0.33 -0.58    -0.364 OA
DOCKED: BRANCH   8   9
DOCKED: ATOM      9  P   UNL d   1      -0.579   0.431 -15.218 -0.23 -0.02    -0.015 P 
DOCKED: ATOM     10  O   UNL d   1       0.495   0.403 -16.311 -0.03 -0.70    -0.577 OA
DOCKED: ATOM     11  O   UNL d   1      -1.026  -0.975 -14.819 -0.55 -1.08    -0.577 OA
DOCKED: ATOM     12  O   UNL d   1      -0.160   1.287 -14.023 -0.38 -0.59    -0.638 OA
DOCKED: ENDBRANCH   8   9
DOCKED: ENDBRANCH   7   8
DOCKED: ENDBRANCH   1   7
DOCKED: BRANCH   1  13
DOCKED: ATOM     13  C   UNL d   1      -3.727   3.455 -17.770 -0.10 +0.09    +0.073 C 
DOCKED: ATOM     14  O   UNL d   1      -4.599   3.802 -18.641 -0.47 -0.97    -0.547 OA
DOCKED: ATOM     15  O   UNL d   1      -3.567   4.031 -16.634 -0.03 -0.45    -0.547 OA
DOCKED: ENDBRANCH   1  13
DOCKED: TORSDOF 6
DOCKED: TER
DOCKED: ENDMDL
________________________________________________________________________________


	BEGINNING GENETIC ALGORITHM DOCKING 72 of 100
Run: 72 Seed: 320747281 319933242 [ Run 72 of 100 GA/GALS ]
Beginning LAMARCKIAN GENETIC ALGORITHM (LGA), with a maximum of 25000000 energy evaluations.

Final-Value: -8.581


	FINAL GENETIC ALGORITHM DOCKED STATE
	_______________________________________________


Detailed state:  trans -2.321 1.557 -16.597 quatxyzw 0.829242 0.062393 0.551798 0.063123 center 0.015 0.083 0.031 ntor 6 -70.8481 -29.0353 54.6979 13.3945 -46.9360 -176.6856
State:	 -2.321   1.557 -16.597   0.831  0.063  0.553 172.762    -70.85  -29.04   54.70   13.39  -46.94 -176.69

DOCKED: MODEL       72
DOCKED: USER    Run = 72
DOCKED: USER    DPF = D:/Protein_go_brrr/autodock/final/mut_D99N/2_3_BPG/dock.dpf
DOCKED: USER  
DOCKED: USER    Estimated Free Energy of Binding    =   -9.11 kcal/mol  [=(1)+(2)+(3)-(4)]
DOCKED: USER    Estimated Inhibition Constant, Ki   =  209.55 nM (nanomolar)  [Temperature = 298.15 K]
DOCKED: USER    
DOCKED: USER    (1) Final Intermolecular Energy     =  -10.90 kcal/mol
DOCKED: USER        vdW + Hbond + desolv Energy     =   -3.80 kcal/mol
DOCKED: USER        Electrostatic Energy            =   -7.10 kcal/mol
DOCKED: USER    (2) Final Total Internal Energy     =   +2.32 kcal/mol
DOCKED: USER    (3) Torsional Free Energy           =   +1.79 kcal/mol
DOCKED: USER    (4) Unbound System's Energy  [=(2)] =   +2.32 kcal/mol
DOCKED: USER    
DOCKED: USER    
DOCKED: USER    NEWDPF move 2_3_BPG_opt.pdbqt
DOCKED: USER    NEWDPF about 0.015000 0.083000 0.031000
DOCKED: USER    NEWDPF tran0 -2.320697 1.557411 -16.597028
DOCKED: USER    NEWDPF quaternion0 0.829242 0.062393 0.551798 0.063123
DOCKED: USER    NEWDPF axisangle0 0.830899 0.062518 0.552900 172.761787
DOCKED: USER    NEWDPF quat0 0.830899 0.062518 0.552900 172.761787
DOCKED: USER    NEWDPF dihe0 -70.85 -29.04 54.70 13.39 -46.94 -176.69 
DOCKED: USER  keepresnum = 1 
DOCKED: USER  
DOCKED: REMARK  6 active torsions:
DOCKED: REMARK  status: ('A' for Active; 'I' for Inactive)
DOCKED: REMARK    1  A    between atoms: P_1  and  O_3 
DOCKED: REMARK    2  A    between atoms: P_2  and  O_4 
DOCKED: REMARK    3  A    between atoms: O_3  and  C_13 
DOCKED: REMARK    4  A    between atoms: O_4  and  C_14 
DOCKED: REMARK    5  A    between atoms: C_13  and  C_14 
DOCKED: REMARK    6  A    between atoms: C_13  and  C_15 
DOCKED: USER                              x       y       z     vdW  Elec       q    Type
DOCKED: USER                           _______ _______ _______ _____ _____    ______ ____
DOCKED: ROOT
DOCKED: ATOM      1  C   UNL d   1      -2.515   1.861 -17.162 -0.17 +0.28    +0.193 C 
DOCKED: ENDROOT
DOCKED: BRANCH   1   2
DOCKED: ATOM      2  O   UNL d   1      -3.363   0.928 -17.914 -0.09 -0.75    -0.356 OA
DOCKED: BRANCH   2   3
DOCKED: ATOM      3  P   UNL d   1      -2.989   0.381 -19.419 -0.07 -0.03    -0.014 P 
DOCKED: ATOM      4  O   UNL d   1      -3.550  -1.049 -19.457 -0.49 -1.14    -0.577 OA
DOCKED: ATOM      5  O   UNL d   1      -1.467   0.391 -19.539 -0.31 -1.10    -0.577 OA
DOCKED: ATOM      6  O   UNL d   1      -3.685   1.283 -20.434 -0.00 -0.74    -0.638 OA
DOCKED: ENDBRANCH   2   3
DOCKED: ENDBRANCH   1   2
DOCKED: BRANCH   1   7
DOCKED: ATOM      7  C   UNL d   1      -2.291   1.286 -15.715 -0.28 +0.29    +0.201 C 
DOCKED: BRANCH   7   8
DOCKED: ATOM      8  O   UNL d   1      -3.212   0.254 -15.297 -0.38 -0.56    -0.364 OA
DOCKED: BRANCH   8   9
DOCKED: ATOM      9  P   UNL d   1      -2.651  -1.092 -14.517 -0.66 -0.02    -0.015 P 
DOCKED: ATOM     10  O   UNL d   1      -3.126  -2.275 -15.370 -0.10 -0.95    -0.577 OA
DOCKED: ATOM     11  O   UNL d   1      -3.288  -1.100 -13.127 -0.01 -0.32    -0.577 OA
DOCKED: ATOM     12  O   UNL d   1      -1.128  -0.989 -14.476 -0.61 -0.92    -0.638 OA
DOCKED: ENDBRANCH   8   9
DOCKED: ENDBRANCH   7   8
DOCKED: ENDBRANCH   1   7
DOCKED: BRANCH   1  13
DOCKED: ATOM     13  C   UNL d   1      -3.226   3.261 -17.044 -0.18 +0.08    +0.073 C 
DOCKED: ATOM     14  O   UNL d   1      -4.196   3.522 -17.838 -0.41 -0.86    -0.547 OA
DOCKED: ATOM     15  O   UNL d   1      -2.825   4.040 -16.106 -0.03 -0.36    -0.547 OA
DOCKED: ENDBRANCH   1  13
DOCKED: TORSDOF 6
DOCKED: TER
DOCKED: ENDMDL
________________________________________________________________________________


	BEGINNING GENETIC ALGORITHM DOCKING 73 of 100
Run: 73 Seed: 344513869 734062309 [ Run 73 of 100 GA/GALS ]
Beginning LAMARCKIAN GENETIC ALGORITHM (LGA), with a maximum of 25000000 energy evaluations.

Final-Value: -8.225


	FINAL GENETIC ALGORITHM DOCKED STATE
	_______________________________________________


Detailed state:  trans -2.987 1.911 -17.471 quatxyzw 0.703115 0.198806 -0.649618 -0.210005 center 0.015 0.083 0.031 ntor 6 -43.1647 -166.7460 137.4305 41.9189 66.3951 -13.6933
State:	 -2.987   1.911 -17.471   0.719  0.203 -0.664 -155.755    -43.16 -166.75  137.43   41.92   66.40  -13.69

DOCKED: MODEL       73
DOCKED: USER    Run = 73
DOCKED: USER    DPF = D:/Protein_go_brrr/autodock/final/mut_D99N/2_3_BPG/dock.dpf
DOCKED: USER  
DOCKED: USER    Estimated Free Energy of Binding    =   -8.81 kcal/mol  [=(1)+(2)+(3)-(4)]
DOCKED: USER    Estimated Inhibition Constant, Ki   =  347.10 nM (nanomolar)  [Temperature = 298.15 K]
DOCKED: USER    
DOCKED: USER    (1) Final Intermolecular Energy     =  -10.60 kcal/mol
DOCKED: USER        vdW + Hbond + desolv Energy     =   -3.38 kcal/mol
DOCKED: USER        Electrostatic Energy            =   -7.23 kcal/mol
DOCKED: USER    (2) Final Total Internal Energy     =   +2.38 kcal/mol
DOCKED: USER    (3) Torsional Free Energy           =   +1.79 kcal/mol
DOCKED: USER    (4) Unbound System's Energy  [=(2)] =   +2.38 kcal/mol
DOCKED: USER    
DOCKED: USER    
DOCKED: USER    NEWDPF move 2_3_BPG_opt.pdbqt
DOCKED: USER    NEWDPF about 0.015000 0.083000 0.031000
DOCKED: USER    NEWDPF tran0 -2.987164 1.910929 -17.470984
DOCKED: USER    NEWDPF quaternion0 0.703115 0.198806 -0.649618 -0.210005
DOCKED: USER    NEWDPF axisangle0 0.719152 0.203340 -0.664435 -155.754714
DOCKED: USER    NEWDPF quat0 0.719152 0.203340 -0.664435 -155.754714
DOCKED: USER    NEWDPF dihe0 -43.16 -166.75 137.43 41.92 66.40 -13.69 
DOCKED: USER  keepresnum = 1 
DOCKED: USER  
DOCKED: REMARK  6 active torsions:
DOCKED: REMARK  status: ('A' for Active; 'I' for Inactive)
DOCKED: REMARK    1  A    between atoms: P_1  and  O_3 
DOCKED: REMARK    2  A    between atoms: P_2  and  O_4 
DOCKED: REMARK    3  A    between atoms: O_3  and  C_13 
DOCKED: REMARK    4  A    between atoms: O_4  and  C_14 
DOCKED: REMARK    5  A    between atoms: C_13  and  C_14 
DOCKED: REMARK    6  A    between atoms: C_13  and  C_15 
DOCKED: USER                              x       y       z     vdW  Elec       q    Type
DOCKED: USER                           _______ _______ _______ _____ _____    ______ ____
DOCKED: ROOT
DOCKED: ATOM      1  C   UNL d   1      -3.282   2.115 -16.905 -0.07 +0.28    +0.193 C 
DOCKED: ENDROOT
DOCKED: BRANCH   1   2
DOCKED: ATOM      2  O   UNL d   1      -2.388   1.800 -15.785 -0.20 -0.43    -0.356 OA
DOCKED: BRANCH   2   3
DOCKED: ATOM      3  P   UNL d   1      -2.445   0.380 -14.957 -0.57 -0.02    -0.014 P 
DOCKED: ATOM      4  O   UNL d   1      -3.404  -0.501 -15.772 -0.08 -1.17    -0.577 OA
DOCKED: ATOM      5  O   UNL d   1      -3.005   0.687 -13.570 +0.00 -0.37    -0.577 OA
DOCKED: ATOM      6  O   UNL d   1      -1.036  -0.205 -14.928 -0.65 -1.11    -0.638 OA
DOCKED: ENDBRANCH   2   3
DOCKED: ENDBRANCH   1   2
DOCKED: BRANCH   1   7
DOCKED: ATOM      7  C   UNL d   1      -2.494   1.914 -18.251 -0.12 +0.28    +0.201 C 
DOCKED: BRANCH   7   8
DOCKED: ATOM      8  O   UNL d   1      -3.270   1.427 -19.369 -0.08 -0.53    -0.364 OA
DOCKED: BRANCH   8   9
DOCKED: ATOM      9  P   UNL d   1      -3.022  -0.104 -19.946 -0.16 -0.02    -0.015 P 
DOCKED: ATOM     10  O   UNL d   1      -1.502  -0.302 -19.912 -0.23 -1.10    -0.577 OA
DOCKED: ATOM     11  O   UNL d   1      -3.570  -0.136 -21.372 +0.00 -0.48    -0.577 OA
DOCKED: ATOM     12  O   UNL d   1      -3.747  -1.064 -19.004 -0.56 -1.46    -0.638 OA
DOCKED: ENDBRANCH   8   9
DOCKED: ENDBRANCH   7   8
DOCKED: ENDBRANCH   1   7
DOCKED: BRANCH   1  13
DOCKED: ATOM     13  C   UNL d   1      -3.751   3.615 -16.814 -0.20 +0.08    +0.073 C 
DOCKED: ATOM     14  O   UNL d   1      -3.174   4.387 -15.970 -0.04 -0.33    -0.547 OA
DOCKED: ATOM     15  O   UNL d   1      -4.651   3.995 -17.647 -0.43 -0.83    -0.547 OA
DOCKED: ENDBRANCH   1  13
DOCKED: TORSDOF 6
DOCKED: TER
DOCKED: ENDMDL
________________________________________________________________________________


	BEGINNING GENETIC ALGORITHM DOCKING 74 of 100
Run: 74 Seed: 535869705 139143653 [ Run 74 of 100 GA/GALS ]
Beginning LAMARCKIAN GENETIC ALGORITHM (LGA), with a maximum of 25000000 energy evaluations.

Final-Value: -8.859


	FINAL GENETIC ALGORITHM DOCKED STATE
	_______________________________________________


Detailed state:  trans -2.256 2.511 -17.371 quatxyzw -0.907489 -0.277175 -0.289352 -0.126144 center 0.015 0.083 0.031 ntor 6 -136.2583 -5.5286 22.9176 20.0280 -51.2442 179.5864
State:	 -2.256   2.511 -17.371  -0.915 -0.279 -0.292 -165.506   -136.26   -5.53   22.92   20.03  -51.24  179.59

DOCKED: MODEL       74
DOCKED: USER    Run = 74
DOCKED: USER    DPF = D:/Protein_go_brrr/autodock/final/mut_D99N/2_3_BPG/dock.dpf
DOCKED: USER  
DOCKED: USER    Estimated Free Energy of Binding    =   -9.48 kcal/mol  [=(1)+(2)+(3)-(4)]
DOCKED: USER    Estimated Inhibition Constant, Ki   =  112.61 nM (nanomolar)  [Temperature = 298.15 K]
DOCKED: USER    
DOCKED: USER    (1) Final Intermolecular Energy     =  -11.27 kcal/mol
DOCKED: USER        vdW + Hbond + desolv Energy     =   -3.63 kcal/mol
DOCKED: USER        Electrostatic Energy            =   -7.64 kcal/mol
DOCKED: USER    (2) Final Total Internal Energy     =   +2.41 kcal/mol
DOCKED: USER    (3) Torsional Free Energy           =   +1.79 kcal/mol
DOCKED: USER    (4) Unbound System's Energy  [=(2)] =   +2.41 kcal/mol
DOCKED: USER    
DOCKED: USER    
DOCKED: USER    NEWDPF move 2_3_BPG_opt.pdbqt
DOCKED: USER    NEWDPF about 0.015000 0.083000 0.031000
DOCKED: USER    NEWDPF tran0 -2.255502 2.510549 -17.371341
DOCKED: USER    NEWDPF quaternion0 -0.907489 -0.277175 -0.289352 -0.126144
DOCKED: USER    NEWDPF axisangle0 -0.914797 -0.279407 -0.291682 -165.506377
DOCKED: USER    NEWDPF quat0 -0.914797 -0.279407 -0.291682 -165.506377
DOCKED: USER    NEWDPF dihe0 -136.26 -5.53 22.92 20.03 -51.24 179.59 
DOCKED: USER  keepresnum = 1 
DOCKED: USER  
DOCKED: REMARK  6 active torsions:
DOCKED: REMARK  status: ('A' for Active; 'I' for Inactive)
DOCKED: REMARK    1  A    between atoms: P_1  and  O_3 
DOCKED: REMARK    2  A    between atoms: P_2  and  O_4 
DOCKED: REMARK    3  A    between atoms: O_3  and  C_13 
DOCKED: REMARK    4  A    between atoms: O_4  and  C_14 
DOCKED: REMARK    5  A    between atoms: C_13  and  C_14 
DOCKED: REMARK    6  A    between atoms: C_13  and  C_15 
DOCKED: USER                              x       y       z     vdW  Elec       q    Type
DOCKED: USER                           _______ _______ _______ _____ _____    ______ ____
DOCKED: ROOT
DOCKED: ATOM      1  C   UNL d   1      -2.791   2.549 -17.773 -0.12 +0.23    +0.193 C 
DOCKED: ENDROOT
DOCKED: BRANCH   1   2
DOCKED: ATOM      2  O   UNL d   1      -3.337   1.197 -17.938 -0.08 -0.69    -0.356 OA
DOCKED: BRANCH   2   3
DOCKED: ATOM      3  P   UNL d   1      -3.300   0.376 -19.362 -0.15 -0.03    -0.014 P 
DOCKED: ATOM      4  O   UNL d   1      -3.746  -1.048 -18.995 -0.57 -1.32    -0.577 OA
DOCKED: ATOM      5  O   UNL d   1      -1.857   0.401 -19.862 -0.22 -0.91    -0.577 OA
DOCKED: ATOM      6  O   UNL d   1      -4.285   1.043 -20.316 -0.02 -0.88    -0.638 OA
DOCKED: ENDBRANCH   2   3
DOCKED: ENDBRANCH   1   2
DOCKED: BRANCH   1   7
DOCKED: ATOM      7  C   UNL d   1      -1.726   2.526 -16.616 -0.17 +0.20    +0.201 C 
DOCKED: BRANCH   7   8
DOCKED: ATOM      8  O   UNL d   1      -1.830   1.426 -15.684 -0.31 -0.49    -0.364 OA
DOCKED: BRANCH   8   9
DOCKED: ATOM      9  P   UNL d   1      -0.486   0.551 -15.280 -0.29 -0.02    -0.015 P 
DOCKED: ATOM     10  O   UNL d   1      -1.019  -0.822 -14.850 -0.59 -1.08    -0.577 OA
DOCKED: ATOM     11  O   UNL d   1       0.194   1.286 -14.125 -0.48 -0.52    -0.577 OA
DOCKED: ATOM     12  O   UNL d   1       0.387   0.462 -16.530 +0.05 -0.85    -0.638 OA
DOCKED: ENDBRANCH   8   9
DOCKED: ENDBRANCH   7   8
DOCKED: ENDBRANCH   1   7
DOCKED: BRANCH   1  13
DOCKED: ATOM     13  C   UNL d   1      -3.940   3.551 -17.381 -0.07 +0.09    +0.073 C 
DOCKED: ATOM     14  O   UNL d   1      -4.671   4.038 -18.314 -0.55 -0.88    -0.547 OA
DOCKED: ATOM     15  O   UNL d   1      -4.118   3.772 -16.129 -0.07 -0.50    -0.547 OA
DOCKED: ENDBRANCH   1  13
DOCKED: TORSDOF 6
DOCKED: TER
DOCKED: ENDMDL
________________________________________________________________________________


	BEGINNING GENETIC ALGORITHM DOCKING 75 of 100
Run: 75 Seed: 1893790457 1986406630 [ Run 75 of 100 GA/GALS ]
Beginning LAMARCKIAN GENETIC ALGORITHM (LGA), with a maximum of 25000000 energy evaluations.

Final-Value: -8.626


	FINAL GENETIC ALGORITHM DOCKED STATE
	_______________________________________________


Detailed state:  trans -2.183 1.956 -19.039 quatxyzw -0.949751 -0.269204 -0.085540 0.134850 center 0.015 0.083 0.031 ntor 6 -180.0000 -4.0751 -179.8315 4.1513 65.0174 -138.2038
State:	 -2.183   1.956 -19.039  -0.959 -0.272 -0.086 164.500   -180.00   -4.08 -179.83    4.15   65.02 -138.20

DOCKED: MODEL       75
DOCKED: USER    Run = 75
DOCKED: USER    DPF = D:/Protein_go_brrr/autodock/final/mut_D99N/2_3_BPG/dock.dpf
DOCKED: USER  
DOCKED: USER    Estimated Free Energy of Binding    =   -9.34 kcal/mol  [=(1)+(2)+(3)-(4)]
DOCKED: USER    Estimated Inhibition Constant, Ki   =  143.09 nM (nanomolar)  [Temperature = 298.15 K]
DOCKED: USER    
DOCKED: USER    (1) Final Intermolecular Energy     =  -11.13 kcal/mol
DOCKED: USER        vdW + Hbond + desolv Energy     =   -3.55 kcal/mol
DOCKED: USER        Electrostatic Energy            =   -7.58 kcal/mol
DOCKED: USER    (2) Final Total Internal Energy     =   +2.50 kcal/mol
DOCKED: USER    (3) Torsional Free Energy           =   +1.79 kcal/mol
DOCKED: USER    (4) Unbound System's Energy  [=(2)] =   +2.50 kcal/mol
DOCKED: USER    
DOCKED: USER    
DOCKED: USER    NEWDPF move 2_3_BPG_opt.pdbqt
DOCKED: USER    NEWDPF about 0.015000 0.083000 0.031000
DOCKED: USER    NEWDPF tran0 -2.182518 1.955903 -19.038596
DOCKED: USER    NEWDPF quaternion0 -0.949751 -0.269204 -0.085540 0.134850
DOCKED: USER    NEWDPF axisangle0 -0.958506 -0.271685 -0.086328 164.500128
DOCKED: USER    NEWDPF quat0 -0.958506 -0.271685 -0.086328 164.500128
DOCKED: USER    NEWDPF dihe0 -180.00 -4.08 -179.83 4.15 65.02 -138.20 
DOCKED: USER  keepresnum = 1 
DOCKED: USER  
DOCKED: REMARK  6 active torsions:
DOCKED: REMARK  status: ('A' for Active; 'I' for Inactive)
DOCKED: REMARK    1  A    between atoms: P_1  and  O_3 
DOCKED: REMARK    2  A    between atoms: P_2  and  O_4 
DOCKED: REMARK    3  A    between atoms: O_3  and  C_13 
DOCKED: REMARK    4  A    between atoms: O_4  and  C_14 
DOCKED: REMARK    5  A    between atoms: C_13  and  C_14 
DOCKED: REMARK    6  A    between atoms: C_13  and  C_15 
DOCKED: USER                              x       y       z     vdW  Elec       q    Type
DOCKED: USER                           _______ _______ _______ _____ _____    ______ ____
DOCKED: ROOT
DOCKED: ATOM      1  C   UNL d   1      -2.805   1.879 -19.274 -0.10 +0.24    +0.193 C 
DOCKED: ENDROOT
DOCKED: BRANCH   1   2
DOCKED: ATOM      2  O   UNL d   1      -3.449   0.799 -18.517 -0.17 -0.73    -0.356 OA
DOCKED: BRANCH   2   3
DOCKED: ATOM      3  P   UNL d   1      -4.194  -0.483 -19.228 -0.15 -0.03    -0.014 P 
DOCKED: ATOM      4  O   UNL d   1      -4.521  -1.430 -18.064 -0.55 -1.14    -0.577 OA
DOCKED: ATOM      5  O   UNL d   1      -3.191  -1.108 -20.196 -0.22 -0.84    -0.577 OA
DOCKED: ATOM      6  O   UNL d   1      -5.460   0.026 -19.910 -0.20 -1.17    -0.638 OA
DOCKED: ENDBRANCH   2   3
DOCKED: ENDBRANCH   1   2
DOCKED: BRANCH   1   7
DOCKED: ATOM      7  C   UNL d   1      -1.463   2.270 -18.553 -0.07 +0.20    +0.201 C 
DOCKED: BRANCH   7   8
DOCKED: ATOM      8  O   UNL d   1      -0.904   1.268 -17.674 -0.16 -0.62    -0.364 OA
DOCKED: BRANCH   8   9
DOCKED: ATOM      9  P   UNL d   1      -0.869   1.525 -16.040 -0.33 -0.02    -0.015 P 
DOCKED: ATOM     10  O   UNL d   1      -1.558   2.879 -15.834 -0.04 -0.48    -0.577 OA
DOCKED: ATOM     11  O   UNL d   1       0.602   1.564 -15.627 -0.51 -0.50    -0.577 OA
DOCKED: ATOM     12  O   UNL d   1      -1.644   0.381 -15.387 -0.48 -1.23    -0.638 OA
DOCKED: ENDBRANCH   8   9
DOCKED: ENDBRANCH   7   8
DOCKED: ENDBRANCH   1   7
DOCKED: BRANCH   1  13
DOCKED: ATOM     13  C   UNL d   1      -3.743   3.143 -19.315 -0.06 +0.09    +0.073 C 
DOCKED: ATOM     14  O   UNL d   1      -4.032   3.652 -20.454 -0.04 -0.46    -0.547 OA
DOCKED: ATOM     15  O   UNL d   1      -4.217   3.553 -18.195 -0.47 -0.90    -0.547 OA
DOCKED: ENDBRANCH   1  13
DOCKED: TORSDOF 6
DOCKED: TER
DOCKED: ENDMDL
________________________________________________________________________________


	BEGINNING GENETIC ALGORITHM DOCKING 76 of 100
Run: 76 Seed: 1052087424 2004873332 [ Run 76 of 100 GA/GALS ]
Beginning LAMARCKIAN GENETIC ALGORITHM (LGA), with a maximum of 25000000 energy evaluations.

Final-Value: -8.472


	FINAL GENETIC ALGORITHM DOCKED STATE
	_______________________________________________


Detailed state:  trans -4.265 -2.279 -17.250 quatxyzw -0.210675 -0.770872 0.062772 0.597856 center 0.015 0.083 0.031 ntor 6 -8.5700 143.9237 -162.3800 36.7963 42.3466 -31.9737
State:	 -4.265  -2.279 -17.250  -0.263 -0.962  0.078 106.567     -8.57  143.92 -162.38   36.80   42.35  -31.97

DOCKED: MODEL       76
DOCKED: USER    Run = 76
DOCKED: USER    DPF = D:/Protein_go_brrr/autodock/final/mut_D99N/2_3_BPG/dock.dpf
DOCKED: USER  
DOCKED: USER    Estimated Free Energy of Binding    =   -8.91 kcal/mol  [=(1)+(2)+(3)-(4)]
DOCKED: USER    Estimated Inhibition Constant, Ki   =  296.10 nM (nanomolar)  [Temperature = 298.15 K]
DOCKED: USER    
DOCKED: USER    (1) Final Intermolecular Energy     =  -10.70 kcal/mol
DOCKED: USER        vdW + Hbond + desolv Energy     =   -3.96 kcal/mol
DOCKED: USER        Electrostatic Energy            =   -6.74 kcal/mol
DOCKED: USER    (2) Final Total Internal Energy     =   +2.22 kcal/mol
DOCKED: USER    (3) Torsional Free Energy           =   +1.79 kcal/mol
DOCKED: USER    (4) Unbound System's Energy  [=(2)] =   +2.22 kcal/mol
DOCKED: USER    
DOCKED: USER    
DOCKED: USER    NEWDPF move 2_3_BPG_opt.pdbqt
DOCKED: USER    NEWDPF about 0.015000 0.083000 0.031000
DOCKED: USER    NEWDPF tran0 -4.264899 -2.279072 -17.250110
DOCKED: USER    NEWDPF quaternion0 -0.210675 -0.770872 0.062772 0.597856
DOCKED: USER    NEWDPF axisangle0 -0.262817 -0.961663 0.078308 106.566963
DOCKED: USER    NEWDPF quat0 -0.262817 -0.961663 0.078308 106.566963
DOCKED: USER    NEWDPF dihe0 -8.57 143.92 -162.38 36.80 42.35 -31.97 
DOCKED: USER  keepresnum = 1 
DOCKED: USER  
DOCKED: REMARK  6 active torsions:
DOCKED: REMARK  status: ('A' for Active; 'I' for Inactive)
DOCKED: REMARK    1  A    between atoms: P_1  and  O_3 
DOCKED: REMARK    2  A    between atoms: P_2  and  O_4 
DOCKED: REMARK    3  A    between atoms: O_3  and  C_13 
DOCKED: REMARK    4  A    between atoms: O_4  and  C_14 
DOCKED: REMARK    5  A    between atoms: C_13  and  C_14 
DOCKED: REMARK    6  A    between atoms: C_13  and  C_15 
DOCKED: USER                              x       y       z     vdW  Elec       q    Type
DOCKED: USER                           _______ _______ _______ _____ _____    ______ ____
DOCKED: ROOT
DOCKED: ATOM      1  C   UNL d   1      -4.191  -2.740 -16.769 -0.35 +0.29    +0.193 C 
DOCKED: ENDROOT
DOCKED: BRANCH   1   2
DOCKED: ATOM      2  O   UNL d   1      -4.242  -2.057 -15.471 -0.36 -0.47    -0.356 OA
DOCKED: BRANCH   2   3
DOCKED: ATOM      3  P   UNL d   1      -2.900  -1.578 -14.650 -0.66 -0.02    -0.014 P 
DOCKED: ATOM      4  O   UNL d   1      -1.901  -2.730 -14.843 -0.05 -0.83    -0.577 OA
DOCKED: ATOM      5  O   UNL d   1      -3.298  -1.419 -13.184 -0.04 -0.35    -0.577 OA
DOCKED: ATOM      6  O   UNL d   1      -2.394  -0.287 -15.286 -0.23 -1.38    -0.638 OA
DOCKED: ENDBRANCH   2   3
DOCKED: ENDBRANCH   1   2
DOCKED: BRANCH   1   7
DOCKED: ATOM      7  C   UNL d   1      -4.649  -1.733 -17.887 -0.09 +0.35    +0.201 C 
DOCKED: BRANCH   7   8
DOCKED: ATOM      8  O   UNL d   1      -3.749  -1.583 -19.007 -0.65 -0.79    -0.364 OA
DOCKED: BRANCH   8   9
DOCKED: ATOM      9  P   UNL d   1      -3.383  -0.075 -19.581 -0.09 -0.03    -0.015 P 
DOCKED: ATOM     10  O   UNL d   1      -3.729   0.883 -18.435 +0.01 -1.19    -0.577 OA
DOCKED: ATOM     11  O   UNL d   1      -4.263   0.161 -20.809 -0.02 -0.62    -0.577 OA
DOCKED: ATOM     12  O   UNL d   1      -1.889  -0.067 -19.905 -0.19 -1.14    -0.638 OA
DOCKED: ENDBRANCH   8   9
DOCKED: ENDBRANCH   7   8
DOCKED: ENDBRANCH   1   7
DOCKED: BRANCH   1  13
DOCKED: ATOM     13  C   UNL d   1      -5.171  -3.972 -16.768 -0.59 +0.06    +0.073 C 
DOCKED: ATOM     14  O   UNL d   1      -6.348  -3.817 -16.289 -0.54 -0.42    -0.547 OA
DOCKED: ATOM     15  O   UNL d   1      -4.745  -5.054 -17.313 -0.11 -0.19    -0.547 OA
DOCKED: ENDBRANCH   1  13
DOCKED: TORSDOF 6
DOCKED: TER
DOCKED: ENDMDL
________________________________________________________________________________


	BEGINNING GENETIC ALGORITHM DOCKING 77 of 100
Run: 77 Seed: 1097716828 1693427885 [ Run 77 of 100 GA/GALS ]
Beginning LAMARCKIAN GENETIC ALGORITHM (LGA), with a maximum of 25000000 energy evaluations.

Final-Value: -8.503


	FINAL GENETIC ALGORITHM DOCKED STATE
	_______________________________________________


Detailed state:  trans -2.601 1.855 -18.626 quatxyzw -0.903980 -0.105140 -0.392103 0.134241 center 0.015 0.083 0.031 ntor 6 164.6599 178.3688 -84.1957 58.5819 4.3036 -149.9875
State:	 -2.601   1.855 -18.626  -0.912 -0.106 -0.396 164.571    164.66  178.37  -84.20   58.58    4.30 -149.99

DOCKED: MODEL       77
DOCKED: USER    Run = 77
DOCKED: USER    DPF = D:/Protein_go_brrr/autodock/final/mut_D99N/2_3_BPG/dock.dpf
DOCKED: USER  
DOCKED: USER    Estimated Free Energy of Binding    =   -9.15 kcal/mol  [=(1)+(2)+(3)-(4)]
DOCKED: USER    Estimated Inhibition Constant, Ki   =  195.99 nM (nanomolar)  [Temperature = 298.15 K]
DOCKED: USER    
DOCKED: USER    (1) Final Intermolecular Energy     =  -10.94 kcal/mol
DOCKED: USER        vdW + Hbond + desolv Energy     =   -3.25 kcal/mol
DOCKED: USER        Electrostatic Energy            =   -7.69 kcal/mol
DOCKED: USER    (2) Final Total Internal Energy     =   +2.44 kcal/mol
DOCKED: USER    (3) Torsional Free Energy           =   +1.79 kcal/mol
DOCKED: USER    (4) Unbound System's Energy  [=(2)] =   +2.44 kcal/mol
DOCKED: USER    
DOCKED: USER    
DOCKED: USER    NEWDPF move 2_3_BPG_opt.pdbqt
DOCKED: USER    NEWDPF about 0.015000 0.083000 0.031000
DOCKED: USER    NEWDPF tran0 -2.600806 1.854704 -18.626049
DOCKED: USER    NEWDPF quaternion0 -0.903980 -0.105140 -0.392103 0.134241
DOCKED: USER    NEWDPF axisangle0 -0.912237 -0.106100 -0.395685 164.570508
DOCKED: USER    NEWDPF quat0 -0.912237 -0.106100 -0.395685 164.570508
DOCKED: USER    NEWDPF dihe0 164.66 178.37 -84.20 58.58 4.30 -149.99 
DOCKED: USER  keepresnum = 1 
DOCKED: USER  
DOCKED: REMARK  6 active torsions:
DOCKED: REMARK  status: ('A' for Active; 'I' for Inactive)
DOCKED: REMARK    1  A    between atoms: P_1  and  O_3 
DOCKED: REMARK    2  A    between atoms: P_2  and  O_4 
DOCKED: REMARK    3  A    between atoms: O_3  and  C_13 
DOCKED: REMARK    4  A    between atoms: O_4  and  C_14 
DOCKED: REMARK    5  A    between atoms: C_13  and  C_14 
DOCKED: REMARK    6  A    between atoms: C_13  and  C_15 
DOCKED: USER                              x       y       z     vdW  Elec       q    Type
DOCKED: USER                           _______ _______ _______ _____ _____    ______ ____
DOCKED: ROOT
DOCKED: ATOM      1  C   UNL d   1      -2.952   1.961 -19.187 -0.10 +0.25    +0.193 C 
DOCKED: ENDROOT
DOCKED: BRANCH   1   2
DOCKED: ATOM      2  O   UNL d   1      -4.062   1.002 -19.221 -0.03 -0.67    -0.356 OA
DOCKED: BRANCH   2   3
DOCKED: ATOM      3  P   UNL d   1      -3.864  -0.598 -19.546 -0.14 -0.02    -0.014 P 
DOCKED: ATOM      4  O   UNL d   1      -2.379  -0.732 -19.918 -0.10 -1.12    -0.577 OA
DOCKED: ATOM      5  O   UNL d   1      -4.771  -0.935 -20.727 -0.02 -0.57    -0.577 OA
DOCKED: ATOM      6  O   UNL d   1      -4.197  -1.381 -18.280 -0.58 -1.41    -0.638 OA
DOCKED: ENDBRANCH   2   3
DOCKED: ENDBRANCH   1   2
DOCKED: BRANCH   1   7
DOCKED: ATOM      7  C   UNL d   1      -2.297   1.926 -17.757 -0.13 +0.28    +0.201 C 
DOCKED: BRANCH   7   8
DOCKED: ATOM      8  O   UNL d   1      -2.744   0.865 -16.885 -0.07 -0.77    -0.364 OA
DOCKED: BRANCH   8   9
DOCKED: ATOM      9  P   UNL d   1      -2.265   0.835 -15.302 -0.49 -0.02    -0.015 P 
DOCKED: ATOM     10  O   UNL d   1      -3.431   1.453 -14.521 -0.07 -0.54    -0.577 OA
DOCKED: ATOM     11  O   UNL d   1      -0.998   1.684 -15.203 -0.41 -0.65    -0.577 OA
DOCKED: ATOM     12  O   UNL d   1      -2.035  -0.629 -14.928 -0.53 -1.24    -0.638 OA
DOCKED: ENDBRANCH   8   9
DOCKED: ENDBRANCH   7   8
DOCKED: ENDBRANCH   1   7
DOCKED: BRANCH   1  13
DOCKED: ATOM     13  C   UNL d   1      -3.486   3.415 -19.462 -0.06 +0.07    +0.073 C 
DOCKED: ATOM     14  O   UNL d   1      -2.773   4.204 -20.177 +0.02 -0.30    -0.547 OA
DOCKED: ATOM     15  O   UNL d   1      -4.649   3.706 -19.001 -0.52 -0.98    -0.547 OA
DOCKED: ENDBRANCH   1  13
DOCKED: TORSDOF 6
DOCKED: TER
DOCKED: ENDMDL
________________________________________________________________________________


	BEGINNING GENETIC ALGORITHM DOCKING 78 of 100
Run: 78 Seed: 1462532489 1964539825 [ Run 78 of 100 GA/GALS ]
Beginning LAMARCKIAN GENETIC ALGORITHM (LGA), with a maximum of 25000000 energy evaluations.

Final-Value: -8.100


	FINAL GENETIC ALGORITHM DOCKED STATE
	_______________________________________________


Detailed state:  trans -3.366 1.050 -18.681 quatxyzw 0.497900 -0.040875 -0.843860 -0.195765 center 0.015 0.083 0.031 ntor 6 -26.3051 -88.9783 33.7988 0.6422 -72.2573 -81.1488
State:	 -3.366   1.050 -18.681   0.508 -0.042 -0.861 -157.421    -26.31  -88.98   33.80    0.64  -72.26  -81.15

DOCKED: MODEL       78
DOCKED: USER    Run = 78
DOCKED: USER    DPF = D:/Protein_go_brrr/autodock/final/mut_D99N/2_3_BPG/dock.dpf
DOCKED: USER  
DOCKED: USER    Estimated Free Energy of Binding    =   -8.42 kcal/mol  [=(1)+(2)+(3)-(4)]
DOCKED: USER    Estimated Inhibition Constant, Ki   =  672.84 nM (nanomolar)  [Temperature = 298.15 K]
DOCKED: USER    
DOCKED: USER    (1) Final Intermolecular Energy     =  -10.21 kcal/mol
DOCKED: USER        vdW + Hbond + desolv Energy     =   -3.43 kcal/mol
DOCKED: USER        Electrostatic Energy            =   -6.78 kcal/mol
DOCKED: USER    (2) Final Total Internal Energy     =   +2.11 kcal/mol
DOCKED: USER    (3) Torsional Free Energy           =   +1.79 kcal/mol
DOCKED: USER    (4) Unbound System's Energy  [=(2)] =   +2.11 kcal/mol
DOCKED: USER    
DOCKED: USER    
DOCKED: USER    NEWDPF move 2_3_BPG_opt.pdbqt
DOCKED: USER    NEWDPF about 0.015000 0.083000 0.031000
DOCKED: USER    NEWDPF tran0 -3.365888 1.050407 -18.680569
DOCKED: USER    NEWDPF quaternion0 0.497900 -0.040875 -0.843860 -0.195765
DOCKED: USER    NEWDPF axisangle0 0.507724 -0.041681 -0.860511 -157.421117
DOCKED: USER    NEWDPF quat0 0.507724 -0.041681 -0.860511 -157.421117
DOCKED: USER    NEWDPF dihe0 -26.31 -88.98 33.80 0.64 -72.26 -81.15 
DOCKED: USER  keepresnum = 1 
DOCKED: USER  
DOCKED: REMARK  6 active torsions:
DOCKED: REMARK  status: ('A' for Active; 'I' for Inactive)
DOCKED: REMARK    1  A    between atoms: P_1  and  O_3 
DOCKED: REMARK    2  A    between atoms: P_2  and  O_4 
DOCKED: REMARK    3  A    between atoms: O_3  and  C_13 
DOCKED: REMARK    4  A    between atoms: O_4  and  C_14 
DOCKED: REMARK    5  A    between atoms: C_13  and  C_14 
DOCKED: REMARK    6  A    between atoms: C_13  and  C_15 
DOCKED: USER                              x       y       z     vdW  Elec       q    Type
DOCKED: USER                           _______ _______ _______ _____ _____    ______ ____
DOCKED: ROOT
DOCKED: ATOM      1  C   UNL d   1      -3.285   1.543 -18.233 -0.06 +0.34    +0.193 C 
DOCKED: ENDROOT
DOCKED: BRANCH   1   2
DOCKED: ATOM      2  O   UNL d   1      -2.055   1.280 -17.479 -0.07 -0.67    -0.356 OA
DOCKED: BRANCH   2   3
DOCKED: ATOM      3  P   UNL d   1      -1.971   1.341 -15.838 -0.41 -0.02    -0.014 P 
DOCKED: ATOM      4  O   UNL d   1      -2.380  -0.068 -15.380 -0.39 -1.23    -0.577 OA
DOCKED: ATOM      5  O   UNL d   1      -2.972   2.396 -15.373 -0.02 -0.57    -0.577 OA
DOCKED: ATOM      6  O   UNL d   1      -0.530   1.659 -15.451 -0.50 -0.71    -0.638 OA
DOCKED: ENDBRANCH   2   3
DOCKED: ENDBRANCH   1   2
DOCKED: BRANCH   1   7
DOCKED: ATOM      7  C   UNL d   1      -3.338   0.571 -19.469 -0.14 +0.34    +0.201 C 
DOCKED: BRANCH   7   8
DOCKED: ATOM      8  O   UNL d   1      -3.746  -0.786 -19.187 -0.63 -0.76    -0.364 OA
DOCKED: BRANCH   8   9
DOCKED: ATOM      9  P   UNL d   1      -5.207  -1.343 -19.729 -0.25 -0.02    -0.015 P 
DOCKED: ATOM     10  O   UNL d   1      -5.713  -2.277 -18.623 -0.05 -0.60    -0.577 OA
DOCKED: ATOM     11  O   UNL d   1      -4.941  -2.094 -21.033 -0.01 -0.40    -0.577 OA
DOCKED: ATOM     12  O   UNL d   1      -6.114  -0.127 -19.912 -0.34 -1.23    -0.638 OA
DOCKED: ENDBRANCH   8   9
DOCKED: ENDBRANCH   7   8
DOCKED: ENDBRANCH   1   7
DOCKED: BRANCH   1  13
DOCKED: ATOM     13  C   UNL d   1      -3.289   3.027 -18.759 -0.09 +0.09    +0.073 C 
DOCKED: ATOM     14  O   UNL d   1      -2.165   3.602 -18.973 +0.02 -0.38    -0.547 OA
DOCKED: ATOM     15  O   UNL d   1      -4.433   3.556 -19.003 -0.50 -0.94    -0.547 OA
DOCKED: ENDBRANCH   1  13
DOCKED: TORSDOF 6
DOCKED: TER
DOCKED: ENDMDL
________________________________________________________________________________


	BEGINNING GENETIC ALGORITHM DOCKING 79 of 100
Run: 79 Seed: 659335428 1660070958 [ Run 79 of 100 GA/GALS ]
Beginning LAMARCKIAN GENETIC ALGORITHM (LGA), with a maximum of 25000000 energy evaluations.

Final-Value: -9.093


	FINAL GENETIC ALGORITHM DOCKED STATE
	_______________________________________________


Detailed state:  trans -4.720 -2.311 -16.757 quatxyzw 0.236734 0.643995 0.163962 0.708762 center 0.015 0.083 0.031 ntor 6 127.4946 35.9073 164.1845 36.4536 -9.3678 -105.6819
State:	 -4.720  -2.311 -16.757   0.336  0.913  0.232 89.731    127.49   35.91  164.18   36.45   -9.37 -105.68

DOCKED: MODEL       79
DOCKED: USER    Run = 79
DOCKED: USER    DPF = D:/Protein_go_brrr/autodock/final/mut_D99N/2_3_BPG/dock.dpf
DOCKED: USER  
DOCKED: USER    Estimated Free Energy of Binding    =   -9.49 kcal/mol  [=(1)+(2)+(3)-(4)]
DOCKED: USER    Estimated Inhibition Constant, Ki   =  111.22 nM (nanomolar)  [Temperature = 298.15 K]
DOCKED: USER    
DOCKED: USER    (1) Final Intermolecular Energy     =  -11.28 kcal/mol
DOCKED: USER        vdW + Hbond + desolv Energy     =   -4.93 kcal/mol
DOCKED: USER        Electrostatic Energy            =   -6.34 kcal/mol
DOCKED: USER    (2) Final Total Internal Energy     =   +2.18 kcal/mol
DOCKED: USER    (3) Torsional Free Energy           =   +1.79 kcal/mol
DOCKED: USER    (4) Unbound System's Energy  [=(2)] =   +2.18 kcal/mol
DOCKED: USER    
DOCKED: USER    
DOCKED: USER    NEWDPF move 2_3_BPG_opt.pdbqt
DOCKED: USER    NEWDPF about 0.015000 0.083000 0.031000
DOCKED: USER    NEWDPF tran0 -4.719863 -2.310838 -16.757112
DOCKED: USER    NEWDPF quaternion0 0.236734 0.643995 0.163962 0.708762
DOCKED: USER    NEWDPF axisangle0 0.335580 0.912889 0.232422 89.731431
DOCKED: USER    NEWDPF quat0 0.335580 0.912889 0.232422 89.731431
DOCKED: USER    NEWDPF dihe0 127.49 35.91 164.18 36.45 -9.37 -105.68 
DOCKED: USER  keepresnum = 1 
DOCKED: USER  
DOCKED: REMARK  6 active torsions:
DOCKED: REMARK  status: ('A' for Active; 'I' for Inactive)
DOCKED: REMARK    1  A    between atoms: P_1  and  O_3 
DOCKED: REMARK    2  A    between atoms: P_2  and  O_4 
DOCKED: REMARK    3  A    between atoms: O_3  and  C_13 
DOCKED: REMARK    4  A    between atoms: O_4  and  C_14 
DOCKED: REMARK    5  A    between atoms: C_13  and  C_14 
DOCKED: REMARK    6  A    between atoms: C_13  and  C_15 
DOCKED: USER                              x       y       z     vdW  Elec       q    Type
DOCKED: USER                           _______ _______ _______ _____ _____    ______ ____
DOCKED: ROOT
DOCKED: ATOM      1  C   UNL d   1      -5.034  -2.563 -17.293 -0.23 +0.24    +0.193 C 
DOCKED: ENDROOT
DOCKED: BRANCH   1   2
DOCKED: ATOM      2  O   UNL d   1      -4.190  -2.325 -18.470 -0.61 -0.61    -0.356 OA
DOCKED: BRANCH   2   3
DOCKED: ATOM      3  P   UNL d   1      -4.388  -1.040 -19.478 -0.26 -0.02    -0.014 P 
DOCKED: ATOM      4  O   UNL d   1      -3.961  -1.566 -20.857 -0.05 -0.53    -0.577 OA
DOCKED: ATOM      5  O   UNL d   1      -3.459   0.068 -18.986 -0.32 -1.25    -0.577 OA
DOCKED: ATOM      6  O   UNL d   1      -5.862  -0.649 -19.459 -0.15 -1.07    -0.638 OA
DOCKED: ENDBRANCH   2   3
DOCKED: ENDBRANCH   1   2
DOCKED: BRANCH   1   7
DOCKED: ATOM      7  C   UNL d   1      -4.196  -2.246 -16.000 -0.34 +0.29    +0.201 C 
DOCKED: BRANCH   7   8
DOCKED: ATOM      8  O   UNL d   1      -3.582  -0.939 -15.950 -0.09 -0.77    -0.364 OA
DOCKED: BRANCH   8   9
DOCKED: ATOM      9  P   UNL d   1      -2.810  -0.437 -14.576 -0.70 -0.02    -0.015 P 
DOCKED: ATOM     10  O   UNL d   1      -3.240  -1.432 -13.491 -0.14 -0.41    -0.577 OA
DOCKED: ATOM     11  O   UNL d   1      -3.303   0.979 -14.280 -0.12 -0.52    -0.577 OA
DOCKED: ATOM     12  O   UNL d   1      -1.309  -0.503 -14.852 -0.63 -1.19    -0.638 OA
DOCKED: ENDBRANCH   8   9
DOCKED: ENDBRANCH   7   8
DOCKED: ENDBRANCH   1   7
DOCKED: BRANCH   1  13
DOCKED: ATOM     13  C   UNL d   1      -5.482  -4.071 -17.247 -0.53 +0.05    +0.073 C 
DOCKED: ATOM     14  O   UNL d   1      -6.247  -4.452 -16.293 -0.64 -0.33    -0.547 OA
DOCKED: ATOM     15  O   UNL d   1      -5.101  -4.822 -18.216 -0.12 -0.20    -0.547 OA
DOCKED: ENDBRANCH   1  13
DOCKED: TORSDOF 6
DOCKED: TER
DOCKED: ENDMDL
________________________________________________________________________________


	BEGINNING GENETIC ALGORITHM DOCKING 80 of 100
Run: 80 Seed: 1483894995 646174596 [ Run 80 of 100 GA/GALS ]
Beginning LAMARCKIAN GENETIC ALGORITHM (LGA), with a maximum of 25000000 energy evaluations.

Final-Value: -8.749


	FINAL GENETIC ALGORITHM DOCKED STATE
	_______________________________________________


Detailed state:  trans -2.344 1.878 -18.844 quatxyzw -0.910634 -0.261348 -0.208901 0.242493 center 0.015 0.083 0.031 ntor 6 0.1037 -27.9630 169.5897 4.8393 54.9936 -110.9483
State:	 -2.344   1.878 -18.844  -0.939 -0.269 -0.215 151.933      0.10  -27.96  169.59    4.84   54.99 -110.95

DOCKED: MODEL       80
DOCKED: USER    Run = 80
DOCKED: USER    DPF = D:/Protein_go_brrr/autodock/final/mut_D99N/2_3_BPG/dock.dpf
DOCKED: USER  
DOCKED: USER    Estimated Free Energy of Binding    =   -9.34 kcal/mol  [=(1)+(2)+(3)-(4)]
DOCKED: USER    Estimated Inhibition Constant, Ki   =  142.81 nM (nanomolar)  [Temperature = 298.15 K]
DOCKED: USER    
DOCKED: USER    (1) Final Intermolecular Energy     =  -11.13 kcal/mol
DOCKED: USER        vdW + Hbond + desolv Energy     =   -3.35 kcal/mol
DOCKED: USER        Electrostatic Energy            =   -7.78 kcal/mol
DOCKED: USER    (2) Final Total Internal Energy     =   +2.38 kcal/mol
DOCKED: USER    (3) Torsional Free Energy           =   +1.79 kcal/mol
DOCKED: USER    (4) Unbound System's Energy  [=(2)] =   +2.38 kcal/mol
DOCKED: USER    
DOCKED: USER    
DOCKED: USER    NEWDPF move 2_3_BPG_opt.pdbqt
DOCKED: USER    NEWDPF about 0.015000 0.083000 0.031000
DOCKED: USER    NEWDPF tran0 -2.343815 1.878130 -18.843991
DOCKED: USER    NEWDPF quaternion0 -0.910634 -0.261348 -0.208901 0.242493
DOCKED: USER    NEWDPF axisangle0 -0.938650 -0.269389 -0.215328 151.932549
DOCKED: USER    NEWDPF quat0 -0.938650 -0.269389 -0.215328 151.932549
DOCKED: USER    NEWDPF dihe0 0.10 -27.96 169.59 4.84 54.99 -110.95 
DOCKED: USER  keepresnum = 1 
DOCKED: USER  
DOCKED: REMARK  6 active torsions:
DOCKED: REMARK  status: ('A' for Active; 'I' for Inactive)
DOCKED: REMARK    1  A    between atoms: P_1  and  O_3 
DOCKED: REMARK    2  A    between atoms: P_2  and  O_4 
DOCKED: REMARK    3  A    between atoms: O_3  and  C_13 
DOCKED: REMARK    4  A    between atoms: O_4  and  C_14 
DOCKED: REMARK    5  A    between atoms: C_13  and  C_14 
DOCKED: REMARK    6  A    between atoms: C_13  and  C_15 
DOCKED: USER                              x       y       z     vdW  Elec       q    Type
DOCKED: USER                           _______ _______ _______ _____ _____    ______ ____
DOCKED: ROOT
DOCKED: ATOM      1  C   UNL d   1      -2.868   1.742 -19.238 -0.11 +0.25    +0.193 C 
DOCKED: ENDROOT
DOCKED: BRANCH   1   2
DOCKED: ATOM      2  O   UNL d   1      -3.710   0.754 -18.554 -0.16 -0.73    -0.356 OA
DOCKED: BRANCH   2   3
DOCKED: ATOM      3  P   UNL d   1      -4.197  -0.655 -19.249 -0.16 -0.03    -0.014 P 
DOCKED: ATOM      4  O   UNL d   1      -4.286  -1.648 -18.081 -0.54 -1.21    -0.577 OA
DOCKED: ATOM      5  O   UNL d   1      -3.118  -1.061 -20.251 -0.19 -0.83    -0.577 OA
DOCKED: ATOM      6  O   UNL d   1      -5.561  -0.418 -19.888 -0.22 -1.01    -0.638 OA
DOCKED: ENDBRANCH   2   3
DOCKED: ENDBRANCH   1   2
DOCKED: BRANCH   1   7
DOCKED: ATOM      7  C   UNL d   1      -1.802   2.288 -18.220 -0.09 +0.22    +0.201 C 
DOCKED: BRANCH   7   8
DOCKED: ATOM      8  O   UNL d   1      -1.083   1.290 -17.463 -0.13 -0.63    -0.364 OA
DOCKED: BRANCH   8   9
DOCKED: ATOM      9  P   UNL d   1      -1.132   1.307 -15.809 -0.38 -0.02    -0.015 P 
DOCKED: ATOM     10  O   UNL d   1      -1.842   2.617 -15.445 +0.11 -0.53    -0.577 OA
DOCKED: ATOM     11  O   UNL d   1       0.315   1.287 -15.319 -0.69 -0.56    -0.577 OA
DOCKED: ATOM     12  O   UNL d   1      -1.930   0.081 -15.368 -0.27 -1.41    -0.638 OA
DOCKED: ENDBRANCH   8   9
DOCKED: ENDBRANCH   7   8
DOCKED: ENDBRANCH   1   7
DOCKED: BRANCH   1  13
DOCKED: ATOM     13  C   UNL d   1      -3.749   2.946 -19.741 -0.07 +0.09    +0.073 C 
DOCKED: ATOM     14  O   UNL d   1      -4.496   3.552 -18.896 -0.46 -1.00    -0.547 OA
DOCKED: ATOM     15  O   UNL d   1      -3.616   3.291 -20.971 +0.01 -0.38    -0.547 OA
DOCKED: ENDBRANCH   1  13
DOCKED: TORSDOF 6
DOCKED: TER
DOCKED: ENDMDL
________________________________________________________________________________


	BEGINNING GENETIC ALGORITHM DOCKING 81 of 100
Run: 81 Seed: 158718987 1626193635 [ Run 81 of 100 GA/GALS ]
Beginning LAMARCKIAN GENETIC ALGORITHM (LGA), with a maximum of 25000000 energy evaluations.

Final-Value: -8.780


	FINAL GENETIC ALGORITHM DOCKED STATE
	_______________________________________________


Detailed state:  trans -2.560 1.970 -17.425 quatxyzw 0.529336 -0.580656 -0.090990 0.611851 center 0.015 0.083 0.031 ntor 6 2.9016 -118.8151 -50.2659 51.9910 -4.4749 156.3935
State:	 -2.560   1.970 -17.425   0.669 -0.734 -0.115 104.553      2.90 -118.82  -50.27   51.99   -4.47  156.39

DOCKED: MODEL       81
DOCKED: USER    Run = 81
DOCKED: USER    DPF = D:/Protein_go_brrr/autodock/final/mut_D99N/2_3_BPG/dock.dpf
DOCKED: USER  
DOCKED: USER    Estimated Free Energy of Binding    =   -9.20 kcal/mol  [=(1)+(2)+(3)-(4)]
DOCKED: USER    Estimated Inhibition Constant, Ki   =  179.06 nM (nanomolar)  [Temperature = 298.15 K]
DOCKED: USER    
DOCKED: USER    (1) Final Intermolecular Energy     =  -10.99 kcal/mol
DOCKED: USER        vdW + Hbond + desolv Energy     =   -3.93 kcal/mol
DOCKED: USER        Electrostatic Energy            =   -7.06 kcal/mol
DOCKED: USER    (2) Final Total Internal Energy     =   +2.21 kcal/mol
DOCKED: USER    (3) Torsional Free Energy           =   +1.79 kcal/mol
DOCKED: USER    (4) Unbound System's Energy  [=(2)] =   +2.21 kcal/mol
DOCKED: USER    
DOCKED: USER    
DOCKED: USER    NEWDPF move 2_3_BPG_opt.pdbqt
DOCKED: USER    NEWDPF about 0.015000 0.083000 0.031000
DOCKED: USER    NEWDPF tran0 -2.560196 1.969690 -17.424513
DOCKED: USER    NEWDPF quaternion0 0.529336 -0.580656 -0.090990 0.611851
DOCKED: USER    NEWDPF axisangle0 0.669222 -0.734104 -0.115036 104.553049
DOCKED: USER    NEWDPF quat0 0.669222 -0.734104 -0.115036 104.553049
DOCKED: USER    NEWDPF dihe0 2.90 -118.82 -50.27 51.99 -4.47 156.39 
DOCKED: USER  keepresnum = 1 
DOCKED: USER  
DOCKED: REMARK  6 active torsions:
DOCKED: REMARK  status: ('A' for Active; 'I' for Inactive)
DOCKED: REMARK    1  A    between atoms: P_1  and  O_3 
DOCKED: REMARK    2  A    between atoms: P_2  and  O_4 
DOCKED: REMARK    3  A    between atoms: O_3  and  C_13 
DOCKED: REMARK    4  A    between atoms: O_4  and  C_14 
DOCKED: REMARK    5  A    between atoms: C_13  and  C_14 
DOCKED: REMARK    6  A    between atoms: C_13  and  C_15 
DOCKED: USER                              x       y       z     vdW  Elec       q    Type
DOCKED: USER                           _______ _______ _______ _____ _____    ______ ____
DOCKED: ROOT
DOCKED: ATOM      1  C   UNL d   1      -2.458   2.203 -16.804 -0.19 +0.24    +0.193 C 
DOCKED: ENDROOT
DOCKED: BRANCH   1   2
DOCKED: ATOM      2  O   UNL d   1      -3.757   2.584 -16.239 -0.11 -0.44    -0.356 OA
DOCKED: BRANCH   2   3
DOCKED: ATOM      3  P   UNL d   1      -4.508   4.007 -16.581 -0.30 -0.01    -0.014 P 
DOCKED: ATOM      4  O   UNL d   1      -4.649   4.006 -18.112 -0.52 -0.93    -0.577 OA
DOCKED: ATOM      5  O   UNL d   1      -3.590   5.130 -16.103 -0.00 -0.28    -0.577 OA
DOCKED: ATOM      6  O   UNL d   1      -5.869   3.999 -15.893 -0.15 -0.66    -0.638 OA
DOCKED: ENDBRANCH   2   3
DOCKED: ENDBRANCH   1   2
DOCKED: BRANCH   1   7
DOCKED: ATOM      7  C   UNL d   1      -2.703   1.391 -18.130 -0.10 +0.35    +0.201 C 
DOCKED: BRANCH   7   8
DOCKED: ATOM      8  O   UNL d   1      -3.742   0.389 -18.072 -0.20 -0.85    -0.364 OA
DOCKED: BRANCH   8   9
DOCKED: ATOM      9  P   UNL d   1      -4.111  -0.501 -19.417 -0.18 -0.03    -0.015 P 
DOCKED: ATOM     10  O   UNL d   1      -4.150  -1.956 -18.933 -0.57 -0.99    -0.577 OA
DOCKED: ATOM     11  O   UNL d   1      -2.991  -0.266 -20.429 -0.08 -0.74    -0.577 OA
DOCKED: ATOM     12  O   UNL d   1      -5.476  -0.025 -19.912 -0.22 -1.15    -0.638 OA
DOCKED: ENDBRANCH   8   9
DOCKED: ENDBRANCH   7   8
DOCKED: ENDBRANCH   1   7
DOCKED: BRANCH   1  13
DOCKED: ATOM     13  C   UNL d   1      -1.675   1.288 -15.790 -0.33 +0.11    +0.073 C 
DOCKED: ATOM     14  O   UNL d   1      -2.235   0.210 -15.382 -0.43 -1.08    -0.547 OA
DOCKED: ATOM     15  O   UNL d   1      -0.484   1.649 -15.479 -0.55 -0.60    -0.547 OA
DOCKED: ENDBRANCH   1  13
DOCKED: TORSDOF 6
DOCKED: TER
DOCKED: ENDMDL
________________________________________________________________________________


	BEGINNING GENETIC ALGORITHM DOCKING 82 of 100
Run: 82 Seed: 1397698355 1353922353 [ Run 82 of 100 GA/GALS ]
Beginning LAMARCKIAN GENETIC ALGORITHM (LGA), with a maximum of 25000000 energy evaluations.

Final-Value: -8.285


	FINAL GENETIC ALGORITHM DOCKED STATE
	_______________________________________________


Detailed state:  trans -2.806 1.452 -16.041 quatxyzw 0.466101 -0.489202 0.654704 -0.338813 center 0.015 0.083 0.031 ntor 6 171.7620 116.4365 -3.4331 23.5480 150.0055 -13.2189
State:	 -2.806   1.452 -16.041   0.495 -0.520  0.696 -140.391    171.76  116.44   -3.43   23.55  150.01  -13.22

DOCKED: MODEL       82
DOCKED: USER    Run = 82
DOCKED: USER    DPF = D:/Protein_go_brrr/autodock/final/mut_D99N/2_3_BPG/dock.dpf
DOCKED: USER  
DOCKED: USER    Estimated Free Energy of Binding    =   -9.41 kcal/mol  [=(1)+(2)+(3)-(4)]
DOCKED: USER    Estimated Inhibition Constant, Ki   =  126.26 nM (nanomolar)  [Temperature = 298.15 K]
DOCKED: USER    
DOCKED: USER    (1) Final Intermolecular Energy     =  -11.20 kcal/mol
DOCKED: USER        vdW + Hbond + desolv Energy     =   -4.03 kcal/mol
DOCKED: USER        Electrostatic Energy            =   -7.18 kcal/mol
DOCKED: USER    (2) Final Total Internal Energy     =   +2.92 kcal/mol
DOCKED: USER    (3) Torsional Free Energy           =   +1.79 kcal/mol
DOCKED: USER    (4) Unbound System's Energy  [=(2)] =   +2.92 kcal/mol
DOCKED: USER    
DOCKED: USER    
DOCKED: USER    NEWDPF move 2_3_BPG_opt.pdbqt
DOCKED: USER    NEWDPF about 0.015000 0.083000 0.031000
DOCKED: USER    NEWDPF tran0 -2.806214 1.452395 -16.040917
DOCKED: USER    NEWDPF quaternion0 0.466101 -0.489202 0.654704 -0.338813
DOCKED: USER    NEWDPF axisangle0 0.495402 -0.519955 0.695862 -140.390893
DOCKED: USER    NEWDPF quat0 0.495402 -0.519955 0.695862 -140.390893
DOCKED: USER    NEWDPF dihe0 171.76 116.44 -3.43 23.55 150.01 -13.22 
DOCKED: USER  keepresnum = 1 
DOCKED: USER  
DOCKED: REMARK  6 active torsions:
DOCKED: REMARK  status: ('A' for Active; 'I' for Inactive)
DOCKED: REMARK    1  A    between atoms: P_1  and  O_3 
DOCKED: REMARK    2  A    between atoms: P_2  and  O_4 
DOCKED: REMARK    3  A    between atoms: O_3  and  C_13 
DOCKED: REMARK    4  A    between atoms: O_4  and  C_14 
DOCKED: REMARK    5  A    between atoms: C_13  and  C_14 
DOCKED: REMARK    6  A    between atoms: C_13  and  C_15 
DOCKED: USER                              x       y       z     vdW  Elec       q    Type
DOCKED: USER                           _______ _______ _______ _____ _____    ______ ____
DOCKED: ROOT
DOCKED: ATOM      1  C   UNL d   1      -2.303   1.462 -16.483 -0.19 +0.30    +0.193 C 
DOCKED: ENDROOT
DOCKED: BRANCH   1   2
DOCKED: ATOM      2  O   UNL d   1      -2.847   1.857 -17.787 -0.09 -0.54    -0.356 OA
DOCKED: BRANCH   2   3
DOCKED: ATOM      3  P   UNL d   1      -3.005   0.818 -19.052 -0.13 -0.03    -0.014 P 
DOCKED: ATOM      4  O   UNL d   1      -1.560   0.488 -19.459 -0.28 -1.10    -0.577 OA
DOCKED: ATOM      5  O   UNL d   1      -3.744   1.564 -20.161 -0.02 -0.73    -0.577 OA
DOCKED: ATOM      6  O   UNL d   1      -3.743  -0.421 -18.556 -0.45 -1.62    -0.638 OA
DOCKED: ENDBRANCH   2   3
DOCKED: ENDBRANCH   1   2
DOCKED: BRANCH   1   7
DOCKED: ATOM      7  C   UNL d   1      -3.397   1.714 -15.382 -0.27 +0.23    +0.201 C 
DOCKED: BRANCH   7   8
DOCKED: ATOM      8  O   UNL d   1      -3.410   0.780 -14.280 -0.34 -0.33    -0.364 OA
DOCKED: BRANCH   8   9
DOCKED: ATOM      9  P   UNL d   1      -2.851  -0.762 -14.493 -0.76 -0.02    -0.015 P 
DOCKED: ATOM     10  O   UNL d   1      -2.991  -1.431 -13.120 -0.05 -0.32    -0.577 OA
DOCKED: ATOM     11  O   UNL d   1      -1.389  -0.651 -14.927 -0.63 -1.17    -0.577 OA
DOCKED: ATOM     12  O   UNL d   1      -3.739  -1.422 -15.547 -0.07 -1.06    -0.638 OA
DOCKED: ENDBRANCH   8   9
DOCKED: ENDBRANCH   7   8
DOCKED: ENDBRANCH   1   7
DOCKED: BRANCH   1  13
DOCKED: ATOM     13  C   UNL d   1      -1.034   2.330 -16.143 -0.18 +0.07    +0.073 C 
DOCKED: ATOM     14  O   UNL d   1       0.006   1.739 -15.686 -0.55 -0.55    -0.547 OA
DOCKED: ATOM     15  O   UNL d   1      -1.099   3.585 -16.406 -0.02 -0.33    -0.547 OA
DOCKED: ENDBRANCH   1  13
DOCKED: TORSDOF 6
DOCKED: TER
DOCKED: ENDMDL
________________________________________________________________________________


	BEGINNING GENETIC ALGORITHM DOCKING 83 of 100
Run: 83 Seed: 2096235509 397691794 [ Run 83 of 100 GA/GALS ]
Beginning LAMARCKIAN GENETIC ALGORITHM (LGA), with a maximum of 25000000 energy evaluations.

Final-Value: -8.381


	FINAL GENETIC ALGORITHM DOCKED STATE
	_______________________________________________


Detailed state:  trans -2.610 1.662 -16.674 quatxyzw -0.467801 -0.446705 0.699523 0.303783 center 0.015 0.083 0.031 ntor 6 4.3060 143.8149 -84.0986 59.9455 60.1087 12.6613
State:	 -2.610   1.662 -16.674  -0.491 -0.469  0.734 144.630      4.31  143.81  -84.10   59.95   60.11   12.66

DOCKED: MODEL       83
DOCKED: USER    Run = 83
DOCKED: USER    DPF = D:/Protein_go_brrr/autodock/final/mut_D99N/2_3_BPG/dock.dpf
DOCKED: USER  
DOCKED: USER    Estimated Free Energy of Binding    =   -8.70 kcal/mol  [=(1)+(2)+(3)-(4)]
DOCKED: USER    Estimated Inhibition Constant, Ki   =  421.05 nM (nanomolar)  [Temperature = 298.15 K]
DOCKED: USER    
DOCKED: USER    (1) Final Intermolecular Energy     =  -10.49 kcal/mol
DOCKED: USER        vdW + Hbond + desolv Energy     =   -3.74 kcal/mol
DOCKED: USER        Electrostatic Energy            =   -6.74 kcal/mol
DOCKED: USER    (2) Final Total Internal Energy     =   +2.11 kcal/mol
DOCKED: USER    (3) Torsional Free Energy           =   +1.79 kcal/mol
DOCKED: USER    (4) Unbound System's Energy  [=(2)] =   +2.11 kcal/mol
DOCKED: USER    
DOCKED: USER    
DOCKED: USER    NEWDPF move 2_3_BPG_opt.pdbqt
DOCKED: USER    NEWDPF about 0.015000 0.083000 0.031000
DOCKED: USER    NEWDPF tran0 -2.610416 1.661552 -16.673627
DOCKED: USER    NEWDPF quaternion0 -0.467801 -0.446705 0.699523 0.303783
DOCKED: USER    NEWDPF axisangle0 -0.491006 -0.468863 0.734222 144.630084
DOCKED: USER    NEWDPF quat0 -0.491006 -0.468863 0.734222 144.630084
DOCKED: USER    NEWDPF dihe0 4.31 143.81 -84.10 59.95 60.11 12.66 
DOCKED: USER  keepresnum = 1 
DOCKED: USER  
DOCKED: REMARK  6 active torsions:
DOCKED: REMARK  status: ('A' for Active; 'I' for Inactive)
DOCKED: REMARK    1  A    between atoms: P_1  and  O_3 
DOCKED: REMARK    2  A    between atoms: P_2  and  O_4 
DOCKED: REMARK    3  A    between atoms: O_3  and  C_13 
DOCKED: REMARK    4  A    between atoms: O_4  and  C_14 
DOCKED: REMARK    5  A    between atoms: C_13  and  C_14 
DOCKED: REMARK    6  A    between atoms: C_13  and  C_15 
DOCKED: USER                              x       y       z     vdW  Elec       q    Type
DOCKED: USER                           _______ _______ _______ _____ _____    ______ ____
DOCKED: ROOT
DOCKED: ATOM      1  C   UNL d   1      -2.688   1.711 -16.010 -0.26 +0.25    +0.193 C 
DOCKED: ENDROOT
DOCKED: BRANCH   1   2
DOCKED: ATOM      2  O   UNL d   1      -1.372   1.971 -15.414 -0.34 -0.38    -0.356 OA
DOCKED: BRANCH   2   3
DOCKED: ATOM      3  P   UNL d   1      -0.189   0.833 -15.306 -0.48 -0.02    -0.014 P 
DOCKED: ATOM      4  O   UNL d   1      -0.932  -0.457 -14.924 -0.66 -1.04    -0.577 OA
DOCKED: ATOM      5  O   UNL d   1       0.767   1.279 -14.203 -0.47 -0.45    -0.577 OA
DOCKED: ATOM      6  O   UNL d   1       0.474   0.713 -16.674 +0.00 -0.76    -0.638 OA
DOCKED: ENDBRANCH   2   3
DOCKED: ENDBRANCH   1   2
DOCKED: BRANCH   1   7
DOCKED: ATOM      7  C   UNL d   1      -2.578   1.881 -17.570 -0.15 +0.29    +0.201 C 
DOCKED: BRANCH   7   8
DOCKED: ATOM      8  O   UNL d   1      -3.743   1.489 -18.330 +0.01 -0.71    -0.364 OA
DOCKED: BRANCH   8   9
DOCKED: ATOM      9  P   UNL d   1      -3.647   0.240 -19.410 -0.17 -0.03    -0.015 P 
DOCKED: ATOM     10  O   UNL d   1      -4.198  -0.979 -18.661 -0.66 -1.22    -0.577 OA
DOCKED: ATOM     11  O   UNL d   1      -2.170   0.072 -19.767 -0.12 -1.07    -0.577 OA
DOCKED: ATOM     12  O   UNL d   1      -4.514   0.615 -20.611 -0.03 -0.80    -0.638 OA
DOCKED: ENDBRANCH   8   9
DOCKED: ENDBRANCH   7   8
DOCKED: ENDBRANCH   1   7
DOCKED: BRANCH   1  13
DOCKED: ATOM     13  C   UNL d   1      -3.741   2.745 -15.462 -0.31 +0.07    +0.073 C 
DOCKED: ATOM     14  O   UNL d   1      -3.518   3.994 -15.635 -0.06 -0.37    -0.547 OA
DOCKED: ATOM     15  O   UNL d   1      -4.804   2.265 -14.925 -0.03 -0.52    -0.547 OA
DOCKED: ENDBRANCH   1  13
DOCKED: TORSDOF 6
DOCKED: TER
DOCKED: ENDMDL
________________________________________________________________________________


	BEGINNING GENETIC ALGORITHM DOCKING 84 of 100
Run: 84 Seed: 2092167133 2113876675 [ Run 84 of 100 GA/GALS ]
Beginning LAMARCKIAN GENETIC ALGORITHM (LGA), with a maximum of 25000000 energy evaluations.

Final-Value: -9.139


	FINAL GENETIC ALGORITHM DOCKED STATE
	_______________________________________________


Detailed state:  trans -4.717 -2.479 -16.813 quatxyzw 0.279273 0.586892 0.270406 0.710243 center 0.015 0.083 0.031 ntor 6 -81.9919 145.5293 -162.7318 34.8510 6.8890 -80.9881
State:	 -4.717  -2.479 -16.813   0.397  0.834  0.384 89.491    -81.99  145.53 -162.73   34.85    6.89  -80.99

DOCKED: MODEL       84
DOCKED: USER    Run = 84
DOCKED: USER    DPF = D:/Protein_go_brrr/autodock/final/mut_D99N/2_3_BPG/dock.dpf
DOCKED: USER  
DOCKED: USER    Estimated Free Energy of Binding    =   -9.56 kcal/mol  [=(1)+(2)+(3)-(4)]
DOCKED: USER    Estimated Inhibition Constant, Ki   =   98.01 nM (nanomolar)  [Temperature = 298.15 K]
DOCKED: USER    
DOCKED: USER    (1) Final Intermolecular Energy     =  -11.35 kcal/mol
DOCKED: USER        vdW + Hbond + desolv Energy     =   -4.85 kcal/mol
DOCKED: USER        Electrostatic Energy            =   -6.50 kcal/mol
DOCKED: USER    (2) Final Total Internal Energy     =   +2.21 kcal/mol
DOCKED: USER    (3) Torsional Free Energy           =   +1.79 kcal/mol
DOCKED: USER    (4) Unbound System's Energy  [=(2)] =   +2.21 kcal/mol
DOCKED: USER    
DOCKED: USER    
DOCKED: USER    NEWDPF move 2_3_BPG_opt.pdbqt
DOCKED: USER    NEWDPF about 0.015000 0.083000 0.031000
DOCKED: USER    NEWDPF tran0 -4.716920 -2.479473 -16.813243
DOCKED: USER    NEWDPF quaternion0 0.279273 0.586892 0.270406 0.710243
DOCKED: USER    NEWDPF axisangle0 0.396718 0.833705 0.384123 89.490628
DOCKED: USER    NEWDPF quat0 0.396718 0.833705 0.384123 89.490628
DOCKED: USER    NEWDPF dihe0 -81.99 145.53 -162.73 34.85 6.89 -80.99 
DOCKED: USER  keepresnum = 1 
DOCKED: USER  
DOCKED: REMARK  6 active torsions:
DOCKED: REMARK  status: ('A' for Active; 'I' for Inactive)
DOCKED: REMARK    1  A    between atoms: P_1  and  O_3 
DOCKED: REMARK    2  A    between atoms: P_2  and  O_4 
DOCKED: REMARK    3  A    between atoms: O_3  and  C_13 
DOCKED: REMARK    4  A    between atoms: O_4  and  C_14 
DOCKED: REMARK    5  A    between atoms: C_13  and  C_14 
DOCKED: REMARK    6  A    between atoms: C_13  and  C_15 
DOCKED: USER                              x       y       z     vdW  Elec       q    Type
DOCKED: USER                           _______ _______ _______ _____ _____    ______ ____
DOCKED: ROOT
DOCKED: ATOM      1  C   UNL d   1      -5.099  -2.598 -17.351 -0.23 +0.23    +0.193 C 
DOCKED: ENDROOT
DOCKED: BRANCH   1   2
DOCKED: ATOM      2  O   UNL d   1      -4.265  -2.441 -18.548 -0.54 -0.56    -0.356 OA
DOCKED: BRANCH   2   3
DOCKED: ATOM      3  P   UNL d   1      -4.223  -1.063 -19.445 -0.25 -0.02    -0.014 P 
DOCKED: ATOM      4  O   UNL d   1      -5.678  -0.570 -19.459 -0.17 -0.99    -0.577 OA
DOCKED: ATOM      5  O   UNL d   1      -3.746  -1.448 -20.844 -0.06 -0.55    -0.577 OA
DOCKED: ATOM      6  O   UNL d   1      -3.302  -0.071 -18.740 -0.19 -1.62    -0.638 OA
DOCKED: ENDBRANCH   2   3
DOCKED: ENDBRANCH   1   2
DOCKED: BRANCH   1   7
DOCKED: ATOM      7  C   UNL d   1      -4.166  -2.613 -16.084 -0.41 +0.28    +0.201 C 
DOCKED: BRANCH   7   8
DOCKED: ATOM      8  O   UNL d   1      -3.690  -1.325 -15.637 -0.26 -0.64    -0.364 OA
DOCKED: BRANCH   8   9
DOCKED: ATOM      9  P   UNL d   1      -2.515  -1.232 -14.476 -0.71 -0.02    -0.015 P 
DOCKED: ATOM     10  O   UNL d   1      -1.842  -2.610 -14.479 -0.20 -0.70    -0.577 OA
DOCKED: ATOM     11  O   UNL d   1      -3.219  -0.943 -13.151 +0.02 -0.31    -0.577 OA
DOCKED: ATOM     12  O   UNL d   1      -1.553  -0.122 -14.896 -0.65 -1.11    -0.638 OA
DOCKED: ENDBRANCH   8   9
DOCKED: ENDBRANCH   7   8
DOCKED: ENDBRANCH   1   7
DOCKED: BRANCH   1  13
DOCKED: ATOM     13  C   UNL d   1      -5.885  -3.961 -17.415 -0.48 +0.04    +0.073 C 
DOCKED: ATOM     14  O   UNL d   1      -6.174  -4.446 -18.565 -0.06 -0.21    -0.547 OA
DOCKED: ATOM     15  O   UNL d   1      -6.135  -4.542 -16.298 -0.65 -0.32    -0.547 OA
DOCKED: ENDBRANCH   1  13
DOCKED: TORSDOF 6
DOCKED: TER
DOCKED: ENDMDL
________________________________________________________________________________


	BEGINNING GENETIC ALGORITHM DOCKING 85 of 100
Run: 85 Seed: 666309082 1711631098 [ Run 85 of 100 GA/GALS ]
Beginning LAMARCKIAN GENETIC ALGORITHM (LGA), with a maximum of 25000000 energy evaluations.

Final-Value: -8.263


	FINAL GENETIC ALGORITHM DOCKED STATE
	_______________________________________________


Detailed state:  trans -5.042 -2.203 -19.427 quatxyzw -0.828000 0.507184 -0.185812 0.150513 center 0.015 0.083 0.031 ntor 6 -2.1941 -6.5414 -10.5956 -20.8672 6.3281 112.9331
State:	 -5.042  -2.203 -19.427  -0.838  0.513 -0.188 162.687     -2.19   -6.54  -10.60  -20.87    6.33  112.93

DOCKED: MODEL       85
DOCKED: USER    Run = 85
DOCKED: USER    DPF = D:/Protein_go_brrr/autodock/final/mut_D99N/2_3_BPG/dock.dpf
DOCKED: USER  
DOCKED: USER    Estimated Free Energy of Binding    =   -8.81 kcal/mol  [=(1)+(2)+(3)-(4)]
DOCKED: USER    Estimated Inhibition Constant, Ki   =  350.16 nM (nanomolar)  [Temperature = 298.15 K]
DOCKED: USER    
DOCKED: USER    (1) Final Intermolecular Energy     =  -10.60 kcal/mol
DOCKED: USER        vdW + Hbond + desolv Energy     =   -4.14 kcal/mol
DOCKED: USER        Electrostatic Energy            =   -6.45 kcal/mol
DOCKED: USER    (2) Final Total Internal Energy     =   +2.33 kcal/mol
DOCKED: USER    (3) Torsional Free Energy           =   +1.79 kcal/mol
DOCKED: USER    (4) Unbound System's Energy  [=(2)] =   +2.33 kcal/mol
DOCKED: USER    
DOCKED: USER    
DOCKED: USER    NEWDPF move 2_3_BPG_opt.pdbqt
DOCKED: USER    NEWDPF about 0.015000 0.083000 0.031000
DOCKED: USER    NEWDPF tran0 -5.042406 -2.202795 -19.426523
DOCKED: USER    NEWDPF quaternion0 -0.828000 0.507184 -0.185812 0.150513
DOCKED: USER    NEWDPF axisangle0 -0.837541 0.513028 -0.187953 162.686726
DOCKED: USER    NEWDPF quat0 -0.837541 0.513028 -0.187953 162.686726
DOCKED: USER    NEWDPF dihe0 -2.19 -6.54 -10.60 -20.87 6.33 112.93 
DOCKED: USER  keepresnum = 1 
DOCKED: USER  
DOCKED: REMARK  6 active torsions:
DOCKED: REMARK  status: ('A' for Active; 'I' for Inactive)
DOCKED: REMARK    1  A    between atoms: P_1  and  O_3 
DOCKED: REMARK    2  A    between atoms: P_2  and  O_4 
DOCKED: REMARK    3  A    between atoms: O_3  and  C_13 
DOCKED: REMARK    4  A    between atoms: O_4  and  C_14 
DOCKED: REMARK    5  A    between atoms: C_13  and  C_14 
DOCKED: REMARK    6  A    between atoms: C_13  and  C_15 
DOCKED: USER                              x       y       z     vdW  Elec       q    Type
DOCKED: USER                           _______ _______ _______ _____ _____    ______ ____
DOCKED: ROOT
DOCKED: ATOM      1  C   UNL d   1      -4.993  -1.647 -19.798 -0.18 +0.22    +0.193 C 
DOCKED: ENDROOT
DOCKED: BRANCH   1   2
DOCKED: ATOM      2  O   UNL d   1      -6.244  -0.893 -19.663 -0.26 -0.50    -0.356 OA
DOCKED: BRANCH   2   3
DOCKED: ATOM      3  P   UNL d   1      -6.810   0.131 -20.818 +0.07 -0.02    -0.014 P 
DOCKED: ATOM      4  O   UNL d   1      -8.241   0.463 -20.368 -0.40 -0.74    -0.577 OA
DOCKED: ATOM      5  O   UNL d   1      -6.800  -0.630 -22.142 +0.01 -0.32    -0.577 OA
DOCKED: ATOM      6  O   UNL d   1      -5.923   1.372 -20.823 -0.25 -1.07    -0.638 OA
DOCKED: ENDBRANCH   2   3
DOCKED: ENDBRANCH   1   2
DOCKED: BRANCH   1   7
DOCKED: ATOM      7  C   UNL d   1      -4.974  -2.792 -18.719 -0.25 +0.21    +0.201 C 
DOCKED: BRANCH   7   8
DOCKED: ATOM      8  O   UNL d   1      -4.441  -2.431 -17.426 -0.40 -0.58    -0.364 OA
DOCKED: BRANCH   8   9
DOCKED: ATOM      9  P   UNL d   1      -4.156  -3.600 -16.290 -0.78 -0.02    -0.015 P 
DOCKED: ATOM     10  O   UNL d   1      -3.409  -2.883 -15.159 -0.20 -0.71    -0.577 OA
DOCKED: ATOM     11  O   UNL d   1      -3.292  -4.669 -16.958 -0.21 -0.46    -0.577 OA
DOCKED: ATOM     12  O   UNL d   1      -5.516  -4.128 -15.835 -0.68 -0.56    -0.638 OA
DOCKED: ENDBRANCH   8   9
DOCKED: ENDBRANCH   7   8
DOCKED: ENDBRANCH   1   7
DOCKED: BRANCH   1  13
DOCKED: ATOM     13  C   UNL d   1      -3.762  -0.698 -19.547 -0.12 +0.13    +0.073 C 
DOCKED: ATOM     14  O   UNL d   1      -3.746   0.013 -18.481 -0.37 -1.29    -0.547 OA
DOCKED: ATOM     15  O   UNL d   1      -2.808  -0.741 -20.405 -0.12 -0.75    -0.547 OA
DOCKED: ENDBRANCH   1  13
DOCKED: TORSDOF 6
DOCKED: TER
DOCKED: ENDMDL
________________________________________________________________________________


	BEGINNING GENETIC ALGORITHM DOCKING 86 of 100
Run: 86 Seed: 2121426870 592250579 [ Run 86 of 100 GA/GALS ]
Beginning LAMARCKIAN GENETIC ALGORITHM (LGA), with a maximum of 25000000 energy evaluations.

Final-Value: -8.287


	FINAL GENETIC ALGORITHM DOCKED STATE
	_______________________________________________


Detailed state:  trans -2.619 1.544 -16.735 quatxyzw -0.776556 -0.024008 -0.628121 0.042994 center 0.015 0.083 0.031 ntor 6 -41.2044 -164.0762 126.9099 10.0509 44.0410 -69.3541
State:	 -2.619   1.544 -16.735  -0.777 -0.024 -0.629 175.072    -41.20 -164.08  126.91   10.05   44.04  -69.35

DOCKED: MODEL       86
DOCKED: USER    Run = 86
DOCKED: USER    DPF = D:/Protein_go_brrr/autodock/final/mut_D99N/2_3_BPG/dock.dpf
DOCKED: USER  
DOCKED: USER    Estimated Free Energy of Binding    =   -8.76 kcal/mol  [=(1)+(2)+(3)-(4)]
DOCKED: USER    Estimated Inhibition Constant, Ki   =  379.09 nM (nanomolar)  [Temperature = 298.15 K]
DOCKED: USER    
DOCKED: USER    (1) Final Intermolecular Energy     =  -10.55 kcal/mol
DOCKED: USER        vdW + Hbond + desolv Energy     =   -3.44 kcal/mol
DOCKED: USER        Electrostatic Energy            =   -7.11 kcal/mol
DOCKED: USER    (2) Final Total Internal Energy     =   +2.26 kcal/mol
DOCKED: USER    (3) Torsional Free Energy           =   +1.79 kcal/mol
DOCKED: USER    (4) Unbound System's Energy  [=(2)] =   +2.26 kcal/mol
DOCKED: USER    
DOCKED: USER    
DOCKED: USER    NEWDPF move 2_3_BPG_opt.pdbqt
DOCKED: USER    NEWDPF about 0.015000 0.083000 0.031000
DOCKED: USER    NEWDPF tran0 -2.618840 1.544386 -16.734685
DOCKED: USER    NEWDPF quaternion0 -0.776556 -0.024008 -0.628121 0.042994
DOCKED: USER    NEWDPF axisangle0 -0.777274 -0.024030 -0.628703 175.071697
DOCKED: USER    NEWDPF quat0 -0.777274 -0.024030 -0.628703 175.071697
DOCKED: USER    NEWDPF dihe0 -41.20 -164.08 126.91 10.05 44.04 -69.35 
DOCKED: USER  keepresnum = 1 
DOCKED: USER  
DOCKED: REMARK  6 active torsions:
DOCKED: REMARK  status: ('A' for Active; 'I' for Inactive)
DOCKED: REMARK    1  A    between atoms: P_1  and  O_3 
DOCKED: REMARK    2  A    between atoms: P_2  and  O_4 
DOCKED: REMARK    3  A    between atoms: O_3  and  C_13 
DOCKED: REMARK    4  A    between atoms: O_4  and  C_14 
DOCKED: REMARK    5  A    between atoms: C_13  and  C_14 
DOCKED: REMARK    6  A    between atoms: C_13  and  C_15 
DOCKED: USER                              x       y       z     vdW  Elec       q    Type
DOCKED: USER                           _______ _______ _______ _____ _____    ______ ____
DOCKED: ROOT
DOCKED: ATOM      1  C   UNL d   1      -2.646   1.798 -17.355 -0.16 +0.29    +0.193 C 
DOCKED: ENDROOT
DOCKED: BRANCH   1   2
DOCKED: ATOM      2  O   UNL d   1      -3.508   0.932 -18.166 -0.07 -0.74    -0.356 OA
DOCKED: BRANCH   2   3
DOCKED: ATOM      3  P   UNL d   1      -3.004   0.196 -19.548 +0.01 -0.03    -0.014 P 
DOCKED: ATOM      4  O   UNL d   1      -1.479   0.382 -19.547 -0.31 -1.10    -0.577 OA
DOCKED: ATOM      5  O   UNL d   1      -3.659   0.929 -20.716 -0.01 -0.61    -0.577 OA
DOCKED: ATOM      6  O   UNL d   1      -3.388  -1.278 -19.464 -0.40 -1.32    -0.638 OA
DOCKED: ENDBRANCH   2   3
DOCKED: ENDBRANCH   1   2
DOCKED: BRANCH   1   7
DOCKED: ATOM      7  C   UNL d   1      -2.802   1.392 -15.843 -0.29 +0.28    +0.201 C 
DOCKED: BRANCH   7   8
DOCKED: ATOM      8  O   UNL d   1      -1.888   0.381 -15.364 -0.65 -0.69    -0.364 OA
DOCKED: BRANCH   8   9
DOCKED: ATOM      9  P   UNL d   1      -2.453  -0.895 -14.476 -0.69 -0.02    -0.015 P 
DOCKED: ATOM     10  O   UNL d   1      -3.298  -0.263 -13.363 +0.03 -0.33    -0.577 OA
DOCKED: ATOM     11  O   UNL d   1      -1.232  -1.627 -13.919 -0.22 -0.58    -0.577 OA
DOCKED: ATOM     12  O   UNL d   1      -3.293  -1.760 -15.413 -0.08 -1.11    -0.638 OA
DOCKED: ENDBRANCH   8   9
DOCKED: ENDBRANCH   7   8
DOCKED: ENDBRANCH   1   7
DOCKED: BRANCH   1  13
DOCKED: ATOM     13  C   UNL d   1      -3.082   3.301 -17.521 -0.14 +0.08    +0.073 C 
DOCKED: ATOM     14  O   UNL d   1      -4.203   3.554 -18.087 -0.46 -0.88    -0.547 OA
DOCKED: ATOM     15  O   UNL d   1      -2.307   4.192 -17.016 +0.00 -0.33    -0.547 OA
DOCKED: ENDBRANCH   1  13
DOCKED: TORSDOF 6
DOCKED: TER
DOCKED: ENDMDL
________________________________________________________________________________


	BEGINNING GENETIC ALGORITHM DOCKING 87 of 100
Run: 87 Seed: 1702942417 743071329 [ Run 87 of 100 GA/GALS ]
Beginning LAMARCKIAN GENETIC ALGORITHM (LGA), with a maximum of 25000000 energy evaluations.

Final-Value: -8.621


	FINAL GENETIC ALGORITHM DOCKED STATE
	_______________________________________________


Detailed state:  trans -5.148 -2.195 -19.301 quatxyzw -0.812932 0.536497 -0.155115 0.165083 center 0.015 0.083 0.031 ntor 6 -16.2623 -9.9881 167.2385 -0.9509 -21.5408 95.9727
State:	 -5.148  -2.195 -19.301  -0.824  0.544 -0.157 160.996    -16.26   -9.99  167.24   -0.95  -21.54   95.97

DOCKED: MODEL       87
DOCKED: USER    Run = 87
DOCKED: USER    DPF = D:/Protein_go_brrr/autodock/final/mut_D99N/2_3_BPG/dock.dpf
DOCKED: USER  
DOCKED: USER    Estimated Free Energy of Binding    =   -9.03 kcal/mol  [=(1)+(2)+(3)-(4)]
DOCKED: USER    Estimated Inhibition Constant, Ki   =  240.94 nM (nanomolar)  [Temperature = 298.15 K]
DOCKED: USER    
DOCKED: USER    (1) Final Intermolecular Energy     =  -10.82 kcal/mol
DOCKED: USER        vdW + Hbond + desolv Energy     =   -4.55 kcal/mol
DOCKED: USER        Electrostatic Energy            =   -6.27 kcal/mol
DOCKED: USER    (2) Final Total Internal Energy     =   +2.20 kcal/mol
DOCKED: USER    (3) Torsional Free Energy           =   +1.79 kcal/mol
DOCKED: USER    (4) Unbound System's Energy  [=(2)] =   +2.20 kcal/mol
DOCKED: USER    
DOCKED: USER    
DOCKED: USER    NEWDPF move 2_3_BPG_opt.pdbqt
DOCKED: USER    NEWDPF about 0.015000 0.083000 0.031000
DOCKED: USER    NEWDPF tran0 -5.148042 -2.195232 -19.301215
DOCKED: USER    NEWDPF quaternion0 -0.812932 0.536497 -0.155115 0.165083
DOCKED: USER    NEWDPF axisangle0 -0.824241 0.543960 -0.157273 160.995889
DOCKED: USER    NEWDPF quat0 -0.824241 0.543960 -0.157273 160.995889
DOCKED: USER    NEWDPF dihe0 -16.26 -9.99 167.24 -0.95 -21.54 95.97 
DOCKED: USER  keepresnum = 1 
DOCKED: USER  
DOCKED: REMARK  6 active torsions:
DOCKED: REMARK  status: ('A' for Active; 'I' for Inactive)
DOCKED: REMARK    1  A    between atoms: P_1  and  O_3 
DOCKED: REMARK    2  A    between atoms: P_2  and  O_4 
DOCKED: REMARK    3  A    between atoms: O_3  and  C_13 
DOCKED: REMARK    4  A    between atoms: O_4  and  C_14 
DOCKED: REMARK    5  A    between atoms: C_13  and  C_14 
DOCKED: REMARK    6  A    between atoms: C_13  and  C_15 
DOCKED: USER                              x       y       z     vdW  Elec       q    Type
DOCKED: USER                           _______ _______ _______ _____ _____    ______ ____
DOCKED: ROOT
DOCKED: ATOM      1  C   UNL d   1      -5.073  -1.639 -19.668 -0.18 +0.22    +0.193 C 
DOCKED: ENDROOT
DOCKED: BRANCH   1   2
DOCKED: ATOM      2  O   UNL d   1      -6.254  -0.793 -19.460 -0.25 -0.56    -0.356 OA
DOCKED: BRANCH   2   3
DOCKED: ATOM      3  P   UNL d   1      -7.077  -0.074 -20.690 +0.05 -0.02    -0.014 P 
DOCKED: ATOM      4  O   UNL d   1      -8.396   0.386 -20.050 -0.33 -0.79    -0.577 OA
DOCKED: ATOM      5  O   UNL d   1      -7.312  -1.138 -21.760 +0.01 -0.31    -0.577 OA
DOCKED: ATOM      6  O   UNL d   1      -6.250   1.110 -21.181 -0.32 -0.84    -0.638 OA
DOCKED: ENDBRANCH   2   3
DOCKED: ENDBRANCH   1   2
DOCKED: BRANCH   1   7
DOCKED: ATOM      7  C   UNL d   1      -5.090  -2.799 -18.605 -0.26 +0.20    +0.201 C 
DOCKED: BRANCH   7   8
DOCKED: ATOM      8  O   UNL d   1      -4.162  -2.661 -17.507 -0.39 -0.60    -0.364 OA
DOCKED: BRANCH   8   9
DOCKED: ATOM      9  P   UNL d   1      -4.384  -3.533 -16.119 -0.74 -0.02    -0.015 P 
DOCKED: ATOM     10  O   UNL d   1      -5.782  -4.148 -16.253 -0.76 -0.43    -0.577 OA
DOCKED: ATOM     11  O   UNL d   1      -4.304  -2.546 -14.954 -0.30 -0.63    -0.577 OA
DOCKED: ATOM     12  O   UNL d   1      -3.290  -4.599 -16.076 -0.47 -0.52    -0.638 OA
DOCKED: ENDBRANCH   8   9
DOCKED: ENDBRANCH   7   8
DOCKED: ENDBRANCH   1   7
DOCKED: BRANCH   1  13
DOCKED: ATOM     13  C   UNL d   1      -3.761  -0.793 -19.470 -0.09 +0.13    +0.073 C 
DOCKED: ATOM     14  O   UNL d   1      -3.742   0.101 -18.552 -0.37 -1.25    -0.547 OA
DOCKED: ATOM     15  O   UNL d   1      -2.755  -1.097 -20.208 -0.16 -0.86    -0.547 OA
DOCKED: ENDBRANCH   1  13
DOCKED: TORSDOF 6
DOCKED: TER
DOCKED: ENDMDL
________________________________________________________________________________


	BEGINNING GENETIC ALGORITHM DOCKING 88 of 100
Run: 88 Seed: 879101582 1931624420 [ Run 88 of 100 GA/GALS ]
Beginning LAMARCKIAN GENETIC ALGORITHM (LGA), with a maximum of 25000000 energy evaluations.

Final-Value: -9.726


	FINAL GENETIC ALGORITHM DOCKED STATE
	_______________________________________________


Detailed state:  trans -4.027 -2.225 -16.789 quatxyzw -0.045972 -0.835763 0.036538 0.545941 center 0.015 0.083 0.031 ntor 6 -156.9028 113.5524 -2.3020 57.5538 43.9111 -17.3525
State:	 -4.027  -2.225 -16.789  -0.055 -0.998  0.044 113.822   -156.90  113.55   -2.30   57.55   43.91  -17.35

DOCKED: MODEL       88
DOCKED: USER    Run = 88
DOCKED: USER    DPF = D:/Protein_go_brrr/autodock/final/mut_D99N/2_3_BPG/dock.dpf
DOCKED: USER  
DOCKED: USER    Estimated Free Energy of Binding    =  -10.30 kcal/mol  [=(1)+(2)+(3)-(4)]
DOCKED: USER    Estimated Inhibition Constant, Ki   =   27.95 nM (nanomolar)  [Temperature = 298.15 K]
DOCKED: USER    
DOCKED: USER    (1) Final Intermolecular Energy     =  -12.09 kcal/mol
DOCKED: USER        vdW + Hbond + desolv Energy     =   -5.35 kcal/mol
DOCKED: USER        Electrostatic Energy            =   -6.74 kcal/mol
DOCKED: USER    (2) Final Total Internal Energy     =   +2.37 kcal/mol
DOCKED: USER    (3) Torsional Free Energy           =   +1.79 kcal/mol
DOCKED: USER    (4) Unbound System's Energy  [=(2)] =   +2.37 kcal/mol
DOCKED: USER    
DOCKED: USER    
DOCKED: USER    NEWDPF move 2_3_BPG_opt.pdbqt
DOCKED: USER    NEWDPF about 0.015000 0.083000 0.031000
DOCKED: USER    NEWDPF tran0 -4.026584 -2.225315 -16.789116
DOCKED: USER    NEWDPF quaternion0 -0.045972 -0.835763 0.036538 0.545941
DOCKED: USER    NEWDPF axisangle0 -0.054871 -0.997541 0.043611 113.822014
DOCKED: USER    NEWDPF quat0 -0.054871 -0.997541 0.043611 113.822014
DOCKED: USER    NEWDPF dihe0 -156.90 113.55 -2.30 57.55 43.91 -17.35 
DOCKED: USER  keepresnum = 1 
DOCKED: USER  
DOCKED: REMARK  6 active torsions:
DOCKED: REMARK  status: ('A' for Active; 'I' for Inactive)
DOCKED: REMARK    1  A    between atoms: P_1  and  O_3 
DOCKED: REMARK    2  A    between atoms: P_2  and  O_4 
DOCKED: REMARK    3  A    between atoms: O_3  and  C_13 
DOCKED: REMARK    4  A    between atoms: O_4  and  C_14 
DOCKED: REMARK    5  A    between atoms: C_13  and  C_14 
DOCKED: REMARK    6  A    between atoms: C_13  and  C_15 
DOCKED: USER                              x       y       z     vdW  Elec       q    Type
DOCKED: USER                           _______ _______ _______ _____ _____    ______ ____
DOCKED: ROOT
DOCKED: ATOM      1  C   UNL d   1      -3.744  -2.567 -16.286 -0.10 +0.33    +0.193 C 
DOCKED: ENDROOT
DOCKED: BRANCH   1   2
DOCKED: ATOM      2  O   UNL d   1      -3.816  -1.742 -15.075 -0.37 -0.47    -0.356 OA
DOCKED: BRANCH   2   3
DOCKED: ATOM      3  P   UNL d   1      -2.849  -0.438 -14.813 -0.58 -0.02    -0.014 P 
DOCKED: ATOM      4  O   UNL d   1      -1.455  -1.037 -14.571 -0.62 -0.93    -0.577 OA
DOCKED: ATOM      5  O   UNL d   1      -3.378   0.275 -13.570 -0.09 -0.37    -0.577 OA
DOCKED: ATOM      6  O   UNL d   1      -2.876   0.429 -16.068 -0.04 -1.33    -0.638 OA
DOCKED: ENDBRANCH   2   3
DOCKED: ENDBRANCH   1   2
DOCKED: BRANCH   1   7
DOCKED: ATOM      7  C   UNL d   1      -4.650  -1.916 -17.395 -0.12 +0.34    +0.201 C 
DOCKED: BRANCH   7   8
DOCKED: ATOM      8  O   UNL d   1      -4.138  -1.979 -18.745 -0.65 -0.66    -0.364 OA
DOCKED: BRANCH   8   9
DOCKED: ATOM      9  P   UNL d   1      -4.152  -0.629 -19.701 -0.24 -0.02    -0.015 P 
DOCKED: ATOM     10  O   UNL d   1      -3.538  -1.078 -21.033 -0.04 -0.54    -0.577 OA
DOCKED: ATOM     11  O   UNL d   1      -3.290   0.422 -19.002 -0.24 -1.16    -0.577 OA
DOCKED: ATOM     12  O   UNL d   1      -5.610  -0.201 -19.856 -0.22 -1.12    -0.638 OA
DOCKED: ENDBRANCH   8   9
DOCKED: ENDBRANCH   7   8
DOCKED: ENDBRANCH   1   7
DOCKED: BRANCH   1  13
DOCKED: ATOM     13  C   UNL d   1      -4.280  -4.016 -15.984 -0.58 +0.07    +0.073 C 
DOCKED: ATOM     14  O   UNL d   1      -3.430  -4.963 -15.835 -0.71 -0.36    -0.547 OA
DOCKED: ATOM     15  O   UNL d   1      -5.549  -4.150 -15.842 -0.76 -0.48    -0.547 OA
DOCKED: ENDBRANCH   1  13
DOCKED: TORSDOF 6
DOCKED: TER
DOCKED: ENDMDL
________________________________________________________________________________


	BEGINNING GENETIC ALGORITHM DOCKING 89 of 100
Run: 89 Seed: 395445460 1648588501 [ Run 89 of 100 GA/GALS ]
Beginning LAMARCKIAN GENETIC ALGORITHM (LGA), with a maximum of 25000000 energy evaluations.

Final-Value: -8.814


	FINAL GENETIC ALGORITHM DOCKED STATE
	_______________________________________________


Detailed state:  trans -2.587 2.020 -17.198 quatxyzw 0.851354 0.050938 0.505372 0.131156 center 0.015 0.083 0.031 ntor 6 106.7751 -53.2469 51.4483 55.6901 -30.0929 173.1781
State:	 -2.587   2.020 -17.198   0.859  0.051  0.510 164.927    106.78  -53.25   51.45   55.69  -30.09  173.18

DOCKED: MODEL       89
DOCKED: USER    Run = 89
DOCKED: USER    DPF = D:/Protein_go_brrr/autodock/final/mut_D99N/2_3_BPG/dock.dpf
DOCKED: USER  
DOCKED: USER    Estimated Free Energy of Binding    =   -9.44 kcal/mol  [=(1)+(2)+(3)-(4)]
DOCKED: USER    Estimated Inhibition Constant, Ki   =  121.24 nM (nanomolar)  [Temperature = 298.15 K]
DOCKED: USER    
DOCKED: USER    (1) Final Intermolecular Energy     =  -11.23 kcal/mol
DOCKED: USER        vdW + Hbond + desolv Energy     =   -3.49 kcal/mol
DOCKED: USER        Electrostatic Energy            =   -7.74 kcal/mol
DOCKED: USER    (2) Final Total Internal Energy     =   +2.41 kcal/mol
DOCKED: USER    (3) Torsional Free Energy           =   +1.79 kcal/mol
DOCKED: USER    (4) Unbound System's Energy  [=(2)] =   +2.41 kcal/mol
DOCKED: USER    
DOCKED: USER    
DOCKED: USER    NEWDPF move 2_3_BPG_opt.pdbqt
DOCKED: USER    NEWDPF about 0.015000 0.083000 0.031000
DOCKED: USER    NEWDPF tran0 -2.587119 2.020170 -17.197566
DOCKED: USER    NEWDPF quaternion0 0.851354 0.050938 0.505372 0.131156
DOCKED: USER    NEWDPF axisangle0 0.858772 0.051382 0.509775 164.927181
DOCKED: USER    NEWDPF quat0 0.858772 0.051382 0.509775 164.927181
DOCKED: USER    NEWDPF dihe0 106.78 -53.25 51.45 55.69 -30.09 173.18 
DOCKED: USER  keepresnum = 1 
DOCKED: USER  
DOCKED: REMARK  6 active torsions:
DOCKED: REMARK  status: ('A' for Active; 'I' for Inactive)
DOCKED: REMARK    1  A    between atoms: P_1  and  O_3 
DOCKED: REMARK    2  A    between atoms: P_2  and  O_4 
DOCKED: REMARK    3  A    between atoms: O_3  and  C_13 
DOCKED: REMARK    4  A    between atoms: O_4  and  C_14 
DOCKED: REMARK    5  A    between atoms: C_13  and  C_14 
DOCKED: REMARK    6  A    between atoms: C_13  and  C_15 
DOCKED: USER                              x       y       z     vdW  Elec       q    Type
DOCKED: USER                           _______ _______ _______ _____ _____    ______ ____
DOCKED: ROOT
DOCKED: ATOM      1  C   UNL d   1      -2.860   2.372 -17.698 -0.13 +0.25    +0.193 C 
DOCKED: ENDROOT
DOCKED: BRANCH   1   2
DOCKED: ATOM      2  O   UNL d   1      -3.738   1.477 -18.461 -0.04 -0.68    -0.356 OA
DOCKED: BRANCH   2   3
DOCKED: ATOM      3  P   UNL d   1      -3.179   0.357 -19.527 -0.16 -0.02    -0.014 P 
DOCKED: ATOM      4  O   UNL d   1      -3.742  -0.977 -19.011 -0.58 -1.32    -0.577 OA
DOCKED: ATOM      5  O   UNL d   1      -1.654   0.387 -19.457 -0.25 -1.15    -0.577 OA
DOCKED: ATOM      6  O   UNL d   1      -3.732   0.702 -20.906 +0.01 -0.64    -0.638 OA
DOCKED: ENDBRANCH   2   3
DOCKED: ENDBRANCH   1   2
DOCKED: BRANCH   1   7
DOCKED: ATOM      7  C   UNL d   1      -2.443   1.653 -16.363 -0.22 +0.29    +0.201 C 
DOCKED: BRANCH   7   8
DOCKED: ATOM      8  O   UNL d   1      -3.377   0.675 -15.855 -0.21 -0.61    -0.364 OA
DOCKED: BRANCH   8   9
DOCKED: ATOM      9  P   UNL d   1      -2.838  -0.580 -14.922 -0.48 -0.02    -0.015 P 
DOCKED: ATOM     10  O   UNL d   1      -3.372  -1.844 -15.607 -0.04 -1.06    -0.577 OA
DOCKED: ATOM     11  O   UNL d   1      -3.437  -0.389 -13.529 -0.09 -0.38    -0.577 OA
DOCKED: ATOM     12  O   UNL d   1      -1.311  -0.525 -14.929 -0.62 -1.25    -0.638 OA
DOCKED: ENDBRANCH   8   9
DOCKED: ENDBRANCH   7   8
DOCKED: ENDBRANCH   1   7
DOCKED: BRANCH   1  13
DOCKED: ATOM     13  C   UNL d   1      -3.625   3.700 -17.338 -0.15 +0.08    +0.073 C 
DOCKED: ATOM     14  O   UNL d   1      -3.178   4.422 -16.379 -0.02 -0.34    -0.547 OA
DOCKED: ATOM     15  O   UNL d   1      -4.627   4.015 -18.077 -0.53 -0.87    -0.547 OA
DOCKED: ENDBRANCH   1  13
DOCKED: TORSDOF 6
DOCKED: TER
DOCKED: ENDMDL
________________________________________________________________________________


	BEGINNING GENETIC ALGORITHM DOCKING 90 of 100
Run: 90 Seed: 1933284236 939889561 [ Run 90 of 100 GA/GALS ]
Beginning LAMARCKIAN GENETIC ALGORITHM (LGA), with a maximum of 25000000 energy evaluations.

Final-Value: -8.820


	FINAL GENETIC ALGORITHM DOCKED STATE
	_______________________________________________


Detailed state:  trans -4.653 -2.070 -17.055 quatxyzw -0.197662 -0.666873 0.100023 -0.711481 center 0.015 0.083 0.031 ntor 6 -15.6711 13.9892 -78.5042 84.3886 -15.4427 91.1529
State:	 -4.653  -2.070 -17.055  -0.281 -0.949  0.142 -89.289    -15.67   13.99  -78.50   84.39  -15.44   91.15

DOCKED: MODEL       90
DOCKED: USER    Run = 90
DOCKED: USER    DPF = D:/Protein_go_brrr/autodock/final/mut_D99N/2_3_BPG/dock.dpf
DOCKED: USER  
DOCKED: USER    Estimated Free Energy of Binding    =   -9.31 kcal/mol  [=(1)+(2)+(3)-(4)]
DOCKED: USER    Estimated Inhibition Constant, Ki   =  149.09 nM (nanomolar)  [Temperature = 298.15 K]
DOCKED: USER    
DOCKED: USER    (1) Final Intermolecular Energy     =  -11.10 kcal/mol
DOCKED: USER        vdW + Hbond + desolv Energy     =   -4.67 kcal/mol
DOCKED: USER        Electrostatic Energy            =   -6.44 kcal/mol
DOCKED: USER    (2) Final Total Internal Energy     =   +2.28 kcal/mol
DOCKED: USER    (3) Torsional Free Energy           =   +1.79 kcal/mol
DOCKED: USER    (4) Unbound System's Energy  [=(2)] =   +2.28 kcal/mol
DOCKED: USER    
DOCKED: USER    
DOCKED: USER    NEWDPF move 2_3_BPG_opt.pdbqt
DOCKED: USER    NEWDPF about 0.015000 0.083000 0.031000
DOCKED: USER    NEWDPF tran0 -4.653015 -2.069604 -17.055222
DOCKED: USER    NEWDPF quaternion0 -0.197662 -0.666873 0.100023 -0.711481
DOCKED: USER    NEWDPF axisangle0 -0.281288 -0.949008 0.142341 -89.288936
DOCKED: USER    NEWDPF quat0 -0.281288 -0.949008 0.142341 -89.288936
DOCKED: USER    NEWDPF dihe0 -15.67 13.99 -78.50 84.39 -15.44 91.15 
DOCKED: USER  keepresnum = 1 
DOCKED: USER  
DOCKED: REMARK  6 active torsions:
DOCKED: REMARK  status: ('A' for Active; 'I' for Inactive)
DOCKED: REMARK    1  A    between atoms: P_1  and  O_3 
DOCKED: REMARK    2  A    between atoms: P_2  and  O_4 
DOCKED: REMARK    3  A    between atoms: O_3  and  C_13 
DOCKED: REMARK    4  A    between atoms: O_4  and  C_14 
DOCKED: REMARK    5  A    between atoms: C_13  and  C_14 
DOCKED: REMARK    6  A    between atoms: C_13  and  C_15 
DOCKED: USER                              x       y       z     vdW  Elec       q    Type
DOCKED: USER                           _______ _______ _______ _____ _____    ______ ____
DOCKED: ROOT
DOCKED: ATOM      1  C   UNL d   1      -4.836  -2.575 -17.456 -0.29 +0.25    +0.193 C 
DOCKED: ENDROOT
DOCKED: BRANCH   1   2
DOCKED: ATOM      2  O   UNL d   1      -4.199  -2.377 -18.762 -0.56 -0.55    -0.356 OA
DOCKED: BRANCH   2   3
DOCKED: ATOM      3  P   UNL d   1      -4.219  -0.944 -19.569 -0.25 -0.02    -0.014 P 
DOCKED: ATOM      4  O   UNL d   1      -3.669  -1.281 -20.963 -0.05 -0.54    -0.577 OA
DOCKED: ATOM      5  O   UNL d   1      -3.296   0.012 -18.816 -0.24 -1.39    -0.577 OA
DOCKED: ATOM      6  O   UNL d   1      -5.665  -0.464 -19.639 -0.17 -1.09    -0.638 OA
DOCKED: ENDBRANCH   2   3
DOCKED: ENDBRANCH   1   2
DOCKED: BRANCH   1   7
DOCKED: ATOM      7  C   UNL d   1      -4.196  -1.574 -16.425 +0.00 +0.37    +0.201 C 
DOCKED: BRANCH   7   8
DOCKED: ATOM      8  O   UNL d   1      -3.348  -2.165 -15.415 -0.32 -0.58    -0.364 OA
DOCKED: BRANCH   8   9
DOCKED: ATOM      9  P   UNL d   1      -2.384  -1.204 -14.475 -0.68 -0.02    -0.015 P 
DOCKED: ATOM     10  O   UNL d   1      -3.094  -1.133 -13.118 +0.03 -0.31    -0.577 OA
DOCKED: ATOM     11  O   UNL d   1      -2.317   0.163 -15.156 -0.48 -1.02    -0.577 OA
DOCKED: ATOM     12  O   UNL d   1      -1.022  -1.890 -14.376 -0.24 -0.81    -0.638 OA
DOCKED: ENDBRANCH   8   9
DOCKED: ENDBRANCH   7   8
DOCKED: ENDBRANCH   1   7
DOCKED: BRANCH   1  13
DOCKED: ATOM     13  C   UNL d   1      -4.587  -4.046 -16.952 -0.59 +0.06    +0.073 C 
DOCKED: ATOM     14  O   UNL d   1      -3.447  -4.585 -17.178 -0.19 -0.44    -0.547 OA
DOCKED: ATOM     15  O   UNL d   1      -5.532  -4.599 -16.281 -0.66 -0.34    -0.547 OA
DOCKED: ENDBRANCH   1  13
DOCKED: TORSDOF 6
DOCKED: TER
DOCKED: ENDMDL
________________________________________________________________________________


	BEGINNING GENETIC ALGORITHM DOCKING 91 of 100
Run: 91 Seed: 492712751 2094724642 [ Run 91 of 100 GA/GALS ]
Beginning LAMARCKIAN GENETIC ALGORITHM (LGA), with a maximum of 25000000 energy evaluations.

Final-Value: -8.932


	FINAL GENETIC ALGORITHM DOCKED STATE
	_______________________________________________


Detailed state:  trans -3.092 1.985 -16.087 quatxyzw -0.001556 0.661472 -0.505278 0.554208 center 0.015 0.083 0.031 ntor 6 -171.1400 56.0579 -86.8296 18.9720 44.5400 -72.6232
State:	 -3.092   1.985 -16.087  -0.002  0.795 -0.607 112.688   -171.14   56.06  -86.83   18.97   44.54  -72.62

DOCKED: MODEL       91
DOCKED: USER    Run = 91
DOCKED: USER    DPF = D:/Protein_go_brrr/autodock/final/mut_D99N/2_3_BPG/dock.dpf
DOCKED: USER  
DOCKED: USER    Estimated Free Energy of Binding    =   -9.42 kcal/mol  [=(1)+(2)+(3)-(4)]
DOCKED: USER    Estimated Inhibition Constant, Ki   =  124.09 nM (nanomolar)  [Temperature = 298.15 K]
DOCKED: USER    
DOCKED: USER    (1) Final Intermolecular Energy     =  -11.21 kcal/mol
DOCKED: USER        vdW + Hbond + desolv Energy     =   -4.18 kcal/mol
DOCKED: USER        Electrostatic Energy            =   -7.03 kcal/mol
DOCKED: USER    (2) Final Total Internal Energy     =   +2.28 kcal/mol
DOCKED: USER    (3) Torsional Free Energy           =   +1.79 kcal/mol
DOCKED: USER    (4) Unbound System's Energy  [=(2)] =   +2.28 kcal/mol
DOCKED: USER    
DOCKED: USER    
DOCKED: USER    NEWDPF move 2_3_BPG_opt.pdbqt
DOCKED: USER    NEWDPF about 0.015000 0.083000 0.031000
DOCKED: USER    NEWDPF tran0 -3.091698 1.984588 -16.086937
DOCKED: USER    NEWDPF quaternion0 -0.001556 0.661472 -0.505278 0.554208
DOCKED: USER    NEWDPF axisangle0 -0.001869 0.794677 -0.607030 112.687621
DOCKED: USER    NEWDPF quat0 -0.001869 0.794677 -0.607030 112.687621
DOCKED: USER    NEWDPF dihe0 -171.14 56.06 -86.83 18.97 44.54 -72.62 
DOCKED: USER  keepresnum = 1 
DOCKED: USER  
DOCKED: REMARK  6 active torsions:
DOCKED: REMARK  status: ('A' for Active; 'I' for Inactive)
DOCKED: REMARK    1  A    between atoms: P_1  and  O_3 
DOCKED: REMARK    2  A    between atoms: P_2  and  O_4 
DOCKED: REMARK    3  A    between atoms: O_3  and  C_13 
DOCKED: REMARK    4  A    between atoms: O_4  and  C_14 
DOCKED: REMARK    5  A    between atoms: C_13  and  C_14 
DOCKED: REMARK    6  A    between atoms: C_13  and  C_15 
DOCKED: USER                              x       y       z     vdW  Elec       q    Type
DOCKED: USER                           _______ _______ _______ _____ _____    ______ ____
DOCKED: ROOT
DOCKED: ATOM      1  C   UNL d   1      -2.758   1.443 -16.298 -0.23 +0.29    +0.193 C 
DOCKED: ENDROOT
DOCKED: BRANCH   1   2
DOCKED: ATOM      2  O   UNL d   1      -2.331   1.678 -17.682 -0.08 -0.55    -0.356 OA
DOCKED: BRANCH   2   3
DOCKED: ATOM      3  P   UNL d   1      -2.915   0.829 -18.963 -0.10 -0.03    -0.014 P 
DOCKED: ATOM      4  O   UNL d   1      -1.660   0.330 -19.696 -0.25 -1.04    -0.577 OA
DOCKED: ATOM      5  O   UNL d   1      -3.717   1.803 -19.824 -0.03 -0.79    -0.577 OA
DOCKED: ATOM      6  O   UNL d   1      -3.745  -0.330 -18.422 -0.36 -1.64    -0.638 OA
DOCKED: ENDBRANCH   2   3
DOCKED: ENDBRANCH   1   2
DOCKED: BRANCH   1   7
DOCKED: ATOM      7  C   UNL d   1      -3.280   2.798 -15.693 -0.18 +0.19    +0.201 C 
DOCKED: BRANCH   7   8
DOCKED: ATOM      8  O   UNL d   1      -4.673   3.098 -15.928 -0.08 -0.44    -0.364 OA
DOCKED: BRANCH   8   9
DOCKED: ATOM      9  P   UNL d   1      -5.119   4.597 -16.469 -0.40 -0.01    -0.015 P 
DOCKED: ATOM     10  O   UNL d   1      -5.223   4.456 -17.993 -0.43 -0.83    -0.577 OA
DOCKED: ATOM     11  O   UNL d   1      -4.010   5.567 -16.060 +0.01 -0.24    -0.577 OA
DOCKED: ATOM     12  O   UNL d   1      -6.467   4.925 -15.830 -0.49 -0.47    -0.638 OA
DOCKED: ENDBRANCH   8   9
DOCKED: ENDBRANCH   7   8
DOCKED: ENDBRANCH   1   7
DOCKED: BRANCH   1  13
DOCKED: ATOM     13  C   UNL d   1      -1.541   0.941 -15.436 -0.29 +0.11    +0.073 C 
DOCKED: ATOM     14  O   UNL d   1      -1.601  -0.228 -14.914 -0.71 -0.99    -0.547 OA
DOCKED: ATOM     15  O   UNL d   1      -0.522   1.718 -15.359 -0.54 -0.60    -0.547 OA
DOCKED: ENDBRANCH   1  13
DOCKED: TORSDOF 6
DOCKED: TER
DOCKED: ENDMDL
________________________________________________________________________________


	BEGINNING GENETIC ALGORITHM DOCKING 92 of 100
Run: 92 Seed: 1775213995 670062783 [ Run 92 of 100 GA/GALS ]
Beginning LAMARCKIAN GENETIC ALGORITHM (LGA), with a maximum of 25000000 energy evaluations.

Final-Value: -8.537


	FINAL GENETIC ALGORITHM DOCKED STATE
	_______________________________________________


Detailed state:  trans -2.466 1.581 -16.924 quatxyzw 0.852570 0.049161 0.519776 -0.023252 center 0.015 0.083 0.031 ntor 6 -64.5005 -48.5119 59.7239 18.1471 -59.4880 -173.1793
State:	 -2.466   1.581 -16.924   0.853  0.049  0.520 -177.335    -64.50  -48.51   59.72   18.15  -59.49 -173.18

DOCKED: MODEL       92
DOCKED: USER    Run = 92
DOCKED: USER    DPF = D:/Protein_go_brrr/autodock/final/mut_D99N/2_3_BPG/dock.dpf
DOCKED: USER  
DOCKED: USER    Estimated Free Energy of Binding    =   -9.20 kcal/mol  [=(1)+(2)+(3)-(4)]
DOCKED: USER    Estimated Inhibition Constant, Ki   =  180.94 nM (nanomolar)  [Temperature = 298.15 K]
DOCKED: USER    
DOCKED: USER    (1) Final Intermolecular Energy     =  -10.99 kcal/mol
DOCKED: USER        vdW + Hbond + desolv Energy     =   -3.28 kcal/mol
DOCKED: USER        Electrostatic Energy            =   -7.71 kcal/mol
DOCKED: USER    (2) Final Total Internal Energy     =   +2.45 kcal/mol
DOCKED: USER    (3) Torsional Free Energy           =   +1.79 kcal/mol
DOCKED: USER    (4) Unbound System's Energy  [=(2)] =   +2.45 kcal/mol
DOCKED: USER    
DOCKED: USER    
DOCKED: USER    NEWDPF move 2_3_BPG_opt.pdbqt
DOCKED: USER    NEWDPF about 0.015000 0.083000 0.031000
DOCKED: USER    NEWDPF tran0 -2.466493 1.580611 -16.923891
DOCKED: USER    NEWDPF quaternion0 0.852570 0.049161 0.519776 -0.023252
DOCKED: USER    NEWDPF axisangle0 0.852800 0.049174 0.519917 -177.335305
DOCKED: USER    NEWDPF quat0 0.852800 0.049174 0.519917 -177.335305
DOCKED: USER    NEWDPF dihe0 -64.50 -48.51 59.72 18.15 -59.49 -173.18 
DOCKED: USER  keepresnum = 1 
DOCKED: USER  
DOCKED: REMARK  6 active torsions:
DOCKED: REMARK  status: ('A' for Active; 'I' for Inactive)
DOCKED: REMARK    1  A    between atoms: P_1  and  O_3 
DOCKED: REMARK    2  A    between atoms: P_2  and  O_4 
DOCKED: REMARK    3  A    between atoms: O_3  and  C_13 
DOCKED: REMARK    4  A    between atoms: O_4  and  C_14 
DOCKED: REMARK    5  A    between atoms: C_13  and  C_14 
DOCKED: REMARK    6  A    between atoms: C_13  and  C_15 
DOCKED: USER                              x       y       z     vdW  Elec       q    Type
DOCKED: USER                           _______ _______ _______ _____ _____    ______ ____
DOCKED: ROOT
DOCKED: ATOM      1  C   UNL d   1      -2.669   1.829 -17.513 -0.15 +0.29    +0.193 C 
DOCKED: ENDROOT
DOCKED: BRANCH   1   2
DOCKED: ATOM      2  O   UNL d   1      -3.670   0.914 -18.074 +0.03 -0.76    -0.356 OA
DOCKED: BRANCH   2   3
DOCKED: ATOM      3  P   UNL d   1      -3.431   0.048 -19.451 -0.09 -0.03    -0.014 P 
DOCKED: ATOM      4  O   UNL d   1      -3.748  -1.402 -19.051 -0.58 -1.27    -0.577 OA
DOCKED: ATOM      5  O   UNL d   1      -1.964   0.215 -19.841 -0.18 -0.99    -0.577 OA
DOCKED: ATOM      6  O   UNL d   1      -4.403   0.563 -20.507 -0.03 -0.82    -0.638 OA
DOCKED: ENDBRANCH   2   3
DOCKED: ENDBRANCH   1   2
DOCKED: BRANCH   1   7
DOCKED: ATOM      7  C   UNL d   1      -2.399   1.425 -16.016 -0.25 +0.29    +0.201 C 
DOCKED: BRANCH   7   8
DOCKED: ATOM      8  O   UNL d   1      -3.352   0.512 -15.428 -0.30 -0.54    -0.364 OA
DOCKED: BRANCH   8   9
DOCKED: ATOM      9  P   UNL d   1      -2.837  -0.919 -14.778 -0.52 -0.02    -0.015 P 
DOCKED: ATOM     10  O   UNL d   1      -3.528  -2.006 -15.610 -0.09 -0.98    -0.577 OA
DOCKED: ATOM     11  O   UNL d   1      -3.297  -0.937 -13.320 -0.07 -0.35    -0.577 OA
DOCKED: ATOM     12  O   UNL d   1      -1.317  -0.961 -14.926 -0.47 -1.33    -0.638 OA
DOCKED: ENDBRANCH   8   9
DOCKED: ENDBRANCH   7   8
DOCKED: ENDBRANCH   1   7
DOCKED: BRANCH   1  13
DOCKED: ATOM     13  C   UNL d   1      -3.209   3.307 -17.547 -0.14 +0.08    +0.073 C 
DOCKED: ATOM     14  O   UNL d   1      -4.276   3.553 -18.211 -0.44 -0.93    -0.547 OA
DOCKED: ATOM     15  O   UNL d   1      -2.573   4.175 -16.847 -0.00 -0.35    -0.547 OA
DOCKED: ENDBRANCH   1  13
DOCKED: TORSDOF 6
DOCKED: TER
DOCKED: ENDMDL
________________________________________________________________________________


	BEGINNING GENETIC ALGORITHM DOCKING 93 of 100
Run: 93 Seed: 483781809 352309667 [ Run 93 of 100 GA/GALS ]
Beginning LAMARCKIAN GENETIC ALGORITHM (LGA), with a maximum of 25000000 energy evaluations.

Final-Value: -8.738


	FINAL GENETIC ALGORITHM DOCKED STATE
	_______________________________________________


Detailed state:  trans -2.341 2.093 -17.346 quatxyzw 0.513931 -0.541372 -0.105613 0.656991 center 0.015 0.083 0.031 ntor 6 -4.5111 128.1293 137.9056 55.5204 41.8480 -165.3341
State:	 -2.341   2.093 -17.346   0.682 -0.718 -0.140 97.858     -4.51  128.13  137.91   55.52   41.85 -165.33

DOCKED: MODEL       93
DOCKED: USER    Run = 93
DOCKED: USER    DPF = D:/Protein_go_brrr/autodock/final/mut_D99N/2_3_BPG/dock.dpf
DOCKED: USER  
DOCKED: USER    Estimated Free Energy of Binding    =   -9.39 kcal/mol  [=(1)+(2)+(3)-(4)]
DOCKED: USER    Estimated Inhibition Constant, Ki   =  131.11 nM (nanomolar)  [Temperature = 298.15 K]
DOCKED: USER    
DOCKED: USER    (1) Final Intermolecular Energy     =  -11.18 kcal/mol
DOCKED: USER        vdW + Hbond + desolv Energy     =   -3.77 kcal/mol
DOCKED: USER        Electrostatic Energy            =   -7.40 kcal/mol
DOCKED: USER    (2) Final Total Internal Energy     =   +2.44 kcal/mol
DOCKED: USER    (3) Torsional Free Energy           =   +1.79 kcal/mol
DOCKED: USER    (4) Unbound System's Energy  [=(2)] =   +2.44 kcal/mol
DOCKED: USER    
DOCKED: USER    
DOCKED: USER    NEWDPF move 2_3_BPG_opt.pdbqt
DOCKED: USER    NEWDPF about 0.015000 0.083000 0.031000
DOCKED: USER    NEWDPF tran0 -2.341403 2.092960 -17.345963
DOCKED: USER    NEWDPF quaternion0 0.513931 -0.541372 -0.105613 0.656991
DOCKED: USER    NEWDPF axisangle0 0.681698 -0.718096 -0.140090 97.858392
DOCKED: USER    NEWDPF quat0 0.681698 -0.718096 -0.140090 97.858392
DOCKED: USER    NEWDPF dihe0 -4.51 128.13 137.91 55.52 41.85 -165.33 
DOCKED: USER  keepresnum = 1 
DOCKED: USER  
DOCKED: REMARK  6 active torsions:
DOCKED: REMARK  status: ('A' for Active; 'I' for Inactive)
DOCKED: REMARK    1  A    between atoms: P_1  and  O_3 
DOCKED: REMARK    2  A    between atoms: P_2  and  O_4 
DOCKED: REMARK    3  A    between atoms: O_3  and  C_13 
DOCKED: REMARK    4  A    between atoms: O_4  and  C_14 
DOCKED: REMARK    5  A    between atoms: C_13  and  C_14 
DOCKED: REMARK    6  A    between atoms: C_13  and  C_15 
DOCKED: USER                              x       y       z     vdW  Elec       q    Type
DOCKED: USER                           _______ _______ _______ _____ _____    ______ ____
DOCKED: ROOT
DOCKED: ATOM      1  C   UNL d   1      -2.298   2.271 -16.701 -0.19 +0.22    +0.193 C 
DOCKED: ENDROOT
DOCKED: BRANCH   1   2
DOCKED: ATOM      2  O   UNL d   1      -3.651   2.560 -16.214 -0.13 -0.43    -0.356 OA
DOCKED: BRANCH   2   3
DOCKED: ATOM      3  P   UNL d   1      -4.457   3.952 -16.561 -0.28 -0.01    -0.014 P 
DOCKED: ATOM      4  O   UNL d   1      -3.517   5.068 -16.080 -0.00 -0.28    -0.577 OA
DOCKED: ATOM      5  O   UNL d   1      -5.759   3.931 -15.763 -0.16 -0.56    -0.577 OA
DOCKED: ATOM      6  O   UNL d   1      -4.669   4.010 -18.070 -0.49 -1.03    -0.638 OA
DOCKED: ENDBRANCH   2   3
DOCKED: ENDBRANCH   1   2
DOCKED: BRANCH   1   7
DOCKED: ATOM      7  C   UNL d   1      -2.405   1.578 -18.109 -0.10 +0.32    +0.201 C 
DOCKED: BRANCH   7   8
DOCKED: ATOM      8  O   UNL d   1      -3.742   1.258 -18.554 -0.05 -0.71    -0.364 OA
DOCKED: BRANCH   8   9
DOCKED: ATOM      9  P   UNL d   1      -4.061  -0.220 -19.226 -0.05 -0.03    -0.015 P 
DOCKED: ATOM     10  O   UNL d   1      -2.847  -0.526 -20.111 -0.18 -0.92    -0.577 OA
DOCKED: ATOM     11  O   UNL d   1      -5.343  -0.070 -20.045 -0.23 -0.94    -0.577 OA
DOCKED: ATOM     12  O   UNL d   1      -4.200  -1.218 -18.077 -0.53 -1.48    -0.638 OA
DOCKED: ENDBRANCH   8   9
DOCKED: ENDBRANCH   7   8
DOCKED: ENDBRANCH   1   7
DOCKED: BRANCH   1  13
DOCKED: ATOM     13  C   UNL d   1      -1.566   1.290 -15.711 -0.33 +0.10    +0.073 C 
DOCKED: ATOM     14  O   UNL d   1      -2.180   0.230 -15.335 -0.45 -1.06    -0.547 OA
DOCKED: ATOM     15  O   UNL d   1      -0.360   1.584 -15.385 -0.60 -0.60    -0.547 OA
DOCKED: ENDBRANCH   1  13
DOCKED: TORSDOF 6
DOCKED: TER
DOCKED: ENDMDL
________________________________________________________________________________


	BEGINNING GENETIC ALGORITHM DOCKING 94 of 100
Run: 94 Seed: 681464972 1927815560 [ Run 94 of 100 GA/GALS ]
Beginning LAMARCKIAN GENETIC ALGORITHM (LGA), with a maximum of 25000000 energy evaluations.

Final-Value: -8.767


	FINAL GENETIC ALGORITHM DOCKED STATE
	_______________________________________________


Detailed state:  trans -2.141 2.061 -16.883 quatxyzw 0.481317 -0.508582 -0.168866 0.693659 center 0.015 0.083 0.031 ntor 6 -17.4788 128.1976 -173.3598 59.0962 16.3590 173.9395
State:	 -2.141   2.061 -16.883   0.668 -0.706 -0.234 92.159    -17.48  128.20 -173.36   59.10   16.36  173.94

DOCKED: MODEL       94
DOCKED: USER    Run = 94
DOCKED: USER    DPF = D:/Protein_go_brrr/autodock/final/mut_D99N/2_3_BPG/dock.dpf
DOCKED: USER  
DOCKED: USER    Estimated Free Energy of Binding    =   -9.24 kcal/mol  [=(1)+(2)+(3)-(4)]
DOCKED: USER    Estimated Inhibition Constant, Ki   =  169.74 nM (nanomolar)  [Temperature = 298.15 K]
DOCKED: USER    
DOCKED: USER    (1) Final Intermolecular Energy     =  -11.03 kcal/mol
DOCKED: USER        vdW + Hbond + desolv Energy     =   -3.99 kcal/mol
DOCKED: USER        Electrostatic Energy            =   -7.04 kcal/mol
DOCKED: USER    (2) Final Total Internal Energy     =   +2.26 kcal/mol
DOCKED: USER    (3) Torsional Free Energy           =   +1.79 kcal/mol
DOCKED: USER    (4) Unbound System's Energy  [=(2)] =   +2.26 kcal/mol
DOCKED: USER    
DOCKED: USER    
DOCKED: USER    NEWDPF move 2_3_BPG_opt.pdbqt
DOCKED: USER    NEWDPF about 0.015000 0.083000 0.031000
DOCKED: USER    NEWDPF tran0 -2.140866 2.061144 -16.883283
DOCKED: USER    NEWDPF quaternion0 0.481317 -0.508582 -0.168866 0.693659
DOCKED: USER    NEWDPF axisangle0 0.668214 -0.706066 -0.234437 92.159087
DOCKED: USER    NEWDPF quat0 0.668214 -0.706066 -0.234437 92.159087
DOCKED: USER    NEWDPF dihe0 -17.48 128.20 -173.36 59.10 16.36 173.94 
DOCKED: USER  keepresnum = 1 
DOCKED: USER  
DOCKED: REMARK  6 active torsions:
DOCKED: REMARK  status: ('A' for Active; 'I' for Inactive)
DOCKED: REMARK    1  A    between atoms: P_1  and  O_3 
DOCKED: REMARK    2  A    between atoms: P_2  and  O_4 
DOCKED: REMARK    3  A    between atoms: O_3  and  C_13 
DOCKED: REMARK    4  A    between atoms: O_4  and  C_14 
DOCKED: REMARK    5  A    between atoms: C_13  and  C_14 
DOCKED: REMARK    6  A    between atoms: C_13  and  C_15 
DOCKED: USER                              x       y       z     vdW  Elec       q    Type
DOCKED: USER                           _______ _______ _______ _____ _____    ______ ____
DOCKED: ROOT
DOCKED: ATOM      1  C   UNL d   1      -2.114   2.139 -16.218 -0.22 +0.22    +0.193 C 
DOCKED: ENDROOT
DOCKED: BRANCH   1   2
DOCKED: ATOM      2  O   UNL d   1      -3.488   2.250 -15.715 -0.19 -0.40    -0.356 OA
DOCKED: BRANCH   2   3
DOCKED: ATOM      3  P   UNL d   1      -4.423   3.586 -15.929 -0.35 -0.01    -0.014 P 
DOCKED: ATOM      4  O   UNL d   1      -3.591   4.735 -15.337 -0.05 -0.28    -0.577 OA
DOCKED: ATOM      5  O   UNL d   1      -5.714   3.365 -15.145 -0.13 -0.48    -0.577 OA
DOCKED: ATOM      6  O   UNL d   1      -4.644   3.770 -17.427 -0.27 -1.04    -0.638 OA
DOCKED: ENDBRANCH   2   3
DOCKED: ENDBRANCH   1   2
DOCKED: BRANCH   1   7
DOCKED: ATOM      7  C   UNL d   1      -2.162   1.668 -17.718 -0.10 +0.31    +0.201 C 
DOCKED: BRANCH   7   8
DOCKED: ATOM      8  O   UNL d   1      -3.324   0.899 -18.100 -0.15 -0.76    -0.364 OA
DOCKED: BRANCH   8   9
DOCKED: ATOM      9  P   UNL d   1      -3.285  -0.045 -19.458 -0.02 -0.03    -0.015 P 
DOCKED: ATOM     10  O   UNL d   1      -1.820  -0.031 -19.911 -0.23 -1.02    -0.577 OA
DOCKED: ATOM     11  O   UNL d   1      -4.206   0.614 -20.486 -0.03 -0.72    -0.577 OA
DOCKED: ATOM     12  O   UNL d   1      -3.747  -1.443 -19.050 -0.55 -1.40    -0.638 OA
DOCKED: ENDBRANCH   8   9
DOCKED: ENDBRANCH   7   8
DOCKED: ENDBRANCH   1   7
DOCKED: BRANCH   1  13
DOCKED: ATOM     13  C   UNL d   1      -1.317   1.072 -15.380 -0.34 +0.10    +0.073 C 
DOCKED: ATOM     14  O   UNL d   1      -1.938   0.029 -14.968 -0.65 -0.95    -0.547 OA
DOCKED: ATOM     15  O   UNL d   1      -0.062   1.283 -15.211 -0.71 -0.58    -0.547 OA
DOCKED: ENDBRANCH   1  13
DOCKED: TORSDOF 6
DOCKED: TER
DOCKED: ENDMDL
________________________________________________________________________________


	BEGINNING GENETIC ALGORITHM DOCKING 95 of 100
Run: 95 Seed: 1740254756 673094810 [ Run 95 of 100 GA/GALS ]
Beginning LAMARCKIAN GENETIC ALGORITHM (LGA), with a maximum of 25000000 energy evaluations.

Final-Value: -8.336


	FINAL GENETIC ALGORITHM DOCKED STATE
	_______________________________________________


Detailed state:  trans -2.449 2.211 -18.972 quatxyzw -0.937398 -0.271191 -0.159183 0.149670 center 0.015 0.083 0.031 ntor 6 -179.4215 -27.0741 11.6033 7.9116 -48.4418 -164.9429
State:	 -2.449   2.211 -18.972  -0.948 -0.274 -0.161 162.784   -179.42  -27.07   11.60    7.91  -48.44 -164.94

DOCKED: MODEL       95
DOCKED: USER    Run = 95
DOCKED: USER    DPF = D:/Protein_go_brrr/autodock/final/mut_D99N/2_3_BPG/dock.dpf
DOCKED: USER  
DOCKED: USER    Estimated Free Energy of Binding    =   -8.79 kcal/mol  [=(1)+(2)+(3)-(4)]
DOCKED: USER    Estimated Inhibition Constant, Ki   =  360.72 nM (nanomolar)  [Temperature = 298.15 K]
DOCKED: USER    
DOCKED: USER    (1) Final Intermolecular Energy     =  -10.58 kcal/mol
DOCKED: USER        vdW + Hbond + desolv Energy     =   -2.98 kcal/mol
DOCKED: USER        Electrostatic Energy            =   -7.59 kcal/mol
DOCKED: USER    (2) Final Total Internal Energy     =   +2.24 kcal/mol
DOCKED: USER    (3) Torsional Free Energy           =   +1.79 kcal/mol
DOCKED: USER    (4) Unbound System's Energy  [=(2)] =   +2.24 kcal/mol
DOCKED: USER    
DOCKED: USER    
DOCKED: USER    NEWDPF move 2_3_BPG_opt.pdbqt
DOCKED: USER    NEWDPF about 0.015000 0.083000 0.031000
DOCKED: USER    NEWDPF tran0 -2.448966 2.210763 -18.971518
DOCKED: USER    NEWDPF quaternion0 -0.937398 -0.271191 -0.159183 0.149670
DOCKED: USER    NEWDPF axisangle0 -0.948077 -0.274280 -0.160997 162.784383
DOCKED: USER    NEWDPF quat0 -0.948077 -0.274280 -0.160997 162.784383
DOCKED: USER    NEWDPF dihe0 -179.42 -27.07 11.60 7.91 -48.44 -164.94 
DOCKED: USER  keepresnum = 1 
DOCKED: USER  
DOCKED: REMARK  6 active torsions:
DOCKED: REMARK  status: ('A' for Active; 'I' for Inactive)
DOCKED: REMARK    1  A    between atoms: P_1  and  O_3 
DOCKED: REMARK    2  A    between atoms: P_2  and  O_4 
DOCKED: REMARK    3  A    between atoms: O_3  and  C_13 
DOCKED: REMARK    4  A    between atoms: O_4  and  C_14 
DOCKED: REMARK    5  A    between atoms: C_13  and  C_14 
DOCKED: REMARK    6  A    between atoms: C_13  and  C_15 
DOCKED: USER                              x       y       z     vdW  Elec       q    Type
DOCKED: USER                           _______ _______ _______ _____ _____    ______ ____
DOCKED: ROOT
DOCKED: ATOM      1  C   UNL d   1      -3.028   2.119 -19.297 -0.09 +0.24    +0.193 C 
DOCKED: ENDROOT
DOCKED: BRANCH   1   2
DOCKED: ATOM      2  O   UNL d   1      -3.746   1.015 -18.651 -0.09 -0.70    -0.356 OA
DOCKED: BRANCH   2   3
DOCKED: ATOM      3  P   UNL d   1      -4.261  -0.322 -19.458 -0.19 -0.02    -0.014 P 
DOCKED: ATOM      4  O   UNL d   1      -4.197  -1.448 -18.414 -0.63 -1.23    -0.577 OA
DOCKED: ATOM      5  O   UNL d   1      -3.283  -0.563 -20.606 -0.07 -0.68    -0.577 OA
DOCKED: ATOM      6  O   UNL d   1      -5.692  -0.070 -19.922 -0.27 -1.17    -0.638 OA
DOCKED: ENDBRANCH   2   3
DOCKED: ENDBRANCH   1   2
DOCKED: BRANCH   1   7
DOCKED: ATOM      7  C   UNL d   1      -1.819   2.539 -18.382 -0.08 +0.20    +0.201 C 
DOCKED: BRANCH   7   8
DOCKED: ATOM      8  O   UNL d   1      -1.740   1.878 -17.100 -0.09 -0.49    -0.364 OA
DOCKED: BRANCH   8   9
DOCKED: ATOM      9  P   UNL d   1      -0.293   1.285 -16.560 -0.26 -0.02    -0.015 P 
DOCKED: ATOM     10  O   UNL d   1      -0.651   0.371 -15.382 -0.54 -0.95    -0.577 OA
DOCKED: ATOM     11  O   UNL d   1       0.544   2.484 -16.118 -0.19 -0.41    -0.577 OA
DOCKED: ATOM     12  O   UNL d   1       0.336   0.509 -17.717 -0.04 -1.00    -0.638 OA
DOCKED: ENDBRANCH   8   9
DOCKED: ENDBRANCH   7   8
DOCKED: ENDBRANCH   1   7
DOCKED: BRANCH   1  13
DOCKED: ATOM     13  C   UNL d   1      -3.984   3.357 -19.471 -0.01 +0.09    +0.073 C 
DOCKED: ATOM     14  O   UNL d   1      -4.123   3.863 -20.639 -0.02 -0.41    -0.547 OA
DOCKED: ATOM     15  O   UNL d   1      -4.622   3.751 -18.428 -0.40 -1.04    -0.547 OA
DOCKED: ENDBRANCH   1  13
DOCKED: TORSDOF 6
DOCKED: TER
DOCKED: ENDMDL
________________________________________________________________________________


	BEGINNING GENETIC ALGORITHM DOCKING 96 of 100
Run: 96 Seed: 1954577489 1439549353 [ Run 96 of 100 GA/GALS ]
Beginning LAMARCKIAN GENETIC ALGORITHM (LGA), with a maximum of 25000000 energy evaluations.

Final-Value: -8.806


	FINAL GENETIC ALGORITHM DOCKED STATE
	_______________________________________________


Detailed state:  trans -5.070 -2.762 -19.161 quatxyzw 0.836674 -0.497841 0.130767 -0.187167 center 0.015 0.083 0.031 ntor 6 -12.9326 3.4787 179.2979 -15.3144 -42.8468 93.3229
State:	 -5.070  -2.762 -19.161   0.852 -0.507  0.133 -158.425    -12.93    3.48  179.30  -15.31  -42.85   93.32

DOCKED: MODEL       96
DOCKED: USER    Run = 96
DOCKED: USER    DPF = D:/Protein_go_brrr/autodock/final/mut_D99N/2_3_BPG/dock.dpf
DOCKED: USER  
DOCKED: USER    Estimated Free Energy of Binding    =   -9.43 kcal/mol  [=(1)+(2)+(3)-(4)]
DOCKED: USER    Estimated Inhibition Constant, Ki   =  122.76 nM (nanomolar)  [Temperature = 298.15 K]
DOCKED: USER    
DOCKED: USER    (1) Final Intermolecular Energy     =  -11.22 kcal/mol
DOCKED: USER        vdW + Hbond + desolv Energy     =   -4.71 kcal/mol
DOCKED: USER        Electrostatic Energy            =   -6.50 kcal/mol
DOCKED: USER    (2) Final Total Internal Energy     =   +2.41 kcal/mol
DOCKED: USER    (3) Torsional Free Energy           =   +1.79 kcal/mol
DOCKED: USER    (4) Unbound System's Energy  [=(2)] =   +2.41 kcal/mol
DOCKED: USER    
DOCKED: USER    
DOCKED: USER    NEWDPF move 2_3_BPG_opt.pdbqt
DOCKED: USER    NEWDPF about 0.015000 0.083000 0.031000
DOCKED: USER    NEWDPF tran0 -5.070191 -2.761848 -19.161437
DOCKED: USER    NEWDPF quaternion0 0.836674 -0.497841 0.130767 -0.187167
DOCKED: USER    NEWDPF axisangle0 0.851725 -0.506797 0.133119 -158.425035
DOCKED: USER    NEWDPF quat0 0.851725 -0.506797 0.133119 -158.425035
DOCKED: USER    NEWDPF dihe0 -12.93 3.48 179.30 -15.31 -42.85 93.32 
DOCKED: USER  keepresnum = 1 
DOCKED: USER  
DOCKED: REMARK  6 active torsions:
DOCKED: REMARK  status: ('A' for Active; 'I' for Inactive)
DOCKED: REMARK    1  A    between atoms: P_1  and  O_3 
DOCKED: REMARK    2  A    between atoms: P_2  and  O_4 
DOCKED: REMARK    3  A    between atoms: O_3  and  C_13 
DOCKED: REMARK    4  A    between atoms: O_4  and  C_14 
DOCKED: REMARK    5  A    between atoms: C_13  and  C_14 
DOCKED: REMARK    6  A    between atoms: C_13  and  C_15 
DOCKED: USER                              x       y       z     vdW  Elec       q    Type
DOCKED: USER                           _______ _______ _______ _____ _____    ______ ____
DOCKED: ROOT
DOCKED: ATOM      1  C   UNL d   1      -5.067  -2.208 -19.539 -0.20 +0.20    +0.193 C 
DOCKED: ENDROOT
DOCKED: BRANCH   1   2
DOCKED: ATOM      2  O   UNL d   1      -6.286  -1.446 -19.243 -0.09 -0.43    -0.356 OA
DOCKED: BRANCH   2   3
DOCKED: ATOM      3  P   UNL d   1      -7.070  -0.527 -20.358 -0.09 -0.02    -0.014 P 
DOCKED: ATOM      4  O   UNL d   1      -8.273   0.054 -19.599 -0.28 -0.86    -0.577 OA
DOCKED: ATOM      5  O   UNL d   1      -7.513  -1.461 -21.483 +0.01 -0.30    -0.577 OA
DOCKED: ATOM      6  O   UNL d   1      -6.116   0.570 -20.819 -0.47 -0.96    -0.638 OA
DOCKED: ENDBRANCH   2   3
DOCKED: ENDBRANCH   1   2
DOCKED: BRANCH   1   7
DOCKED: ATOM      7  C   UNL d   1      -4.911  -3.348 -18.466 -0.29 +0.18    +0.201 C 
DOCKED: BRANCH   7   8
DOCKED: ATOM      8  O   UNL d   1      -3.868  -3.151 -17.486 -0.22 -0.56    -0.364 OA
DOCKED: BRANCH   8   9
DOCKED: ATOM      9  P   UNL d   1      -4.126  -3.564 -15.905 -0.78 -0.02    -0.015 P 
DOCKED: ATOM     10  O   UNL d   1      -5.545  -4.145 -15.871 -0.74 -0.50    -0.577 OA
DOCKED: ATOM     11  O   UNL d   1      -4.016  -2.279 -15.085 -0.23 -0.69    -0.577 OA
DOCKED: ATOM     12  O   UNL d   1      -3.071  -4.604 -15.531 -0.66 -0.51    -0.638 OA
DOCKED: ENDBRANCH   8   9
DOCKED: ENDBRANCH   7   8
DOCKED: ENDBRANCH   1   7
DOCKED: BRANCH   1  13
DOCKED: ATOM     13  C   UNL d   1      -3.809  -1.265 -19.461 -0.06 +0.13    +0.073 C 
DOCKED: ATOM     14  O   UNL d   1      -3.751  -0.400 -18.518 -0.46 -1.39    -0.547 OA
DOCKED: ATOM     15  O   UNL d   1      -2.877  -1.466 -20.321 -0.15 -0.77    -0.547 OA
DOCKED: ENDBRANCH   1  13
DOCKED: TORSDOF 6
DOCKED: TER
DOCKED: ENDMDL
________________________________________________________________________________


	BEGINNING GENETIC ALGORITHM DOCKING 97 of 100
Run: 97 Seed: 1758742098 1422846041 [ Run 97 of 100 GA/GALS ]
Beginning LAMARCKIAN GENETIC ALGORITHM (LGA), with a maximum of 25000000 energy evaluations.

Final-Value: -8.649


	FINAL GENETIC ALGORITHM DOCKED STATE
	_______________________________________________


Detailed state:  trans -5.298 -2.154 -19.239 quatxyzw -0.786452 0.559822 -0.178725 0.190132 center 0.015 0.083 0.031 ntor 6 -12.2770 -20.1701 74.5239 -3.4425 -37.4801 64.0255
State:	 -5.298  -2.154 -19.239  -0.801  0.570 -0.182 158.079    -12.28  -20.17   74.52   -3.44  -37.48   64.03

DOCKED: MODEL       97
DOCKED: USER    Run = 97
DOCKED: USER    DPF = D:/Protein_go_brrr/autodock/final/mut_D99N/2_3_BPG/dock.dpf
DOCKED: USER  
DOCKED: USER    Estimated Free Energy of Binding    =   -9.11 kcal/mol  [=(1)+(2)+(3)-(4)]
DOCKED: USER    Estimated Inhibition Constant, Ki   =  210.78 nM (nanomolar)  [Temperature = 298.15 K]
DOCKED: USER    
DOCKED: USER    (1) Final Intermolecular Energy     =  -10.90 kcal/mol
DOCKED: USER        vdW + Hbond + desolv Energy     =   -4.30 kcal/mol
DOCKED: USER        Electrostatic Energy            =   -6.60 kcal/mol
DOCKED: USER    (2) Final Total Internal Energy     =   +2.25 kcal/mol
DOCKED: USER    (3) Torsional Free Energy           =   +1.79 kcal/mol
DOCKED: USER    (4) Unbound System's Energy  [=(2)] =   +2.25 kcal/mol
DOCKED: USER    
DOCKED: USER    
DOCKED: USER    NEWDPF move 2_3_BPG_opt.pdbqt
DOCKED: USER    NEWDPF about 0.015000 0.083000 0.031000
DOCKED: USER    NEWDPF tran0 -5.297515 -2.153560 -19.239210
DOCKED: USER    NEWDPF quaternion0 -0.786452 0.559822 -0.178725 0.190132
DOCKED: USER    NEWDPF axisangle0 -0.801065 0.570223 -0.182046 158.079019
DOCKED: USER    NEWDPF quat0 -0.801065 0.570223 -0.182046 158.079019
DOCKED: USER    NEWDPF dihe0 -12.28 -20.17 74.52 -3.44 -37.48 64.03 
DOCKED: USER  keepresnum = 1 
DOCKED: USER  
DOCKED: REMARK  6 active torsions:
DOCKED: REMARK  status: ('A' for Active; 'I' for Inactive)
DOCKED: REMARK    1  A    between atoms: P_1  and  O_3 
DOCKED: REMARK    2  A    between atoms: P_2  and  O_4 
DOCKED: REMARK    3  A    between atoms: O_3  and  C_13 
DOCKED: REMARK    4  A    between atoms: O_4  and  C_14 
DOCKED: REMARK    5  A    between atoms: C_13  and  C_14 
DOCKED: REMARK    6  A    between atoms: C_13  and  C_15 
DOCKED: USER                              x       y       z     vdW  Elec       q    Type
DOCKED: USER                           _______ _______ _______ _____ _____    ______ ____
DOCKED: ROOT
DOCKED: ATOM      1  C   UNL d   1      -5.176  -1.630 -19.640 -0.18 +0.22    +0.193 C 
DOCKED: ENDROOT
DOCKED: BRANCH   1   2
DOCKED: ATOM      2  O   UNL d   1      -6.302  -0.696 -19.524 -0.27 -0.58    -0.356 OA
DOCKED: BRANCH   2   3
DOCKED: ATOM      3  P   UNL d   1      -7.005   0.035 -20.819 -0.01 -0.02    -0.014 P 
DOCKED: ATOM      4  O   UNL d   1      -8.425   0.377 -20.340 -0.31 -0.68    -0.577 OA
DOCKED: ATOM      5  O   UNL d   1      -7.026  -0.983 -21.957 +0.01 -0.31    -0.577 OA
DOCKED: ATOM      6  O   UNL d   1      -6.205   1.292 -21.142 -0.29 -0.89    -0.638 OA
DOCKED: ENDBRANCH   2   3
DOCKED: ENDBRANCH   1   2
DOCKED: BRANCH   1   7
DOCKED: ATOM      7  C   UNL d   1      -5.298  -2.710 -18.503 -0.25 +0.20    +0.201 C 
DOCKED: BRANCH   7   8
DOCKED: ATOM      8  O   UNL d   1      -4.073  -3.040 -17.812 -0.31 -0.54    -0.364 OA
DOCKED: BRANCH   8   9
DOCKED: ATOM      9  P   UNL d   1      -4.103  -3.415 -16.201 -0.74 -0.02    -0.015 P 
DOCKED: ATOM     10  O   UNL d   1      -3.584  -2.160 -15.490 -0.14 -0.89    -0.577 OA
DOCKED: ATOM     11  O   UNL d   1      -3.171  -4.610 -16.004 -0.54 -0.47    -0.577 OA
DOCKED: ATOM     12  O   UNL d   1      -5.555  -3.722 -15.837 -0.62 -0.65    -0.638 OA
DOCKED: ENDBRANCH   8   9
DOCKED: ENDBRANCH   7   8
DOCKED: ENDBRANCH   1   7
DOCKED: BRANCH   1  13
DOCKED: ATOM     13  C   UNL d   1      -3.815  -0.860 -19.460 -0.10 +0.13    +0.073 C 
DOCKED: ATOM     14  O   UNL d   1      -3.737   0.039 -18.550 -0.38 -1.27    -0.547 OA
DOCKED: ATOM     15  O   UNL d   1      -2.835  -1.227 -20.203 -0.17 -0.85    -0.547 OA
DOCKED: ENDBRANCH   1  13
DOCKED: TORSDOF 6
DOCKED: TER
DOCKED: ENDMDL
________________________________________________________________________________


	BEGINNING GENETIC ALGORITHM DOCKING 98 of 100
Run: 98 Seed: 425137862 596449186 [ Run 98 of 100 GA/GALS ]
Beginning LAMARCKIAN GENETIC ALGORITHM (LGA), with a maximum of 25000000 energy evaluations.

Final-Value: -8.717


	FINAL GENETIC ALGORITHM DOCKED STATE
	_______________________________________________


Detailed state:  trans -3.157 1.844 -16.122 quatxyzw 0.006804 0.677497 -0.511478 0.528528 center 0.015 0.083 0.031 ntor 6 -166.7567 48.4680 -86.7461 27.1563 -40.3123 -125.6471
State:	 -3.157   1.844 -16.122   0.008  0.798 -0.603 116.188   -166.76   48.47  -86.75   27.16  -40.31 -125.65

DOCKED: MODEL       98
DOCKED: USER    Run = 98
DOCKED: USER    DPF = D:/Protein_go_brrr/autodock/final/mut_D99N/2_3_BPG/dock.dpf
DOCKED: USER  
DOCKED: USER    Estimated Free Energy of Binding    =   -9.12 kcal/mol  [=(1)+(2)+(3)-(4)]
DOCKED: USER    Estimated Inhibition Constant, Ki   =  204.81 nM (nanomolar)  [Temperature = 298.15 K]
DOCKED: USER    
DOCKED: USER    (1) Final Intermolecular Energy     =  -10.91 kcal/mol
DOCKED: USER        vdW + Hbond + desolv Energy     =   -3.84 kcal/mol
DOCKED: USER        Electrostatic Energy            =   -7.07 kcal/mol
DOCKED: USER    (2) Final Total Internal Energy     =   +2.20 kcal/mol
DOCKED: USER    (3) Torsional Free Energy           =   +1.79 kcal/mol
DOCKED: USER    (4) Unbound System's Energy  [=(2)] =   +2.20 kcal/mol
DOCKED: USER    
DOCKED: USER    
DOCKED: USER    NEWDPF move 2_3_BPG_opt.pdbqt
DOCKED: USER    NEWDPF about 0.015000 0.083000 0.031000
DOCKED: USER    NEWDPF tran0 -3.157015 1.844214 -16.121630
DOCKED: USER    NEWDPF quaternion0 0.006804 0.677497 -0.511478 0.528528
DOCKED: USER    NEWDPF axisangle0 0.008015 0.798073 -0.602507 116.187867
DOCKED: USER    NEWDPF quat0 0.008015 0.798073 -0.602507 116.187867
DOCKED: USER    NEWDPF dihe0 -166.76 48.47 -86.75 27.16 -40.31 -125.65 
DOCKED: USER  keepresnum = 1 
DOCKED: USER  
DOCKED: REMARK  6 active torsions:
DOCKED: REMARK  status: ('A' for Active; 'I' for Inactive)
DOCKED: REMARK    1  A    between atoms: P_1  and  O_3 
DOCKED: REMARK    2  A    between atoms: P_2  and  O_4 
DOCKED: REMARK    3  A    between atoms: O_3  and  C_13 
DOCKED: REMARK    4  A    between atoms: O_4  and  C_14 
DOCKED: REMARK    5  A    between atoms: C_13  and  C_14 
DOCKED: REMARK    6  A    between atoms: C_13  and  C_15 
DOCKED: USER                              x       y       z     vdW  Elec       q    Type
DOCKED: USER                           _______ _______ _______ _____ _____    ______ ____
DOCKED: ROOT
DOCKED: ATOM      1  C   UNL d   1      -2.800   1.309 -16.311 -0.23 +0.31    +0.193 C 
DOCKED: ENDROOT
DOCKED: BRANCH   1   2
DOCKED: ATOM      2  O   UNL d   1      -2.296   1.554 -17.667 -0.08 -0.59    -0.356 OA
DOCKED: BRANCH   2   3
DOCKED: ATOM      3  P   UNL d   1      -2.919   0.830 -19.006 -0.12 -0.03    -0.014 P 
DOCKED: ATOM      4  O   UNL d   1      -1.687   0.395 -19.815 -0.27 -0.94    -0.577 OA
DOCKED: ATOM      5  O   UNL d   1      -3.737   1.883 -19.751 -0.04 -0.81    -0.577 OA
DOCKED: ATOM      6  O   UNL d   1      -3.743  -0.371 -18.552 -0.44 -1.60    -0.638 OA
DOCKED: ENDBRANCH   2   3
DOCKED: ENDBRANCH   1   2
DOCKED: BRANCH   1   7
DOCKED: ATOM      7  C   UNL d   1      -3.386   2.653 -15.741 -0.21 +0.20    +0.201 C 
DOCKED: BRANCH   7   8
DOCKED: ATOM      8  O   UNL d   1      -4.015   3.526 -16.705 -0.17 -0.42    -0.364 OA
DOCKED: BRANCH   8   9
DOCKED: ATOM      9  P   UNL d   1      -5.368   4.383 -16.290 -0.42 -0.01    -0.015 P 
DOCKED: ATOM     10  O   UNL d   1      -4.850   5.762 -15.862 -0.02 -0.22    -0.577 OA
DOCKED: ATOM     11  O   UNL d   1      -6.031   3.638 -15.132 -0.18 -0.45    -0.577 OA
DOCKED: ATOM     12  O   UNL d   1      -6.251   4.463 -17.534 -0.13 -0.99    -0.638 OA
DOCKED: ENDBRANCH   8   9
DOCKED: ENDBRANCH   7   8
DOCKED: ENDBRANCH   1   7
DOCKED: BRANCH   1  13
DOCKED: ATOM     13  C   UNL d   1      -1.626   0.835 -15.376 -0.33 +0.11    +0.073 C 
DOCKED: ATOM     14  O   UNL d   1      -1.649  -0.364 -14.926 -0.69 -1.04    -0.547 OA
DOCKED: ATOM     15  O   UNL d   1      -0.671   1.669 -15.170 -0.50 -0.61    -0.547 OA
DOCKED: ENDBRANCH   1  13
DOCKED: TORSDOF 6
DOCKED: TER
DOCKED: ENDMDL
________________________________________________________________________________


	BEGINNING GENETIC ALGORITHM DOCKING 99 of 100
Run: 99 Seed: 1855736218 1979549357 [ Run 99 of 100 GA/GALS ]
Beginning LAMARCKIAN GENETIC ALGORITHM (LGA), with a maximum of 25000000 energy evaluations.

Final-Value: -9.389


	FINAL GENETIC ALGORITHM DOCKED STATE
	_______________________________________________


Detailed state:  trans -4.909 -1.686 -18.708 quatxyzw 0.029331 -0.337319 -0.740878 -0.580047 center 0.015 0.083 0.031 ntor 6 30.1586 -131.1209 67.6738 16.8162 -62.8199 -102.6081
State:	 -4.909  -1.686 -18.708   0.036 -0.414 -0.910 -109.092     30.16 -131.12   67.67   16.82  -62.82 -102.61

DOCKED: MODEL       99
DOCKED: USER    Run = 99
DOCKED: USER    DPF = D:/Protein_go_brrr/autodock/final/mut_D99N/2_3_BPG/dock.dpf
DOCKED: USER  
DOCKED: USER    Estimated Free Energy of Binding    =   -9.78 kcal/mol  [=(1)+(2)+(3)-(4)]
DOCKED: USER    Estimated Inhibition Constant, Ki   =   68.02 nM (nanomolar)  [Temperature = 298.15 K]
DOCKED: USER    
DOCKED: USER    (1) Final Intermolecular Energy     =  -11.57 kcal/mol
DOCKED: USER        vdW + Hbond + desolv Energy     =   -4.61 kcal/mol
DOCKED: USER        Electrostatic Energy            =   -6.95 kcal/mol
DOCKED: USER    (2) Final Total Internal Energy     =   +2.18 kcal/mol
DOCKED: USER    (3) Torsional Free Energy           =   +1.79 kcal/mol
DOCKED: USER    (4) Unbound System's Energy  [=(2)] =   +2.18 kcal/mol
DOCKED: USER    
DOCKED: USER    
DOCKED: USER    NEWDPF move 2_3_BPG_opt.pdbqt
DOCKED: USER    NEWDPF about 0.015000 0.083000 0.031000
DOCKED: USER    NEWDPF tran0 -4.908761 -1.686230 -18.708300
DOCKED: USER    NEWDPF quaternion0 0.029331 -0.337319 -0.740878 -0.580047
DOCKED: USER    NEWDPF axisangle0 0.036007 -0.414100 -0.909519 -109.092237
DOCKED: USER    NEWDPF quat0 0.036007 -0.414100 -0.909519 -109.092237
DOCKED: USER    NEWDPF dihe0 30.16 -131.12 67.67 16.82 -62.82 -102.61 
DOCKED: USER  keepresnum = 1 
DOCKED: USER  
DOCKED: REMARK  6 active torsions:
DOCKED: REMARK  status: ('A' for Active; 'I' for Inactive)
DOCKED: REMARK    1  A    between atoms: P_1  and  O_3 
DOCKED: REMARK    2  A    between atoms: P_2  and  O_4 
DOCKED: REMARK    3  A    between atoms: O_3  and  C_13 
DOCKED: REMARK    4  A    between atoms: O_4  and  C_14 
DOCKED: REMARK    5  A    between atoms: C_13  and  C_14 
DOCKED: REMARK    6  A    between atoms: C_13  and  C_15 
DOCKED: USER                              x       y       z     vdW  Elec       q    Type
DOCKED: USER                           _______ _______ _______ _____ _____    ______ ____
DOCKED: ROOT
DOCKED: ATOM      1  C   UNL d   1      -5.021  -1.097 -19.007 -0.05 +0.31    +0.193 C 
DOCKED: ENDROOT
DOCKED: BRANCH   1   2
DOCKED: ATOM      2  O   UNL d   1      -3.729  -0.552 -19.442 -0.58 -0.66    -0.356 OA
DOCKED: BRANCH   2   3
DOCKED: ATOM      3  P   UNL d   1      -3.085   0.835 -18.839 -0.10 -0.03    -0.014 P 
DOCKED: ATOM      4  O   UNL d   1      -3.290   0.724 -17.320 +0.02 -1.28    -0.577 OA
DOCKED: ATOM      5  O   UNL d   1      -3.881   1.998 -19.429 -0.06 -0.93    -0.577 OA
DOCKED: ATOM      6  O   UNL d   1      -1.605   0.865 -19.203 -0.24 -1.12    -0.638 OA
DOCKED: ENDBRANCH   2   3
DOCKED: ENDBRANCH   1   2
DOCKED: BRANCH   1   7
DOCKED: ATOM      7  C   UNL d   1      -4.816  -2.594 -18.572 -0.25 +0.24    +0.201 C 
DOCKED: BRANCH   7   8
DOCKED: ATOM      8  O   UNL d   1      -3.837  -2.822 -17.534 -0.22 -0.66    -0.364 OA
DOCKED: BRANCH   8   9
DOCKED: ATOM      9  P   UNL d   1      -4.287  -3.530 -16.109 -0.76 -0.02    -0.015 P 
DOCKED: ATOM     10  O   UNL d   1      -4.192  -2.414 -15.061 -0.29 -0.66    -0.577 OA
DOCKED: ATOM     11  O   UNL d   1      -3.290  -4.655 -15.836 -0.68 -0.45    -0.577 OA
DOCKED: ATOM     12  O   UNL d   1      -5.720  -4.030 -16.286 -0.71 -0.49    -0.638 OA
DOCKED: ENDBRANCH   8   9
DOCKED: ENDBRANCH   7   8
DOCKED: ENDBRANCH   1   7
DOCKED: BRANCH   1  13
DOCKED: ATOM     13  C   UNL d   1      -6.052  -1.053 -20.195 -0.14 +0.08    +0.073 C 
DOCKED: ATOM     14  O   UNL d   1      -6.045  -2.010 -21.047 +0.00 -0.34    -0.547 OA
DOCKED: ATOM     15  O   UNL d   1      -6.891  -0.081 -20.203 -0.56 -0.94    -0.547 OA
DOCKED: ENDBRANCH   1  13
DOCKED: TORSDOF 6
DOCKED: TER
DOCKED: ENDMDL
________________________________________________________________________________


	BEGINNING GENETIC ALGORITHM DOCKING 100 of 100
Run: 100 Seed: 1650657386 759909081 [ Run 100 of 100 GA/GALS ]
Beginning LAMARCKIAN GENETIC ALGORITHM (LGA), with a maximum of 25000000 energy evaluations.

Final-Value: -8.683


	FINAL GENETIC ALGORITHM DOCKED STATE
	_______________________________________________


Detailed state:  trans -2.406 2.232 -17.338 quatxyzw -0.487279 0.529055 0.120848 -0.684146 center 0.015 0.083 0.031 ntor 6 171.1992 125.8785 44.3392 62.0469 37.7606 179.8074
State:	 -2.406   2.232 -17.338  -0.668  0.725  0.166 -93.663    171.20  125.88   44.34   62.05   37.76  179.81

DOCKED: MODEL      100
DOCKED: USER    Run = 100
DOCKED: USER    DPF = D:/Protein_go_brrr/autodock/final/mut_D99N/2_3_BPG/dock.dpf
DOCKED: USER  
DOCKED: USER    Estimated Free Energy of Binding    =   -9.26 kcal/mol  [=(1)+(2)+(3)-(4)]
DOCKED: USER    Estimated Inhibition Constant, Ki   =  163.90 nM (nanomolar)  [Temperature = 298.15 K]
DOCKED: USER    
DOCKED: USER    (1) Final Intermolecular Energy     =  -11.05 kcal/mol
DOCKED: USER        vdW + Hbond + desolv Energy     =   -3.75 kcal/mol
DOCKED: USER        Electrostatic Energy            =   -7.30 kcal/mol
DOCKED: USER    (2) Final Total Internal Energy     =   +2.36 kcal/mol
DOCKED: USER    (3) Torsional Free Energy           =   +1.79 kcal/mol
DOCKED: USER    (4) Unbound System's Energy  [=(2)] =   +2.36 kcal/mol
DOCKED: USER    
DOCKED: USER    
DOCKED: USER    NEWDPF move 2_3_BPG_opt.pdbqt
DOCKED: USER    NEWDPF about 0.015000 0.083000 0.031000
DOCKED: USER    NEWDPF tran0 -2.406315 2.232072 -17.337787
DOCKED: USER    NEWDPF quaternion0 -0.487279 0.529055 0.120848 -0.684146
DOCKED: USER    NEWDPF axisangle0 -0.668105 0.725383 0.165695 -93.663017
DOCKED: USER    NEWDPF quat0 -0.668105 0.725383 0.165695 -93.663017
DOCKED: USER    NEWDPF dihe0 171.20 125.88 44.34 62.05 37.76 179.81 
DOCKED: USER  keepresnum = 1 
DOCKED: USER  
DOCKED: REMARK  6 active torsions:
DOCKED: REMARK  status: ('A' for Active; 'I' for Inactive)
DOCKED: REMARK    1  A    between atoms: P_1  and  O_3 
DOCKED: REMARK    2  A    between atoms: P_2  and  O_4 
DOCKED: REMARK    3  A    between atoms: O_3  and  C_13 
DOCKED: REMARK    4  A    between atoms: O_4  and  C_14 
DOCKED: REMARK    5  A    between atoms: C_13  and  C_14 
DOCKED: REMARK    6  A    between atoms: C_13  and  C_15 
DOCKED: USER                              x       y       z     vdW  Elec       q    Type
DOCKED: USER                           _______ _______ _______ _____ _____    ______ ____
DOCKED: ROOT
DOCKED: ATOM      1  C   UNL d   1      -2.378   2.356 -16.680 -0.19 +0.22    +0.193 C 
DOCKED: ENDROOT
DOCKED: BRANCH   1   2
DOCKED: ATOM      2  O   UNL d   1      -3.743   2.609 -16.204 -0.13 -0.43    -0.356 OA
DOCKED: BRANCH   2   3
DOCKED: ATOM      3  P   UNL d   1      -4.596   3.962 -16.585 -0.26 -0.02    -0.014 P 
DOCKED: ATOM      4  O   UNL d   1      -3.725   5.121 -16.076 -0.00 -0.28    -0.577 OA
DOCKED: ATOM      5  O   UNL d   1      -5.924   3.886 -15.835 -0.17 -0.61    -0.577 OA
DOCKED: ATOM      6  O   UNL d   1      -4.756   4.007 -18.101 -0.47 -1.09    -0.638 OA
DOCKED: ENDBRANCH   2   3
DOCKED: ENDBRANCH   1   2
DOCKED: BRANCH   1   7
DOCKED: ATOM      7  C   UNL d   1      -2.452   1.781 -18.142 -0.13 +0.30    +0.201 C 
DOCKED: BRANCH   7   8
DOCKED: ATOM      8  O   UNL d   1      -3.715   1.194 -18.526 -0.06 -0.71    -0.364 OA
DOCKED: BRANCH   8   9
DOCKED: ATOM      9  P   UNL d   1      -3.746  -0.202 -19.413 -0.13 -0.03    -0.015 P 
DOCKED: ATOM     10  O   UNL d   1      -4.764   0.058 -20.530 -0.07 -0.73    -0.577 OA
DOCKED: ATOM     11  O   UNL d   1      -4.201  -1.318 -18.473 -0.64 -1.23    -0.577 OA
DOCKED: ATOM     12  O   UNL d   1      -2.336  -0.419 -19.961 -0.12 -1.16    -0.638 OA
DOCKED: ENDBRANCH   8   9
DOCKED: ENDBRANCH   7   8
DOCKED: ENDBRANCH   1   7
DOCKED: BRANCH   1  13
DOCKED: ATOM     13  C   UNL d   1      -1.672   1.296 -15.756 -0.33 +0.10    +0.073 C 
DOCKED: ATOM     14  O   UNL d   1      -0.468   1.518 -15.378 -0.60 -0.61    -0.547 OA
DOCKED: ATOM     15  O   UNL d   1      -2.376   0.290 -15.380 -0.45 -1.02    -0.547 OA
DOCKED: ENDBRANCH   1  13
DOCKED: TORSDOF 6
DOCKED: TER
DOCKED: ENDMDL
________________________________________________________________________________

DPF> analysis                             # perform a ranked cluster analysis


		CLUSTER ANALYSIS OF CONFORMATIONS
		_________________________________

Number of conformations = 100

RMSD cluster analysis will be performed using the ligand atoms only (15 / 15 total atoms).

Outputting structurally similar clusters, ranked in order of increasing energy.


________________________________________________________________________________

Number of distinct conformational clusters found = 6,  out of 100 runs,
Using an rmsd-tolerance of 2.0 A


	CLUSTERING HISTOGRAM
	____________________

________________________________________________________________________________
     |           |     |           |     |                                    
Clus | Lowest    | Run | Mean      | Num | Histogram                          
-ter | Binding   |     | Binding   | in  |                                    
Rank | Energy    |     | Energy    | Clus|    5    10   15   20   25   30   35
_____|___________|_____|___________|_____|____:____|____:____|____:____|____:___
   1 |    -10.30 |  88 |     -9.58 |  24 |########################
   2 |     -9.74 |  16 |     -9.19 |  52 |####################################################
   3 |     -9.43 |  96 |     -9.01 |  10 |##########
   4 |     -9.36 |  26 |     -9.00 |  11 |###########
   5 |     -8.85 |   4 |     -8.85 |   1 |#
   6 |     -8.70 |  15 |     -8.69 |   2 |##
_____|___________|_____|___________|_____|______________________________________


Number of multi-member conformational clusters found = 5, out of 100 runs.

	RMSD TABLE
	__________

_____________________________________________________________________
     |      |      |           |         |                 |
Rank | Sub- | Run  | Binding   | Cluster | Reference       | Grep
     | Rank |      | Energy    | RMSD    | RMSD            | Pattern
_____|______|______|___________|_________|_________________|___________
   1      1     88      -10.30      0.00     16.38           RANKING
   1      2     22      -10.16      0.20     16.37           RANKING
   1      3     28      -10.07      0.68     16.29           RANKING
   1      4     67       -9.96      0.59     16.37           RANKING
   1      5     58       -9.86      0.77     16.70           RANKING
   1      6     99       -9.78      1.87     17.83           RANKING
   1      7     42       -9.77      1.85     17.85           RANKING
   1      8      1       -9.71      0.73     16.30           RANKING
   1      9     21       -9.70      1.87     17.86           RANKING
   1     10     27       -9.65      1.81     17.84           RANKING
   1     11      9       -9.60      0.78     16.66           RANKING
   1     12     41       -9.60      0.70     16.53           RANKING
   1     13     84       -9.56      1.21     16.57           RANKING
   1     14     12       -9.56      1.82     17.68           RANKING
   1     15      6       -9.53      0.70     16.65           RANKING
   1     16     45       -9.50      1.88     17.90           RANKING
   1     17     79       -9.49      1.11     16.57           RANKING
   1     18     46       -9.45      1.87     17.93           RANKING
   1     19     23       -9.32      1.86     17.85           RANKING
   1     20     90       -9.31      0.88     16.43           RANKING
   1     21     63       -9.28      0.99     16.70           RANKING
   1     22     20       -9.27      1.37     16.66           RANKING
   1     23     76       -8.91      1.24     16.56           RANKING
   1     24     70       -8.50      1.87     17.68           RANKING
   2      1     16       -9.74      0.00     16.62           RANKING
   2      2     47       -9.68      1.64     16.61           RANKING
   2      3     14       -9.61      0.23     16.57           RANKING
   2      4      2       -9.57      0.24     16.54           RANKING
   2      5     51       -9.55      0.30     16.51           RANKING
   2      6     54       -9.54      0.32     16.66           RANKING
   2      7     56       -9.50      0.34     16.61           RANKING
   2      8     74       -9.48      1.65     16.75           RANKING
   2      9     25       -9.44      0.29     16.63           RANKING
   2     10     89       -9.44      1.74     16.69           RANKING
   2     11     91       -9.42      0.27     16.54           RANKING
   2     12     82       -9.41      1.82     15.93           RANKING
   2     13     17       -9.41      1.70     16.81           RANKING
   2     14     93       -9.39      1.18     16.84           RANKING
   2     15     60       -9.37      1.05     16.62           RANKING
   2     16     71       -9.36      1.81     16.81           RANKING
   2     17     30       -9.35      1.86     17.03           RANKING
   2     18     11       -9.35      0.34     16.49           RANKING
   2     19     10       -9.34      1.97     17.26           RANKING
   2     20     31       -9.26      1.14     16.90           RANKING
   2     21    100       -9.26      1.10     16.91           RANKING
   2     22      3       -9.25      1.11     16.90           RANKING
   2     23     94       -9.24      1.11     16.55           RANKING
   2     24      7       -9.23      0.72     16.24           RANKING
   2     25     55       -9.22      0.77     16.36           RANKING
   2     26     33       -9.21      1.10     16.40           RANKING
   2     27     81       -9.20      1.21     16.94           RANKING
   2     28     52       -9.20      1.90     17.08           RANKING
   2     29     92       -9.20      1.86     16.60           RANKING
   2     30     24       -9.20      1.15     16.42           RANKING
   2     31     48       -9.14      1.14     16.60           RANKING
   2     32     34       -9.14      1.93     17.01           RANKING
   2     33     98       -9.12      0.70     16.49           RANKING
   2     34     32       -9.12      1.20     16.66           RANKING
   2     35     72       -9.11      1.83     16.35           RANKING
   2     36     38       -9.10      1.63     15.61           RANKING
   2     37     59       -9.08      1.16     16.95           RANKING
   2     38      5       -9.06      1.24     16.80           RANKING
   2     39     36       -9.02      1.17     16.75           RANKING
   2     40     49       -8.98      1.79     17.10           RANKING
   2     41     68       -8.96      0.75     17.04           RANKING
   2     42     65       -8.93      1.76     16.75           RANKING
   2     43     35       -8.91      1.68     16.73           RANKING
   2     44     53       -8.88      1.76     16.71           RANKING
   2     45     64       -8.86      1.22     16.60           RANKING
   2     46     73       -8.81      1.76     16.85           RANKING
   2     47     50       -8.80      1.78     15.19           RANKING
   2     48     86       -8.76      1.88     16.52           RANKING
   2     49     57       -8.74      1.57     15.98           RANKING
   2     50     83       -8.70      1.67     16.36           RANKING
   2     51     66       -8.65      1.14     16.74           RANKING
   2     52     61       -8.55      1.05     16.77           RANKING
   3      1     96       -9.43      0.00     18.19           RANKING
   3      2     13       -9.21      0.55     18.41           RANKING
   3      3     97       -9.11      0.61     18.43           RANKING
   3      4     87       -9.03      0.53     18.39           RANKING
   3      5     37       -8.94      1.73     17.79           RANKING
   3      6     39       -8.92      0.57     18.40           RANKING
   3      7      8       -8.91      1.93     17.89           RANKING
   3      8     43       -8.88      0.61     18.37           RANKING
   3      9     62       -8.87      0.57     18.35           RANKING
   3     10     85       -8.81      0.81     18.47           RANKING
   4      1     26       -9.36      0.00     17.67           RANKING
   4      2     80       -9.34      0.33     17.65           RANKING
   4      3     75       -9.34      0.47     17.63           RANKING
   4      4     77       -9.15      1.05     17.51           RANKING
   4      5     29       -9.09      1.42     17.47           RANKING
   4      6     44       -9.02      1.09     17.41           RANKING
   4      7     18       -8.99      1.13     17.20           RANKING
   4      8     19       -8.85      1.23     17.28           RANKING
   4      9     95       -8.79      0.82     17.90           RANKING
   4     10     40       -8.69      1.28     16.99           RANKING
   4     11     78       -8.42      1.30     17.71           RANKING
   5      1      4       -8.85      0.00     17.17           RANKING
   6      1     15       -8.70      0.00     18.02           RANKING
   6      2     69       -8.68      1.07     18.09           RANKING
_______________________________________________________________________



	INFORMATION ENTROPY ANALYSIS FOR THIS CLUSTERING
	________________________________________________


Information entropy for this clustering = 0.28  (rmstol = 2.00 Angstrom)

_______________________________________________________________________


	STATISTICAL MECHANICAL ANALYSIS
	_______________________________


Partition function, Q =   101.57            at Temperature, T = 298.15 K
Free energy,        A ~ -2737.71 kcal/mol   at Temperature, T = 298.15 K
Internal energy,    U =    -9.23 kcal/mol   at Temperature, T = 298.15 K
Entropy,            S =     9.15 kcal/mol/K at Temperature, T = 298.15 K

_______________________________________________________________________


	LOWEST ENERGY DOCKED CONFORMATION from EACH CLUSTER
	___________________________________________________



Keeping original residue number (specified in the input PDBQ file) for outputting.

MODEL       88
USER    Run = 88
USER    Cluster Rank = 1
USER    Number of conformations in this cluster = 24
USER  
USER    RMSD from reference structure       = 16.383 A
USER  
USER    Estimated Free Energy of Binding    =  -10.30 kcal/mol  [=(1)+(2)+(3)-(4)]
USER    Estimated Inhibition Constant, Ki   =   27.95 nM (nanomolar)  [Temperature = 298.15 K]
USER    
USER    (1) Final Intermolecular Energy     =  -12.09 kcal/mol
USER        vdW + Hbond + desolv Energy     =   -5.35 kcal/mol
USER        Electrostatic Energy            =   -6.74 kcal/mol
USER    (2) Final Total Internal Energy     =   +2.37 kcal/mol
USER    (3) Torsional Free Energy           =   +1.79 kcal/mol
USER    (4) Unbound System's Energy  [=(2)] =   +2.37 kcal/mol
USER    
USER    
USER  
USER    DPF = D:/Protein_go_brrr/autodock/final/mut_D99N/2_3_BPG/dock.dpf
USER    NEWDPF move	2_3_BPG_opt.pdbqt
USER    NEWDPF about	0.015000 0.083000 0.031000
USER    NEWDPF tran0	-4.026584 -2.225315 -16.789116
USER    NEWDPF axisangle0	-0.054871 -0.997541 0.043611 113.822014
USER    NEWDPF quaternion0	-0.045972 -0.835763 0.036538 0.545941
USER    NEWDPF dihe0	-156.90 113.55 -2.30 57.55 43.91 -17.35 
USER  
USER                              x       y       z    vdW   Elec        q     RMS 
ATOM      1  C   UNL d   1      -3.744  -2.567 -16.286 -0.10 +0.33    +0.193    16.383
ATOM      2  O   UNL d   1      -3.816  -1.742 -15.075 -0.37 -0.47    -0.356    16.383
ATOM      3  P   UNL d   1      -2.849  -0.438 -14.813 -0.58 -0.02    -0.014    16.383
ATOM      4  O   UNL d   1      -1.455  -1.037 -14.571 -0.62 -0.93    -0.577    16.383
ATOM      5  O   UNL d   1      -3.378   0.275 -13.570 -0.09 -0.37    -0.577    16.383
ATOM      6  O   UNL d   1      -2.876   0.429 -16.068 -0.04 -1.33    -0.638    16.383
ATOM      7  C   UNL d   1      -4.650  -1.916 -17.395 -0.12 +0.34    +0.201    16.383
ATOM      8  O   UNL d   1      -4.138  -1.979 -18.745 -0.65 -0.66    -0.364    16.383
ATOM      9  P   UNL d   1      -4.152  -0.629 -19.701 -0.24 -0.02    -0.015    16.383
ATOM     10  O   UNL d   1      -3.538  -1.078 -21.033 -0.04 -0.54    -0.577    16.383
ATOM     11  O   UNL d   1      -3.290   0.422 -19.002 -0.24 -1.16    -0.577    16.383
ATOM     12  O   UNL d   1      -5.610  -0.201 -19.856 -0.22 -1.12    -0.638    16.383
ATOM     13  C   UNL d   1      -4.280  -4.016 -15.984 -0.58 +0.07    +0.073    16.383
ATOM     14  O   UNL d   1      -3.430  -4.963 -15.835 -0.71 -0.36    -0.547    16.383
ATOM     15  O   UNL d   1      -5.549  -4.150 -15.842 -0.76 -0.48    -0.547    16.383
TER
ENDMDL
MODEL       16
USER    Run = 16
USER    Cluster Rank = 2
USER    Number of conformations in this cluster = 52
USER  
USER    RMSD from reference structure       = 16.618 A
USER  
USER    Estimated Free Energy of Binding    =   -9.74 kcal/mol  [=(1)+(2)+(3)-(4)]
USER    Estimated Inhibition Constant, Ki   =   72.52 nM (nanomolar)  [Temperature = 298.15 K]
USER    
USER    (1) Final Intermolecular Energy     =  -11.53 kcal/mol
USER        vdW + Hbond + desolv Energy     =   -4.07 kcal/mol
USER        Electrostatic Energy            =   -7.46 kcal/mol
USER    (2) Final Total Internal Energy     =   +2.42 kcal/mol
USER    (3) Torsional Free Energy           =   +1.79 kcal/mol
USER    (4) Unbound System's Energy  [=(2)] =   +2.42 kcal/mol
USER    
USER    
USER  
USER    DPF = D:/Protein_go_brrr/autodock/final/mut_D99N/2_3_BPG/dock.dpf
USER    NEWDPF move	2_3_BPG_opt.pdbqt
USER    NEWDPF about	0.015000 0.083000 0.031000
USER    NEWDPF tran0	-3.034569 2.069224 -16.227108
USER    NEWDPF axisangle0	-0.098416 -0.797599 0.595105 -108.062587
USER    NEWDPF quaternion0	-0.079651 -0.645527 0.481641 -0.587343
USER    NEWDPF dihe0	-166.67 40.44 129.13 19.58 55.67 -53.51 
USER  
USER                              x       y       z    vdW   Elec        q     RMS 
ATOM      1  C   UNL d   1      -2.794   1.465 -16.389 -0.22 +0.30    +0.193    16.618
ATOM      2  O   UNL d   1      -2.314   1.520 -17.774 -0.08 -0.59    -0.356    16.618
ATOM      3  P   UNL d   1      -3.022   0.695 -19.009 -0.00 -0.03    -0.014    16.618
ATOM      4  O   UNL d   1      -1.849   0.263 -19.903 -0.23 -0.93    -0.577    16.618
ATOM      5  O   UNL d   1      -3.949   1.670 -19.731 -0.02 -0.89    -0.577    16.618
ATOM      6  O   UNL d   1      -3.747  -0.508 -18.416 -0.36 -1.70    -0.638    16.618
ATOM      7  C   UNL d   1      -3.090   2.930 -15.898 -0.20 +0.19    +0.201    16.618
ATOM      8  O   UNL d   1      -4.485   3.290 -15.794 -0.18 -0.37    -0.364    16.618
ATOM      9  P   UNL d   1      -5.080   4.567 -16.662 -0.36 -0.01    -0.015    16.618
ATOM     10  O   UNL d   1      -4.096   5.715 -16.406 +0.02 -0.24    -0.577    16.618
ATOM     11  O   UNL d   1      -6.471   4.873 -16.107 -0.51 -0.49    -0.577    16.618
ATOM     12  O   UNL d   1      -5.101   4.144 -18.130 -0.38 -1.17    -0.638    16.618
ATOM     13  C   UNL d   1      -1.689   0.836 -15.460 -0.27 +0.12    +0.073    16.618
ATOM     14  O   UNL d   1      -1.917  -0.306 -14.926 -0.67 -1.01    -0.547    16.618
ATOM     15  O   UNL d   1      -0.587   1.484 -15.344 -0.59 -0.63    -0.547    16.618
TER
ENDMDL
MODEL       96
USER    Run = 96
USER    Cluster Rank = 3
USER    Number of conformations in this cluster = 10
USER  
USER    RMSD from reference structure       = 18.186 A
USER  
USER    Estimated Free Energy of Binding    =   -9.43 kcal/mol  [=(1)+(2)+(3)-(4)]
USER    Estimated Inhibition Constant, Ki   =  122.76 nM (nanomolar)  [Temperature = 298.15 K]
USER    
USER    (1) Final Intermolecular Energy     =  -11.22 kcal/mol
USER        vdW + Hbond + desolv Energy     =   -4.71 kcal/mol
USER        Electrostatic Energy            =   -6.50 kcal/mol
USER    (2) Final Total Internal Energy     =   +2.41 kcal/mol
USER    (3) Torsional Free Energy           =   +1.79 kcal/mol
USER    (4) Unbound System's Energy  [=(2)] =   +2.41 kcal/mol
USER    
USER    
USER  
USER    DPF = D:/Protein_go_brrr/autodock/final/mut_D99N/2_3_BPG/dock.dpf
USER    NEWDPF move	2_3_BPG_opt.pdbqt
USER    NEWDPF about	0.015000 0.083000 0.031000
USER    NEWDPF tran0	-5.070191 -2.761848 -19.161437
USER    NEWDPF axisangle0	0.851725 -0.506797 0.133119 -158.425035
USER    NEWDPF quaternion0	0.836674 -0.497841 0.130767 -0.187167
USER    NEWDPF dihe0	-12.93 3.48 179.30 -15.31 -42.85 93.32 
USER  
USER                              x       y       z    vdW   Elec        q     RMS 
ATOM      1  C   UNL d   1      -5.067  -2.208 -19.539 -0.20 +0.20    +0.193    18.186
ATOM      2  O   UNL d   1      -6.286  -1.446 -19.243 -0.09 -0.43    -0.356    18.186
ATOM      3  P   UNL d   1      -7.070  -0.527 -20.358 -0.09 -0.02    -0.014    18.186
ATOM      4  O   UNL d   1      -8.273   0.054 -19.599 -0.28 -0.86    -0.577    18.186
ATOM      5  O   UNL d   1      -7.513  -1.461 -21.483 +0.01 -0.30    -0.577    18.186
ATOM      6  O   UNL d   1      -6.116   0.570 -20.819 -0.47 -0.96    -0.638    18.186
ATOM      7  C   UNL d   1      -4.911  -3.348 -18.466 -0.29 +0.18    +0.201    18.186
ATOM      8  O   UNL d   1      -3.868  -3.151 -17.486 -0.22 -0.56    -0.364    18.186
ATOM      9  P   UNL d   1      -4.126  -3.564 -15.905 -0.78 -0.02    -0.015    18.186
ATOM     10  O   UNL d   1      -5.545  -4.145 -15.871 -0.74 -0.50    -0.577    18.186
ATOM     11  O   UNL d   1      -4.016  -2.279 -15.085 -0.23 -0.69    -0.577    18.186
ATOM     12  O   UNL d   1      -3.071  -4.604 -15.531 -0.66 -0.51    -0.638    18.186
ATOM     13  C   UNL d   1      -3.809  -1.265 -19.461 -0.06 +0.13    +0.073    18.186
ATOM     14  O   UNL d   1      -3.751  -0.400 -18.518 -0.46 -1.39    -0.547    18.186
ATOM     15  O   UNL d   1      -2.877  -1.466 -20.321 -0.15 -0.77    -0.547    18.186
TER
ENDMDL
MODEL       26
USER    Run = 26
USER    Cluster Rank = 4
USER    Number of conformations in this cluster = 11
USER  
USER    RMSD from reference structure       = 17.667 A
USER  
USER    Estimated Free Energy of Binding    =   -9.36 kcal/mol  [=(1)+(2)+(3)-(4)]
USER    Estimated Inhibition Constant, Ki   =  136.64 nM (nanomolar)  [Temperature = 298.15 K]
USER    
USER    (1) Final Intermolecular Energy     =  -11.15 kcal/mol
USER        vdW + Hbond + desolv Energy     =   -3.22 kcal/mol
USER        Electrostatic Energy            =   -7.93 kcal/mol
USER    (2) Final Total Internal Energy     =   +2.39 kcal/mol
USER    (3) Torsional Free Energy           =   +1.79 kcal/mol
USER    (4) Unbound System's Energy  [=(2)] =   +2.39 kcal/mol
USER    
USER    
USER  
USER    DPF = D:/Protein_go_brrr/autodock/final/mut_D99N/2_3_BPG/dock.dpf
USER    NEWDPF move	2_3_BPG_opt.pdbqt
USER    NEWDPF about	0.015000 0.083000 0.031000
USER    NEWDPF tran0	-2.283339 2.070254 -18.854616
USER    NEWDPF axisangle0	0.953785 0.225481 0.198628 -156.725785
USER    NEWDPF quaternion0	0.934179 0.220847 0.194545 -0.201712
USER    NEWDPF dihe0	158.32 -34.80 179.44 12.02 54.40 -117.96 
USER  
USER                              x       y       z    vdW   Elec        q     RMS 
ATOM      1  C   UNL d   1      -2.830   2.012 -19.238 -0.09 +0.24    +0.193    17.667
ATOM      2  O   UNL d   1      -3.722   1.028 -18.615 -0.09 -0.70    -0.356    17.667
ATOM      3  P   UNL d   1      -4.203  -0.356 -19.362 -0.17 -0.02    -0.014    17.667
ATOM      4  O   UNL d   1      -4.197  -1.415 -18.249 -0.61 -1.28    -0.577    17.667
ATOM      5  O   UNL d   1      -3.170  -0.670 -20.442 -0.10 -0.74    -0.577    17.667
ATOM      6  O   UNL d   1      -5.608  -0.131 -19.912 -0.26 -1.13    -0.638    17.667
ATOM      7  C   UNL d   1      -1.690   2.377 -18.217 -0.09 +0.21    +0.201    17.667
ATOM      8  O   UNL d   1      -1.134   1.272 -17.471 -0.10 -0.65    -0.364    17.667
ATOM      9  P   UNL d   1      -1.164   1.289 -15.817 -0.38 -0.02    -0.015    17.667
ATOM     10  O   UNL d   1      -1.884   2.591 -15.445 +0.11 -0.54    -0.577    17.667
ATOM     11  O   UNL d   1       0.289   1.285 -15.344 -0.68 -0.56    -0.577    17.667
ATOM     12  O   UNL d   1      -1.943   0.054 -15.368 -0.26 -1.42    -0.638    17.667
ATOM     13  C   UNL d   1      -3.631   3.320 -19.590 -0.06 +0.08    +0.073    17.667
ATOM     14  O   UNL d   1      -3.276   3.997 -20.618 +0.01 -0.32    -0.547    17.667
ATOM     15  O   UNL d   1      -4.644   3.599 -18.852 -0.43 -1.07    -0.547    17.667
TER
ENDMDL
MODEL        4
USER    Run = 4
USER    Cluster Rank = 5
USER    Number of conformations in this cluster = 1
USER  
USER    RMSD from reference structure       = 17.171 A
USER  
USER    Estimated Free Energy of Binding    =   -8.85 kcal/mol  [=(1)+(2)+(3)-(4)]
USER    Estimated Inhibition Constant, Ki   =  325.06 nM (nanomolar)  [Temperature = 298.15 K]
USER    
USER    (1) Final Intermolecular Energy     =  -10.64 kcal/mol
USER        vdW + Hbond + desolv Energy     =   -3.65 kcal/mol
USER        Electrostatic Energy            =   -6.99 kcal/mol
USER    (2) Final Total Internal Energy     =   +2.53 kcal/mol
USER    (3) Torsional Free Energy           =   +1.79 kcal/mol
USER    (4) Unbound System's Energy  [=(2)] =   +2.53 kcal/mol
USER    
USER    
USER  
USER    DPF = D:/Protein_go_brrr/autodock/final/mut_D99N/2_3_BPG/dock.dpf
USER    NEWDPF move	2_3_BPG_opt.pdbqt
USER    NEWDPF about	0.015000 0.083000 0.031000
USER    NEWDPF tran0	-0.097672 1.593924 -18.075520
USER    NEWDPF axisangle0	0.049207 -0.701017 -0.711445 127.842151
USER    NEWDPF quaternion0	0.044197 -0.629646 -0.639012 0.439609
USER    NEWDPF dihe0	-178.78 -158.25 -55.45 76.04 -30.90 126.02 
USER  
USER                              x       y       z    vdW   Elec        q     RMS 
ATOM      1  C   UNL d   1       0.498   1.320 -17.938 -0.13 +0.19    +0.193    17.171
ATOM      2  O   UNL d   1       0.326   0.389 -16.817 +0.03 -0.53    -0.356    17.171
ATOM      3  P   UNL d   1      -0.303   0.833 -15.364 -0.47 -0.02    -0.014    17.171
ATOM      4  O   UNL d   1      -1.022   2.161 -15.647 -0.26 -0.59    -0.577    17.171
ATOM      5  O   UNL d   1       0.868   1.022 -14.402 -0.53 -0.43    -0.577    17.171
ATOM      6  O   UNL d   1      -1.282  -0.251 -14.924 -0.65 -1.15    -0.638    17.171
ATOM      7  C   UNL d   1      -0.922   1.748 -18.462 -0.10 +0.24    +0.201    17.171
ATOM      8  O   UNL d   1      -1.637   0.755 -19.230 -0.27 -0.67    -0.364    17.171
ATOM      9  P   UNL d   1      -3.291   0.755 -19.252 -0.19 -0.03    -0.015    17.171
ATOM     10  O   UNL d   1      -3.670   0.772 -20.737 -0.01 -0.61    -0.577    17.171
ATOM     11  O   UNL d   1      -3.746   2.025 -18.532 -0.08 -1.04    -0.577    17.171
ATOM     12  O   UNL d   1      -3.751  -0.525 -18.556 -0.47 -1.65    -0.638    17.171
ATOM     13  C   UNL d   1       1.276   0.614 -19.111 -0.13 +0.05    +0.073    17.171
ATOM     14  O   UNL d   1       2.342   1.167 -19.557 +0.00 -0.20    -0.547    17.171
ATOM     15  O   UNL d   1       0.824  -0.519 -19.510 -0.41 -0.55    -0.547    17.171
TER
ENDMDL
MODEL       15
USER    Run = 15
USER    Cluster Rank = 6
USER    Number of conformations in this cluster = 2
USER  
USER    RMSD from reference structure       = 18.018 A
USER  
USER    Estimated Free Energy of Binding    =   -8.70 kcal/mol  [=(1)+(2)+(3)-(4)]
USER    Estimated Inhibition Constant, Ki   =  421.50 nM (nanomolar)  [Temperature = 298.15 K]
USER    
USER    (1) Final Intermolecular Energy     =  -10.49 kcal/mol
USER        vdW + Hbond + desolv Energy     =   -3.32 kcal/mol
USER        Electrostatic Energy            =   -7.17 kcal/mol
USER    (2) Final Total Internal Energy     =   +2.27 kcal/mol
USER    (3) Torsional Free Energy           =   +1.79 kcal/mol
USER    (4) Unbound System's Energy  [=(2)] =   +2.27 kcal/mol
USER    
USER    
USER  
USER    DPF = D:/Protein_go_brrr/autodock/final/mut_D99N/2_3_BPG/dock.dpf
USER    NEWDPF move	2_3_BPG_opt.pdbqt
USER    NEWDPF about	0.015000 0.083000 0.031000
USER    NEWDPF tran0	-4.030847 -1.221013 -19.533222
USER    NEWDPF axisangle0	0.801972 0.577008 -0.154608 -114.210052
USER    NEWDPF quaternion0	0.673390 0.484495 -0.129819 -0.543101
USER    NEWDPF dihe0	14.26 -168.77 47.22 19.64 -41.35 -179.61 
USER  
USER                              x       y       z    vdW   Elec        q     RMS 
ATOM      1  C   UNL d   1      -4.537  -1.619 -19.346 -0.19 +0.27    +0.193    18.018
ATOM      2  O   UNL d   1      -4.651  -1.557 -17.885 -0.59 -0.65    -0.356    18.018
ATOM      3  P   UNL d   1      -4.325  -2.833 -16.899 -0.54 -0.02    -0.014    18.018
ATOM      4  O   UNL d   1      -3.741  -3.902 -17.836 -0.07 -0.64    -0.577    18.018
ATOM      5  O   UNL d   1      -5.651  -3.284 -16.289 -0.60 -0.56    -0.577    18.018
ATOM      6  O   UNL d   1      -3.303  -2.378 -15.863 +0.09 -1.18    -0.638    18.018
ATOM      7  C   UNL d   1      -3.560  -0.482 -19.825 -0.11 +0.33    +0.201    18.018
ATOM      8  O   UNL d   1      -3.358   0.607 -18.897 -0.24 -0.72    -0.364    18.018
ATOM      9  P   UNL d   1      -1.860   1.289 -18.732 -0.04 -0.02    -0.015    18.018
ATOM     10  O   UNL d   1      -1.603   1.325 -17.221 +0.01 -1.04    -0.577    18.018
ATOM     11  O   UNL d   1      -1.940   2.692 -19.331 +0.02 -0.48    -0.577    18.018
ATOM     12  O   UNL d   1      -0.869   0.383 -19.461 -0.49 -1.19    -0.638    18.018
ATOM     13  C   UNL d   1      -5.946  -1.385 -20.008 -0.16 +0.08    +0.073    18.018
ATOM     14  O   UNL d   1      -6.482  -0.225 -19.911 -0.43 -1.04    -0.547    18.018
ATOM     15  O   UNL d   1      -6.450  -2.364 -20.668 +0.01 -0.32    -0.547    18.018
TER
ENDMDL


AVSFLD: # AVS field file
AVSFLD: #
AVSFLD: # Created by AutoDock
AVSFLD: #
AVSFLD: ndim=2           # number of dimensions in the field
AVSFLD: nspace=1         # number of physical coordinates
AVSFLD: veclen=7         # vector size
AVSFLD: dim1=15          # atoms
AVSFLD: dim2=6           # conformations
AVSFLD: data=Real       # data type (byte,integer,Real,double)
AVSFLD: field=uniform    # field coordinate layout
AVSFLD: label= x y z vdW Elec q RMS
AVSFLD: variable 1 file = D:/Protein_go_brrr/autodock/final/mut_D99N/2_3_BPG/dock.dlg.pdb filetype = ascii offset = 5 stride = 12
AVSFLD: variable 2 file = D:/Protein_go_brrr/autodock/final/mut_D99N/2_3_BPG/dock.dlg.pdb filetype = ascii offset = 6 stride = 12
AVSFLD: variable 3 file = D:/Protein_go_brrr/autodock/final/mut_D99N/2_3_BPG/dock.dlg.pdb filetype = ascii offset = 7 stride = 12
AVSFLD: variable 4 file = D:/Protein_go_brrr/autodock/final/mut_D99N/2_3_BPG/dock.dlg.pdb filetype = ascii offset = 8 stride = 12
AVSFLD: variable 5 file = D:/Protein_go_brrr/autodock/final/mut_D99N/2_3_BPG/dock.dlg.pdb filetype = ascii offset = 9 stride = 12
AVSFLD: variable 6 file = D:/Protein_go_brrr/autodock/final/mut_D99N/2_3_BPG/dock.dlg.pdb filetype = ascii offset = 10 stride = 12
AVSFLD: variable 7 file = D:/Protein_go_brrr/autodock/final/mut_D99N/2_3_BPG/dock.dlg.pdb filetype = ascii offset = 11 stride = 12
AVSFLD: # end of file

>>> Closing the docking parameter file (DPF)...
This docking finished at:			4:19 00" a.m., 10/03/2025


________________________________________________________________________________

D:/autodockScripts/autodock4.exe: Successful Completion on "ACER"

Real= 10h 37m 40.75s,  CPU= 6m 03.74s,  System= 1m 15.55s
________________________________________________________________________________

