          AutoDock 4.2 Release 4.2.6   
         (C) 1989-2012 The Scripps Research Institute
        AutoDock comes with ABSOLUTELY NO WARRANTY.
        AutoDock is free software, and you are welcome
        to redistribute it under certain conditions;
        for details type 'autodock4 -C'

                     main.cc  $Revision: 1.213 $

                   Compiled on Jul 18 2014 at 15:34:58


This file was created at:			4:07 22" p.m., 09/29/2025
                   on host:		"ACER"
Current Working Directory = "D:\Protein_go_brrr\autodock\final\AncA\heme_Fe"

      ________________________________________________________________

                   SETTING UP DEFAULT PARAMETER LIBRARY
      ________________________________________________________________


Random number generator was seeded with values 106916, 1759154842.
Docking parameter file (DPF) used for this docking:		D:/Protein_go_brrr/autodock/final/AncA/heme_Fe/dock.dpf
DPF> autodock_parameter_version 4.2       # used by autodock to validate parameter set

	Autodock parameter version 4.2.
DPF> outlev 1                             # diagnostic output level

Output Level = 1  ADT-COMPATIBLE OUTPUT DURING DOCKING.
DPF> intelec                              # calculate internal electrostatics

Electrostatic energies will be calculated for all non-bonds between moving atoms.
DPF> seed pid time                        # seeds for random generator

Random number generator was seeded with values 106916, 1759154842.
DPF> ligand_types A C OA N Fe HD          # atoms types in ligand

DPF> fld opt_AncA.maps.fld                # grid_data_file

Opening Grid Map Dimensions file:		opt_AncA.maps.fld
Grid Point Spacing =				0.414 Angstroms

Even Number of User-specified Grid Points =	126 x-points
						126 y-points
						126 z-points

Coordinates of Central Grid Point of Maps =	(-0.462, -1.415, -1.889)
Macromolecule file used to create Grid Maps =	opt_AncA.pdbqt
Grid Parameter file used to create Grid Maps =	D:/Protein_go_brrr/autodock/final/AncA/heme_Fe/grid.gpf
Minimum coordinates in grid = (-26.544, -27.497, -27.971)
Maximum coordinates in grid = (25.620, 24.667, 24.193)

DPF> map opt_AncA.A.map                   # atom-specific affinity map

DPF> map opt_AncA.C.map                   # atom-specific affinity map

DPF> map opt_AncA.OA.map                  # atom-specific affinity map

DPF> map opt_AncA.N.map                   # atom-specific affinity map

DPF> map opt_AncA.Fe.map                  # atom-specific affinity map

DPF> map opt_AncA.HD.map                  # atom-specific affinity map

DPF> elecmap opt_AncA.e.map               # electrostatics map

DPF> desolvmap opt_AncA.d.map             # desolvation map

DPF> move heme_Fe_opt.pdbqt               # small molecule

1,4-interactions will be _ignored_ in the non-bonded internal energy calculation.

Ligand PDBQT file = "heme_Fe_opt.pdbqt"

INPUT LIGAND PDBQT FILE:
________________________

INPUT-LIGAND-PDBQT: REMARK  10 active torsions:
INPUT-LIGAND-PDBQT: REMARK  status: ('A' for Active; 'I' for Inactive)
INPUT-LIGAND-PDBQT: REMARK    1  A    between atoms: C_6  and  C_10 
INPUT-LIGAND-PDBQT: REMARK    2  A    between atoms: C_10  and  C_11 
INPUT-LIGAND-PDBQT: REMARK    3  A    between atoms: C_11  and  C_12 
INPUT-LIGAND-PDBQT: REMARK    4  A    between atoms: C_12  and  O_14 
INPUT-LIGAND-PDBQT: REMARK    5  A    between atoms: C_17  and  C_20 
INPUT-LIGAND-PDBQT: REMARK    6  A    between atoms: C_24  and  C_27 
INPUT-LIGAND-PDBQT: REMARK    7  A    between atoms: C_31  and  C_34 
INPUT-LIGAND-PDBQT: REMARK    8  A    between atoms: C_34  and  C_35 
INPUT-LIGAND-PDBQT: REMARK    9  A    between atoms: C_35  and  C_36 
INPUT-LIGAND-PDBQT: REMARK   10  A    between atoms: C_36  and  O_38 
INPUT-LIGAND-PDBQT: ROOT
INPUT-LIGAND-PDBQT: ATOM      1  C   UNL d   1      -2.155  -0.060   0.485  0.00  0.00     0.064 C 
INPUT-LIGAND-PDBQT: ATOM      2  C   UNL d   1       1.497  -3.385   0.291  0.00  0.00     0.064 A 
INPUT-LIGAND-PDBQT: ATOM      3  C   UNL d   1       4.660   0.212  -0.062  0.00  0.00     0.064 C 
INPUT-LIGAND-PDBQT: ATOM      4  C   UNL d   1       1.133   3.443   0.018  0.00  0.00     0.064 C 
INPUT-LIGAND-PDBQT: ATOM      5  C   UNL d   1      -1.427  -1.332   0.379  0.00  0.00     0.066 A 
INPUT-LIGAND-PDBQT: ATOM      6  C   UNL d   1      -2.022  -2.582   0.331  0.00  0.00    -0.021 A 
INPUT-LIGAND-PDBQT: ATOM      7  C   UNL d   1      -1.007  -3.505   0.281  0.00  0.00    -0.025 A 
INPUT-LIGAND-PDBQT: ATOM      8  C   UNL d   1       0.170  -2.782   0.300  0.00  0.00     0.066 A 
INPUT-LIGAND-PDBQT: ATOM      9  C   UNL d   1      -1.169  -4.992   0.200  0.00  0.00     0.051 C 
INPUT-LIGAND-PDBQT: ATOM     10  C   UNL d   1       2.647  -2.710   0.251  0.00  0.00     0.066 A 
INPUT-LIGAND-PDBQT: ATOM     11  C   UNL d   1       3.903  -3.312   0.359  0.00  0.00    -0.021 A 
INPUT-LIGAND-PDBQT: ATOM     12  C   UNL d   1       4.832  -2.294   0.277  0.00  0.00     0.000 A 
INPUT-LIGAND-PDBQT: ATOM     13  C   UNL d   1       4.087  -1.111   0.130  0.00  0.00     0.070 A 
INPUT-LIGAND-PDBQT: ATOM     14  C   UNL d   1       4.202  -4.778   0.598  0.00  0.00     0.052 C 
INPUT-LIGAND-PDBQT: ATOM     15  C   UNL d   1       3.948   1.360  -0.152  0.00  0.00     0.066 A 
INPUT-LIGAND-PDBQT: ATOM     16  C   UNL d   1       4.526   2.591  -0.435  0.00  0.00    -0.021 A 
INPUT-LIGAND-PDBQT: ATOM     17  C   UNL d   1       3.511   3.525  -0.409  0.00  0.00     0.000 A 
INPUT-LIGAND-PDBQT: ATOM     18  C   UNL d   1       2.336   2.841  -0.106  0.00  0.00     0.070 A 
INPUT-LIGAND-PDBQT: ATOM     19  C   UNL d   1       5.979   2.885  -0.695  0.00  0.00     0.052 C 
INPUT-LIGAND-PDBQT: ATOM     20  C   UNL d   1      -0.134   2.748   0.275  0.00  0.00     0.066 A 
INPUT-LIGAND-PDBQT: ATOM     21  C   UNL d   1      -1.347   3.370   0.603  0.00  0.00    -0.025 A 
INPUT-LIGAND-PDBQT: ATOM     22  C   UNL d   1      -2.273   2.354   0.719  0.00  0.00    -0.021 A 
INPUT-LIGAND-PDBQT: ATOM     23  C   UNL d   1      -1.591   1.158   0.465  0.00  0.00     0.066 A 
INPUT-LIGAND-PDBQT: ATOM     24  C   UNL d   1      -1.629   4.841   0.803  0.00  0.00     0.051 C 
INPUT-LIGAND-PDBQT: ATOM     25  N   UNL d   1      -0.089  -1.460   0.350  0.00  0.00    -0.248 N 
INPUT-LIGAND-PDBQT: ATOM     26  N   UNL d   1       2.755  -1.363   0.123  0.00  0.00    -0.248 N 
INPUT-LIGAND-PDBQT: ATOM     27  N   UNL d   1       2.596   1.504   0.009  0.00  0.00    -0.248 N 
INPUT-LIGAND-PDBQT: ATOM     28  N   UNL d   1      -0.277   1.401   0.239  0.00  0.00    -0.248 N 
INPUT-LIGAND-PDBQT: ATOM     29 FE   UNL d   1       1.239   0.021   0.181  0.00  0.00     0.000 Fe
INPUT-LIGAND-PDBQT: ENDROOT
INPUT-LIGAND-PDBQT: BRANCH   6  30
INPUT-LIGAND-PDBQT: ATOM     30  C   UNL d   1      -3.481  -2.886   0.312  0.00  0.00     0.052 C 
INPUT-LIGAND-PDBQT: BRANCH  30  31
INPUT-LIGAND-PDBQT: ATOM     31  C   UNL d   1      -4.006  -2.926  -1.119  0.00  0.00     0.115 C 
INPUT-LIGAND-PDBQT: BRANCH  31  32
INPUT-LIGAND-PDBQT: ATOM     32  C   UNL d   1      -5.478  -3.232  -1.131  0.00  0.00     0.139 C 
INPUT-LIGAND-PDBQT: ATOM     33  O   UNL d   1      -6.086  -3.411  -0.085  0.00  0.00    -0.650 OA
INPUT-LIGAND-PDBQT: BRANCH  32  34
INPUT-LIGAND-PDBQT: ATOM     34  O   UNL d   1      -6.141  -3.312  -2.297  0.00  0.00    -0.776 OA
INPUT-LIGAND-PDBQT: ATOM     35  H   UNL d   1      -7.088  -3.510  -2.286  0.00  0.00     0.167 HD
INPUT-LIGAND-PDBQT: ENDBRANCH  32  34
INPUT-LIGAND-PDBQT: ENDBRANCH  31  32
INPUT-LIGAND-PDBQT: ENDBRANCH  30  31
INPUT-LIGAND-PDBQT: ENDBRANCH   6  30
INPUT-LIGAND-PDBQT: BRANCH  22  36
INPUT-LIGAND-PDBQT: ATOM     36  C   UNL d   1      -3.720   2.522   1.101  0.00  0.00     0.052 C 
INPUT-LIGAND-PDBQT: BRANCH  36  37
INPUT-LIGAND-PDBQT: ATOM     37  C   UNL d   1      -4.581   2.559  -0.153  0.00  0.00     0.115 C 
INPUT-LIGAND-PDBQT: BRANCH  37  38
INPUT-LIGAND-PDBQT: ATOM     38  C   UNL d   1      -6.035   2.706   0.196  0.00  0.00     0.139 C 
INPUT-LIGAND-PDBQT: ATOM     39  O   UNL d   1      -6.394   2.778   1.362  0.00  0.00    -0.650 OA
INPUT-LIGAND-PDBQT: BRANCH  38  40
INPUT-LIGAND-PDBQT: ATOM     40  O   UNL d   1      -6.958   2.756  -0.781  0.00  0.00    -0.776 OA
INPUT-LIGAND-PDBQT: ATOM     41  H   UNL d   1      -7.891   2.847  -0.542  0.00  0.00     0.167 HD
INPUT-LIGAND-PDBQT: ENDBRANCH  38  40
INPUT-LIGAND-PDBQT: ENDBRANCH  37  38
INPUT-LIGAND-PDBQT: ENDBRANCH  36  37
INPUT-LIGAND-PDBQT: ENDBRANCH  22  36
INPUT-LIGAND-PDBQT: BRANCH  12  42
INPUT-LIGAND-PDBQT: ATOM     42  C   UNL d   1       6.314  -2.479   0.357  0.00  0.00     0.004 C 
INPUT-LIGAND-PDBQT: ATOM     43  C   UNL d   1       6.931  -3.422  -0.367  0.00  0.00     0.012 C 
INPUT-LIGAND-PDBQT: ENDBRANCH  12  42
INPUT-LIGAND-PDBQT: BRANCH  17  44
INPUT-LIGAND-PDBQT: ATOM     44  C   UNL d   1       3.653   4.974  -0.677  0.00  0.00     0.004 C 
INPUT-LIGAND-PDBQT: ATOM     45  C   UNL d   1       4.222   5.409  -1.806  0.00  0.00     0.012 C 
INPUT-LIGAND-PDBQT: ENDBRANCH  17  44
INPUT-LIGAND-PDBQT: TORSDOF 10
________________________________________________________________________________

Total charge on ligand                               =	-2.002 e
REMARK  10 active torsions:
REMARK  status: ('A' for Active; 'I' for Inactive)
REMARK    1  A    between atoms: C_6  and  C_10 
REMARK    2  A    between atoms: C_10  and  C_11 
REMARK    3  A    between atoms: C_11  and  C_12 
REMARK    4  A    between atoms: C_12  and  O_14 
REMARK    5  A    between atoms: C_17  and  C_20 
REMARK    6  A    between atoms: C_24  and  C_27 
REMARK    7  A    between atoms: C_31  and  C_34 
REMARK    8  A    between atoms: C_34  and  C_35 
REMARK    9  A    between atoms: C_35  and  C_36 
REMARK   10  A    between atoms: C_36  and  O_38 


Number of Rotatable Bonds in Small Molecule =	10 torsions
Number of atoms in ligand:  45

Number of non-hydrogen atoms in ligand:  43

Number of vibrational degrees of freedom of ligand:  129


Number of torsional degrees of freedom = 10
Estimated loss of torsional free energy upon binding = +2.9830 kcal/mol


DPF> about -0.174 -0.001 -0.047            # small molecule center

Small molecule center of rotation =	(-0.174, -0.001, -0.047)

DPF> tran0 random                         # initial coordinates/A or random

Initial translation =			(-10.367, -6.175, 9.565) Angstroms
DPF> quaternion0 random                   # initial orientation

Each run will begin with a new, random initial orientation.
Initial quaternion,  (x,y,z,w) =	( 0.151, 0.869, -0.214, -0.421 ),
DPF> dihe0 random                         # initial dihedrals (relative) or random

DPF> torsdof 10                            # torsional degrees of freedom

Number of torsional degrees of freedom = 10
Free energy coefficient for torsional degrees of freedom = 0.2983, the factory default value.

Estimated loss of torsional free energy upon binding = +2.9830 kcal/mol

DPF> rmstol 2.0                           # cluster_tolerance/A

Maximum RMS tolerance for conformational cluster analysis = 2.00 Angstroms
DPF> extnrg 1000.0                        # external grid energy

External grid energy (beyond grid map walls) = 1000.00

DPF> e0max 0.0 10000                      # max initial energy; max number of retries

Using user-specified maximum number of retries for simanneal initialization, 10000 retries.
If the simanneal initial energy is greater than e0max, 0.000,
then a new, random initial state will be created.

DPF> ga_pop_size 150                      # number of individuals in population

A population of 150 individuals will be used
DPF> ga_num_evals 25000000                # maximum number of energy evaluations

There will be at most 25000000 function evaluations used.
DPF> ga_num_generations 27000             # maximum number of generations

The GA will run for at most 27000 generations.
DPF> ga_elitism 1                         # number of top individuals to survive to next generation

The 1 best will be preserved each GA generation.
DPF> ga_mutation_rate 0.02                # rate of gene mutation

The mutation rate is 0.020000.
DPF> ga_crossover_rate 0.8                # rate of crossover

The crossover rate is 0.800000.
DPF> ga_window_size 10                    # 

The GA's selection window is 10 generations.
DPF> ga_cauchy_alpha 0.0                  # Alpha parameter of Cauchy distribution

The alpha parameter (for the Cauchy distribution) is being set to 0.000000.
DPF> ga_cauchy_beta 1.0                   # Beta parameter Cauchy distribution

The beta parameter (for the Cauchy distribution) is being set to 1.000000.
DPF> set_ga                               # set the above parameters for GA or LGA

DPF> sw_max_its 300                       # iterations of Solis & Wets local search

Solis & Wets algorithms will perform at most 300 iterations.
DPF> sw_max_succ 4                        # consecutive successes before changing rho

Solis & Wets algorithms expand rho every 4 in a row successes.
DPF> sw_max_fail 4                        # consecutive failures before changing rho

Solis & Wets algorithms contract rho every 4 in a row failures.
DPF> sw_rho 1.0                           # size of local search space to sample

rho is set to 1.000000.
DPF> sw_lb_rho 0.01                       # lower bound on rho

rho will never get smaller than 0.010000.
DPF> ls_search_freq 0.06                  # probability of performing local search on individual

Local search will be performed with frequency 0.060000.
DPF> set_psw1                             # set the above pseudo-Solis & Wets parameters

Creating a new Local Search object using the pseudo-Solis-Wets algorithm (pSW1) with the current settings.

DPF> unbound_model bound                  # state of unbound ligand

DPF> ga_run 100                           # do this many hybrid GA-LS runs

centering ligand on specified point: -0.174 -0.001 -0.047
Furthest true ligand atom from "about" center is 8.241 Angstroms (maxrad).
Number of requested GA dockings = 100 runs
Unbound model to be used is 'same as bound' [AutoDock 4.2 default].

	BEGINNING GENETIC ALGORITHM DOCKING 1 of 100
Run: 1 Seed: 796785494 1429344295 [ Run 1 of 100 GA/GALS ]
Beginning LAMARCKIAN GENETIC ALGORITHM (LGA), with a maximum of 25000000 energy evaluations.

Final-Value: -17.427


	FINAL GENETIC ALGORITHM DOCKED STATE
	_______________________________________________


Detailed state:  trans -5.385 -11.353 -1.905 quatxyzw -0.122545 0.106794 0.774279 -0.611613 center -0.174 -0.001 -0.047 ntor 10 -48.1659 18.3729 16.3503 30.4794 148.6524 -115.4606 62.7276 -108.3164 6.9260 -23.8072
State:	 -5.385 -11.353  -1.905  -0.155  0.135  0.979 -104.588    -48.17   18.37   16.35   30.48  148.65 -115.46   62.73 -108.32    6.93  -23.81

DOCKED: MODEL        1
DOCKED: USER    Run = 1
DOCKED: USER    DPF = D:/Protein_go_brrr/autodock/final/AncA/heme_Fe/dock.dpf
DOCKED: USER  
DOCKED: USER    Estimated Free Energy of Binding    =  -12.43 kcal/mol  [=(1)+(2)+(3)-(4)]
DOCKED: USER    Estimated Inhibition Constant, Ki   =  776.96 pM (picomolar)  [Temperature = 298.15 K]
DOCKED: USER    
DOCKED: USER    (1) Final Intermolecular Energy     =  -15.41 kcal/mol
DOCKED: USER        vdW + Hbond + desolv Energy     =  -11.64 kcal/mol
DOCKED: USER        Electrostatic Energy            =   -3.77 kcal/mol
DOCKED: USER    (2) Final Total Internal Energy     =   -2.02 kcal/mol
DOCKED: USER    (3) Torsional Free Energy           =   +2.98 kcal/mol
DOCKED: USER    (4) Unbound System's Energy  [=(2)] =   -2.02 kcal/mol
DOCKED: USER    
DOCKED: USER    
DOCKED: USER    NEWDPF move heme_Fe_opt.pdbqt
DOCKED: USER    NEWDPF about -0.174000 -0.001000 -0.047000
DOCKED: USER    NEWDPF tran0 -5.385391 -11.353010 -1.905259
DOCKED: USER    NEWDPF quaternion0 -0.122545 0.106794 0.774279 -0.611613
DOCKED: USER    NEWDPF axisangle0 -0.154894 0.134984 0.978666 -104.587596
DOCKED: USER    NEWDPF quat0 -0.154894 0.134984 0.978666 -104.587596
DOCKED: USER    NEWDPF dihe0 -48.17 18.37 16.35 30.48 148.65 -115.46 62.73 -108.32 6.93 -23.81 
DOCKED: USER  keepresnum = 1 
DOCKED: USER  
DOCKED: REMARK  10 active torsions:
DOCKED: REMARK  status: ('A' for Active; 'I' for Inactive)
DOCKED: REMARK    1  A    between atoms: C_6  and  C_10 
DOCKED: REMARK    2  A    between atoms: C_10  and  C_11 
DOCKED: REMARK    3  A    between atoms: C_11  and  C_12 
DOCKED: REMARK    4  A    between atoms: C_12  and  O_14 
DOCKED: REMARK    5  A    between atoms: C_17  and  C_20 
DOCKED: REMARK    6  A    between atoms: C_24  and  C_27 
DOCKED: REMARK    7  A    between atoms: C_31  and  C_34 
DOCKED: REMARK    8  A    between atoms: C_34  and  C_35 
DOCKED: REMARK    9  A    between atoms: C_35  and  C_36 
DOCKED: REMARK   10  A    between atoms: C_36  and  O_38 
DOCKED: USER                              x       y       z     vdW  Elec       q    Type
DOCKED: USER                           _______ _______ _______ _____ _____    ______ ____
DOCKED: ROOT
DOCKED: ATOM      1  C   UNL d   1      -4.920 -12.996  -0.768 -0.26 +0.11    +0.064 C 
DOCKED: ATOM      2  C   UNL d   1      -2.482  -8.932  -2.173 -0.43 +0.02    +0.064 A 
DOCKED: ATOM      3  C   UNL d   1      -6.664  -6.955  -3.465 -0.38 +0.03    +0.064 C 
DOCKED: ATOM      4  C   UNL d   1      -9.031 -10.918  -2.209 -0.36 +0.03    +0.064 C 
DOCKED: ATOM      5  C   UNL d   1      -3.837 -12.068  -1.121 -0.28 +0.08    +0.066 A 
DOCKED: ATOM      6  C   UNL d   1      -2.486 -12.345  -0.995 -0.25 -0.02    -0.021 A 
DOCKED: ATOM      7  C   UNL d   1      -1.810 -11.214  -1.382 -0.32 -0.02    -0.025 A 
DOCKED: ATOM      8  C   UNL d   1      -2.775 -10.290  -1.730 -0.36 +0.04    +0.066 A 
DOCKED: ATOM      9  C   UNL d   1      -0.322 -11.048  -1.430 -0.37 +0.02    +0.051 C 
DOCKED: ATOM     10  C   UNL d   1      -3.392  -8.041  -2.569 -0.39 +0.02    +0.066 A 
DOCKED: ATOM     11  C   UNL d   1      -3.091  -6.712  -2.878 -0.39 -0.01    -0.021 A 
DOCKED: ATOM     12  C   UNL d   1      -4.283  -6.115  -3.238 -0.40 +0.00    +0.000 A 
DOCKED: ATOM     13  C   UNL d   1      -5.261  -7.119  -3.120 +0.08 +0.04    +0.070 A 
DOCKED: ATOM     14  C   UNL d   1      -1.745  -6.025  -2.770 -0.49 +0.01    +0.052 C 
DOCKED: ATOM     15  C   UNL d   1      -7.618  -7.902  -3.304 -0.39 +0.02    +0.066 A 
DOCKED: ATOM     16  C   UNL d   1      -8.928  -7.741  -3.739 -0.46 -0.01    -0.021 A 
DOCKED: ATOM     17  C   UNL d   1      -9.613  -8.881  -3.374 -0.50 +0.00    +0.000 A 
DOCKED: ATOM     18  C   UNL d   1      -8.705  -9.711  -2.721 -0.34 +0.02    +0.070 A 
DOCKED: ATOM     19  C   UNL d   1      -9.521  -6.552  -4.446 -0.39 +0.01    +0.052 C 
DOCKED: ATOM     20  C   UNL d   1      -8.089 -11.844  -1.571 -0.22 +0.04    +0.066 A 
DOCKED: ATOM     21  C   UNL d   1      -8.445 -13.000  -0.862 -0.20 -0.02    -0.025 A 
DOCKED: ATOM     22  C   UNL d   1      -7.257 -13.584  -0.471 -0.20 -0.03    -0.021 A 
DOCKED: ATOM     23  C   UNL d   1      -6.229 -12.762  -0.948 -0.24 +0.09    +0.066 A 
DOCKED: ATOM     24  C   UNL d   1      -9.826 -13.534  -0.559 -0.20 +0.03    +0.051 C 
DOCKED: ATOM     25  N   UNL d   1      -4.008 -10.815  -1.579 -0.22 -0.20    -0.248 N 
DOCKED: ATOM     26  N   UNL d   1      -4.720  -8.290  -2.704 -0.24 -0.12    -0.248 N 
DOCKED: ATOM     27  N   UNL d   1      -7.468  -9.129  -2.716 -0.06 -0.10    -0.248 N 
DOCKED: ATOM     28  N   UNL d   1      -6.744 -11.679  -1.580 -0.07 -0.22    -0.248 N 
DOCKED: ATOM     29 FE   UNL d   1      -5.734  -9.985  -2.142 -0.08 +0.00    +0.000 Fe
DOCKED: ENDROOT
DOCKED: BRANCH   6  30
DOCKED: ATOM     30  C   UNL d   1      -1.865 -13.625  -0.550 -0.20 +0.06    +0.052 C 
DOCKED: BRANCH  30  31
DOCKED: ATOM     31  C   UNL d   1      -1.469 -14.478  -1.750 -0.15 +0.14    +0.115 C 
DOCKED: BRANCH  31  32
DOCKED: ATOM     32  C   UNL d   1      -2.237 -15.771  -1.753 -0.02 +0.22    +0.139 C 
DOCKED: ATOM     33  O   UNL d   1      -2.531 -16.319  -2.806 -0.41 -1.45    -0.650 OA
DOCKED: BRANCH  32  34
DOCKED: ATOM     34  O   UNL d   1      -2.610 -16.337  -0.592 +0.00 -0.99    -0.776 OA
DOCKED: ATOM     35  H   UNL d   1      -3.524 -16.635  -0.488 +0.02 +0.24    +0.167 HD
DOCKED: ENDBRANCH  32  34
DOCKED: ENDBRANCH  31  32
DOCKED: ENDBRANCH  30  31
DOCKED: ENDBRANCH   6  30
DOCKED: BRANCH  22  36
DOCKED: ATOM     36  C   UNL d   1      -7.122 -14.835   0.357 -0.13 +0.08    +0.052 C 
DOCKED: BRANCH  36  37
DOCKED: ATOM     37  C   UNL d   1      -7.480 -16.050  -0.486 -0.07 +0.13    +0.115 C 
DOCKED: BRANCH  37  38
DOCKED: ATOM     38  C   UNL d   1      -6.423 -16.318  -1.520 +0.06 +0.24    +0.139 C 
DOCKED: ATOM     39  O   UNL d   1      -6.677 -16.226  -2.712 -0.27 -1.34    -0.650 OA
DOCKED: BRANCH  38  40
DOCKED: ATOM     40  O   UNL d   1      -5.182 -16.667  -1.136 -0.12 -1.38    -0.776 OA
DOCKED: ATOM     41  H   UNL d   1      -4.454 -16.581  -1.767 +0.01 +0.39    +0.167 HD
DOCKED: ENDBRANCH  38  40
DOCKED: ENDBRANCH  37  38
DOCKED: ENDBRANCH  36  37
DOCKED: ENDBRANCH  22  36
DOCKED: BRANCH  12  42
DOCKED: ATOM     42  C   UNL d   1      -4.437  -4.683  -3.640 -0.44 +0.00    +0.004 C 
DOCKED: ATOM     43  C   UNL d   1      -3.849  -4.211  -4.747 -0.48 +0.00    +0.012 C 
DOCKED: ENDBRANCH  12  42
DOCKED: BRANCH  17  44
DOCKED: ATOM     44  C   UNL d   1     -11.039  -9.167  -3.651 -0.48 +0.00    +0.004 C 
DOCKED: ATOM     45  C   UNL d   1     -11.418  -9.688  -4.822 -0.57 +0.00    +0.012 C 
DOCKED: ENDBRANCH  17  44
DOCKED: TORSDOF 10
DOCKED: TER
DOCKED: ENDMDL
________________________________________________________________________________


	BEGINNING GENETIC ALGORITHM DOCKING 2 of 100
Run: 2 Seed: 665961464 877787039 [ Run 2 of 100 GA/GALS ]
Beginning LAMARCKIAN GENETIC ALGORITHM (LGA), with a maximum of 25000000 energy evaluations.

Final-Value: -20.933


	FINAL GENETIC ALGORITHM DOCKED STATE
	_______________________________________________


Detailed state:  trans -4.886 -9.369 -2.364 quatxyzw 0.688320 0.704982 -0.086171 -0.147619 center -0.174 -0.001 -0.047 ntor 10 -66.3770 -67.2259 66.4065 -130.6287 -140.9395 10.9866 30.3284 -27.4905 -36.9634 18.8082
State:	 -4.886  -9.369  -2.364   0.696  0.713 -0.087 -163.022    -66.38  -67.23   66.41 -130.63 -140.94   10.99   30.33  -27.49  -36.96   18.81

DOCKED: MODEL        2
DOCKED: USER    Run = 2
DOCKED: USER    DPF = D:/Protein_go_brrr/autodock/final/AncA/heme_Fe/dock.dpf
DOCKED: USER  
DOCKED: USER    Estimated Free Energy of Binding    =  -15.63 kcal/mol  [=(1)+(2)+(3)-(4)]
DOCKED: USER    Estimated Inhibition Constant, Ki   =    3.48 pM (picomolar)  [Temperature = 298.15 K]
DOCKED: USER    
DOCKED: USER    (1) Final Intermolecular Energy     =  -18.61 kcal/mol
DOCKED: USER        vdW + Hbond + desolv Energy     =  -14.17 kcal/mol
DOCKED: USER        Electrostatic Energy            =   -4.44 kcal/mol
DOCKED: USER    (2) Final Total Internal Energy     =   -2.32 kcal/mol
DOCKED: USER    (3) Torsional Free Energy           =   +2.98 kcal/mol
DOCKED: USER    (4) Unbound System's Energy  [=(2)] =   -2.32 kcal/mol
DOCKED: USER    
DOCKED: USER    
DOCKED: USER    NEWDPF move heme_Fe_opt.pdbqt
DOCKED: USER    NEWDPF about -0.174000 -0.001000 -0.047000
DOCKED: USER    NEWDPF tran0 -4.886372 -9.368815 -2.364388
DOCKED: USER    NEWDPF quaternion0 0.688320 0.704982 -0.086171 -0.147619
DOCKED: USER    NEWDPF axisangle0 0.695944 0.712791 -0.087126 -163.022033
DOCKED: USER    NEWDPF quat0 0.695944 0.712791 -0.087126 -163.022033
DOCKED: USER    NEWDPF dihe0 -66.38 -67.23 66.41 -130.63 -140.94 10.99 30.33 -27.49 -36.96 18.81 
DOCKED: USER  keepresnum = 1 
DOCKED: USER  
DOCKED: REMARK  10 active torsions:
DOCKED: REMARK  status: ('A' for Active; 'I' for Inactive)
DOCKED: REMARK    1  A    between atoms: C_6  and  C_10 
DOCKED: REMARK    2  A    between atoms: C_10  and  C_11 
DOCKED: REMARK    3  A    between atoms: C_11  and  C_12 
DOCKED: REMARK    4  A    between atoms: C_12  and  O_14 
DOCKED: REMARK    5  A    between atoms: C_17  and  C_20 
DOCKED: REMARK    6  A    between atoms: C_24  and  C_27 
DOCKED: REMARK    7  A    between atoms: C_31  and  C_34 
DOCKED: REMARK    8  A    between atoms: C_34  and  C_35 
DOCKED: REMARK    9  A    between atoms: C_35  and  C_36 
DOCKED: REMARK   10  A    between atoms: C_36  and  O_38 
DOCKED: USER                              x       y       z     vdW  Elec       q    Type
DOCKED: USER                           _______ _______ _______ _____ _____    ______ ____
DOCKED: ROOT
DOCKED: ATOM      1  C   UNL d   1      -4.880 -11.416  -2.223 -0.35 +0.07    +0.064 C 
DOCKED: ATOM      2  C   UNL d   1      -8.241  -8.027  -3.505 -0.42 +0.02    +0.064 A 
DOCKED: ATOM      3  C   UNL d   1      -4.718  -4.787  -3.912 -0.44 +0.01    +0.064 C 
DOCKED: ATOM      4  C   UNL d   1      -1.462  -8.025  -2.571 -0.50 +0.02    +0.064 C 
DOCKED: ATOM      5  C   UNL d   1      -6.163 -10.741  -2.465 -0.01 +0.05    +0.066 A 
DOCKED: ATOM      6  C   UNL d   1      -7.407 -11.335  -2.327 -0.23 -0.01    -0.021 A 
DOCKED: ATOM      7  C   UNL d   1      -8.339 -10.394  -2.687 -0.30 -0.01    -0.025 A 
DOCKED: ATOM      8  C   UNL d   1      -7.628  -9.261  -3.031 -0.22 +0.03    +0.066 A 
DOCKED: ATOM      9  C   UNL d   1      -9.826 -10.577  -2.680 -0.42 +0.01    +0.051 C 
DOCKED: ATOM     10  C   UNL d   1      -7.583  -6.901  -3.788 -0.42 +0.02    +0.066 A 
DOCKED: ATOM     11  C   UNL d   1      -8.184  -5.772  -4.349 -0.46 -0.00    -0.021 A 
DOCKED: ATOM     12  C   UNL d   1      -7.185  -4.829  -4.493 -0.48 +0.00    +0.000 A 
DOCKED: ATOM     13  C   UNL d   1      -6.014  -5.441  -4.014 -0.38 +0.02    +0.070 A 
DOCKED: ATOM     14  C   UNL d   1      -9.625  -5.622  -4.792 -0.45 +0.01    +0.052 C 
DOCKED: ATOM     15  C   UNL d   1      -3.577  -5.388  -3.501 -0.38 +0.01    +0.066 A 
DOCKED: ATOM     16  C   UNL d   1      -2.381  -4.704  -3.323 -0.40 -0.00    -0.021 A 
DOCKED: ATOM     17  C   UNL d   1      -1.440  -5.636  -2.940 -0.47 +0.00    +0.000 A 
DOCKED: ATOM     18  C   UNL d   1      -2.083  -6.871  -2.897 -0.42 +0.02    +0.070 A 
DOCKED: ATOM     19  C   UNL d   1      -2.125  -3.235  -3.529 -0.40 +0.01    +0.052 C 
DOCKED: ATOM     20  C   UNL d   1      -2.120  -9.332  -2.456 -0.39 +0.03    +0.066 A 
DOCKED: ATOM     21  C   UNL d   1      -1.460 -10.562  -2.318 -0.30 -0.01    -0.025 A 
DOCKED: ATOM     22  C   UNL d   1      -2.454 -11.513  -2.207 -0.31 -0.02    -0.021 A 
DOCKED: ATOM     23  C   UNL d   1      -3.674 -10.831  -2.289 -0.33 +0.05    +0.066 A 
DOCKED: ATOM     24  C   UNL d   1       0.025 -10.838  -2.294 -0.33 +0.02    +0.051 C 
DOCKED: ATOM     25  N   UNL d   1      -6.305  -9.472  -2.885 -0.10 -0.13    -0.248 N 
DOCKED: ATOM     26  N   UNL d   1      -6.254  -6.707  -3.593 -0.19 -0.11    -0.248 N 
DOCKED: ATOM     27  N   UNL d   1      -3.407  -6.713  -3.199 -0.25 -0.07    -0.248 N 
DOCKED: ATOM     28  N   UNL d   1      -3.464  -9.506  -2.485 -0.24 -0.12    -0.248 N 
DOCKED: ATOM     29 FE   UNL d   1      -4.857  -8.107  -3.039 -0.09 +0.00    +0.000 Fe
DOCKED: ENDROOT
DOCKED: BRANCH   6  30
DOCKED: ATOM     30  C   UNL d   1      -7.698 -12.719  -1.858 -0.26 +0.05    +0.052 C 
DOCKED: BRANCH  30  31
DOCKED: ATOM     31  C   UNL d   1      -7.010 -12.994  -0.525 -0.23 +0.14    +0.115 C 
DOCKED: BRANCH  31  32
DOCKED: ATOM     32  C   UNL d   1      -6.660 -14.451  -0.404 -0.16 +0.22    +0.139 C 
DOCKED: ATOM     33  O   UNL d   1      -6.780 -15.034   0.664 -0.28 -1.21    -0.650 OA
DOCKED: BRANCH  32  34
DOCKED: ATOM     34  O   UNL d   1      -6.210 -15.128  -1.474 -0.39 -1.87    -0.776 OA
DOCKED: ATOM     35  H   UNL d   1      -5.299 -15.454  -1.474 +0.03 +0.51    +0.167 HD
DOCKED: ENDBRANCH  32  34
DOCKED: ENDBRANCH  31  32
DOCKED: ENDBRANCH  30  31
DOCKED: ENDBRANCH   6  30
DOCKED: BRANCH  22  36
DOCKED: ATOM     36  C   UNL d   1      -2.239 -12.998  -2.080 -0.24 +0.07    +0.052 C 
DOCKED: BRANCH  36  37
DOCKED: ATOM     37  C   UNL d   1      -2.755 -13.478  -0.731 -0.17 +0.17    +0.115 C 
DOCKED: BRANCH  37  38
DOCKED: ATOM     38  C   UNL d   1      -3.200 -14.911  -0.803 -0.10 +0.26    +0.139 C 
DOCKED: ATOM     39  O   UNL d   1      -2.945 -15.596  -1.782 +0.11 -1.48    -0.650 OA
DOCKED: BRANCH  38  40
DOCKED: ATOM     40  O   UNL d   1      -3.890 -15.451   0.217 -0.26 -1.55    -0.776 OA
DOCKED: ATOM     41  H   UNL d   1      -4.816 -15.697   0.080 +0.01 +0.35    +0.167 HD
DOCKED: ENDBRANCH  38  40
DOCKED: ENDBRANCH  37  38
DOCKED: ENDBRANCH  36  37
DOCKED: ENDBRANCH  22  36
DOCKED: BRANCH  12  42
DOCKED: ATOM     42  C   UNL d   1      -7.376  -3.462  -5.067 -0.64 +0.00    +0.004 C 
DOCKED: ATOM     43  C   UNL d   1      -7.219  -2.368  -4.310 -0.67 +0.00    +0.012 C 
DOCKED: ENDBRANCH  12  42
DOCKED: BRANCH  17  44
DOCKED: ATOM     44  C   UNL d   1      -0.022  -5.361  -2.615 -0.59 +0.00    +0.004 C 
DOCKED: ATOM     45  C   UNL d   1       0.872  -5.140  -3.585 -0.65 +0.00    +0.012 C 
DOCKED: ENDBRANCH  17  44
DOCKED: TORSDOF 10
DOCKED: TER
DOCKED: ENDMDL
________________________________________________________________________________


	BEGINNING GENETIC ALGORITHM DOCKING 3 of 100
Run: 3 Seed: 1545288607 58692354 [ Run 3 of 100 GA/GALS ]
Beginning LAMARCKIAN GENETIC ALGORITHM (LGA), with a maximum of 25000000 energy evaluations.

Final-Value: -11.978


	FINAL GENETIC ALGORITHM DOCKED STATE
	_______________________________________________


Detailed state:  trans 0.506 4.873 -15.157 quatxyzw 0.521214 -0.208367 0.824596 -0.070435 center -0.174 -0.001 -0.047 ntor 10 179.9461 66.0118 -161.9643 62.7727 -59.7131 -40.0577 135.0505 92.3615 -150.7163 -180.0000
State:	  0.506   4.873 -15.157   0.523 -0.209  0.827 -171.922    179.95   66.01 -161.96   62.77  -59.71  -40.06  135.05   92.36 -150.72 -180.00

DOCKED: MODEL        3
DOCKED: USER    Run = 3
DOCKED: USER    DPF = D:/Protein_go_brrr/autodock/final/AncA/heme_Fe/dock.dpf
DOCKED: USER  
DOCKED: USER    Estimated Free Energy of Binding    =   -6.72 kcal/mol  [=(1)+(2)+(3)-(4)]
DOCKED: USER    Estimated Inhibition Constant, Ki   =   11.93 uM (micromolar)  [Temperature = 298.15 K]
DOCKED: USER    
DOCKED: USER    (1) Final Intermolecular Energy     =   -9.70 kcal/mol
DOCKED: USER        vdW + Hbond + desolv Energy     =   -7.36 kcal/mol
DOCKED: USER        Electrostatic Energy            =   -2.34 kcal/mol
DOCKED: USER    (2) Final Total Internal Energy     =   -2.28 kcal/mol
DOCKED: USER    (3) Torsional Free Energy           =   +2.98 kcal/mol
DOCKED: USER    (4) Unbound System's Energy  [=(2)] =   -2.28 kcal/mol
DOCKED: USER    
DOCKED: USER    
DOCKED: USER    NEWDPF move heme_Fe_opt.pdbqt
DOCKED: USER    NEWDPF about -0.174000 -0.001000 -0.047000
DOCKED: USER    NEWDPF tran0 0.506093 4.872989 -15.156830
DOCKED: USER    NEWDPF quaternion0 0.521214 -0.208367 0.824596 -0.070435
DOCKED: USER    NEWDPF axisangle0 0.522512 -0.208886 0.826649 -171.922021
DOCKED: USER    NEWDPF quat0 0.522512 -0.208886 0.826649 -171.922021
DOCKED: USER    NEWDPF dihe0 179.95 66.01 -161.96 62.77 -59.71 -40.06 135.05 92.36 -150.72 -180.00 
DOCKED: USER  keepresnum = 1 
DOCKED: USER  
DOCKED: REMARK  10 active torsions:
DOCKED: REMARK  status: ('A' for Active; 'I' for Inactive)
DOCKED: REMARK    1  A    between atoms: C_6  and  C_10 
DOCKED: REMARK    2  A    between atoms: C_10  and  C_11 
DOCKED: REMARK    3  A    between atoms: C_11  and  C_12 
DOCKED: REMARK    4  A    between atoms: C_12  and  O_14 
DOCKED: REMARK    5  A    between atoms: C_17  and  C_20 
DOCKED: REMARK    6  A    between atoms: C_24  and  C_27 
DOCKED: REMARK    7  A    between atoms: C_31  and  C_34 
DOCKED: REMARK    8  A    between atoms: C_34  and  C_35 
DOCKED: REMARK    9  A    between atoms: C_35  and  C_36 
DOCKED: REMARK   10  A    between atoms: C_36  and  O_38 
DOCKED: USER                              x       y       z     vdW  Elec       q    Type
DOCKED: USER                           _______ _______ _______ _____ _____    ______ ____
DOCKED: ROOT
DOCKED: ATOM      1  C   UNL d   1       1.852   4.905 -16.705 -0.07 +0.01    +0.064 C 
DOCKED: ATOM      2  C   UNL d   1       1.168   7.620 -12.632 -0.11 +0.01    +0.064 A 
DOCKED: ATOM      3  C   UNL d   1      -1.737   4.198 -10.923 -0.35 +0.01    +0.064 C 
DOCKED: ATOM      4  C   UNL d   1      -1.172   1.603 -14.902 -0.28 -0.00    +0.064 C 
DOCKED: ATOM      5  C   UNL d   1       1.863   6.024 -15.753 -0.06 +0.01    +0.066 A 
DOCKED: ATOM      6  C   UNL d   1       2.506   7.233 -15.962 -0.06 -0.01    -0.021 A 
DOCKED: ATOM      7  C   UNL d   1       2.319   7.985 -14.829 -0.06 -0.00    -0.025 A 
DOCKED: ATOM      8  C   UNL d   1       1.568   7.205 -13.971 -0.09 +0.01    +0.066 A 
DOCKED: ATOM      9  C   UNL d   1       2.820   9.379 -14.601 -0.06 +0.01    +0.051 C 
DOCKED: ATOM     10  C   UNL d   1       0.396   6.911 -11.807 -0.08 +0.01    +0.066 A 
DOCKED: ATOM     11  C   UNL d   1       0.126   7.282 -10.488 -0.11 +0.00    -0.021 A 
DOCKED: ATOM     12  C   UNL d   1      -0.697   6.303  -9.967 -0.25 +0.00    +0.000 A 
DOCKED: ATOM     13  C   UNL d   1      -0.881   5.371 -11.004 -0.24 +0.01    +0.070 A 
DOCKED: ATOM     14  C   UNL d   1       0.679   8.477  -9.737 -0.26 -0.03    +0.052 C 
DOCKED: ATOM     15  C   UNL d   1      -1.876   3.271 -11.899 -0.28 +0.01    +0.066 A 
DOCKED: ATOM     16  C   UNL d   1      -2.780   2.219 -11.823 -0.36 -0.00    -0.021 A 
DOCKED: ATOM     17  C   UNL d   1      -2.616   1.467 -12.968 -0.39 -0.00    +0.000 A 
DOCKED: ATOM     18  C   UNL d   1      -1.612   2.077 -13.715 -0.27 -0.00    +0.070 A 
DOCKED: ATOM     19  C   UNL d   1      -3.743   1.915 -10.707 -0.54 +0.00    +0.052 C 
DOCKED: ATOM     20  C   UNL d   1      -0.161   2.252 -15.745 -0.12 -0.00    +0.066 A 
DOCKED: ATOM     21  C   UNL d   1       0.446   1.676 -16.870 -0.09 -0.00    -0.025 A 
DOCKED: ATOM     22  C   UNL d   1       1.295   2.638 -17.376 -0.09 -0.00    -0.021 A 
DOCKED: ATOM     23  C   UNL d   1       1.178   3.756 -16.540 -0.09 +0.00    +0.066 A 
DOCKED: ATOM     24  C   UNL d   1       0.248   0.292 -17.444 -0.12 +0.00    +0.051 C 
DOCKED: ATOM     25  N   UNL d   1       1.284   6.017 -14.540 -0.05 -0.04    -0.248 N 
DOCKED: ATOM     26  N   UNL d   1      -0.207   5.736 -12.122 -0.10 -0.04    -0.248 N 
DOCKED: ATOM     27  N   UNL d   1      -1.187   3.210 -13.080 -0.16 -0.01    -0.248 N 
DOCKED: ATOM     28  N   UNL d   1       0.322   3.498 -15.521 -0.09 +0.00    -0.248 N 
DOCKED: ATOM     29 FE   UNL d   1       0.057   4.615 -13.822 -0.04 +0.00    +0.000 Fe
DOCKED: ENDROOT
DOCKED: BRANCH   6  30
DOCKED: ATOM     30  C   UNL d   1       3.243   7.663 -17.184 -0.04 +0.01    +0.052 C 
DOCKED: BRANCH  30  31
DOCKED: ATOM     31  C   UNL d   1       4.428   6.741 -17.453 -0.07 +0.06    +0.115 C 
DOCKED: BRANCH  31  32
DOCKED: ATOM     32  C   UNL d   1       5.183   6.471 -16.181 -0.14 +0.13    +0.139 C 
DOCKED: ATOM     33  O   UNL d   1       5.684   7.389 -15.547 -0.05 -0.51    -0.650 OA
DOCKED: BRANCH  32  34
DOCKED: ATOM     34  O   UNL d   1       5.315   5.213 -15.729 -0.25 -1.32    -0.776 OA
DOCKED: ATOM     35  H   UNL d   1       4.917   4.489 -16.233 +0.03 +0.23    +0.167 HD
DOCKED: ENDBRANCH  32  34
DOCKED: ENDBRANCH  31  32
DOCKED: ENDBRANCH  30  31
DOCKED: ENDBRANCH   6  30
DOCKED: BRANCH  22  36
DOCKED: ATOM     36  C   UNL d   1       2.202   2.474 -18.566 -0.06 +0.01    +0.052 C 
DOCKED: BRANCH  36  37
DOCKED: ATOM     37  C   UNL d   1       3.490   1.785 -18.139 -0.05 +0.03    +0.115 C 
DOCKED: BRANCH  37  38
DOCKED: ATOM     38  C   UNL d   1       4.512   2.788 -17.683 -0.10 +0.08    +0.139 C 
DOCKED: ATOM     39  O   UNL d   1       4.655   3.847 -18.275 -0.01 -0.41    -0.650 OA
DOCKED: BRANCH  38  40
DOCKED: ATOM     40  O   UNL d   1       5.285   2.521 -16.615 -0.02 -0.84    -0.776 OA
DOCKED: ATOM     41  H   UNL d   1       5.187   3.060 -15.818 +0.04 +0.23    +0.167 HD
DOCKED: ENDBRANCH  38  40
DOCKED: ENDBRANCH  37  38
DOCKED: ENDBRANCH  36  37
DOCKED: ENDBRANCH  22  36
DOCKED: BRANCH  12  42
DOCKED: ATOM     42  C   UNL d   1      -1.231   6.287  -8.570 -0.41 -0.00    +0.004 C 
DOCKED: ATOM     43  C   UNL d   1      -0.859   5.338  -7.701 -0.62 -0.00    +0.012 C 
DOCKED: ENDBRANCH  12  42
DOCKED: BRANCH  17  44
DOCKED: ATOM     44  C   UNL d   1      -3.385   0.255 -13.332 -0.42 -0.00    +0.004 C 
DOCKED: ATOM     45  C   UNL d   1      -4.164   0.240 -14.419 -0.32 -0.00    +0.012 C 
DOCKED: ENDBRANCH  17  44
DOCKED: TORSDOF 10
DOCKED: TER
DOCKED: ENDMDL
________________________________________________________________________________


	BEGINNING GENETIC ALGORITHM DOCKING 4 of 100
Run: 4 Seed: 478501173 1234909375 [ Run 4 of 100 GA/GALS ]
Beginning LAMARCKIAN GENETIC ALGORITHM (LGA), with a maximum of 25000000 energy evaluations.

Final-Value: -14.834


	FINAL GENETIC ALGORITHM DOCKED STATE
	_______________________________________________


Detailed state:  trans -9.811 -14.417 -3.524 quatxyzw 0.420243 0.128539 -0.896474 -0.056641 center -0.174 -0.001 -0.047 ntor 10 121.3088 26.7949 73.3597 44.2256 141.0993 -56.8510 -30.8078 -96.3591 -138.7320 -11.9064
State:	 -9.811 -14.417  -3.524   0.421  0.129 -0.898 -173.506    121.31   26.79   73.36   44.23  141.10  -56.85  -30.81  -96.36 -138.73  -11.91

DOCKED: MODEL        4
DOCKED: USER    Run = 4
DOCKED: USER    DPF = D:/Protein_go_brrr/autodock/final/AncA/heme_Fe/dock.dpf
DOCKED: USER  
DOCKED: USER    Estimated Free Energy of Binding    =   -9.81 kcal/mol  [=(1)+(2)+(3)-(4)]
DOCKED: USER    Estimated Inhibition Constant, Ki   =   64.94 nM (nanomolar)  [Temperature = 298.15 K]
DOCKED: USER    
DOCKED: USER    (1) Final Intermolecular Energy     =  -12.79 kcal/mol
DOCKED: USER        vdW + Hbond + desolv Energy     =   -8.46 kcal/mol
DOCKED: USER        Electrostatic Energy            =   -4.33 kcal/mol
DOCKED: USER    (2) Final Total Internal Energy     =   -2.05 kcal/mol
DOCKED: USER    (3) Torsional Free Energy           =   +2.98 kcal/mol
DOCKED: USER    (4) Unbound System's Energy  [=(2)] =   -2.05 kcal/mol
DOCKED: USER    
DOCKED: USER    
DOCKED: USER    NEWDPF move heme_Fe_opt.pdbqt
DOCKED: USER    NEWDPF about -0.174000 -0.001000 -0.047000
DOCKED: USER    NEWDPF tran0 -9.811384 -14.416632 -3.524155
DOCKED: USER    NEWDPF quaternion0 0.420243 0.128539 -0.896474 -0.056641
DOCKED: USER    NEWDPF axisangle0 0.420919 0.128746 -0.897915 -173.505921
DOCKED: USER    NEWDPF quat0 0.420919 0.128746 -0.897915 -173.505921
DOCKED: USER    NEWDPF dihe0 121.31 26.79 73.36 44.23 141.10 -56.85 -30.81 -96.36 -138.73 -11.91 
DOCKED: USER  keepresnum = 1 
DOCKED: USER  
DOCKED: REMARK  10 active torsions:
DOCKED: REMARK  status: ('A' for Active; 'I' for Inactive)
DOCKED: REMARK    1  A    between atoms: C_6  and  C_10 
DOCKED: REMARK    2  A    between atoms: C_10  and  C_11 
DOCKED: REMARK    3  A    between atoms: C_11  and  C_12 
DOCKED: REMARK    4  A    between atoms: C_12  and  O_14 
DOCKED: REMARK    5  A    between atoms: C_17  and  C_20 
DOCKED: REMARK    6  A    between atoms: C_24  and  C_27 
DOCKED: REMARK    7  A    between atoms: C_31  and  C_34 
DOCKED: REMARK    8  A    between atoms: C_34  and  C_35 
DOCKED: REMARK    9  A    between atoms: C_35  and  C_36 
DOCKED: REMARK   10  A    between atoms: C_36  and  O_38 
DOCKED: USER                              x       y       z     vdW  Elec       q    Type
DOCKED: USER                           _______ _______ _______ _____ _____    ______ ____
DOCKED: ROOT
DOCKED: ATOM      1  C   UNL d   1      -8.948 -14.521  -1.665 -0.13 +0.05    +0.064 C 
DOCKED: ATOM      2  C   UNL d   1     -11.840 -11.249  -3.981 -0.33 +0.01    +0.064 A 
DOCKED: ATOM      3  C   UNL d   1     -12.851 -14.586  -7.285 -0.22 +0.01    +0.064 C 
DOCKED: ATOM      4  C   UNL d   1      -9.975 -17.734  -5.118 -0.10 +0.03    +0.064 C 
DOCKED: ATOM      5  C   UNL d   1      -9.603 -13.265  -2.057 -0.17 +0.04    +0.066 A 
DOCKED: ATOM      6  C   UNL d   1      -9.448 -12.055  -1.401 -0.29 -0.01    -0.021 A 
DOCKED: ATOM      7  C   UNL d   1     -10.255 -11.148  -2.042 -0.36 -0.01    -0.025 A 
DOCKED: ATOM      8  C   UNL d   1     -10.871 -11.840  -3.067 -0.26 +0.02    +0.066 A 
DOCKED: ATOM      9  C   UNL d   1     -10.403  -9.698  -1.696 -0.49 +0.01    +0.051 C 
DOCKED: ATOM     10  C   UNL d   1     -12.406 -11.879  -5.013 -0.30 +0.01    +0.066 A 
DOCKED: ATOM     11  C   UNL d   1     -13.416 -11.323  -5.801 -0.34 -0.00    -0.021 A 
DOCKED: ATOM     12  C   UNL d   1     -13.737 -12.272  -6.751 -0.26 +0.00    +0.000 A 
DOCKED: ATOM     13  C   UNL d   1     -12.903 -13.372  -6.485 -0.25 +0.01    +0.070 A 
DOCKED: ATOM     14  C   UNL d   1     -14.091  -9.979  -5.616 -0.38 +0.00    +0.052 C 
DOCKED: ATOM     15  C   UNL d   1     -12.088 -15.668  -7.003 -0.18 +0.01    +0.066 A 
DOCKED: ATOM     16  C   UNL d   1     -11.991 -16.768  -7.846 -0.18 -0.00    -0.021 A 
DOCKED: ATOM     17  C   UNL d   1     -11.165 -17.679  -7.221 -0.16 +0.00    +0.000 A 
DOCKED: ATOM     18  C   UNL d   1     -10.779 -17.114  -6.008 -0.14 +0.03    +0.070 A 
DOCKED: ATOM     19  C   UNL d   1     -12.668 -16.969  -9.175 -0.15 +0.01    +0.052 C 
DOCKED: ATOM     20  C   UNL d   1      -9.499 -17.146  -3.860 -0.07 +0.04    +0.066 A 
DOCKED: ATOM     21  C   UNL d   1      -8.834 -17.843  -2.841 -0.03 -0.02    -0.025 A 
DOCKED: ATOM     22  C   UNL d   1      -8.540 -16.905  -1.873 -0.04 -0.02    -0.021 A 
DOCKED: ATOM     23  C   UNL d   1      -9.039 -15.681  -2.334 -0.08 +0.05    +0.066 A 
DOCKED: ATOM     24  C   UNL d   1      -8.493 -19.313  -2.770 -0.01 +0.03    +0.051 C 
DOCKED: ATOM     25  N   UNL d   1     -10.465 -13.125  -3.079 -0.06 -0.10    -0.248 N 
DOCKED: ATOM     26  N   UNL d   1     -12.098 -13.137  -5.420 -0.13 -0.05    -0.248 N 
DOCKED: ATOM     27  N   UNL d   1     -11.311 -15.860  -5.892 -0.12 -0.08    -0.248 N 
DOCKED: ATOM     28  N   UNL d   1      -9.663 -15.844  -3.526 -0.06 -0.15    -0.248 N 
DOCKED: ATOM     29 FE   UNL d   1     -10.880 -14.492  -4.473 -0.04 +0.00    +0.000 Fe
DOCKED: ENDROOT
DOCKED: BRANCH   6  30
DOCKED: ATOM     30  C   UNL d   1      -8.564 -11.767  -0.236 -0.22 +0.03    +0.052 C 
DOCKED: BRANCH  30  31
DOCKED: ATOM     31  C   UNL d   1      -8.760 -12.806   0.862 -0.28 +0.09    +0.115 C 
DOCKED: BRANCH  31  32
DOCKED: ATOM     32  C   UNL d   1      -7.483 -13.009   1.629 -0.25 +0.20    +0.139 C 
DOCKED: ATOM     33  O   UNL d   1      -7.503 -13.169   2.841 -0.46 -1.06    -0.650 OA
DOCKED: BRANCH  32  34
DOCKED: ATOM     34  O   UNL d   1      -6.304 -13.017   0.985 -0.04 -1.42    -0.776 OA
DOCKED: ATOM     35  H   UNL d   1      -6.156 -13.667   0.284 +0.04 +0.31    +0.167 HD
DOCKED: ENDBRANCH  32  34
DOCKED: ENDBRANCH  31  32
DOCKED: ENDBRANCH  30  31
DOCKED: ENDBRANCH   6  30
DOCKED: BRANCH  22  36
DOCKED: ATOM     36  C   UNL d   1      -7.860 -17.182  -0.557 -0.02 +0.04    +0.052 C 
DOCKED: BRANCH  36  37
DOCKED: ATOM     37  C   UNL d   1      -6.350 -17.162  -0.745 -0.06 +0.14    +0.115 C 
DOCKED: BRANCH  37  38
DOCKED: ATOM     38  C   UNL d   1      -5.821 -15.756  -0.704 -0.06 +0.26    +0.139 C 
DOCKED: ATOM     39  O   UNL d   1      -6.242 -14.906  -1.475 -0.42 -1.54    -0.650 OA
DOCKED: BRANCH  38  40
DOCKED: ATOM     40  O   UNL d   1      -4.871 -15.423   0.188 -0.52 -1.78    -0.776 OA
DOCKED: ATOM     41  H   UNL d   1      -4.807 -14.504   0.485 +0.04 +0.48    +0.167 HD
DOCKED: ENDBRANCH  38  40
DOCKED: ENDBRANCH  37  38
DOCKED: ENDBRANCH  36  37
DOCKED: ENDBRANCH  22  36
DOCKED: BRANCH  12  42
DOCKED: ATOM     42  C   UNL d   1     -14.784 -12.107  -7.806 -0.22 +0.00    +0.004 C 
DOCKED: ATOM     43  C   UNL d   1     -14.473 -12.195  -9.106 -0.31 +0.00    +0.012 C 
DOCKED: ENDBRANCH  12  42
DOCKED: BRANCH  17  44
DOCKED: ATOM     44  C   UNL d   1     -10.754 -18.995  -7.760 -0.13 +0.00    +0.004 C 
DOCKED: ATOM     45  C   UNL d   1      -9.573 -19.148  -8.369 -0.19 +0.01    +0.012 C 
DOCKED: ENDBRANCH  17  44
DOCKED: TORSDOF 10
DOCKED: TER
DOCKED: ENDMDL
________________________________________________________________________________


	BEGINNING GENETIC ALGORITHM DOCKING 5 of 100
Run: 5 Seed: 1085632976 5030654 [ Run 5 of 100 GA/GALS ]
Beginning LAMARCKIAN GENETIC ALGORITHM (LGA), with a maximum of 25000000 energy evaluations.

Final-Value: -20.908


	FINAL GENETIC ALGORITHM DOCKED STATE
	_______________________________________________


Detailed state:  trans -4.981 -9.284 -3.239 quatxyzw -0.073588 -0.002714 0.668376 -0.740169 center -0.174 -0.001 -0.047 ntor 10 -55.8640 -32.1438 65.1400 -103.8795 36.0511 -155.2245 -32.3245 50.9496 -177.2169 150.6338
State:	 -4.981  -9.284  -3.239  -0.109 -0.004  0.994 -84.508    -55.86  -32.14   65.14 -103.88   36.05 -155.22  -32.32   50.95 -177.22  150.63

DOCKED: MODEL        5
DOCKED: USER    Run = 5
DOCKED: USER    DPF = D:/Protein_go_brrr/autodock/final/AncA/heme_Fe/dock.dpf
DOCKED: USER  
DOCKED: USER    Estimated Free Energy of Binding    =  -15.74 kcal/mol  [=(1)+(2)+(3)-(4)]
DOCKED: USER    Estimated Inhibition Constant, Ki   =    2.89 pM (picomolar)  [Temperature = 298.15 K]
DOCKED: USER    
DOCKED: USER    (1) Final Intermolecular Energy     =  -18.73 kcal/mol
DOCKED: USER        vdW + Hbond + desolv Energy     =  -14.05 kcal/mol
DOCKED: USER        Electrostatic Energy            =   -4.67 kcal/mol
DOCKED: USER    (2) Final Total Internal Energy     =   -2.18 kcal/mol
DOCKED: USER    (3) Torsional Free Energy           =   +2.98 kcal/mol
DOCKED: USER    (4) Unbound System's Energy  [=(2)] =   -2.18 kcal/mol
DOCKED: USER    
DOCKED: USER    
DOCKED: USER    NEWDPF move heme_Fe_opt.pdbqt
DOCKED: USER    NEWDPF about -0.174000 -0.001000 -0.047000
DOCKED: USER    NEWDPF tran0 -4.980550 -9.284032 -3.238762
DOCKED: USER    NEWDPF quaternion0 -0.073588 -0.002714 0.668376 -0.740169
DOCKED: USER    NEWDPF axisangle0 -0.109438 -0.004036 0.993985 -84.508348
DOCKED: USER    NEWDPF quat0 -0.109438 -0.004036 0.993985 -84.508348
DOCKED: USER    NEWDPF dihe0 -55.86 -32.14 65.14 -103.88 36.05 -155.22 -32.32 50.95 -177.22 150.63 
DOCKED: USER  keepresnum = 1 
DOCKED: USER  
DOCKED: REMARK  10 active torsions:
DOCKED: REMARK  status: ('A' for Active; 'I' for Inactive)
DOCKED: REMARK    1  A    between atoms: C_6  and  C_10 
DOCKED: REMARK    2  A    between atoms: C_10  and  C_11 
DOCKED: REMARK    3  A    between atoms: C_11  and  C_12 
DOCKED: REMARK    4  A    between atoms: C_12  and  O_14 
DOCKED: REMARK    5  A    between atoms: C_17  and  C_20 
DOCKED: REMARK    6  A    between atoms: C_24  and  C_27 
DOCKED: REMARK    7  A    between atoms: C_31  and  C_34 
DOCKED: REMARK    8  A    between atoms: C_34  and  C_35 
DOCKED: REMARK    9  A    between atoms: C_35  and  C_36 
DOCKED: REMARK   10  A    between atoms: C_36  and  O_38 
DOCKED: USER                              x       y       z     vdW  Elec       q    Type
DOCKED: USER                           _______ _______ _______ _____ _____    ______ ____
DOCKED: ROOT
DOCKED: ATOM      1  C   UNL d   1      -5.188 -11.194  -2.519 -0.36 +0.06    +0.064 C 
DOCKED: ATOM      2  C   UNL d   1      -1.490  -7.918  -2.681 -0.44 +0.02    +0.064 A 
DOCKED: ATOM      3  C   UNL d   1      -4.675  -4.480  -3.734 -0.34 +0.01    +0.064 C 
DOCKED: ATOM      4  C   UNL d   1      -8.254  -7.654  -3.685 -0.49 +0.02    +0.064 C 
DOCKED: ATOM      5  C   UNL d   1      -3.841 -10.607  -2.549 -0.34 +0.05    +0.066 A 
DOCKED: ATOM      6  C   UNL d   1      -2.663 -11.320  -2.400 -0.32 -0.02    -0.021 A 
DOCKED: ATOM      7  C   UNL d   1      -1.637 -10.409  -2.441 -0.24 -0.01    -0.025 A 
DOCKED: ATOM      8  C   UNL d   1      -2.229  -9.173  -2.615 -0.38 +0.03    +0.066 A 
DOCKED: ATOM      9  C   UNL d   1      -0.176 -10.721  -2.339 -0.31 +0.02    +0.051 C 
DOCKED: ATOM     10  C   UNL d   1      -2.031  -6.720  -2.905 -0.42 +0.02    +0.066 A 
DOCKED: ATOM     11  C   UNL d   1      -1.313  -5.523  -2.849 -0.46 -0.00    -0.021 A 
DOCKED: ATOM     12  C   UNL d   1      -2.213  -4.514  -3.132 -0.41 +0.00    +0.000 A 
DOCKED: ATOM     13  C   UNL d   1      -3.447  -5.154  -3.341 -0.37 +0.01    +0.070 A 
DOCKED: ATOM     14  C   UNL d   1       0.144  -5.342  -2.476 -0.45 +0.00    +0.052 C 
DOCKED: ATOM     15  C   UNL d   1      -5.877  -5.085  -3.885 -0.39 +0.01    +0.066 A 
DOCKED: ATOM     16  C   UNL d   1      -7.004  -4.425  -4.358 -0.46 -0.00    -0.021 A 
DOCKED: ATOM     17  C   UNL d   1      -8.038  -5.337  -4.341 -0.48 +0.00    +0.000 A 
DOCKED: ATOM     18  C   UNL d   1      -7.518  -6.534  -3.854 -0.41 +0.02    +0.070 A 
DOCKED: ATOM     19  C   UNL d   1      -7.113  -2.986  -4.785 -0.63 +0.01    +0.052 C 
DOCKED: ATOM     20  C   UNL d   1      -7.728  -8.947  -3.233 -0.35 +0.02    +0.066 A 
DOCKED: ATOM     21  C   UNL d   1      -8.506 -10.054  -2.865 -0.33 -0.01    -0.025 A 
DOCKED: ATOM     22  C   UNL d   1      -7.612 -11.056  -2.548 -0.19 -0.01    -0.021 A 
DOCKED: ATOM     23  C   UNL d   1      -6.330 -10.522  -2.729 -0.17 +0.04    +0.066 A 
DOCKED: ATOM     24  C   UNL d   1     -10.011 -10.171  -2.806 -0.47 +0.01    +0.051 C 
DOCKED: ATOM     25  N   UNL d   1      -3.569  -9.298  -2.690 -0.24 -0.12    -0.248 N 
DOCKED: ATOM     26  N   UNL d   1      -3.339  -6.497  -3.194 -0.25 -0.07    -0.248 N 
DOCKED: ATOM     27  N   UNL d   1      -6.180  -6.392  -3.614 -0.23 -0.10    -0.248 N 
DOCKED: ATOM     28  N   UNL d   1      -6.407  -9.222  -3.104 -0.21 -0.12    -0.248 N 
DOCKED: ATOM     29 FE   UNL d   1      -4.875  -7.859  -3.149 -0.09 +0.00    +0.000 Fe
DOCKED: ENDROOT
DOCKED: BRANCH   6  30
DOCKED: ATOM     30  C   UNL d   1      -2.516 -12.796  -2.247 -0.20 +0.08    +0.052 C 
DOCKED: BRANCH  30  31
DOCKED: ATOM     31  C   UNL d   1      -2.608 -13.198  -0.779 -0.18 +0.15    +0.115 C 
DOCKED: BRANCH  31  32
DOCKED: ATOM     32  C   UNL d   1      -3.232 -14.560  -0.645 -0.16 +0.25    +0.139 C 
DOCKED: ATOM     33  O   UNL d   1      -3.008 -15.432  -1.473 +0.02 -1.35    -0.650 OA
DOCKED: BRANCH  32  34
DOCKED: ATOM     34  O   UNL d   1      -4.045 -14.831   0.390 -0.04 -1.83    -0.776 OA
DOCKED: ATOM     35  H   UNL d   1      -4.940 -15.152   0.212 +0.02 +0.41    +0.167 HD
DOCKED: ENDBRANCH  32  34
DOCKED: ENDBRANCH  31  32
DOCKED: ENDBRANCH  30  31
DOCKED: ENDBRANCH   6  30
DOCKED: BRANCH  22  36
DOCKED: ATOM     36  C   UNL d   1      -7.971 -12.432  -2.053 -0.27 +0.04    +0.052 C 
DOCKED: BRANCH  36  37
DOCKED: ATOM     37  C   UNL d   1      -7.521 -12.591  -0.608 -0.22 +0.11    +0.115 C 
DOCKED: BRANCH  37  38
DOCKED: ATOM     38  C   UNL d   1      -6.732 -13.857  -0.426 -0.19 +0.21    +0.139 C 
DOCKED: ATOM     39  O   UNL d   1      -6.664 -14.399   0.667 -0.25 -1.28    -0.650 OA
DOCKED: BRANCH  38  40
DOCKED: ATOM     40  O   UNL d   1      -6.088 -14.403  -1.473 -0.17 -1.86    -0.776 OA
DOCKED: ATOM     41  H   UNL d   1      -5.259 -14.877  -1.319 +0.04 +0.49    +0.167 HD
DOCKED: ENDBRANCH  38  40
DOCKED: ENDBRANCH  37  38
DOCKED: ENDBRANCH  36  37
DOCKED: ENDBRANCH  22  36
DOCKED: BRANCH  12  42
DOCKED: ATOM     42  C   UNL d   1      -1.880  -3.057  -3.172 -0.42 +0.00    +0.004 C 
DOCKED: ATOM     43  C   UNL d   1      -1.920  -2.372  -4.323 -0.56 +0.00    +0.012 C 
DOCKED: ENDBRANCH  12  42
DOCKED: BRANCH  17  44
DOCKED: ATOM     44  C   UNL d   1      -9.429  -5.086  -4.783 -0.55 +0.00    +0.004 C 
DOCKED: ATOM     45  C   UNL d   1     -10.105  -4.020  -4.342 -0.68 +0.00    +0.012 C 
DOCKED: ENDBRANCH  17  44
DOCKED: TORSDOF 10
DOCKED: TER
DOCKED: ENDMDL
________________________________________________________________________________


	BEGINNING GENETIC ALGORITHM DOCKING 6 of 100
Run: 6 Seed: 333851644 2016407356 [ Run 6 of 100 GA/GALS ]
Beginning LAMARCKIAN GENETIC ALGORITHM (LGA), with a maximum of 25000000 energy evaluations.

Final-Value: -18.927


	FINAL GENETIC ALGORITHM DOCKED STATE
	_______________________________________________


Detailed state:  trans -5.079 -9.237 -3.246 quatxyzw 0.073469 0.000563 -0.670359 0.738391 center -0.174 -0.001 -0.047 ntor 10 -29.8493 11.7689 61.7374 -101.9514 -158.7980 26.2675 -16.1081 71.3701 179.8983 147.5886
State:	 -5.079  -9.237  -3.246   0.109  0.001 -0.994 84.811    -29.85   11.77   61.74 -101.95 -158.80   26.27  -16.11   71.37  179.90  147.59

DOCKED: MODEL        6
DOCKED: USER    Run = 6
DOCKED: USER    DPF = D:/Protein_go_brrr/autodock/final/AncA/heme_Fe/dock.dpf
DOCKED: USER  
DOCKED: USER    Estimated Free Energy of Binding    =  -15.29 kcal/mol  [=(1)+(2)+(3)-(4)]
DOCKED: USER    Estimated Inhibition Constant, Ki   =    6.21 pM (picomolar)  [Temperature = 298.15 K]
DOCKED: USER    
DOCKED: USER    (1) Final Intermolecular Energy     =  -18.27 kcal/mol
DOCKED: USER        vdW + Hbond + desolv Energy     =  -13.74 kcal/mol
DOCKED: USER        Electrostatic Energy            =   -4.53 kcal/mol
DOCKED: USER    (2) Final Total Internal Energy     =   -0.66 kcal/mol
DOCKED: USER    (3) Torsional Free Energy           =   +2.98 kcal/mol
DOCKED: USER    (4) Unbound System's Energy  [=(2)] =   -0.66 kcal/mol
DOCKED: USER    
DOCKED: USER    
DOCKED: USER    NEWDPF move heme_Fe_opt.pdbqt
DOCKED: USER    NEWDPF about -0.174000 -0.001000 -0.047000
DOCKED: USER    NEWDPF tran0 -5.078514 -9.237409 -3.246246
DOCKED: USER    NEWDPF quaternion0 0.073469 0.000563 -0.670359 0.738391
DOCKED: USER    NEWDPF axisangle0 0.108945 0.000835 -0.994047 84.811018
DOCKED: USER    NEWDPF quat0 0.108945 0.000835 -0.994047 84.811018
DOCKED: USER    NEWDPF dihe0 -29.85 11.77 61.74 -101.95 -158.80 26.27 -16.11 71.37 179.90 147.59 
DOCKED: USER  keepresnum = 1 
DOCKED: USER  
DOCKED: REMARK  10 active torsions:
DOCKED: REMARK  status: ('A' for Active; 'I' for Inactive)
DOCKED: REMARK    1  A    between atoms: C_6  and  C_10 
DOCKED: REMARK    2  A    between atoms: C_10  and  C_11 
DOCKED: REMARK    3  A    between atoms: C_11  and  C_12 
DOCKED: REMARK    4  A    between atoms: C_12  and  O_14 
DOCKED: REMARK    5  A    between atoms: C_17  and  C_20 
DOCKED: REMARK    6  A    between atoms: C_24  and  C_27 
DOCKED: REMARK    7  A    between atoms: C_31  and  C_34 
DOCKED: REMARK    8  A    between atoms: C_34  and  C_35 
DOCKED: REMARK    9  A    between atoms: C_35  and  C_36 
DOCKED: REMARK   10  A    between atoms: C_36  and  O_38 
DOCKED: USER                              x       y       z     vdW  Elec       q    Type
DOCKED: USER                           _______ _______ _______ _____ _____    ______ ____
DOCKED: ROOT
DOCKED: ATOM      1  C   UNL d   1      -5.274 -11.147  -2.520 -0.36 +0.06    +0.064 C 
DOCKED: ATOM      2  C   UNL d   1      -1.593  -7.853  -2.705 -0.44 +0.02    +0.064 A 
DOCKED: ATOM      3  C   UNL d   1      -4.798  -4.434  -3.756 -0.34 +0.01    +0.064 C 
DOCKED: ATOM      4  C   UNL d   1      -8.362  -7.625  -3.686 -0.49 +0.02    +0.064 C 
DOCKED: ATOM      5  C   UNL d   1      -3.930 -10.552  -2.557 -0.34 +0.05    +0.066 A 
DOCKED: ATOM      6  C   UNL d   1      -2.748 -11.260  -2.410 -0.32 -0.02    -0.021 A 
DOCKED: ATOM      7  C   UNL d   1      -1.727 -10.344  -2.458 -0.25 -0.01    -0.025 A 
DOCKED: ATOM      8  C   UNL d   1      -2.325  -9.111  -2.633 -0.38 +0.03    +0.066 A 
DOCKED: ATOM      9  C   UNL d   1      -0.263 -10.647  -2.359 -0.29 +0.02    +0.051 C 
DOCKED: ATOM     10  C   UNL d   1      -2.141  -6.657  -2.931 -0.42 +0.02    +0.066 A 
DOCKED: ATOM     11  C   UNL d   1      -1.429  -5.457  -2.881 -0.45 -0.00    -0.021 A 
DOCKED: ATOM     12  C   UNL d   1      -2.334  -4.454  -3.164 -0.40 +0.00    +0.000 A 
DOCKED: ATOM     13  C   UNL d   1      -3.566  -5.100  -3.366 -0.37 +0.01    +0.070 A 
DOCKED: ATOM     14  C   UNL d   1       0.029  -5.267  -2.514 -0.51 +0.00    +0.052 C 
DOCKED: ATOM     15  C   UNL d   1      -5.998  -5.045  -3.901 -0.39 +0.01    +0.066 A 
DOCKED: ATOM     16  C   UNL d   1      -7.130  -4.392  -4.372 -0.46 -0.00    -0.021 A 
DOCKED: ATOM     17  C   UNL d   1      -8.160  -5.309  -4.349 -0.48 +0.00    +0.000 A 
DOCKED: ATOM     18  C   UNL d   1      -7.632  -6.502  -3.860 -0.42 +0.02    +0.070 A 
DOCKED: ATOM     19  C   UNL d   1      -7.248  -2.954  -4.804 -0.63 +0.01    +0.052 C 
DOCKED: ATOM     20  C   UNL d   1      -7.828  -8.914  -3.232 -0.36 +0.02    +0.066 A 
DOCKED: ATOM     21  C   UNL d   1      -8.599 -10.024  -2.857 -0.34 -0.01    -0.025 A 
DOCKED: ATOM     22  C   UNL d   1      -7.698 -11.020  -2.541 -0.20 -0.01    -0.021 A 
DOCKED: ATOM     23  C   UNL d   1      -6.420 -10.480  -2.728 -0.14 +0.04    +0.066 A 
DOCKED: ATOM     24  C   UNL d   1     -10.103 -10.148  -2.792 -0.48 +0.01    +0.051 C 
DOCKED: ATOM     25  N   UNL d   1      -3.665  -9.242  -2.702 -0.24 -0.12    -0.248 N 
DOCKED: ATOM     26  N   UNL d   1      -3.451  -6.442  -3.215 -0.25 -0.07    -0.248 N 
DOCKED: ATOM     27  N   UNL d   1      -6.293  -6.353  -3.626 -0.25 -0.09    -0.248 N 
DOCKED: ATOM     28  N   UNL d   1      -6.505  -9.182  -3.106 -0.21 -0.12    -0.248 N 
DOCKED: ATOM     29 FE   UNL d   1      -4.980  -7.812  -3.161 -0.09 +0.00    +0.000 Fe
DOCKED: ENDROOT
DOCKED: BRANCH   6  30
DOCKED: ATOM     30  C   UNL d   1      -2.593 -12.734  -2.253 -0.17 +0.08    +0.052 C 
DOCKED: BRANCH  30  31
DOCKED: ATOM     31  C   UNL d   1      -2.607 -13.125  -0.779 -0.18 +0.15    +0.115 C 
DOCKED: BRANCH  31  32
DOCKED: ATOM     32  C   UNL d   1      -2.843 -14.602  -0.629 -0.18 +0.23    +0.139 C 
DOCKED: ATOM     33  O   UNL d   1      -3.267 -15.061   0.422 -0.03 -1.20    -0.650 OA
DOCKED: BRANCH  32  34
DOCKED: ATOM     34  O   UNL d   1      -2.590 -15.433  -1.653 -0.02 -1.48    -0.776 OA
DOCKED: ATOM     35  H   UNL d   1      -2.320 -16.343  -1.464 +0.02 +0.23    +0.167 HD
DOCKED: ENDBRANCH  32  34
DOCKED: ENDBRANCH  31  32
DOCKED: ENDBRANCH  30  31
DOCKED: ENDBRANCH   6  30
DOCKED: BRANCH  22  36
DOCKED: ATOM     36  C   UNL d   1      -8.049 -12.396  -2.040 -0.27 +0.04    +0.052 C 
DOCKED: BRANCH  36  37
DOCKED: ATOM     37  C   UNL d   1      -7.526 -12.575  -0.622 -0.22 +0.11    +0.115 C 
DOCKED: BRANCH  37  38
DOCKED: ATOM     38  C   UNL d   1      -6.373 -13.538  -0.591 -0.22 +0.21    +0.139 C 
DOCKED: ATOM     39  O   UNL d   1      -5.667 -13.700  -1.575 +0.18 -1.54    -0.650 OA
DOCKED: BRANCH  38  40
DOCKED: ATOM     40  O   UNL d   1      -6.111 -14.235   0.529 -0.24 -1.79    -0.776 OA
DOCKED: ATOM     41  H   UNL d   1      -5.277 -14.720   0.596 +0.05 +0.52    +0.167 HD
DOCKED: ENDBRANCH  38  40
DOCKED: ENDBRANCH  37  38
DOCKED: ENDBRANCH  36  37
DOCKED: ENDBRANCH  22  36
DOCKED: BRANCH  12  42
DOCKED: ATOM     42  C   UNL d   1      -2.009  -2.995  -3.210 -0.36 +0.00    +0.004 C 
DOCKED: ATOM     43  C   UNL d   1      -1.991  -2.328  -4.371 -0.57 +0.00    +0.012 C 
DOCKED: ENDBRANCH  12  42
DOCKED: BRANCH  17  44
DOCKED: ATOM     44  C   UNL d   1      -9.553  -5.066  -4.787 -0.56 +0.00    +0.004 C 
DOCKED: ATOM     45  C   UNL d   1     -10.220  -3.983  -4.377 -0.68 +0.00    +0.012 C 
DOCKED: ENDBRANCH  17  44
DOCKED: TORSDOF 10
DOCKED: TER
DOCKED: ENDMDL
________________________________________________________________________________


	BEGINNING GENETIC ALGORITHM DOCKING 7 of 100
Run: 7 Seed: 927458811 255097233 [ Run 7 of 100 GA/GALS ]
Beginning LAMARCKIAN GENETIC ALGORITHM (LGA), with a maximum of 25000000 energy evaluations.

Final-Value: -20.281


	FINAL GENETIC ALGORITHM DOCKED STATE
	_______________________________________________


Detailed state:  trans -4.992 -9.123 -3.257 quatxyzw -0.075996 0.004848 0.667400 -0.740796 center -0.174 -0.001 -0.047 ntor 10 -150.6903 -45.5077 72.6011 -105.1202 48.5465 137.7535 -35.6589 62.5129 -173.7440 -180.0000
State:	 -4.992  -9.123  -3.257  -0.113  0.007  0.994 -84.402   -150.69  -45.51   72.60 -105.12   48.55  137.75  -35.66   62.51 -173.74 -180.00

DOCKED: MODEL        7
DOCKED: USER    Run = 7
DOCKED: USER    DPF = D:/Protein_go_brrr/autodock/final/AncA/heme_Fe/dock.dpf
DOCKED: USER  
DOCKED: USER    Estimated Free Energy of Binding    =  -15.34 kcal/mol  [=(1)+(2)+(3)-(4)]
DOCKED: USER    Estimated Inhibition Constant, Ki   =    5.74 pM (picomolar)  [Temperature = 298.15 K]
DOCKED: USER    
DOCKED: USER    (1) Final Intermolecular Energy     =  -18.32 kcal/mol
DOCKED: USER        vdW + Hbond + desolv Energy     =  -14.40 kcal/mol
DOCKED: USER        Electrostatic Energy            =   -3.92 kcal/mol
DOCKED: USER    (2) Final Total Internal Energy     =   -1.96 kcal/mol
DOCKED: USER    (3) Torsional Free Energy           =   +2.98 kcal/mol
DOCKED: USER    (4) Unbound System's Energy  [=(2)] =   -1.96 kcal/mol
DOCKED: USER    
DOCKED: USER    
DOCKED: USER    NEWDPF move heme_Fe_opt.pdbqt
DOCKED: USER    NEWDPF about -0.174000 -0.001000 -0.047000
DOCKED: USER    NEWDPF tran0 -4.992045 -9.122626 -3.257334
DOCKED: USER    NEWDPF quaternion0 -0.075996 0.004848 0.667400 -0.740796
DOCKED: USER    NEWDPF axisangle0 -0.113135 0.007217 0.993553 -84.401514
DOCKED: USER    NEWDPF quat0 -0.113135 0.007217 0.993553 -84.401514
DOCKED: USER    NEWDPF dihe0 -150.69 -45.51 72.60 -105.12 48.55 137.75 -35.66 62.51 -173.74 -180.00 
DOCKED: USER  keepresnum = 1 
DOCKED: USER  
DOCKED: REMARK  10 active torsions:
DOCKED: REMARK  status: ('A' for Active; 'I' for Inactive)
DOCKED: REMARK    1  A    between atoms: C_6  and  C_10 
DOCKED: REMARK    2  A    between atoms: C_10  and  C_11 
DOCKED: REMARK    3  A    between atoms: C_11  and  C_12 
DOCKED: REMARK    4  A    between atoms: C_12  and  O_14 
DOCKED: REMARK    5  A    between atoms: C_17  and  C_20 
DOCKED: REMARK    6  A    between atoms: C_24  and  C_27 
DOCKED: REMARK    7  A    between atoms: C_31  and  C_34 
DOCKED: REMARK    8  A    between atoms: C_34  and  C_35 
DOCKED: REMARK    9  A    between atoms: C_35  and  C_36 
DOCKED: REMARK   10  A    between atoms: C_36  and  O_38 
DOCKED: USER                              x       y       z     vdW  Elec       q    Type
DOCKED: USER                           _______ _______ _______ _____ _____    ______ ____
DOCKED: ROOT
DOCKED: ATOM      1  C   UNL d   1      -5.200 -11.022  -2.510 -0.36 +0.06    +0.064 C 
DOCKED: ATOM      2  C   UNL d   1      -1.493  -7.762  -2.746 -0.44 +0.02    +0.064 A 
DOCKED: ATOM      3  C   UNL d   1      -4.674  -4.327  -3.820 -0.33 +0.01    +0.064 C 
DOCKED: ATOM      4  C   UNL d   1      -8.264  -7.487  -3.701 -0.49 +0.02    +0.064 C 
DOCKED: ATOM      5  C   UNL d   1      -3.852 -10.440  -2.559 -0.34 +0.05    +0.066 A 
DOCKED: ATOM      6  C   UNL d   1      -2.675 -11.156  -2.409 -0.32 -0.02    -0.021 A 
DOCKED: ATOM      7  C   UNL d   1      -1.646 -10.249  -2.471 -0.25 -0.01    -0.025 A 
DOCKED: ATOM      8  C   UNL d   1      -2.235  -9.013  -2.657 -0.39 +0.03    +0.066 A 
DOCKED: ATOM      9  C   UNL d   1      -0.185 -10.563  -2.375 -0.28 +0.02    +0.051 C 
DOCKED: ATOM     10  C   UNL d   1      -2.032  -6.564  -2.982 -0.42 +0.02    +0.066 A 
DOCKED: ATOM     11  C   UNL d   1      -1.309  -5.369  -2.948 -0.46 -0.00    -0.021 A 
DOCKED: ATOM     12  C   UNL d   1      -2.207  -4.362  -3.238 -0.41 +0.00    +0.000 A 
DOCKED: ATOM     13  C   UNL d   1      -3.445  -5.000  -3.427 -0.37 +0.01    +0.070 A 
DOCKED: ATOM     14  C   UNL d   1       0.152  -5.188  -2.588 -0.53 +0.00    +0.052 C 
DOCKED: ATOM     15  C   UNL d   1      -5.879  -4.929  -3.953 -0.39 +0.01    +0.066 A 
DOCKED: ATOM     16  C   UNL d   1      -7.008  -4.272  -4.426 -0.47 -0.00    -0.021 A 
DOCKED: ATOM     17  C   UNL d   1      -8.045  -5.181  -4.390 -0.48 +0.00    +0.000 A 
DOCKED: ATOM     18  C   UNL d   1      -7.525  -6.372  -3.890 -0.41 +0.02    +0.070 A 
DOCKED: ATOM     19  C   UNL d   1      -7.115  -2.838  -4.872 -0.63 +0.01    +0.052 C 
DOCKED: ATOM     20  C   UNL d   1      -7.738  -8.776  -3.235 -0.36 +0.02    +0.066 A 
DOCKED: ATOM     21  C   UNL d   1      -8.517  -9.875  -2.845 -0.34 -0.01    -0.025 A 
DOCKED: ATOM     22  C   UNL d   1      -7.624 -10.876  -2.522 -0.15 -0.01    -0.021 A 
DOCKED: ATOM     23  C   UNL d   1      -6.342 -10.349  -2.720 -0.11 +0.04    +0.066 A 
DOCKED: ATOM     24  C   UNL d   1     -10.022  -9.986  -2.773 -0.49 +0.01    +0.051 C 
DOCKED: ATOM     25  N   UNL d   1      -3.576  -9.134  -2.719 -0.25 -0.11    -0.248 N 
DOCKED: ATOM     26  N   UNL d   1      -3.341  -6.341  -3.263 -0.25 -0.07    -0.248 N 
DOCKED: ATOM     27  N   UNL d   1      -6.184  -6.232  -3.663 -0.24 -0.09    -0.248 N 
DOCKED: ATOM     28  N   UNL d   1      -6.418  -9.054  -3.112 -0.22 -0.12    -0.248 N 
DOCKED: ATOM     29 FE   UNL d   1      -4.881  -7.697  -3.188 -0.09 +0.00    +0.000 Fe
DOCKED: ENDROOT
DOCKED: BRANCH   6  30
DOCKED: ATOM     30  C   UNL d   1      -2.532 -12.629  -2.237 -0.26 +0.07    +0.052 C 
DOCKED: BRANCH  30  31
DOCKED: ATOM     31  C   UNL d   1      -2.699 -13.021  -0.773 -0.17 +0.15    +0.115 C 
DOCKED: BRANCH  31  32
DOCKED: ATOM     32  C   UNL d   1      -3.398 -14.347  -0.660 -0.16 +0.26    +0.139 C 
DOCKED: ATOM     33  O   UNL d   1      -3.031 -15.304  -1.328 +0.03 -1.31    -0.650 OA
DOCKED: BRANCH  32  34
DOCKED: ATOM     34  O   UNL d   1      -4.437 -14.493   0.180 -0.30 -1.82    -0.776 OA
DOCKED: ATOM     35  H   UNL d   1      -4.994 -13.727   0.374 +0.04 +0.39    +0.167 HD
DOCKED: ENDBRANCH  32  34
DOCKED: ENDBRANCH  31  32
DOCKED: ENDBRANCH  30  31
DOCKED: ENDBRANCH   6  30
DOCKED: BRANCH  22  36
DOCKED: ATOM     36  C   UNL d   1      -7.984 -12.243  -2.005 -0.28 +0.04    +0.052 C 
DOCKED: BRANCH  36  37
DOCKED: ATOM     37  C   UNL d   1      -8.217 -12.179  -0.503 -0.23 +0.09    +0.115 C 
DOCKED: BRANCH  37  38
DOCKED: ATOM     38  C   UNL d   1      -7.237 -13.049   0.232 -0.22 +0.17    +0.139 C 
DOCKED: ATOM     39  O   UNL d   1      -6.702 -12.659   1.259 -0.40 -1.04    -0.650 OA
DOCKED: BRANCH  38  40
DOCKED: ATOM     40  O   UNL d   1      -6.936 -14.271  -0.243 -0.02 -1.14    -0.776 OA
DOCKED: ATOM     41  H   UNL d   1      -6.010 -14.547  -0.280 +0.03 +0.32    +0.167 HD
DOCKED: ENDBRANCH  38  40
DOCKED: ENDBRANCH  37  38
DOCKED: ENDBRANCH  36  37
DOCKED: ENDBRANCH  22  36
DOCKED: BRANCH  12  42
DOCKED: ATOM     42  C   UNL d   1      -1.870  -2.906  -3.300 -0.42 +0.00    +0.004 C 
DOCKED: ATOM     43  C   UNL d   1      -2.058  -2.202  -4.424 -0.58 +0.00    +0.012 C 
DOCKED: ENDBRANCH  12  42
DOCKED: BRANCH  17  44
DOCKED: ATOM     44  C   UNL d   1      -9.438  -4.931  -4.824 -0.52 +0.00    +0.004 C 
DOCKED: ATOM     45  C   UNL d   1     -10.116  -3.870  -4.373 -0.70 +0.00    +0.012 C 
DOCKED: ENDBRANCH  17  44
DOCKED: TORSDOF 10
DOCKED: TER
DOCKED: ENDMDL
________________________________________________________________________________


	BEGINNING GENETIC ALGORITHM DOCKING 8 of 100
Run: 8 Seed: 1553253139 1542166542 [ Run 8 of 100 GA/GALS ]
Beginning LAMARCKIAN GENETIC ALGORITHM (LGA), with a maximum of 25000000 energy evaluations.

Final-Value: -16.820


	FINAL GENETIC ALGORITHM DOCKED STATE
	_______________________________________________


Detailed state:  trans -5.224 -10.997 -2.107 quatxyzw 0.129621 -0.076502 -0.754976 0.638245 center -0.174 -0.001 -0.047 ntor 10 76.4722 38.3735 28.4559 58.5445 168.3050 85.8726 62.8192 132.9187 3.1548 -148.4521
State:	 -5.224 -10.997  -2.107   0.168 -0.099 -0.981 100.678     76.47   38.37   28.46   58.54  168.30   85.87   62.82  132.92    3.15 -148.45

DOCKED: MODEL        8
DOCKED: USER    Run = 8
DOCKED: USER    DPF = D:/Protein_go_brrr/autodock/final/AncA/heme_Fe/dock.dpf
DOCKED: USER  
DOCKED: USER    Estimated Free Energy of Binding    =  -13.38 kcal/mol  [=(1)+(2)+(3)-(4)]
DOCKED: USER    Estimated Inhibition Constant, Ki   =  156.81 pM (picomolar)  [Temperature = 298.15 K]
DOCKED: USER    
DOCKED: USER    (1) Final Intermolecular Energy     =  -16.36 kcal/mol
DOCKED: USER        vdW + Hbond + desolv Energy     =  -12.62 kcal/mol
DOCKED: USER        Electrostatic Energy            =   -3.74 kcal/mol
DOCKED: USER    (2) Final Total Internal Energy     =   -0.46 kcal/mol
DOCKED: USER    (3) Torsional Free Energy           =   +2.98 kcal/mol
DOCKED: USER    (4) Unbound System's Energy  [=(2)] =   -0.46 kcal/mol
DOCKED: USER    
DOCKED: USER    
DOCKED: USER    NEWDPF move heme_Fe_opt.pdbqt
DOCKED: USER    NEWDPF about -0.174000 -0.001000 -0.047000
DOCKED: USER    NEWDPF tran0 -5.224176 -10.997326 -2.106717
DOCKED: USER    NEWDPF quaternion0 0.129621 -0.076502 -0.754976 0.638245
DOCKED: USER    NEWDPF axisangle0 0.168375 -0.099375 -0.980701 100.677806
DOCKED: USER    NEWDPF quat0 0.168375 -0.099375 -0.980701 100.677806
DOCKED: USER    NEWDPF dihe0 76.47 38.37 28.46 58.54 168.30 85.87 62.82 132.92 3.15 -148.45 
DOCKED: USER  keepresnum = 1 
DOCKED: USER  
DOCKED: REMARK  10 active torsions:
DOCKED: REMARK  status: ('A' for Active; 'I' for Inactive)
DOCKED: REMARK    1  A    between atoms: C_6  and  C_10 
DOCKED: REMARK    2  A    between atoms: C_10  and  C_11 
DOCKED: REMARK    3  A    between atoms: C_11  and  C_12 
DOCKED: REMARK    4  A    between atoms: C_12  and  O_14 
DOCKED: REMARK    5  A    between atoms: C_17  and  C_20 
DOCKED: REMARK    6  A    between atoms: C_24  and  C_27 
DOCKED: REMARK    7  A    between atoms: C_31  and  C_34 
DOCKED: REMARK    8  A    between atoms: C_34  and  C_35 
DOCKED: REMARK    9  A    between atoms: C_35  and  C_36 
DOCKED: REMARK   10  A    between atoms: C_36  and  O_38 
DOCKED: USER                              x       y       z     vdW  Elec       q    Type
DOCKED: USER                           _______ _______ _______ _____ _____    ______ ____
DOCKED: ROOT
DOCKED: ATOM      1  C   UNL d   1      -4.918 -12.707  -1.015 -0.29 +0.10    +0.064 C 
DOCKED: ATOM      2  C   UNL d   1      -2.182  -8.738  -2.105 -0.44 +0.02    +0.064 A 
DOCKED: ATOM      3  C   UNL d   1      -6.165  -6.476  -3.550 -0.31 +0.03    +0.064 C 
DOCKED: ATOM      4  C   UNL d   1      -8.816 -10.343  -2.600 -0.37 +0.02    +0.064 C 
DOCKED: ATOM      5  C   UNL d   1      -3.767 -11.829  -1.266 -0.29 +0.08    +0.066 A 
DOCKED: ATOM      6  C   UNL d   1      -2.442 -12.187  -1.075 -0.27 -0.02    -0.021 A 
DOCKED: ATOM      7  C   UNL d   1      -1.684 -11.083  -1.374 -0.32 -0.02    -0.025 A 
DOCKED: ATOM      8  C   UNL d   1      -2.575 -10.092  -1.737 -0.38 +0.04    +0.066 A 
DOCKED: ATOM      9  C   UNL d   1      -0.189 -11.001  -1.330 -0.37 +0.02    +0.051 C 
DOCKED: ATOM     10  C   UNL d   1      -3.017  -7.781  -2.515 -0.40 +0.02    +0.066 A 
DOCKED: ATOM     11  C   UNL d   1      -2.626  -6.460  -2.750 -0.40 -0.01    -0.021 A 
DOCKED: ATOM     12  C   UNL d   1      -3.760  -5.783  -3.152 -0.42 +0.00    +0.000 A 
DOCKED: ATOM     13  C   UNL d   1      -4.796  -6.733  -3.132 -0.21 +0.03    +0.070 A 
DOCKED: ATOM     14  C   UNL d   1      -1.253  -5.856  -2.536 -0.44 +0.01    +0.052 C 
DOCKED: ATOM     15  C   UNL d   1      -7.178  -7.372  -3.484 -0.38 +0.03    +0.066 A 
DOCKED: ATOM     16  C   UNL d   1      -8.448  -7.120  -3.985 -0.46 -0.01    -0.021 A 
DOCKED: ATOM     17  C   UNL d   1      -9.216  -8.233  -3.710 -0.50 +0.00    +0.000 A 
DOCKED: ATOM     18  C   UNL d   1      -8.394  -9.138  -3.041 -0.36 +0.02    +0.070 A 
DOCKED: ATOM     19  C   UNL d   1      -8.932  -5.873  -4.675 -0.42 +0.01    +0.052 C 
DOCKED: ATOM     20  C   UNL d   1      -7.966 -11.346  -1.948 -0.18 +0.04    +0.066 A 
DOCKED: ATOM     21  C   UNL d   1      -8.426 -12.507  -1.310 -0.23 -0.02    -0.025 A 
DOCKED: ATOM     22  C   UNL d   1      -7.297 -13.172  -0.877 -0.22 -0.02    -0.021 A 
DOCKED: ATOM     23  C   UNL d   1      -6.199 -12.392  -1.260 -0.24 +0.08    +0.066 A 
DOCKED: ATOM     24  C   UNL d   1      -9.849 -12.972  -1.110 -0.24 +0.03    +0.051 C 
DOCKED: ATOM     25  N   UNL d   1      -3.841 -10.552  -1.680 -0.22 -0.18    -0.248 N 
DOCKED: ATOM     26  N   UNL d   1      -4.346  -7.948  -2.736 -0.24 -0.11    -0.248 N 
DOCKED: ATOM     27  N   UNL d   1      -7.130  -8.628  -2.941 -0.15 -0.10    -0.248 N 
DOCKED: ATOM     28  N   UNL d   1      -6.616 -11.258  -1.873 +0.05 -0.20    -0.248 N 
DOCKED: ATOM     29 FE   UNL d   1      -5.483  -9.603  -2.305 -0.08 +0.00    +0.000 Fe
DOCKED: ENDROOT
DOCKED: BRANCH   6  30
DOCKED: ATOM     30  C   UNL d   1      -1.920 -13.517  -0.650 -0.22 +0.06    +0.052 C 
DOCKED: BRANCH  30  31
DOCKED: ATOM     31  C   UNL d   1      -1.588 -14.380  -1.862 -0.16 +0.15    +0.115 C 
DOCKED: BRANCH  31  32
DOCKED: ATOM     32  C   UNL d   1      -2.452 -15.609  -1.886 +0.21 +0.26    +0.139 C 
DOCKED: ATOM     33  O   UNL d   1      -2.497 -16.321  -2.880 -0.40 -1.45    -0.650 OA
DOCKED: BRANCH  32  34
DOCKED: ATOM     34  O   UNL d   1      -3.188 -15.938  -0.811 -0.01 -1.29    -0.776 OA
DOCKED: ATOM     35  H   UNL d   1      -2.887 -16.659  -0.239 +0.02 +0.21    +0.167 HD
DOCKED: ENDBRANCH  32  34
DOCKED: ENDBRANCH  31  32
DOCKED: ENDBRANCH  30  31
DOCKED: ENDBRANCH   6  30
DOCKED: BRANCH  22  36
DOCKED: ATOM     36  C   UNL d   1      -7.280 -14.460  -0.096 -0.16 +0.07    +0.052 C 
DOCKED: BRANCH  36  37
DOCKED: ATOM     37  C   UNL d   1      -8.196 -14.339   1.113 -0.14 +0.13    +0.115 C 
DOCKED: BRANCH  37  38
DOCKED: ATOM     38  C   UNL d   1      -7.937 -13.060   1.859 -0.28 +0.17    +0.139 C 
DOCKED: ATOM     39  O   UNL d   1      -8.489 -12.021   1.529 -0.49 -0.58    -0.650 OA
DOCKED: BRANCH  38  40
DOCKED: ATOM     40  O   UNL d   1      -7.087 -13.052   2.901 -0.36 -1.59    -0.776 OA
DOCKED: ATOM     41  H   UNL d   1      -7.295 -12.507   3.672 +0.08 +0.22    +0.167 HD
DOCKED: ENDBRANCH  38  40
DOCKED: ENDBRANCH  37  38
DOCKED: ENDBRANCH  36  37
DOCKED: ENDBRANCH  22  36
DOCKED: BRANCH  12  42
DOCKED: ATOM     42  C   UNL d   1      -3.811  -4.330  -3.501 -0.30 +0.00    +0.004 C 
DOCKED: ATOM     43  C   UNL d   1      -3.340  -3.886  -4.673 -0.50 +0.00    +0.012 C 
DOCKED: ENDBRANCH  12  42
DOCKED: BRANCH  17  44
DOCKED: ATOM     44  C   UNL d   1     -10.636  -8.426  -4.079 -0.54 +0.00    +0.004 C 
DOCKED: ATOM     45  C   UNL d   1     -10.989  -9.344  -4.985 -0.58 +0.00    +0.012 C 
DOCKED: ENDBRANCH  17  44
DOCKED: TORSDOF 10
DOCKED: TER
DOCKED: ENDMDL
________________________________________________________________________________


	BEGINNING GENETIC ALGORITHM DOCKING 9 of 100
Run: 9 Seed: 292894803 1514924761 [ Run 9 of 100 GA/GALS ]
Beginning LAMARCKIAN GENETIC ALGORITHM (LGA), with a maximum of 25000000 energy evaluations.

Final-Value: -19.325


	FINAL GENETIC ALGORITHM DOCKED STATE
	_______________________________________________


Detailed state:  trans -5.300 -8.655 -3.388 quatxyzw 0.095279 -0.000656 -0.634972 0.766637 center -0.174 -0.001 -0.047 ntor 10 28.5447 -112.6731 75.7170 -137.3312 133.0258 -178.1151 -52.7639 29.6516 -170.1840 -155.1279
State:	 -5.300  -8.655  -3.388   0.148 -0.001 -0.989 79.894     28.54 -112.67   75.72 -137.33  133.03 -178.12  -52.76   29.65 -170.18 -155.13

DOCKED: MODEL        9
DOCKED: USER    Run = 9
DOCKED: USER    DPF = D:/Protein_go_brrr/autodock/final/AncA/heme_Fe/dock.dpf
DOCKED: USER  
DOCKED: USER    Estimated Free Energy of Binding    =  -14.78 kcal/mol  [=(1)+(2)+(3)-(4)]
DOCKED: USER    Estimated Inhibition Constant, Ki   =   14.59 pM (picomolar)  [Temperature = 298.15 K]
DOCKED: USER    
DOCKED: USER    (1) Final Intermolecular Energy     =  -17.77 kcal/mol
DOCKED: USER        vdW + Hbond + desolv Energy     =  -14.62 kcal/mol
DOCKED: USER        Electrostatic Energy            =   -3.14 kcal/mol
DOCKED: USER    (2) Final Total Internal Energy     =   -1.56 kcal/mol
DOCKED: USER    (3) Torsional Free Energy           =   +2.98 kcal/mol
DOCKED: USER    (4) Unbound System's Energy  [=(2)] =   -1.56 kcal/mol
DOCKED: USER    
DOCKED: USER    
DOCKED: USER    NEWDPF move heme_Fe_opt.pdbqt
DOCKED: USER    NEWDPF about -0.174000 -0.001000 -0.047000
DOCKED: USER    NEWDPF tran0 -5.300250 -8.655036 -3.388209
DOCKED: USER    NEWDPF quaternion0 0.095279 -0.000656 -0.634972 0.766637
DOCKED: USER    NEWDPF axisangle0 0.148391 -0.001021 -0.988928 79.894359
DOCKED: USER    NEWDPF quat0 0.148391 -0.001021 -0.988928 79.894359
DOCKED: USER    NEWDPF dihe0 28.54 -112.67 75.72 -137.33 133.03 -178.12 -52.76 29.65 -170.18 -155.13 
DOCKED: USER  keepresnum = 1 
DOCKED: USER  
DOCKED: REMARK  10 active torsions:
DOCKED: REMARK  status: ('A' for Active; 'I' for Inactive)
DOCKED: REMARK    1  A    between atoms: C_6  and  C_10 
DOCKED: REMARK    2  A    between atoms: C_10  and  C_11 
DOCKED: REMARK    3  A    between atoms: C_11  and  C_12 
DOCKED: REMARK    4  A    between atoms: C_12  and  O_14 
DOCKED: REMARK    5  A    between atoms: C_17  and  C_20 
DOCKED: REMARK    6  A    between atoms: C_24  and  C_27 
DOCKED: REMARK    7  A    between atoms: C_31  and  C_34 
DOCKED: REMARK    8  A    between atoms: C_34  and  C_35 
DOCKED: REMARK    9  A    between atoms: C_35  and  C_36 
DOCKED: REMARK   10  A    between atoms: C_36  and  O_38 
DOCKED: USER                              x       y       z     vdW  Elec       q    Type
DOCKED: USER                           _______ _______ _______ _____ _____    ______ ____
DOCKED: ROOT
DOCKED: ATOM      1  C   UNL d   1      -5.690 -10.516  -2.616 -0.25 +0.05    +0.064 C 
DOCKED: ATOM      2  C   UNL d   1      -1.722  -7.572  -2.769 -0.45 +0.02    +0.064 A 
DOCKED: ATOM      3  C   UNL d   1      -4.570  -3.914  -4.024 -0.21 +0.01    +0.064 C 
DOCKED: ATOM      4  C   UNL d   1      -8.408  -6.769  -3.984 -0.50 +0.02    +0.064 C 
DOCKED: ATOM      5  C   UNL d   1      -4.298 -10.046  -2.624 -0.34 +0.04    +0.066 A 
DOCKED: ATOM      6  C   UNL d   1      -3.190 -10.851  -2.417 -0.35 -0.02    -0.021 A 
DOCKED: ATOM      7  C   UNL d   1      -2.089 -10.033  -2.456 -0.33 -0.01    -0.025 A 
DOCKED: ATOM      8  C   UNL d   1      -2.567  -8.757  -2.686 -0.39 +0.02    +0.066 A 
DOCKED: ATOM      9  C   UNL d   1      -0.663 -10.463  -2.299 -0.35 +0.02    +0.051 C 
DOCKED: ATOM     10  C   UNL d   1      -2.152  -6.340  -3.046 -0.41 +0.02    +0.066 A 
DOCKED: ATOM     11  C   UNL d   1      -1.336  -5.208  -3.006 -0.45 -0.00    -0.021 A 
DOCKED: ATOM     12  C   UNL d   1      -2.137  -4.137  -3.348 -0.41 +0.00    +0.000 A 
DOCKED: ATOM     13  C   UNL d   1      -3.416  -4.676  -3.573 -0.36 +0.01    +0.070 A 
DOCKED: ATOM     14  C   UNL d   1       0.121  -5.139  -2.595 -0.54 +0.00    +0.052 C 
DOCKED: ATOM     15  C   UNL d   1      -5.815  -4.419  -4.192 -0.39 +0.01    +0.066 A 
DOCKED: ATOM     16  C   UNL d   1      -6.868  -3.682  -4.719 -0.51 -0.00    -0.021 A 
DOCKED: ATOM     17  C   UNL d   1      -7.977  -4.502  -4.705 -0.49 +0.00    +0.000 A 
DOCKED: ATOM     18  C   UNL d   1      -7.574  -5.722  -4.165 -0.41 +0.02    +0.070 A 
DOCKED: ATOM     19  C   UNL d   1      -6.841  -2.254  -5.194 -0.41 +0.00    +0.052 C 
DOCKED: ATOM     20  C   UNL d   1      -8.008  -8.086  -3.476 -0.41 +0.02    +0.066 A 
DOCKED: ATOM     21  C   UNL d   1      -8.888  -9.110  -3.097 -0.43 -0.01    -0.025 A 
DOCKED: ATOM     22  C   UNL d   1      -8.092 -10.173  -2.722 -0.26 -0.01    -0.021 A 
DOCKED: ATOM     23  C   UNL d   1      -6.765  -9.756  -2.881 +0.06 +0.03    +0.066 A 
DOCKED: ATOM     24  C   UNL d   1     -10.399  -9.097  -3.079 -0.55 +0.01    +0.051 C 
DOCKED: ATOM     25  N   UNL d   1      -3.911  -8.770  -2.797 -0.23 -0.11    -0.248 N 
DOCKED: ATOM     26  N   UNL d   1      -3.427  -6.018  -3.381 -0.25 -0.06    -0.248 N 
DOCKED: ATOM     27  N   UNL d   1      -6.236  -5.686  -3.890 -0.25 -0.07    -0.248 N 
DOCKED: ATOM     28  N   UNL d   1      -6.720  -8.467  -3.298 -0.24 -0.11    -0.248 N 
DOCKED: ATOM     29 FE   UNL d   1      -5.075  -7.242  -3.340 -0.09 +0.00    +0.000 Fe
DOCKED: ENDROOT
DOCKED: BRANCH   6  30
DOCKED: ATOM     30  C   UNL d   1      -3.174 -12.328  -2.213 -0.13 +0.08    +0.052 C 
DOCKED: BRANCH  30  31
DOCKED: ATOM     31  C   UNL d   1      -3.513 -12.678  -0.768 -0.13 +0.16    +0.115 C 
DOCKED: BRANCH  31  32
DOCKED: ATOM     32  C   UNL d   1      -4.636 -13.676  -0.718 -0.12 +0.28    +0.139 C 
DOCKED: ATOM     33  O   UNL d   1      -4.560 -14.664  -0.001 -0.44 -1.51    -0.650 OA
DOCKED: BRANCH  32  34
DOCKED: ATOM     34  O   UNL d   1      -5.737 -13.491  -1.465 -0.00 -1.60    -0.776 OA
DOCKED: ATOM     35  H   UNL d   1      -6.581 -13.850  -1.154 +0.04 +0.27    +0.167 HD
DOCKED: ENDBRANCH  32  34
DOCKED: ENDBRANCH  31  32
DOCKED: ENDBRANCH  30  31
DOCKED: ENDBRANCH   6  30
DOCKED: BRANCH  22  36
DOCKED: ATOM     36  C   UNL d   1      -8.581 -11.496  -2.195 -0.31 +0.03    +0.052 C 
DOCKED: BRANCH  36  37
DOCKED: ATOM     37  C   UNL d   1      -9.420 -11.272  -0.945 -0.35 +0.05    +0.115 C 
DOCKED: BRANCH  37  38
DOCKED: ATOM     38  C   UNL d   1      -9.343 -12.457  -0.025 -0.27 +0.09    +0.139 C 
DOCKED: ATOM     39  O   UNL d   1      -9.978 -12.480   1.019 -0.61 -0.44    -0.650 OA
DOCKED: BRANCH  38  40
DOCKED: ATOM     40  O   UNL d   1      -8.566 -13.507  -0.347 +0.08 -0.63    -0.776 OA
DOCKED: ATOM     41  H   UNL d   1      -7.605 -13.393  -0.363 +0.06 +0.18    +0.167 HD
DOCKED: ENDBRANCH  38  40
DOCKED: ENDBRANCH  37  38
DOCKED: ENDBRANCH  36  37
DOCKED: ENDBRANCH  22  36
DOCKED: BRANCH  12  42
DOCKED: ATOM     42  C   UNL d   1      -1.680  -2.715  -3.423 -0.51 +0.00    +0.004 C 
DOCKED: ATOM     43  C   UNL d   1      -1.825  -2.002  -4.548 -0.61 +0.00    +0.012 C 
DOCKED: ENDBRANCH  12  42
DOCKED: BRANCH  17  44
DOCKED: ATOM     44  C   UNL d   1      -9.328  -4.149  -5.196 -0.37 +0.00    +0.004 C 
DOCKED: ATOM     45  C   UNL d   1     -10.185  -3.479  -4.419 -0.73 +0.00    +0.012 C 
DOCKED: ENDBRANCH  17  44
DOCKED: TORSDOF 10
DOCKED: TER
DOCKED: ENDMDL
________________________________________________________________________________


	BEGINNING GENETIC ALGORITHM DOCKING 10 of 100
Run: 10 Seed: 596106994 133978245 [ Run 10 of 100 GA/GALS ]
Beginning LAMARCKIAN GENETIC ALGORITHM (LGA), with a maximum of 25000000 energy evaluations.

Final-Value: -18.969


	FINAL GENETIC ALGORITHM DOCKED STATE
	_______________________________________________


Detailed state:  trans -4.760 -9.319 -2.380 quatxyzw -0.682702 -0.711471 0.079836 0.146129 center -0.174 -0.001 -0.047 ntor 10 66.5873 1.4413 51.6866 -138.6455 -162.7938 -100.5715 26.1327 -0.3053 -49.1884 -162.5657
State:	 -4.760  -9.319  -2.380  -0.690 -0.719  0.081 163.195     66.59    1.44   51.69 -138.65 -162.79 -100.57   26.13   -0.31  -49.19 -162.57

DOCKED: MODEL       10
DOCKED: USER    Run = 10
DOCKED: USER    DPF = D:/Protein_go_brrr/autodock/final/AncA/heme_Fe/dock.dpf
DOCKED: USER  
DOCKED: USER    Estimated Free Energy of Binding    =  -15.74 kcal/mol  [=(1)+(2)+(3)-(4)]
DOCKED: USER    Estimated Inhibition Constant, Ki   =    2.88 pM (picomolar)  [Temperature = 298.15 K]
DOCKED: USER    
DOCKED: USER    (1) Final Intermolecular Energy     =  -18.73 kcal/mol
DOCKED: USER        vdW + Hbond + desolv Energy     =  -14.70 kcal/mol
DOCKED: USER        Electrostatic Energy            =   -4.03 kcal/mol
DOCKED: USER    (2) Final Total Internal Energy     =   -0.24 kcal/mol
DOCKED: USER    (3) Torsional Free Energy           =   +2.98 kcal/mol
DOCKED: USER    (4) Unbound System's Energy  [=(2)] =   -0.24 kcal/mol
DOCKED: USER    
DOCKED: USER    
DOCKED: USER    NEWDPF move heme_Fe_opt.pdbqt
DOCKED: USER    NEWDPF about -0.174000 -0.001000 -0.047000
DOCKED: USER    NEWDPF tran0 -4.759559 -9.318584 -2.380064
DOCKED: USER    NEWDPF quaternion0 -0.682702 -0.711471 0.079836 0.146129
DOCKED: USER    NEWDPF axisangle0 -0.690110 -0.719191 0.080702 163.194649
DOCKED: USER    NEWDPF quat0 -0.690110 -0.719191 0.080702 163.194649
DOCKED: USER    NEWDPF dihe0 66.59 1.44 51.69 -138.65 -162.79 -100.57 26.13 -0.31 -49.19 -162.57 
DOCKED: USER  keepresnum = 1 
DOCKED: USER  
DOCKED: REMARK  10 active torsions:
DOCKED: REMARK  status: ('A' for Active; 'I' for Inactive)
DOCKED: REMARK    1  A    between atoms: C_6  and  C_10 
DOCKED: REMARK    2  A    between atoms: C_10  and  C_11 
DOCKED: REMARK    3  A    between atoms: C_11  and  C_12 
DOCKED: REMARK    4  A    between atoms: C_12  and  O_14 
DOCKED: REMARK    5  A    between atoms: C_17  and  C_20 
DOCKED: REMARK    6  A    between atoms: C_24  and  C_27 
DOCKED: REMARK    7  A    between atoms: C_31  and  C_34 
DOCKED: REMARK    8  A    between atoms: C_34  and  C_35 
DOCKED: REMARK    9  A    between atoms: C_35  and  C_36 
DOCKED: REMARK   10  A    between atoms: C_36  and  O_38 
DOCKED: USER                              x       y       z     vdW  Elec       q    Type
DOCKED: USER                           _______ _______ _______ _____ _____    ______ ____
DOCKED: ROOT
DOCKED: ATOM      1  C   UNL d   1      -4.716 -11.367  -2.260 -0.36 +0.07    +0.064 C 
DOCKED: ATOM      2  C   UNL d   1      -8.134  -8.027  -3.520 -0.42 +0.02    +0.064 A 
DOCKED: ATOM      3  C   UNL d   1      -4.671  -4.719  -3.880 -0.43 +0.01    +0.064 C 
DOCKED: ATOM      4  C   UNL d   1      -1.360  -7.910  -2.560 -0.50 +0.02    +0.064 C 
DOCKED: ATOM      5  C   UNL d   1      -6.010 -10.713  -2.500 -0.07 +0.05    +0.066 A 
DOCKED: ATOM      6  C   UNL d   1      -7.243 -11.331  -2.373 -0.22 -0.02    -0.021 A 
DOCKED: ATOM      7  C   UNL d   1      -8.192 -10.404  -2.727 -0.28 -0.01    -0.025 A 
DOCKED: ATOM      8  C   UNL d   1      -7.500  -9.254  -3.056 -0.22 +0.03    +0.066 A 
DOCKED: ATOM      9  C   UNL d   1      -9.675 -10.614  -2.727 -0.41 +0.02    +0.051 C 
DOCKED: ATOM     10  C   UNL d   1      -7.496  -6.887  -3.788 -0.42 +0.02    +0.066 A 
DOCKED: ATOM     11  C   UNL d   1      -8.116  -5.763  -4.340 -0.46 -0.00    -0.021 A 
DOCKED: ATOM     12  C   UNL d   1      -7.134  -4.800  -4.470 -0.48 +0.00    +0.000 A 
DOCKED: ATOM     13  C   UNL d   1      -5.953  -5.395  -3.993 -0.38 +0.02    +0.070 A 
DOCKED: ATOM     14  C   UNL d   1      -9.558  -5.635  -4.787 -0.45 +0.01    +0.052 C 
DOCKED: ATOM     15  C   UNL d   1      -3.520  -5.303  -3.470 -0.38 +0.01    +0.066 A 
DOCKED: ATOM     16  C   UNL d   1      -2.338  -4.598  -3.280 -0.40 -0.00    -0.021 A 
DOCKED: ATOM     17  C   UNL d   1      -1.380  -5.517  -2.903 -0.47 +0.00    +0.000 A 
DOCKED: ATOM     18  C   UNL d   1      -2.001  -6.764  -2.876 -0.42 +0.02    +0.070 A 
DOCKED: ATOM     19  C   UNL d   1      -2.107  -3.123  -3.470 -0.38 +0.01    +0.052 C 
DOCKED: ATOM     20  C   UNL d   1      -1.994  -9.230  -2.461 -0.39 +0.03    +0.066 A 
DOCKED: ATOM     21  C   UNL d   1      -1.312 -10.449  -2.333 -0.29 -0.01    -0.025 A 
DOCKED: ATOM     22  C   UNL d   1      -2.288 -11.419  -2.236 -0.31 -0.02    -0.021 A 
DOCKED: ATOM     23  C   UNL d   1      -3.520 -10.759  -2.315 -0.33 +0.05    +0.066 A 
DOCKED: ATOM     24  C   UNL d   1       0.178 -10.698  -2.306 -0.32 +0.02    +0.051 C 
DOCKED: ATOM     25  N   UNL d   1      -6.174  -9.443  -2.907 -0.13 -0.13    -0.248 N 
DOCKED: ATOM     26  N   UNL d   1      -6.171  -6.670  -3.586 -0.16 -0.11    -0.248 N 
DOCKED: ATOM     27  N   UNL d   1      -3.326  -6.627  -3.182 -0.25 -0.07    -0.248 N 
DOCKED: ATOM     28  N   UNL d   1      -3.334  -9.429  -2.497 -0.25 -0.12    -0.248 N 
DOCKED: ATOM     29 FE   UNL d   1      -4.751  -8.049  -3.041 -0.09 +0.00    +0.000 Fe
DOCKED: ENDROOT
DOCKED: BRANCH   6  30
DOCKED: ATOM     30  C   UNL d   1      -7.511 -12.725  -1.919 -0.26 +0.05    +0.052 C 
DOCKED: BRANCH  30  31
DOCKED: ATOM     31  C   UNL d   1      -6.594 -13.101  -0.760 -0.24 +0.15    +0.115 C 
DOCKED: BRANCH  31  32
DOCKED: ATOM     32  C   UNL d   1      -6.386 -14.590  -0.715 -0.13 +0.25    +0.139 C 
DOCKED: ATOM     33  O   UNL d   1      -5.953 -15.129   0.294 -0.51 -1.45    -0.650 OA
DOCKED: BRANCH  32  34
DOCKED: ATOM     34  O   UNL d   1      -6.676 -15.344  -1.789 -0.53 -1.64    -0.776 OA
DOCKED: ATOM     35  H   UNL d   1      -7.406 -15.976  -1.735 +0.02 +0.22    +0.167 HD
DOCKED: ENDBRANCH  32  34
DOCKED: ENDBRANCH  31  32
DOCKED: ENDBRANCH  30  31
DOCKED: ENDBRANCH   6  30
DOCKED: BRANCH  22  36
DOCKED: ATOM     36  C   UNL d   1      -2.047 -12.901  -2.124 -0.26 +0.07    +0.052 C 
DOCKED: BRANCH  36  37
DOCKED: ATOM     37  C   UNL d   1      -1.402 -13.415  -3.403 -0.19 +0.13    +0.115 C 
DOCKED: BRANCH  37  38
DOCKED: ATOM     38  C   UNL d   1      -1.123 -14.888  -3.312 -0.16 +0.17    +0.139 C 
DOCKED: ATOM     39  O   UNL d   1       0.001 -15.297  -3.063 +0.03 -0.49    -0.650 OA
DOCKED: BRANCH  38  40
DOCKED: ATOM     40  O   UNL d   1      -2.117 -15.773  -3.508 -0.28 -1.64    -0.776 OA
DOCKED: ATOM     41  H   UNL d   1      -1.927 -16.718  -3.430 +0.02 +0.25    +0.167 HD
DOCKED: ENDBRANCH  38  40
DOCKED: ENDBRANCH  37  38
DOCKED: ENDBRANCH  36  37
DOCKED: ENDBRANCH  22  36
DOCKED: BRANCH  12  42
DOCKED: ATOM     42  C   UNL d   1      -7.348  -3.430  -5.031 -0.64 +0.00    +0.004 C 
DOCKED: ATOM     43  C   UNL d   1      -7.504  -2.372  -4.225 -0.67 +0.00    +0.012 C 
DOCKED: ENDBRANCH  12  42
DOCKED: BRANCH  17  44
DOCKED: ATOM     44  C   UNL d   1       0.031  -5.219  -2.570 -0.57 +0.00    +0.004 C 
DOCKED: ATOM     45  C   UNL d   1       0.957  -5.129  -3.531 -0.65 +0.00    +0.012 C 
DOCKED: ENDBRANCH  17  44
DOCKED: TORSDOF 10
DOCKED: TER
DOCKED: ENDMDL
________________________________________________________________________________


	BEGINNING GENETIC ALGORITHM DOCKING 11 of 100
Run: 11 Seed: 580651072 2082498388 [ Run 11 of 100 GA/GALS ]
Beginning LAMARCKIAN GENETIC ALGORITHM (LGA), with a maximum of 25000000 energy evaluations.

Final-Value: -12.245


	FINAL GENETIC ALGORITHM DOCKED STATE
	_______________________________________________


Detailed state:  trans 0.656 5.367 -14.593 quatxyzw -0.500944 0.235477 -0.832027 0.036553 center -0.174 -0.001 -0.047 ntor 10 74.2195 -51.6227 -114.6537 45.5336 167.6259 88.9427 -72.8243 85.4291 177.0805 -176.5616
State:	  0.656   5.367 -14.593  -0.501  0.236 -0.833 175.810     74.22  -51.62 -114.65   45.53  167.63   88.94  -72.82   85.43  177.08 -176.56

DOCKED: MODEL       11
DOCKED: USER    Run = 11
DOCKED: USER    DPF = D:/Protein_go_brrr/autodock/final/AncA/heme_Fe/dock.dpf
DOCKED: USER  
DOCKED: USER    Estimated Free Energy of Binding    =   -6.95 kcal/mol  [=(1)+(2)+(3)-(4)]
DOCKED: USER    Estimated Inhibition Constant, Ki   =    8.03 uM (micromolar)  [Temperature = 298.15 K]
DOCKED: USER    
DOCKED: USER    (1) Final Intermolecular Energy     =   -9.93 kcal/mol
DOCKED: USER        vdW + Hbond + desolv Energy     =   -7.48 kcal/mol
DOCKED: USER        Electrostatic Energy            =   -2.45 kcal/mol
DOCKED: USER    (2) Final Total Internal Energy     =   -2.31 kcal/mol
DOCKED: USER    (3) Torsional Free Energy           =   +2.98 kcal/mol
DOCKED: USER    (4) Unbound System's Energy  [=(2)] =   -2.31 kcal/mol
DOCKED: USER    
DOCKED: USER    
DOCKED: USER    NEWDPF move heme_Fe_opt.pdbqt
DOCKED: USER    NEWDPF about -0.174000 -0.001000 -0.047000
DOCKED: USER    NEWDPF tran0 0.655808 5.367399 -14.593267
DOCKED: USER    NEWDPF quaternion0 -0.500944 0.235477 -0.832027 0.036553
DOCKED: USER    NEWDPF axisangle0 -0.501279 0.235635 -0.832584 175.810417
DOCKED: USER    NEWDPF quat0 -0.501279 0.235635 -0.832584 175.810417
DOCKED: USER    NEWDPF dihe0 74.22 -51.62 -114.65 45.53 167.63 88.94 -72.82 85.43 177.08 -176.56 
DOCKED: USER  keepresnum = 1 
DOCKED: USER  
DOCKED: REMARK  10 active torsions:
DOCKED: REMARK  status: ('A' for Active; 'I' for Inactive)
DOCKED: REMARK    1  A    between atoms: C_6  and  C_10 
DOCKED: REMARK    2  A    between atoms: C_10  and  C_11 
DOCKED: REMARK    3  A    between atoms: C_11  and  C_12 
DOCKED: REMARK    4  A    between atoms: C_12  and  O_14 
DOCKED: REMARK    5  A    between atoms: C_17  and  C_20 
DOCKED: REMARK    6  A    between atoms: C_24  and  C_27 
DOCKED: REMARK    7  A    between atoms: C_31  and  C_34 
DOCKED: REMARK    8  A    between atoms: C_34  and  C_35 
DOCKED: REMARK    9  A    between atoms: C_35  and  C_36 
DOCKED: REMARK   10  A    between atoms: C_36  and  O_38 
DOCKED: USER                              x       y       z     vdW  Elec       q    Type
DOCKED: USER                           _______ _______ _______ _____ _____    ______ ____
DOCKED: ROOT
DOCKED: ATOM      1  C   UNL d   1       2.089   5.539 -16.052 -0.08 +0.01    +0.064 C 
DOCKED: ATOM      2  C   UNL d   1       1.108   7.930 -11.839 -0.12 +0.00    +0.064 A 
DOCKED: ATOM      3  C   UNL d   1      -1.815   4.339 -10.562 -0.35 +0.01    +0.064 C 
DOCKED: ATOM      4  C   UNL d   1      -0.961   2.058 -14.679 -0.26 -0.00    +0.064 C 
DOCKED: ATOM      5  C   UNL d   1       2.019   6.584 -15.022 -0.08 +0.01    +0.066 A 
DOCKED: ATOM      6  C   UNL d   1       2.646   7.817 -15.102 -0.07 -0.00    -0.021 A 
DOCKED: ATOM      7  C   UNL d   1       2.376   8.479 -13.930 -0.03 -0.00    -0.025 A 
DOCKED: ATOM      8  C   UNL d   1       1.594   7.624 -13.178 -0.10 +0.01    +0.066 A 
DOCKED: ATOM      9  C   UNL d   1       2.831   9.860 -13.571 -0.06 +0.01    +0.051 C 
DOCKED: ATOM     10  C   UNL d   1       0.305   7.147 -11.115 -0.02 +0.00    +0.066 A 
DOCKED: ATOM     11  C   UNL d   1      -0.050   7.415  -9.791 -0.23 +0.01    -0.021 A 
DOCKED: ATOM     12  C   UNL d   1      -0.879   6.385  -9.394 -0.32 -0.00    +0.000 A 
DOCKED: ATOM     13  C   UNL d   1      -0.981   5.529 -10.505 -0.25 +0.01    +0.070 A 
DOCKED: ATOM     14  C   UNL d   1       0.432   8.559  -8.923 -0.13 -0.06    +0.052 C 
DOCKED: ATOM     15  C   UNL d   1      -1.876   3.484 -11.610 -0.28 +0.01    +0.066 A 
DOCKED: ATOM     16  C   UNL d   1      -2.759   2.413 -11.665 -0.34 -0.00    -0.021 A 
DOCKED: ATOM     17  C   UNL d   1      -2.512   1.752 -12.851 -0.37 +0.00    +0.000 A 
DOCKED: ATOM     18  C   UNL d   1      -1.479   2.434 -13.490 -0.26 +0.00    +0.070 A 
DOCKED: ATOM     19  C   UNL d   1      -3.778   2.009 -10.634 -0.49 +0.00    +0.052 C 
DOCKED: ATOM     20  C   UNL d   1       0.083   2.786 -15.411 -0.05 -0.01    +0.066 A 
DOCKED: ATOM     21  C   UNL d   1       0.767   2.306 -16.537 -0.09 +0.00    -0.025 A 
DOCKED: ATOM     22  C   UNL d   1       1.622   3.319 -16.919 -0.10 -0.00    -0.021 A 
DOCKED: ATOM     23  C   UNL d   1       1.432   4.369 -16.012 -0.10 +0.01    +0.066 A 
DOCKED: ATOM     24  C   UNL d   1       0.634   0.966 -17.222 +0.05 +0.00    +0.051 C 
DOCKED: ATOM     25  N   UNL d   1       1.371   6.476 -13.849 -0.07 -0.04    -0.248 N 
DOCKED: ATOM     26  N   UNL d   1      -0.252   5.989 -11.552 -0.09 -0.03    -0.248 N 
DOCKED: ATOM     27  N   UNL d   1      -1.117   3.524 -12.749 -0.16 -0.02    -0.248 N 
DOCKED: ATOM     28  N   UNL d   1       0.524   4.020 -15.068 -0.09 -0.00    -0.248 N 
DOCKED: ATOM     29 FE   UNL d   1       0.135   5.003 -13.311 -0.04 +0.00    +0.000 Fe
DOCKED: ENDROOT
DOCKED: BRANCH   6  30
DOCKED: ATOM     30  C   UNL d   1       3.443   8.350 -16.243 -0.06 +0.01    +0.052 C 
DOCKED: BRANCH  30  31
DOCKED: ATOM     31  C   UNL d   1       4.927   8.058 -16.048 -0.12 +0.05    +0.115 C 
DOCKED: BRANCH  31  32
DOCKED: ATOM     32  C   UNL d   1       5.380   6.977 -16.990 -0.13 +0.10    +0.139 C 
DOCKED: ATOM     33  O   UNL d   1       6.570   6.753 -17.155 -0.11 -0.72    -0.650 OA
DOCKED: BRANCH  32  34
DOCKED: ATOM     34  O   UNL d   1       4.475   6.246 -17.661 +0.01 -0.42    -0.776 OA
DOCKED: ATOM     35  H   UNL d   1       4.311   5.333 -17.386 +0.03 +0.11    +0.167 HD
DOCKED: ENDBRANCH  32  34
DOCKED: ENDBRANCH  31  32
DOCKED: ENDBRANCH  30  31
DOCKED: ENDBRANCH   6  30
DOCKED: BRANCH  22  36
DOCKED: ATOM     36  C   UNL d   1       2.601   3.260 -18.062 -0.07 +0.01    +0.052 C 
DOCKED: BRANCH  36  37
DOCKED: ATOM     37  C   UNL d   1       3.842   2.490 -17.635 -0.10 +0.04    +0.115 C 
DOCKED: BRANCH  37  38
DOCKED: ATOM     38  C   UNL d   1       4.920   3.424 -17.164 -0.12 +0.14    +0.139 C 
DOCKED: ATOM     39  O   UNL d   1       4.982   3.767 -15.992 -0.28 -0.92    -0.650 OA
DOCKED: BRANCH  38  40
DOCKED: ATOM     40  O   UNL d   1       5.829   3.895 -18.036 -0.19 -0.97    -0.776 OA
DOCKED: ATOM     41  H   UNL d   1       5.982   4.849 -18.086 +0.01 +0.21    +0.167 HD
DOCKED: ENDBRANCH  38  40
DOCKED: ENDBRANCH  37  38
DOCKED: ENDBRANCH  36  37
DOCKED: ENDBRANCH  22  36
DOCKED: BRANCH  12  42
DOCKED: ATOM     42  C   UNL d   1      -1.493   6.255  -8.037 -0.32 -0.00    +0.004 C 
DOCKED: ATOM     43  C   UNL d   1      -0.735   6.030  -6.956 -0.64 -0.01    +0.012 C 
DOCKED: ENDBRANCH  12  42
DOCKED: BRANCH  17  44
DOCKED: ATOM     44  C   UNL d   1      -3.231   0.557 -13.348 -0.47 -0.00    +0.004 C 
DOCKED: ATOM     45  C   UNL d   1      -4.202   0.673 -14.260 -0.36 -0.00    +0.012 C 
DOCKED: ENDBRANCH  17  44
DOCKED: TORSDOF 10
DOCKED: TER
DOCKED: ENDMDL
________________________________________________________________________________


	BEGINNING GENETIC ALGORITHM DOCKING 12 of 100
Run: 12 Seed: 466135924 993372478 [ Run 12 of 100 GA/GALS ]
Beginning LAMARCKIAN GENETIC ALGORITHM (LGA), with a maximum of 25000000 energy evaluations.

Final-Value: -19.397


	FINAL GENETIC ALGORITHM DOCKED STATE
	_______________________________________________


Detailed state:  trans -5.506 -8.624 -3.354 quatxyzw 0.098349 -0.013902 -0.630590 0.769734 center -0.174 -0.001 -0.047 ntor 10 -139.8344 50.2322 76.3524 -141.2326 44.6102 -104.6486 -13.8457 36.5888 -160.3414 -171.6808
State:	 -5.506  -8.624  -3.354   0.154 -0.022 -0.988 79.340   -139.83   50.23   76.35 -141.23   44.61 -104.65  -13.85   36.59 -160.34 -171.68

DOCKED: MODEL       12
DOCKED: USER    Run = 12
DOCKED: USER    DPF = D:/Protein_go_brrr/autodock/final/AncA/heme_Fe/dock.dpf
DOCKED: USER  
DOCKED: USER    Estimated Free Energy of Binding    =  -14.86 kcal/mol  [=(1)+(2)+(3)-(4)]
DOCKED: USER    Estimated Inhibition Constant, Ki   =   12.85 pM (picomolar)  [Temperature = 298.15 K]
DOCKED: USER    
DOCKED: USER    (1) Final Intermolecular Energy     =  -17.84 kcal/mol
DOCKED: USER        vdW + Hbond + desolv Energy     =  -14.59 kcal/mol
DOCKED: USER        Electrostatic Energy            =   -3.25 kcal/mol
DOCKED: USER    (2) Final Total Internal Energy     =   -1.56 kcal/mol
DOCKED: USER    (3) Torsional Free Energy           =   +2.98 kcal/mol
DOCKED: USER    (4) Unbound System's Energy  [=(2)] =   -1.56 kcal/mol
DOCKED: USER    
DOCKED: USER    
DOCKED: USER    NEWDPF move heme_Fe_opt.pdbqt
DOCKED: USER    NEWDPF about -0.174000 -0.001000 -0.047000
DOCKED: USER    NEWDPF tran0 -5.506008 -8.624298 -3.353652
DOCKED: USER    NEWDPF quaternion0 0.098349 -0.013902 -0.630590 0.769734
DOCKED: USER    NEWDPF axisangle0 0.154064 -0.021777 -0.987821 79.340043
DOCKED: USER    NEWDPF quat0 0.154064 -0.021777 -0.987821 79.340043
DOCKED: USER    NEWDPF dihe0 -139.83 50.23 76.35 -141.23 44.61 -104.65 -13.85 36.59 -160.34 -171.68 
DOCKED: USER  keepresnum = 1 
DOCKED: USER  
DOCKED: REMARK  10 active torsions:
DOCKED: REMARK  status: ('A' for Active; 'I' for Inactive)
DOCKED: REMARK    1  A    between atoms: C_6  and  C_10 
DOCKED: REMARK    2  A    between atoms: C_10  and  C_11 
DOCKED: REMARK    3  A    between atoms: C_11  and  C_12 
DOCKED: REMARK    4  A    between atoms: C_12  and  O_14 
DOCKED: REMARK    5  A    between atoms: C_17  and  C_20 
DOCKED: REMARK    6  A    between atoms: C_24  and  C_27 
DOCKED: REMARK    7  A    between atoms: C_31  and  C_34 
DOCKED: REMARK    8  A    between atoms: C_34  and  C_35 
DOCKED: REMARK    9  A    between atoms: C_35  and  C_36 
DOCKED: REMARK   10  A    between atoms: C_36  and  O_38 
DOCKED: USER                              x       y       z     vdW  Elec       q    Type
DOCKED: USER                           _______ _______ _______ _____ _____    ______ ____
DOCKED: ROOT
DOCKED: ATOM      1  C   UNL d   1      -5.908 -10.463  -2.536 -0.06 +0.04    +0.064 C 
DOCKED: ATOM      2  C   UNL d   1      -1.905  -7.577  -2.812 -0.44 +0.02    +0.064 A 
DOCKED: ATOM      3  C   UNL d   1      -4.724  -3.908  -4.100 -0.26 +0.01    +0.064 C 
DOCKED: ATOM      4  C   UNL d   1      -8.598  -6.710  -3.941 -0.49 +0.02    +0.064 C 
DOCKED: ATOM      5  C   UNL d   1      -4.510 -10.012  -2.576 -0.33 +0.04    +0.066 A 
DOCKED: ATOM      6  C   UNL d   1      -3.410 -10.828  -2.369 -0.36 -0.02    -0.021 A 
DOCKED: ATOM      7  C   UNL d   1      -2.299 -10.025  -2.442 -0.35 -0.01    -0.025 A 
DOCKED: ATOM      8  C   UNL d   1      -2.764  -8.748  -2.691 -0.39 +0.03    +0.066 A 
DOCKED: ATOM      9  C   UNL d   1      -0.876 -10.471  -2.299 -0.35 +0.02    +0.051 C 
DOCKED: ATOM     10  C   UNL d   1      -2.323  -6.345  -3.109 -0.41 +0.02    +0.066 A 
DOCKED: ATOM     11  C   UNL d   1      -1.491  -5.223  -3.105 -0.45 -0.00    -0.021 A 
DOCKED: ATOM     12  C   UNL d   1      -2.284  -4.149  -3.457 -0.41 +0.00    +0.000 A 
DOCKED: ATOM     13  C   UNL d   1      -3.573  -4.675  -3.651 -0.36 +0.01    +0.070 A 
DOCKED: ATOM     14  C   UNL d   1      -0.028  -5.165  -2.718 -0.60 +0.01    +0.052 C 
DOCKED: ATOM     15  C   UNL d   1      -5.978  -4.399  -4.238 -0.39 +0.01    +0.066 A 
DOCKED: ATOM     16  C   UNL d   1      -7.029  -3.660  -4.765 -0.52 -0.00    -0.021 A 
DOCKED: ATOM     17  C   UNL d   1      -8.149  -4.465  -4.716 -0.49 +0.00    +0.000 A 
DOCKED: ATOM     18  C   UNL d   1      -7.754  -5.678  -4.157 -0.42 +0.02    +0.070 A 
DOCKED: ATOM     19  C   UNL d   1      -6.992  -2.242  -5.270 -0.30 +0.00    +0.052 C 
DOCKED: ATOM     20  C   UNL d   1      -8.207  -8.022  -3.412 -0.41 +0.02    +0.066 A 
DOCKED: ATOM     21  C   UNL d   1      -9.094  -9.025  -2.997 -0.44 -0.01    -0.025 A 
DOCKED: ATOM     22  C   UNL d   1      -8.306 -10.090  -2.613 -0.25 -0.01    -0.021 A 
DOCKED: ATOM     23  C   UNL d   1      -6.976  -9.695  -2.801 +0.15 +0.03    +0.066 A 
DOCKED: ATOM     24  C   UNL d   1     -10.604  -8.992  -2.957 -0.54 +0.01    +0.051 C 
DOCKED: ATOM     25  N   UNL d   1      -4.109  -8.745  -2.782 -0.24 -0.11    -0.248 N 
DOCKED: ATOM     26  N   UNL d   1      -3.599  -6.013  -3.431 -0.25 -0.06    -0.248 N 
DOCKED: ATOM     27  N   UNL d   1      -6.411  -5.654  -3.903 -0.25 -0.07    -0.248 N 
DOCKED: ATOM     28  N   UNL d   1      -6.921  -8.416  -3.246 -0.26 -0.11    -0.248 N 
DOCKED: ATOM     29 FE   UNL d   1      -5.262  -7.214  -3.339 -0.09 +0.00    +0.000 Fe
DOCKED: ENDROOT
DOCKED: BRANCH   6  30
DOCKED: ATOM     30  C   UNL d   1      -3.410 -12.300  -2.135 -0.09 +0.08    +0.052 C 
DOCKED: BRANCH  30  31
DOCKED: ATOM     31  C   UNL d   1      -3.963 -12.627  -0.752 -0.16 +0.17    +0.115 C 
DOCKED: BRANCH  31  32
DOCKED: ATOM     32  C   UNL d   1      -4.276 -14.093  -0.643 -0.13 +0.29    +0.139 C 
DOCKED: ATOM     33  O   UNL d   1      -3.489 -14.931  -1.061 +0.01 -1.38    -0.650 OA
DOCKED: BRANCH  32  34
DOCKED: ATOM     34  O   UNL d   1      -5.429 -14.498  -0.084 -0.51 -1.73    -0.776 OA
DOCKED: ATOM     35  H   UNL d   1      -6.241 -14.007  -0.275 +0.04 +0.29    +0.167 HD
DOCKED: ENDBRANCH  32  34
DOCKED: ENDBRANCH  31  32
DOCKED: ENDBRANCH  30  31
DOCKED: ENDBRANCH   6  30
DOCKED: BRANCH  22  36
DOCKED: ATOM     36  C   UNL d   1      -8.805 -11.395  -2.050 -0.32 +0.03    +0.052 C 
DOCKED: BRANCH  36  37
DOCKED: ATOM     37  C   UNL d   1      -9.255 -11.195  -0.611 -0.32 +0.05    +0.115 C 
DOCKED: BRANCH  37  38
DOCKED: ATOM     38  C   UNL d   1      -8.938 -12.402   0.226 -0.28 +0.10    +0.139 C 
DOCKED: ATOM     39  O   UNL d   1      -9.818 -13.182   0.559 -0.44 -0.43    -0.650 OA
DOCKED: BRANCH  38  40
DOCKED: ATOM     40  O   UNL d   1      -7.672 -12.631   0.620 -0.24 -0.83    -0.776 OA
DOCKED: ATOM     41  H   UNL d   1      -7.287 -13.507   0.477 +0.06 +0.22    +0.167 HD
DOCKED: ENDBRANCH  38  40
DOCKED: ENDBRANCH  37  38
DOCKED: ENDBRANCH  36  37
DOCKED: ENDBRANCH  22  36
DOCKED: BRANCH  12  42
DOCKED: ATOM     42  C   UNL d   1      -1.809  -2.735  -3.569 -0.49 +0.00    +0.004 C 
DOCKED: ATOM     43  C   UNL d   1      -1.975  -2.040  -4.703 -0.61 +0.00    +0.012 C 
DOCKED: ENDBRANCH  12  42
DOCKED: BRANCH  17  44
DOCKED: ATOM     44  C   UNL d   1      -9.503  -4.104  -5.194 -0.43 +0.00    +0.004 C 
DOCKED: ATOM     45  C   UNL d   1     -10.367  -3.475  -4.391 -0.74 +0.00    +0.012 C 
DOCKED: ENDBRANCH  17  44
DOCKED: TORSDOF 10
DOCKED: TER
DOCKED: ENDMDL
________________________________________________________________________________


	BEGINNING GENETIC ALGORITHM DOCKING 13 of 100
Run: 13 Seed: 1094888828 855513081 [ Run 13 of 100 GA/GALS ]
Beginning LAMARCKIAN GENETIC ALGORITHM (LGA), with a maximum of 25000000 energy evaluations.

Final-Value: -13.786


	FINAL GENETIC ALGORITHM DOCKED STATE
	_______________________________________________


Detailed state:  trans -10.446 -13.831 -1.110 quatxyzw 0.263176 -0.336445 -0.880515 0.205514 center -0.174 -0.001 -0.047 ntor 10 136.9108 154.3029 -162.5495 -159.1659 -154.1911 88.2806 71.8236 63.8679 7.7281 149.3176
State:	-10.446 -13.831  -1.110   0.269 -0.344 -0.900 156.281    136.91  154.30 -162.55 -159.17 -154.19   88.28   71.82   63.87    7.73  149.32

DOCKED: MODEL       13
DOCKED: USER    Run = 13
DOCKED: USER    DPF = D:/Protein_go_brrr/autodock/final/AncA/heme_Fe/dock.dpf
DOCKED: USER  
DOCKED: USER    Estimated Free Energy of Binding    =   -9.68 kcal/mol  [=(1)+(2)+(3)-(4)]
DOCKED: USER    Estimated Inhibition Constant, Ki   =   79.69 nM (nanomolar)  [Temperature = 298.15 K]
DOCKED: USER    
DOCKED: USER    (1) Final Intermolecular Energy     =  -12.67 kcal/mol
DOCKED: USER        vdW + Hbond + desolv Energy     =   -8.63 kcal/mol
DOCKED: USER        Electrostatic Energy            =   -4.04 kcal/mol
DOCKED: USER    (2) Final Total Internal Energy     =   -1.12 kcal/mol
DOCKED: USER    (3) Torsional Free Energy           =   +2.98 kcal/mol
DOCKED: USER    (4) Unbound System's Energy  [=(2)] =   -1.12 kcal/mol
DOCKED: USER    
DOCKED: USER    
DOCKED: USER    NEWDPF move heme_Fe_opt.pdbqt
DOCKED: USER    NEWDPF about -0.174000 -0.001000 -0.047000
DOCKED: USER    NEWDPF tran0 -10.445635 -13.831245 -1.110003
DOCKED: USER    NEWDPF quaternion0 0.263176 -0.336445 -0.880515 0.205514
DOCKED: USER    NEWDPF axisangle0 0.268916 -0.343784 -0.899720 156.280871
DOCKED: USER    NEWDPF quat0 0.268916 -0.343784 -0.899720 156.280871
DOCKED: USER    NEWDPF dihe0 136.91 154.30 -162.55 -159.17 -154.19 88.28 71.82 63.87 7.73 149.32 
DOCKED: USER  keepresnum = 1 
DOCKED: USER  
DOCKED: REMARK  10 active torsions:
DOCKED: REMARK  status: ('A' for Active; 'I' for Inactive)
DOCKED: REMARK    1  A    between atoms: C_6  and  C_10 
DOCKED: REMARK    2  A    between atoms: C_10  and  C_11 
DOCKED: REMARK    3  A    between atoms: C_11  and  C_12 
DOCKED: REMARK    4  A    between atoms: C_12  and  O_14 
DOCKED: REMARK    5  A    between atoms: C_17  and  C_20 
DOCKED: REMARK    6  A    between atoms: C_24  and  C_27 
DOCKED: REMARK    7  A    between atoms: C_31  and  C_34 
DOCKED: REMARK    8  A    between atoms: C_34  and  C_35 
DOCKED: REMARK    9  A    between atoms: C_35  and  C_36 
DOCKED: REMARK   10  A    between atoms: C_36  and  O_38 
DOCKED: USER                              x       y       z     vdW  Elec       q    Type
DOCKED: USER                           _______ _______ _______ _____ _____    ______ ____
DOCKED: ROOT
DOCKED: ATOM      1  C   UNL d   1      -9.048 -13.784   0.391 -0.19 +0.05    +0.064 C 
DOCKED: ATOM      2  C   UNL d   1     -10.030 -10.954  -3.540 -0.25 +0.02    +0.064 A 
DOCKED: ATOM      3  C   UNL d   1     -14.312 -13.095  -3.925 -0.21 +0.01    +0.064 C 
DOCKED: ATOM      4  C   UNL d   1     -13.339 -15.918  -0.187 -0.13 +0.01    +0.064 C 
DOCKED: ATOM      5  C   UNL d   1      -8.893 -12.847  -0.730 -0.21 +0.04    +0.066 A 
DOCKED: ATOM      6  C   UNL d   1      -7.741 -12.129  -1.008 -0.19 -0.02    -0.021 A 
DOCKED: ATOM      7  C   UNL d   1      -8.016 -11.341  -2.097 -0.23 -0.02    -0.025 A 
DOCKED: ATOM      8  C   UNL d   1      -9.327 -11.608  -2.444 -0.26 +0.03    +0.066 A 
DOCKED: ATOM      9  C   UNL d   1      -7.063 -10.403  -2.772 -0.11 +0.03    +0.051 C 
DOCKED: ATOM     10  C   UNL d   1     -11.274 -11.234  -3.930 -0.31 +0.01    +0.066 A 
DOCKED: ATOM     11  C   UNL d   1     -11.961 -10.512  -4.909 -0.45 -0.00    -0.021 A 
DOCKED: ATOM     12  C   UNL d   1     -13.205 -11.099  -5.027 -0.37 +0.00    +0.000 A 
DOCKED: ATOM     13  C   UNL d   1     -13.216 -12.155  -4.099 -0.25 +0.01    +0.070 A 
DOCKED: ATOM     14  C   UNL d   1     -11.481  -9.279  -5.647 -0.52 +0.01    +0.052 C 
DOCKED: ATOM     15  C   UNL d   1     -14.348 -14.081  -2.998 -0.16 +0.01    +0.066 A 
DOCKED: ATOM     16  C   UNL d   1     -15.368 -15.021  -2.929 -0.13 -0.00    -0.021 A 
DOCKED: ATOM     17  C   UNL d   1     -15.092 -15.834  -1.850 -0.14 +0.00    +0.000 A 
DOCKED: ATOM     18  C   UNL d   1     -13.909 -15.367  -1.281 -0.11 +0.01    +0.070 A 
DOCKED: ATOM     19  C   UNL d   1     -16.571 -15.137  -3.826 -0.05 +0.01    +0.052 C 
DOCKED: ATOM     20  C   UNL d   1     -12.063 -15.493   0.402 -0.07 +0.02    +0.066 A 
DOCKED: ATOM     21  C   UNL d   1     -11.563 -15.916   1.641 -0.11 -0.01    -0.025 A 
DOCKED: ATOM     22  C   UNL d   1     -10.333 -15.305   1.780 -0.12 -0.01    -0.021 A 
DOCKED: ATOM     23  C   UNL d   1     -10.136 -14.533   0.629 -0.13 +0.04    +0.066 A 
DOCKED: ATOM     24  C   UNL d   1     -12.201 -16.841   2.650 -0.08 +0.01    +0.051 C 
DOCKED: ATOM     25  N   UNL d   1      -9.854 -12.532  -1.616 -0.15 -0.12    -0.248 N 
DOCKED: ATOM     26  N   UNL d   1     -12.043 -12.232  -3.424 -0.17 -0.04    -0.248 N 
DOCKED: ATOM     27  N   UNL d   1     -13.427 -14.317  -2.012 -0.10 -0.03    -0.248 N 
DOCKED: ATOM     28  N   UNL d   1     -11.214 -14.616  -0.187 -0.07 -0.09    -0.248 N 
DOCKED: ATOM     29 FE   UNL d   1     -11.630 -13.425  -1.805 -0.06 +0.00    +0.000 Fe
DOCKED: ENDROOT
DOCKED: BRANCH   6  30
DOCKED: ATOM     30  C   UNL d   1      -6.438 -12.203  -0.289 -0.15 +0.06    +0.052 C 
DOCKED: BRANCH  30  31
DOCKED: ATOM     31  C   UNL d   1      -5.473 -13.135  -1.014 -0.23 +0.20    +0.115 C 
DOCKED: BRANCH  31  32
DOCKED: ATOM     32  C   UNL d   1      -5.291 -14.410  -0.238 -0.11 +0.30    +0.139 C 
DOCKED: ATOM     33  O   UNL d   1      -4.268 -15.070  -0.354 -0.29 -1.38    -0.650 OA
DOCKED: BRANCH  32  34
DOCKED: ATOM     34  O   UNL d   1      -6.256 -14.837   0.594 -0.35 -1.78    -0.776 OA
DOCKED: ATOM     35  H   UNL d   1      -6.696 -14.197   1.171 +0.04 +0.38    +0.167 HD
DOCKED: ENDBRANCH  32  34
DOCKED: ENDBRANCH  31  32
DOCKED: ENDBRANCH  30  31
DOCKED: ENDBRANCH   6  30
DOCKED: BRANCH  22  36
DOCKED: ATOM     36  C   UNL d   1      -9.424 -15.421   2.975 -0.10 +0.03    +0.052 C 
DOCKED: BRANCH  36  37
DOCKED: ATOM     37  C   UNL d   1      -9.315 -14.072   3.670 -0.21 +0.08    +0.115 C 
DOCKED: BRANCH  37  38
DOCKED: ATOM     38  C   UNL d   1      -7.904 -13.557   3.629 -0.23 +0.18    +0.139 C 
DOCKED: ATOM     39  O   UNL d   1      -7.511 -12.885   2.687 -0.55 -0.98    -0.650 OA
DOCKED: BRANCH  38  40
DOCKED: ATOM     40  O   UNL d   1      -7.058 -13.837   4.636 -0.26 -1.27    -0.776 OA
DOCKED: ATOM     41  H   UNL d   1      -7.418 -14.020   5.515 +0.07 +0.16    +0.167 HD
DOCKED: ENDBRANCH  38  40
DOCKED: ENDBRANCH  37  38
DOCKED: ENDBRANCH  36  37
DOCKED: ENDBRANCH  22  36
DOCKED: BRANCH  12  42
DOCKED: ATOM     42  C   UNL d   1     -14.283 -10.641  -5.958 -0.40 +0.00    +0.004 C 
DOCKED: ATOM     43  C   UNL d   1     -15.435 -10.147  -5.488 -0.39 +0.00    +0.012 C 
DOCKED: ENDBRANCH  12  42
DOCKED: BRANCH  17  44
DOCKED: ATOM     44  C   UNL d   1     -15.896 -16.994  -1.404 -0.08 +0.00    +0.004 C 
DOCKED: ATOM     45  C   UNL d   1     -16.669 -16.914  -0.315 -0.10 +0.00    +0.012 C 
DOCKED: ENDBRANCH  17  44
DOCKED: TORSDOF 10
DOCKED: TER
DOCKED: ENDMDL
________________________________________________________________________________


	BEGINNING GENETIC ALGORITHM DOCKING 14 of 100
Run: 14 Seed: 913313638 1532103634 [ Run 14 of 100 GA/GALS ]
Beginning LAMARCKIAN GENETIC ALGORITHM (LGA), with a maximum of 25000000 energy evaluations.

Final-Value: -11.366


	FINAL GENETIC ALGORITHM DOCKED STATE
	_______________________________________________


Detailed state:  trans -5.983 -0.288 -15.594 quatxyzw 0.756487 -0.488696 -0.219468 0.375148 center -0.174 -0.001 -0.047 ntor 10 168.4635 -81.2224 77.4933 25.9942 81.2074 57.5748 -55.3707 105.2092 -174.9652 -172.6037
State:	 -5.983  -0.288 -15.594   0.816 -0.527 -0.237 135.933    168.46  -81.22   77.49   25.99   81.21   57.57  -55.37  105.21 -174.97 -172.60

DOCKED: MODEL       14
DOCKED: USER    Run = 14
DOCKED: USER    DPF = D:/Protein_go_brrr/autodock/final/AncA/heme_Fe/dock.dpf
DOCKED: USER  
DOCKED: USER    Estimated Free Energy of Binding    =   -6.36 kcal/mol  [=(1)+(2)+(3)-(4)]
DOCKED: USER    Estimated Inhibition Constant, Ki   =   21.96 uM (micromolar)  [Temperature = 298.15 K]
DOCKED: USER    
DOCKED: USER    (1) Final Intermolecular Energy     =   -9.34 kcal/mol
DOCKED: USER        vdW + Hbond + desolv Energy     =   -8.84 kcal/mol
DOCKED: USER        Electrostatic Energy            =   -0.50 kcal/mol
DOCKED: USER    (2) Final Total Internal Energy     =   -2.03 kcal/mol
DOCKED: USER    (3) Torsional Free Energy           =   +2.98 kcal/mol
DOCKED: USER    (4) Unbound System's Energy  [=(2)] =   -2.03 kcal/mol
DOCKED: USER    
DOCKED: USER    
DOCKED: USER    NEWDPF move heme_Fe_opt.pdbqt
DOCKED: USER    NEWDPF about -0.174000 -0.001000 -0.047000
DOCKED: USER    NEWDPF tran0 -5.983215 -0.287841 -15.594322
DOCKED: USER    NEWDPF quaternion0 0.756487 -0.488696 -0.219468 0.375148
DOCKED: USER    NEWDPF axisangle0 0.816091 -0.527201 -0.236760 135.933032
DOCKED: USER    NEWDPF quat0 0.816091 -0.527201 -0.236760 135.933032
DOCKED: USER    NEWDPF dihe0 168.46 -81.22 77.49 25.99 81.21 57.57 -55.37 105.21 -174.97 -172.60 
DOCKED: USER  keepresnum = 1 
DOCKED: USER  
DOCKED: REMARK  10 active torsions:
DOCKED: REMARK  status: ('A' for Active; 'I' for Inactive)
DOCKED: REMARK    1  A    between atoms: C_6  and  C_10 
DOCKED: REMARK    2  A    between atoms: C_10  and  C_11 
DOCKED: REMARK    3  A    between atoms: C_11  and  C_12 
DOCKED: REMARK    4  A    between atoms: C_12  and  O_14 
DOCKED: REMARK    5  A    between atoms: C_17  and  C_20 
DOCKED: REMARK    6  A    between atoms: C_24  and  C_27 
DOCKED: REMARK    7  A    between atoms: C_31  and  C_34 
DOCKED: REMARK    8  A    between atoms: C_34  and  C_35 
DOCKED: REMARK    9  A    between atoms: C_35  and  C_36 
DOCKED: REMARK   10  A    between atoms: C_36  and  O_38 
DOCKED: USER                              x       y       z     vdW  Elec       q    Type
DOCKED: USER                           _______ _______ _______ _____ _____    ______ ____
DOCKED: ROOT
DOCKED: ATOM      1  C   UNL d   1      -6.755   1.281 -14.520 -0.28 -0.01    +0.064 C 
DOCKED: ATOM      2  C   UNL d   1      -2.200  -0.169 -15.777 -0.19 -0.00    +0.064 A 
DOCKED: ATOM      3  C   UNL d   1      -4.117  -3.129 -19.038 -0.27 -0.01    +0.064 C 
DOCKED: ATOM      4  C   UNL d   1      -8.538  -1.818 -17.764 -0.17 -0.02    +0.064 C 
DOCKED: ATOM      5  C   UNL d   1      -5.299   1.086 -14.514 -0.24 -0.00    +0.066 A 
DOCKED: ATOM      6  C   UNL d   1      -4.424   1.692 -13.627 -0.29 +0.00    -0.021 A 
DOCKED: ATOM      7  C   UNL d   1      -3.159   1.291 -13.979 -0.28 +0.00    -0.025 A 
DOCKED: ATOM      8  C   UNL d   1      -3.310   0.456 -15.069 -0.22 -0.00    +0.066 A 
DOCKED: ATOM      9  C   UNL d   1      -1.886   1.679 -13.291 -0.39 -0.00    +0.051 C 
DOCKED: ATOM     10  C   UNL d   1      -2.322  -1.024 -16.794 -0.09 +0.00    +0.066 A 
DOCKED: ATOM     11  C   UNL d   1      -1.239  -1.516 -17.527 -0.26 +0.00    -0.021 A 
DOCKED: ATOM     12  C   UNL d   1      -1.766  -2.359 -18.484 -0.24 -0.00    +0.000 A 
DOCKED: ATOM     13  C   UNL d   1      -3.158  -2.331 -18.290 -0.21 -0.01    +0.070 A 
DOCKED: ATOM     14  C   UNL d   1       0.222  -1.148 -17.367 -0.27 -0.00    +0.052 C 
DOCKED: ATOM     15  C   UNL d   1      -5.461  -3.067 -18.890 -0.21 -0.01    +0.066 A 
DOCKED: ATOM     16  C   UNL d   1      -6.338  -3.917 -19.552 -0.26 +0.01    -0.021 A 
DOCKED: ATOM     17  C   UNL d   1      -7.614  -3.538 -19.189 -0.20 -0.00    +0.000 A 
DOCKED: ATOM     18  C   UNL d   1      -7.485  -2.461 -18.315 -0.16 -0.01    +0.070 A 
DOCKED: ATOM     19  C   UNL d   1      -5.993  -5.026 -20.509 -0.12 -0.04    +0.052 C 
DOCKED: ATOM     20  C   UNL d   1      -8.440  -0.721 -16.793 -0.19 -0.02    +0.066 A 
DOCKED: ATOM     21  C   UNL d   1      -9.508   0.083 -16.369 -0.23 +0.01    -0.025 A 
DOCKED: ATOM     22  C   UNL d   1      -8.980   0.950 -15.436 -0.31 +0.01    -0.021 A 
DOCKED: ATOM     23  C   UNL d   1      -7.617   0.648 -15.332 -0.27 -0.02    +0.066 A 
DOCKED: ATOM     24  C   UNL d   1     -10.951   0.047 -16.816 -0.14 -0.03    +0.051 C 
DOCKED: ATOM     25  N   UNL d   1      -4.614   0.325 -15.386 -0.14 +0.01    -0.248 N 
DOCKED: ATOM     26  N   UNL d   1      -3.498  -1.510 -17.266 -0.14 +0.01    -0.248 N 
DOCKED: ATOM     27  N   UNL d   1      -6.162  -2.199 -18.096 -0.11 +0.03    -0.248 N 
DOCKED: ATOM     28  N   UNL d   1      -7.285  -0.343 -16.195 -0.13 +0.04    -0.248 N 
DOCKED: ATOM     29 FE   UNL d   1      -5.393  -0.927 -16.731 -0.05 -0.00    +0.000 Fe
DOCKED: ENDROOT
DOCKED: BRANCH   6  30
DOCKED: ATOM     30  C   UNL d   1      -4.771   2.588 -12.488 -0.41 +0.00    +0.052 C 
DOCKED: BRANCH  30  31
DOCKED: ATOM     31  C   UNL d   1      -4.908   4.032 -12.960 -0.23 +0.02    +0.115 C 
DOCKED: BRANCH  31  32
DOCKED: ATOM     32  C   UNL d   1      -6.254   4.584 -12.581 -0.29 +0.04    +0.139 C 
DOCKED: ATOM     33  O   UNL d   1      -6.460   5.004 -11.450 -0.06 -0.20    -0.650 OA
DOCKED: BRANCH  32  34
DOCKED: ATOM     34  O   UNL d   1      -7.247   4.622 -13.485 -0.49 -0.27    -0.776 OA
DOCKED: ATOM     35  H   UNL d   1      -7.042   4.450 -14.415 +0.04 +0.03    +0.167 HD
DOCKED: ENDBRANCH  32  34
DOCKED: ENDBRANCH  31  32
DOCKED: ENDBRANCH  30  31
DOCKED: ENDBRANCH   6  30
DOCKED: BRANCH  22  36
DOCKED: ATOM     36  C   UNL d   1      -9.735   2.040 -14.722 -0.19 -0.03    +0.052 C 
DOCKED: BRANCH  36  37
DOCKED: ATOM     37  C   UNL d   1      -9.965   3.210 -15.668 -0.13 -0.02    +0.115 C 
DOCKED: BRANCH  37  38
DOCKED: ATOM     38  C   UNL d   1      -8.705   4.005 -15.858 -0.09 -0.00    +0.139 C 
DOCKED: ATOM     39  O   UNL d   1      -7.687   3.474 -16.276 +0.04 +0.02    -0.650 OA
DOCKED: BRANCH  38  40
DOCKED: ATOM     40  O   UNL d   1      -8.689   5.317 -15.562 +0.02 -0.04    -0.776 OA
DOCKED: ATOM     41  H   UNL d   1      -8.331   5.603 -14.710 +0.03 +0.02    +0.167 HD
DOCKED: ENDBRANCH  38  40
DOCKED: ENDBRANCH  37  38
DOCKED: ENDBRANCH  36  37
DOCKED: ENDBRANCH  22  36
DOCKED: BRANCH  12  42
DOCKED: ATOM     42  C   UNL d   1      -0.965  -3.104 -19.504 -0.24 -0.00    +0.004 C 
DOCKED: ATOM     43  C   UNL d   1      -1.073  -4.433 -19.629 -0.34 -0.00    +0.012 C 
DOCKED: ENDBRANCH  12  42
DOCKED: BRANCH  17  44
DOCKED: ATOM     44  C   UNL d   1      -8.872  -4.178 -19.633 -0.19 -0.00    +0.004 C 
DOCKED: ATOM     45  C   UNL d   1      -9.303  -5.309 -19.064 -0.25 -0.01    +0.012 C 
DOCKED: ENDBRANCH  17  44
DOCKED: TORSDOF 10
DOCKED: TER
DOCKED: ENDMDL
________________________________________________________________________________


	BEGINNING GENETIC ALGORITHM DOCKING 15 of 100
Run: 15 Seed: 1707549373 628905630 [ Run 15 of 100 GA/GALS ]
Beginning LAMARCKIAN GENETIC ALGORITHM (LGA), with a maximum of 25000000 energy evaluations.

Final-Value: -15.569


	FINAL GENETIC ALGORITHM DOCKED STATE
	_______________________________________________


Detailed state:  trans -6.607 -11.293 -1.630 quatxyzw 0.375227 0.884739 -0.145928 -0.234833 center -0.174 -0.001 -0.047 ntor 10 -10.4996 131.5719 -92.5229 -147.8888 18.9718 -109.1180 -73.4180 21.9546 -174.7357 -173.4667
State:	 -6.607 -11.293  -1.630   0.386  0.910 -0.150 -152.836    -10.50  131.57  -92.52 -147.89   18.97 -109.12  -73.42   21.95 -174.74 -173.47

DOCKED: MODEL       15
DOCKED: USER    Run = 15
DOCKED: USER    DPF = D:/Protein_go_brrr/autodock/final/AncA/heme_Fe/dock.dpf
DOCKED: USER  
DOCKED: USER    Estimated Free Energy of Binding    =  -10.59 kcal/mol  [=(1)+(2)+(3)-(4)]
DOCKED: USER    Estimated Inhibition Constant, Ki   =   17.15 nM (nanomolar)  [Temperature = 298.15 K]
DOCKED: USER    
DOCKED: USER    (1) Final Intermolecular Energy     =  -13.58 kcal/mol
DOCKED: USER        vdW + Hbond + desolv Energy     =  -10.69 kcal/mol
DOCKED: USER        Electrostatic Energy            =   -2.88 kcal/mol
DOCKED: USER    (2) Final Total Internal Energy     =   -1.99 kcal/mol
DOCKED: USER    (3) Torsional Free Energy           =   +2.98 kcal/mol
DOCKED: USER    (4) Unbound System's Energy  [=(2)] =   -1.99 kcal/mol
DOCKED: USER    
DOCKED: USER    
DOCKED: USER    NEWDPF move heme_Fe_opt.pdbqt
DOCKED: USER    NEWDPF about -0.174000 -0.001000 -0.047000
DOCKED: USER    NEWDPF tran0 -6.607493 -11.293449 -1.630266
DOCKED: USER    NEWDPF quaternion0 0.375227 0.884739 -0.145928 -0.234833
DOCKED: USER    NEWDPF axisangle0 0.386022 0.910192 -0.150127 -152.836437
DOCKED: USER    NEWDPF quat0 0.386022 0.910192 -0.150127 -152.836437
DOCKED: USER    NEWDPF dihe0 -10.50 131.57 -92.52 -147.89 18.97 -109.12 -73.42 21.95 -174.74 -173.47 
DOCKED: USER  keepresnum = 1 
DOCKED: USER  
DOCKED: REMARK  10 active torsions:
DOCKED: REMARK  status: ('A' for Active; 'I' for Inactive)
DOCKED: REMARK    1  A    between atoms: C_6  and  C_10 
DOCKED: REMARK    2  A    between atoms: C_10  and  C_11 
DOCKED: REMARK    3  A    between atoms: C_11  and  C_12 
DOCKED: REMARK    4  A    between atoms: C_12  and  O_14 
DOCKED: REMARK    5  A    between atoms: C_17  and  C_20 
DOCKED: REMARK    6  A    between atoms: C_24  and  C_27 
DOCKED: REMARK    7  A    between atoms: C_31  and  C_34 
DOCKED: REMARK    8  A    between atoms: C_34  and  C_35 
DOCKED: REMARK    9  A    between atoms: C_35  and  C_36 
DOCKED: REMARK   10  A    between atoms: C_36  and  O_38 
DOCKED: USER                              x       y       z     vdW  Elec       q    Type
DOCKED: USER                           _______ _______ _______ _____ _____    ______ ____
DOCKED: ROOT
DOCKED: ATOM      1  C   UNL d   1      -5.283 -12.744  -1.036 -0.29 +0.10    +0.064 C 
DOCKED: ATOM      2  C   UNL d   1      -9.999 -12.732  -2.517 -0.18 +0.03    +0.064 A 
DOCKED: ATOM      3  C   UNL d   1      -9.396  -8.265  -4.173 -0.49 +0.02    +0.064 C 
DOCKED: ATOM      4  C   UNL d   1      -4.860  -8.216  -2.654 -0.30 +0.03    +0.064 C 
DOCKED: ATOM      5  C   UNL d   1      -6.690 -13.124  -1.224 -0.22 +0.09    +0.066 A 
DOCKED: ATOM      6  C   UNL d   1      -7.259 -14.302  -0.769 -0.15 -0.03    -0.021 A 
DOCKED: ATOM      7  C   UNL d   1      -8.567 -14.300  -1.183 -0.12 -0.02    -0.025 A 
DOCKED: ATOM      8  C   UNL d   1      -8.748 -13.119  -1.877 -0.18 +0.05    +0.066 A 
DOCKED: ATOM      9  C   UNL d   1      -9.583 -15.366  -0.908 -0.08 +0.03    +0.051 C 
DOCKED: ATOM     10  C   UNL d   1     -10.216 -11.574  -3.142 -0.21 +0.02    +0.066 A 
DOCKED: ATOM     11  C   UNL d   1     -11.388 -11.280  -3.843 -0.34 -0.00    -0.021 A 
DOCKED: ATOM     12  C   UNL d   1     -11.232 -10.003  -4.345 -0.49 +0.00    +0.000 A 
DOCKED: ATOM     13  C   UNL d   1      -9.958  -9.583  -3.926 -0.42 +0.02    +0.070 A 
DOCKED: ATOM     14  C   UNL d   1     -12.570 -12.197  -4.083 -0.31 +0.01    +0.052 C 
DOCKED: ATOM     15  C   UNL d   1      -8.149  -7.874  -3.817 -0.43 +0.02    +0.066 A 
DOCKED: ATOM     16  C   UNL d   1      -7.686  -6.575  -3.982 -0.46 -0.01    -0.021 A 
DOCKED: ATOM     17  C   UNL d   1      -6.376  -6.559  -3.547 -0.34 +0.00    +0.000 A 
DOCKED: ATOM     18  C   UNL d   1      -6.070  -7.853  -3.131 -0.04 +0.04    +0.070 A 
DOCKED: ATOM     19  C   UNL d   1      -8.434  -5.398  -4.549 -0.49 +0.01    +0.052 C 
DOCKED: ATOM     20  C   UNL d   1      -4.520  -9.552  -2.149 -0.24 +0.03    +0.066 A 
DOCKED: ATOM     21  C   UNL d   1      -3.226  -9.996  -1.841 -0.40 -0.01    -0.025 A 
DOCKED: ATOM     22  C   UNL d   1      -3.372 -11.284  -1.370 -0.34 -0.02    -0.021 A 
DOCKED: ATOM     23  C   UNL d   1      -4.740 -11.576  -1.415 -0.28 +0.07    +0.066 A 
DOCKED: ATOM     24  C   UNL d   1      -1.916  -9.257  -1.983 -0.49 +0.02    +0.051 C 
DOCKED: ATOM     25  N   UNL d   1      -7.606 -12.401  -1.892 -0.16 -0.22    -0.248 N 
DOCKED: ATOM     26  N   UNL d   1      -9.334 -10.544  -3.200 -0.20 -0.08    -0.248 N 
DOCKED: ATOM     27  N   UNL d   1      -7.172  -8.651  -3.255 -0.26 -0.10    -0.248 N 
DOCKED: ATOM     28  N   UNL d   1      -5.430 -10.532  -1.933 +0.11 -0.18    -0.248 N 
DOCKED: ATOM     29 FE   UNL d   1      -7.381 -10.536  -2.567 -0.08 +0.00    +0.000 Fe
DOCKED: ENDROOT
DOCKED: BRANCH   6  30
DOCKED: ATOM     30  C   UNL d   1      -6.600 -15.368   0.038 -0.12 +0.09    +0.052 C 
DOCKED: BRANCH  30  31
DOCKED: ATOM     31  C   UNL d   1      -5.864 -16.352  -0.864 -0.08 +0.19    +0.115 C 
DOCKED: BRANCH  31  32
DOCKED: ATOM     32  C   UNL d   1      -4.378 -16.147  -0.766 -0.05 +0.26    +0.139 C 
DOCKED: ATOM     33  O   UNL d   1      -3.893 -15.549   0.185 -0.29 -1.27    -0.650 OA
DOCKED: BRANCH  32  34
DOCKED: ATOM     34  O   UNL d   1      -3.566 -16.621  -1.726 -0.05 -1.56    -0.776 OA
DOCKED: ATOM     35  H   UNL d   1      -2.637 -16.351  -1.730 +0.01 +0.28    +0.167 HD
DOCKED: ENDBRANCH  32  34
DOCKED: ENDBRANCH  31  32
DOCKED: ENDBRANCH  30  31
DOCKED: ENDBRANCH   6  30
DOCKED: BRANCH  22  36
DOCKED: ATOM     36  C   UNL d   1      -2.252 -12.198  -0.948 -0.26 +0.05    +0.052 C 
DOCKED: BRANCH  36  37
DOCKED: ATOM     37  C   UNL d   1      -1.550 -12.754  -2.179 -0.23 +0.12    +0.115 C 
DOCKED: BRANCH  37  38
DOCKED: ATOM     38  C   UNL d   1      -0.803 -14.015  -1.850 -0.14 +0.13    +0.139 C 
DOCKED: ATOM     39  O   UNL d   1       0.418 -14.029  -1.823 +0.05 -0.39    -0.650 OA
DOCKED: BRANCH  38  40
DOCKED: ATOM     40  O   UNL d   1      -1.481 -15.147  -1.585 +0.02 -0.92    -0.776 OA
DOCKED: ATOM     41  H   UNL d   1      -2.213 -15.119  -0.953 +0.03 +0.23    +0.167 HD
DOCKED: ENDBRANCH  38  40
DOCKED: ENDBRANCH  37  38
DOCKED: ENDBRANCH  36  37
DOCKED: ENDBRANCH  22  36
DOCKED: BRANCH  12  42
DOCKED: ATOM     42  C   UNL d   1     -12.244  -9.281  -5.176 -0.30 +0.00    +0.004 C 
DOCKED: ATOM     43  C   UNL d   1     -12.877  -9.897  -6.183 -0.46 -0.00    +0.012 C 
DOCKED: ENDBRANCH  12  42
DOCKED: BRANCH  17  44
DOCKED: ATOM     44  C   UNL d   1      -5.483  -5.379  -3.514 -0.48 +0.00    +0.004 C 
DOCKED: ATOM     45  C   UNL d   1      -4.655  -5.118  -4.530 -0.47 +0.00    +0.012 C 
DOCKED: ENDBRANCH  17  44
DOCKED: TORSDOF 10
DOCKED: TER
DOCKED: ENDMDL
________________________________________________________________________________


	BEGINNING GENETIC ALGORITHM DOCKING 16 of 100
Run: 16 Seed: 1912657517 1151079537 [ Run 16 of 100 GA/GALS ]
Beginning LAMARCKIAN GENETIC ALGORITHM (LGA), with a maximum of 25000000 energy evaluations.

Final-Value: -13.685


	FINAL GENETIC ALGORITHM DOCKED STATE
	_______________________________________________


Detailed state:  trans -5.713 -13.265 -1.528 quatxyzw -0.134426 0.098786 0.722902 -0.670510 center -0.174 -0.001 -0.047 ntor 10 56.0579 -142.8148 179.2107 16.4620 169.3612 123.0671 -63.5265 90.6036 162.3255 -163.5839
State:	 -5.713 -13.265  -1.528  -0.181  0.133  0.974 -95.787     56.06 -142.81  179.21   16.46  169.36  123.07  -63.53   90.60  162.33 -163.58

DOCKED: MODEL       16
DOCKED: USER    Run = 16
DOCKED: USER    DPF = D:/Protein_go_brrr/autodock/final/AncA/heme_Fe/dock.dpf
DOCKED: USER  
DOCKED: USER    Estimated Free Energy of Binding    =   -9.25 kcal/mol  [=(1)+(2)+(3)-(4)]
DOCKED: USER    Estimated Inhibition Constant, Ki   =  165.73 nM (nanomolar)  [Temperature = 298.15 K]
DOCKED: USER    
DOCKED: USER    (1) Final Intermolecular Energy     =  -12.23 kcal/mol
DOCKED: USER        vdW + Hbond + desolv Energy     =   -8.77 kcal/mol
DOCKED: USER        Electrostatic Energy            =   -3.46 kcal/mol
DOCKED: USER    (2) Final Total Internal Energy     =   -1.45 kcal/mol
DOCKED: USER    (3) Torsional Free Energy           =   +2.98 kcal/mol
DOCKED: USER    (4) Unbound System's Energy  [=(2)] =   -1.45 kcal/mol
DOCKED: USER    
DOCKED: USER    
DOCKED: USER    NEWDPF move heme_Fe_opt.pdbqt
DOCKED: USER    NEWDPF about -0.174000 -0.001000 -0.047000
DOCKED: USER    NEWDPF tran0 -5.712781 -13.264560 -1.528156
DOCKED: USER    NEWDPF quaternion0 -0.134426 0.098786 0.722902 -0.670510
DOCKED: USER    NEWDPF axisangle0 -0.181192 0.133153 0.974392 -95.787107
DOCKED: USER    NEWDPF quat0 -0.181192 0.133153 0.974392 -95.787107
DOCKED: USER    NEWDPF dihe0 56.06 -142.81 179.21 16.46 169.36 123.07 -63.53 90.60 162.33 -163.58 
DOCKED: USER  keepresnum = 1 
DOCKED: USER  
DOCKED: REMARK  10 active torsions:
DOCKED: REMARK  status: ('A' for Active; 'I' for Inactive)
DOCKED: REMARK    1  A    between atoms: C_6  and  C_10 
DOCKED: REMARK    2  A    between atoms: C_10  and  C_11 
DOCKED: REMARK    3  A    between atoms: C_11  and  C_12 
DOCKED: REMARK    4  A    between atoms: C_12  and  O_14 
DOCKED: REMARK    5  A    between atoms: C_17  and  C_20 
DOCKED: REMARK    6  A    between atoms: C_24  and  C_27 
DOCKED: REMARK    7  A    between atoms: C_31  and  C_34 
DOCKED: REMARK    8  A    between atoms: C_34  and  C_35 
DOCKED: REMARK    9  A    between atoms: C_35  and  C_36 
DOCKED: REMARK   10  A    between atoms: C_36  and  O_38 
DOCKED: USER                              x       y       z     vdW  Elec       q    Type
DOCKED: USER                           _______ _______ _______ _____ _____    ______ ____
DOCKED: ROOT
DOCKED: ATOM      1  C   UNL d   1      -5.559 -14.956  -0.376 -0.11 +0.14    +0.064 C 
DOCKED: ATOM      2  C   UNL d   1      -2.471 -11.305  -1.628 -0.31 +0.05    +0.064 A 
DOCKED: ATOM      3  C   UNL d   1      -6.237  -8.729  -3.130 -0.27 +0.03    +0.064 C 
DOCKED: ATOM      4  C   UNL d   1      -9.232 -12.291  -2.023 -0.27 +0.03    +0.064 C 
DOCKED: ATOM      5  C   UNL d   1      -4.332 -14.200  -0.667 -0.08 +0.14    +0.066 A 
DOCKED: ATOM      6  C   UNL d   1      -3.046 -14.675  -0.471 -0.17 -0.04    -0.021 A 
DOCKED: ATOM      7  C   UNL d   1      -2.189 -13.659  -0.815 -0.20 -0.03    -0.025 A 
DOCKED: ATOM      8  C   UNL d   1      -2.987 -12.602  -1.209 -0.24 +0.09    +0.066 A 
DOCKED: ATOM      9  C   UNL d   1      -0.693 -13.717  -0.783 -0.18 +0.04    +0.051 C 
DOCKED: ATOM     10  C   UNL d   1      -3.216 -10.288  -2.067 -0.35 +0.04    +0.066 A 
DOCKED: ATOM     11  C   UNL d   1      -2.704  -9.020  -2.353 -0.44 -0.01    -0.021 A 
DOCKED: ATOM     12  C   UNL d   1      -3.773  -8.253  -2.772 -0.37 +0.00    +0.000 A 
DOCKED: ATOM     13  C   UNL d   1      -4.894  -9.100  -2.712 -0.30 +0.04    +0.070 A 
DOCKED: ATOM     14  C   UNL d   1      -1.278  -8.542  -2.170 -0.51 +0.01    +0.052 C 
DOCKED: ATOM     15  C   UNL d   1      -7.328  -9.523  -3.025 -0.14 +0.03    +0.066 A 
DOCKED: ATOM     16  C   UNL d   1      -8.574  -9.169  -3.528 -0.41 -0.01    -0.021 A 
DOCKED: ATOM     17  C   UNL d   1      -9.441 -10.194  -3.206 -0.39 +0.00    +0.000 A 
DOCKED: ATOM     18  C   UNL d   1      -8.702 -11.148  -2.511 -0.26 +0.03    +0.070 A 
DOCKED: ATOM     19  C   UNL d   1      -8.945  -7.907  -4.259 -0.46 +0.01    +0.052 C 
DOCKED: ATOM     20  C   UNL d   1      -8.473 -13.346  -1.340 -0.17 +0.05    +0.066 A 
DOCKED: ATOM     21  C   UNL d   1      -9.035 -14.435  -0.657 -0.11 -0.02    -0.025 A 
DOCKED: ATOM     22  C   UNL d   1      -7.970 -15.188  -0.207 -0.08 -0.02    -0.021 A 
DOCKED: ATOM     23  C   UNL d   1      -6.807 -14.529  -0.625 -0.14 +0.10    +0.066 A 
DOCKED: ATOM     24  C   UNL d   1     -10.494 -14.756  -0.431 -0.14 +0.02    +0.051 C 
DOCKED: ATOM     25  N   UNL d   1      -4.290 -12.938  -1.126 -0.17 -0.44    -0.248 N 
DOCKED: ATOM     26  N   UNL d   1      -4.556 -10.337  -2.274 -0.22 -0.17    -0.248 N 
DOCKED: ATOM     27  N   UNL d   1      -7.394 -10.757  -2.437 -0.08 -0.15    -0.248 N 
DOCKED: ATOM     28  N   UNL d   1      -7.120 -13.383  -1.277 -0.13 -0.31    -0.248 N 
DOCKED: ATOM     29 FE   UNL d   1      -5.840 -11.860  -1.775 -0.06 +0.00    +0.000 Fe
DOCKED: ENDROOT
DOCKED: BRANCH   6  30
DOCKED: ATOM     30  C   UNL d   1      -2.648 -16.032  -0.000 -0.14 +0.07    +0.052 C 
DOCKED: BRANCH  30  31
DOCKED: ATOM     31  C   UNL d   1      -2.103 -15.973   1.423 +0.03 +0.14    +0.115 C 
DOCKED: BRANCH  31  32
DOCKED: ATOM     32  C   UNL d   1      -2.983 -16.758   2.356 +0.15 +0.20    +0.139 C 
DOCKED: ATOM     33  O   UNL d   1      -2.620 -16.999   3.499 -0.03 -0.72    -0.650 OA
DOCKED: BRANCH  32  34
DOCKED: ATOM     34  O   UNL d   1      -4.180 -17.204   1.939 -0.02 -1.22    -0.776 OA
DOCKED: ATOM     35  H   UNL d   1      -4.972 -16.958   2.438 +0.00 +0.37    +0.167 HD
DOCKED: ENDBRANCH  32  34
DOCKED: ENDBRANCH  31  32
DOCKED: ENDBRANCH  30  31
DOCKED: ENDBRANCH   6  30
DOCKED: BRANCH  22  36
DOCKED: ATOM     36  C   UNL d   1      -8.067 -16.442   0.620 -0.04 +0.05    +0.052 C 
DOCKED: BRANCH  36  37
DOCKED: ATOM     37  C   UNL d   1      -8.627 -16.108   1.995 -0.05 +0.10    +0.115 C 
DOCKED: BRANCH  37  38
DOCKED: ATOM     38  C   UNL d   1      -7.524 -15.781   2.961 +0.05 +0.21    +0.139 C 
DOCKED: ATOM     39  O   UNL d   1      -7.504 -14.709   3.548 -0.03 -1.17    -0.650 OA
DOCKED: BRANCH  38  40
DOCKED: ATOM     40  O   UNL d   1      -6.542 -16.672   3.185 -0.04 -1.40    -0.776 OA
DOCKED: ATOM     41  H   UNL d   1      -6.216 -17.208   2.448 +0.00 +0.25    +0.167 HD
DOCKED: ENDBRANCH  38  40
DOCKED: ENDBRANCH  37  38
DOCKED: ENDBRANCH  36  37
DOCKED: ENDBRANCH  22  36
DOCKED: BRANCH  12  42
DOCKED: ATOM     42  C   UNL d   1      -3.689  -6.815  -3.174 -0.43 +0.00    +0.004 C 
DOCKED: ATOM     43  C   UNL d   1      -4.566  -5.917  -2.707 -0.45 +0.00    +0.012 C 
DOCKED: ENDBRANCH  12  42
DOCKED: BRANCH  17  44
DOCKED: ATOM     44  C   UNL d   1     -10.876 -10.264  -3.560 -0.50 +0.00    +0.004 C 
DOCKED: ATOM     45  C   UNL d   1     -11.261 -10.456  -4.826 -0.51 +0.00    +0.012 C 
DOCKED: ENDBRANCH  17  44
DOCKED: TORSDOF 10
DOCKED: TER
DOCKED: ENDMDL
________________________________________________________________________________


	BEGINNING GENETIC ALGORITHM DOCKING 17 of 100
Run: 17 Seed: 1822126024 488895888 [ Run 17 of 100 GA/GALS ]
Beginning LAMARCKIAN GENETIC ALGORITHM (LGA), with a maximum of 25000000 energy evaluations.

Final-Value: -20.112


	FINAL GENETIC ALGORITHM DOCKED STATE
	_______________________________________________


Detailed state:  trans -4.931 -9.462 -2.351 quatxyzw -0.688903 -0.703970 0.088249 0.148495 center -0.174 -0.001 -0.047 ntor 10 -74.9996 -78.5603 66.8057 -123.6267 132.5516 20.3486 79.2018 -27.9397 9.3416 13.3345
State:	 -4.931  -9.462  -2.351  -0.697 -0.712  0.089 162.921    -75.00  -78.56   66.81 -123.63  132.55   20.35   79.20  -27.94    9.34   13.33

DOCKED: MODEL       17
DOCKED: USER    Run = 17
DOCKED: USER    DPF = D:/Protein_go_brrr/autodock/final/AncA/heme_Fe/dock.dpf
DOCKED: USER  
DOCKED: USER    Estimated Free Energy of Binding    =  -15.59 kcal/mol  [=(1)+(2)+(3)-(4)]
DOCKED: USER    Estimated Inhibition Constant, Ki   =    3.76 pM (picomolar)  [Temperature = 298.15 K]
DOCKED: USER    
DOCKED: USER    (1) Final Intermolecular Energy     =  -18.57 kcal/mol
DOCKED: USER        vdW + Hbond + desolv Energy     =  -14.54 kcal/mol
DOCKED: USER        Electrostatic Energy            =   -4.03 kcal/mol
DOCKED: USER    (2) Final Total Internal Energy     =   -1.54 kcal/mol
DOCKED: USER    (3) Torsional Free Energy           =   +2.98 kcal/mol
DOCKED: USER    (4) Unbound System's Energy  [=(2)] =   -1.54 kcal/mol
DOCKED: USER    
DOCKED: USER    
DOCKED: USER    NEWDPF move heme_Fe_opt.pdbqt
DOCKED: USER    NEWDPF about -0.174000 -0.001000 -0.047000
DOCKED: USER    NEWDPF tran0 -4.931383 -9.461505 -2.350594
DOCKED: USER    NEWDPF quaternion0 -0.688903 -0.703970 0.088249 0.148495
DOCKED: USER    NEWDPF axisangle0 -0.696626 -0.711863 0.089238 162.920550
DOCKED: USER    NEWDPF quat0 -0.696626 -0.711863 0.089238 162.920550
DOCKED: USER    NEWDPF dihe0 -75.00 -78.56 66.81 -123.63 132.55 20.35 79.20 -27.94 9.34 13.33 
DOCKED: USER  keepresnum = 1 
DOCKED: USER  
DOCKED: REMARK  10 active torsions:
DOCKED: REMARK  status: ('A' for Active; 'I' for Inactive)
DOCKED: REMARK    1  A    between atoms: C_6  and  C_10 
DOCKED: REMARK    2  A    between atoms: C_10  and  C_11 
DOCKED: REMARK    3  A    between atoms: C_11  and  C_12 
DOCKED: REMARK    4  A    between atoms: C_12  and  O_14 
DOCKED: REMARK    5  A    between atoms: C_17  and  C_20 
DOCKED: REMARK    6  A    between atoms: C_24  and  C_27 
DOCKED: REMARK    7  A    between atoms: C_31  and  C_34 
DOCKED: REMARK    8  A    between atoms: C_34  and  C_35 
DOCKED: REMARK    9  A    between atoms: C_35  and  C_36 
DOCKED: REMARK   10  A    between atoms: C_36  and  O_38 
DOCKED: USER                              x       y       z     vdW  Elec       q    Type
DOCKED: USER                           _______ _______ _______ _____ _____    ______ ____
DOCKED: ROOT
DOCKED: ATOM      1  C   UNL d   1      -4.930 -11.508  -2.201 -0.34 +0.07    +0.064 C 
DOCKED: ATOM      2  C   UNL d   1      -8.284  -8.115  -3.493 -0.42 +0.02    +0.064 A 
DOCKED: ATOM      3  C   UNL d   1      -4.753  -4.887  -3.918 -0.44 +0.01    +0.064 C 
DOCKED: ATOM      4  C   UNL d   1      -1.504  -8.128  -2.567 -0.49 +0.02    +0.064 C 
DOCKED: ATOM      5  C   UNL d   1      -6.212 -10.831  -2.444 -0.04 +0.05    +0.066 A 
DOCKED: ATOM      6  C   UNL d   1      -7.457 -11.421  -2.302 -0.25 -0.01    -0.021 A 
DOCKED: ATOM      7  C   UNL d   1      -8.388 -10.479  -2.665 -0.30 -0.01    -0.025 A 
DOCKED: ATOM      8  C   UNL d   1      -7.674  -9.349  -3.014 -0.21 +0.03    +0.066 A 
DOCKED: ATOM      9  C   UNL d   1      -9.875 -10.658  -2.655 -0.42 +0.01    +0.051 C 
DOCKED: ATOM     10  C   UNL d   1      -7.623  -6.993  -3.781 -0.42 +0.02    +0.066 A 
DOCKED: ATOM     11  C   UNL d   1      -8.222  -5.864  -4.347 -0.46 -0.00    -0.021 A 
DOCKED: ATOM     12  C   UNL d   1      -7.221  -4.925  -4.495 -0.48 +0.00    +0.000 A 
DOCKED: ATOM     13  C   UNL d   1      -6.050  -5.538  -4.015 -0.38 +0.02    +0.070 A 
DOCKED: ATOM     14  C   UNL d   1      -9.663  -5.712  -4.788 -0.43 +0.01    +0.052 C 
DOCKED: ATOM     15  C   UNL d   1      -3.613  -5.489  -3.505 -0.38 +0.01    +0.066 A 
DOCKED: ATOM     16  C   UNL d   1      -2.415  -4.807  -3.332 -0.40 -0.00    -0.021 A 
DOCKED: ATOM     17  C   UNL d   1      -1.475  -5.741  -2.945 -0.48 +0.00    +0.000 A 
DOCKED: ATOM     18  C   UNL d   1      -2.122  -6.973  -2.897 -0.42 +0.02    +0.070 A 
DOCKED: ATOM     19  C   UNL d   1      -2.155  -3.340  -3.544 -0.40 +0.01    +0.052 C 
DOCKED: ATOM     20  C   UNL d   1      -2.165  -9.433  -2.446 -0.38 +0.03    +0.066 A 
DOCKED: ATOM     21  C   UNL d   1      -1.509 -10.663  -2.303 -0.31 -0.01    -0.025 A 
DOCKED: ATOM     22  C   UNL d   1      -2.504 -11.611  -2.188 -0.31 -0.02    -0.021 A 
DOCKED: ATOM     23  C   UNL d   1      -3.723 -10.926  -2.270 -0.33 +0.06    +0.066 A 
DOCKED: ATOM     24  C   UNL d   1      -0.024 -10.943  -2.280 -0.33 +0.02    +0.051 C 
DOCKED: ATOM     25  N   UNL d   1      -6.351  -9.563  -2.869 -0.10 -0.13    -0.248 N 
DOCKED: ATOM     26  N   UNL d   1      -6.293  -6.801  -3.588 -0.18 -0.11    -0.248 N 
DOCKED: ATOM     27  N   UNL d   1      -3.446  -6.813  -3.198 -0.24 -0.07    -0.248 N 
DOCKED: ATOM     28  N   UNL d   1      -3.509  -9.603  -2.473 -0.24 -0.13    -0.248 N 
DOCKED: ATOM     29 FE   UNL d   1      -4.899  -8.202  -3.030 -0.09 +0.00    +0.000 Fe
DOCKED: ENDROOT
DOCKED: BRANCH   6  30
DOCKED: ATOM     30  C   UNL d   1      -7.752 -12.802  -1.826 -0.26 +0.05    +0.052 C 
DOCKED: BRANCH  30  31
DOCKED: ATOM     31  C   UNL d   1      -8.139 -12.794  -0.352 -0.22 +0.10    +0.115 C 
DOCKED: BRANCH  31  32
DOCKED: ATOM     32  C   UNL d   1      -6.974 -13.216   0.500 -0.22 +0.20    +0.139 C 
DOCKED: ATOM     33  O   UNL d   1      -6.663 -12.572   1.493 -0.48 -1.08    -0.650 OA
DOCKED: BRANCH  32  34
DOCKED: ATOM     34  O   UNL d   1      -6.262 -14.308   0.177 -0.39 -1.51    -0.776 OA
DOCKED: ATOM     35  H   UNL d   1      -5.385 -14.198  -0.217 +0.03 +0.35    +0.167 HD
DOCKED: ENDBRANCH  32  34
DOCKED: ENDBRANCH  31  32
DOCKED: ENDBRANCH  30  31
DOCKED: ENDBRANCH   6  30
DOCKED: BRANCH  22  36
DOCKED: ATOM     36  C   UNL d   1      -2.294 -13.097  -2.055 -0.21 +0.08    +0.052 C 
DOCKED: BRANCH  36  37
DOCKED: ATOM     37  C   UNL d   1      -2.683 -13.547  -0.654 -0.17 +0.16    +0.115 C 
DOCKED: BRANCH  37  38
DOCKED: ATOM     38  C   UNL d   1      -3.157 -14.973  -0.659 -0.15 +0.25    +0.139 C 
DOCKED: ATOM     39  O   UNL d   1      -2.864 -15.726  -1.576 -0.05 -1.29    -0.650 OA
DOCKED: BRANCH  38  40
DOCKED: ATOM     40  O   UNL d   1      -3.917 -15.430   0.351 -0.23 -1.62    -0.776 OA
DOCKED: ATOM     41  H   UNL d   1      -4.873 -15.509   0.223 +0.01 +0.38    +0.167 HD
DOCKED: ENDBRANCH  38  40
DOCKED: ENDBRANCH  37  38
DOCKED: ENDBRANCH  36  37
DOCKED: ENDBRANCH  22  36
DOCKED: BRANCH  12  42
DOCKED: ATOM     42  C   UNL d   1      -7.408  -3.559  -5.075 -0.63 +0.00    +0.004 C 
DOCKED: ATOM     43  C   UNL d   1      -7.240  -2.462  -4.325 -0.67 +0.00    +0.012 C 
DOCKED: ENDBRANCH  12  42
DOCKED: BRANCH  17  44
DOCKED: ATOM     44  C   UNL d   1      -0.056  -5.467  -2.624 -0.59 +0.00    +0.004 C 
DOCKED: ATOM     45  C   UNL d   1       0.808  -5.117  -3.582 -0.65 +0.00    +0.012 C 
DOCKED: ENDBRANCH  17  44
DOCKED: TORSDOF 10
DOCKED: TER
DOCKED: ENDMDL
________________________________________________________________________________


	BEGINNING GENETIC ALGORITHM DOCKING 18 of 100
Run: 18 Seed: 1084525468 1744145197 [ Run 18 of 100 GA/GALS ]
Beginning LAMARCKIAN GENETIC ALGORITHM (LGA), with a maximum of 25000000 energy evaluations.

Final-Value: -19.822


	FINAL GENETIC ALGORITHM DOCKED STATE
	_______________________________________________


Detailed state:  trans -5.270 -9.048 -3.264 quatxyzw 0.083636 -0.008051 -0.657156 0.749057 center -0.174 -0.001 -0.047 ntor 10 92.7574 -61.6379 73.4747 -113.0476 131.2507 123.6517 -50.8904 55.7840 -176.9238 -178.6100
State:	 -5.270  -9.048  -3.264   0.126 -0.012 -0.992 82.982     92.76  -61.64   73.47 -113.05  131.25  123.65  -50.89   55.78 -176.92 -178.61

DOCKED: MODEL       18
DOCKED: USER    Run = 18
DOCKED: USER    DPF = D:/Protein_go_brrr/autodock/final/AncA/heme_Fe/dock.dpf
DOCKED: USER  
DOCKED: USER    Estimated Free Energy of Binding    =  -14.91 kcal/mol  [=(1)+(2)+(3)-(4)]
DOCKED: USER    Estimated Inhibition Constant, Ki   =   11.83 pM (picomolar)  [Temperature = 298.15 K]
DOCKED: USER    
DOCKED: USER    (1) Final Intermolecular Energy     =  -17.89 kcal/mol
DOCKED: USER        vdW + Hbond + desolv Energy     =  -14.26 kcal/mol
DOCKED: USER        Electrostatic Energy            =   -3.63 kcal/mol
DOCKED: USER    (2) Final Total Internal Energy     =   -1.93 kcal/mol
DOCKED: USER    (3) Torsional Free Energy           =   +2.98 kcal/mol
DOCKED: USER    (4) Unbound System's Energy  [=(2)] =   -1.93 kcal/mol
DOCKED: USER    
DOCKED: USER    
DOCKED: USER    NEWDPF move heme_Fe_opt.pdbqt
DOCKED: USER    NEWDPF about -0.174000 -0.001000 -0.047000
DOCKED: USER    NEWDPF tran0 -5.269970 -9.048276 -3.263616
DOCKED: USER    NEWDPF quaternion0 0.083636 -0.008051 -0.657156 0.749057
DOCKED: USER    NEWDPF axisangle0 0.126242 -0.012152 -0.991925 82.982475
DOCKED: USER    NEWDPF quat0 0.126242 -0.012152 -0.991925 82.982475
DOCKED: USER    NEWDPF dihe0 92.76 -61.64 73.47 -113.05 131.25 123.65 -50.89 55.78 -176.92 -178.61 
DOCKED: USER  keepresnum = 1 
DOCKED: USER  
DOCKED: REMARK  10 active torsions:
DOCKED: REMARK  status: ('A' for Active; 'I' for Inactive)
DOCKED: REMARK    1  A    between atoms: C_6  and  C_10 
DOCKED: REMARK    2  A    between atoms: C_10  and  C_11 
DOCKED: REMARK    3  A    between atoms: C_11  and  C_12 
DOCKED: REMARK    4  A    between atoms: C_12  and  O_14 
DOCKED: REMARK    5  A    between atoms: C_17  and  C_20 
DOCKED: REMARK    6  A    between atoms: C_24  and  C_27 
DOCKED: REMARK    7  A    between atoms: C_31  and  C_34 
DOCKED: REMARK    8  A    between atoms: C_34  and  C_35 
DOCKED: REMARK    9  A    between atoms: C_35  and  C_36 
DOCKED: REMARK   10  A    between atoms: C_36  and  O_38 
DOCKED: USER                              x       y       z     vdW  Elec       q    Type
DOCKED: USER                           _______ _______ _______ _____ _____    ______ ____
DOCKED: ROOT
DOCKED: ATOM      1  C   UNL d   1      -5.534 -10.931  -2.491 -0.32 +0.05    +0.064 C 
DOCKED: ATOM      2  C   UNL d   1      -1.739  -7.773  -2.746 -0.44 +0.02    +0.064 A 
DOCKED: ATOM      3  C   UNL d   1      -4.820  -4.272  -3.893 -0.33 +0.01    +0.064 C 
DOCKED: ATOM      4  C   UNL d   1      -8.494  -7.333  -3.754 -0.48 +0.02    +0.064 C 
DOCKED: ATOM      5  C   UNL d   1      -4.170 -10.385  -2.538 -0.34 +0.05    +0.066 A 
DOCKED: ATOM      6  C   UNL d   1      -3.014 -11.129  -2.369 -0.34 -0.02    -0.021 A 
DOCKED: ATOM      7  C   UNL d   1      -1.961 -10.251  -2.437 -0.30 -0.01    -0.025 A 
DOCKED: ATOM      8  C   UNL d   1      -2.515  -9.003  -2.644 -0.39 +0.03    +0.066 A 
DOCKED: ATOM      9  C   UNL d   1      -0.509 -10.603  -2.326 -0.32 +0.02    +0.051 C 
DOCKED: ATOM     10  C   UNL d   1      -2.244  -6.566  -3.003 -0.41 +0.02    +0.066 A 
DOCKED: ATOM     11  C   UNL d   1      -1.490  -5.390  -2.981 -0.45 -0.00    -0.021 A 
DOCKED: ATOM     12  C   UNL d   1      -2.360  -4.363  -3.292 -0.40 +0.00    +0.000 A 
DOCKED: ATOM     13  C   UNL d   1      -3.613  -4.971  -3.482 -0.37 +0.01    +0.070 A 
DOCKED: ATOM     14  C   UNL d   1      -0.028  -5.243  -2.614 -0.56 +0.01    +0.052 C 
DOCKED: ATOM     15  C   UNL d   1      -6.040  -4.844  -4.026 -0.39 +0.01    +0.066 A 
DOCKED: ATOM     16  C   UNL d   1      -7.147  -4.163  -4.517 -0.48 -0.00    -0.021 A 
DOCKED: ATOM     17  C   UNL d   1      -8.209  -5.043  -4.475 -0.47 +0.00    +0.000 A 
DOCKED: ATOM     18  C   UNL d   1      -7.724  -6.241  -3.954 -0.42 +0.02    +0.070 A 
DOCKED: ATOM     19  C   UNL d   1      -7.214  -2.734  -4.984 -0.63 +0.01    +0.052 C 
DOCKED: ATOM     20  C   UNL d   1      -8.006  -8.629  -3.266 -0.39 +0.02    +0.066 A 
DOCKED: ATOM     21  C   UNL d   1      -8.817  -9.701  -2.866 -0.39 -0.01    -0.025 A 
DOCKED: ATOM     22  C   UNL d   1      -7.952 -10.720  -2.523 -0.19 -0.01    -0.021 A 
DOCKED: ATOM     23  C   UNL d   1      -6.656 -10.230  -2.719 -0.01 +0.04    +0.066 A 
DOCKED: ATOM     24  C   UNL d   1     -10.325  -9.771  -2.804 -0.52 +0.01    +0.051 C 
DOCKED: ATOM     25  N   UNL d   1      -3.859  -9.089  -2.715 -0.25 -0.12    -0.248 N 
DOCKED: ATOM     26  N   UNL d   1      -3.545  -6.312  -3.297 -0.25 -0.07    -0.248 N 
DOCKED: ATOM     27  N   UNL d   1      -6.382  -6.133  -3.719 -0.25 -0.08    -0.248 N 
DOCKED: ATOM     28  N   UNL d   1      -6.694  -8.939  -3.130 -0.23 -0.11    -0.248 N 
DOCKED: ATOM     29 FE   UNL d   1      -5.122  -7.625  -3.214 -0.09 +0.00    +0.000 Fe
DOCKED: ENDROOT
DOCKED: BRANCH   6  30
DOCKED: ATOM     30  C   UNL d   1      -2.911 -12.604  -2.175 -0.14 +0.08    +0.052 C 
DOCKED: BRANCH  30  31
DOCKED: ATOM     31  C   UNL d   1      -3.021 -12.963  -0.698 -0.12 +0.16    +0.115 C 
DOCKED: BRANCH  31  32
DOCKED: ATOM     32  C   UNL d   1      -4.053 -14.037  -0.492 -0.08 +0.28    +0.139 C 
DOCKED: ATOM     33  O   UNL d   1      -3.797 -15.026   0.181 -0.28 -1.33    -0.650 OA
DOCKED: BRANCH  32  34
DOCKED: ATOM     34  O   UNL d   1      -5.269 -13.919  -1.050 -0.06 -1.73    -0.776 OA
DOCKED: ATOM     35  H   UNL d   1      -5.962 -13.443  -0.569 +0.05 +0.28    +0.167 HD
DOCKED: ENDBRANCH  32  34
DOCKED: ENDBRANCH  31  32
DOCKED: ENDBRANCH  30  31
DOCKED: ENDBRANCH   6  30
DOCKED: BRANCH  22  36
DOCKED: ATOM     36  C   UNL d   1      -8.352 -12.070  -1.989 -0.28 +0.03    +0.052 C 
DOCKED: BRANCH  36  37
DOCKED: ATOM     37  C   UNL d   1      -8.628 -11.971  -0.495 -0.25 +0.07    +0.115 C 
DOCKED: BRANCH  37  38
DOCKED: ATOM     38  C   UNL d   1      -7.798 -12.961   0.272 -0.22 +0.14    +0.139 C 
DOCKED: ATOM     39  O   UNL d   1      -7.052 -12.592   1.166 -0.47 -0.91    -0.650 OA
DOCKED: BRANCH  38  40
DOCKED: ATOM     40  O   UNL d   1      -7.872 -14.271  -0.025 +0.08 -0.85    -0.776 OA
DOCKED: ATOM     41  H   UNL d   1      -7.077 -14.727  -0.337 +0.04 +0.24    +0.167 HD
DOCKED: ENDBRANCH  38  40
DOCKED: ENDBRANCH  37  38
DOCKED: ENDBRANCH  36  37
DOCKED: ENDBRANCH  22  36
DOCKED: BRANCH  12  42
DOCKED: ATOM     42  C   UNL d   1      -1.983  -2.918  -3.372 -0.40 +0.00    +0.004 C 
DOCKED: ATOM     43  C   UNL d   1      -2.161  -2.221  -4.503 -0.58 +0.00    +0.012 C 
DOCKED: ENDBRANCH  12  42
DOCKED: BRANCH  17  44
DOCKED: ATOM     44  C   UNL d   1      -9.592  -4.763  -4.922 -0.44 +0.00    +0.004 C 
DOCKED: ATOM     45  C   UNL d   1     -10.301  -3.770  -4.375 -0.71 +0.00    +0.012 C 
DOCKED: ENDBRANCH  17  44
DOCKED: TORSDOF 10
DOCKED: TER
DOCKED: ENDMDL
________________________________________________________________________________


	BEGINNING GENETIC ALGORITHM DOCKING 19 of 100
Run: 19 Seed: 2128011874 164824938 [ Run 19 of 100 GA/GALS ]
Beginning LAMARCKIAN GENETIC ALGORITHM (LGA), with a maximum of 25000000 energy evaluations.

Final-Value: -18.870


	FINAL GENETIC ALGORITHM DOCKED STATE
	_______________________________________________


Detailed state:  trans -5.283 -9.067 -3.277 quatxyzw 0.089914 -0.012056 -0.658345 0.747229 center -0.174 -0.001 -0.047 ntor 10 -95.0612 -115.2747 69.2970 -121.0713 -139.0646 -159.8741 -29.4602 -67.9062 -165.9025 133.7616
State:	 -5.283  -9.067  -3.277   0.135 -0.018 -0.991 83.298    -95.06 -115.27   69.30 -121.07 -139.06 -159.87  -29.46  -67.91 -165.90  133.76

DOCKED: MODEL       19
DOCKED: USER    Run = 19
DOCKED: USER    DPF = D:/Protein_go_brrr/autodock/final/AncA/heme_Fe/dock.dpf
DOCKED: USER  
DOCKED: USER    Estimated Free Energy of Binding    =  -15.40 kcal/mol  [=(1)+(2)+(3)-(4)]
DOCKED: USER    Estimated Inhibition Constant, Ki   =    5.12 pM (picomolar)  [Temperature = 298.15 K]
DOCKED: USER    
DOCKED: USER    (1) Final Intermolecular Energy     =  -18.39 kcal/mol
DOCKED: USER        vdW + Hbond + desolv Energy     =  -14.90 kcal/mol
DOCKED: USER        Electrostatic Energy            =   -3.48 kcal/mol
DOCKED: USER    (2) Final Total Internal Energy     =   -0.48 kcal/mol
DOCKED: USER    (3) Torsional Free Energy           =   +2.98 kcal/mol
DOCKED: USER    (4) Unbound System's Energy  [=(2)] =   -0.48 kcal/mol
DOCKED: USER    
DOCKED: USER    
DOCKED: USER    NEWDPF move heme_Fe_opt.pdbqt
DOCKED: USER    NEWDPF about -0.174000 -0.001000 -0.047000
DOCKED: USER    NEWDPF tran0 -5.283382 -9.067011 -3.276827
DOCKED: USER    NEWDPF quaternion0 0.089914 -0.012056 -0.658345 0.747229
DOCKED: USER    NEWDPF axisangle0 0.135298 -0.018141 -0.990639 83.298153
DOCKED: USER    NEWDPF quat0 0.135298 -0.018141 -0.990639 83.298153
DOCKED: USER    NEWDPF dihe0 -95.06 -115.27 69.30 -121.07 -139.06 -159.87 -29.46 -67.91 -165.90 133.76 
DOCKED: USER  keepresnum = 1 
DOCKED: USER  
DOCKED: REMARK  10 active torsions:
DOCKED: REMARK  status: ('A' for Active; 'I' for Inactive)
DOCKED: REMARK    1  A    between atoms: C_6  and  C_10 
DOCKED: REMARK    2  A    between atoms: C_10  and  C_11 
DOCKED: REMARK    3  A    between atoms: C_11  and  C_12 
DOCKED: REMARK    4  A    between atoms: C_12  and  O_14 
DOCKED: REMARK    5  A    between atoms: C_17  and  C_20 
DOCKED: REMARK    6  A    between atoms: C_24  and  C_27 
DOCKED: REMARK    7  A    between atoms: C_31  and  C_34 
DOCKED: REMARK    8  A    between atoms: C_34  and  C_35 
DOCKED: REMARK    9  A    between atoms: C_35  and  C_36 
DOCKED: REMARK   10  A    between atoms: C_36  and  O_38 
DOCKED: USER                              x       y       z     vdW  Elec       q    Type
DOCKED: USER                           _______ _______ _______ _____ _____    ______ ____
DOCKED: ROOT
DOCKED: ATOM      1  C   UNL d   1      -5.542 -10.939  -2.476 -0.32 +0.05    +0.064 C 
DOCKED: ATOM      2  C   UNL d   1      -1.759  -7.772  -2.771 -0.44 +0.02    +0.064 A 
DOCKED: ATOM      3  C   UNL d   1      -4.850  -4.299  -3.976 -0.39 +0.01    +0.064 C 
DOCKED: ATOM      4  C   UNL d   1      -8.512  -7.371  -3.799 -0.49 +0.02    +0.064 C 
DOCKED: ATOM      5  C   UNL d   1      -4.180 -10.389  -2.529 -0.34 +0.05    +0.066 A 
DOCKED: ATOM      6  C   UNL d   1      -3.022 -11.126  -2.347 -0.34 -0.02    -0.021 A 
DOCKED: ATOM      7  C   UNL d   1      -1.972 -10.245  -2.425 -0.31 -0.01    -0.025 A 
DOCKED: ATOM      8  C   UNL d   1      -2.530  -9.003  -2.653 -0.39 +0.03    +0.066 A 
DOCKED: ATOM      9  C   UNL d   1      -0.519 -10.591  -2.307 -0.34 +0.02    +0.051 C 
DOCKED: ATOM     10  C   UNL d   1      -2.267  -6.570  -3.048 -0.41 +0.02    +0.066 A 
DOCKED: ATOM     11  C   UNL d   1      -1.518  -5.391  -3.041 -0.45 -0.00    -0.021 A 
DOCKED: ATOM     12  C   UNL d   1      -2.390  -4.372  -3.369 -0.41 +0.00    +0.000 A 
DOCKED: ATOM     13  C   UNL d   1      -3.640  -4.987  -3.552 -0.37 +0.01    +0.070 A 
DOCKED: ATOM     14  C   UNL d   1      -0.056  -5.233  -2.673 -0.58 +0.01    +0.052 C 
DOCKED: ATOM     15  C   UNL d   1      -6.067  -4.877  -4.104 -0.39 +0.01    +0.066 A 
DOCKED: ATOM     16  C   UNL d   1      -7.176  -4.208  -4.607 -0.48 -0.00    -0.021 A 
DOCKED: ATOM     17  C   UNL d   1      -8.234  -5.091  -4.553 -0.47 +0.00    +0.000 A 
DOCKED: ATOM     18  C   UNL d   1      -7.746  -6.279  -4.014 -0.42 +0.02    +0.070 A 
DOCKED: ATOM     19  C   UNL d   1      -7.246  -2.786  -5.095 -0.62 +0.01    +0.052 C 
DOCKED: ATOM     20  C   UNL d   1      -8.021  -8.658  -3.291 -0.39 +0.02    +0.066 A 
DOCKED: ATOM     21  C   UNL d   1      -8.828  -9.727  -2.877 -0.39 -0.01    -0.025 A 
DOCKED: ATOM     22  C   UNL d   1      -7.961 -10.737  -2.516 -0.19 -0.01    -0.021 A 
DOCKED: ATOM     23  C   UNL d   1      -6.666 -10.246  -2.717 -0.01 +0.04    +0.066 A 
DOCKED: ATOM     24  C   UNL d   1     -10.336  -9.801  -2.816 -0.51 +0.01    +0.051 C 
DOCKED: ATOM     25  N   UNL d   1      -3.873  -9.095  -2.725 -0.24 -0.12    -0.248 N 
DOCKED: ATOM     26  N   UNL d   1      -3.568  -6.325  -3.348 -0.25 -0.07    -0.248 N 
DOCKED: ATOM     27  N   UNL d   1      -6.405  -6.163  -3.778 -0.25 -0.08    -0.248 N 
DOCKED: ATOM     28  N   UNL d   1      -6.708  -8.961  -3.148 -0.23 -0.11    -0.248 N 
DOCKED: ATOM     29 FE   UNL d   1      -5.140  -7.643  -3.248 -0.09 +0.00    +0.000 Fe
DOCKED: ENDROOT
DOCKED: BRANCH   6  30
DOCKED: ATOM     30  C   UNL d   1      -2.914 -12.597  -2.131 -0.17 +0.08    +0.052 C 
DOCKED: BRANCH  30  31
DOCKED: ATOM     31  C   UNL d   1      -3.293 -12.962  -0.700 -0.11 +0.17    +0.115 C 
DOCKED: BRANCH  31  32
DOCKED: ATOM     32  C   UNL d   1      -3.873 -14.348  -0.646 -0.13 +0.28    +0.139 C 
DOCKED: ATOM     33  O   UNL d   1      -4.839 -14.592   0.063 -0.48 -1.55    -0.650 OA
DOCKED: BRANCH  32  34
DOCKED: ATOM     34  O   UNL d   1      -3.331 -15.335  -1.380 +0.19 -1.76    -0.776 OA
DOCKED: ATOM     35  H   UNL d   1      -2.575 -15.823  -1.025 +0.02 +0.25    +0.167 HD
DOCKED: ENDBRANCH  32  34
DOCKED: ENDBRANCH  31  32
DOCKED: ENDBRANCH  30  31
DOCKED: ENDBRANCH   6  30
DOCKED: BRANCH  22  36
DOCKED: ATOM     36  C   UNL d   1      -8.358 -12.080  -1.963 -0.28 +0.03    +0.052 C 
DOCKED: BRANCH  36  37
DOCKED: ATOM     37  C   UNL d   1      -7.574 -12.363  -0.690 -0.20 +0.10    +0.115 C 
DOCKED: BRANCH  37  38
DOCKED: ATOM     38  C   UNL d   1      -8.474 -12.343   0.513 -0.23 +0.11    +0.139 C 
DOCKED: ATOM     39  O   UNL d   1      -8.016 -12.183   1.635 -0.59 -0.70    -0.650 OA
DOCKED: BRANCH  38  40
DOCKED: ATOM     40  O   UNL d   1      -9.801 -12.505   0.361 -0.45 -0.51    -0.776 OA
DOCKED: ATOM     41  H   UNL d   1     -10.135 -13.348   0.023 +0.06 +0.10    +0.167 HD
DOCKED: ENDBRANCH  38  40
DOCKED: ENDBRANCH  37  38
DOCKED: ENDBRANCH  36  37
DOCKED: ENDBRANCH  22  36
DOCKED: BRANCH  12  42
DOCKED: ATOM     42  C   UNL d   1      -2.018  -2.927  -3.471 -0.42 +0.00    +0.004 C 
DOCKED: ATOM     43  C   UNL d   1      -2.119  -2.270  -4.634 -0.59 +0.00    +0.012 C 
DOCKED: ENDBRANCH  12  42
DOCKED: BRANCH  17  44
DOCKED: ATOM     44  C   UNL d   1      -9.617  -4.823  -5.008 -0.35 +0.00    +0.004 C 
DOCKED: ATOM     45  C   UNL d   1     -10.386  -3.933  -4.372 -0.69 +0.00    +0.012 C 
DOCKED: ENDBRANCH  17  44
DOCKED: TORSDOF 10
DOCKED: TER
DOCKED: ENDMDL
________________________________________________________________________________


	BEGINNING GENETIC ALGORITHM DOCKING 20 of 100
Run: 20 Seed: 1843279560 1113630169 [ Run 20 of 100 GA/GALS ]
Beginning LAMARCKIAN GENETIC ALGORITHM (LGA), with a maximum of 25000000 energy evaluations.

Final-Value: -19.468


	FINAL GENETIC ALGORITHM DOCKED STATE
	_______________________________________________


Detailed state:  trans -5.378 -8.966 -3.291 quatxyzw -0.097548 0.016510 0.646327 -0.756620 center -0.174 -0.001 -0.047 ntor 10 70.5516 -125.1092 73.9648 -131.7963 137.3439 -146.1926 -59.3601 13.4610 -164.9634 -172.3735
State:	 -5.378  -8.966  -3.291  -0.149  0.025  0.988 -81.666     70.55 -125.11   73.96 -131.80  137.34 -146.19  -59.36   13.46 -164.96 -172.37

DOCKED: MODEL       20
DOCKED: USER    Run = 20
DOCKED: USER    DPF = D:/Protein_go_brrr/autodock/final/AncA/heme_Fe/dock.dpf
DOCKED: USER  
DOCKED: USER    Estimated Free Energy of Binding    =  -14.77 kcal/mol  [=(1)+(2)+(3)-(4)]
DOCKED: USER    Estimated Inhibition Constant, Ki   =   14.90 pM (picomolar)  [Temperature = 298.15 K]
DOCKED: USER    
DOCKED: USER    (1) Final Intermolecular Energy     =  -17.75 kcal/mol
DOCKED: USER        vdW + Hbond + desolv Energy     =  -14.44 kcal/mol
DOCKED: USER        Electrostatic Energy            =   -3.31 kcal/mol
DOCKED: USER    (2) Final Total Internal Energy     =   -1.71 kcal/mol
DOCKED: USER    (3) Torsional Free Energy           =   +2.98 kcal/mol
DOCKED: USER    (4) Unbound System's Energy  [=(2)] =   -1.71 kcal/mol
DOCKED: USER    
DOCKED: USER    
DOCKED: USER    NEWDPF move heme_Fe_opt.pdbqt
DOCKED: USER    NEWDPF about -0.174000 -0.001000 -0.047000
DOCKED: USER    NEWDPF tran0 -5.378043 -8.966354 -3.291320
DOCKED: USER    NEWDPF quaternion0 -0.097548 0.016510 0.646327 -0.756620
DOCKED: USER    NEWDPF axisangle0 -0.149189 0.025251 0.988486 -81.665768
DOCKED: USER    NEWDPF quat0 -0.149189 0.025251 0.988486 -81.665768
DOCKED: USER    NEWDPF dihe0 70.55 -125.11 73.96 -131.80 137.34 -146.19 -59.36 13.46 -164.96 -172.37 
DOCKED: USER  keepresnum = 1 
DOCKED: USER  
DOCKED: REMARK  10 active torsions:
DOCKED: REMARK  status: ('A' for Active; 'I' for Inactive)
DOCKED: REMARK    1  A    between atoms: C_6  and  C_10 
DOCKED: REMARK    2  A    between atoms: C_10  and  C_11 
DOCKED: REMARK    3  A    between atoms: C_11  and  C_12 
DOCKED: REMARK    4  A    between atoms: C_12  and  O_14 
DOCKED: REMARK    5  A    between atoms: C_17  and  C_20 
DOCKED: REMARK    6  A    between atoms: C_24  and  C_27 
DOCKED: REMARK    7  A    between atoms: C_31  and  C_34 
DOCKED: REMARK    8  A    between atoms: C_34  and  C_35 
DOCKED: REMARK    9  A    between atoms: C_35  and  C_36 
DOCKED: REMARK   10  A    between atoms: C_36  and  O_38 
DOCKED: USER                              x       y       z     vdW  Elec       q    Type
DOCKED: USER                           _______ _______ _______ _____ _____    ______ ____
DOCKED: ROOT
DOCKED: ATOM      1  C   UNL d   1      -5.699 -10.816  -2.463 -0.24 +0.05    +0.064 C 
DOCKED: ATOM      2  C   UNL d   1      -1.818  -7.773  -2.785 -0.44 +0.02    +0.064 A 
DOCKED: ATOM      3  C   UNL d   1      -4.793  -4.226  -4.063 -0.37 +0.01    +0.064 C 
DOCKED: ATOM      4  C   UNL d   1      -8.550  -7.180  -3.860 -0.49 +0.02    +0.064 C 
DOCKED: ATOM      5  C   UNL d   1      -4.321 -10.309  -2.516 -0.34 +0.05    +0.066 A 
DOCKED: ATOM      6  C   UNL d   1      -3.187 -11.079  -2.316 -0.34 -0.02    -0.021 A 
DOCKED: ATOM      7  C   UNL d   1      -2.109 -10.233  -2.401 -0.33 -0.01    -0.025 A 
DOCKED: ATOM      8  C   UNL d   1      -2.628  -8.977  -2.652 -0.38 +0.03    +0.066 A 
DOCKED: ATOM      9  C   UNL d   1      -0.669 -10.621  -2.269 -0.34 +0.02    +0.051 C 
DOCKED: ATOM     10  C   UNL d   1      -2.287  -6.560  -3.083 -0.41 +0.02    +0.066 A 
DOCKED: ATOM     11  C   UNL d   1      -1.502  -5.405  -3.091 -0.45 -0.00    -0.021 A 
DOCKED: ATOM     12  C   UNL d   1      -2.340  -4.365  -3.440 -0.41 +0.00    +0.000 A 
DOCKED: ATOM     13  C   UNL d   1      -3.608  -4.944  -3.621 -0.37 +0.01    +0.070 A 
DOCKED: ATOM     14  C   UNL d   1      -0.038  -5.287  -2.717 -0.59 +0.01    +0.052 C 
DOCKED: ATOM     15  C   UNL d   1      -6.027  -4.768  -4.189 -0.39 +0.01    +0.066 A 
DOCKED: ATOM     16  C   UNL d   1      -7.112  -4.073  -4.709 -0.49 -0.00    -0.021 A 
DOCKED: ATOM     17  C   UNL d   1      -8.197  -4.922  -4.648 -0.47 +0.00    +0.000 A 
DOCKED: ATOM     18  C   UNL d   1      -7.749  -6.116  -4.087 -0.42 +0.02    +0.070 A 
DOCKED: ATOM     19  C   UNL d   1      -7.136  -2.658  -5.221 -0.60 +0.01    +0.052 C 
DOCKED: ATOM     20  C   UNL d   1      -8.102  -8.473  -3.329 -0.40 +0.02    +0.066 A 
DOCKED: ATOM     21  C   UNL d   1      -8.944  -9.510  -2.902 -0.41 -0.01    -0.025 A 
DOCKED: ATOM     22  C   UNL d   1      -8.111 -10.540  -2.521 -0.20 -0.01    -0.021 A 
DOCKED: ATOM     23  C   UNL d   1      -6.799 -10.093  -2.722 +0.05 +0.04    +0.066 A 
DOCKED: ATOM     24  C   UNL d   1     -10.454  -9.537  -2.850 -0.53 +0.01    +0.051 C 
DOCKED: ATOM     25  N   UNL d   1      -3.973  -9.029  -2.731 -0.24 -0.12    -0.248 N 
DOCKED: ATOM     26  N   UNL d   1      -3.578  -6.281  -3.395 -0.25 -0.07    -0.248 N 
DOCKED: ATOM     27  N   UNL d   1      -6.406  -6.038  -3.845 -0.25 -0.08    -0.248 N 
DOCKED: ATOM     28  N   UNL d   1      -6.800  -8.814  -3.172 -0.24 -0.11    -0.248 N 
DOCKED: ATOM     29 FE   UNL d   1      -5.191  -7.547  -3.284 -0.09 +0.00    +0.000 Fe
DOCKED: ENDROOT
DOCKED: BRANCH   6  30
DOCKED: ATOM     30  C   UNL d   1      -3.126 -12.549  -2.075 -0.07 +0.09    +0.052 C 
DOCKED: BRANCH  30  31
DOCKED: ATOM     31  C   UNL d   1      -3.546 -12.881  -0.648 -0.09 +0.17    +0.115 C 
DOCKED: BRANCH  31  32
DOCKED: ATOM     32  C   UNL d   1      -4.735 -13.802  -0.650 -0.16 +0.28    +0.139 C 
DOCKED: ATOM     33  O   UNL d   1      -4.790 -14.751   0.119 -0.49 -1.57    -0.650 OA
DOCKED: BRANCH  32  34
DOCKED: ATOM     34  O   UNL d   1      -5.752 -13.588  -1.501 +0.03 -1.67    -0.776 OA
DOCKED: ATOM     35  H   UNL d   1      -6.599 -13.277  -1.152 +0.05 +0.24    +0.167 HD
DOCKED: ENDBRANCH  32  34
DOCKED: ENDBRANCH  31  32
DOCKED: ENDBRANCH  30  31
DOCKED: ENDBRANCH   6  30
DOCKED: BRANCH  22  36
DOCKED: ATOM     36  C   UNL d   1      -8.551 -11.862  -1.949 -0.29 +0.03    +0.052 C 
DOCKED: BRANCH  36  37
DOCKED: ATOM     37  C   UNL d   1      -8.982 -11.677  -0.501 -0.29 +0.06    +0.115 C 
DOCKED: BRANCH  37  38
DOCKED: ATOM     38  C   UNL d   1      -9.133 -13.003   0.190 -0.23 +0.10    +0.139 C 
DOCKED: ATOM     39  O   UNL d   1      -9.987 -13.166   1.049 -0.54 -0.43    -0.650 OA
DOCKED: BRANCH  38  40
DOCKED: ATOM     40  O   UNL d   1      -8.322 -14.025  -0.135 +0.09 -0.71    -0.776 OA
DOCKED: ATOM     41  H   UNL d   1      -7.364 -13.897  -0.091 +0.05 +0.21    +0.167 HD
DOCKED: ENDBRANCH  38  40
DOCKED: ENDBRANCH  37  38
DOCKED: ENDBRANCH  36  37
DOCKED: ENDBRANCH  22  36
DOCKED: BRANCH  12  42
DOCKED: ATOM     42  C   UNL d   1      -1.923  -2.934  -3.563 -0.46 +0.00    +0.004 C 
DOCKED: ATOM     43  C   UNL d   1      -2.083  -2.265  -4.712 -0.59 +0.00    +0.012 C 
DOCKED: ENDBRANCH  12  42
DOCKED: BRANCH  17  44
DOCKED: ATOM     44  C   UNL d   1      -9.569  -4.618  -5.115 -0.28 +0.00    +0.004 C 
DOCKED: ATOM     45  C   UNL d   1     -10.389  -3.859  -4.382 -0.70 +0.00    +0.012 C 
DOCKED: ENDBRANCH  17  44
DOCKED: TORSDOF 10
DOCKED: TER
DOCKED: ENDMDL
________________________________________________________________________________


	BEGINNING GENETIC ALGORITHM DOCKING 21 of 100
Run: 21 Seed: 492754644 1315145258 [ Run 21 of 100 GA/GALS ]
Beginning LAMARCKIAN GENETIC ALGORITHM (LGA), with a maximum of 25000000 energy evaluations.

Final-Value: -20.193


	FINAL GENETIC ALGORITHM DOCKED STATE
	_______________________________________________


Detailed state:  trans -5.153 -9.028 -3.353 quatxyzw 0.083912 0.003426 -0.657861 0.748442 center -0.174 -0.001 -0.047 ntor 10 -154.3222 0.5433 79.9236 -124.3506 55.6747 -179.9909 -21.3467 69.0481 178.1801 157.2263
State:	 -5.153  -9.028  -3.353   0.127  0.005 -0.992 83.089   -154.32    0.54   79.92 -124.35   55.67 -179.99  -21.35   69.05  178.18  157.23

DOCKED: MODEL       21
DOCKED: USER    Run = 21
DOCKED: USER    DPF = D:/Protein_go_brrr/autodock/final/AncA/heme_Fe/dock.dpf
DOCKED: USER  
DOCKED: USER    Estimated Free Energy of Binding    =  -15.15 kcal/mol  [=(1)+(2)+(3)-(4)]
DOCKED: USER    Estimated Inhibition Constant, Ki   =    7.86 pM (picomolar)  [Temperature = 298.15 K]
DOCKED: USER    
DOCKED: USER    (1) Final Intermolecular Energy     =  -18.13 kcal/mol
DOCKED: USER        vdW + Hbond + desolv Energy     =  -14.14 kcal/mol
DOCKED: USER        Electrostatic Energy            =   -4.00 kcal/mol
DOCKED: USER    (2) Final Total Internal Energy     =   -2.06 kcal/mol
DOCKED: USER    (3) Torsional Free Energy           =   +2.98 kcal/mol
DOCKED: USER    (4) Unbound System's Energy  [=(2)] =   -2.06 kcal/mol
DOCKED: USER    
DOCKED: USER    
DOCKED: USER    NEWDPF move heme_Fe_opt.pdbqt
DOCKED: USER    NEWDPF about -0.174000 -0.001000 -0.047000
DOCKED: USER    NEWDPF tran0 -5.152771 -9.028296 -3.353216
DOCKED: USER    NEWDPF quaternion0 0.083912 0.003426 -0.657861 0.748442
DOCKED: USER    NEWDPF axisangle0 0.126526 0.005165 -0.991950 83.088786
DOCKED: USER    NEWDPF quat0 0.126526 0.005165 -0.991950 83.088786
DOCKED: USER    NEWDPF dihe0 -154.32 0.54 79.92 -124.35 55.67 -179.99 -21.35 69.05 178.18 157.23 
DOCKED: USER  keepresnum = 1 
DOCKED: USER  
DOCKED: REMARK  10 active torsions:
DOCKED: REMARK  status: ('A' for Active; 'I' for Inactive)
DOCKED: REMARK    1  A    between atoms: C_6  and  C_10 
DOCKED: REMARK    2  A    between atoms: C_10  and  C_11 
DOCKED: REMARK    3  A    between atoms: C_11  and  C_12 
DOCKED: REMARK    4  A    between atoms: C_12  and  O_14 
DOCKED: REMARK    5  A    between atoms: C_17  and  C_20 
DOCKED: REMARK    6  A    between atoms: C_24  and  C_27 
DOCKED: REMARK    7  A    between atoms: C_31  and  C_34 
DOCKED: REMARK    8  A    between atoms: C_34  and  C_35 
DOCKED: REMARK    9  A    between atoms: C_35  and  C_36 
DOCKED: REMARK   10  A    between atoms: C_36  and  O_38 
DOCKED: USER                              x       y       z     vdW  Elec       q    Type
DOCKED: USER                           _______ _______ _______ _____ _____    ______ ____
DOCKED: ROOT
DOCKED: ATOM      1  C   UNL d   1      -5.422 -10.923  -2.612 -0.36 +0.06    +0.064 C 
DOCKED: ATOM      2  C   UNL d   1      -1.637  -7.748  -2.756 -0.44 +0.02    +0.064 A 
DOCKED: ATOM      3  C   UNL d   1      -4.711  -4.241  -3.905 -0.31 +0.01    +0.064 C 
DOCKED: ATOM      4  C   UNL d   1      -8.374  -7.318  -3.875 -0.49 +0.02    +0.064 C 
DOCKED: ATOM      5  C   UNL d   1      -4.060 -10.372  -2.628 -0.35 +0.05    +0.066 A 
DOCKED: ATOM      6  C   UNL d   1      -2.905 -11.114  -2.450 -0.33 -0.02    -0.021 A 
DOCKED: ATOM      7  C   UNL d   1      -1.854 -10.231  -2.486 -0.27 -0.01    -0.025 A 
DOCKED: ATOM      8  C   UNL d   1      -2.410  -8.982  -2.685 -0.39 +0.03    +0.066 A 
DOCKED: ATOM      9  C   UNL d   1      -0.403 -10.579  -2.356 -0.29 +0.02    +0.051 C 
DOCKED: ATOM     10  C   UNL d   1      -2.142  -6.539  -3.004 -0.41 +0.02    +0.066 A 
DOCKED: ATOM     11  C   UNL d   1      -1.393  -5.360  -2.951 -0.45 -0.00    -0.021 A 
DOCKED: ATOM     12  C   UNL d   1      -2.261  -4.333  -3.262 -0.41 +0.00    +0.000 A 
DOCKED: ATOM     13  C   UNL d   1      -3.508  -4.942  -3.483 -0.37 +0.01    +0.070 A 
DOCKED: ATOM     14  C   UNL d   1       0.062  -5.213  -2.556 -0.53 +0.00    +0.052 C 
DOCKED: ATOM     15  C   UNL d   1      -5.926  -4.816  -4.068 -0.39 +0.01    +0.066 A 
DOCKED: ATOM     16  C   UNL d   1      -7.027  -4.132  -4.568 -0.48 -0.00    -0.021 A 
DOCKED: ATOM     17  C   UNL d   1      -8.086  -5.017  -4.557 -0.47 +0.00    +0.000 A 
DOCKED: ATOM     18  C   UNL d   1      -7.606  -6.220  -4.045 -0.42 +0.02    +0.070 A 
DOCKED: ATOM     19  C   UNL d   1      -7.091  -2.697  -5.015 -0.63 +0.01    +0.052 C 
DOCKED: ATOM     20  C   UNL d   1      -7.890  -8.619  -3.398 -0.39 +0.02    +0.066 A 
DOCKED: ATOM     21  C   UNL d   1      -8.703  -9.700  -3.028 -0.38 -0.01    -0.025 A 
DOCKED: ATOM     22  C   UNL d   1      -7.841 -10.720  -2.683 -0.22 -0.01    -0.021 A 
DOCKED: ATOM     23  C   UNL d   1      -6.543 -10.223  -2.850 -0.06 +0.04    +0.066 A 
DOCKED: ATOM     24  C   UNL d   1     -10.212  -9.776  -2.992 -0.51 +0.01    +0.051 C 
DOCKED: ATOM     25  N   UNL d   1      -3.751  -9.072  -2.781 -0.24 -0.12    -0.248 N 
DOCKED: ATOM     26  N   UNL d   1      -3.438  -6.286  -3.317 -0.25 -0.07    -0.248 N 
DOCKED: ATOM     27  N   UNL d   1      -6.268  -6.111  -3.785 -0.24 -0.09    -0.248 N 
DOCKED: ATOM     28  N   UNL d   1      -6.579  -8.926  -3.243 -0.23 -0.12    -0.248 N 
DOCKED: ATOM     29 FE   UNL d   1      -5.011  -7.606  -3.280 -0.09 +0.00    +0.000 Fe
DOCKED: ENDROOT
DOCKED: BRANCH   6  30
DOCKED: ATOM     30  C   UNL d   1      -2.799 -12.590  -2.276 -0.16 +0.08    +0.052 C 
DOCKED: BRANCH  30  31
DOCKED: ATOM     31  C   UNL d   1      -2.812 -12.962  -0.797 -0.16 +0.15    +0.115 C 
DOCKED: BRANCH  31  32
DOCKED: ATOM     32  C   UNL d   1      -3.223 -14.397  -0.619 -0.16 +0.25    +0.139 C 
DOCKED: ATOM     33  O   UNL d   1      -2.618 -15.294  -1.189 -0.03 -1.09    -0.650 OA
DOCKED: BRANCH  32  34
DOCKED: ATOM     34  O   UNL d   1      -4.265 -14.708   0.172 -0.31 -1.78    -0.776 OA
DOCKED: ATOM     35  H   UNL d   1      -4.957 -14.047   0.318 +0.03 +0.41    +0.167 HD
DOCKED: ENDBRANCH  32  34
DOCKED: ENDBRANCH  31  32
DOCKED: ENDBRANCH  30  31
DOCKED: ENDBRANCH   6  30
DOCKED: BRANCH  22  36
DOCKED: ATOM     36  C   UNL d   1      -8.245 -12.080  -2.176 -0.28 +0.04    +0.052 C 
DOCKED: BRANCH  36  37
DOCKED: ATOM     37  C   UNL d   1      -7.971 -12.172  -0.683 -0.21 +0.09    +0.115 C 
DOCKED: BRANCH  37  38
DOCKED: ATOM     38  C   UNL d   1      -6.859 -13.141  -0.398 -0.22 +0.18    +0.139 C 
DOCKED: ATOM     39  O   UNL d   1      -6.491 -13.352   0.748 -0.11 -1.17    -0.650 OA
DOCKED: BRANCH  38  40
DOCKED: ATOM     40  O   UNL d   1      -6.253 -13.784  -1.412 -0.15 -1.48    -0.776 OA
DOCKED: ATOM     41  H   UNL d   1      -5.541 -14.408  -1.214 +0.03 +0.42    +0.167 HD
DOCKED: ENDBRANCH  38  40
DOCKED: ENDBRANCH  37  38
DOCKED: ENDBRANCH  36  37
DOCKED: ENDBRANCH  22  36
DOCKED: BRANCH  12  42
DOCKED: ATOM     42  C   UNL d   1      -1.889  -2.885  -3.316 -0.42 +0.00    +0.004 C 
DOCKED: ATOM     43  C   UNL d   1      -2.167  -2.141  -4.394 -0.59 +0.00    +0.012 C 
DOCKED: ENDBRANCH  12  42
DOCKED: BRANCH  17  44
DOCKED: ATOM     44  C   UNL d   1      -9.462  -4.735  -5.025 -0.31 +0.00    +0.004 C 
DOCKED: ATOM     45  C   UNL d   1     -10.264  -3.914  -4.338 -0.69 +0.00    +0.012 C 
DOCKED: ENDBRANCH  17  44
DOCKED: TORSDOF 10
DOCKED: TER
DOCKED: ENDMDL
________________________________________________________________________________


	BEGINNING GENETIC ALGORITHM DOCKING 22 of 100
Run: 22 Seed: 1907117088 356121896 [ Run 22 of 100 GA/GALS ]
Beginning LAMARCKIAN GENETIC ALGORITHM (LGA), with a maximum of 25000000 energy evaluations.

Final-Value: -13.708


	FINAL GENETIC ALGORITHM DOCKED STATE
	_______________________________________________


Detailed state:  trans -10.371 -13.876 -1.077 quatxyzw 0.251690 -0.332799 -0.882550 0.216802 center -0.174 -0.001 -0.047 ntor 10 -31.3293 -158.4146 -169.0788 -156.1537 104.5480 39.3088 109.0227 -30.7069 0.1323 -6.7641
State:	-10.371 -13.876  -1.077   0.258 -0.341 -0.904 154.957    -31.33 -158.41 -169.08 -156.15  104.55   39.31  109.02  -30.71    0.13   -6.76

DOCKED: MODEL       22
DOCKED: USER    Run = 22
DOCKED: USER    DPF = D:/Protein_go_brrr/autodock/final/AncA/heme_Fe/dock.dpf
DOCKED: USER  
DOCKED: USER    Estimated Free Energy of Binding    =   -9.15 kcal/mol  [=(1)+(2)+(3)-(4)]
DOCKED: USER    Estimated Inhibition Constant, Ki   =  195.91 nM (nanomolar)  [Temperature = 298.15 K]
DOCKED: USER    
DOCKED: USER    (1) Final Intermolecular Energy     =  -12.13 kcal/mol
DOCKED: USER        vdW + Hbond + desolv Energy     =   -7.94 kcal/mol
DOCKED: USER        Electrostatic Energy            =   -4.20 kcal/mol
DOCKED: USER    (2) Final Total Internal Energy     =   -1.57 kcal/mol
DOCKED: USER    (3) Torsional Free Energy           =   +2.98 kcal/mol
DOCKED: USER    (4) Unbound System's Energy  [=(2)] =   -1.57 kcal/mol
DOCKED: USER    
DOCKED: USER    
DOCKED: USER    NEWDPF move heme_Fe_opt.pdbqt
DOCKED: USER    NEWDPF about -0.174000 -0.001000 -0.047000
DOCKED: USER    NEWDPF tran0 -10.371035 -13.875639 -1.077182
DOCKED: USER    NEWDPF quaternion0 0.251690 -0.332799 -0.882550 0.216802
DOCKED: USER    NEWDPF axisangle0 0.257822 -0.340907 -0.904052 154.957483
DOCKED: USER    NEWDPF quat0 0.257822 -0.340907 -0.904052 154.957483
DOCKED: USER    NEWDPF dihe0 -31.33 -158.41 -169.08 -156.15 104.55 39.31 109.02 -30.71 0.13 -6.76 
DOCKED: USER  keepresnum = 1 
DOCKED: USER  
DOCKED: REMARK  10 active torsions:
DOCKED: REMARK  status: ('A' for Active; 'I' for Inactive)
DOCKED: REMARK    1  A    between atoms: C_6  and  C_10 
DOCKED: REMARK    2  A    between atoms: C_10  and  C_11 
DOCKED: REMARK    3  A    between atoms: C_11  and  C_12 
DOCKED: REMARK    4  A    between atoms: C_12  and  O_14 
DOCKED: REMARK    5  A    between atoms: C_17  and  C_20 
DOCKED: REMARK    6  A    between atoms: C_24  and  C_27 
DOCKED: REMARK    7  A    between atoms: C_31  and  C_34 
DOCKED: REMARK    8  A    between atoms: C_34  and  C_35 
DOCKED: REMARK    9  A    between atoms: C_35  and  C_36 
DOCKED: REMARK   10  A    between atoms: C_36  and  O_38 
DOCKED: USER                              x       y       z     vdW  Elec       q    Type
DOCKED: USER                           _______ _______ _______ _____ _____    ______ ____
DOCKED: ROOT
DOCKED: ATOM      1  C   UNL d   1      -8.954 -13.891   0.407 -0.18 +0.05    +0.064 C 
DOCKED: ATOM      2  C   UNL d   1      -9.913 -10.964  -3.459 -0.23 +0.02    +0.064 A 
DOCKED: ATOM      3  C   UNL d   1     -14.251 -12.992  -3.830 -0.22 +0.01    +0.064 C 
DOCKED: ATOM      4  C   UNL d   1     -13.304 -15.907  -0.157 -0.13 +0.01    +0.064 C 
DOCKED: ATOM      5  C   UNL d   1      -8.790 -12.937  -0.699 -0.20 +0.05    +0.066 A 
DOCKED: ATOM      6  C   UNL d   1      -7.624 -12.243  -0.978 -0.21 -0.02    -0.021 A 
DOCKED: ATOM      7  C   UNL d   1      -7.892 -11.428  -2.049 -0.22 -0.02    -0.025 A 
DOCKED: ATOM      8  C   UNL d   1      -9.213 -11.656  -2.384 -0.25 +0.03    +0.066 A 
DOCKED: ATOM      9  C   UNL d   1      -6.924 -10.501  -2.718 -0.16 +0.03    +0.051 C 
DOCKED: ATOM     10  C   UNL d   1     -11.168 -11.207  -3.839 -0.31 +0.01    +0.066 A 
DOCKED: ATOM     11  C   UNL d   1     -11.848 -10.449  -4.796 -0.45 -0.00    -0.021 A 
DOCKED: ATOM     12  C   UNL d   1     -13.108 -11.003  -4.909 -0.38 +0.00    +0.000 A 
DOCKED: ATOM     13  C   UNL d   1     -13.134 -12.076  -4.001 -0.26 +0.00    +0.070 A 
DOCKED: ATOM     14  C   UNL d   1     -11.346  -9.215  -5.517 -0.49 +0.01    +0.052 C 
DOCKED: ATOM     15  C   UNL d   1     -14.301 -13.994  -2.921 -0.15 +0.01    +0.066 A 
DOCKED: ATOM     16  C   UNL d   1     -15.343 -14.909  -2.857 -0.14 -0.00    -0.021 A 
DOCKED: ATOM     17  C   UNL d   1     -15.074 -15.748  -1.796 -0.14 +0.00    +0.000 A 
DOCKED: ATOM     18  C   UNL d   1     -13.873 -15.322  -1.234 -0.09 +0.01    +0.070 A 
DOCKED: ATOM     19  C   UNL d   1     -16.560 -14.979  -3.741 -0.07 +0.01    +0.052 C 
DOCKED: ATOM     20  C   UNL d   1     -12.011 -15.524   0.424 -0.07 +0.02    +0.066 A 
DOCKED: ATOM     21  C   UNL d   1     -11.507 -15.983   1.649 -0.10 -0.01    -0.025 A 
DOCKED: ATOM     22  C   UNL d   1     -10.261 -15.406   1.784 -0.11 -0.01    -0.021 A 
DOCKED: ATOM     23  C   UNL d   1     -10.058 -14.617   0.645 -0.13 +0.04    +0.066 A 
DOCKED: ATOM     24  C   UNL d   1     -12.156 -16.911   2.649 -0.07 +0.01    +0.051 C 
DOCKED: ATOM     25  N   UNL d   1      -9.754 -12.582  -1.566 -0.15 -0.12    -0.248 N 
DOCKED: ATOM     26  N   UNL d   1     -11.955 -12.195  -3.342 -0.17 -0.04    -0.248 N 
DOCKED: ATOM     27  N   UNL d   1     -13.375 -14.271  -1.951 -0.09 -0.02    -0.248 N 
DOCKED: ATOM     28  N   UNL d   1     -11.148 -14.658  -0.160 -0.09 -0.09    -0.248 N 
DOCKED: ATOM     29 FE   UNL d   1     -11.553 -13.428  -1.750 -0.06 +0.00    +0.000 Fe
DOCKED: ENDROOT
DOCKED: BRANCH   6  30
DOCKED: ATOM     30  C   UNL d   1      -6.314 -12.362  -0.277 -0.22 +0.06    +0.052 C 
DOCKED: BRANCH  30  31
DOCKED: ATOM     31  C   UNL d   1      -5.453 -13.442  -0.922 -0.18 +0.22    +0.115 C 
DOCKED: BRANCH  31  32
DOCKED: ATOM     32  C   UNL d   1      -6.011 -14.807  -0.627 -0.13 +0.27    +0.139 C 
DOCKED: ATOM     33  O   UNL d   1      -6.617 -15.431  -1.487 -0.57 -1.26    -0.650 OA
DOCKED: BRANCH  32  34
DOCKED: ATOM     34  O   UNL d   1      -5.850 -15.354   0.590 -0.38 -1.93    -0.776 OA
DOCKED: ATOM     35  H   UNL d   1      -6.532 -15.949   0.931 +0.02 +0.31    +0.167 HD
DOCKED: ENDBRANCH  32  34
DOCKED: ENDBRANCH  31  32
DOCKED: ENDBRANCH  30  31
DOCKED: ENDBRANCH   6  30
DOCKED: BRANCH  22  36
DOCKED: ATOM     36  C   UNL d   1      -9.340 -15.566   2.965 -0.09 +0.04    +0.052 C 
DOCKED: BRANCH  36  37
DOCKED: ATOM     37  C   UNL d   1      -8.422 -16.759   2.742 -0.03 +0.09    +0.115 C 
DOCKED: BRANCH  37  38
DOCKED: ATOM     38  C   UNL d   1      -7.088 -16.542   3.398 +0.03 +0.20    +0.139 C 
DOCKED: ATOM     39  O   UNL d   1      -7.010 -16.004   4.493 -0.08 -0.92    -0.650 OA
DOCKED: BRANCH  38  40
DOCKED: ATOM     40  O   UNL d   1      -5.963 -16.939   2.778 +0.01 -1.52    -0.776 OA
DOCKED: ATOM     41  H   UNL d   1      -5.975 -17.068   1.820 +0.00 +0.27    +0.167 HD
DOCKED: ENDBRANCH  38  40
DOCKED: ENDBRANCH  37  38
DOCKED: ENDBRANCH  36  37
DOCKED: ENDBRANCH  22  36
DOCKED: BRANCH  12  42
DOCKED: ATOM     42  C   UNL d   1     -14.185 -10.502  -5.818 -0.42 +0.00    +0.004 C 
DOCKED: ATOM     43  C   UNL d   1     -15.369 -10.108  -5.331 -0.39 +0.00    +0.012 C 
DOCKED: ENDBRANCH  12  42
DOCKED: BRANCH  17  44
DOCKED: ATOM     44  C   UNL d   1     -15.902 -16.896  -1.361 -0.08 +0.00    +0.004 C 
DOCKED: ATOM     45  C   UNL d   1     -16.704 -16.798  -0.296 -0.10 +0.00    +0.012 C 
DOCKED: ENDBRANCH  17  44
DOCKED: TORSDOF 10
DOCKED: TER
DOCKED: ENDMDL
________________________________________________________________________________


	BEGINNING GENETIC ALGORITHM DOCKING 23 of 100
Run: 23 Seed: 1816564963 2017632574 [ Run 23 of 100 GA/GALS ]
Beginning LAMARCKIAN GENETIC ALGORITHM (LGA), with a maximum of 25000000 energy evaluations.

Final-Value: -19.087


	FINAL GENETIC ALGORITHM DOCKED STATE
	_______________________________________________


Detailed state:  trans -5.097 -8.930 -2.525 quatxyzw -0.708251 -0.686849 0.065463 0.149446 center -0.174 -0.001 -0.047 ntor 10 -180.0000 50.1986 34.2911 -139.8512 -180.0000 139.8628 76.1887 -65.6253 45.6965 1.3735
State:	 -5.097  -8.930  -2.525  -0.716 -0.695  0.066 162.810   -180.00   50.20   34.29 -139.85 -180.00  139.86   76.19  -65.63   45.70    1.37

DOCKED: MODEL       23
DOCKED: USER    Run = 23
DOCKED: USER    DPF = D:/Protein_go_brrr/autodock/final/AncA/heme_Fe/dock.dpf
DOCKED: USER  
DOCKED: USER    Estimated Free Energy of Binding    =  -14.71 kcal/mol  [=(1)+(2)+(3)-(4)]
DOCKED: USER    Estimated Inhibition Constant, Ki   =   16.39 pM (picomolar)  [Temperature = 298.15 K]
DOCKED: USER    
DOCKED: USER    (1) Final Intermolecular Energy     =  -17.70 kcal/mol
DOCKED: USER        vdW + Hbond + desolv Energy     =  -14.36 kcal/mol
DOCKED: USER        Electrostatic Energy            =   -3.34 kcal/mol
DOCKED: USER    (2) Final Total Internal Energy     =   -1.39 kcal/mol
DOCKED: USER    (3) Torsional Free Energy           =   +2.98 kcal/mol
DOCKED: USER    (4) Unbound System's Energy  [=(2)] =   -1.39 kcal/mol
DOCKED: USER    
DOCKED: USER    
DOCKED: USER    NEWDPF move heme_Fe_opt.pdbqt
DOCKED: USER    NEWDPF about -0.174000 -0.001000 -0.047000
DOCKED: USER    NEWDPF tran0 -5.097306 -8.929783 -2.525494
DOCKED: USER    NEWDPF quaternion0 -0.708251 -0.686849 0.065463 0.149446
DOCKED: USER    NEWDPF axisangle0 -0.716295 -0.694650 0.066207 162.810379
DOCKED: USER    NEWDPF quat0 -0.716295 -0.694650 0.066207 162.810379
DOCKED: USER    NEWDPF dihe0 -180.00 50.20 34.29 -139.85 -180.00 139.86 76.19 -65.63 45.70 1.37 
DOCKED: USER  keepresnum = 1 
DOCKED: USER  
DOCKED: REMARK  10 active torsions:
DOCKED: REMARK  status: ('A' for Active; 'I' for Inactive)
DOCKED: REMARK    1  A    between atoms: C_6  and  C_10 
DOCKED: REMARK    2  A    between atoms: C_10  and  C_11 
DOCKED: REMARK    3  A    between atoms: C_11  and  C_12 
DOCKED: REMARK    4  A    between atoms: C_12  and  O_14 
DOCKED: REMARK    5  A    between atoms: C_17  and  C_20 
DOCKED: REMARK    6  A    between atoms: C_24  and  C_27 
DOCKED: REMARK    7  A    between atoms: C_31  and  C_34 
DOCKED: REMARK    8  A    between atoms: C_34  and  C_35 
DOCKED: REMARK    9  A    between atoms: C_35  and  C_36 
DOCKED: REMARK   10  A    between atoms: C_36  and  O_38 
DOCKED: USER                              x       y       z     vdW  Elec       q    Type
DOCKED: USER                           _______ _______ _______ _____ _____    ______ ____
DOCKED: ROOT
DOCKED: ATOM      1  C   UNL d   1      -5.191 -10.978  -2.446 -0.35 +0.06    +0.064 C 
DOCKED: ATOM      2  C   UNL d   1      -8.338  -7.399  -3.756 -0.43 +0.02    +0.064 A 
DOCKED: ATOM      3  C   UNL d   1      -4.656  -4.319  -3.926 -0.38 +0.01    +0.064 C 
DOCKED: ATOM      4  C   UNL d   1      -1.609  -7.744  -2.557 -0.51 +0.02    +0.064 C 
DOCKED: ATOM      5  C   UNL d   1      -6.430 -10.237  -2.717 -0.05 +0.04    +0.066 A 
DOCKED: ATOM      6  C   UNL d   1      -7.705 -10.775  -2.647 -0.19 -0.01    -0.021 A 
DOCKED: ATOM      7  C   UNL d   1      -8.578  -9.781  -3.014 -0.36 -0.01    -0.025 A 
DOCKED: ATOM      8  C   UNL d   1      -7.802  -8.674  -3.295 -0.38 +0.02    +0.066 A 
DOCKED: ATOM      9  C   UNL d   1     -10.071  -9.894  -3.071 -0.49 +0.01    +0.051 C 
DOCKED: ATOM     10  C   UNL d   1      -7.617  -6.298  -3.978 -0.42 +0.02    +0.066 A 
DOCKED: ATOM     11  C   UNL d   1      -8.142  -5.126  -4.528 -0.45 -0.00    -0.021 A 
DOCKED: ATOM     12  C   UNL d   1      -7.097  -4.228  -4.603 -0.49 +0.00    +0.000 A 
DOCKED: ATOM     13  C   UNL d   1      -5.975  -4.908  -4.098 -0.39 +0.01    +0.070 A 
DOCKED: ATOM     14  C   UNL d   1      -9.556  -4.896  -5.022 -0.26 +0.01    +0.052 C 
DOCKED: ATOM     15  C   UNL d   1      -3.561  -4.984  -3.489 -0.37 +0.01    +0.066 A 
DOCKED: ATOM     16  C   UNL d   1      -2.343  -4.363  -3.243 -0.39 -0.00    -0.021 A 
DOCKED: ATOM     17  C   UNL d   1      -1.462  -5.349  -2.852 -0.45 +0.00    +0.000 A 
DOCKED: ATOM     18  C   UNL d   1      -2.163  -6.553  -2.872 -0.41 +0.02    +0.070 A 
DOCKED: ATOM     19  C   UNL d   1      -2.011  -2.902  -3.394 -0.35 +0.01    +0.052 C 
DOCKED: ATOM     20  C   UNL d   1      -2.331  -9.021  -2.508 -0.40 +0.03    +0.066 A 
DOCKED: ATOM     21  C   UNL d   1      -1.735 -10.284  -2.381 -0.30 -0.01    -0.025 A 
DOCKED: ATOM     22  C   UNL d   1      -2.774 -11.190  -2.338 -0.33 -0.02    -0.021 A 
DOCKED: ATOM     23  C   UNL d   1      -3.957 -10.449  -2.447 -0.34 +0.05    +0.066 A 
DOCKED: ATOM     24  C   UNL d   1      -0.266 -10.630  -2.307 -0.33 +0.02    +0.051 C 
DOCKED: ATOM     25  N   UNL d   1      -6.497  -8.951  -3.104 -0.21 -0.12    -0.248 N 
DOCKED: ATOM     26  N   UNL d   1      -6.290  -6.173  -3.725 -0.24 -0.09    -0.248 N 
DOCKED: ATOM     27  N   UNL d   1      -3.465  -6.324  -3.221 -0.25 -0.07    -0.248 N 
DOCKED: ATOM     28  N   UNL d   1      -3.679  -9.131  -2.595 -0.25 -0.11    -0.248 N 
DOCKED: ATOM     29 FE   UNL d   1      -4.982  -7.652  -3.160 -0.09 +0.00    +0.000 Fe
DOCKED: ENDROOT
DOCKED: BRANCH   6  30
DOCKED: ATOM     30  C   UNL d   1      -8.079 -12.157  -2.231 -0.28 +0.04    +0.052 C 
DOCKED: BRANCH  30  31
DOCKED: ATOM     31  C   UNL d   1      -9.263 -12.130  -1.271 -0.28 +0.06    +0.115 C 
DOCKED: BRANCH  31  32
DOCKED: ATOM     32  C   UNL d   1      -8.802 -12.370   0.140 -0.27 +0.10    +0.139 C 
DOCKED: ATOM     33  O   UNL d   1      -9.604 -12.385   1.063 -0.50 -0.43    -0.650 OA
DOCKED: BRANCH  32  34
DOCKED: ATOM     34  O   UNL d   1      -7.499 -12.569   0.399 -0.17 -0.83    -0.776 OA
DOCKED: ATOM     35  H   UNL d   1      -6.867 -12.556  -0.334 +0.06 +0.19    +0.167 HD
DOCKED: ENDBRANCH  32  34
DOCKED: ENDBRANCH  31  32
DOCKED: ENDBRANCH  30  31
DOCKED: ENDBRANCH   6  30
DOCKED: BRANCH  22  36
DOCKED: ATOM     36  C   UNL d   1      -2.634 -12.686  -2.248 -0.17 +0.08    +0.052 C 
DOCKED: BRANCH  36  37
DOCKED: ATOM     37  C   UNL d   1      -2.813 -13.133  -0.805 -0.17 +0.16    +0.115 C 
DOCKED: BRANCH  37  38
DOCKED: ATOM     38  C   UNL d   1      -4.062 -13.954  -0.646 -0.14 +0.28    +0.139 C 
DOCKED: ATOM     39  O   UNL d   1      -4.072 -14.943   0.072 -0.32 -1.40    -0.650 OA
DOCKED: BRANCH  38  40
DOCKED: ATOM     40  O   UNL d   1      -5.183 -13.605  -1.302 +0.11 -1.77    -0.776 OA
DOCKED: ATOM     41  H   UNL d   1      -6.013 -13.539  -0.811 +0.05 +0.29    +0.167 HD
DOCKED: ENDBRANCH  38  40
DOCKED: ENDBRANCH  37  38
DOCKED: ENDBRANCH  36  37
DOCKED: ENDBRANCH  22  36
DOCKED: BRANCH  12  42
DOCKED: ATOM     42  C   UNL d   1      -7.200  -2.837  -5.143 -0.66 +0.00    +0.004 C 
DOCKED: ATOM     43  C   UNL d   1      -7.656  -1.834  -4.381 -0.54 +0.00    +0.012 C 
DOCKED: ENDBRANCH  12  42
DOCKED: BRANCH  17  44
DOCKED: ATOM     44  C   UNL d   1      -0.047  -5.150  -2.464 -0.56 +0.00    +0.004 C 
DOCKED: ATOM     45  C   UNL d   1       0.919  -5.128  -3.387 -0.64 +0.00    +0.012 C 
DOCKED: ENDBRANCH  17  44
DOCKED: TORSDOF 10
DOCKED: TER
DOCKED: ENDMDL
________________________________________________________________________________


	BEGINNING GENETIC ALGORITHM DOCKING 24 of 100
Run: 24 Seed: 2047564673 7655370 [ Run 24 of 100 GA/GALS ]
Beginning LAMARCKIAN GENETIC ALGORITHM (LGA), with a maximum of 25000000 energy evaluations.

Final-Value: -20.082


	FINAL GENETIC ALGORITHM DOCKED STATE
	_______________________________________________


Detailed state:  trans -4.973 -9.614 -3.140 quatxyzw -0.076080 0.006590 0.680716 -0.728556 center -0.174 -0.001 -0.047 ntor 10 83.2952 -60.1047 64.2082 -97.0217 147.8452 105.3217 -69.2760 77.7554 -175.8927 -173.1761
State:	 -4.973  -9.614  -3.140  -0.111  0.010  0.994 -86.469     83.30  -60.10   64.21  -97.02  147.85  105.32  -69.28   77.76 -175.89 -173.18

DOCKED: MODEL       24
DOCKED: USER    Run = 24
DOCKED: USER    DPF = D:/Protein_go_brrr/autodock/final/AncA/heme_Fe/dock.dpf
DOCKED: USER  
DOCKED: USER    Estimated Free Energy of Binding    =  -15.01 kcal/mol  [=(1)+(2)+(3)-(4)]
DOCKED: USER    Estimated Inhibition Constant, Ki   =   10.02 pM (picomolar)  [Temperature = 298.15 K]
DOCKED: USER    
DOCKED: USER    (1) Final Intermolecular Energy     =  -17.99 kcal/mol
DOCKED: USER        vdW + Hbond + desolv Energy     =  -13.74 kcal/mol
DOCKED: USER        Electrostatic Energy            =   -4.24 kcal/mol
DOCKED: USER    (2) Final Total Internal Energy     =   -2.09 kcal/mol
DOCKED: USER    (3) Torsional Free Energy           =   +2.98 kcal/mol
DOCKED: USER    (4) Unbound System's Energy  [=(2)] =   -2.09 kcal/mol
DOCKED: USER    
DOCKED: USER    
DOCKED: USER    NEWDPF move heme_Fe_opt.pdbqt
DOCKED: USER    NEWDPF about -0.174000 -0.001000 -0.047000
DOCKED: USER    NEWDPF tran0 -4.973322 -9.613982 -3.139514
DOCKED: USER    NEWDPF quaternion0 -0.076080 0.006590 0.680716 -0.728556
DOCKED: USER    NEWDPF axisangle0 -0.111068 0.009620 0.993766 -86.469080
DOCKED: USER    NEWDPF quat0 -0.111068 0.009620 0.993766 -86.469080
DOCKED: USER    NEWDPF dihe0 83.30 -60.10 64.21 -97.02 147.85 105.32 -69.28 77.76 -175.89 -173.18 
DOCKED: USER  keepresnum = 1 
DOCKED: USER  
DOCKED: REMARK  10 active torsions:
DOCKED: REMARK  status: ('A' for Active; 'I' for Inactive)
DOCKED: REMARK    1  A    between atoms: C_6  and  C_10 
DOCKED: REMARK    2  A    between atoms: C_10  and  C_11 
DOCKED: REMARK    3  A    between atoms: C_11  and  C_12 
DOCKED: REMARK    4  A    between atoms: C_12  and  O_14 
DOCKED: REMARK    5  A    between atoms: C_17  and  C_20 
DOCKED: REMARK    6  A    between atoms: C_24  and  C_27 
DOCKED: REMARK    7  A    between atoms: C_31  and  C_34 
DOCKED: REMARK    8  A    between atoms: C_34  and  C_35 
DOCKED: REMARK    9  A    between atoms: C_35  and  C_36 
DOCKED: REMARK   10  A    between atoms: C_36  and  O_38 
DOCKED: USER                              x       y       z     vdW  Elec       q    Type
DOCKED: USER                           _______ _______ _______ _____ _____    ______ ____
DOCKED: ROOT
DOCKED: ATOM      1  C   UNL d   1      -5.110 -11.517  -2.383 -0.35 +0.07    +0.064 C 
DOCKED: ATOM      2  C   UNL d   1      -1.523  -8.126  -2.650 -0.43 +0.02    +0.064 A 
DOCKED: ATOM      3  C   UNL d   1      -4.830  -4.813  -3.723 -0.42 +0.01    +0.064 C 
DOCKED: ATOM      4  C   UNL d   1      -8.303  -8.099  -3.574 -0.49 +0.02    +0.064 C 
DOCKED: ATOM      5  C   UNL d   1      -3.784 -10.887  -2.441 -0.33 +0.06    +0.066 A 
DOCKED: ATOM      6  C   UNL d   1      -2.581 -11.559  -2.294 -0.31 -0.02    -0.021 A 
DOCKED: ATOM      7  C   UNL d   1      -1.586 -10.616  -2.364 -0.26 -0.01    -0.025 A 
DOCKED: ATOM      8  C   UNL d   1      -2.220  -9.403  -2.552 -0.37 +0.03    +0.066 A 
DOCKED: ATOM      9  C   UNL d   1      -0.114 -10.878  -2.274 -0.33 +0.02    +0.051 C 
DOCKED: ATOM     10  C   UNL d   1      -2.105  -6.950  -2.888 -0.42 +0.02    +0.066 A 
DOCKED: ATOM     11  C   UNL d   1      -1.426  -5.730  -2.862 -0.46 -0.00    -0.021 A 
DOCKED: ATOM     12  C   UNL d   1      -2.361  -4.756  -3.152 -0.41 +0.00    +0.000 A 
DOCKED: ATOM     13  C   UNL d   1      -3.576  -5.439  -3.334 -0.38 +0.02    +0.070 A 
DOCKED: ATOM     14  C   UNL d   1       0.029  -5.495  -2.511 -0.48 +0.01    +0.052 C 
DOCKED: ATOM     15  C   UNL d   1      -6.013  -5.458  -3.848 -0.39 +0.02    +0.066 A 
DOCKED: ATOM     16  C   UNL d   1      -7.167  -4.843  -4.319 -0.46 -0.00    -0.021 A 
DOCKED: ATOM     17  C   UNL d   1      -8.171  -5.789  -4.274 -0.48 +0.00    +0.000 A 
DOCKED: ATOM     18  C   UNL d   1      -7.606  -6.959  -3.771 -0.41 +0.02    +0.070 A 
DOCKED: ATOM     19  C   UNL d   1      -7.328  -3.417  -4.770 -0.59 +0.01    +0.052 C 
DOCKED: ATOM     20  C   UNL d   1      -7.730  -9.366  -3.106 -0.29 +0.03    +0.066 A 
DOCKED: ATOM     21  C   UNL d   1      -8.467 -10.490  -2.708 -0.31 -0.01    -0.025 A 
DOCKED: ATOM     22  C   UNL d   1      -7.537 -11.457  -2.385 -0.24 -0.01    -0.021 A 
DOCKED: ATOM     23  C   UNL d   1      -6.276 -10.885  -2.591 -0.16 +0.05    +0.066 A 
DOCKED: ATOM     24  C   UNL d   1      -9.967 -10.655  -2.628 -0.43 +0.01    +0.051 C 
DOCKED: ATOM     25  N   UNL d   1      -3.556  -9.572  -2.608 -0.24 -0.13    -0.248 N 
DOCKED: ATOM     26  N   UNL d   1      -3.423  -6.775  -3.164 -0.25 -0.07    -0.248 N 
DOCKED: ATOM     27  N   UNL d   1      -6.270  -6.770  -3.551 -0.21 -0.11    -0.248 N 
DOCKED: ATOM     28  N   UNL d   1      -6.400  -9.595  -2.988 -0.15 -0.13    -0.248 N 
DOCKED: ATOM     29 FE   UNL d   1      -4.913  -8.185  -3.076 -0.09 +0.00    +0.000 Fe
DOCKED: ENDROOT
DOCKED: BRANCH   6  30
DOCKED: ATOM     30  C   UNL d   1      -2.385 -13.026  -2.116 -0.19 +0.08    +0.052 C 
DOCKED: BRANCH  30  31
DOCKED: ATOM     31  C   UNL d   1      -2.479 -13.409  -0.644 -0.17 +0.15    +0.115 C 
DOCKED: BRANCH  31  32
DOCKED: ATOM     32  C   UNL d   1      -3.725 -14.210  -0.387 -0.06 +0.27    +0.139 C 
DOCKED: ATOM     33  O   UNL d   1      -3.743 -15.077   0.475 -0.10 -1.41    -0.650 OA
DOCKED: BRANCH  32  34
DOCKED: ATOM     34  O   UNL d   1      -4.836 -13.977  -1.106 +0.11 -1.86    -0.776 OA
DOCKED: ATOM     35  H   UNL d   1      -5.520 -13.399  -0.741 +0.05 +0.30    +0.167 HD
DOCKED: ENDBRANCH  32  34
DOCKED: ENDBRANCH  31  32
DOCKED: ENDBRANCH  30  31
DOCKED: ENDBRANCH   6  30
DOCKED: BRANCH  22  36
DOCKED: ATOM     36  C   UNL d   1      -7.846 -12.834  -1.861 -0.25 +0.05    +0.052 C 
DOCKED: BRANCH  36  37
DOCKED: ATOM     37  C   UNL d   1      -8.239 -12.749  -0.393 -0.22 +0.09    +0.115 C 
DOCKED: BRANCH  37  38
DOCKED: ATOM     38  C   UNL d   1      -7.109 -13.190   0.494 -0.22 +0.19    +0.139 C 
DOCKED: ATOM     39  O   UNL d   1      -6.453 -12.373   1.122 -0.27 -0.98    -0.650 OA
DOCKED: BRANCH  38  40
DOCKED: ATOM     40  O   UNL d   1      -6.809 -14.496   0.600 -0.20 -1.41    -0.776 OA
DOCKED: ATOM     41  H   UNL d   1      -5.929 -14.799   0.338 +0.03 +0.39    +0.167 HD
DOCKED: ENDBRANCH  38  40
DOCKED: ENDBRANCH  37  38
DOCKED: ENDBRANCH  36  37
DOCKED: ENDBRANCH  22  36
DOCKED: BRANCH  12  42
DOCKED: ATOM     42  C   UNL d   1      -2.076  -3.290  -3.222 -0.40 +0.00    +0.004 C 
DOCKED: ATOM     43  C   UNL d   1      -2.135  -2.631  -4.387 -0.55 +0.00    +0.012 C 
DOCKED: ENDBRANCH  12  42
DOCKED: BRANCH  17  44
DOCKED: ATOM     44  C   UNL d   1      -9.574  -5.591  -4.702 -0.52 +0.00    +0.004 C 
DOCKED: ATOM     45  C   UNL d   1     -10.236  -4.473  -4.384 -0.61 +0.00    +0.012 C 
DOCKED: ENDBRANCH  17  44
DOCKED: TORSDOF 10
DOCKED: TER
DOCKED: ENDMDL
________________________________________________________________________________


	BEGINNING GENETIC ALGORITHM DOCKING 25 of 100
Run: 25 Seed: 29134368 500824989 [ Run 25 of 100 GA/GALS ]
Beginning LAMARCKIAN GENETIC ALGORITHM (LGA), with a maximum of 25000000 energy evaluations.

Final-Value: -12.796


	FINAL GENETIC ALGORITHM DOCKED STATE
	_______________________________________________


Detailed state:  trans -0.507 -15.011 -2.455 quatxyzw 0.670529 0.195251 0.236225 -0.675623 center -0.174 -0.001 -0.047 ntor 10 -127.6960 155.3189 51.2239 -14.5807 -164.3851 117.1140 53.1129 118.5608 169.8675 17.9123
State:	 -0.507 -15.011  -2.455   0.910  0.265  0.320 -94.995   -127.70  155.32   51.22  -14.58 -164.39  117.11   53.11  118.56  169.87   17.91

DOCKED: MODEL       25
DOCKED: USER    Run = 25
DOCKED: USER    DPF = D:/Protein_go_brrr/autodock/final/AncA/heme_Fe/dock.dpf
DOCKED: USER  
DOCKED: USER    Estimated Free Energy of Binding    =   -9.14 kcal/mol  [=(1)+(2)+(3)-(4)]
DOCKED: USER    Estimated Inhibition Constant, Ki   =  199.60 nM (nanomolar)  [Temperature = 298.15 K]
DOCKED: USER    
DOCKED: USER    (1) Final Intermolecular Energy     =  -12.12 kcal/mol
DOCKED: USER        vdW + Hbond + desolv Energy     =   -7.49 kcal/mol
DOCKED: USER        Electrostatic Energy            =   -4.63 kcal/mol
DOCKED: USER    (2) Final Total Internal Energy     =   -0.67 kcal/mol
DOCKED: USER    (3) Torsional Free Energy           =   +2.98 kcal/mol
DOCKED: USER    (4) Unbound System's Energy  [=(2)] =   -0.67 kcal/mol
DOCKED: USER    
DOCKED: USER    
DOCKED: USER    NEWDPF move heme_Fe_opt.pdbqt
DOCKED: USER    NEWDPF about -0.174000 -0.001000 -0.047000
DOCKED: USER    NEWDPF tran0 -0.506617 -15.010713 -2.455066
DOCKED: USER    NEWDPF quaternion0 0.670529 0.195251 0.236225 -0.675623
DOCKED: USER    NEWDPF axisangle0 0.909503 0.264838 0.320414 -94.994946
DOCKED: USER    NEWDPF quat0 0.909503 0.264838 0.320414 -94.994946
DOCKED: USER    NEWDPF dihe0 -127.70 155.32 51.22 -14.58 -164.39 117.11 53.11 118.56 169.87 17.91 
DOCKED: USER  keepresnum = 1 
DOCKED: USER  
DOCKED: REMARK  10 active torsions:
DOCKED: REMARK  status: ('A' for Active; 'I' for Inactive)
DOCKED: REMARK    1  A    between atoms: C_6  and  C_10 
DOCKED: REMARK    2  A    between atoms: C_10  and  C_11 
DOCKED: REMARK    3  A    between atoms: C_11  and  C_12 
DOCKED: REMARK    4  A    between atoms: C_12  and  O_14 
DOCKED: REMARK    5  A    between atoms: C_17  and  C_20 
DOCKED: REMARK    6  A    between atoms: C_24  and  C_27 
DOCKED: REMARK    7  A    between atoms: C_31  and  C_34 
DOCKED: REMARK    8  A    between atoms: C_34  and  C_35 
DOCKED: REMARK    9  A    between atoms: C_35  and  C_36 
DOCKED: REMARK   10  A    between atoms: C_36  and  O_38 
DOCKED: USER                              x       y       z     vdW  Elec       q    Type
DOCKED: USER                           _______ _______ _______ _____ _____    ______ ____
DOCKED: ROOT
DOCKED: ATOM      1  C   UNL d   1      -1.803 -16.594  -2.606 -0.07 +0.09    +0.064 C 
DOCKED: ATOM      2  C   UNL d   1       1.241 -14.278  -5.737 -0.31 +0.03    +0.064 A 
DOCKED: ATOM      3  C   UNL d   1       3.398 -12.192  -1.987 -0.20 +0.02    +0.064 C 
DOCKED: ATOM      4  C   UNL d   1       0.395 -14.341   1.054 -0.14 +0.04    +0.064 C 
DOCKED: ATOM      5  C   UNL d   1      -1.201 -16.071  -3.840 -0.13 +0.08    +0.066 A 
DOCKED: ATOM      6  C   UNL d   1      -1.640 -16.364  -5.120 -0.13 -0.02    -0.021 A 
DOCKED: ATOM      7  C   UNL d   1      -0.792 -15.724  -5.989 -0.28 -0.02    -0.025 A 
DOCKED: ATOM      8  C   UNL d   1       0.134 -15.063  -5.205 -0.23 +0.04    +0.066 A 
DOCKED: ATOM      9  C   UNL d   1      -0.885 -15.736  -7.484 -0.25 +0.03    +0.051 C 
DOCKED: ATOM     10  C   UNL d   1       2.113 -13.585  -5.003 -0.25 +0.03    +0.066 A 
DOCKED: ATOM     11  C   UNL d   1       3.230 -12.936  -5.535 -0.34 -0.01    -0.021 A 
DOCKED: ATOM     12  C   UNL d   1       3.879 -12.341  -4.471 -0.26 +0.00    +0.000 A 
DOCKED: ATOM     13  C   UNL d   1       3.120 -12.667  -3.333 -0.15 +0.02    +0.070 A 
DOCKED: ATOM     14  C   UNL d   1       3.696 -12.941  -6.976 -0.51 +0.02    +0.052 C 
DOCKED: ATOM     15  C   UNL d   1       2.702 -12.545  -0.881 -0.15 +0.02    +0.066 A 
DOCKED: ATOM     16  C   UNL d   1       2.937 -11.992   0.372 -0.25 -0.01    -0.021 A 
DOCKED: ATOM     17  C   UNL d   1       2.074 -12.613   1.251 -0.23 +0.00    +0.000 A 
DOCKED: ATOM     18  C   UNL d   1       1.335 -13.535   0.514 -0.12 +0.03    +0.070 A 
DOCKED: ATOM     19  C   UNL d   1       3.949 -10.939   0.736 +0.17 +0.01    +0.052 C 
DOCKED: ATOM     20  C   UNL d   1      -0.445 -15.279   0.299 -0.09 +0.05    +0.066 A 
DOCKED: ATOM     21  C   UNL d   1      -1.275 -16.258   0.864 -0.09 -0.02    -0.025 A 
DOCKED: ATOM     22  C   UNL d   1      -1.902 -16.879  -0.196 -0.06 -0.02    -0.021 A 
DOCKED: ATOM     23  C   UNL d   1      -1.427 -16.263  -1.361 -0.07 +0.07    +0.066 A 
DOCKED: ATOM     24  C   UNL d   1      -1.472 -16.600   2.322 -0.08 +0.04    +0.051 C 
DOCKED: ATOM     25  N   UNL d   1      -0.123 -15.269  -3.897 -0.08 -0.20    -0.248 N 
DOCKED: ATOM     26  N   UNL d   1       2.049 -13.432  -3.655 -0.08 -0.10    -0.248 N 
DOCKED: ATOM     27  N   UNL d   1       1.689 -13.463  -0.805 -0.04 -0.10    -0.248 N 
DOCKED: ATOM     28  N   UNL d   1      -0.505 -15.318  -1.054 -0.03 -0.20    -0.248 N 
DOCKED: ATOM     29 FE   UNL d   1       0.772 -14.375  -2.353 -0.02 +0.00    +0.000 Fe
DOCKED: ENDROOT
DOCKED: BRANCH   6  30
DOCKED: ATOM     30  C   UNL d   1      -2.818 -17.193  -5.501 -0.08 +0.07    +0.052 C 
DOCKED: BRANCH  30  31
DOCKED: ATOM     31  C   UNL d   1      -2.382 -18.594  -5.917 -0.12 +0.12    +0.115 C 
DOCKED: BRANCH  31  32
DOCKED: ATOM     32  C   UNL d   1      -2.937 -18.938  -7.271 -0.02 +0.23    +0.139 C 
DOCKED: ATOM     33  O   UNL d   1      -2.947 -20.096  -7.665 -0.19 -1.24    -0.650 OA
DOCKED: BRANCH  32  34
DOCKED: ATOM     34  O   UNL d   1      -3.428 -17.971  -8.065 -0.44 -1.53    -0.776 OA
DOCKED: ATOM     35  H   UNL d   1      -2.882 -17.194  -8.250 +0.06 +0.20    +0.167 HD
DOCKED: ENDBRANCH  32  34
DOCKED: ENDBRANCH  31  32
DOCKED: ENDBRANCH  30  31
DOCKED: ENDBRANCH   6  30
DOCKED: BRANCH  22  36
DOCKED: ATOM     36  C   UNL d   1      -2.865 -18.033  -0.096 -0.03 +0.05    +0.052 C 
DOCKED: BRANCH  36  37
DOCKED: ATOM     37  C   UNL d   1      -4.242 -17.594  -0.571 -0.06 +0.14    +0.115 C 
DOCKED: BRANCH  37  38
DOCKED: ATOM     38  C   UNL d   1      -4.788 -16.498   0.299 -0.06 +0.24    +0.139 C 
DOCKED: ATOM     39  O   UNL d   1      -5.016 -15.389  -0.161 -0.58 -1.41    -0.650 OA
DOCKED: BRANCH  38  40
DOCKED: ATOM     40  O   UNL d   1      -5.027 -16.731   1.602 +0.07 -1.64    -0.776 OA
DOCKED: ATOM     41  H   UNL d   1      -5.200 -17.637   1.893 +0.00 +0.22    +0.167 HD
DOCKED: ENDBRANCH  38  40
DOCKED: ENDBRANCH  37  38
DOCKED: ENDBRANCH  36  37
DOCKED: ENDBRANCH  22  36
DOCKED: BRANCH  12  42
DOCKED: ATOM     42  C   UNL d   1       5.139 -11.543  -4.575 -0.38 +0.00    +0.004 C 
DOCKED: ATOM     43  C   UNL d   1       5.108 -10.204  -4.600 -0.51 +0.00    +0.012 C 
DOCKED: ENDBRANCH  12  42
DOCKED: BRANCH  17  44
DOCKED: ATOM     44  C   UNL d   1       1.950 -12.328   2.699 -0.32 +0.00    +0.004 C 
DOCKED: ATOM     45  C   UNL d   1       2.022 -11.075   3.158 -0.35 +0.00    +0.012 C 
DOCKED: ENDBRANCH  17  44
DOCKED: TORSDOF 10
DOCKED: TER
DOCKED: ENDMDL
________________________________________________________________________________


	BEGINNING GENETIC ALGORITHM DOCKING 26 of 100
Run: 26 Seed: 762480060 2129809112 [ Run 26 of 100 GA/GALS ]
Beginning LAMARCKIAN GENETIC ALGORITHM (LGA), with a maximum of 25000000 energy evaluations.

Final-Value: -18.560


	FINAL GENETIC ALGORITHM DOCKED STATE
	_______________________________________________


Detailed state:  trans -4.657 -9.254 -2.354 quatxyzw 0.674961 0.717544 -0.084415 -0.149778 center -0.174 -0.001 -0.047 ntor 10 -144.1018 6.6228 67.9237 -141.9577 -37.5625 -72.1394 73.7405 -14.9961 14.7731 167.2817
State:	 -4.657  -9.254  -2.354   0.683  0.726 -0.085 -162.772   -144.10    6.62   67.92 -141.96  -37.56  -72.14   73.74  -15.00   14.77  167.28

DOCKED: MODEL       26
DOCKED: USER    Run = 26
DOCKED: USER    DPF = D:/Protein_go_brrr/autodock/final/AncA/heme_Fe/dock.dpf
DOCKED: USER  
DOCKED: USER    Estimated Free Energy of Binding    =  -15.01 kcal/mol  [=(1)+(2)+(3)-(4)]
DOCKED: USER    Estimated Inhibition Constant, Ki   =    9.92 pM (picomolar)  [Temperature = 298.15 K]
DOCKED: USER    
DOCKED: USER    (1) Final Intermolecular Energy     =  -17.99 kcal/mol
DOCKED: USER        vdW + Hbond + desolv Energy     =  -14.33 kcal/mol
DOCKED: USER        Electrostatic Energy            =   -3.67 kcal/mol
DOCKED: USER    (2) Final Total Internal Energy     =   -0.57 kcal/mol
DOCKED: USER    (3) Torsional Free Energy           =   +2.98 kcal/mol
DOCKED: USER    (4) Unbound System's Energy  [=(2)] =   -0.57 kcal/mol
DOCKED: USER    
DOCKED: USER    
DOCKED: USER    NEWDPF move heme_Fe_opt.pdbqt
DOCKED: USER    NEWDPF about -0.174000 -0.001000 -0.047000
DOCKED: USER    NEWDPF tran0 -4.657197 -9.254057 -2.354335
DOCKED: USER    NEWDPF quaternion0 0.674961 0.717544 -0.084415 -0.149778
DOCKED: USER    NEWDPF axisangle0 0.682661 0.725730 -0.085378 -162.771870
DOCKED: USER    NEWDPF quat0 0.682661 0.725730 -0.085378 -162.771870
DOCKED: USER    NEWDPF dihe0 -144.10 6.62 67.92 -141.96 -37.56 -72.14 73.74 -15.00 14.77 167.28 
DOCKED: USER  keepresnum = 1 
DOCKED: USER  
DOCKED: REMARK  10 active torsions:
DOCKED: REMARK  status: ('A' for Active; 'I' for Inactive)
DOCKED: REMARK    1  A    between atoms: C_6  and  C_10 
DOCKED: REMARK    2  A    between atoms: C_10  and  C_11 
DOCKED: REMARK    3  A    between atoms: C_11  and  C_12 
DOCKED: REMARK    4  A    between atoms: C_12  and  O_14 
DOCKED: REMARK    5  A    between atoms: C_17  and  C_20 
DOCKED: REMARK    6  A    between atoms: C_24  and  C_27 
DOCKED: REMARK    7  A    between atoms: C_31  and  C_34 
DOCKED: REMARK    8  A    between atoms: C_34  and  C_35 
DOCKED: REMARK    9  A    between atoms: C_35  and  C_36 
DOCKED: REMARK   10  A    between atoms: C_36  and  O_38 
DOCKED: USER                              x       y       z     vdW  Elec       q    Type
DOCKED: USER                           _______ _______ _______ _____ _____    ______ ____
DOCKED: ROOT
DOCKED: ATOM      1  C   UNL d   1      -4.575 -11.299  -2.208 -0.36 +0.07    +0.064 C 
DOCKED: ATOM      2  C   UNL d   1      -8.060  -8.039  -3.496 -0.42 +0.02    +0.064 A 
DOCKED: ATOM      3  C   UNL d   1      -4.660  -4.673  -3.913 -0.43 +0.01    +0.064 C 
DOCKED: ATOM      4  C   UNL d   1      -1.285  -7.785  -2.566 -0.51 +0.02    +0.064 C 
DOCKED: ATOM      5  C   UNL d   1      -5.882 -10.673  -2.451 -0.06 +0.05    +0.066 A 
DOCKED: ATOM      6  C   UNL d   1      -7.103 -11.312  -2.311 -0.21 -0.02    -0.021 A 
DOCKED: ATOM      7  C   UNL d   1      -8.070 -10.407  -2.673 -0.24 -0.01    -0.025 A 
DOCKED: ATOM      8  C   UNL d   1      -7.401  -9.249  -3.019 -0.16 +0.03    +0.066 A 
DOCKED: ATOM      9  C   UNL d   1      -9.549 -10.645  -2.664 -0.40 +0.02    +0.051 C 
DOCKED: ATOM     10  C   UNL d   1      -7.444  -6.891  -3.782 -0.41 +0.02    +0.066 A 
DOCKED: ATOM     11  C   UNL d   1      -8.086  -5.786  -4.346 -0.46 -0.00    -0.021 A 
DOCKED: ATOM     12  C   UNL d   1      -7.124  -4.808  -4.491 -0.48 +0.00    +0.000 A 
DOCKED: ATOM     13  C   UNL d   1      -5.930  -5.375  -4.012 -0.38 +0.02    +0.070 A 
DOCKED: ATOM     14  C   UNL d   1      -9.532  -5.691  -4.788 -0.43 +0.01    +0.052 C 
DOCKED: ATOM     15  C   UNL d   1      -3.496  -5.230  -3.501 -0.38 +0.01    +0.066 A 
DOCKED: ATOM     16  C   UNL d   1      -2.327  -4.502  -3.325 -0.40 -0.00    -0.021 A 
DOCKED: ATOM     17  C   UNL d   1      -1.351  -5.398  -2.940 -0.47 +0.00    +0.000 A 
DOCKED: ATOM     18  C   UNL d   1      -1.949  -6.655  -2.894 -0.42 +0.02    +0.070 A 
DOCKED: ATOM     19  C   UNL d   1      -2.125  -3.025  -3.534 -0.39 +0.01    +0.052 C 
DOCKED: ATOM     20  C   UNL d   1      -1.894  -9.115  -2.448 -0.40 +0.02    +0.066 A 
DOCKED: ATOM     21  C   UNL d   1      -1.189 -10.319  -2.307 -0.33 -0.01    -0.025 A 
DOCKED: ATOM     22  C   UNL d   1      -2.147 -11.306  -2.194 -0.31 -0.02    -0.021 A 
DOCKED: ATOM     23  C   UNL d   1      -3.391 -10.670  -2.276 -0.33 +0.05    +0.066 A 
DOCKED: ATOM     24  C   UNL d   1       0.305 -10.540  -2.283 -0.30 +0.02    +0.051 C 
DOCKED: ATOM     25  N   UNL d   1      -6.071  -9.411  -2.874 -0.13 -0.13    -0.248 N 
DOCKED: ATOM     26  N   UNL d   1      -6.123  -6.648  -3.588 -0.15 -0.11    -0.248 N 
DOCKED: ATOM     27  N   UNL d   1      -3.278  -6.547  -3.196 -0.25 -0.07    -0.248 N 
DOCKED: ATOM     28  N   UNL d   1      -3.230  -9.339  -2.476 -0.25 -0.12    -0.248 N 
DOCKED: ATOM     29 FE   UNL d   1      -4.674  -7.993  -3.032 -0.09 +0.00    +0.000 Fe
DOCKED: ENDROOT
DOCKED: BRANCH   6  30
DOCKED: ATOM     30  C   UNL d   1      -7.343 -12.705  -1.838 -0.27 +0.05    +0.052 C 
DOCKED: BRANCH  30  31
DOCKED: ATOM     31  C   UNL d   1      -7.860 -12.707  -0.404 -0.22 +0.10    +0.115 C 
DOCKED: BRANCH  31  32
DOCKED: ATOM     32  C   UNL d   1      -6.785 -13.164   0.542 -0.22 +0.21    +0.139 C 
DOCKED: ATOM     33  O   UNL d   1      -6.010 -14.055   0.223 -0.37 -1.33    -0.650 OA
DOCKED: BRANCH  32  34
DOCKED: ATOM     34  O   UNL d   1      -6.665 -12.594   1.754 -0.49 -1.37    -0.776 OA
DOCKED: ATOM     35  H   UNL d   1      -7.465 -12.323   2.226 +0.07 +0.22    +0.167 HD
DOCKED: ENDBRANCH  32  34
DOCKED: ENDBRANCH  31  32
DOCKED: ENDBRANCH  30  31
DOCKED: ENDBRANCH   6  30
DOCKED: BRANCH  22  36
DOCKED: ATOM     36  C   UNL d   1      -1.878 -12.782  -2.064 -0.27 +0.06    +0.052 C 
DOCKED: BRANCH  36  37
DOCKED: ATOM     37  C   UNL d   1      -1.954 -13.441  -3.433 -0.04 +0.18    +0.115 C 
DOCKED: BRANCH  37  38
DOCKED: ATOM     38  C   UNL d   1      -1.327 -14.806  -3.411 -0.15 +0.19    +0.139 C 
DOCKED: ATOM     39  O   UNL d   1      -0.115 -14.936  -3.332 +0.03 -0.51    -0.650 OA
DOCKED: BRANCH  38  40
DOCKED: ATOM     40  O   UNL d   1      -2.103 -15.902  -3.480 -0.35 -1.59    -0.776 OA
DOCKED: ATOM     41  H   UNL d   1      -1.697 -16.773  -3.371 +0.02 +0.22    +0.167 HD
DOCKED: ENDBRANCH  38  40
DOCKED: ENDBRANCH  37  38
DOCKED: ENDBRANCH  36  37
DOCKED: ENDBRANCH  22  36
DOCKED: BRANCH  12  42
DOCKED: ATOM     42  C   UNL d   1      -7.365  -3.449  -5.069 -0.64 +0.00    +0.004 C 
DOCKED: ATOM     43  C   UNL d   1      -7.219  -2.347  -4.322 -0.67 +0.00    +0.012 C 
DOCKED: ENDBRANCH  12  42
DOCKED: BRANCH  17  44
DOCKED: ATOM     44  C   UNL d   1       0.056  -5.069  -2.617 -0.60 +0.00    +0.004 C 
DOCKED: ATOM     45  C   UNL d   1       0.989  -5.039  -3.574 -0.64 +0.00    +0.012 C 
DOCKED: ENDBRANCH  17  44
DOCKED: TORSDOF 10
DOCKED: TER
DOCKED: ENDMDL
________________________________________________________________________________


	BEGINNING GENETIC ALGORITHM DOCKING 27 of 100
Run: 27 Seed: 243105366 873015275 [ Run 27 of 100 GA/GALS ]
Beginning LAMARCKIAN GENETIC ALGORITHM (LGA), with a maximum of 25000000 energy evaluations.

Final-Value: -19.931


	FINAL GENETIC ALGORITHM DOCKED STATE
	_______________________________________________


Detailed state:  trans -5.278 -9.068 -3.288 quatxyzw -0.094299 0.015561 0.656939 -0.747861 center -0.174 -0.001 -0.047 ntor 10 -116.0792 -70.7834 72.5361 -125.1041 21.0102 164.3548 -9.0171 65.2963 -152.7589 -179.8094
State:	 -5.278  -9.068  -3.288  -0.142  0.023  0.990 -83.189   -116.08  -70.78   72.54 -125.10   21.01  164.35   -9.02   65.30 -152.76 -179.81

DOCKED: MODEL       27
DOCKED: USER    Run = 27
DOCKED: USER    DPF = D:/Protein_go_brrr/autodock/final/AncA/heme_Fe/dock.dpf
DOCKED: USER  
DOCKED: USER    Estimated Free Energy of Binding    =  -15.38 kcal/mol  [=(1)+(2)+(3)-(4)]
DOCKED: USER    Estimated Inhibition Constant, Ki   =    5.35 pM (picomolar)  [Temperature = 298.15 K]
DOCKED: USER    
DOCKED: USER    (1) Final Intermolecular Energy     =  -18.36 kcal/mol
DOCKED: USER        vdW + Hbond + desolv Energy     =  -14.66 kcal/mol
DOCKED: USER        Electrostatic Energy            =   -3.70 kcal/mol
DOCKED: USER    (2) Final Total Internal Energy     =   -1.57 kcal/mol
DOCKED: USER    (3) Torsional Free Energy           =   +2.98 kcal/mol
DOCKED: USER    (4) Unbound System's Energy  [=(2)] =   -1.57 kcal/mol
DOCKED: USER    
DOCKED: USER    
DOCKED: USER    NEWDPF move heme_Fe_opt.pdbqt
DOCKED: USER    NEWDPF about -0.174000 -0.001000 -0.047000
DOCKED: USER    NEWDPF tran0 -5.278002 -9.067504 -3.288143
DOCKED: USER    NEWDPF quaternion0 -0.094299 0.015561 0.656939 -0.747861
DOCKED: USER    NEWDPF axisangle0 -0.142048 0.023440 0.989582 -83.189141
DOCKED: USER    NEWDPF quat0 -0.142048 0.023440 0.989582 -83.189141
DOCKED: USER    NEWDPF dihe0 -116.08 -70.78 72.54 -125.10 21.01 164.35 -9.02 65.30 -152.76 -179.81 
DOCKED: USER  keepresnum = 1 
DOCKED: USER  
DOCKED: REMARK  10 active torsions:
DOCKED: REMARK  status: ('A' for Active; 'I' for Inactive)
DOCKED: REMARK    1  A    between atoms: C_6  and  C_10 
DOCKED: REMARK    2  A    between atoms: C_10  and  C_11 
DOCKED: REMARK    3  A    between atoms: C_11  and  C_12 
DOCKED: REMARK    4  A    between atoms: C_12  and  O_14 
DOCKED: REMARK    5  A    between atoms: C_17  and  C_20 
DOCKED: REMARK    6  A    between atoms: C_24  and  C_27 
DOCKED: REMARK    7  A    between atoms: C_31  and  C_34 
DOCKED: REMARK    8  A    between atoms: C_34  and  C_35 
DOCKED: REMARK    9  A    between atoms: C_35  and  C_36 
DOCKED: REMARK   10  A    between atoms: C_36  and  O_38 
DOCKED: USER                              x       y       z     vdW  Elec       q    Type
DOCKED: USER                           _______ _______ _______ _____ _____    ______ ____
DOCKED: ROOT
DOCKED: ATOM      1  C   UNL d   1      -5.544 -10.929  -2.467 -0.31 +0.05    +0.064 C 
DOCKED: ATOM      2  C   UNL d   1      -1.749  -7.779  -2.794 -0.44 +0.02    +0.064 A 
DOCKED: ATOM      3  C   UNL d   1      -4.827  -4.309  -4.040 -0.40 +0.01    +0.064 C 
DOCKED: ATOM      4  C   UNL d   1      -8.500  -7.366  -3.832 -0.49 +0.02    +0.064 C 
DOCKED: ATOM      5  C   UNL d   1      -4.180 -10.385  -2.525 -0.34 +0.05    +0.066 A 
DOCKED: ATOM      6  C   UNL d   1      -3.024 -11.124  -2.334 -0.34 -0.02    -0.021 A 
DOCKED: ATOM      7  C   UNL d   1      -1.971 -10.248  -2.421 -0.31 -0.01    -0.025 A 
DOCKED: ATOM      8  C   UNL d   1      -2.525  -9.006  -2.663 -0.38 +0.03    +0.066 A 
DOCKED: ATOM      9  C   UNL d   1      -0.520 -10.597  -2.297 -0.34 +0.02    +0.051 C 
DOCKED: ATOM     10  C   UNL d   1      -2.253  -6.578  -3.084 -0.41 +0.02    +0.066 A 
DOCKED: ATOM     11  C   UNL d   1      -1.500  -5.402  -3.090 -0.45 -0.00    -0.021 A 
DOCKED: ATOM     12  C   UNL d   1      -2.368  -4.384  -3.430 -0.41 +0.00    +0.000 A 
DOCKED: ATOM     13  C   UNL d   1      -3.621  -4.997  -3.608 -0.38 +0.01    +0.070 A 
DOCKED: ATOM     14  C   UNL d   1      -0.038  -5.245  -2.723 -0.59 +0.01    +0.052 C 
DOCKED: ATOM     15  C   UNL d   1      -6.047  -4.884  -4.162 -0.39 +0.01    +0.066 A 
DOCKED: ATOM     16  C   UNL d   1      -7.152  -4.217  -4.673 -0.48 -0.00    -0.021 A 
DOCKED: ATOM     17  C   UNL d   1      -8.214  -5.096  -4.611 -0.47 +0.00    +0.000 A 
DOCKED: ATOM     18  C   UNL d   1      -7.731  -6.280  -4.058 -0.42 +0.02    +0.070 A 
DOCKED: ATOM     19  C   UNL d   1      -7.218  -2.801  -5.178 -0.61 +0.01    +0.052 C 
DOCKED: ATOM     20  C   UNL d   1      -8.014  -8.649  -3.309 -0.39 +0.02    +0.066 A 
DOCKED: ATOM     21  C   UNL d   1      -8.826  -9.710  -2.884 -0.39 -0.01    -0.025 A 
DOCKED: ATOM     22  C   UNL d   1      -7.962 -10.720  -2.511 -0.19 -0.01    -0.021 A 
DOCKED: ATOM     23  C   UNL d   1      -6.665 -10.235  -2.717 -0.01 +0.04    +0.066 A 
DOCKED: ATOM     24  C   UNL d   1     -10.334  -9.779  -2.823 -0.52 +0.01    +0.051 C 
DOCKED: ATOM     25  N   UNL d   1      -3.868  -9.094  -2.735 -0.24 -0.12    -0.248 N 
DOCKED: ATOM     26  N   UNL d   1      -3.553  -6.333  -3.388 -0.25 -0.07    -0.248 N 
DOCKED: ATOM     27  N   UNL d   1      -6.389  -6.166  -3.822 -0.24 -0.09    -0.248 N 
DOCKED: ATOM     28  N   UNL d   1      -6.703  -8.955  -3.161 -0.23 -0.11    -0.248 N 
DOCKED: ATOM     29 FE   UNL d   1      -5.130  -7.644  -3.275 -0.09 +0.00    +0.000 Fe
DOCKED: ENDROOT
DOCKED: BRANCH   6  30
DOCKED: ATOM     30  C   UNL d   1      -2.922 -12.593  -2.101 -0.18 +0.08    +0.052 C 
DOCKED: BRANCH  30  31
DOCKED: ATOM     31  C   UNL d   1      -3.601 -12.981  -0.792 -0.14 +0.18    +0.115 C 
DOCKED: BRANCH  31  32
DOCKED: ATOM     32  C   UNL d   1      -3.688 -14.477  -0.668 -0.12 +0.28    +0.139 C 
DOCKED: ATOM     33  O   UNL d   1      -2.943 -15.200  -1.315 +0.00 -1.28    -0.650 OA
DOCKED: BRANCH  32  34
DOCKED: ATOM     34  O   UNL d   1      -4.589 -15.035   0.158 -0.45 -1.84    -0.776 OA
DOCKED: ATOM     35  H   UNL d   1      -5.531 -14.908  -0.021 +0.02 +0.37    +0.167 HD
DOCKED: ENDBRANCH  32  34
DOCKED: ENDBRANCH  31  32
DOCKED: ENDBRANCH  30  31
DOCKED: ENDBRANCH   6  30
DOCKED: BRANCH  22  36
DOCKED: ATOM     36  C   UNL d   1      -8.364 -12.056  -1.944 -0.28 +0.03    +0.052 C 
DOCKED: BRANCH  36  37
DOCKED: ATOM     37  C   UNL d   1      -8.614 -11.924  -0.449 -0.24 +0.07    +0.115 C 
DOCKED: BRANCH  37  38
DOCKED: ATOM     38  C   UNL d   1      -7.622 -12.734   0.337 -0.22 +0.15    +0.139 C 
DOCKED: ATOM     39  O   UNL d   1      -7.469 -12.544   1.535 -0.60 -0.85    -0.650 OA
DOCKED: BRANCH  38  40
DOCKED: ATOM     40  O   UNL d   1      -6.889 -13.678  -0.278 +0.01 -1.08    -0.776 OA
DOCKED: ATOM     41  H   UNL d   1      -5.943 -13.526  -0.412 +0.05 +0.28    +0.167 HD
DOCKED: ENDBRANCH  38  40
DOCKED: ENDBRANCH  37  38
DOCKED: ENDBRANCH  36  37
DOCKED: ENDBRANCH  22  36
DOCKED: BRANCH  12  42
DOCKED: ATOM     42  C   UNL d   1      -1.992  -2.941  -3.548 -0.45 +0.00    +0.004 C 
DOCKED: ATOM     43  C   UNL d   1      -2.149  -2.279  -4.701 -0.59 +0.00    +0.012 C 
DOCKED: ENDBRANCH  12  42
DOCKED: BRANCH  17  44
DOCKED: ATOM     44  C   UNL d   1      -9.596  -4.828  -5.070 -0.28 +0.00    +0.004 C 
DOCKED: ATOM     45  C   UNL d   1     -10.389  -3.988  -4.398 -0.68 +0.00    +0.012 C 
DOCKED: ENDBRANCH  17  44
DOCKED: TORSDOF 10
DOCKED: TER
DOCKED: ENDMDL
________________________________________________________________________________


	BEGINNING GENETIC ALGORITHM DOCKING 28 of 100
Run: 28 Seed: 238744108 233123548 [ Run 28 of 100 GA/GALS ]
Beginning LAMARCKIAN GENETIC ALGORITHM (LGA), with a maximum of 25000000 energy evaluations.

Final-Value: -14.787


	FINAL GENETIC ALGORITHM DOCKED STATE
	_______________________________________________


Detailed state:  trans -10.304 -14.717 -3.163 quatxyzw 0.109838 -0.852041 -0.156948 0.487164 center -0.174 -0.001 -0.047 ntor 10 68.4384 85.4533 -107.9869 35.4647 -154.6895 169.7239 -61.5000 -30.4523 -175.8323 21.5114
State:	-10.304 -14.717  -3.163   0.126 -0.976 -0.180 121.691     68.44   85.45 -107.99   35.46 -154.69  169.72  -61.50  -30.45 -175.83   21.51

DOCKED: MODEL       28
DOCKED: USER    Run = 28
DOCKED: USER    DPF = D:/Protein_go_brrr/autodock/final/AncA/heme_Fe/dock.dpf
DOCKED: USER  
DOCKED: USER    Estimated Free Energy of Binding    =   -9.56 kcal/mol  [=(1)+(2)+(3)-(4)]
DOCKED: USER    Estimated Inhibition Constant, Ki   =   98.94 nM (nanomolar)  [Temperature = 298.15 K]
DOCKED: USER    
DOCKED: USER    (1) Final Intermolecular Energy     =  -12.54 kcal/mol
DOCKED: USER        vdW + Hbond + desolv Energy     =   -8.20 kcal/mol
DOCKED: USER        Electrostatic Energy            =   -4.34 kcal/mol
DOCKED: USER    (2) Final Total Internal Energy     =   -2.25 kcal/mol
DOCKED: USER    (3) Torsional Free Energy           =   +2.98 kcal/mol
DOCKED: USER    (4) Unbound System's Energy  [=(2)] =   -2.25 kcal/mol
DOCKED: USER    
DOCKED: USER    
DOCKED: USER    NEWDPF move heme_Fe_opt.pdbqt
DOCKED: USER    NEWDPF about -0.174000 -0.001000 -0.047000
DOCKED: USER    NEWDPF tran0 -10.303857 -14.716597 -3.162686
DOCKED: USER    NEWDPF quaternion0 0.109838 -0.852041 -0.156948 0.487164
DOCKED: USER    NEWDPF axisangle0 0.125772 -0.975645 -0.179716 121.691238
DOCKED: USER    NEWDPF quat0 0.125772 -0.975645 -0.179716 121.691238
DOCKED: USER    NEWDPF dihe0 68.44 85.45 -107.99 35.46 -154.69 169.72 -61.50 -30.45 -175.83 21.51 
DOCKED: USER  keepresnum = 1 
DOCKED: USER  
DOCKED: REMARK  10 active torsions:
DOCKED: REMARK  status: ('A' for Active; 'I' for Inactive)
DOCKED: REMARK    1  A    between atoms: C_6  and  C_10 
DOCKED: REMARK    2  A    between atoms: C_10  and  C_11 
DOCKED: REMARK    3  A    between atoms: C_11  and  C_12 
DOCKED: REMARK    4  A    between atoms: C_12  and  O_14 
DOCKED: REMARK    5  A    between atoms: C_17  and  C_20 
DOCKED: REMARK    6  A    between atoms: C_24  and  C_27 
DOCKED: REMARK    7  A    between atoms: C_31  and  C_34 
DOCKED: REMARK    8  A    between atoms: C_34  and  C_35 
DOCKED: REMARK    9  A    between atoms: C_35  and  C_36 
DOCKED: REMARK   10  A    between atoms: C_36  and  O_38 
DOCKED: USER                              x       y       z     vdW  Elec       q    Type
DOCKED: USER                           _______ _______ _______ _____ _____    ______ ____
DOCKED: ROOT
DOCKED: ATOM      1  C   UNL d   1      -8.868 -14.504  -1.713 -0.13 +0.05    +0.064 C 
DOCKED: ATOM      2  C   UNL d   1      -9.722 -17.783  -5.311 -0.10 +0.03    +0.064 A 
DOCKED: ATOM      3  C   UNL d   1     -12.811 -14.690  -7.301 -0.20 +0.01    +0.064 C 
DOCKED: ATOM      4  C   UNL d   1     -12.078 -11.546  -3.771 -0.35 +0.01    +0.064 C 
DOCKED: ATOM      5  C   UNL d   1      -8.884 -15.747  -2.496 -0.09 +0.05    +0.066 A 
DOCKED: ATOM      6  C   UNL d   1      -8.199 -16.903  -2.159 -0.06 -0.02    -0.021 A 
DOCKED: ATOM      7  C   UNL d   1      -8.434 -17.812  -3.161 -0.05 -0.02    -0.025 A 
DOCKED: ATOM      8  C   UNL d   1      -9.254 -17.175  -4.071 -0.09 +0.04    +0.066 A 
DOCKED: ATOM      9  C   UNL d   1      -7.911 -19.215  -3.221 -0.02 +0.03    +0.051 C 
DOCKED: ATOM     10  C   UNL d   1     -10.559 -17.212  -6.178 -0.15 +0.03    +0.066 A 
DOCKED: ATOM     11  C   UNL d   1     -10.898 -17.772  -7.412 -0.18 -0.01    -0.021 A 
DOCKED: ATOM     12  C   UNL d   1     -11.775 -16.891  -8.013 -0.18 +0.00    +0.000 A 
DOCKED: ATOM     13  C   UNL d   1     -11.921 -15.825  -7.109 -0.18 +0.01    +0.070 A 
DOCKED: ATOM     14  C   UNL d   1     -10.359 -19.051  -8.020 -0.15 +0.03    +0.052 C 
DOCKED: ATOM     15  C   UNL d   1     -12.916 -13.636  -6.458 -0.24 +0.01    +0.066 A 
DOCKED: ATOM     16  C   UNL d   1     -13.850 -12.621  -6.626 -0.22 -0.00    -0.021 A 
DOCKED: ATOM     17  C   UNL d   1     -13.638 -11.711  -5.611 -0.29 +0.00    +0.000 A 
DOCKED: ATOM     18  C   UNL d   1     -12.575 -12.191  -4.849 -0.27 +0.01    +0.070 A 
DOCKED: ATOM     19  C   UNL d   1     -14.885 -12.496  -7.711 -0.18 +0.00    +0.052 C 
DOCKED: ATOM     20  C   UNL d   1     -11.003 -12.050  -2.910 -0.24 +0.02    +0.066 A 
DOCKED: ATOM     21  C   UNL d   1     -10.345 -11.309  -1.917 -0.35 -0.01    -0.025 A 
DOCKED: ATOM     22  C   UNL d   1      -9.443 -12.176  -1.335 -0.28 -0.01    -0.021 A 
DOCKED: ATOM     23  C   UNL d   1      -9.580 -13.402  -1.995 -0.17 +0.04    +0.066 A 
DOCKED: ATOM     24  C   UNL d   1     -10.545  -9.862  -1.532 -0.48 +0.01    +0.051 C 
DOCKED: ATOM     25  N   UNL d   1      -9.534 -15.923  -3.659 -0.07 -0.15    -0.248 N 
DOCKED: ATOM     26  N   UNL d   1     -11.173 -16.015  -5.995 -0.12 -0.08    -0.248 N 
DOCKED: ATOM     27  N   UNL d   1     -12.159 -13.396  -5.343 -0.13 -0.05    -0.248 N 
DOCKED: ATOM     28  N   UNL d   1     -10.501 -13.307  -2.985 -0.08 -0.10    -0.248 N 
DOCKED: ATOM     29 FE   UNL d   1     -10.838 -14.659  -4.489 -0.04 +0.00    +0.000 Fe
DOCKED: ENDROOT
DOCKED: BRANCH   6  30
DOCKED: ATOM     30  C   UNL d   1      -7.380 -17.142  -0.937 -0.04 +0.05    +0.052 C 
DOCKED: BRANCH  30  31
DOCKED: ATOM     31  C   UNL d   1      -5.946 -16.665  -1.146 -0.06 +0.18    +0.115 C 
DOCKED: BRANCH  31  32
DOCKED: ATOM     32  C   UNL d   1      -5.606 -15.577  -0.166 -0.07 +0.28    +0.139 C 
DOCKED: ATOM     33  O   UNL d   1      -4.736 -14.757  -0.423 -0.40 -1.45    -0.650 OA
DOCKED: BRANCH  32  34
DOCKED: ATOM     34  O   UNL d   1      -6.259 -15.495   1.005 -0.15 -1.91    -0.776 OA
DOCKED: ATOM     35  H   UNL d   1      -6.856 -14.750   1.159 +0.03 +0.36    +0.167 HD
DOCKED: ENDBRANCH  32  34
DOCKED: ENDBRANCH  31  32
DOCKED: ENDBRANCH  30  31
DOCKED: ENDBRANCH   6  30
DOCKED: BRANCH  22  36
DOCKED: ATOM     36  C   UNL d   1      -8.471 -11.827  -0.238 -0.19 +0.04    +0.052 C 
DOCKED: BRANCH  36  37
DOCKED: ATOM     37  C   UNL d   1      -8.764 -12.670   0.994 -0.30 +0.09    +0.115 C 
DOCKED: BRANCH  37  38
DOCKED: ATOM     38  C   UNL d   1      -7.506 -12.949   1.767 -0.25 +0.20    +0.139 C 
DOCKED: ATOM     39  O   UNL d   1      -7.555 -13.447   2.882 -0.34 -1.11    -0.650 OA
DOCKED: BRANCH  38  40
DOCKED: ATOM     40  O   UNL d   1      -6.309 -12.646   1.234 -0.18 -1.34    -0.776 OA
DOCKED: ATOM     41  H   UNL d   1      -5.818 -13.332   0.762 +0.04 +0.36    +0.167 HD
DOCKED: ENDBRANCH  38  40
DOCKED: ENDBRANCH  37  38
DOCKED: ENDBRANCH  36  37
DOCKED: ENDBRANCH  22  36
DOCKED: BRANCH  12  42
DOCKED: ATOM     42  C   UNL d   1     -12.392 -17.084  -9.362 -0.17 +0.00    +0.004 C 
DOCKED: ATOM     43  C   UNL d   1     -11.630 -17.191 -10.459 -0.23 +0.00    +0.012 C 
DOCKED: ENDBRANCH  12  42
DOCKED: BRANCH  17  44
DOCKED: ATOM     44  C   UNL d   1     -14.415 -10.474  -5.374 -0.40 +0.00    +0.004 C 
DOCKED: ATOM     45  C   UNL d   1     -15.507 -10.488  -4.602 -0.39 -0.00    +0.012 C 
DOCKED: ENDBRANCH  17  44
DOCKED: TORSDOF 10
DOCKED: TER
DOCKED: ENDMDL
________________________________________________________________________________


	BEGINNING GENETIC ALGORITHM DOCKING 29 of 100
Run: 29 Seed: 284960016 856904330 [ Run 29 of 100 GA/GALS ]
Beginning LAMARCKIAN GENETIC ALGORITHM (LGA), with a maximum of 25000000 energy evaluations.

Final-Value: -17.427


	FINAL GENETIC ALGORITHM DOCKED STATE
	_______________________________________________


Detailed state:  trans -5.444 -10.675 -1.462 quatxyzw 0.616931 0.754589 -0.132250 -0.180285 center -0.174 -0.001 -0.047 ntor 10 -18.7929 54.8548 65.3609 -141.1644 8.4545 -60.1171 -68.9704 18.8291 -157.5770 -172.8894
State:	 -5.444 -10.675  -1.462   0.627  0.767 -0.134 -159.227    -18.79   54.85   65.36 -141.16    8.45  -60.12  -68.97   18.83 -157.58 -172.89

DOCKED: MODEL       29
DOCKED: USER    Run = 29
DOCKED: USER    DPF = D:/Protein_go_brrr/autodock/final/AncA/heme_Fe/dock.dpf
DOCKED: USER  
DOCKED: USER    Estimated Free Energy of Binding    =  -12.83 kcal/mol  [=(1)+(2)+(3)-(4)]
DOCKED: USER    Estimated Inhibition Constant, Ki   =  396.94 pM (picomolar)  [Temperature = 298.15 K]
DOCKED: USER    
DOCKED: USER    (1) Final Intermolecular Energy     =  -15.81 kcal/mol
DOCKED: USER        vdW + Hbond + desolv Energy     =  -12.12 kcal/mol
DOCKED: USER        Electrostatic Energy            =   -3.68 kcal/mol
DOCKED: USER    (2) Final Total Internal Energy     =   -1.62 kcal/mol
DOCKED: USER    (3) Torsional Free Energy           =   +2.98 kcal/mol
DOCKED: USER    (4) Unbound System's Energy  [=(2)] =   -1.62 kcal/mol
DOCKED: USER    
DOCKED: USER    
DOCKED: USER    NEWDPF move heme_Fe_opt.pdbqt
DOCKED: USER    NEWDPF about -0.174000 -0.001000 -0.047000
DOCKED: USER    NEWDPF tran0 -5.443584 -10.675225 -1.461804
DOCKED: USER    NEWDPF quaternion0 0.616931 0.754589 -0.132250 -0.180285
DOCKED: USER    NEWDPF axisangle0 0.627208 0.767159 -0.134453 -159.227307
DOCKED: USER    NEWDPF quat0 0.627208 0.767159 -0.134453 -159.227307
DOCKED: USER    NEWDPF dihe0 -18.79 54.85 65.36 -141.16 8.45 -60.12 -68.97 18.83 -157.58 -172.89 
DOCKED: USER  keepresnum = 1 
DOCKED: USER  
DOCKED: REMARK  10 active torsions:
DOCKED: REMARK  status: ('A' for Active; 'I' for Inactive)
DOCKED: REMARK    1  A    between atoms: C_6  and  C_10 
DOCKED: REMARK    2  A    between atoms: C_10  and  C_11 
DOCKED: REMARK    3  A    between atoms: C_11  and  C_12 
DOCKED: REMARK    4  A    between atoms: C_12  and  O_14 
DOCKED: REMARK    5  A    between atoms: C_17  and  C_20 
DOCKED: REMARK    6  A    between atoms: C_24  and  C_27 
DOCKED: REMARK    7  A    between atoms: C_31  and  C_34 
DOCKED: REMARK    8  A    between atoms: C_34  and  C_35 
DOCKED: REMARK    9  A    between atoms: C_35  and  C_36 
DOCKED: REMARK   10  A    between atoms: C_36  and  O_38 
DOCKED: USER                              x       y       z     vdW  Elec       q    Type
DOCKED: USER                           _______ _______ _______ _____ _____    ______ ____
DOCKED: ROOT
DOCKED: ATOM      1  C   UNL d   1      -5.099 -12.662  -1.080 -0.29 +0.10    +0.064 C 
DOCKED: ATOM      2  C   UNL d   1      -9.009 -10.031  -2.571 -0.35 +0.02    +0.064 A 
DOCKED: ATOM      3  C   UNL d   1      -6.077  -6.355  -3.547 -0.36 +0.03    +0.064 C 
DOCKED: ATOM      4  C   UNL d   1      -2.293  -8.846  -2.010 -0.50 +0.02    +0.064 C 
DOCKED: ATOM      5  C   UNL d   1      -6.482 -12.233  -1.330 -0.23 +0.07    +0.066 A 
DOCKED: ATOM      6  C   UNL d   1      -7.607 -12.993  -1.057 -0.22 -0.02    -0.021 A 
DOCKED: ATOM      7  C   UNL d   1      -8.693 -12.264  -1.475 -0.25 -0.02    -0.025 A 
DOCKED: ATOM      8  C   UNL d   1      -8.187 -11.085  -1.987 -0.13 +0.04    +0.066 A 
DOCKED: ATOM      9  C   UNL d   1     -10.129 -12.676  -1.365 -0.24 +0.02    +0.051 C 
DOCKED: ATOM     10  C   UNL d   1      -8.553  -8.861  -3.020 -0.38 +0.02    +0.066 A 
DOCKED: ATOM     11  C   UNL d   1      -9.349  -7.920  -3.677 -0.47 -0.00    -0.021 A 
DOCKED: ATOM     12  C   UNL d   1      -8.523  -6.857  -3.985 -0.48 +0.00    +0.000 A 
DOCKED: ATOM     13  C   UNL d   1      -7.251  -7.212  -3.501 -0.39 +0.03    +0.070 A 
DOCKED: ATOM     14  C   UNL d   1     -10.809  -8.055  -4.056 -0.22 +0.01    +0.052 C 
DOCKED: ATOM     15  C   UNL d   1      -4.839  -6.712  -3.130 -0.22 +0.03    +0.066 A 
DOCKED: ATOM     16  C   UNL d   1      -3.766  -5.831  -3.099 -0.40 -0.01    -0.021 A 
DOCKED: ATOM     17  C   UNL d   1      -2.672  -6.549  -2.659 -0.38 +0.00    +0.000 A 
DOCKED: ATOM     18  C   UNL d   1      -3.105  -7.854  -2.436 -0.40 +0.02    +0.070 A 
DOCKED: ATOM     19  C   UNL d   1      -3.759  -4.378  -3.491 -0.29 +0.01    +0.052 C 
DOCKED: ATOM     20  C   UNL d   1      -2.725 -10.216  -1.706 -0.37 +0.04    +0.066 A 
DOCKED: ATOM     21  C   UNL d   1      -1.870 -11.299  -1.459 -0.32 -0.02    -0.025 A 
DOCKED: ATOM     22  C   UNL d   1      -2.690 -12.373  -1.184 -0.27 -0.02    -0.021 A 
DOCKED: ATOM     23  C   UNL d   1      -4.007 -11.907  -1.279 -0.29 +0.08    +0.066 A 
DOCKED: ATOM     24  C   UNL d   1      -0.359 -11.332  -1.483 -0.35 +0.02    +0.051 C 
DOCKED: ATOM     25  N   UNL d   1      -6.843 -11.065  -1.889 +0.23 -0.18    -0.248 N 
DOCKED: ATOM     26  N   UNL d   1      -7.267  -8.437  -2.921 -0.17 -0.10    -0.248 N 
DOCKED: ATOM     27  N   UNL d   1      -4.446  -7.945  -2.683 -0.25 -0.11    -0.248 N 
DOCKED: ATOM     28  N   UNL d   1      -4.022 -10.601  -1.642 -0.22 -0.18    -0.248 N 
DOCKED: ATOM     29 FE   UNL d   1      -5.643  -9.519  -2.282 -0.08 +0.00    +0.000 Fe
DOCKED: ENDROOT
DOCKED: BRANCH   6  30
DOCKED: ATOM     30  C   UNL d   1      -7.653 -14.336  -0.411 -0.15 +0.06    +0.052 C 
DOCKED: BRANCH  30  31
DOCKED: ATOM     31  C   UNL d   1      -7.047 -15.396  -1.325 -0.07 +0.18    +0.115 C 
DOCKED: BRANCH  31  32
DOCKED: ATOM     32  C   UNL d   1      -5.749 -15.900  -0.757 -0.04 +0.26    +0.139 C 
DOCKED: ATOM     33  O   UNL d   1      -5.393 -15.576   0.367 -0.47 -1.54    -0.650 OA
DOCKED: BRANCH  32  34
DOCKED: ATOM     34  O   UNL d   1      -4.966 -16.714  -1.484 -0.10 -1.52    -0.776 OA
DOCKED: ATOM     35  H   UNL d   1      -4.035 -16.811  -1.240 +0.01 +0.28    +0.167 HD
DOCKED: ENDBRANCH  32  34
DOCKED: ENDBRANCH  31  32
DOCKED: ENDBRANCH  30  31
DOCKED: ENDBRANCH   6  30
DOCKED: BRANCH  22  36
DOCKED: ATOM     36  C   UNL d   1      -2.233 -13.778  -0.894 -0.22 +0.07    +0.052 C 
DOCKED: BRANCH  36  37
DOCKED: ATOM     37  C   UNL d   1      -1.803 -14.455  -2.187 -0.11 +0.17    +0.115 C 
DOCKED: BRANCH  37  38
DOCKED: ATOM     38  C   UNL d   1      -1.760 -15.948  -2.025 -0.09 +0.19    +0.139 C 
DOCKED: ATOM     39  O   UNL d   1      -1.023 -16.466  -1.199 +0.02 -0.56    -0.650 OA
DOCKED: BRANCH  38  40
DOCKED: ATOM     40  O   UNL d   1      -2.536 -16.729  -2.797 -0.52 -1.45    -0.776 OA
DOCKED: ATOM     41  H   UNL d   1      -3.131 -17.364  -2.375 +0.01 +0.26    +0.167 HD
DOCKED: ENDBRANCH  38  40
DOCKED: ENDBRANCH  37  38
DOCKED: ENDBRANCH  36  37
DOCKED: ENDBRANCH  22  36
DOCKED: BRANCH  12  42
DOCKED: ATOM     42  C   UNL d   1      -8.952  -5.619  -4.706 -0.50 +0.00    +0.004 C 
DOCKED: ATOM     43  C   UNL d   1      -8.970  -4.432  -4.087 -0.58 +0.00    +0.012 C 
DOCKED: ENDBRANCH  12  42
DOCKED: BRANCH  17  44
DOCKED: ATOM     44  C   UNL d   1      -1.308  -6.015  -2.447 -0.46 +0.00    +0.004 C 
DOCKED: ATOM     45  C   UNL d   1      -0.424  -5.976  -3.449 -0.58 +0.00    +0.012 C 
DOCKED: ENDBRANCH  17  44
DOCKED: TORSDOF 10
DOCKED: TER
DOCKED: ENDMDL
________________________________________________________________________________


	BEGINNING GENETIC ALGORITHM DOCKING 30 of 100
Run: 30 Seed: 2075077029 1752891525 [ Run 30 of 100 GA/GALS ]
Beginning LAMARCKIAN GENETIC ALGORITHM (LGA), with a maximum of 25000000 energy evaluations.

Final-Value: -20.343


	FINAL GENETIC ALGORITHM DOCKED STATE
	_______________________________________________


Detailed state:  trans -4.977 -9.277 -3.230 quatxyzw -0.074608 -0.003452 0.667152 -0.741168 center -0.174 -0.001 -0.047 ntor 10 -154.2963 -12.1141 67.7686 -103.4781 60.2773 173.7265 -20.6597 60.8450 179.2908 159.3523
State:	 -4.977  -9.277  -3.230  -0.111 -0.005  0.994 -84.338   -154.30  -12.11   67.77 -103.48   60.28  173.73  -20.66   60.84  179.29  159.35

DOCKED: MODEL       30
DOCKED: USER    Run = 30
DOCKED: USER    DPF = D:/Protein_go_brrr/autodock/final/AncA/heme_Fe/dock.dpf
DOCKED: USER  
DOCKED: USER    Estimated Free Energy of Binding    =  -15.36 kcal/mol  [=(1)+(2)+(3)-(4)]
DOCKED: USER    Estimated Inhibition Constant, Ki   =    5.48 pM (picomolar)  [Temperature = 298.15 K]
DOCKED: USER    
DOCKED: USER    (1) Final Intermolecular Energy     =  -18.35 kcal/mol
DOCKED: USER        vdW + Hbond + desolv Energy     =  -14.28 kcal/mol
DOCKED: USER        Electrostatic Energy            =   -4.07 kcal/mol
DOCKED: USER    (2) Final Total Internal Energy     =   -2.00 kcal/mol
DOCKED: USER    (3) Torsional Free Energy           =   +2.98 kcal/mol
DOCKED: USER    (4) Unbound System's Energy  [=(2)] =   -2.00 kcal/mol
DOCKED: USER    
DOCKED: USER    
DOCKED: USER    NEWDPF move heme_Fe_opt.pdbqt
DOCKED: USER    NEWDPF about -0.174000 -0.001000 -0.047000
DOCKED: USER    NEWDPF tran0 -4.977003 -9.276795 -3.230226
DOCKED: USER    NEWDPF quaternion0 -0.074608 -0.003452 0.667152 -0.741168
DOCKED: USER    NEWDPF axisangle0 -0.111136 -0.005143 0.993792 -84.338055
DOCKED: USER    NEWDPF quat0 -0.111136 -0.005143 0.993792 -84.338055
DOCKED: USER    NEWDPF dihe0 -154.30 -12.11 67.77 -103.48 60.28 173.73 -20.66 60.84 179.29 159.35 
DOCKED: USER  keepresnum = 1 
DOCKED: USER  
DOCKED: REMARK  10 active torsions:
DOCKED: REMARK  status: ('A' for Active; 'I' for Inactive)
DOCKED: REMARK    1  A    between atoms: C_6  and  C_10 
DOCKED: REMARK    2  A    between atoms: C_10  and  C_11 
DOCKED: REMARK    3  A    between atoms: C_11  and  C_12 
DOCKED: REMARK    4  A    between atoms: C_12  and  O_14 
DOCKED: REMARK    5  A    between atoms: C_17  and  C_20 
DOCKED: REMARK    6  A    between atoms: C_24  and  C_27 
DOCKED: REMARK    7  A    between atoms: C_31  and  C_34 
DOCKED: REMARK    8  A    between atoms: C_34  and  C_35 
DOCKED: REMARK    9  A    between atoms: C_35  and  C_36 
DOCKED: REMARK   10  A    between atoms: C_36  and  O_38 
DOCKED: USER                              x       y       z     vdW  Elec       q    Type
DOCKED: USER                           _______ _______ _______ _____ _____    ______ ____
DOCKED: ROOT
DOCKED: ATOM      1  C   UNL d   1      -5.192 -11.186  -2.510 -0.36 +0.06    +0.064 C 
DOCKED: ATOM      2  C   UNL d   1      -1.484  -7.922  -2.664 -0.44 +0.02    +0.064 A 
DOCKED: ATOM      3  C   UNL d   1      -4.655  -4.474  -3.726 -0.34 +0.01    +0.064 C 
DOCKED: ATOM      4  C   UNL d   1      -8.244  -7.637  -3.686 -0.49 +0.02    +0.064 C 
DOCKED: ATOM      5  C   UNL d   1      -3.844 -10.603  -2.537 -0.34 +0.05    +0.066 A 
DOCKED: ATOM      6  C   UNL d   1      -2.668 -11.320  -2.385 -0.32 -0.02    -0.021 A 
DOCKED: ATOM      7  C   UNL d   1      -1.639 -10.412  -2.424 -0.25 -0.01    -0.025 A 
DOCKED: ATOM      8  C   UNL d   1      -2.227  -9.174  -2.599 -0.38 +0.03    +0.066 A 
DOCKED: ATOM      9  C   UNL d   1      -0.179 -10.728  -2.317 -0.32 +0.02    +0.051 C 
DOCKED: ATOM     10  C   UNL d   1      -2.021  -6.721  -2.890 -0.42 +0.02    +0.066 A 
DOCKED: ATOM     11  C   UNL d   1      -1.299  -5.526  -2.832 -0.46 -0.00    -0.021 A 
DOCKED: ATOM     12  C   UNL d   1      -2.195  -4.516  -3.118 -0.41 +0.00    +0.000 A 
DOCKED: ATOM     13  C   UNL d   1      -3.431  -5.151  -3.330 -0.37 +0.01    +0.070 A 
DOCKED: ATOM     14  C   UNL d   1       0.158  -5.350  -2.455 -0.43 +0.00    +0.052 C 
DOCKED: ATOM     15  C   UNL d   1      -5.859  -5.075  -3.880 -0.39 +0.01    +0.066 A 
DOCKED: ATOM     16  C   UNL d   1      -6.982  -4.412  -4.356 -0.46 -0.00    -0.021 A 
DOCKED: ATOM     17  C   UNL d   1      -8.020  -5.321  -4.342 -0.48 +0.00    +0.000 A 
DOCKED: ATOM     18  C   UNL d   1      -7.504  -6.519  -3.853 -0.41 +0.02    +0.070 A 
DOCKED: ATOM     19  C   UNL d   1      -7.086  -2.973  -4.785 -0.63 +0.01    +0.052 C 
DOCKED: ATOM     20  C   UNL d   1      -7.724  -8.932  -3.232 -0.35 +0.02    +0.066 A 
DOCKED: ATOM     21  C   UNL d   1      -8.506 -10.036  -2.865 -0.33 -0.01    -0.025 A 
DOCKED: ATOM     22  C   UNL d   1      -7.615 -11.040  -2.546 -0.19 -0.01    -0.021 A 
DOCKED: ATOM     23  C   UNL d   1      -6.332 -10.510  -2.724 -0.16 +0.04    +0.066 A 
DOCKED: ATOM     24  C   UNL d   1     -10.012 -10.149  -2.810 -0.47 +0.01    +0.051 C 
DOCKED: ATOM     25  N   UNL d   1      -3.567  -9.295  -2.678 -0.24 -0.12    -0.248 N 
DOCKED: ATOM     26  N   UNL d   1      -3.327  -6.495  -3.182 -0.25 -0.07    -0.248 N 
DOCKED: ATOM     27  N   UNL d   1      -6.166  -6.382  -3.610 -0.23 -0.10    -0.248 N 
DOCKED: ATOM     28  N   UNL d   1      -6.404  -9.210  -3.099 -0.21 -0.12    -0.248 N 
DOCKED: ATOM     29 FE   UNL d   1      -4.867  -7.852  -3.141 -0.09 +0.00    +0.000 Fe
DOCKED: ENDROOT
DOCKED: BRANCH   6  30
DOCKED: ATOM     30  C   UNL d   1      -2.526 -12.796  -2.231 -0.20 +0.08    +0.052 C 
DOCKED: BRANCH  30  31
DOCKED: ATOM     31  C   UNL d   1      -2.537 -13.189  -0.757 -0.18 +0.15    +0.115 C 
DOCKED: BRANCH  31  32
DOCKED: ATOM     32  C   UNL d   1      -2.896 -14.641  -0.603 -0.17 +0.23    +0.139 C 
DOCKED: ATOM     33  O   UNL d   1      -2.204 -15.511  -1.111 -0.02 -0.91    -0.650 OA
DOCKED: BRANCH  32  34
DOCKED: ATOM     34  O   UNL d   1      -3.986 -14.995   0.099 -0.28 -1.64    -0.776 OA
DOCKED: ATOM     35  H   UNL d   1      -4.717 -14.367   0.179 +0.02 +0.40    +0.167 HD
DOCKED: ENDBRANCH  32  34
DOCKED: ENDBRANCH  31  32
DOCKED: ENDBRANCH  30  31
DOCKED: ENDBRANCH   6  30
DOCKED: BRANCH  22  36
DOCKED: ATOM     36  C   UNL d   1      -7.980 -12.415  -2.051 -0.27 +0.04    +0.052 C 
DOCKED: BRANCH  36  37
DOCKED: ATOM     37  C   UNL d   1      -7.733 -12.503  -0.552 -0.21 +0.10    +0.115 C 
DOCKED: BRANCH  37  38
DOCKED: ATOM     38  C   UNL d   1      -6.731 -13.576  -0.234 -0.21 +0.20    +0.139 C 
DOCKED: ATOM     39  O   UNL d   1      -6.314 -13.724   0.906 -0.01 -1.45    -0.650 OA
DOCKED: BRANCH  38  40
DOCKED: ATOM     40  O   UNL d   1      -6.281 -14.385  -1.209 -0.32 -1.57    -0.776 OA
DOCKED: ATOM     41  H   UNL d   1      -5.512 -14.946  -1.037 +0.02 +0.41    +0.167 HD
DOCKED: ENDBRANCH  38  40
DOCKED: ENDBRANCH  37  38
DOCKED: ENDBRANCH  36  37
DOCKED: ENDBRANCH  22  36
DOCKED: BRANCH  12  42
DOCKED: ATOM     42  C   UNL d   1      -1.858  -3.059  -3.158 -0.43 +0.00    +0.004 C 
DOCKED: ATOM     43  C   UNL d   1      -1.943  -2.362  -4.299 -0.56 +0.00    +0.012 C 
DOCKED: ENDBRANCH  12  42
DOCKED: BRANCH  17  44
DOCKED: ATOM     44  C   UNL d   1      -9.408  -5.066  -4.788 -0.55 +0.00    +0.004 C 
DOCKED: ATOM     45  C   UNL d   1     -10.080  -3.994  -4.356 -0.68 +0.00    +0.012 C 
DOCKED: ENDBRANCH  17  44
DOCKED: TORSDOF 10
DOCKED: TER
DOCKED: ENDMDL
________________________________________________________________________________


	BEGINNING GENETIC ALGORITHM DOCKING 31 of 100
Run: 31 Seed: 1591054931 649453290 [ Run 31 of 100 GA/GALS ]
Beginning LAMARCKIAN GENETIC ALGORITHM (LGA), with a maximum of 25000000 energy evaluations.

Final-Value: -19.687


	FINAL GENETIC ALGORITHM DOCKED STATE
	_______________________________________________


Detailed state:  trans -4.894 -9.117 -3.248 quatxyzw -0.079308 0.003216 0.667954 -0.739958 center -0.174 -0.001 -0.047 ntor 10 -57.3912 180.0000 73.9072 -107.8829 68.8108 82.4965 -59.9554 0.5997 -172.2543 31.5569
State:	 -4.894  -9.117  -3.248  -0.118  0.005  0.993 -84.544    -57.39  180.00   73.91 -107.88   68.81   82.50  -59.96    0.60 -172.25   31.56

DOCKED: MODEL       31
DOCKED: USER    Run = 31
DOCKED: USER    DPF = D:/Protein_go_brrr/autodock/final/AncA/heme_Fe/dock.dpf
DOCKED: USER  
DOCKED: USER    Estimated Free Energy of Binding    =  -14.65 kcal/mol  [=(1)+(2)+(3)-(4)]
DOCKED: USER    Estimated Inhibition Constant, Ki   =   18.20 pM (picomolar)  [Temperature = 298.15 K]
DOCKED: USER    
DOCKED: USER    (1) Final Intermolecular Energy     =  -17.63 kcal/mol
DOCKED: USER        vdW + Hbond + desolv Energy     =  -14.06 kcal/mol
DOCKED: USER        Electrostatic Energy            =   -3.58 kcal/mol
DOCKED: USER    (2) Final Total Internal Energy     =   -2.05 kcal/mol
DOCKED: USER    (3) Torsional Free Energy           =   +2.98 kcal/mol
DOCKED: USER    (4) Unbound System's Energy  [=(2)] =   -2.05 kcal/mol
DOCKED: USER    
DOCKED: USER    
DOCKED: USER    NEWDPF move heme_Fe_opt.pdbqt
DOCKED: USER    NEWDPF about -0.174000 -0.001000 -0.047000
DOCKED: USER    NEWDPF tran0 -4.894284 -9.117166 -3.248038
DOCKED: USER    NEWDPF quaternion0 -0.079308 0.003216 0.667954 -0.739958
DOCKED: USER    NEWDPF axisangle0 -0.117903 0.004781 0.993014 -84.544389
DOCKED: USER    NEWDPF quat0 -0.117903 0.004781 0.993014 -84.544389
DOCKED: USER    NEWDPF dihe0 -57.39 180.00 73.91 -107.88 68.81 82.50 -59.96 0.60 -172.25 31.56 
DOCKED: USER  keepresnum = 1 
DOCKED: USER  
DOCKED: REMARK  10 active torsions:
DOCKED: REMARK  status: ('A' for Active; 'I' for Inactive)
DOCKED: REMARK    1  A    between atoms: C_6  and  C_10 
DOCKED: REMARK    2  A    between atoms: C_10  and  C_11 
DOCKED: REMARK    3  A    between atoms: C_11  and  C_12 
DOCKED: REMARK    4  A    between atoms: C_12  and  O_14 
DOCKED: REMARK    5  A    between atoms: C_17  and  C_20 
DOCKED: REMARK    6  A    between atoms: C_24  and  C_27 
DOCKED: REMARK    7  A    between atoms: C_31  and  C_34 
DOCKED: REMARK    8  A    between atoms: C_34  and  C_35 
DOCKED: REMARK    9  A    between atoms: C_35  and  C_36 
DOCKED: REMARK   10  A    between atoms: C_36  and  O_38 
DOCKED: USER                              x       y       z     vdW  Elec       q    Type
DOCKED: USER                           _______ _______ _______ _____ _____    ______ ____
DOCKED: ROOT
DOCKED: ATOM      1  C   UNL d   1      -5.103 -11.015  -2.497 -0.36 +0.06    +0.064 C 
DOCKED: ATOM      2  C   UNL d   1      -1.402  -7.747  -2.717 -0.45 +0.02    +0.064 A 
DOCKED: ATOM      3  C   UNL d   1      -4.583  -4.323  -3.822 -0.33 +0.01    +0.064 C 
DOCKED: ATOM      4  C   UNL d   1      -8.166  -7.490  -3.718 -0.49 +0.02    +0.064 C 
DOCKED: ATOM      5  C   UNL d   1      -3.756 -10.430  -2.538 -0.34 +0.05    +0.066 A 
DOCKED: ATOM      6  C   UNL d   1      -2.579 -11.142  -2.378 -0.32 -0.02    -0.021 A 
DOCKED: ATOM      7  C   UNL d   1      -1.552 -10.233  -2.436 -0.26 -0.01    -0.025 A 
DOCKED: ATOM      8  C   UNL d   1      -2.142  -9.000  -2.629 -0.40 +0.02    +0.066 A 
DOCKED: ATOM      9  C   UNL d   1      -0.090 -10.545  -2.330 -0.32 +0.02    +0.051 C 
DOCKED: ATOM     10  C   UNL d   1      -1.941  -6.551  -2.960 -0.42 +0.02    +0.066 A 
DOCKED: ATOM     11  C   UNL d   1      -1.222  -5.355  -2.924 -0.46 -0.00    -0.021 A 
DOCKED: ATOM     12  C   UNL d   1      -2.120  -4.350  -3.223 -0.41 +0.00    +0.000 A 
DOCKED: ATOM     13  C   UNL d   1      -3.356  -4.991  -3.419 -0.37 +0.01    +0.070 A 
DOCKED: ATOM     14  C   UNL d   1       0.236  -5.169  -2.555 -0.51 +0.00    +0.052 C 
DOCKED: ATOM     15  C   UNL d   1      -5.786  -4.928  -3.962 -0.39 +0.01    +0.066 A 
DOCKED: ATOM     16  C   UNL d   1      -6.913  -4.274  -4.445 -0.46 -0.00    -0.021 A 
DOCKED: ATOM     17  C   UNL d   1      -7.948  -5.185  -4.412 -0.48 +0.00    +0.000 A 
DOCKED: ATOM     18  C   UNL d   1      -7.429  -6.374  -3.906 -0.41 +0.02    +0.070 A 
DOCKED: ATOM     19  C   UNL d   1      -7.021  -2.842  -4.895 -0.62 +0.01    +0.052 C 
DOCKED: ATOM     20  C   UNL d   1      -7.641  -8.777  -3.245 -0.35 +0.02    +0.066 A 
DOCKED: ATOM     21  C   UNL d   1      -8.420  -9.876  -2.858 -0.33 -0.01    -0.025 A 
DOCKED: ATOM     22  C   UNL d   1      -7.527 -10.874  -2.526 -0.13 -0.01    -0.021 A 
DOCKED: ATOM     23  C   UNL d   1      -6.245 -10.345  -2.717 -0.12 +0.04    +0.066 A 
DOCKED: ATOM     24  C   UNL d   1      -9.926  -9.991  -2.795 -0.48 +0.01    +0.051 C 
DOCKED: ATOM     25  N   UNL d   1      -3.482  -9.124  -2.700 -0.25 -0.11    -0.248 N 
DOCKED: ATOM     26  N   UNL d   1      -3.249  -6.332  -3.250 -0.25 -0.06    -0.248 N 
DOCKED: ATOM     27  N   UNL d   1      -6.090  -6.230  -3.670 -0.22 -0.09    -0.248 N 
DOCKED: ATOM     28  N   UNL d   1      -6.321  -9.051  -3.113 -0.22 -0.12    -0.248 N 
DOCKED: ATOM     29 FE   UNL d   1      -4.787  -7.691  -3.182 -0.09 +0.00    +0.000 Fe
DOCKED: ENDROOT
DOCKED: BRANCH   6  30
DOCKED: ATOM     30  C   UNL d   1      -2.433 -12.615  -2.201 -0.27 +0.07    +0.052 C 
DOCKED: BRANCH  30  31
DOCKED: ATOM     31  C   UNL d   1      -2.646 -13.008  -0.743 -0.16 +0.15    +0.115 C 
DOCKED: BRANCH  31  32
DOCKED: ATOM     32  C   UNL d   1      -3.800 -13.964  -0.619 -0.13 +0.27    +0.139 C 
DOCKED: ATOM     33  O   UNL d   1      -3.717 -15.102  -1.059 +0.04 -1.45    -0.650 OA
DOCKED: BRANCH  32  34
DOCKED: ATOM     34  O   UNL d   1      -4.938 -13.573  -0.020 -0.11 -1.55    -0.776 OA
DOCKED: ATOM     35  H   UNL d   1      -5.769 -13.625  -0.512 +0.04 +0.30    +0.167 HD
DOCKED: ENDBRANCH  32  34
DOCKED: ENDBRANCH  31  32
DOCKED: ENDBRANCH  30  31
DOCKED: ENDBRANCH   6  30
DOCKED: BRANCH  22  36
DOCKED: ATOM     36  C   UNL d   1      -7.888 -12.241  -2.007 -0.28 +0.04    +0.052 C 
DOCKED: BRANCH  36  37
DOCKED: ATOM     37  C   UNL d   1      -7.183 -13.306  -2.834 -0.10 +0.16    +0.115 C 
DOCKED: BRANCH  37  38
DOCKED: ATOM     38  C   UNL d   1      -7.518 -14.684  -2.338 -0.10 +0.20    +0.139 C 
DOCKED: ATOM     39  O   UNL d   1      -8.552 -15.237  -2.681 -0.01 -0.59    -0.650 OA
DOCKED: BRANCH  38  40
DOCKED: ATOM     40  O   UNL d   1      -6.677 -15.320  -1.503 -0.55 -1.49    -0.776 OA
DOCKED: ATOM     41  H   UNL d   1      -5.859 -14.879  -1.234 +0.03 +0.41    +0.167 HD
DOCKED: ENDBRANCH  38  40
DOCKED: ENDBRANCH  37  38
DOCKED: ENDBRANCH  36  37
DOCKED: ENDBRANCH  22  36
DOCKED: BRANCH  12  42
DOCKED: ATOM     42  C   UNL d   1      -1.786  -2.893  -3.287 -0.46 +0.00    +0.004 C 
DOCKED: ATOM     43  C   UNL d   1      -1.992  -2.187  -4.407 -0.58 +0.00    +0.012 C 
DOCKED: ENDBRANCH  12  42
DOCKED: BRANCH  17  44
DOCKED: ATOM     44  C   UNL d   1      -9.339  -4.940  -4.856 -0.46 +0.00    +0.004 C 
DOCKED: ATOM     45  C   UNL d   1     -10.041  -3.910  -4.372 -0.70 +0.00    +0.012 C 
DOCKED: ENDBRANCH  17  44
DOCKED: TORSDOF 10
DOCKED: TER
DOCKED: ENDMDL
________________________________________________________________________________


	BEGINNING GENETIC ALGORITHM DOCKING 32 of 100
Run: 32 Seed: 1224496902 286165569 [ Run 32 of 100 GA/GALS ]
Beginning LAMARCKIAN GENETIC ALGORITHM (LGA), with a maximum of 25000000 energy evaluations.

Final-Value: -19.530


	FINAL GENETIC ALGORITHM DOCKED STATE
	_______________________________________________


Detailed state:  trans -5.034 -9.434 -3.176 quatxyzw -0.080459 0.013332 0.672474 -0.735614 center -0.174 -0.001 -0.047 ntor 10 -118.6406 -72.2782 69.5535 -104.3856 68.5877 158.4603 -21.7908 76.4134 180.0000 -173.7859
State:	 -5.034  -9.434  -3.176  -0.119  0.020  0.993 -85.282   -118.64  -72.28   69.55 -104.39   68.59  158.46  -21.79   76.41  180.00 -173.79

DOCKED: MODEL       32
DOCKED: USER    Run = 32
DOCKED: USER    DPF = D:/Protein_go_brrr/autodock/final/AncA/heme_Fe/dock.dpf
DOCKED: USER  
DOCKED: USER    Estimated Free Energy of Binding    =  -15.14 kcal/mol  [=(1)+(2)+(3)-(4)]
DOCKED: USER    Estimated Inhibition Constant, Ki   =    8.00 pM (picomolar)  [Temperature = 298.15 K]
DOCKED: USER    
DOCKED: USER    (1) Final Intermolecular Energy     =  -18.12 kcal/mol
DOCKED: USER        vdW + Hbond + desolv Energy     =  -14.64 kcal/mol
DOCKED: USER        Electrostatic Energy            =   -3.48 kcal/mol
DOCKED: USER    (2) Final Total Internal Energy     =   -1.41 kcal/mol
DOCKED: USER    (3) Torsional Free Energy           =   +2.98 kcal/mol
DOCKED: USER    (4) Unbound System's Energy  [=(2)] =   -1.41 kcal/mol
DOCKED: USER    
DOCKED: USER    
DOCKED: USER    NEWDPF move heme_Fe_opt.pdbqt
DOCKED: USER    NEWDPF about -0.174000 -0.001000 -0.047000
DOCKED: USER    NEWDPF tran0 -5.034129 -9.433693 -3.175760
DOCKED: USER    NEWDPF quaternion0 -0.080459 0.013332 0.672474 -0.735614
DOCKED: USER    NEWDPF axisangle0 -0.118777 0.019681 0.992726 -85.281835
DOCKED: USER    NEWDPF quat0 -0.118777 0.019681 0.992726 -85.281835
DOCKED: USER    NEWDPF dihe0 -118.64 -72.28 69.55 -104.39 68.59 158.46 -21.79 76.41 180.00 -173.79 
DOCKED: USER  keepresnum = 1 
DOCKED: USER  
DOCKED: REMARK  10 active torsions:
DOCKED: REMARK  status: ('A' for Active; 'I' for Inactive)
DOCKED: REMARK    1  A    between atoms: C_6  and  C_10 
DOCKED: REMARK    2  A    between atoms: C_10  and  C_11 
DOCKED: REMARK    3  A    between atoms: C_11  and  C_12 
DOCKED: REMARK    4  A    between atoms: C_12  and  O_14 
DOCKED: REMARK    5  A    between atoms: C_17  and  C_20 
DOCKED: REMARK    6  A    between atoms: C_24  and  C_27 
DOCKED: REMARK    7  A    between atoms: C_31  and  C_34 
DOCKED: REMARK    8  A    between atoms: C_34  and  C_35 
DOCKED: REMARK    9  A    between atoms: C_35  and  C_36 
DOCKED: REMARK   10  A    between atoms: C_36  and  O_38 
DOCKED: USER                              x       y       z     vdW  Elec       q    Type
DOCKED: USER                           _______ _______ _______ _____ _____    ______ ____
DOCKED: ROOT
DOCKED: ATOM      1  C   UNL d   1      -5.211 -11.322  -2.392 -0.35 +0.07    +0.064 C 
DOCKED: ATOM      2  C   UNL d   1      -1.550  -8.018  -2.716 -0.43 +0.02    +0.064 A 
DOCKED: ATOM      3  C   UNL d   1      -4.784  -4.646  -3.830 -0.41 +0.01    +0.064 C 
DOCKED: ATOM      4  C   UNL d   1      -8.330  -7.850  -3.625 -0.49 +0.02    +0.064 C 
DOCKED: ATOM      5  C   UNL d   1      -3.871 -10.723  -2.462 -0.34 +0.05    +0.066 A 
DOCKED: ATOM      6  C   UNL d   1      -2.684 -11.420  -2.307 -0.32 -0.02    -0.021 A 
DOCKED: ATOM      7  C   UNL d   1      -1.668 -10.501  -2.394 -0.26 -0.01    -0.025 A 
DOCKED: ATOM      8  C   UNL d   1      -2.275  -9.277  -2.598 -0.38 +0.03    +0.066 A 
DOCKED: ATOM      9  C   UNL d   1      -0.202 -10.795  -2.304 -0.33 +0.02    +0.051 C 
DOCKED: ATOM     10  C   UNL d   1      -2.106  -6.832  -2.970 -0.42 +0.02    +0.066 A 
DOCKED: ATOM     11  C   UNL d   1      -1.399  -5.627  -2.964 -0.46 -0.00    -0.021 A 
DOCKED: ATOM     12  C   UNL d   1      -2.313  -4.637  -3.266 -0.41 +0.00    +0.000 A 
DOCKED: ATOM     13  C   UNL d   1      -3.544  -5.295  -3.434 -0.38 +0.01    +0.070 A 
DOCKED: ATOM     14  C   UNL d   1       0.062  -5.420  -2.619 -0.53 +0.01    +0.052 C 
DOCKED: ATOM     15  C   UNL d   1      -5.982  -5.266  -3.943 -0.39 +0.02    +0.066 A 
DOCKED: ATOM     16  C   UNL d   1      -7.122  -4.633  -4.420 -0.46 -0.00    -0.021 A 
DOCKED: ATOM     17  C   UNL d   1      -8.147  -5.554  -4.358 -0.48 +0.00    +0.000 A 
DOCKED: ATOM     18  C   UNL d   1      -7.608  -6.729  -3.840 -0.42 +0.02    +0.070 A 
DOCKED: ATOM     19  C   UNL d   1      -7.252  -3.209  -4.892 -0.61 +0.01    +0.052 C 
DOCKED: ATOM     20  C   UNL d   1      -7.785  -9.123  -3.139 -0.34 +0.02    +0.066 A 
DOCKED: ATOM     21  C   UNL d   1      -8.546 -10.225  -2.723 -0.33 -0.01    -0.025 A 
DOCKED: ATOM     22  C   UNL d   1      -7.637 -11.207  -2.388 -0.21 -0.01    -0.021 A 
DOCKED: ATOM     23  C   UNL d   1      -6.364 -10.667  -2.606 -0.06 +0.05    +0.066 A 
DOCKED: ATOM     24  C   UNL d   1     -10.049 -10.354  -2.637 -0.46 +0.01    +0.051 C 
DOCKED: ATOM     25  N   UNL d   1      -3.615  -9.416  -2.648 -0.24 -0.12    -0.248 N 
DOCKED: ATOM     26  N   UNL d   1      -3.420  -6.631  -3.246 -0.25 -0.07    -0.248 N 
DOCKED: ATOM     27  N   UNL d   1      -6.268  -6.567  -3.626 -0.21 -0.10    -0.248 N 
DOCKED: ATOM     28  N   UNL d   1      -6.459  -9.381  -3.021 -0.16 -0.12    -0.248 N 
DOCKED: ATOM     29 FE   UNL d   1      -4.942  -8.006  -3.134 -0.09 +0.00    +0.000 Fe
DOCKED: ENDROOT
DOCKED: BRANCH   6  30
DOCKED: ATOM     30  C   UNL d   1      -2.520 -12.888  -2.109 -0.21 +0.08    +0.052 C 
DOCKED: BRANCH  30  31
DOCKED: ATOM     31  C   UNL d   1      -2.518 -13.236  -0.624 -0.14 +0.15    +0.115 C 
DOCKED: BRANCH  31  32
DOCKED: ATOM     32  C   UNL d   1      -2.882 -14.680  -0.422 -0.16 +0.22    +0.139 C 
DOCKED: ATOM     33  O   UNL d   1      -2.123 -15.570  -0.779 -0.02 -0.83    -0.650 OA
DOCKED: BRANCH  32  34
DOCKED: ATOM     34  O   UNL d   1      -4.050 -15.007   0.156 -0.31 -1.68    -0.776 OA
DOCKED: ATOM     35  H   UNL d   1      -4.876 -14.739  -0.271 +0.02 +0.37    +0.167 HD
DOCKED: ENDBRANCH  32  34
DOCKED: ENDBRANCH  31  32
DOCKED: ENDBRANCH  30  31
DOCKED: ENDBRANCH   6  30
DOCKED: BRANCH  22  36
DOCKED: ATOM     36  C   UNL d   1      -7.975 -12.569  -1.843 -0.26 +0.04    +0.052 C 
DOCKED: BRANCH  36  37
DOCKED: ATOM     37  C   UNL d   1      -8.348 -12.456  -0.372 -0.23 +0.09    +0.115 C 
DOCKED: BRANCH  37  38
DOCKED: ATOM     38  C   UNL d   1      -7.232 -12.946   0.506 -0.23 +0.17    +0.139 C 
DOCKED: ATOM     39  O   UNL d   1      -7.153 -12.593   1.673 -0.63 -0.97    -0.650 OA
DOCKED: BRANCH  38  40
DOCKED: ATOM     40  O   UNL d   1      -6.302 -13.780   0.007 -0.15 -1.34    -0.776 OA
DOCKED: ATOM     41  H   UNL d   1      -5.411 -13.444  -0.161 +0.04 +0.31    +0.167 HD
DOCKED: ENDBRANCH  38  40
DOCKED: ENDBRANCH  37  38
DOCKED: ENDBRANCH  36  37
DOCKED: ENDBRANCH  22  36
DOCKED: BRANCH  12  42
DOCKED: ATOM     42  C   UNL d   1      -1.995  -3.178  -3.358 -0.43 +0.00    +0.004 C 
DOCKED: ATOM     43  C   UNL d   1      -2.144  -2.512  -4.510 -0.56 +0.00    +0.012 C 
DOCKED: ENDBRANCH  12  42
DOCKED: BRANCH  17  44
DOCKED: ATOM     44  C   UNL d   1      -9.547  -5.331  -4.786 -0.54 +0.00    +0.004 C 
DOCKED: ATOM     45  C   UNL d   1     -10.230  -4.263  -4.362 -0.64 +0.00    +0.012 C 
DOCKED: ENDBRANCH  17  44
DOCKED: TORSDOF 10
DOCKED: TER
DOCKED: ENDMDL
________________________________________________________________________________


	BEGINNING GENETIC ALGORITHM DOCKING 33 of 100
Run: 33 Seed: 1290065414 21609106 [ Run 33 of 100 GA/GALS ]
Beginning LAMARCKIAN GENETIC ALGORITHM (LGA), with a maximum of 25000000 energy evaluations.

Final-Value: -19.635


	FINAL GENETIC ALGORITHM DOCKED STATE
	_______________________________________________


Detailed state:  trans -4.824 -9.446 -3.156 quatxyzw 0.083045 -0.016036 -0.689388 0.719437 center -0.174 -0.001 -0.047 ntor 10 170.5468 162.4731 65.2883 -104.0636 45.1078 158.9289 -43.4074 83.7759 -156.6749 -153.8053
State:	 -4.824  -9.446  -3.156   0.120 -0.023 -0.993 87.984    170.55  162.47   65.29 -104.06   45.11  158.93  -43.41   83.78 -156.67 -153.81

DOCKED: MODEL       33
DOCKED: USER    Run = 33
DOCKED: USER    DPF = D:/Protein_go_brrr/autodock/final/AncA/heme_Fe/dock.dpf
DOCKED: USER  
DOCKED: USER    Estimated Free Energy of Binding    =  -15.21 kcal/mol  [=(1)+(2)+(3)-(4)]
DOCKED: USER    Estimated Inhibition Constant, Ki   =    7.13 pM (picomolar)  [Temperature = 298.15 K]
DOCKED: USER    
DOCKED: USER    (1) Final Intermolecular Energy     =  -18.19 kcal/mol
DOCKED: USER        vdW + Hbond + desolv Energy     =  -14.48 kcal/mol
DOCKED: USER        Electrostatic Energy            =   -3.71 kcal/mol
DOCKED: USER    (2) Final Total Internal Energy     =   -1.44 kcal/mol
DOCKED: USER    (3) Torsional Free Energy           =   +2.98 kcal/mol
DOCKED: USER    (4) Unbound System's Energy  [=(2)] =   -1.44 kcal/mol
DOCKED: USER    
DOCKED: USER    
DOCKED: USER    NEWDPF move heme_Fe_opt.pdbqt
DOCKED: USER    NEWDPF about -0.174000 -0.001000 -0.047000
DOCKED: USER    NEWDPF tran0 -4.824380 -9.445696 -3.155734
DOCKED: USER    NEWDPF quaternion0 0.083045 -0.016036 -0.689388 0.719437
DOCKED: USER    NEWDPF axisangle0 0.119566 -0.023088 -0.992558 87.983905
DOCKED: USER    NEWDPF quat0 0.119566 -0.023088 -0.992558 87.983905
DOCKED: USER    NEWDPF dihe0 170.55 162.47 65.29 -104.06 45.11 158.93 -43.41 83.78 -156.67 -153.81 
DOCKED: USER  keepresnum = 1 
DOCKED: USER  
DOCKED: REMARK  10 active torsions:
DOCKED: REMARK  status: ('A' for Active; 'I' for Inactive)
DOCKED: REMARK    1  A    between atoms: C_6  and  C_10 
DOCKED: REMARK    2  A    between atoms: C_10  and  C_11 
DOCKED: REMARK    3  A    between atoms: C_11  and  C_12 
DOCKED: REMARK    4  A    between atoms: C_12  and  O_14 
DOCKED: REMARK    5  A    between atoms: C_17  and  C_20 
DOCKED: REMARK    6  A    between atoms: C_24  and  C_27 
DOCKED: REMARK    7  A    between atoms: C_31  and  C_34 
DOCKED: REMARK    8  A    between atoms: C_34  and  C_35 
DOCKED: REMARK    9  A    between atoms: C_35  and  C_36 
DOCKED: REMARK   10  A    between atoms: C_36  and  O_38 
DOCKED: USER                              x       y       z     vdW  Elec       q    Type
DOCKED: USER                           _______ _______ _______ _____ _____    ______ ____
DOCKED: ROOT
DOCKED: ATOM      1  C   UNL d   1      -4.911 -11.332  -2.353 -0.36 +0.07    +0.064 C 
DOCKED: ATOM      2  C   UNL d   1      -1.408  -7.866  -2.723 -0.44 +0.02    +0.064 A 
DOCKED: ATOM      3  C   UNL d   1      -4.798  -4.658  -3.856 -0.42 +0.01    +0.064 C 
DOCKED: ATOM      4  C   UNL d   1      -8.192  -8.021  -3.607 -0.48 +0.02    +0.064 C 
DOCKED: ATOM      5  C   UNL d   1      -3.601 -10.672  -2.434 -0.34 +0.05    +0.066 A 
DOCKED: ATOM      6  C   UNL d   1      -2.382 -11.312  -2.278 -0.32 -0.02    -0.021 A 
DOCKED: ATOM      7  C   UNL d   1      -1.410 -10.348  -2.377 -0.27 -0.01    -0.025 A 
DOCKED: ATOM      8  C   UNL d   1      -2.073  -9.156  -2.590 -0.39 +0.03    +0.066 A 
DOCKED: ATOM      9  C   UNL d   1       0.068 -10.573  -2.289 -0.33 +0.02    +0.051 C 
DOCKED: ATOM     10  C   UNL d   1      -2.019  -6.709  -2.986 -0.42 +0.02    +0.066 A 
DOCKED: ATOM     11  C   UNL d   1      -1.369  -5.473  -2.994 -0.46 -0.00    -0.021 A 
DOCKED: ATOM     12  C   UNL d   1      -2.328  -4.529  -3.302 -0.41 +0.00    +0.000 A 
DOCKED: ATOM     13  C   UNL d   1      -3.528  -5.245  -3.459 -0.38 +0.01    +0.070 A 
DOCKED: ATOM     14  C   UNL d   1       0.082  -5.196  -2.657 -0.57 +0.01    +0.052 C 
DOCKED: ATOM     15  C   UNL d   1      -5.967  -5.334  -3.959 -0.39 +0.02    +0.066 A 
DOCKED: ATOM     16  C   UNL d   1      -7.137  -4.759  -4.437 -0.46 -0.00    -0.021 A 
DOCKED: ATOM     17  C   UNL d   1      -8.118  -5.726  -4.363 -0.48 +0.00    +0.000 A 
DOCKED: ATOM     18  C   UNL d   1      -7.523  -6.870  -3.836 -0.41 +0.02    +0.070 A 
DOCKED: ATOM     19  C   UNL d   1      -7.334  -3.347  -4.922 -0.60 +0.01    +0.052 C 
DOCKED: ATOM     20  C   UNL d   1      -7.586  -9.262  -3.112 -0.29 +0.03    +0.066 A 
DOCKED: ATOM     21  C   UNL d   1      -8.294 -10.394  -2.682 -0.29 -0.01    -0.025 A 
DOCKED: ATOM     22  C   UNL d   1      -7.340 -11.330  -2.341 -0.23 -0.01    -0.021 A 
DOCKED: ATOM     23  C   UNL d   1      -6.093 -10.734  -2.569 -0.11 +0.05    +0.066 A 
DOCKED: ATOM     24  C   UNL d   1      -9.789 -10.592  -2.589 -0.42 +0.02    +0.051 C 
DOCKED: ATOM     25  N   UNL d   1      -3.405  -9.357  -2.634 -0.24 -0.12    -0.248 N 
DOCKED: ATOM     26  N   UNL d   1      -3.342  -6.573  -3.258 -0.25 -0.07    -0.248 N 
DOCKED: ATOM     27  N   UNL d   1      -6.191  -6.644  -3.628 -0.15 -0.11    -0.248 N 
DOCKED: ATOM     28  N   UNL d   1      -6.250  -9.457  -2.996 -0.16 -0.13    -0.248 N 
DOCKED: ATOM     29 FE   UNL d   1      -4.798  -8.015  -3.128 -0.09 +0.00    +0.000 Fe
DOCKED: ENDROOT
DOCKED: BRANCH   6  30
DOCKED: ATOM     30  C   UNL d   1      -2.150 -12.769  -2.066 -0.27 +0.07    +0.052 C 
DOCKED: BRANCH  30  31
DOCKED: ATOM     31  C   UNL d   1      -2.678 -13.209  -0.705 -0.16 +0.15    +0.115 C 
DOCKED: BRANCH  31  32
DOCKED: ATOM     32  C   UNL d   1      -3.415 -14.514  -0.823 -0.06 +0.27    +0.139 C 
DOCKED: ATOM     33  O   UNL d   1      -2.948 -15.437  -1.476 -0.01 -1.32    -0.650 OA
DOCKED: BRANCH  32  34
DOCKED: ATOM     34  O   UNL d   1      -4.599 -14.678  -0.209 -0.44 -1.73    -0.776 OA
DOCKED: ATOM     35  H   UNL d   1      -4.902 -14.004   0.416 +0.03 +0.43    +0.167 HD
DOCKED: ENDBRANCH  32  34
DOCKED: ENDBRANCH  31  32
DOCKED: ENDBRANCH  30  31
DOCKED: ENDBRANCH   6  30
DOCKED: BRANCH  22  36
DOCKED: ATOM     36  C   UNL d   1      -7.612 -12.701  -1.782 -0.26 +0.05    +0.052 C 
DOCKED: BRANCH  36  37
DOCKED: ATOM     37  C   UNL d   1      -8.440 -12.582  -0.511 -0.23 +0.09    +0.115 C 
DOCKED: BRANCH  37  38
DOCKED: ATOM     38  C   UNL d   1      -7.565 -12.636   0.709 -0.19 +0.16    +0.139 C 
DOCKED: ATOM     39  O   UNL d   1      -7.952 -12.186   1.777 -0.63 -0.72    -0.650 OA
DOCKED: BRANCH  38  40
DOCKED: ATOM     40  O   UNL d   1      -6.338 -13.181   0.631 -0.07 -1.34    -0.776 OA
DOCKED: ATOM     41  H   UNL d   1      -6.126 -13.757  -0.117 +0.04 +0.29    +0.167 HD
DOCKED: ENDBRANCH  38  40
DOCKED: ENDBRANCH  37  38
DOCKED: ENDBRANCH  36  37
DOCKED: ENDBRANCH  22  36
DOCKED: BRANCH  12  42
DOCKED: ATOM     42  C   UNL d   1      -2.079  -3.058  -3.409 -0.40 +0.00    +0.004 C 
DOCKED: ATOM     43  C   UNL d   1      -2.180  -2.426  -4.585 -0.57 +0.00    +0.012 C 
DOCKED: ENDBRANCH  12  42
DOCKED: BRANCH  17  44
DOCKED: ATOM     44  C   UNL d   1      -9.528  -5.571  -4.788 -0.51 +0.00    +0.004 C 
DOCKED: ATOM     45  C   UNL d   1     -10.257  -4.529  -4.376 -0.60 +0.00    +0.012 C 
DOCKED: ENDBRANCH  17  44
DOCKED: TORSDOF 10
DOCKED: TER
DOCKED: ENDMDL
________________________________________________________________________________


	BEGINNING GENETIC ALGORITHM DOCKING 34 of 100
Run: 34 Seed: 526520456 106195123 [ Run 34 of 100 GA/GALS ]
Beginning LAMARCKIAN GENETIC ALGORITHM (LGA), with a maximum of 25000000 energy evaluations.

Final-Value: -20.213


	FINAL GENETIC ALGORITHM DOCKED STATE
	_______________________________________________


Detailed state:  trans -4.993 -9.415 -3.172 quatxyzw -0.080700 0.013576 0.678562 -0.729970 center -0.174 -0.001 -0.047 ntor 10 -158.0190 -78.2682 66.9842 -103.5253 47.3741 95.3434 -37.7750 74.4915 -165.3317 -174.6038
State:	 -4.993  -9.415  -3.172  -0.118  0.020  0.993 -86.232   -158.02  -78.27   66.98 -103.53   47.37   95.34  -37.78   74.49 -165.33 -174.60

DOCKED: MODEL       34
DOCKED: USER    Run = 34
DOCKED: USER    DPF = D:/Protein_go_brrr/autodock/final/AncA/heme_Fe/dock.dpf
DOCKED: USER  
DOCKED: USER    Estimated Free Energy of Binding    =  -15.19 kcal/mol  [=(1)+(2)+(3)-(4)]
DOCKED: USER    Estimated Inhibition Constant, Ki   =    7.30 pM (picomolar)  [Temperature = 298.15 K]
DOCKED: USER    
DOCKED: USER    (1) Final Intermolecular Energy     =  -18.18 kcal/mol
DOCKED: USER        vdW + Hbond + desolv Energy     =  -14.25 kcal/mol
DOCKED: USER        Electrostatic Energy            =   -3.93 kcal/mol
DOCKED: USER    (2) Final Total Internal Energy     =   -2.04 kcal/mol
DOCKED: USER    (3) Torsional Free Energy           =   +2.98 kcal/mol
DOCKED: USER    (4) Unbound System's Energy  [=(2)] =   -2.04 kcal/mol
DOCKED: USER    
DOCKED: USER    
DOCKED: USER    NEWDPF move heme_Fe_opt.pdbqt
DOCKED: USER    NEWDPF about -0.174000 -0.001000 -0.047000
DOCKED: USER    NEWDPF tran0 -4.993347 -9.414780 -3.172417
DOCKED: USER    NEWDPF quaternion0 -0.080700 0.013576 0.678562 -0.729970
DOCKED: USER    NEWDPF axisangle0 -0.118072 0.019863 0.992806 -86.232214
DOCKED: USER    NEWDPF quat0 -0.118072 0.019863 0.992806 -86.232214
DOCKED: USER    NEWDPF dihe0 -158.02 -78.27 66.98 -103.53 47.37 95.34 -37.78 74.49 -165.33 -174.60 
DOCKED: USER  keepresnum = 1 
DOCKED: USER  
DOCKED: REMARK  10 active torsions:
DOCKED: REMARK  status: ('A' for Active; 'I' for Inactive)
DOCKED: REMARK    1  A    between atoms: C_6  and  C_10 
DOCKED: REMARK    2  A    between atoms: C_10  and  C_11 
DOCKED: REMARK    3  A    between atoms: C_11  and  C_12 
DOCKED: REMARK    4  A    between atoms: C_12  and  O_14 
DOCKED: REMARK    5  A    between atoms: C_17  and  C_20 
DOCKED: REMARK    6  A    between atoms: C_24  and  C_27 
DOCKED: REMARK    7  A    between atoms: C_31  and  C_34 
DOCKED: REMARK    8  A    between atoms: C_34  and  C_35 
DOCKED: REMARK    9  A    between atoms: C_35  and  C_36 
DOCKED: REMARK   10  A    between atoms: C_36  and  O_38 
DOCKED: USER                              x       y       z     vdW  Elec       q    Type
DOCKED: USER                           _______ _______ _______ _____ _____    ______ ____
DOCKED: ROOT
DOCKED: ATOM      1  C   UNL d   1      -5.138 -11.304  -2.385 -0.35 +0.07    +0.064 C 
DOCKED: ATOM      2  C   UNL d   1      -1.532  -7.941  -2.719 -0.44 +0.02    +0.064 A 
DOCKED: ATOM      3  C   UNL d   1      -4.823  -4.624  -3.834 -0.41 +0.01    +0.064 C 
DOCKED: ATOM      4  C   UNL d   1      -8.316  -7.886  -3.620 -0.49 +0.02    +0.064 C 
DOCKED: ATOM      5  C   UNL d   1      -3.809 -10.683  -2.458 -0.34 +0.05    +0.066 A 
DOCKED: ATOM      6  C   UNL d   1      -2.610 -11.361  -2.304 -0.32 -0.02    -0.021 A 
DOCKED: ATOM      7  C   UNL d   1      -1.609 -10.425  -2.393 -0.27 -0.01    -0.025 A 
DOCKED: ATOM      8  C   UNL d   1      -2.236  -9.211  -2.598 -0.38 +0.03    +0.066 A 
DOCKED: ATOM      9  C   UNL d   1      -0.139 -10.694  -2.304 -0.33 +0.02    +0.051 C 
DOCKED: ATOM     10  C   UNL d   1      -2.108  -6.765  -2.974 -0.42 +0.02    +0.066 A 
DOCKED: ATOM     11  C   UNL d   1      -1.421  -5.548  -2.970 -0.46 -0.00    -0.021 A 
DOCKED: ATOM     12  C   UNL d   1      -2.352  -4.574  -3.272 -0.41 +0.00    +0.000 A 
DOCKED: ATOM     13  C   UNL d   1      -3.572  -5.252  -3.439 -0.38 +0.01    +0.070 A 
DOCKED: ATOM     14  C   UNL d   1       0.036  -5.317  -2.627 -0.55 +0.01    +0.052 C 
DOCKED: ATOM     15  C   UNL d   1      -6.011  -5.265  -3.944 -0.39 +0.02    +0.066 A 
DOCKED: ATOM     16  C   UNL d   1      -7.162  -4.651  -4.421 -0.46 -0.00    -0.021 A 
DOCKED: ATOM     17  C   UNL d   1      -8.172  -5.589  -4.357 -0.48 +0.00    +0.000 A 
DOCKED: ATOM     18  C   UNL d   1      -7.612  -6.754  -3.838 -0.42 +0.02    +0.070 A 
DOCKED: ATOM     19  C   UNL d   1      -7.316  -3.230  -4.894 -0.61 +0.01    +0.052 C 
DOCKED: ATOM     20  C   UNL d   1      -7.748  -9.150  -3.133 -0.33 +0.02    +0.066 A 
DOCKED: ATOM     21  C   UNL d   1      -8.491 -10.263  -2.714 -0.32 -0.01    -0.025 A 
DOCKED: ATOM     22  C   UNL d   1      -7.565 -11.230  -2.379 -0.21 -0.01    -0.021 A 
DOCKED: ATOM     23  C   UNL d   1      -6.302 -10.669  -2.599 -0.06 +0.05    +0.066 A 
DOCKED: ATOM     24  C   UNL d   1      -9.992 -10.417  -2.627 -0.45 +0.01    +0.051 C 
DOCKED: ATOM     25  N   UNL d   1      -3.574  -9.373  -2.647 -0.24 -0.12    -0.248 N 
DOCKED: ATOM     26  N   UNL d   1      -3.426  -6.586  -3.248 -0.25 -0.07    -0.248 N 
DOCKED: ATOM     27  N   UNL d   1      -6.275  -6.570  -3.625 -0.21 -0.10    -0.248 N 
DOCKED: ATOM     28  N   UNL d   1      -6.419  -9.385  -3.016 -0.16 -0.12    -0.248 N 
DOCKED: ATOM     29 FE   UNL d   1      -4.924  -7.986  -3.132 -0.09 +0.00    +0.000 Fe
DOCKED: ENDROOT
DOCKED: BRANCH   6  30
DOCKED: ATOM     30  C   UNL d   1      -2.422 -12.825  -2.104 -0.23 +0.07    +0.052 C 
DOCKED: BRANCH  30  31
DOCKED: ATOM     31  C   UNL d   1      -2.767 -13.224  -0.673 -0.15 +0.16    +0.115 C 
DOCKED: BRANCH  31  32
DOCKED: ATOM     32  C   UNL d   1      -3.458 -14.560  -0.652 -0.15 +0.26    +0.139 C 
DOCKED: ATOM     33  O   UNL d   1      -3.009 -15.504  -1.287 -0.01 -1.26    -0.650 OA
DOCKED: BRANCH  32  34
DOCKED: ATOM     34  O   UNL d   1      -4.579 -14.728   0.069 -0.41 -1.83    -0.776 OA
DOCKED: ATOM     35  H   UNL d   1      -5.109 -13.952   0.301 +0.03 +0.40    +0.167 HD
DOCKED: ENDBRANCH  32  34
DOCKED: ENDBRANCH  31  32
DOCKED: ENDBRANCH  30  31
DOCKED: ENDBRANCH   6  30
DOCKED: BRANCH  22  36
DOCKED: ATOM     36  C   UNL d   1      -7.880 -12.597  -1.832 -0.26 +0.04    +0.052 C 
DOCKED: BRANCH  36  37
DOCKED: ATOM     37  C   UNL d   1      -8.234 -12.490  -0.356 -0.23 +0.09    +0.115 C 
DOCKED: BRANCH  37  38
DOCKED: ATOM     38  C   UNL d   1      -7.118 -13.012   0.504 -0.23 +0.18    +0.139 C 
DOCKED: ATOM     39  O   UNL d   1      -6.283 -12.253   0.973 -0.19 -0.94    -0.650 OA
DOCKED: BRANCH  38  40
DOCKED: ATOM     40  O   UNL d   1      -7.029 -14.329   0.763 -0.09 -1.33    -0.776 OA
DOCKED: ATOM     41  H   UNL d   1      -6.388 -14.862   0.272 +0.03 +0.33    +0.167 HD
DOCKED: ENDBRANCH  38  40
DOCKED: ENDBRANCH  37  38
DOCKED: ENDBRANCH  36  37
DOCKED: ENDBRANCH  22  36
DOCKED: BRANCH  12  42
DOCKED: ATOM     42  C   UNL d   1      -2.058  -3.110  -3.367 -0.40 +0.00    +0.004 C 
DOCKED: ATOM     43  C   UNL d   1      -2.170  -2.459  -4.532 -0.57 +0.00    +0.012 C 
DOCKED: ENDBRANCH  12  42
DOCKED: BRANCH  17  44
DOCKED: ATOM     44  C   UNL d   1      -9.575  -5.389  -4.783 -0.53 +0.00    +0.004 C 
DOCKED: ATOM     45  C   UNL d   1     -10.270  -4.323  -4.374 -0.64 +0.00    +0.012 C 
DOCKED: ENDBRANCH  17  44
DOCKED: TORSDOF 10
DOCKED: TER
DOCKED: ENDMDL
________________________________________________________________________________


	BEGINNING GENETIC ALGORITHM DOCKING 35 of 100
Run: 35 Seed: 623525252 730842350 [ Run 35 of 100 GA/GALS ]
Beginning LAMARCKIAN GENETIC ALGORITHM (LGA), with a maximum of 25000000 energy evaluations.

Final-Value: -14.564


	FINAL GENETIC ALGORITHM DOCKED STATE
	_______________________________________________


Detailed state:  trans -5.958 -11.949 -2.062 quatxyzw 0.120160 -0.038255 -0.713765 0.688939 center -0.174 -0.001 -0.047 ntor 10 93.2420 116.2654 51.2356 54.7590 76.3348 172.2750 50.0035 79.1356 51.1074 -179.9824
State:	 -5.958 -11.949  -2.062   0.166 -0.053 -0.985 92.908     93.24  116.27   51.24   54.76   76.33  172.27   50.00   79.14   51.11 -179.98

DOCKED: MODEL       35
DOCKED: USER    Run = 35
DOCKED: USER    DPF = D:/Protein_go_brrr/autodock/final/AncA/heme_Fe/dock.dpf
DOCKED: USER  
DOCKED: USER    Estimated Free Energy of Binding    =  -11.23 kcal/mol  [=(1)+(2)+(3)-(4)]
DOCKED: USER    Estimated Inhibition Constant, Ki   =    5.83 nM (nanomolar)  [Temperature = 298.15 K]
DOCKED: USER    
DOCKED: USER    (1) Final Intermolecular Energy     =  -14.22 kcal/mol
DOCKED: USER        vdW + Hbond + desolv Energy     =  -10.37 kcal/mol
DOCKED: USER        Electrostatic Energy            =   -3.84 kcal/mol
DOCKED: USER    (2) Final Total Internal Energy     =   -0.35 kcal/mol
DOCKED: USER    (3) Torsional Free Energy           =   +2.98 kcal/mol
DOCKED: USER    (4) Unbound System's Energy  [=(2)] =   -0.35 kcal/mol
DOCKED: USER    
DOCKED: USER    
DOCKED: USER    NEWDPF move heme_Fe_opt.pdbqt
DOCKED: USER    NEWDPF about -0.174000 -0.001000 -0.047000
DOCKED: USER    NEWDPF tran0 -5.958458 -11.949218 -2.061775
DOCKED: USER    NEWDPF quaternion0 0.120160 -0.038255 -0.713765 0.688939
DOCKED: USER    NEWDPF axisangle0 0.165779 -0.052778 -0.984750 92.907624
DOCKED: USER    NEWDPF quat0 0.165779 -0.052778 -0.984750 92.907624
DOCKED: USER    NEWDPF dihe0 93.24 116.27 51.24 54.76 76.33 172.27 50.00 79.14 51.11 -179.98 
DOCKED: USER  keepresnum = 1 
DOCKED: USER  
DOCKED: REMARK  10 active torsions:
DOCKED: REMARK  status: ('A' for Active; 'I' for Inactive)
DOCKED: REMARK    1  A    between atoms: C_6  and  C_10 
DOCKED: REMARK    2  A    between atoms: C_10  and  C_11 
DOCKED: REMARK    3  A    between atoms: C_11  and  C_12 
DOCKED: REMARK    4  A    between atoms: C_12  and  O_14 
DOCKED: REMARK    5  A    between atoms: C_17  and  C_20 
DOCKED: REMARK    6  A    between atoms: C_24  and  C_27 
DOCKED: REMARK    7  A    between atoms: C_31  and  C_34 
DOCKED: REMARK    8  A    between atoms: C_34  and  C_35 
DOCKED: REMARK    9  A    between atoms: C_35  and  C_36 
DOCKED: REMARK   10  A    between atoms: C_36  and  O_38 
DOCKED: USER                              x       y       z     vdW  Elec       q    Type
DOCKED: USER                           _______ _______ _______ _____ _____    ______ ____
DOCKED: ROOT
DOCKED: ATOM      1  C   UNL d   1      -5.920 -13.759  -1.096 -0.11 +0.12    +0.064 C 
DOCKED: ATOM      2  C   UNL d   1      -2.676 -10.085  -1.734 -0.38 +0.03    +0.064 A 
DOCKED: ATOM      3  C   UNL d   1      -6.274  -7.253  -3.184 -0.24 +0.03    +0.064 C 
DOCKED: ATOM      4  C   UNL d   1      -9.414 -10.826  -2.674 -0.37 +0.02    +0.064 C 
DOCKED: ATOM      5  C   UNL d   1      -4.660 -13.013  -1.221 -0.07 +0.13    +0.066 A 
DOCKED: ATOM      6  C   UNL d   1      -3.401 -13.543  -0.995 -0.16 -0.04    -0.021 A 
DOCKED: ATOM      7  C   UNL d   1      -2.501 -12.521  -1.169 -0.26 -0.03    -0.025 A 
DOCKED: ATOM      8  C   UNL d   1      -3.247 -11.405  -1.494 -0.31 +0.06    +0.066 A 
DOCKED: ATOM      9  C   UNL d   1      -1.012 -12.626  -1.046 -0.26 +0.04    +0.051 C 
DOCKED: ATOM     10  C   UNL d   1      -3.366  -9.006  -2.105 -0.41 +0.03    +0.066 A 
DOCKED: ATOM     11  C   UNL d   1      -2.809  -7.729  -2.216 -0.42 -0.01    -0.021 A 
DOCKED: ATOM     12  C   UNL d   1      -3.830  -6.891  -2.616 -0.35 +0.00    +0.000 A 
DOCKED: ATOM     13  C   UNL d   1      -4.971  -7.706  -2.723 -0.24 +0.03    +0.070 A 
DOCKED: ATOM     14  C   UNL d   1      -1.389  -7.315  -1.889 -0.13 +0.01    +0.052 C 
DOCKED: ATOM     15  C   UNL d   1      -7.387  -8.021  -3.239 -0.37 +0.02    +0.066 A 
DOCKED: ATOM     16  C   UNL d   1      -8.588  -7.579  -3.779 -0.46 -0.01    -0.021 A 
DOCKED: ATOM     17  C   UNL d   1      -9.496  -8.607  -3.630 -0.50 +0.00    +0.000 A 
DOCKED: ATOM     18  C   UNL d   1      -8.827  -9.653  -2.997 -0.36 +0.02    +0.070 A 
DOCKED: ATOM     19  C   UNL d   1      -8.881  -6.235  -4.389 -0.49 +0.01    +0.052 C 
DOCKED: ATOM     20  C   UNL d   1      -8.726 -11.971  -2.064 -0.24 +0.04    +0.066 A 
DOCKED: ATOM     21  C   UNL d   1      -9.356 -13.110  -1.543 -0.20 -0.01    -0.025 A 
DOCKED: ATOM     22  C   UNL d   1      -8.341 -13.938  -1.111 -0.15 -0.02    -0.021 A 
DOCKED: ATOM     23  C   UNL d   1      -7.139 -13.272  -1.377 -0.20 +0.08    +0.066 A 
DOCKED: ATOM     24  C   UNL d   1     -10.834 -13.411  -1.450 -0.12 +0.02    +0.051 C 
DOCKED: ATOM     25  N   UNL d   1      -4.559 -11.709  -1.535 -0.20 -0.29    -0.248 N 
DOCKED: ATOM     26  N   UNL d   1      -4.691  -8.993  -2.403 -0.22 -0.12    -0.248 N 
DOCKED: ATOM     27  N   UNL d   1      -7.520  -9.310  -2.796 -0.10 -0.10    -0.248 N 
DOCKED: ATOM     28  N   UNL d   1      -7.382 -12.054  -1.917 -0.17 -0.21    -0.248 N 
DOCKED: ATOM     29 FE   UNL d   1      -6.038 -10.523  -2.160 -0.07 +0.00    +0.000 Fe
DOCKED: ENDROOT
DOCKED: BRANCH   6  30
DOCKED: ATOM     30  C   UNL d   1      -3.065 -14.954  -0.653 -0.18 +0.09    +0.052 C 
DOCKED: BRANCH  30  31
DOCKED: ATOM     31  C   UNL d   1      -1.802 -15.401  -1.381 -0.12 +0.15    +0.115 C 
DOCKED: BRANCH  31  32
DOCKED: ATOM     32  C   UNL d   1      -2.033 -16.715  -2.075 -0.07 +0.18    +0.139 C 
DOCKED: ATOM     33  O   UNL d   1      -2.671 -16.766  -3.117 -0.47 -1.36    -0.650 OA
DOCKED: BRANCH  32  34
DOCKED: ATOM     34  O   UNL d   1      -1.536 -17.850  -1.554 +0.03 -0.62    -0.776 OA
DOCKED: ATOM     35  H   UNL d   1      -0.632 -18.113  -1.778 +0.01 +0.11    +0.167 HD
DOCKED: ENDBRANCH  32  34
DOCKED: ENDBRANCH  31  32
DOCKED: ENDBRANCH  30  31
DOCKED: ENDBRANCH   6  30
DOCKED: BRANCH  22  36
DOCKED: ATOM     36  C   UNL d   1      -8.522 -15.272  -0.435 -0.08 +0.04    +0.052 C 
DOCKED: BRANCH  36  37
DOCKED: ATOM     37  C   UNL d   1      -8.777 -15.064   1.051 -0.08 +0.10    +0.115 C 
DOCKED: BRANCH  37  38
DOCKED: ATOM     38  C   UNL d   1      -7.535 -15.333   1.853 +0.02 +0.22    +0.139 C 
DOCKED: ATOM     39  O   UNL d   1      -7.497 -15.085   3.049 +0.07 -1.17    -0.650 OA
DOCKED: BRANCH  38  40
DOCKED: ATOM     40  O   UNL d   1      -6.447 -15.850   1.253 -0.01 -1.69    -0.776 OA
DOCKED: ATOM     41  H   UNL d   1      -6.498 -16.738   0.872 +0.01 +0.23    +0.167 HD
DOCKED: ENDBRANCH  38  40
DOCKED: ENDBRANCH  37  38
DOCKED: ENDBRANCH  36  37
DOCKED: ENDBRANCH  22  36
DOCKED: BRANCH  12  42
DOCKED: ATOM     42  C   UNL d   1      -3.688  -5.421  -2.851 -0.42 +0.00    +0.004 C 
DOCKED: ATOM     43  C   UNL d   1      -3.536  -4.931  -4.088 -0.49 +0.00    +0.012 C 
DOCKED: ENDBRANCH  12  42
DOCKED: BRANCH  17  44
DOCKED: ATOM     44  C   UNL d   1     -10.906  -8.597  -4.082 -0.45 +0.00    +0.004 C 
DOCKED: ATOM     45  C   UNL d   1     -11.296  -9.340  -5.122 -0.58 +0.00    +0.012 C 
DOCKED: ENDBRANCH  17  44
DOCKED: TORSDOF 10
DOCKED: TER
DOCKED: ENDMDL
________________________________________________________________________________


	BEGINNING GENETIC ALGORITHM DOCKING 36 of 100
Run: 36 Seed: 734484366 2091446631 [ Run 36 of 100 GA/GALS ]
Beginning LAMARCKIAN GENETIC ALGORITHM (LGA), with a maximum of 25000000 energy evaluations.

Final-Value: -19.286


	FINAL GENETIC ALGORITHM DOCKED STATE
	_______________________________________________


Detailed state:  trans -4.810 -9.369 -2.355 quatxyzw 0.679755 0.712963 -0.086829 -0.148589 center -0.174 -0.001 -0.047 ntor 10 151.6422 -18.8469 66.2598 -137.7205 -179.3267 62.4322 -37.5988 -56.6325 159.2871 10.5574
State:	 -4.810  -9.369  -2.355   0.687  0.721 -0.088 -162.910    151.64  -18.85   66.26 -137.72 -179.33   62.43  -37.60  -56.63  159.29   10.56

DOCKED: MODEL       36
DOCKED: USER    Run = 36
DOCKED: USER    DPF = D:/Protein_go_brrr/autodock/final/AncA/heme_Fe/dock.dpf
DOCKED: USER  
DOCKED: USER    Estimated Free Energy of Binding    =  -14.75 kcal/mol  [=(1)+(2)+(3)-(4)]
DOCKED: USER    Estimated Inhibition Constant, Ki   =   15.33 pM (picomolar)  [Temperature = 298.15 K]
DOCKED: USER    
DOCKED: USER    (1) Final Intermolecular Energy     =  -17.74 kcal/mol
DOCKED: USER        vdW + Hbond + desolv Energy     =  -13.76 kcal/mol
DOCKED: USER        Electrostatic Energy            =   -3.98 kcal/mol
DOCKED: USER    (2) Final Total Internal Energy     =   -1.55 kcal/mol
DOCKED: USER    (3) Torsional Free Energy           =   +2.98 kcal/mol
DOCKED: USER    (4) Unbound System's Energy  [=(2)] =   -1.55 kcal/mol
DOCKED: USER    
DOCKED: USER    
DOCKED: USER    NEWDPF move heme_Fe_opt.pdbqt
DOCKED: USER    NEWDPF about -0.174000 -0.001000 -0.047000
DOCKED: USER    NEWDPF tran0 -4.809798 -9.369259 -2.354882
DOCKED: USER    NEWDPF quaternion0 0.679755 0.712963 -0.086829 -0.148589
DOCKED: USER    NEWDPF axisangle0 0.687385 0.720966 -0.087804 -162.909684
DOCKED: USER    NEWDPF quat0 0.687385 0.720966 -0.087804 -162.909684
DOCKED: USER    NEWDPF dihe0 151.64 -18.85 66.26 -137.72 -179.33 62.43 -37.60 -56.63 159.29 10.56 
DOCKED: USER  keepresnum = 1 
DOCKED: USER  
DOCKED: REMARK  10 active torsions:
DOCKED: REMARK  status: ('A' for Active; 'I' for Inactive)
DOCKED: REMARK    1  A    between atoms: C_6  and  C_10 
DOCKED: REMARK    2  A    between atoms: C_10  and  C_11 
DOCKED: REMARK    3  A    between atoms: C_11  and  C_12 
DOCKED: REMARK    4  A    between atoms: C_12  and  O_14 
DOCKED: REMARK    5  A    between atoms: C_17  and  C_20 
DOCKED: REMARK    6  A    between atoms: C_24  and  C_27 
DOCKED: REMARK    7  A    between atoms: C_31  and  C_34 
DOCKED: REMARK    8  A    between atoms: C_34  and  C_35 
DOCKED: REMARK    9  A    between atoms: C_35  and  C_36 
DOCKED: REMARK   10  A    between atoms: C_36  and  O_38 
DOCKED: USER                              x       y       z     vdW  Elec       q    Type
DOCKED: USER                           _______ _______ _______ _____ _____    ______ ____
DOCKED: ROOT
DOCKED: ATOM      1  C   UNL d   1      -4.756 -11.415  -2.206 -0.35 +0.07    +0.064 C 
DOCKED: ATOM      2  C   UNL d   1      -8.198  -8.109  -3.489 -0.42 +0.02    +0.064 A 
DOCKED: ATOM      3  C   UNL d   1      -4.753  -4.791  -3.919 -0.44 +0.01    +0.064 C 
DOCKED: ATOM      4  C   UNL d   1      -1.418  -7.948  -2.578 -0.50 +0.02    +0.064 C 
DOCKED: ATOM      5  C   UNL d   1      -6.055 -10.771  -2.446 -0.05 +0.05    +0.066 A 
DOCKED: ATOM      6  C   UNL d   1      -7.284 -11.393  -2.303 -0.24 -0.02    -0.021 A 
DOCKED: ATOM      7  C   UNL d   1      -8.239 -10.475  -2.663 -0.27 -0.01    -0.025 A 
DOCKED: ATOM      8  C   UNL d   1      -7.555  -9.327  -3.012 -0.18 +0.03    +0.066 A 
DOCKED: ATOM      9  C   UNL d   1      -9.722 -10.692  -2.649 -0.40 +0.02    +0.051 C 
DOCKED: ATOM     10  C   UNL d   1      -7.567  -6.969  -3.778 -0.42 +0.02    +0.066 A 
DOCKED: ATOM     11  C   UNL d   1      -8.196  -5.856  -4.341 -0.46 -0.00    -0.021 A 
DOCKED: ATOM     12  C   UNL d   1      -7.220  -4.891  -4.491 -0.48 +0.00    +0.000 A 
DOCKED: ATOM     13  C   UNL d   1      -6.033  -5.474  -4.014 -0.38 +0.02    +0.070 A 
DOCKED: ATOM     14  C   UNL d   1      -9.642  -5.741  -4.779 -0.43 +0.01    +0.052 C 
DOCKED: ATOM     15  C   UNL d   1      -3.596  -5.363  -3.510 -0.38 +0.01    +0.066 A 
DOCKED: ATOM     16  C   UNL d   1      -2.416  -4.651  -3.338 -0.40 -0.00    -0.021 A 
DOCKED: ATOM     17  C   UNL d   1      -1.452  -5.560  -2.954 -0.47 +0.00    +0.000 A 
DOCKED: ATOM     18  C   UNL d   1      -2.067  -6.809  -2.905 -0.42 +0.02    +0.070 A 
DOCKED: ATOM     19  C   UNL d   1      -2.194  -3.177  -3.550 -0.37 +0.01    +0.052 C 
DOCKED: ATOM     20  C   UNL d   1      -2.045  -9.269  -2.456 -0.39 +0.03    +0.066 A 
DOCKED: ATOM     21  C   UNL d   1      -1.357 -10.483  -2.316 -0.30 -0.01    -0.025 A 
DOCKED: ATOM     22  C   UNL d   1      -2.328 -11.456  -2.199 -0.31 -0.02    -0.021 A 
DOCKED: ATOM     23  C   UNL d   1      -3.564 -10.803  -2.278 -0.33 +0.05    +0.066 A 
DOCKED: ATOM     24  C   UNL d   1       0.134 -10.725  -2.296 -0.32 +0.02    +0.051 C 
DOCKED: ATOM     25  N   UNL d   1      -6.227  -9.507  -2.870 -0.11 -0.13    -0.248 N 
DOCKED: ATOM     26  N   UNL d   1      -6.242  -6.744  -3.588 -0.18 -0.11    -0.248 N 
DOCKED: ATOM     27  N   UNL d   1      -3.395  -6.683  -3.204 -0.25 -0.07    -0.248 N 
DOCKED: ATOM     28  N   UNL d   1      -3.385  -9.474  -2.480 -0.24 -0.12    -0.248 N 
DOCKED: ATOM     29 FE   UNL d   1      -4.811  -8.109  -3.034 -0.09 +0.00    +0.000 Fe
DOCKED: ENDROOT
DOCKED: BRANCH   6  30
DOCKED: ATOM     30  C   UNL d   1      -7.542 -12.782  -1.827 -0.26 +0.05    +0.052 C 
DOCKED: BRANCH  30  31
DOCKED: ATOM     31  C   UNL d   1      -8.072 -13.652  -2.962 +0.06 +0.12    +0.115 C 
DOCKED: BRANCH  31  32
DOCKED: ATOM     32  C   UNL d   1      -7.511 -15.043  -2.864 +0.01 +0.22    +0.139 C 
DOCKED: ATOM     33  O   UNL d   1      -7.807 -15.894  -3.691 -0.05 -0.80    -0.650 OA
DOCKED: BRANCH  32  34
DOCKED: ATOM     34  O   UNL d   1      -6.675 -15.365  -1.862 -0.52 -1.68    -0.776 OA
DOCKED: ATOM     35  H   UNL d   1      -6.122 -14.673  -1.472 +0.03 +0.41    +0.167 HD
DOCKED: ENDBRANCH  32  34
DOCKED: ENDBRANCH  31  32
DOCKED: ENDBRANCH  30  31
DOCKED: ENDBRANCH   6  30
DOCKED: BRANCH  22  36
DOCKED: ATOM     36  C   UNL d   1      -2.079 -12.935  -2.068 -0.26 +0.07    +0.052 C 
DOCKED: BRANCH  36  37
DOCKED: ATOM     37  C   UNL d   1      -2.388 -13.384  -0.647 -0.18 +0.15    +0.115 C 
DOCKED: BRANCH  37  38
DOCKED: ATOM     38  C   UNL d   1      -3.430 -14.467  -0.638 -0.16 +0.26    +0.139 C 
DOCKED: ATOM     39  O   UNL d   1      -3.219 -15.542  -1.179 +0.01 -1.29    -0.650 OA
DOCKED: BRANCH  38  40
DOCKED: ATOM     40  O   UNL d   1      -4.612 -14.255  -0.033 -0.30 -1.75    -0.776 OA
DOCKED: ATOM     41  H   UNL d   1      -5.364 -14.820  -0.261 +0.02 +0.36    +0.167 HD
DOCKED: ENDBRANCH  38  40
DOCKED: ENDBRANCH  37  38
DOCKED: ENDBRANCH  36  37
DOCKED: ENDBRANCH  22  36
DOCKED: BRANCH  12  42
DOCKED: ATOM     42  C   UNL d   1      -7.443  -3.530  -5.069 -0.64 +0.00    +0.004 C 
DOCKED: ATOM     43  C   UNL d   1      -7.312  -2.431  -4.316 -0.67 +0.00    +0.012 C 
DOCKED: ENDBRANCH  12  42
DOCKED: BRANCH  17  44
DOCKED: ATOM     44  C   UNL d   1      -0.040  -5.251  -2.636 -0.60 +0.00    +0.004 C 
DOCKED: ATOM     45  C   UNL d   1       0.875  -5.153  -3.606 -0.64 +0.00    +0.012 C 
DOCKED: ENDBRANCH  17  44
DOCKED: TORSDOF 10
DOCKED: TER
DOCKED: ENDMDL
________________________________________________________________________________


	BEGINNING GENETIC ALGORITHM DOCKING 37 of 100
Run: 37 Seed: 738294883 542872179 [ Run 37 of 100 GA/GALS ]
Beginning LAMARCKIAN GENETIC ALGORITHM (LGA), with a maximum of 25000000 energy evaluations.

Final-Value: -18.938


	FINAL GENETIC ALGORITHM DOCKED STATE
	_______________________________________________


Detailed state:  trans -4.776 -9.332 -2.412 quatxyzw -0.685800 -0.711600 0.060385 0.140208 center -0.174 -0.001 -0.047 ntor 10 63.2946 33.1747 50.7506 -139.6459 180.0000 -125.7702 39.3686 -4.0862 -20.5577 -170.6711
State:	 -4.776  -9.332  -2.412  -0.693 -0.719  0.061 163.880     63.29   33.17   50.75 -139.65  180.00 -125.77   39.37   -4.09  -20.56 -170.67

DOCKED: MODEL       37
DOCKED: USER    Run = 37
DOCKED: USER    DPF = D:/Protein_go_brrr/autodock/final/AncA/heme_Fe/dock.dpf
DOCKED: USER  
DOCKED: USER    Estimated Free Energy of Binding    =  -15.54 kcal/mol  [=(1)+(2)+(3)-(4)]
DOCKED: USER    Estimated Inhibition Constant, Ki   =    4.04 pM (picomolar)  [Temperature = 298.15 K]
DOCKED: USER    
DOCKED: USER    (1) Final Intermolecular Energy     =  -18.53 kcal/mol
DOCKED: USER        vdW + Hbond + desolv Energy     =  -14.27 kcal/mol
DOCKED: USER        Electrostatic Energy            =   -4.25 kcal/mol
DOCKED: USER    (2) Final Total Internal Energy     =   -0.41 kcal/mol
DOCKED: USER    (3) Torsional Free Energy           =   +2.98 kcal/mol
DOCKED: USER    (4) Unbound System's Energy  [=(2)] =   -0.41 kcal/mol
DOCKED: USER    
DOCKED: USER    
DOCKED: USER    NEWDPF move heme_Fe_opt.pdbqt
DOCKED: USER    NEWDPF about -0.174000 -0.001000 -0.047000
DOCKED: USER    NEWDPF tran0 -4.775633 -9.331968 -2.411952
DOCKED: USER    NEWDPF quaternion0 -0.685800 -0.711600 0.060385 0.140208
DOCKED: USER    NEWDPF axisangle0 -0.692642 -0.718699 0.060988 163.880213
DOCKED: USER    NEWDPF quat0 -0.692642 -0.718699 0.060988 163.880213
DOCKED: USER    NEWDPF dihe0 63.29 33.17 50.75 -139.65 180.00 -125.77 39.37 -4.09 -20.56 -170.67 
DOCKED: USER  keepresnum = 1 
DOCKED: USER  
DOCKED: REMARK  10 active torsions:
DOCKED: REMARK  status: ('A' for Active; 'I' for Inactive)
DOCKED: REMARK    1  A    between atoms: C_6  and  C_10 
DOCKED: REMARK    2  A    between atoms: C_10  and  C_11 
DOCKED: REMARK    3  A    between atoms: C_11  and  C_12 
DOCKED: REMARK    4  A    between atoms: C_12  and  O_14 
DOCKED: REMARK    5  A    between atoms: C_17  and  C_20 
DOCKED: REMARK    6  A    between atoms: C_24  and  C_27 
DOCKED: REMARK    7  A    between atoms: C_31  and  C_34 
DOCKED: REMARK    8  A    between atoms: C_34  and  C_35 
DOCKED: REMARK    9  A    between atoms: C_35  and  C_36 
DOCKED: REMARK   10  A    between atoms: C_36  and  O_38 
DOCKED: USER                              x       y       z     vdW  Elec       q    Type
DOCKED: USER                           _______ _______ _______ _____ _____    ______ ____
DOCKED: ROOT
DOCKED: ATOM      1  C   UNL d   1      -4.732 -11.383  -2.366 -0.36 +0.07    +0.064 C 
DOCKED: ATOM      2  C   UNL d   1      -8.130  -8.000  -3.566 -0.42 +0.02    +0.064 A 
DOCKED: ATOM      3  C   UNL d   1      -4.663  -4.680  -3.740 -0.41 +0.01    +0.064 C 
DOCKED: ATOM      4  C   UNL d   1      -1.374  -7.917  -2.477 -0.51 +0.02    +0.064 C 
DOCKED: ATOM      5  C   UNL d   1      -6.022 -10.722  -2.606 -0.16 +0.05    +0.066 A 
DOCKED: ATOM      6  C   UNL d   1      -7.257 -11.344  -2.525 -0.21 -0.02    -0.021 A 
DOCKED: ATOM      7  C   UNL d   1      -8.200 -10.405  -2.862 -0.24 -0.01    -0.025 A 
DOCKED: ATOM      8  C   UNL d   1      -7.503  -9.243  -3.136 -0.30 +0.03    +0.066 A 
DOCKED: ATOM      9  C   UNL d   1      -9.683 -10.615  -2.897 -0.40 +0.02    +0.051 C 
DOCKED: ATOM     10  C   UNL d   1      -7.487  -6.850  -3.781 -0.42 +0.02    +0.066 A 
DOCKED: ATOM     11  C   UNL d   1      -8.098  -5.707  -4.302 -0.46 -0.00    -0.021 A 
DOCKED: ATOM     12  C   UNL d   1      -7.115  -4.740  -4.378 -0.47 +0.00    +0.000 A 
DOCKED: ATOM     13  C   UNL d   1      -5.943  -5.352  -3.902 -0.39 +0.02    +0.070 A 
DOCKED: ATOM     14  C   UNL d   1      -9.531  -5.563  -4.771 -0.47 +0.01    +0.052 C 
DOCKED: ATOM     15  C   UNL d   1      -3.519  -5.278  -3.331 -0.38 +0.01    +0.066 A 
DOCKED: ATOM     16  C   UNL d   1      -2.341  -4.581  -3.093 -0.38 -0.00    -0.021 A 
DOCKED: ATOM     17  C   UNL d   1      -1.391  -5.513  -2.732 -0.46 +0.00    +0.000 A 
DOCKED: ATOM     18  C   UNL d   1      -2.011  -6.760  -2.762 -0.42 +0.02    +0.070 A 
DOCKED: ATOM     19  C   UNL d   1      -2.109  -3.100  -3.225 -0.31 +0.01    +0.052 C 
DOCKED: ATOM     20  C   UNL d   1      -2.009  -9.240  -2.438 -0.39 +0.03    +0.066 A 
DOCKED: ATOM     21  C   UNL d   1      -1.329 -10.462  -2.342 -0.28 -0.01    -0.025 A 
DOCKED: ATOM     22  C   UNL d   1      -2.306 -11.436  -2.299 -0.31 -0.02    -0.021 A 
DOCKED: ATOM     23  C   UNL d   1      -3.537 -10.773  -2.377 -0.33 +0.05    +0.066 A 
DOCKED: ATOM     24  C   UNL d   1       0.161 -10.712  -2.296 -0.32 +0.02    +0.051 C 
DOCKED: ATOM     25  N   UNL d   1      -6.180  -9.437  -2.970 -0.16 -0.13    -0.248 N 
DOCKED: ATOM     26  N   UNL d   1      -6.167  -6.641  -3.546 -0.20 -0.11    -0.248 N 
DOCKED: ATOM     27  N   UNL d   1      -3.330  -6.612  -3.087 -0.25 -0.07    -0.248 N 
DOCKED: ATOM     28  N   UNL d   1      -3.348  -9.437  -2.506 -0.25 -0.12    -0.248 N 
DOCKED: ATOM     29 FE   UNL d   1      -4.755  -8.039  -3.026 -0.09 +0.00    +0.000 Fe
DOCKED: ENDROOT
DOCKED: BRANCH   6  30
DOCKED: ATOM     30  C   UNL d   1      -7.532 -12.754  -2.127 -0.26 +0.05    +0.052 C 
DOCKED: BRANCH  30  31
DOCKED: ATOM     31  C   UNL d   1      -7.231 -12.966  -0.648 -0.22 +0.13    +0.115 C 
DOCKED: BRANCH  31  32
DOCKED: ATOM     32  C   UNL d   1      -6.581 -14.304  -0.430 -0.16 +0.23    +0.139 C 
DOCKED: ATOM     33  O   UNL d   1      -6.259 -14.665   0.693 -0.13 -1.59    -0.650 OA
DOCKED: BRANCH  32  34
DOCKED: ATOM     34  O   UNL d   1      -6.348 -15.119  -1.473 -0.48 -1.76    -0.776 OA
DOCKED: ATOM     35  H   UNL d   1      -6.795 -15.976  -1.508 +0.02 +0.27    +0.167 HD
DOCKED: ENDBRANCH  32  34
DOCKED: ENDBRANCH  31  32
DOCKED: ENDBRANCH  30  31
DOCKED: ENDBRANCH   6  30
DOCKED: BRANCH  22  36
DOCKED: ATOM     36  C   UNL d   1      -2.065 -12.921  -2.237 -0.26 +0.07    +0.052 C 
DOCKED: BRANCH  36  37
DOCKED: ATOM     37  C   UNL d   1      -1.584 -13.420  -3.591 -0.17 +0.15    +0.115 C 
DOCKED: BRANCH  37  38
DOCKED: ATOM     38  C   UNL d   1      -1.221 -14.877  -3.530 -0.16 +0.18    +0.139 C 
DOCKED: ATOM     39  O   UNL d   1      -0.120 -15.263  -3.893 +0.02 -0.51    -0.650 OA
DOCKED: BRANCH  38  40
DOCKED: ATOM     40  O   UNL d   1      -2.115 -15.773  -3.076 -0.29 -1.60    -0.776 OA
DOCKED: ATOM     41  H   UNL d   1      -1.799 -16.550  -2.595 +0.02 +0.23    +0.167 HD
DOCKED: ENDBRANCH  38  40
DOCKED: ENDBRANCH  37  38
DOCKED: ENDBRANCH  36  37
DOCKED: ENDBRANCH  22  36
DOCKED: BRANCH  12  42
DOCKED: ATOM     42  C   UNL d   1      -7.319  -3.351  -4.893 -0.64 +0.00    +0.004 C 
DOCKED: ATOM     43  C   UNL d   1      -7.510  -2.326  -4.052 -0.66 +0.00    +0.012 C 
DOCKED: ENDBRANCH  12  42
DOCKED: BRANCH  17  44
DOCKED: ATOM     44  C   UNL d   1       0.014  -5.227  -2.363 -0.50 +0.00    +0.004 C 
DOCKED: ATOM     45  C   UNL d   1       0.961  -5.122  -3.301 -0.63 +0.00    +0.012 C 
DOCKED: ENDBRANCH  17  44
DOCKED: TORSDOF 10
DOCKED: TER
DOCKED: ENDMDL
________________________________________________________________________________


	BEGINNING GENETIC ALGORITHM DOCKING 38 of 100
Run: 38 Seed: 927944397 239439536 [ Run 38 of 100 GA/GALS ]
Beginning LAMARCKIAN GENETIC ALGORITHM (LGA), with a maximum of 25000000 energy evaluations.

Final-Value: -10.381


	FINAL GENETIC ALGORITHM DOCKED STATE
	_______________________________________________


Detailed state:  trans -4.920 3.650 -14.781 quatxyzw -0.166831 -0.097540 0.783156 0.591033 center -0.174 -0.001 -0.047 ntor 10 -6.8981 141.3008 92.3416 50.5461 85.6928 97.6404 29.8532 -60.8478 178.4118 9.5989
State:	 -4.920   3.650 -14.781  -0.207 -0.121  0.971 107.539     -6.90  141.30   92.34   50.55   85.69   97.64   29.85  -60.85  178.41    9.60

DOCKED: MODEL       38
DOCKED: USER    Run = 38
DOCKED: USER    DPF = D:/Protein_go_brrr/autodock/final/AncA/heme_Fe/dock.dpf
DOCKED: USER  
DOCKED: USER    Estimated Free Energy of Binding    =   -6.92 kcal/mol  [=(1)+(2)+(3)-(4)]
DOCKED: USER    Estimated Inhibition Constant, Ki   =    8.52 uM (micromolar)  [Temperature = 298.15 K]
DOCKED: USER    
DOCKED: USER    (1) Final Intermolecular Energy     =   -9.90 kcal/mol
DOCKED: USER        vdW + Hbond + desolv Energy     =   -7.25 kcal/mol
DOCKED: USER        Electrostatic Energy            =   -2.65 kcal/mol
DOCKED: USER    (2) Final Total Internal Energy     =   -0.48 kcal/mol
DOCKED: USER    (3) Torsional Free Energy           =   +2.98 kcal/mol
DOCKED: USER    (4) Unbound System's Energy  [=(2)] =   -0.48 kcal/mol
DOCKED: USER    
DOCKED: USER    
DOCKED: USER    NEWDPF move heme_Fe_opt.pdbqt
DOCKED: USER    NEWDPF about -0.174000 -0.001000 -0.047000
DOCKED: USER    NEWDPF tran0 -4.919745 3.649740 -14.780749
DOCKED: USER    NEWDPF quaternion0 -0.166831 -0.097540 0.783156 0.591033
DOCKED: USER    NEWDPF axisangle0 -0.206820 -0.120920 0.970878 107.539349
DOCKED: USER    NEWDPF quat0 -0.206820 -0.120920 0.970878 107.539349
DOCKED: USER    NEWDPF dihe0 -6.90 141.30 92.34 50.55 85.69 97.64 29.85 -60.85 178.41 9.60 
DOCKED: USER  keepresnum = 1 
DOCKED: USER  
DOCKED: REMARK  10 active torsions:
DOCKED: REMARK  status: ('A' for Active; 'I' for Inactive)
DOCKED: REMARK    1  A    between atoms: C_6  and  C_10 
DOCKED: REMARK    2  A    between atoms: C_10  and  C_11 
DOCKED: REMARK    3  A    between atoms: C_11  and  C_12 
DOCKED: REMARK    4  A    between atoms: C_12  and  O_14 
DOCKED: REMARK    5  A    between atoms: C_17  and  C_20 
DOCKED: REMARK    6  A    between atoms: C_24  and  C_27 
DOCKED: REMARK    7  A    between atoms: C_31  and  C_34 
DOCKED: REMARK    8  A    between atoms: C_34  and  C_35 
DOCKED: REMARK    9  A    between atoms: C_35  and  C_36 
DOCKED: REMARK   10  A    between atoms: C_36  and  O_38 
DOCKED: USER                              x       y       z     vdW  Elec       q    Type
DOCKED: USER                           _______ _______ _______ _____ _____    ______ ____
DOCKED: ROOT
DOCKED: ATOM      1  C   UNL d   1      -4.567   5.250 -13.545 -0.13 +0.02    +0.064 C 
DOCKED: ATOM      2  C   UNL d   1      -8.622   2.994 -15.248 -0.18 -0.01    +0.064 A 
DOCKED: ATOM      3  C   UNL d   1      -5.901  -0.723 -16.606 -0.16 -0.00    +0.064 C 
DOCKED: ATOM      4  C   UNL d   1      -1.950   1.487 -15.060 -0.24 -0.00    +0.064 C 
DOCKED: ATOM      5  C   UNL d   1      -5.950   4.996 -13.974 -0.13 +0.01    +0.066 A 
DOCKED: ATOM      6  C   UNL d   1      -6.994   5.897 -13.850 -0.14 -0.01    -0.021 A 
DOCKED: ATOM      7  C   UNL d   1      -8.121   5.268 -14.319 +0.03 -0.01    -0.025 A 
DOCKED: ATOM      8  C   UNL d   1      -7.720   4.006 -14.713 -0.16 +0.01    +0.066 A 
DOCKED: ATOM      9  C   UNL d   1      -9.494   5.861 -14.399 -0.07 +0.00    +0.051 C 
DOCKED: ATOM     10  C   UNL d   1      -8.252   1.791 -15.688 -0.19 -0.01    +0.066 A 
DOCKED: ATOM     11  C   UNL d   1      -9.154   0.801 -16.088 -0.23 +0.01    -0.021 A 
DOCKED: ATOM     12  C   UNL d   1      -8.394  -0.288 -16.468 -0.24 -0.00    +0.000 A 
DOCKED: ATOM     13  C   UNL d   1      -7.056   0.095 -16.271 -0.18 -0.01    +0.070 A 
DOCKED: ATOM     14  C   UNL d   1     -10.667   0.864 -16.044 -0.19 -0.04    +0.052 C 
DOCKED: ATOM     15  C   UNL d   1      -4.613  -0.380 -16.370 -0.19 -0.00    +0.066 A 
DOCKED: ATOM     16  C   UNL d   1      -3.534  -1.144 -16.795 -0.17 +0.00    -0.021 A 
DOCKED: ATOM     17  C   UNL d   1      -2.393  -0.510 -16.347 -0.16 -0.00    +0.000 A 
DOCKED: ATOM     18  C   UNL d   1      -2.804   0.626 -15.654 -0.18 -0.00    +0.070 A 
DOCKED: ATOM     19  C   UNL d   1      -3.571  -2.434 -17.569 -0.30 -0.00    +0.052 C 
DOCKED: ATOM     20  C   UNL d   1      -2.342   2.725 -14.376 -0.12 +0.00    +0.066 A 
DOCKED: ATOM     21  C   UNL d   1      -1.496   3.518 -13.588 -0.17 -0.00    -0.025 A 
DOCKED: ATOM     22  C   UNL d   1      -2.259   4.592 -13.177 -0.12 -0.00    -0.021 A 
DOCKED: ATOM     23  C   UNL d   1      -3.536   4.409 -13.722 -0.08 +0.01    +0.066 A 
DOCKED: ATOM     24  C   UNL d   1      -0.046   3.285 -13.231 -0.29 -0.00    +0.051 C 
DOCKED: ATOM     25  N   UNL d   1      -6.397   3.847 -14.510 -0.09 -0.02    -0.248 N 
DOCKED: ATOM     26  N   UNL d   1      -6.969   1.359 -15.787 -0.12 +0.03    -0.248 N 
DOCKED: ATOM     27  N   UNL d   1      -4.166   0.731 -15.705 -0.10 +0.01    -0.248 N 
DOCKED: ATOM     28  N   UNL d   1      -3.593   3.246 -14.415 -0.03 -0.02    -0.248 N 
DOCKED: ATOM     29 FE   UNL d   1      -5.279   2.302 -15.101 -0.03 -0.00    +0.000 Fe
DOCKED: ENDROOT
DOCKED: BRANCH   6  30
DOCKED: ATOM     30  C   UNL d   1      -6.924   7.292 -13.331 -0.17 +0.03    +0.052 C 
DOCKED: BRANCH  30  31
DOCKED: ATOM     31  C   UNL d   1      -7.212   7.328 -11.834 -0.12 +0.08    +0.115 C 
DOCKED: BRANCH  31  32
DOCKED: ATOM     32  C   UNL d   1      -7.847   8.636 -11.451 -0.14 +0.11    +0.139 C 
DOCKED: ATOM     33  O   UNL d   1      -9.056   8.792 -11.542 -0.01 -0.22    -0.650 OA
DOCKED: BRANCH  32  34
DOCKED: ATOM     34  O   UNL d   1      -7.086   9.649 -11.004 -0.39 -1.31    -0.776 OA
DOCKED: ATOM     35  H   UNL d   1      -7.495  10.514 -10.858 +0.01 +0.15    +0.167 HD
DOCKED: ENDBRANCH  32  34
DOCKED: ENDBRANCH  31  32
DOCKED: ENDBRANCH  30  31
DOCKED: ENDBRANCH   6  30
DOCKED: BRANCH  22  36
DOCKED: ATOM     36  C   UNL d   1      -1.798   5.703 -12.271 -0.18 +0.01    +0.052 C 
DOCKED: BRANCH  36  37
DOCKED: ATOM     37  C   UNL d   1      -1.595   6.975 -13.081 -0.09 +0.04    +0.115 C 
DOCKED: BRANCH  37  38
DOCKED: ATOM     38  C   UNL d   1      -2.513   8.066 -12.610 -0.01 +0.13    +0.139 C 
DOCKED: ATOM     39  O   UNL d   1      -2.119   8.922 -11.831 -0.35 -0.75    -0.650 OA
DOCKED: BRANCH  38  40
DOCKED: ATOM     40  O   UNL d   1      -3.786   8.107 -13.043 -0.48 -0.99    -0.776 OA
DOCKED: ATOM     41  H   UNL d   1      -3.976   7.883 -13.965 +0.01 +0.11    +0.167 HD
DOCKED: ENDBRANCH  38  40
DOCKED: ENDBRANCH  37  38
DOCKED: ENDBRANCH  36  37
DOCKED: ENDBRANCH  22  36
DOCKED: BRANCH  12  42
DOCKED: ATOM     42  C   UNL d   1      -8.947  -1.587 -16.960 -0.25 -0.00    +0.004 C 
DOCKED: ATOM     43  C   UNL d   1      -8.365  -2.246 -17.971 -0.20 -0.00    +0.012 C 
DOCKED: ENDBRANCH  12  42
DOCKED: BRANCH  17  44
DOCKED: ATOM     44  C   UNL d   1      -1.001  -0.953 -16.584 -0.33 +0.00    +0.004 C 
DOCKED: ATOM     45  C   UNL d   1      -0.228  -0.331 -17.481 -0.23 +0.00    +0.012 C 
DOCKED: ENDBRANCH  17  44
DOCKED: TORSDOF 10
DOCKED: TER
DOCKED: ENDMDL
________________________________________________________________________________


	BEGINNING GENETIC ALGORITHM DOCKING 39 of 100
Run: 39 Seed: 642178569 2115107312 [ Run 39 of 100 GA/GALS ]
Beginning LAMARCKIAN GENETIC ALGORITHM (LGA), with a maximum of 25000000 energy evaluations.

Final-Value: -19.763


	FINAL GENETIC ALGORITHM DOCKED STATE
	_______________________________________________


Detailed state:  trans -5.532 -8.647 -3.349 quatxyzw -0.099194 0.014041 0.628734 -0.771140 center -0.174 -0.001 -0.047 ntor 10 68.6768 77.1421 75.4487 -141.9606 139.9217 -88.5975 -52.9654 35.0378 -167.3230 -177.4784
State:	 -5.532  -8.647  -3.349  -0.156  0.022  0.988 -79.087     68.68   77.14   75.45 -141.96  139.92  -88.60  -52.97   35.04 -167.32 -177.48

DOCKED: MODEL       39
DOCKED: USER    Run = 39
DOCKED: USER    DPF = D:/Protein_go_brrr/autodock/final/AncA/heme_Fe/dock.dpf
DOCKED: USER  
DOCKED: USER    Estimated Free Energy of Binding    =  -14.82 kcal/mol  [=(1)+(2)+(3)-(4)]
DOCKED: USER    Estimated Inhibition Constant, Ki   =   13.74 pM (picomolar)  [Temperature = 298.15 K]
DOCKED: USER    
DOCKED: USER    (1) Final Intermolecular Energy     =  -17.80 kcal/mol
DOCKED: USER        vdW + Hbond + desolv Energy     =  -14.42 kcal/mol
DOCKED: USER        Electrostatic Energy            =   -3.38 kcal/mol
DOCKED: USER    (2) Final Total Internal Energy     =   -1.96 kcal/mol
DOCKED: USER    (3) Torsional Free Energy           =   +2.98 kcal/mol
DOCKED: USER    (4) Unbound System's Energy  [=(2)] =   -1.96 kcal/mol
DOCKED: USER    
DOCKED: USER    
DOCKED: USER    NEWDPF move heme_Fe_opt.pdbqt
DOCKED: USER    NEWDPF about -0.174000 -0.001000 -0.047000
DOCKED: USER    NEWDPF tran0 -5.532316 -8.646761 -3.348904
DOCKED: USER    NEWDPF quaternion0 -0.099194 0.014041 0.628734 -0.771140
DOCKED: USER    NEWDPF axisangle0 -0.155803 0.022054 0.987542 -79.087218
DOCKED: USER    NEWDPF quat0 -0.155803 0.022054 0.987542 -79.087218
DOCKED: USER    NEWDPF dihe0 68.68 77.14 75.45 -141.96 139.92 -88.60 -52.97 35.04 -167.32 -177.48 
DOCKED: USER  keepresnum = 1 
DOCKED: USER  
DOCKED: REMARK  10 active torsions:
DOCKED: REMARK  status: ('A' for Active; 'I' for Inactive)
DOCKED: REMARK    1  A    between atoms: C_6  and  C_10 
DOCKED: REMARK    2  A    between atoms: C_10  and  C_11 
DOCKED: REMARK    3  A    between atoms: C_11  and  C_12 
DOCKED: REMARK    4  A    between atoms: C_12  and  O_14 
DOCKED: REMARK    5  A    between atoms: C_17  and  C_20 
DOCKED: REMARK    6  A    between atoms: C_24  and  C_27 
DOCKED: REMARK    7  A    between atoms: C_31  and  C_34 
DOCKED: REMARK    8  A    between atoms: C_34  and  C_35 
DOCKED: REMARK    9  A    between atoms: C_35  and  C_36 
DOCKED: REMARK   10  A    between atoms: C_36  and  O_38 
DOCKED: USER                              x       y       z     vdW  Elec       q    Type
DOCKED: USER                           _______ _______ _______ _____ _____    ______ ____
DOCKED: ROOT
DOCKED: ATOM      1  C   UNL d   1      -5.944 -10.483  -2.530 -0.05 +0.04    +0.064 C 
DOCKED: ATOM      2  C   UNL d   1      -1.927  -7.615  -2.804 -0.44 +0.02    +0.064 A 
DOCKED: ATOM      3  C   UNL d   1      -4.728  -3.935  -4.100 -0.27 +0.01    +0.064 C 
DOCKED: ATOM      4  C   UNL d   1      -8.615  -6.719  -3.943 -0.49 +0.01    +0.064 C 
DOCKED: ATOM      5  C   UNL d   1      -4.544 -10.038  -2.568 -0.33 +0.04    +0.066 A 
DOCKED: ATOM      6  C   UNL d   1      -3.448 -10.859  -2.359 -0.36 -0.02    -0.021 A 
DOCKED: ATOM      7  C   UNL d   1      -2.333 -10.061  -2.431 -0.35 -0.01    -0.025 A 
DOCKED: ATOM      8  C   UNL d   1      -2.792  -8.783  -2.683 -0.39 +0.03    +0.066 A 
DOCKED: ATOM      9  C   UNL d   1      -0.912 -10.514  -2.286 -0.34 +0.02    +0.051 C 
DOCKED: ATOM     10  C   UNL d   1      -2.339  -6.382  -3.103 -0.41 +0.02    +0.066 A 
DOCKED: ATOM     11  C   UNL d   1      -1.502  -5.264  -3.100 -0.45 -0.00    -0.021 A 
DOCKED: ATOM     12  C   UNL d   1      -2.290  -4.186  -3.454 -0.41 +0.00    +0.000 A 
DOCKED: ATOM     13  C   UNL d   1      -3.581  -4.707  -3.649 -0.36 +0.01    +0.070 A 
DOCKED: ATOM     14  C   UNL d   1      -0.039  -5.212  -2.711 -0.59 +0.01    +0.052 C 
DOCKED: ATOM     15  C   UNL d   1      -5.984  -4.421  -4.239 -0.40 +0.01    +0.066 A 
DOCKED: ATOM     16  C   UNL d   1      -7.031  -3.677  -4.768 -0.52 -0.00    -0.021 A 
DOCKED: ATOM     17  C   UNL d   1      -8.154  -4.477  -4.720 -0.49 +0.00    +0.000 A 
DOCKED: ATOM     18  C   UNL d   1      -7.765  -5.691  -4.159 -0.42 +0.02    +0.070 A 
DOCKED: ATOM     19  C   UNL d   1      -6.986  -2.261  -5.275 -0.31 +0.00    +0.052 C 
DOCKED: ATOM     20  C   UNL d   1      -8.230  -8.032  -3.411 -0.41 +0.02    +0.066 A 
DOCKED: ATOM     21  C   UNL d   1      -9.123  -9.031  -2.996 -0.44 -0.01    -0.025 A 
DOCKED: ATOM     22  C   UNL d   1      -8.340 -10.099  -2.610 -0.26 -0.01    -0.021 A 
DOCKED: ATOM     23  C   UNL d   1      -7.008  -9.710  -2.797 +0.14 +0.03    +0.066 A 
DOCKED: ATOM     24  C   UNL d   1     -10.633  -8.990  -2.958 -0.53 +0.01    +0.051 C 
DOCKED: ATOM     25  N   UNL d   1      -4.137  -8.774  -2.775 -0.24 -0.11    -0.248 N 
DOCKED: ATOM     26  N   UNL d   1      -3.613  -6.044  -3.427 -0.25 -0.06    -0.248 N 
DOCKED: ATOM     27  N   UNL d   1      -6.423  -5.673  -3.903 -0.25 -0.07    -0.248 N 
DOCKED: ATOM     28  N   UNL d   1      -6.947  -8.432  -3.243 -0.26 -0.11    -0.248 N 
DOCKED: ATOM     29 FE   UNL d   1      -5.282  -7.237  -3.335 -0.09 +0.00    +0.000 Fe
DOCKED: ENDROOT
DOCKED: BRANCH   6  30
DOCKED: ATOM     30  C   UNL d   1      -3.455 -12.330  -2.123 -0.02 +0.09    +0.052 C 
DOCKED: BRANCH  30  31
DOCKED: ATOM     31  C   UNL d   1      -3.847 -12.645  -0.683 -0.13 +0.17    +0.115 C 
DOCKED: BRANCH  31  32
DOCKED: ATOM     32  C   UNL d   1      -4.985 -13.627  -0.651 -0.19 +0.27    +0.139 C 
DOCKED: ATOM     33  O   UNL d   1      -5.007 -14.528   0.176 -0.48 -1.60    -0.650 OA
DOCKED: BRANCH  32  34
DOCKED: ATOM     34  O   UNL d   1      -5.993 -13.522  -1.533 -0.03 -1.54    -0.776 OA
DOCKED: ATOM     35  H   UNL d   1      -6.870 -13.263  -1.217 +0.06 +0.22    +0.167 HD
DOCKED: ENDBRANCH  32  34
DOCKED: ENDBRANCH  31  32
DOCKED: ENDBRANCH  30  31
DOCKED: ENDBRANCH   6  30
DOCKED: BRANCH  22  36
DOCKED: ATOM     36  C   UNL d   1      -8.845 -11.401  -2.046 -0.33 +0.03    +0.052 C 
DOCKED: BRANCH  36  37
DOCKED: ATOM     37  C   UNL d   1      -9.162 -11.232  -0.568 -0.30 +0.05    +0.115 C 
DOCKED: BRANCH  37  38
DOCKED: ATOM     38  C   UNL d   1      -8.862 -12.491   0.195 -0.27 +0.10    +0.139 C 
DOCKED: ATOM     39  O   UNL d   1      -9.710 -13.363   0.320 -0.30 -0.43    -0.650 OA
DOCKED: BRANCH  38  40
DOCKED: ATOM     40  O   UNL d   1      -7.651 -12.666   0.752 -0.27 -0.86    -0.776 OA
DOCKED: ATOM     41  H   UNL d   1      -7.016 -13.255   0.320 +0.06 +0.23    +0.167 HD
DOCKED: ENDBRANCH  38  40
DOCKED: ENDBRANCH  37  38
DOCKED: ENDBRANCH  36  37
DOCKED: ENDBRANCH  22  36
DOCKED: BRANCH  12  42
DOCKED: ATOM     42  C   UNL d   1      -1.808  -2.775  -3.567 -0.49 +0.00    +0.004 C 
DOCKED: ATOM     43  C   UNL d   1      -1.953  -2.087  -4.708 -0.61 +0.00    +0.012 C 
DOCKED: ENDBRANCH  12  42
DOCKED: BRANCH  17  44
DOCKED: ATOM     44  C   UNL d   1      -9.506  -4.110  -5.200 -0.42 +0.00    +0.004 C 
DOCKED: ATOM     45  C   UNL d   1     -10.373  -3.489  -4.394 -0.74 +0.00    +0.012 C 
DOCKED: ENDBRANCH  17  44
DOCKED: TORSDOF 10
DOCKED: TER
DOCKED: ENDMDL
________________________________________________________________________________


	BEGINNING GENETIC ALGORITHM DOCKING 40 of 100
Run: 40 Seed: 230458724 1505037334 [ Run 40 of 100 GA/GALS ]
Beginning LAMARCKIAN GENETIC ALGORITHM (LGA), with a maximum of 25000000 energy evaluations.

Final-Value: -10.043


	FINAL GENETIC ALGORITHM DOCKED STATE
	_______________________________________________


Detailed state:  trans -0.009 7.904 -12.478 quatxyzw 0.379113 -0.664015 -0.423392 -0.485897 center -0.174 -0.001 -0.047 ntor 10 162.5542 -172.9898 -160.2623 32.9309 -105.6931 -100.1263 -120.8826 -161.5799 -18.2575 170.3504
State:	 -0.009   7.904 -12.478   0.434 -0.760 -0.484 -121.857    162.55 -172.99 -160.26   32.93 -105.69 -100.13 -120.88 -161.58  -18.26  170.35

DOCKED: MODEL       40
DOCKED: USER    Run = 40
DOCKED: USER    DPF = D:/Protein_go_brrr/autodock/final/AncA/heme_Fe/dock.dpf
DOCKED: USER  
DOCKED: USER    Estimated Free Energy of Binding    =   -6.30 kcal/mol  [=(1)+(2)+(3)-(4)]
DOCKED: USER    Estimated Inhibition Constant, Ki   =   23.94 uM (micromolar)  [Temperature = 298.15 K]
DOCKED: USER    
DOCKED: USER    (1) Final Intermolecular Energy     =   -9.29 kcal/mol
DOCKED: USER        vdW + Hbond + desolv Energy     =   -7.31 kcal/mol
DOCKED: USER        Electrostatic Energy            =   -1.98 kcal/mol
DOCKED: USER    (2) Final Total Internal Energy     =   -0.76 kcal/mol
DOCKED: USER    (3) Torsional Free Energy           =   +2.98 kcal/mol
DOCKED: USER    (4) Unbound System's Energy  [=(2)] =   -0.76 kcal/mol
DOCKED: USER    
DOCKED: USER    
DOCKED: USER    NEWDPF move heme_Fe_opt.pdbqt
DOCKED: USER    NEWDPF about -0.174000 -0.001000 -0.047000
DOCKED: USER    NEWDPF tran0 -0.008633 7.904356 -12.478101
DOCKED: USER    NEWDPF quaternion0 0.379113 -0.664015 -0.423392 -0.485897
DOCKED: USER    NEWDPF axisangle0 0.433760 -0.759729 -0.484421 -121.857455
DOCKED: USER    NEWDPF quat0 0.433760 -0.759729 -0.484421 -121.857455
DOCKED: USER    NEWDPF dihe0 162.55 -172.99 -160.26 32.93 -105.69 -100.13 -120.88 -161.58 -18.26 170.35 
DOCKED: USER  keepresnum = 1 
DOCKED: USER  
DOCKED: REMARK  10 active torsions:
DOCKED: REMARK  status: ('A' for Active; 'I' for Inactive)
DOCKED: REMARK    1  A    between atoms: C_6  and  C_10 
DOCKED: REMARK    2  A    between atoms: C_10  and  C_11 
DOCKED: REMARK    3  A    between atoms: C_11  and  C_12 
DOCKED: REMARK    4  A    between atoms: C_12  and  O_14 
DOCKED: REMARK    5  A    between atoms: C_17  and  C_20 
DOCKED: REMARK    6  A    between atoms: C_24  and  C_27 
DOCKED: REMARK    7  A    between atoms: C_31  and  C_34 
DOCKED: REMARK    8  A    between atoms: C_34  and  C_35 
DOCKED: REMARK    9  A    between atoms: C_35  and  C_36 
DOCKED: REMARK   10  A    between atoms: C_36  and  O_38 
DOCKED: USER                              x       y       z     vdW  Elec       q    Type
DOCKED: USER                           _______ _______ _______ _____ _____    ______ ____
DOCKED: ROOT
DOCKED: ATOM      1  C   UNL d   1      -0.041   9.799 -13.265 -0.03 +0.01    +0.064 C 
DOCKED: ATOM      2  C   UNL d   1      -0.425   5.243 -15.143 -0.04 +0.01    +0.064 A 
DOCKED: ATOM      3  C   UNL d   1      -1.176   3.554 -10.710 -0.33 +0.01    +0.064 C 
DOCKED: ATOM      4  C   UNL d   1      -0.703   7.940  -8.860 -0.30 -0.03    +0.064 C 
DOCKED: ATOM      5  C   UNL d   1       0.003   8.662 -14.195 -0.02 +0.01    +0.066 A 
DOCKED: ATOM      6  C   UNL d   1       0.308   8.755 -15.543 -0.01 -0.00    -0.021 A 
DOCKED: ATOM      7  C   UNL d   1       0.197   7.490 -16.065 -0.01 -0.00    -0.025 A 
DOCKED: ATOM      8  C   UNL d   1      -0.171   6.672 -15.014 -0.02 +0.01    +0.066 A 
DOCKED: ATOM      9  C   UNL d   1       0.451   7.096 -17.488 -0.00 +0.01    +0.051 C 
DOCKED: ATOM     10  C   UNL d   1      -0.725   4.422 -14.135 -0.11 +0.01    +0.066 A 
DOCKED: ATOM     11  C   UNL d   1      -1.076   3.081 -14.306 -0.19 -0.00    -0.021 A 
DOCKED: ATOM     12  C   UNL d   1      -1.314   2.575 -13.044 -0.33 +0.00    +0.000 A 
DOCKED: ATOM     13  C   UNL d   1      -1.102   3.647 -12.159 -0.28 +0.01    +0.070 A 
DOCKED: ATOM     14  C   UNL d   1      -1.244   2.335 -15.614 -0.16 +0.00    +0.052 C 
DOCKED: ATOM     15  C   UNL d   1      -1.023   4.595  -9.857 -0.32 +0.00    +0.066 A 
DOCKED: ATOM     16  C   UNL d   1      -1.002   4.447  -8.476 -0.51 +0.00    -0.021 A 
DOCKED: ATOM     17  C   UNL d   1      -0.869   5.711  -7.940 -0.52 -0.00    +0.000 A 
DOCKED: ATOM     18  C   UNL d   1      -0.816   6.603  -9.009 -0.30 -0.02    +0.070 A 
DOCKED: ATOM     19  C   UNL d   1      -1.127   3.171  -7.687 -0.15 -0.01    +0.052 C 
DOCKED: ATOM     20  C   UNL d   1      -0.582   8.903  -9.961 -0.17 -0.01    +0.066 A 
DOCKED: ATOM     21  C   UNL d   1      -0.665  10.297  -9.831 -0.13 +0.00    -0.025 A 
DOCKED: ATOM     22  C   UNL d   1      -0.461  10.807 -11.097 -0.06 -0.00    -0.021 A 
DOCKED: ATOM     23  C   UNL d   1      -0.269   9.710 -11.946 -0.05 +0.01    +0.066 A 
DOCKED: ATOM     24  C   UNL d   1      -0.926  11.115  -8.587 -0.13 -0.02    +0.051 C 
DOCKED: ATOM     25  N   UNL d   1      -0.278   7.387 -13.876 -0.01 -0.05    -0.248 N 
DOCKED: ATOM     26  N   UNL d   1      -0.752   4.775 -12.825 -0.10 -0.03    -0.248 N 
DOCKED: ATOM     27  N   UNL d   1      -0.867   5.914 -10.189 -0.18 -0.02    -0.248 N 
DOCKED: ATOM     28  N   UNL d   1      -0.389   8.550 -11.255 -0.07 -0.04    -0.248 N 
DOCKED: ATOM     29 FE   UNL d   1      -0.571   6.664 -12.038 -0.03 +0.00    +0.000 Fe
DOCKED: ENDROOT
DOCKED: BRANCH   6  30
DOCKED: ATOM     30  C   UNL d   1       0.705   9.978 -16.296 -0.00 +0.01    +0.052 C 
DOCKED: BRANCH  30  31
DOCKED: ATOM     31  C   UNL d   1       2.110  10.422 -15.904 -0.02 +0.01    +0.115 C 
DOCKED: BRANCH  31  32
DOCKED: ATOM     32  C   UNL d   1       3.104   9.330 -16.186 -0.04 +0.03    +0.139 C 
DOCKED: ATOM     33  O   UNL d   1       3.585   8.674 -15.273 +0.00 -0.17    -0.650 OA
DOCKED: BRANCH  32  34
DOCKED: ATOM     34  O   UNL d   1       3.476   9.066 -17.450 +0.02 -0.16    -0.776 OA
DOCKED: ATOM     35  H   UNL d   1       2.929   9.392 -18.178 +0.01 +0.03    +0.167 HD
DOCKED: ENDBRANCH  32  34
DOCKED: ENDBRANCH  31  32
DOCKED: ENDBRANCH  30  31
DOCKED: ENDBRANCH   6  30
DOCKED: BRANCH  22  36
DOCKED: ATOM     36  C   UNL d   1      -0.498  12.264 -11.474 -0.01 +0.00    +0.052 C 
DOCKED: BRANCH  36  37
DOCKED: ATOM     37  C   UNL d   1      -1.900  12.641 -11.930 -0.01 +0.03    +0.115 C 
DOCKED: BRANCH  37  38
DOCKED: ATOM     38  C   UNL d   1      -2.905  11.620 -11.479 -0.02 +0.12    +0.139 C 
DOCKED: ATOM     39  O   UNL d   1      -3.317  10.765 -12.250 -0.03 -0.83    -0.650 OA
DOCKED: BRANCH  38  40
DOCKED: ATOM     40  O   UNL d   1      -3.366  11.643 -10.216 -0.43 -0.97    -0.776 OA
DOCKED: ATOM     41  H   UNL d   1      -3.117  12.378  -9.638 +0.01 +0.08    +0.167 HD
DOCKED: ENDBRANCH  38  40
DOCKED: ENDBRANCH  37  38
DOCKED: ENDBRANCH  36  37
DOCKED: ENDBRANCH  22  36
DOCKED: BRANCH  12  42
DOCKED: ATOM     42  C   UNL d   1      -1.730   1.169 -12.749 -0.37 -0.00    +0.004 C 
DOCKED: ATOM     43  C   UNL d   1      -2.949   0.899 -12.263 -0.57 -0.00    +0.012 C 
DOCKED: ENDBRANCH  12  42
DOCKED: BRANCH  17  44
DOCKED: ATOM     44  C   UNL d   1      -0.778   6.042  -6.500 -0.58 -0.00    +0.004 C 
DOCKED: ATOM     45  C   UNL d   1       0.401   6.032  -5.869 -0.68 -0.01    +0.012 C 
DOCKED: ENDBRANCH  17  44
DOCKED: TORSDOF 10
DOCKED: TER
DOCKED: ENDMDL
________________________________________________________________________________


	BEGINNING GENETIC ALGORITHM DOCKING 41 of 100
Run: 41 Seed: 270608081 1280771510 [ Run 41 of 100 GA/GALS ]
Beginning LAMARCKIAN GENETIC ALGORITHM (LGA), with a maximum of 25000000 energy evaluations.

Final-Value: -14.250


	FINAL GENETIC ALGORITHM DOCKED STATE
	_______________________________________________


Detailed state:  trans -10.580 -15.269 -2.972 quatxyzw -0.096596 0.825290 0.107897 -0.545825 center -0.174 -0.001 -0.047 ntor 10 -37.4924 82.9253 -131.7041 -168.3607 108.0643 -44.9876 -96.4767 40.3577 166.1762 167.0849
State:	-10.580 -15.269  -2.972  -0.115  0.985  0.129 -113.838    -37.49   82.93 -131.70 -168.36  108.06  -44.99  -96.48   40.36  166.18  167.08

DOCKED: MODEL       41
DOCKED: USER    Run = 41
DOCKED: USER    DPF = D:/Protein_go_brrr/autodock/final/AncA/heme_Fe/dock.dpf
DOCKED: USER  
DOCKED: USER    Estimated Free Energy of Binding    =   -9.33 kcal/mol  [=(1)+(2)+(3)-(4)]
DOCKED: USER    Estimated Inhibition Constant, Ki   =  144.18 nM (nanomolar)  [Temperature = 298.15 K]
DOCKED: USER    
DOCKED: USER    (1) Final Intermolecular Energy     =  -12.32 kcal/mol
DOCKED: USER        vdW + Hbond + desolv Energy     =   -7.91 kcal/mol
DOCKED: USER        Electrostatic Energy            =   -4.40 kcal/mol
DOCKED: USER    (2) Final Total Internal Energy     =   -1.93 kcal/mol
DOCKED: USER    (3) Torsional Free Energy           =   +2.98 kcal/mol
DOCKED: USER    (4) Unbound System's Energy  [=(2)] =   -1.93 kcal/mol
DOCKED: USER    
DOCKED: USER    
DOCKED: USER    NEWDPF move heme_Fe_opt.pdbqt
DOCKED: USER    NEWDPF about -0.174000 -0.001000 -0.047000
DOCKED: USER    NEWDPF tran0 -10.579935 -15.268787 -2.971586
DOCKED: USER    NEWDPF quaternion0 -0.096596 0.825290 0.107897 -0.545825
DOCKED: USER    NEWDPF axisangle0 -0.115283 0.984951 0.128771 -113.837944
DOCKED: USER    NEWDPF quat0 -0.115283 0.984951 0.128771 -113.837944
DOCKED: USER    NEWDPF dihe0 -37.49 82.93 -131.70 -168.36 108.06 -44.99 -96.48 40.36 166.18 167.08 
DOCKED: USER  keepresnum = 1 
DOCKED: USER  
DOCKED: REMARK  10 active torsions:
DOCKED: REMARK  status: ('A' for Active; 'I' for Inactive)
DOCKED: REMARK    1  A    between atoms: C_6  and  C_10 
DOCKED: REMARK    2  A    between atoms: C_10  and  C_11 
DOCKED: REMARK    3  A    between atoms: C_11  and  C_12 
DOCKED: REMARK    4  A    between atoms: C_12  and  O_14 
DOCKED: REMARK    5  A    between atoms: C_17  and  C_20 
DOCKED: REMARK    6  A    between atoms: C_24  and  C_27 
DOCKED: REMARK    7  A    between atoms: C_31  and  C_34 
DOCKED: REMARK    8  A    between atoms: C_34  and  C_35 
DOCKED: REMARK    9  A    between atoms: C_35  and  C_36 
DOCKED: REMARK   10  A    between atoms: C_36  and  O_38 
DOCKED: USER                              x       y       z     vdW  Elec       q    Type
DOCKED: USER                           _______ _______ _______ _____ _____    ______ ____
DOCKED: ROOT
DOCKED: ATOM      1  C   UNL d   1      -9.332 -15.092  -1.352 -0.09 +0.04    +0.064 C 
DOCKED: ATOM      2  C   UNL d   1      -9.988 -18.485  -4.886 -0.04 +0.03    +0.064 A 
DOCKED: ATOM      3  C   UNL d   1     -12.516 -15.270  -7.406 -0.10 +0.01    +0.064 C 
DOCKED: ATOM      4  C   UNL d   1     -11.981 -12.005  -3.951 -0.32 +0.01    +0.064 C 
DOCKED: ATOM      5  C   UNL d   1      -9.353 -16.371  -2.076 -0.04 +0.04    +0.066 A 
DOCKED: ATOM      6  C   UNL d   1      -8.819 -17.557  -1.600 -0.01 -0.01    -0.021 A 
DOCKED: ATOM      7  C   UNL d   1      -8.999 -18.498  -2.583 -0.01 -0.01    -0.025 A 
DOCKED: ATOM      8  C   UNL d   1      -9.636 -17.849  -3.623 -0.04 +0.03    +0.066 A 
DOCKED: ATOM      9  C   UNL d   1      -8.595 -19.939  -2.511 -0.00 +0.02    +0.051 C 
DOCKED: ATOM     10  C   UNL d   1     -10.654 -17.897  -5.882 -0.09 +0.03    +0.066 A 
DOCKED: ATOM     11  C   UNL d   1     -10.876 -18.496  -7.125 -0.11 -0.01    -0.021 A 
DOCKED: ATOM     12  C   UNL d   1     -11.589 -17.582  -7.876 -0.17 +0.00    +0.000 A 
DOCKED: ATOM     13  C   UNL d   1     -11.759 -16.460  -7.047 -0.18 +0.02    +0.070 A 
DOCKED: ATOM     14  C   UNL d   1     -10.375 -19.845  -7.598 -0.08 +0.03    +0.052 C 
DOCKED: ATOM     15  C   UNL d   1     -12.639 -14.166  -6.632 -0.24 +0.01    +0.066 A 
DOCKED: ATOM     16  C   UNL d   1     -13.452 -13.091  -6.968 -0.25 -0.00    -0.021 A 
DOCKED: ATOM     17  C   UNL d   1     -13.297 -12.147  -5.974 -0.28 +0.00    +0.000 A 
DOCKED: ATOM     18  C   UNL d   1     -12.387 -12.667  -5.056 -0.22 +0.01    +0.070 A 
DOCKED: ATOM     19  C   UNL d   1     -14.322 -12.944  -8.187 -0.24 +0.00    +0.052 C 
DOCKED: ATOM     20  C   UNL d   1     -11.074 -12.545  -2.931 -0.21 +0.02    +0.066 A 
DOCKED: ATOM     21  C   UNL d   1     -10.490 -11.806  -1.893 -0.26 -0.01    -0.025 A 
DOCKED: ATOM     22  C   UNL d   1      -9.750 -12.708  -1.157 -0.24 -0.01    -0.021 A 
DOCKED: ATOM     23  C   UNL d   1      -9.904 -13.954  -1.776 -0.15 +0.03    +0.066 A 
DOCKED: ATOM     24  C   UNL d   1     -10.613 -10.328  -1.602 -0.48 +0.01    +0.051 C 
DOCKED: ATOM     25  N   UNL d   1      -9.859 -16.558  -3.307 -0.04 -0.13    -0.248 N 
DOCKED: ATOM     26  N   UNL d   1     -11.182 -16.647  -5.835 -0.08 -0.09    -0.248 N 
DOCKED: ATOM     27  N   UNL d   1     -12.016 -13.926  -5.437 -0.11 -0.06    -0.248 N 
DOCKED: ATOM     28  N   UNL d   1     -10.677 -13.840  -2.884 -0.10 -0.10    -0.248 N 
DOCKED: ATOM     29 FE   UNL d   1     -10.930 -15.242  -4.359 -0.03 +0.00    +0.000 Fe
DOCKED: ENDROOT
DOCKED: BRANCH   6  30
DOCKED: ATOM     30  C   UNL d   1      -8.189 -17.793  -0.270 -0.00 +0.03    +0.052 C 
DOCKED: BRANCH  30  31
DOCKED: ATOM     31  C   UNL d   1      -6.672 -17.878  -0.398 -0.02 +0.10    +0.115 C 
DOCKED: BRANCH  31  32
DOCKED: ATOM     32  C   UNL d   1      -6.066 -16.503  -0.397 -0.09 +0.21    +0.139 C 
DOCKED: ATOM     33  O   UNL d   1      -5.437 -16.099   0.571 -0.44 -1.37    -0.650 OA
DOCKED: BRANCH  32  34
DOCKED: ATOM     34  O   UNL d   1      -6.212 -15.701  -1.466 -0.48 -1.69    -0.776 OA
DOCKED: ATOM     35  H   UNL d   1      -6.341 -14.752  -1.327 +0.03 +0.36    +0.167 HD
DOCKED: ENDBRANCH  32  34
DOCKED: ENDBRANCH  31  32
DOCKED: ENDBRANCH  30  31
DOCKED: ENDBRANCH   6  30
DOCKED: BRANCH  22  36
DOCKED: ATOM     36  C   UNL d   1      -8.902 -12.378   0.043 -0.31 +0.04    +0.052 C 
DOCKED: BRANCH  36  37
DOCKED: ATOM     37  C   UNL d   1      -7.457 -12.179  -0.388 -0.12 +0.10    +0.115 C 
DOCKED: BRANCH  37  38
DOCKED: ATOM     38  C   UNL d   1      -6.509 -12.777   0.612 -0.20 +0.20    +0.139 C 
DOCKED: ATOM     39  O   UNL d   1      -6.669 -12.598   1.811 -0.58 -1.16    -0.650 OA
DOCKED: BRANCH  38  40
DOCKED: ATOM     40  O   UNL d   1      -5.467 -13.517   0.191 -0.20 -1.54    -0.776 OA
DOCKED: ATOM     41  H   UNL d   1      -5.548 -14.481   0.184 +0.03 +0.39    +0.167 HD
DOCKED: ENDBRANCH  38  40
DOCKED: ENDBRANCH  37  38
DOCKED: ENDBRANCH  36  37
DOCKED: ENDBRANCH  22  36
DOCKED: BRANCH  12  42
DOCKED: ATOM     42  C   UNL d   1     -12.038 -17.799  -9.286 -0.19 +0.00    +0.004 C 
DOCKED: ATOM     43  C   UNL d   1     -11.216 -17.561 -10.316 -0.26 +0.00    +0.012 C 
DOCKED: ENDBRANCH  12  42
DOCKED: BRANCH  17  44
DOCKED: ATOM     44  C   UNL d   1     -13.989 -10.841  -5.898 -0.40 +0.00    +0.004 C 
DOCKED: ATOM     45  C   UNL d   1     -13.305  -9.696  -5.997 -0.44 +0.00    +0.012 C 
DOCKED: ENDBRANCH  17  44
DOCKED: TORSDOF 10
DOCKED: TER
DOCKED: ENDMDL
________________________________________________________________________________


	BEGINNING GENETIC ALGORITHM DOCKING 42 of 100
Run: 42 Seed: 1205929898 1955013971 [ Run 42 of 100 GA/GALS ]
Beginning LAMARCKIAN GENETIC ALGORITHM (LGA), with a maximum of 25000000 energy evaluations.

Final-Value: -19.622


	FINAL GENETIC ALGORITHM DOCKED STATE
	_______________________________________________


Detailed state:  trans -5.078 -9.442 -2.336 quatxyzw -0.698688 -0.692595 0.099476 0.149170 center -0.174 -0.001 -0.047 ntor 10 82.4531 41.4235 60.0630 -115.9752 -177.5238 -102.6506 -36.6693 -73.7415 -159.0276 5.2380
State:	 -5.078  -9.442  -2.336  -0.707 -0.700  0.101 162.842     82.45   41.42   60.06 -115.98 -177.52 -102.65  -36.67  -73.74 -159.03    5.24

DOCKED: MODEL       42
DOCKED: USER    Run = 42
DOCKED: USER    DPF = D:/Protein_go_brrr/autodock/final/AncA/heme_Fe/dock.dpf
DOCKED: USER  
DOCKED: USER    Estimated Free Energy of Binding    =  -14.11 kcal/mol  [=(1)+(2)+(3)-(4)]
DOCKED: USER    Estimated Inhibition Constant, Ki   =   45.65 pM (picomolar)  [Temperature = 298.15 K]
DOCKED: USER    
DOCKED: USER    (1) Final Intermolecular Energy     =  -17.09 kcal/mol
DOCKED: USER        vdW + Hbond + desolv Energy     =  -13.05 kcal/mol
DOCKED: USER        Electrostatic Energy            =   -4.04 kcal/mol
DOCKED: USER    (2) Final Total Internal Energy     =   -2.53 kcal/mol
DOCKED: USER    (3) Torsional Free Energy           =   +2.98 kcal/mol
DOCKED: USER    (4) Unbound System's Energy  [=(2)] =   -2.53 kcal/mol
DOCKED: USER    
DOCKED: USER    
DOCKED: USER    NEWDPF move heme_Fe_opt.pdbqt
DOCKED: USER    NEWDPF about -0.174000 -0.001000 -0.047000
DOCKED: USER    NEWDPF tran0 -5.077933 -9.442495 -2.336391
DOCKED: USER    NEWDPF quaternion0 -0.698688 -0.692595 0.099476 0.149170
DOCKED: USER    NEWDPF axisangle0 -0.706594 -0.700432 0.100601 162.842330
DOCKED: USER    NEWDPF quat0 -0.706594 -0.700432 0.100601 162.842330
DOCKED: USER    NEWDPF dihe0 82.45 41.42 60.06 -115.98 -177.52 -102.65 -36.67 -73.74 -159.03 5.24 
DOCKED: USER  keepresnum = 1 
DOCKED: USER  
DOCKED: REMARK  10 active torsions:
DOCKED: REMARK  status: ('A' for Active; 'I' for Inactive)
DOCKED: REMARK    1  A    between atoms: C_6  and  C_10 
DOCKED: REMARK    2  A    between atoms: C_10  and  C_11 
DOCKED: REMARK    3  A    between atoms: C_11  and  C_12 
DOCKED: REMARK    4  A    between atoms: C_12  and  O_14 
DOCKED: REMARK    5  A    between atoms: C_17  and  C_20 
DOCKED: REMARK    6  A    between atoms: C_24  and  C_27 
DOCKED: REMARK    7  A    between atoms: C_31  and  C_34 
DOCKED: REMARK    8  A    between atoms: C_34  and  C_35 
DOCKED: REMARK    9  A    between atoms: C_35  and  C_36 
DOCKED: REMARK   10  A    between atoms: C_36  and  O_38 
DOCKED: USER                              x       y       z     vdW  Elec       q    Type
DOCKED: USER                           _______ _______ _______ _____ _____    ______ ____
DOCKED: ROOT
DOCKED: ATOM      1  C   UNL d   1      -5.142 -11.485  -2.154 -0.34 +0.07    +0.064 C 
DOCKED: ATOM      2  C   UNL d   1      -8.396  -8.005  -3.469 -0.42 +0.02    +0.064 A 
DOCKED: ATOM      3  C   UNL d   1      -4.766  -4.902  -3.978 -0.44 +0.01    +0.064 C 
DOCKED: ATOM      4  C   UNL d   1      -1.611  -8.225  -2.606 -0.49 +0.02    +0.064 C 
DOCKED: ATOM      5  C   UNL d   1      -6.403 -10.771  -2.396 +0.10 +0.05    +0.066 A 
DOCKED: ATOM      6  C   UNL d   1      -7.665 -11.317  -2.234 -0.22 -0.01    -0.021 A 
DOCKED: ATOM      7  C   UNL d   1      -8.568 -10.351  -2.603 -0.31 -0.01    -0.025 A 
DOCKED: ATOM      8  C   UNL d   1      -7.821  -9.251  -2.976 -0.23 +0.03    +0.066 A 
DOCKED: ATOM      9  C   UNL d   1     -10.060 -10.481  -2.576 -0.45 +0.01    +0.051 C 
DOCKED: ATOM     10  C   UNL d   1      -7.701  -6.910  -3.782 -0.42 +0.02    +0.066 A 
DOCKED: ATOM     11  C   UNL d   1      -8.268  -5.771  -4.359 -0.46 -0.00    -0.021 A 
DOCKED: ATOM     12  C   UNL d   1      -7.239  -4.867  -4.532 -0.48 +0.00    +0.000 A 
DOCKED: ATOM     13  C   UNL d   1      -6.084  -5.511  -4.053 -0.39 +0.02    +0.070 A 
DOCKED: ATOM     14  C   UNL d   1      -9.708  -5.579  -4.790 -0.47 +0.01    +0.052 C 
DOCKED: ATOM     15  C   UNL d   1      -3.642  -5.534  -3.567 -0.38 +0.01    +0.066 A 
DOCKED: ATOM     16  C   UNL d   1      -2.421  -4.889  -3.415 -0.41 -0.00    -0.021 A 
DOCKED: ATOM     17  C   UNL d   1      -1.508  -5.846  -3.022 -0.48 +0.00    +0.000 A 
DOCKED: ATOM     18  C   UNL d   1      -2.195  -7.056  -2.948 -0.42 +0.02    +0.070 A 
DOCKED: ATOM     19  C   UNL d   1      -2.115  -3.435  -3.653 -0.43 +0.01    +0.052 C 
DOCKED: ATOM     20  C   UNL d   1      -2.313  -9.506  -2.457 -0.37 +0.03    +0.066 A 
DOCKED: ATOM     21  C   UNL d   1      -1.696 -10.755  -2.301 -0.30 -0.01    -0.025 A 
DOCKED: ATOM     22  C   UNL d   1      -2.721 -11.668  -2.161 -0.31 -0.02    -0.021 A 
DOCKED: ATOM     23  C   UNL d   1      -3.917 -10.945  -2.244 -0.33 +0.06    +0.066 A 
DOCKED: ATOM     24  C   UNL d   1      -0.221 -11.083  -2.287 -0.32 +0.02    +0.051 C 
DOCKED: ATOM     25  N   UNL d   1      -6.505  -9.506  -2.840 -0.06 -0.12    -0.248 N 
DOCKED: ATOM     26  N   UNL d   1      -6.364  -6.759  -3.604 -0.20 -0.11    -0.248 N 
DOCKED: ATOM     27  N   UNL d   1      -3.515  -6.857  -3.240 -0.24 -0.08    -0.248 N 
DOCKED: ATOM     28  N   UNL d   1      -3.662  -9.633  -2.469 -0.24 -0.13    -0.248 N 
DOCKED: ATOM     29 FE   UNL d   1      -5.011  -8.196  -3.037 -0.09 +0.00    +0.000 Fe
DOCKED: ENDROOT
DOCKED: BRANCH   6  30
DOCKED: ATOM     30  C   UNL d   1      -8.000 -12.680  -1.733 -0.25 +0.04    +0.052 C 
DOCKED: BRANCH  30  31
DOCKED: ATOM     31  C   UNL d   1      -7.600 -13.743  -2.751 -0.16 +0.15    +0.115 C 
DOCKED: BRANCH  31  32
DOCKED: ATOM     32  C   UNL d   1      -7.087 -14.972  -2.054 +0.23 +0.25    +0.139 C 
DOCKED: ATOM     33  O   UNL d   1      -6.673 -15.927  -2.697 -0.19 -1.51    -0.650 OA
DOCKED: BRANCH  32  34
DOCKED: ATOM     34  O   UNL d   1      -7.079 -15.033  -0.711 -0.07 -1.11    -0.776 OA
DOCKED: ATOM     35  H   UNL d   1      -6.261 -14.829  -0.237 +0.03 +0.31    +0.167 HD
DOCKED: ENDBRANCH  32  34
DOCKED: ENDBRANCH  31  32
DOCKED: ENDBRANCH  30  31
DOCKED: ENDBRANCH   6  30
DOCKED: BRANCH  22  36
DOCKED: ATOM     36  C   UNL d   1      -2.557 -13.157  -2.007 -0.10 +0.09    +0.052 C 
DOCKED: BRANCH  36  37
DOCKED: ATOM     37  C   UNL d   1      -2.752 -13.546  -0.549 -0.07 +0.16    +0.115 C 
DOCKED: BRANCH  37  38
DOCKED: ATOM     38  C   UNL d   1      -4.084 -14.210  -0.342 -0.07 +0.28    +0.139 C 
DOCKED: ATOM     39  O   UNL d   1      -5.017 -13.597   0.156 -0.19 -1.35    -0.650 OA
DOCKED: BRANCH  38  40
DOCKED: ATOM     40  O   UNL d   1      -4.258 -15.494  -0.703 -0.08 -1.64    -0.776 OA
DOCKED: ATOM     41  H   UNL d   1      -5.083 -15.752  -1.136 +0.02 +0.40    +0.167 HD
DOCKED: ENDBRANCH  38  40
DOCKED: ENDBRANCH  37  38
DOCKED: ENDBRANCH  36  37
DOCKED: ENDBRANCH  22  36
DOCKED: BRANCH  12  42
DOCKED: ATOM     42  C   UNL d   1      -7.387  -3.505  -5.132 -0.64 +0.00    +0.004 C 
DOCKED: ATOM     43  C   UNL d   1      -7.308  -2.405  -4.372 -0.67 +0.00    +0.012 C 
DOCKED: ENDBRANCH  12  42
DOCKED: BRANCH  17  44
DOCKED: ATOM     44  C   UNL d   1      -0.078  -5.615  -2.718 -0.61 +0.00    +0.004 C 
DOCKED: ATOM     45  C   UNL d   1       0.757  -5.161  -3.659 -0.64 +0.00    +0.012 C 
DOCKED: ENDBRANCH  17  44
DOCKED: TORSDOF 10
DOCKED: TER
DOCKED: ENDMDL
________________________________________________________________________________


	BEGINNING GENETIC ALGORITHM DOCKING 43 of 100
Run: 43 Seed: 130409914 281254700 [ Run 43 of 100 GA/GALS ]
Beginning LAMARCKIAN GENETIC ALGORITHM (LGA), with a maximum of 25000000 energy evaluations.

Final-Value: -16.753


	FINAL GENETIC ALGORITHM DOCKED STATE
	_______________________________________________


Detailed state:  trans -5.375 -11.073 -2.141 quatxyzw -0.124126 0.074985 0.756638 -0.637550 center -0.174 -0.001 -0.047 ntor 10 80.8893 -151.6668 26.3775 52.8992 149.4503 -89.6607 46.0264 154.0212 5.4093 -167.0228
State:	 -5.375 -11.073  -2.141  -0.161  0.097  0.982 -100.781     80.89 -151.67   26.38   52.90  149.45  -89.66   46.03  154.02    5.41 -167.02

DOCKED: MODEL       43
DOCKED: USER    Run = 43
DOCKED: USER    DPF = D:/Protein_go_brrr/autodock/final/AncA/heme_Fe/dock.dpf
DOCKED: USER  
DOCKED: USER    Estimated Free Energy of Binding    =  -13.25 kcal/mol  [=(1)+(2)+(3)-(4)]
DOCKED: USER    Estimated Inhibition Constant, Ki   =  194.94 pM (picomolar)  [Temperature = 298.15 K]
DOCKED: USER    
DOCKED: USER    (1) Final Intermolecular Energy     =  -16.23 kcal/mol
DOCKED: USER        vdW + Hbond + desolv Energy     =  -13.02 kcal/mol
DOCKED: USER        Electrostatic Energy            =   -3.21 kcal/mol
DOCKED: USER    (2) Final Total Internal Energy     =   -0.52 kcal/mol
DOCKED: USER    (3) Torsional Free Energy           =   +2.98 kcal/mol
DOCKED: USER    (4) Unbound System's Energy  [=(2)] =   -0.52 kcal/mol
DOCKED: USER    
DOCKED: USER    
DOCKED: USER    NEWDPF move heme_Fe_opt.pdbqt
DOCKED: USER    NEWDPF about -0.174000 -0.001000 -0.047000
DOCKED: USER    NEWDPF tran0 -5.374907 -11.073390 -2.141090
DOCKED: USER    NEWDPF quaternion0 -0.124126 0.074985 0.756638 -0.637550
DOCKED: USER    NEWDPF axisangle0 -0.161117 0.097331 0.982124 -100.781313
DOCKED: USER    NEWDPF quat0 -0.161117 0.097331 0.982124 -100.781313
DOCKED: USER    NEWDPF dihe0 80.89 -151.67 26.38 52.90 149.45 -89.66 46.03 154.02 5.41 -167.02 
DOCKED: USER  keepresnum = 1 
DOCKED: USER  
DOCKED: REMARK  10 active torsions:
DOCKED: REMARK  status: ('A' for Active; 'I' for Inactive)
DOCKED: REMARK    1  A    between atoms: C_6  and  C_10 
DOCKED: REMARK    2  A    between atoms: C_10  and  C_11 
DOCKED: REMARK    3  A    between atoms: C_11  and  C_12 
DOCKED: REMARK    4  A    between atoms: C_12  and  O_14 
DOCKED: REMARK    5  A    between atoms: C_17  and  C_20 
DOCKED: REMARK    6  A    between atoms: C_24  and  C_27 
DOCKED: REMARK    7  A    between atoms: C_31  and  C_34 
DOCKED: REMARK    8  A    between atoms: C_34  and  C_35 
DOCKED: REMARK    9  A    between atoms: C_35  and  C_36 
DOCKED: REMARK   10  A    between atoms: C_36  and  O_38 
DOCKED: USER                              x       y       z     vdW  Elec       q    Type
DOCKED: USER                           _______ _______ _______ _____ _____    ______ ____
DOCKED: ROOT
DOCKED: ATOM      1  C   UNL d   1      -5.056 -12.793  -1.067 -0.28 +0.11    +0.064 C 
DOCKED: ATOM      2  C   UNL d   1      -2.339  -8.806  -2.139 -0.44 +0.02    +0.064 A 
DOCKED: ATOM      3  C   UNL d   1      -6.338  -6.541  -3.535 -0.36 +0.03    +0.064 C 
DOCKED: ATOM      4  C   UNL d   1      -8.972 -10.425  -2.604 -0.38 +0.02    +0.064 C 
DOCKED: ATOM      5  C   UNL d   1      -3.910 -11.909  -1.318 -0.29 +0.08    +0.066 A 
DOCKED: ATOM      6  C   UNL d   1      -2.583 -12.265  -1.140 -0.27 -0.02    -0.021 A 
DOCKED: ATOM      7  C   UNL d   1      -1.829 -11.156  -1.434 -0.33 -0.02    -0.025 A 
DOCKED: ATOM      8  C   UNL d   1      -2.726 -10.165  -1.782 -0.37 +0.04    +0.066 A 
DOCKED: ATOM      9  C   UNL d   1      -0.334 -11.070  -1.399 -0.37 +0.02    +0.051 C 
DOCKED: ATOM     10  C   UNL d   1      -3.179  -7.847  -2.534 -0.39 +0.02    +0.066 A 
DOCKED: ATOM     11  C   UNL d   1      -2.793  -6.523  -2.759 -0.39 -0.01    -0.021 A 
DOCKED: ATOM     12  C   UNL d   1      -3.932  -5.846  -3.147 -0.42 +0.00    +0.000 A 
DOCKED: ATOM     13  C   UNL d   1      -4.965  -6.798  -3.130 -0.17 +0.03    +0.070 A 
DOCKED: ATOM     14  C   UNL d   1      -1.420  -5.918  -2.550 -0.44 +0.01    +0.052 C 
DOCKED: ATOM     15  C   UNL d   1      -7.348  -7.441  -3.471 -0.39 +0.02    +0.066 A 
DOCKED: ATOM     16  C   UNL d   1      -8.622  -7.188  -3.961 -0.47 -0.01    -0.021 A 
DOCKED: ATOM     17  C   UNL d   1      -9.385  -8.305  -3.690 -0.50 +0.00    +0.000 A 
DOCKED: ATOM     18  C   UNL d   1      -8.556  -9.214  -3.036 -0.37 +0.02    +0.070 A 
DOCKED: ATOM     19  C   UNL d   1      -9.115  -5.935  -4.635 -0.42 +0.01    +0.052 C 
DOCKED: ATOM     20  C   UNL d   1      -8.114 -11.431  -1.967 -0.21 +0.04    +0.066 A 
DOCKED: ATOM     21  C   UNL d   1      -8.567 -12.599  -1.337 -0.23 -0.02    -0.025 A 
DOCKED: ATOM     22  C   UNL d   1      -7.434 -13.265  -0.918 -0.21 -0.02    -0.021 A 
DOCKED: ATOM     23  C   UNL d   1      -6.340 -12.479  -1.301 -0.24 +0.08    +0.066 A 
DOCKED: ATOM     24  C   UNL d   1      -9.988 -13.070  -1.131 -0.24 +0.03    +0.051 C 
DOCKED: ATOM     25  N   UNL d   1      -3.990 -10.629  -1.720 -0.22 -0.19    -0.248 N 
DOCKED: ATOM     26  N   UNL d   1      -4.509  -8.016  -2.747 -0.23 -0.11    -0.248 N 
DOCKED: ATOM     27  N   UNL d   1      -7.293  -8.702  -2.940 -0.16 -0.10    -0.248 N 
DOCKED: ATOM     28  N   UNL d   1      -6.764 -11.340  -1.901 -0.07 -0.20    -0.248 N 
DOCKED: ATOM     29 FE   UNL d   1      -5.638  -9.678  -2.324 -0.08 +0.00    +0.000 Fe
DOCKED: ENDROOT
DOCKED: BRANCH   6  30
DOCKED: ATOM     30  C   UNL d   1      -2.054 -13.598  -0.731 -0.22 +0.06    +0.052 C 
DOCKED: BRANCH  30  31
DOCKED: ATOM     31  C   UNL d   1      -1.676 -14.427  -1.953 -0.16 +0.16    +0.115 C 
DOCKED: BRANCH  31  32
DOCKED: ATOM     32  C   UNL d   1      -2.205 -15.828  -1.822 -0.03 +0.22    +0.139 C 
DOCKED: ATOM     33  O   UNL d   1      -2.520 -16.470  -2.814 -0.46 -1.36    -0.650 OA
DOCKED: BRANCH  32  34
DOCKED: ATOM     34  O   UNL d   1      -2.338 -16.389  -0.608 +0.01 -0.92    -0.776 OA
DOCKED: ATOM     35  H   UNL d   1      -1.653 -16.996  -0.295 +0.02 +0.14    +0.167 HD
DOCKED: ENDBRANCH  32  34
DOCKED: ENDBRANCH  31  32
DOCKED: ENDBRANCH  30  31
DOCKED: ENDBRANCH   6  30
DOCKED: BRANCH  22  36
DOCKED: ATOM     36  C   UNL d   1      -7.408 -14.560  -0.149 -0.15 +0.07    +0.052 C 
DOCKED: BRANCH  36  37
DOCKED: ATOM     37  C   UNL d   1      -7.917 -14.327   1.265 -0.15 +0.14    +0.115 C 
DOCKED: BRANCH  37  38
DOCKED: ATOM     38  C   UNL d   1      -7.681 -12.908   1.697 -0.25 +0.18    +0.139 C 
DOCKED: ATOM     39  O   UNL d   1      -6.641 -12.588   2.254 -0.56 -1.27    -0.650 OA
DOCKED: BRANCH  38  40
DOCKED: ATOM     40  O   UNL d   1      -8.621 -11.973   1.472 -0.38 -0.65    -0.776 OA
DOCKED: ATOM     41  H   UNL d   1      -9.550 -12.241   1.429 +0.08 +0.11    +0.167 HD
DOCKED: ENDBRANCH  38  40
DOCKED: ENDBRANCH  37  38
DOCKED: ENDBRANCH  36  37
DOCKED: ENDBRANCH  22  36
DOCKED: BRANCH  12  42
DOCKED: ATOM     42  C   UNL d   1      -3.989  -4.389  -3.482 -0.28 +0.00    +0.004 C 
DOCKED: ATOM     43  C   UNL d   1      -3.490  -3.927  -4.636 -0.49 +0.00    +0.012 C 
DOCKED: ENDBRANCH  12  42
DOCKED: BRANCH  17  44
DOCKED: ATOM     44  C   UNL d   1     -10.807  -8.498  -4.052 -0.52 +0.00    +0.004 C 
DOCKED: ATOM     45  C   UNL d   1     -11.155  -9.327  -5.042 -0.58 +0.00    +0.012 C 
DOCKED: ENDBRANCH  17  44
DOCKED: TORSDOF 10
DOCKED: TER
DOCKED: ENDMDL
________________________________________________________________________________


	BEGINNING GENETIC ALGORITHM DOCKING 44 of 100
Run: 44 Seed: 1300201607 792031795 [ Run 44 of 100 GA/GALS ]
Beginning LAMARCKIAN GENETIC ALGORITHM (LGA), with a maximum of 25000000 energy evaluations.

Final-Value: -19.951


	FINAL GENETIC ALGORITHM DOCKED STATE
	_______________________________________________


Detailed state:  trans -4.817 -9.447 -2.344 quatxyzw 0.678856 0.713572 -0.087557 -0.149346 center -0.174 -0.001 -0.047 ntor 10 137.6160 -136.0266 66.4282 -132.6175 152.6714 22.5438 83.5753 -37.8972 22.0214 17.4625
State:	 -4.817  -9.447  -2.344   0.687  0.722 -0.089 -162.822    137.62 -136.03   66.43 -132.62  152.67   22.54   83.58  -37.90   22.02   17.46

DOCKED: MODEL       44
DOCKED: USER    Run = 44
DOCKED: USER    DPF = D:/Protein_go_brrr/autodock/final/AncA/heme_Fe/dock.dpf
DOCKED: USER  
DOCKED: USER    Estimated Free Energy of Binding    =  -15.40 kcal/mol  [=(1)+(2)+(3)-(4)]
DOCKED: USER    Estimated Inhibition Constant, Ki   =    5.15 pM (picomolar)  [Temperature = 298.15 K]
DOCKED: USER    
DOCKED: USER    (1) Final Intermolecular Energy     =  -18.38 kcal/mol
DOCKED: USER        vdW + Hbond + desolv Energy     =  -14.38 kcal/mol
DOCKED: USER        Electrostatic Energy            =   -4.01 kcal/mol
DOCKED: USER    (2) Final Total Internal Energy     =   -1.57 kcal/mol
DOCKED: USER    (3) Torsional Free Energy           =   +2.98 kcal/mol
DOCKED: USER    (4) Unbound System's Energy  [=(2)] =   -1.57 kcal/mol
DOCKED: USER    
DOCKED: USER    
DOCKED: USER    NEWDPF move heme_Fe_opt.pdbqt
DOCKED: USER    NEWDPF about -0.174000 -0.001000 -0.047000
DOCKED: USER    NEWDPF tran0 -4.816798 -9.446756 -2.344210
DOCKED: USER    NEWDPF quaternion0 0.678856 0.713572 -0.087557 -0.149346
DOCKED: USER    NEWDPF axisangle0 0.686555 0.721665 -0.088550 -162.821989
DOCKED: USER    NEWDPF quat0 0.686555 0.721665 -0.088550 -162.821989
DOCKED: USER    NEWDPF dihe0 137.62 -136.03 66.43 -132.62 152.67 22.54 83.58 -37.90 22.02 17.46 
DOCKED: USER  keepresnum = 1 
DOCKED: USER  
DOCKED: REMARK  10 active torsions:
DOCKED: REMARK  status: ('A' for Active; 'I' for Inactive)
DOCKED: REMARK    1  A    between atoms: C_6  and  C_10 
DOCKED: REMARK    2  A    between atoms: C_10  and  C_11 
DOCKED: REMARK    3  A    between atoms: C_11  and  C_12 
DOCKED: REMARK    4  A    between atoms: C_12  and  O_14 
DOCKED: REMARK    5  A    between atoms: C_17  and  C_20 
DOCKED: REMARK    6  A    between atoms: C_24  and  C_27 
DOCKED: REMARK    7  A    between atoms: C_31  and  C_34 
DOCKED: REMARK    8  A    between atoms: C_34  and  C_35 
DOCKED: REMARK    9  A    between atoms: C_35  and  C_36 
DOCKED: REMARK   10  A    between atoms: C_36  and  O_38 
DOCKED: USER                              x       y       z     vdW  Elec       q    Type
DOCKED: USER                           _______ _______ _______ _____ _____    ______ ____
DOCKED: ROOT
DOCKED: ATOM      1  C   UNL d   1      -4.759 -11.492  -2.191 -0.35 +0.07    +0.064 C 
DOCKED: ATOM      2  C   UNL d   1      -8.208  -8.195  -3.480 -0.42 +0.02    +0.064 A 
DOCKED: ATOM      3  C   UNL d   1      -4.769  -4.872  -3.918 -0.44 +0.01    +0.064 C 
DOCKED: ATOM      4  C   UNL d   1      -1.428  -8.019  -2.571 -0.50 +0.02    +0.064 C 
DOCKED: ATOM      5  C   UNL d   1      -6.059 -10.851  -2.432 -0.10 +0.05    +0.066 A 
DOCKED: ATOM      6  C   UNL d   1      -7.287 -11.475  -2.287 -0.24 -0.02    -0.021 A 
DOCKED: ATOM      7  C   UNL d   1      -8.244 -10.560  -2.649 -0.27 -0.01    -0.025 A 
DOCKED: ATOM      8  C   UNL d   1      -7.563  -9.411  -3.001 -0.17 +0.03    +0.066 A 
DOCKED: ATOM      9  C   UNL d   1      -9.726 -10.780  -2.634 -0.40 +0.02    +0.051 C 
DOCKED: ATOM     10  C   UNL d   1      -7.579  -7.056  -3.772 -0.42 +0.02    +0.066 A 
DOCKED: ATOM     11  C   UNL d   1      -8.210  -5.945  -4.337 -0.46 -0.00    -0.021 A 
DOCKED: ATOM     12  C   UNL d   1      -7.236  -4.978  -4.489 -0.48 +0.00    +0.000 A 
DOCKED: ATOM     13  C   UNL d   1      -6.048  -5.558  -4.012 -0.38 +0.02    +0.070 A 
DOCKED: ATOM     14  C   UNL d   1      -9.656  -5.834  -4.775 -0.40 +0.01    +0.052 C 
DOCKED: ATOM     15  C   UNL d   1      -3.611  -5.441  -3.508 -0.38 +0.01    +0.066 A 
DOCKED: ATOM     16  C   UNL d   1      -2.433  -4.726  -3.338 -0.40 -0.00    -0.021 A 
DOCKED: ATOM     17  C   UNL d   1      -1.467  -5.632  -2.953 -0.47 +0.00    +0.000 A 
DOCKED: ATOM     18  C   UNL d   1      -2.079  -6.882  -2.901 -0.42 +0.02    +0.070 A 
DOCKED: ATOM     19  C   UNL d   1      -2.214  -3.252  -3.553 -0.37 +0.01    +0.052 C 
DOCKED: ATOM     20  C   UNL d   1      -2.053  -9.341  -2.446 -0.39 +0.03    +0.066 A 
DOCKED: ATOM     21  C   UNL d   1      -1.362 -10.553  -2.303 -0.31 -0.01    -0.025 A 
DOCKED: ATOM     22  C   UNL d   1      -2.331 -11.528  -2.184 -0.31 -0.02    -0.021 A 
DOCKED: ATOM     23  C   UNL d   1      -3.568 -10.877  -2.265 -0.33 +0.06    +0.066 A 
DOCKED: ATOM     24  C   UNL d   1       0.130 -10.792  -2.283 -0.33 +0.02    +0.051 C 
DOCKED: ATOM     25  N   UNL d   1      -6.234  -9.589  -2.859 -0.11 -0.13    -0.248 N 
DOCKED: ATOM     26  N   UNL d   1      -6.255  -6.827  -3.582 -0.17 -0.12    -0.248 N 
DOCKED: ATOM     27  N   UNL d   1      -3.407  -6.759  -3.199 -0.25 -0.07    -0.248 N 
DOCKED: ATOM     28  N   UNL d   1      -3.391  -9.549  -2.470 -0.24 -0.13    -0.248 N 
DOCKED: ATOM     29 FE   UNL d   1      -4.821  -8.188  -3.026 -0.09 +0.00    +0.000 Fe
DOCKED: ENDROOT
DOCKED: BRANCH   6  30
DOCKED: ATOM     30  C   UNL d   1      -7.542 -12.864  -1.808 -0.26 +0.05    +0.052 C 
DOCKED: BRANCH  30  31
DOCKED: ATOM     31  C   UNL d   1      -8.220 -12.848  -0.443 -0.21 +0.10    +0.115 C 
DOCKED: BRANCH  31  32
DOCKED: ATOM     32  C   UNL d   1      -7.203 -13.015   0.652 -0.23 +0.18    +0.139 C 
DOCKED: ATOM     33  O   UNL d   1      -7.406 -12.555   1.767 -0.65 -0.89    -0.650 OA
DOCKED: BRANCH  32  34
DOCKED: ATOM     34  O   UNL d   1      -6.057 -13.674   0.413 -0.17 -1.55    -0.776 OA
DOCKED: ATOM     35  H   UNL d   1      -6.085 -14.492  -0.104 +0.03 +0.33    +0.167 HD
DOCKED: ENDBRANCH  32  34
DOCKED: ENDBRANCH  31  32
DOCKED: ENDBRANCH  30  31
DOCKED: ENDBRANCH   6  30
DOCKED: BRANCH  22  36
DOCKED: ATOM     36  C   UNL d   1      -2.079 -13.007  -2.050 -0.26 +0.07    +0.052 C 
DOCKED: BRANCH  36  37
DOCKED: ATOM     37  C   UNL d   1      -2.546 -13.485  -0.683 -0.18 +0.16    +0.115 C 
DOCKED: BRANCH  37  38
DOCKED: ATOM     38  C   UNL d   1      -3.193 -14.838  -0.778 -0.11 +0.26    +0.139 C 
DOCKED: ATOM     39  O   UNL d   1      -2.946 -15.585  -1.714 +0.08 -1.44    -0.650 OA
DOCKED: BRANCH  38  40
DOCKED: ATOM     40  O   UNL d   1      -4.057 -15.238   0.172 -0.33 -1.64    -0.776 OA
DOCKED: ATOM     41  H   UNL d   1      -4.723 -14.614   0.494 +0.04 +0.49    +0.167 HD
DOCKED: ENDBRANCH  38  40
DOCKED: ENDBRANCH  37  38
DOCKED: ENDBRANCH  36  37
DOCKED: ENDBRANCH  22  36
DOCKED: BRANCH  12  42
DOCKED: ATOM     42  C   UNL d   1      -7.463  -3.619  -5.071 -0.63 +0.00    +0.004 C 
DOCKED: ATOM     43  C   UNL d   1      -7.331  -2.518  -4.321 -0.67 +0.00    +0.012 C 
DOCKED: ENDBRANCH  12  42
DOCKED: BRANCH  17  44
DOCKED: ATOM     44  C   UNL d   1      -0.055  -5.319  -2.635 -0.60 +0.00    +0.004 C 
DOCKED: ATOM     45  C   UNL d   1       0.838  -5.121  -3.610 -0.65 +0.00    +0.012 C 
DOCKED: ENDBRANCH  17  44
DOCKED: TORSDOF 10
DOCKED: TER
DOCKED: ENDMDL
________________________________________________________________________________


	BEGINNING GENETIC ALGORITHM DOCKING 45 of 100
Run: 45 Seed: 1230906999 1821524815 [ Run 45 of 100 GA/GALS ]
Beginning LAMARCKIAN GENETIC ALGORITHM (LGA), with a maximum of 25000000 energy evaluations.

Final-Value: -17.061


	FINAL GENETIC ALGORITHM DOCKED STATE
	_______________________________________________


Detailed state:  trans -4.501 -8.061 -3.436 quatxyzw 0.047183 -0.156802 -0.973544 0.159368 center -0.174 -0.001 -0.047 ntor 10 79.9985 155.8615 -115.0044 -140.7843 120.2719 79.0498 62.2290 128.3778 140.5988 -7.0495
State:	 -4.501  -8.061  -3.436   0.048 -0.159 -0.986 161.660     80.00  155.86 -115.00 -140.78  120.27   79.05   62.23  128.38  140.60   -7.05

DOCKED: MODEL       45
DOCKED: USER    Run = 45
DOCKED: USER    DPF = D:/Protein_go_brrr/autodock/final/AncA/heme_Fe/dock.dpf
DOCKED: USER  
DOCKED: USER    Estimated Free Energy of Binding    =  -13.68 kcal/mol  [=(1)+(2)+(3)-(4)]
DOCKED: USER    Estimated Inhibition Constant, Ki   =   94.43 pM (picomolar)  [Temperature = 298.15 K]
DOCKED: USER    
DOCKED: USER    (1) Final Intermolecular Energy     =  -16.66 kcal/mol
DOCKED: USER        vdW + Hbond + desolv Energy     =  -14.41 kcal/mol
DOCKED: USER        Electrostatic Energy            =   -2.25 kcal/mol
DOCKED: USER    (2) Final Total Internal Energy     =   -0.40 kcal/mol
DOCKED: USER    (3) Torsional Free Energy           =   +2.98 kcal/mol
DOCKED: USER    (4) Unbound System's Energy  [=(2)] =   -0.40 kcal/mol
DOCKED: USER    
DOCKED: USER    
DOCKED: USER    NEWDPF move heme_Fe_opt.pdbqt
DOCKED: USER    NEWDPF about -0.174000 -0.001000 -0.047000
DOCKED: USER    NEWDPF tran0 -4.501385 -8.060833 -3.436251
DOCKED: USER    NEWDPF quaternion0 0.047183 -0.156802 -0.973544 0.159368
DOCKED: USER    NEWDPF axisangle0 0.047794 -0.158832 -0.986148 161.659547
DOCKED: USER    NEWDPF quat0 0.047794 -0.158832 -0.986148 161.659547
DOCKED: USER    NEWDPF dihe0 80.00 155.86 -115.00 -140.78 120.27 79.05 62.23 128.38 140.60 -7.05 
DOCKED: USER  keepresnum = 1 
DOCKED: USER  
DOCKED: REMARK  10 active torsions:
DOCKED: REMARK  status: ('A' for Active; 'I' for Inactive)
DOCKED: REMARK    1  A    between atoms: C_6  and  C_10 
DOCKED: REMARK    2  A    between atoms: C_10  and  C_11 
DOCKED: REMARK    3  A    between atoms: C_11  and  C_12 
DOCKED: REMARK    4  A    between atoms: C_12  and  O_14 
DOCKED: REMARK    5  A    between atoms: C_17  and  C_20 
DOCKED: REMARK    6  A    between atoms: C_24  and  C_27 
DOCKED: REMARK    7  A    between atoms: C_31  and  C_34 
DOCKED: REMARK    8  A    between atoms: C_34  and  C_35 
DOCKED: REMARK    9  A    between atoms: C_35  and  C_36 
DOCKED: REMARK   10  A    between atoms: C_36  and  O_38 
DOCKED: USER                              x       y       z     vdW  Elec       q    Type
DOCKED: USER                           _______ _______ _______ _____ _____    ______ ____
DOCKED: ROOT
DOCKED: ATOM      1  C   UNL d   1      -2.633  -8.423  -2.669 -0.47 +0.02    +0.064 C 
DOCKED: ATOM      2  C   UNL d   1      -4.994  -4.413  -4.336 -0.38 +0.01    +0.064 A 
DOCKED: ATOM      3  C   UNL d   1      -9.137  -6.829  -4.074 -0.47 +0.01    +0.064 C 
DOCKED: ATOM      4  C   UNL d   1      -6.859 -10.753  -2.560 -0.04 +0.04    +0.064 C 
DOCKED: ATOM      5  C   UNL d   1      -2.903  -7.097  -3.242 -0.36 +0.02    +0.066 A 
DOCKED: ATOM      6  C   UNL d   1      -1.932  -6.163  -3.566 -0.46 -0.00    -0.021 A 
DOCKED: ATOM      7  C   UNL d   1      -2.589  -5.048  -4.025 -0.42 -0.00    -0.025 A 
DOCKED: ATOM      8  C   UNL d   1      -3.937  -5.345  -3.964 -0.39 +0.01    +0.066 A 
DOCKED: ATOM      9  C   UNL d   1      -1.949  -3.784  -4.510 -0.39 +0.01    +0.051 C 
DOCKED: ATOM     10  C   UNL d   1      -6.298  -4.694  -4.341 -0.40 +0.01    +0.066 A 
DOCKED: ATOM     11  C   UNL d   1      -7.294  -3.746  -4.591 -0.51 -0.00    -0.021 A 
DOCKED: ATOM     12  C   UNL d   1      -8.499  -4.414  -4.505 -0.51 +0.00    +0.000 A 
DOCKED: ATOM     13  C   UNL d   1      -8.174  -5.746  -4.195 -0.42 +0.02    +0.070 A 
DOCKED: ATOM     14  C   UNL d   1      -7.110  -2.262  -4.833 -0.57 +0.00    +0.052 C 
DOCKED: ATOM     15  C   UNL d   1      -8.834  -8.101  -3.725 -0.44 +0.02    +0.066 A 
DOCKED: ATOM     16  C   UNL d   1      -9.768  -9.129  -3.718 -0.48 -0.00    -0.021 A 
DOCKED: ATOM     17  C   UNL d   1      -9.114 -10.261  -3.278 -0.33 +0.00    +0.000 A 
DOCKED: ATOM     18  C   UNL d   1      -7.794  -9.896  -3.023 -0.19 +0.03    +0.070 A 
DOCKED: ATOM     19  C   UNL d   1     -11.226  -9.048  -4.085 -0.43 +0.00    +0.052 C 
DOCKED: ATOM     20  C   UNL d   1      -5.446 -10.420  -2.339 -0.08 +0.05    +0.066 A 
DOCKED: ATOM     21  C   UNL d   1      -4.516 -11.233  -1.676 -0.32 -0.02    -0.025 A 
DOCKED: ATOM     22  C   UNL d   1      -3.316 -10.555  -1.730 -0.37 -0.01    -0.021 A 
DOCKED: ATOM     23  C   UNL d   1      -3.561  -9.359  -2.414 -0.37 +0.03    +0.066 A 
DOCKED: ATOM     24  C   UNL d   1      -4.737 -12.576  -1.020 -0.31 +0.08    +0.051 C 
DOCKED: ATOM     25  N   UNL d   1      -4.124  -6.595  -3.496 -0.16 -0.09    -0.248 N 
DOCKED: ATOM     26  N   UNL d   1      -6.833  -5.915  -4.086 -0.26 -0.07    -0.248 N 
DOCKED: ATOM     27  N   UNL d   1      -7.610  -8.579  -3.339 -0.28 -0.09    -0.248 N 
DOCKED: ATOM     28  N   UNL d   1      -4.872  -9.261  -2.744 -0.23 -0.13    -0.248 N 
DOCKED: ATOM     29 FE   UNL d   1      -5.853  -7.590  -3.415 -0.09 +0.00    +0.000 Fe
DOCKED: ENDROOT
DOCKED: BRANCH   6  30
DOCKED: ATOM     30  C   UNL d   1      -0.454  -6.326  -3.465 -0.51 +0.01    +0.052 C 
DOCKED: BRANCH  30  31
DOCKED: ATOM     31  C   UNL d   1       0.171  -5.148  -2.726 -0.54 +0.01    +0.115 C 
DOCKED: BRANCH  31  32
DOCKED: ATOM     32  C   UNL d   1       1.120  -4.407  -3.626 -0.47 +0.02    +0.139 C 
DOCKED: ATOM     33  O   UNL d   1       0.939  -3.225  -3.885 +0.05 -0.07    -0.650 OA
DOCKED: BRANCH  32  34
DOCKED: ATOM     34  O   UNL d   1       2.180  -5.040  -4.156 -0.01 -0.09    -0.776 OA
DOCKED: ATOM     35  H   UNL d   1       3.050  -4.922  -3.748 +0.11 +0.01    +0.167 HD
DOCKED: ENDBRANCH  32  34
DOCKED: ENDBRANCH  31  32
DOCKED: ENDBRANCH  30  31
DOCKED: ENDBRANCH   6  30
DOCKED: BRANCH  22  36
DOCKED: ATOM     36  C   UNL d   1      -2.020 -11.012  -1.114 -0.30 +0.03    +0.052 C 
DOCKED: BRANCH  36  37
DOCKED: ATOM     37  C   UNL d   1      -1.243 -11.851  -2.118 -0.26 +0.08    +0.115 C 
DOCKED: BRANCH  37  38
DOCKED: ATOM     38  C   UNL d   1      -2.095 -12.959  -2.668 -0.19 +0.20    +0.139 C 
DOCKED: ATOM     39  O   UNL d   1      -2.917 -12.739  -3.545 -0.27 -1.32    -0.650 OA
DOCKED: BRANCH  38  40
DOCKED: ATOM     40  O   UNL d   1      -1.960 -14.210  -2.192 +0.00 -1.25    -0.776 OA
DOCKED: ATOM     41  H   UNL d   1      -1.121 -14.470  -1.786 +0.04 +0.18    +0.167 HD
DOCKED: ENDBRANCH  38  40
DOCKED: ENDBRANCH  37  38
DOCKED: ENDBRANCH  36  37
DOCKED: ENDBRANCH  22  36
DOCKED: BRANCH  12  42
DOCKED: ATOM     42  C   UNL d   1      -9.842  -3.784  -4.694 -0.70 +0.00    +0.004 C 
DOCKED: ATOM     43  C   UNL d   1     -10.311  -2.885  -3.818 -0.68 +0.00    +0.012 C 
DOCKED: ENDBRANCH  12  42
DOCKED: BRANCH  17  44
DOCKED: ATOM     44  C   UNL d   1      -9.708 -11.609  -3.131 -0.20 +0.00    +0.004 C 
DOCKED: ATOM     45  C   UNL d   1     -10.332 -11.964  -2.003 -0.33 +0.00    +0.012 C 
DOCKED: ENDBRANCH  17  44
DOCKED: TORSDOF 10
DOCKED: TER
DOCKED: ENDMDL
________________________________________________________________________________


	BEGINNING GENETIC ALGORITHM DOCKING 46 of 100
Run: 46 Seed: 611626832 2021856547 [ Run 46 of 100 GA/GALS ]
Beginning LAMARCKIAN GENETIC ALGORITHM (LGA), with a maximum of 25000000 energy evaluations.

Final-Value: -16.713


	FINAL GENETIC ALGORITHM DOCKED STATE
	_______________________________________________


Detailed state:  trans -4.649 -7.925 -2.502 quatxyzw 0.091873 0.974106 -0.153820 -0.137901 center -0.174 -0.001 -0.047 ntor 10 151.0747 -136.5959 -139.5843 146.7048 82.2208 146.7741 128.3540 -29.8520 179.3733 -143.5353
State:	 -4.649  -7.925  -2.502   0.093  0.984 -0.155 -164.147    151.07 -136.60 -139.58  146.70   82.22  146.77  128.35  -29.85  179.37 -143.54

DOCKED: MODEL       46
DOCKED: USER    Run = 46
DOCKED: USER    DPF = D:/Protein_go_brrr/autodock/final/AncA/heme_Fe/dock.dpf
DOCKED: USER  
DOCKED: USER    Estimated Free Energy of Binding    =  -13.53 kcal/mol  [=(1)+(2)+(3)-(4)]
DOCKED: USER    Estimated Inhibition Constant, Ki   =  120.28 pM (picomolar)  [Temperature = 298.15 K]
DOCKED: USER    
DOCKED: USER    (1) Final Intermolecular Energy     =  -16.52 kcal/mol
DOCKED: USER        vdW + Hbond + desolv Energy     =  -14.29 kcal/mol
DOCKED: USER        Electrostatic Energy            =   -2.22 kcal/mol
DOCKED: USER    (2) Final Total Internal Energy     =   -0.20 kcal/mol
DOCKED: USER    (3) Torsional Free Energy           =   +2.98 kcal/mol
DOCKED: USER    (4) Unbound System's Energy  [=(2)] =   -0.20 kcal/mol
DOCKED: USER    
DOCKED: USER    
DOCKED: USER    NEWDPF move heme_Fe_opt.pdbqt
DOCKED: USER    NEWDPF about -0.174000 -0.001000 -0.047000
DOCKED: USER    NEWDPF tran0 -4.648534 -7.924729 -2.501548
DOCKED: USER    NEWDPF quaternion0 0.091873 0.974106 -0.153820 -0.137901
DOCKED: USER    NEWDPF axisangle0 0.092760 0.983502 -0.155304 -164.147145
DOCKED: USER    NEWDPF quat0 0.092760 0.983502 -0.155304 -164.147145
DOCKED: USER    NEWDPF dihe0 151.07 -136.60 -139.58 146.70 82.22 146.77 128.35 -29.85 179.37 -143.54 
DOCKED: USER  keepresnum = 1 
DOCKED: USER  
DOCKED: REMARK  10 active torsions:
DOCKED: REMARK  status: ('A' for Active; 'I' for Inactive)
DOCKED: REMARK    1  A    between atoms: C_6  and  C_10 
DOCKED: REMARK    2  A    between atoms: C_10  and  C_11 
DOCKED: REMARK    3  A    between atoms: C_11  and  C_12 
DOCKED: REMARK    4  A    between atoms: C_12  and  O_14 
DOCKED: REMARK    5  A    between atoms: C_17  and  C_20 
DOCKED: REMARK    6  A    between atoms: C_24  and  C_27 
DOCKED: REMARK    7  A    between atoms: C_31  and  C_34 
DOCKED: REMARK    8  A    between atoms: C_34  and  C_35 
DOCKED: REMARK    9  A    between atoms: C_35  and  C_36 
DOCKED: REMARK   10  A    between atoms: C_36  and  O_38 
DOCKED: USER                              x       y       z     vdW  Elec       q    Type
DOCKED: USER                           _______ _______ _______ _____ _____    ______ ____
DOCKED: ROOT
DOCKED: ATOM      1  C   UNL d   1      -2.661  -8.423  -2.384 -0.49 +0.02    +0.064 C 
DOCKED: ATOM      2  C   UNL d   1      -6.896 -10.973  -2.379 -0.05 +0.04    +0.064 A 
DOCKED: ATOM      3  C   UNL d   1      -9.174  -7.060  -3.982 -0.49 +0.01    +0.064 C 
DOCKED: ATOM      4  C   UNL d   1      -5.106  -4.544  -3.894 -0.41 +0.01    +0.064 C 
DOCKED: ATOM      5  C   UNL d   1      -3.657  -9.480  -2.154 -0.38 +0.03    +0.066 A 
DOCKED: ATOM      6  C   UNL d   1      -3.383 -10.715  -1.591 -0.37 -0.02    -0.021 A 
DOCKED: ATOM      7  C   UNL d   1      -4.558 -11.424  -1.593 -0.32 -0.03    -0.025 A 
DOCKED: ATOM      8  C   UNL d   1      -5.506 -10.593  -2.158 +0.15 +0.05    +0.066 A 
DOCKED: ATOM      9  C   UNL d   1      -4.754 -12.811  -1.063 -0.28 +0.09    +0.051 C 
DOCKED: ATOM     10  C   UNL d   1      -7.843 -10.171  -2.869 -0.16 +0.03    +0.066 A 
DOCKED: ATOM     11  C   UNL d   1      -9.137 -10.598  -3.175 -0.29 -0.01    -0.021 A 
DOCKED: ATOM     12  C   UNL d   1      -9.809  -9.492  -3.655 -0.48 +0.00    +0.000 A 
DOCKED: ATOM     13  C   UNL d   1      -8.879  -8.439  -3.624 -0.43 +0.02    +0.070 A 
DOCKED: ATOM     14  C   UNL d   1      -9.687 -12.007  -3.080 +0.01 +0.02    +0.052 C 
DOCKED: ATOM     15  C   UNL d   1      -8.268  -6.054  -4.003 -0.42 +0.01    +0.066 A 
DOCKED: ATOM     16  C   UNL d   1      -8.610  -4.731  -4.253 -0.48 -0.00    -0.021 A 
DOCKED: ATOM     17  C   UNL d   1      -7.437  -4.004  -4.232 -0.50 +0.00    +0.000 A 
DOCKED: ATOM     18  C   UNL d   1      -6.406  -4.903  -3.973 -0.39 +0.01    +0.070 A 
DOCKED: ATOM     19  C   UNL d   1      -9.980  -4.173  -4.528 -0.63 +0.01    +0.052 C 
DOCKED: ATOM     20  C   UNL d   1      -4.000  -5.451  -3.562 -0.38 +0.01    +0.066 A 
DOCKED: ATOM     21  C   UNL d   1      -2.637  -5.142  -3.673 -0.42 -0.00    -0.025 A 
DOCKED: ATOM     22  C   UNL d   1      -1.959  -6.257  -3.225 -0.45 -0.00    -0.021 A 
DOCKED: ATOM     23  C   UNL d   1      -2.930  -7.200  -2.867 -0.39 +0.02    +0.066 A 
DOCKED: ATOM     24  C   UNL d   1      -1.997  -3.869  -4.175 -0.44 +0.01    +0.051 C 
DOCKED: ATOM     25  N   UNL d   1      -4.956  -9.407  -2.490 -0.19 -0.13    -0.248 N 
DOCKED: ATOM     26  N   UNL d   1      -7.677  -8.855  -3.153 -0.26 -0.09    -0.248 N 
DOCKED: ATOM     27  N   UNL d   1      -6.920  -6.156  -3.788 -0.27 -0.08    -0.248 N 
DOCKED: ATOM     28  N   UNL d   1      -4.172  -6.720  -3.117 -0.24 -0.09    -0.248 N 
DOCKED: ATOM     29 FE   UNL d   1      -5.924  -7.785  -3.136 -0.09 +0.00    +0.000 Fe
DOCKED: ENDROOT
DOCKED: BRANCH   6  30
DOCKED: ATOM     30  C   UNL d   1      -2.076 -11.193  -1.057 -0.29 +0.04    +0.052 C 
DOCKED: BRANCH  30  31
DOCKED: ATOM     31  C   UNL d   1      -1.278 -11.909  -2.141 -0.26 +0.08    +0.115 C 
DOCKED: BRANCH  31  32
DOCKED: ATOM     32  C   UNL d   1      -2.117 -12.969  -2.798 -0.18 +0.20    +0.139 C 
DOCKED: ATOM     33  O   UNL d   1      -2.905 -12.678  -3.687 -0.27 -1.23    -0.650 OA
DOCKED: BRANCH  32  34
DOCKED: ATOM     34  O   UNL d   1      -2.008 -14.251  -2.412 +0.01 -1.35    -0.776 OA
DOCKED: ATOM     35  H   UNL d   1      -1.163 -14.565  -2.059 +0.04 +0.19    +0.167 HD
DOCKED: ENDBRANCH  32  34
DOCKED: ENDBRANCH  31  32
DOCKED: ENDBRANCH  30  31
DOCKED: ENDBRANCH   6  30
DOCKED: BRANCH  22  36
DOCKED: ATOM     36  C   UNL d   1      -0.463  -6.421  -3.191 -0.51 +0.01    +0.052 C 
DOCKED: BRANCH  36  37
DOCKED: ATOM     37  C   UNL d   1       0.134  -5.968  -4.515 -0.37 +0.02    +0.115 C 
DOCKED: BRANCH  37  38
DOCKED: ATOM     38  C   UNL d   1       1.516  -5.412  -4.321 -0.54 +0.02    +0.139 C 
DOCKED: ATOM     39  O   UNL d   1       2.373  -5.551  -5.182 -0.10 -0.09    -0.650 OA
DOCKED: BRANCH  38  40
DOCKED: ATOM     40  O   UNL d   1       1.823  -4.756  -3.188 +0.07 -0.07    -0.776 OA
DOCKED: ATOM     41  H   UNL d   1       1.522  -5.114  -2.341 -0.13 +0.00    +0.167 HD
DOCKED: ENDBRANCH  38  40
DOCKED: ENDBRANCH  37  38
DOCKED: ENDBRANCH  36  37
DOCKED: ENDBRANCH  22  36
DOCKED: BRANCH  12  42
DOCKED: ATOM     42  C   UNL d   1     -11.232  -9.489  -4.118 -0.53 +0.00    +0.004 C 
DOCKED: ATOM     43  C   UNL d   1     -11.539  -9.706  -5.403 -0.59 +0.00    +0.012 C 
DOCKED: ENDBRANCH  12  42
DOCKED: BRANCH  17  44
DOCKED: ATOM     44  C   UNL d   1      -7.315  -2.542  -4.426 -0.68 +0.00    +0.004 C 
DOCKED: ATOM     45  C   UNL d   1      -6.151  -1.994  -4.789 -0.43 +0.00    +0.012 C 
DOCKED: ENDBRANCH  17  44
DOCKED: TORSDOF 10
DOCKED: TER
DOCKED: ENDMDL
________________________________________________________________________________


	BEGINNING GENETIC ALGORITHM DOCKING 47 of 100
Run: 47 Seed: 243859457 1887885738 [ Run 47 of 100 GA/GALS ]
Beginning LAMARCKIAN GENETIC ALGORITHM (LGA), with a maximum of 25000000 energy evaluations.

Final-Value: -16.678


	FINAL GENETIC ALGORITHM DOCKED STATE
	_______________________________________________


Detailed state:  trans -6.388 -11.193 -1.584 quatxyzw 0.366910 0.889120 -0.152213 -0.227321 center -0.174 -0.001 -0.047 ntor 10 -22.8270 -42.9246 -94.3223 -159.9171 35.0335 139.4274 -65.7516 66.8049 175.3897 179.7002
State:	 -6.388 -11.193  -1.584   0.377  0.913 -0.156 -153.721    -22.83  -42.92  -94.32 -159.92   35.03  139.43  -65.75   66.80  175.39  179.70

DOCKED: MODEL       47
DOCKED: USER    Run = 47
DOCKED: USER    DPF = D:/Protein_go_brrr/autodock/final/AncA/heme_Fe/dock.dpf
DOCKED: USER  
DOCKED: USER    Estimated Free Energy of Binding    =  -11.36 kcal/mol  [=(1)+(2)+(3)-(4)]
DOCKED: USER    Estimated Inhibition Constant, Ki   =    4.74 nM (nanomolar)  [Temperature = 298.15 K]
DOCKED: USER    
DOCKED: USER    (1) Final Intermolecular Energy     =  -14.34 kcal/mol
DOCKED: USER        vdW + Hbond + desolv Energy     =  -10.81 kcal/mol
DOCKED: USER        Electrostatic Energy            =   -3.53 kcal/mol
DOCKED: USER    (2) Final Total Internal Energy     =   -2.34 kcal/mol
DOCKED: USER    (3) Torsional Free Energy           =   +2.98 kcal/mol
DOCKED: USER    (4) Unbound System's Energy  [=(2)] =   -2.34 kcal/mol
DOCKED: USER    
DOCKED: USER    
DOCKED: USER    NEWDPF move heme_Fe_opt.pdbqt
DOCKED: USER    NEWDPF about -0.174000 -0.001000 -0.047000
DOCKED: USER    NEWDPF tran0 -6.387688 -11.193024 -1.584456
DOCKED: USER    NEWDPF quaternion0 0.366910 0.889120 -0.152213 -0.227321
DOCKED: USER    NEWDPF axisangle0 0.376774 0.913023 -0.156305 -153.721214
DOCKED: USER    NEWDPF quat0 0.376774 0.913023 -0.156305 -153.721214
DOCKED: USER    NEWDPF dihe0 -22.83 -42.92 -94.32 -159.92 35.03 139.43 -65.75 66.80 175.39 179.70 
DOCKED: USER  keepresnum = 1 
DOCKED: USER  
DOCKED: REMARK  10 active torsions:
DOCKED: REMARK  status: ('A' for Active; 'I' for Inactive)
DOCKED: REMARK    1  A    between atoms: C_6  and  C_10 
DOCKED: REMARK    2  A    between atoms: C_10  and  C_11 
DOCKED: REMARK    3  A    between atoms: C_11  and  C_12 
DOCKED: REMARK    4  A    between atoms: C_12  and  O_14 
DOCKED: REMARK    5  A    between atoms: C_17  and  C_20 
DOCKED: REMARK    6  A    between atoms: C_24  and  C_27 
DOCKED: REMARK    7  A    between atoms: C_31  and  C_34 
DOCKED: REMARK    8  A    between atoms: C_34  and  C_35 
DOCKED: REMARK    9  A    between atoms: C_35  and  C_36 
DOCKED: REMARK   10  A    between atoms: C_36  and  O_38 
DOCKED: USER                              x       y       z     vdW  Elec       q    Type
DOCKED: USER                           _______ _______ _______ _____ _____    ______ ____
DOCKED: ROOT
DOCKED: ATOM      1  C   UNL d   1      -5.032 -12.622  -1.009 -0.30 +0.10    +0.064 C 
DOCKED: ATOM      2  C   UNL d   1      -9.779 -12.682  -2.383 -0.19 +0.03    +0.064 A 
DOCKED: ATOM      3  C   UNL d   1      -9.271  -8.221  -4.088 -0.50 +0.02    +0.064 C 
DOCKED: ATOM      4  C   UNL d   1      -4.703  -8.102  -2.672 -0.33 +0.03    +0.064 C 
DOCKED: ATOM      5  C   UNL d   1      -6.437 -13.021  -1.162 -0.23 +0.09    +0.066 A 
DOCKED: ATOM      6  C   UNL d   1      -6.980 -14.203  -0.684 -0.17 -0.03    -0.021 A 
DOCKED: ATOM      7  C   UNL d   1      -8.298 -14.221  -1.070 -0.13 -0.02    -0.025 A 
DOCKED: ATOM      8  C   UNL d   1      -8.509 -13.048  -1.768 -0.19 +0.05    +0.066 A 
DOCKED: ATOM      9  C   UNL d   1      -9.293 -15.297  -0.763 -0.08 +0.03    +0.051 C 
DOCKED: ATOM     10  C   UNL d   1     -10.025 -11.532  -3.012 -0.22 +0.02    +0.066 A 
DOCKED: ATOM     11  C   UNL d   1     -11.216 -11.259  -3.689 -0.34 -0.00    -0.021 A 
DOCKED: ATOM     12  C   UNL d   1     -11.088  -9.984  -4.205 -0.48 +0.00    +0.000 A 
DOCKED: ATOM     13  C   UNL d   1      -9.810  -9.545  -3.818 -0.42 +0.02    +0.070 A 
DOCKED: ATOM     14  C   UNL d   1     -12.392 -12.192  -3.894 -0.31 +0.01    +0.052 C 
DOCKED: ATOM     15  C   UNL d   1      -8.022  -7.811  -3.763 -0.42 +0.02    +0.066 A 
DOCKED: ATOM     16  C   UNL d   1      -7.579  -6.508  -3.949 -0.45 -0.01    -0.021 A 
DOCKED: ATOM     17  C   UNL d   1      -6.261  -6.472  -3.544 -0.35 +0.00    +0.000 A 
DOCKED: ATOM     18  C   UNL d   1      -5.929  -7.758  -3.124 +0.05 +0.04    +0.070 A 
DOCKED: ATOM     19  C   UNL d   1      -8.355  -5.346  -4.508 -0.49 +0.01    +0.052 C 
DOCKED: ATOM     20  C   UNL d   1      -4.335  -9.429  -2.164 -0.30 +0.03    +0.066 A 
DOCKED: ATOM     21  C   UNL d   1      -3.029  -9.854  -1.882 -0.41 -0.01    -0.025 A 
DOCKED: ATOM     22  C   UNL d   1      -3.147 -11.141  -1.397 -0.34 -0.02    -0.021 A 
DOCKED: ATOM     23  C   UNL d   1      -4.512 -11.450  -1.409 -0.30 +0.07    +0.066 A 
DOCKED: ATOM     24  C   UNL d   1      -1.732  -9.100  -2.059 -0.50 +0.02    +0.051 C 
DOCKED: ATOM     25  N   UNL d   1      -7.378 -12.316  -1.814 -0.16 -0.23    -0.248 N 
DOCKED: ATOM     26  N   UNL d   1      -9.159 -10.491  -3.099 -0.21 -0.09    -0.248 N 
DOCKED: ATOM     27  N   UNL d   1      -7.023  -8.572  -3.218 -0.25 -0.10    -0.248 N 
DOCKED: ATOM     28  N   UNL d   1      -5.228 -10.419  -1.920 +0.08 -0.17    -0.248 N 
DOCKED: ATOM     29 FE   UNL d   1      -7.192 -10.454  -2.510 -0.08 +0.00    +0.000 Fe
DOCKED: ENDROOT
DOCKED: BRANCH   6  30
DOCKED: ATOM     30  C   UNL d   1      -6.290 -15.253   0.116 -0.07 +0.10    +0.052 C 
DOCKED: BRANCH  30  31
DOCKED: ATOM     31  C   UNL d   1      -5.769 -16.366  -0.787 -0.08 +0.19    +0.115 C 
DOCKED: BRANCH  31  32
DOCKED: ATOM     32  C   UNL d   1      -4.266 -16.398  -0.770 -0.09 +0.25    +0.139 C 
DOCKED: ATOM     33  O   UNL d   1      -3.649 -16.130   0.251 -0.12 -1.07    -0.650 OA
DOCKED: BRANCH  32  34
DOCKED: ATOM     34  O   UNL d   1      -3.586 -16.723  -1.882 -0.11 -1.58    -0.776 OA
DOCKED: ATOM     35  H   UNL d   1      -2.668 -16.430  -1.973 +0.01 +0.30    +0.167 HD
DOCKED: ENDBRANCH  32  34
DOCKED: ENDBRANCH  31  32
DOCKED: ENDBRANCH  30  31
DOCKED: ENDBRANCH   6  30
DOCKED: BRANCH  22  36
DOCKED: ATOM     36  C   UNL d   1      -2.006 -12.037  -0.993 -0.27 +0.05    +0.052 C 
DOCKED: BRANCH  36  37
DOCKED: ATOM     37  C   UNL d   1      -1.433 -12.725  -2.223 -0.23 +0.11    +0.115 C 
DOCKED: BRANCH  37  38
DOCKED: ATOM     38  C   UNL d   1      -1.668 -14.208  -2.169 -0.16 +0.19    +0.139 C 
DOCKED: ATOM     39  O   UNL d   1      -1.993 -14.827  -3.172 +0.02 -1.32    -0.650 OA
DOCKED: BRANCH  38  40
DOCKED: ATOM     40  O   UNL d   1      -1.524 -14.868  -1.006 +0.03 -0.87    -0.776 OA
DOCKED: ATOM     41  H   UNL d   1      -2.181 -15.534  -0.759 +0.03 +0.22    +0.167 HD
DOCKED: ENDBRANCH  38  40
DOCKED: ENDBRANCH  37  38
DOCKED: ENDBRANCH  36  37
DOCKED: ENDBRANCH  22  36
DOCKED: BRANCH  12  42
DOCKED: ATOM     42  C   UNL d   1     -12.128  -9.282  -5.018 -0.27 +0.00    +0.004 C 
DOCKED: ATOM     43  C   UNL d   1     -12.749  -9.904  -6.029 -0.52 -0.00    +0.012 C 
DOCKED: ENDBRANCH  12  42
DOCKED: BRANCH  17  44
DOCKED: ATOM     44  C   UNL d   1      -5.383  -5.280  -3.540 -0.48 +0.00    +0.004 C 
DOCKED: ATOM     45  C   UNL d   1      -4.415  -5.140  -4.452 -0.48 +0.00    +0.012 C 
DOCKED: ENDBRANCH  17  44
DOCKED: TORSDOF 10
DOCKED: TER
DOCKED: ENDMDL
________________________________________________________________________________


	BEGINNING GENETIC ALGORITHM DOCKING 48 of 100
Run: 48 Seed: 1520513557 1531759113 [ Run 48 of 100 GA/GALS ]
Beginning LAMARCKIAN GENETIC ALGORITHM (LGA), with a maximum of 25000000 energy evaluations.

Final-Value: -14.421


	FINAL GENETIC ALGORITHM DOCKED STATE
	_______________________________________________


Detailed state:  trans -9.883 -14.344 -3.732 quatxyzw -0.401282 -0.155203 0.900382 0.064779 center -0.174 -0.001 -0.047 ntor 10 78.4280 -39.1849 58.8537 17.1475 -179.8225 92.4289 -38.7130 -77.7909 -156.2886 -5.3795
State:	 -9.883 -14.344  -3.732  -0.402 -0.156  0.902 172.572     78.43  -39.18   58.85   17.15 -179.82   92.43  -38.71  -77.79 -156.29   -5.38

DOCKED: MODEL       48
DOCKED: USER    Run = 48
DOCKED: USER    DPF = D:/Protein_go_brrr/autodock/final/AncA/heme_Fe/dock.dpf
DOCKED: USER  
DOCKED: USER    Estimated Free Energy of Binding    =   -9.33 kcal/mol  [=(1)+(2)+(3)-(4)]
DOCKED: USER    Estimated Inhibition Constant, Ki   =  144.92 nM (nanomolar)  [Temperature = 298.15 K]
DOCKED: USER    
DOCKED: USER    (1) Final Intermolecular Energy     =  -12.31 kcal/mol
DOCKED: USER        vdW + Hbond + desolv Energy     =   -7.81 kcal/mol
DOCKED: USER        Electrostatic Energy            =   -4.50 kcal/mol
DOCKED: USER    (2) Final Total Internal Energy     =   -2.11 kcal/mol
DOCKED: USER    (3) Torsional Free Energy           =   +2.98 kcal/mol
DOCKED: USER    (4) Unbound System's Energy  [=(2)] =   -2.11 kcal/mol
DOCKED: USER    
DOCKED: USER    
DOCKED: USER    NEWDPF move heme_Fe_opt.pdbqt
DOCKED: USER    NEWDPF about -0.174000 -0.001000 -0.047000
DOCKED: USER    NEWDPF tran0 -9.883397 -14.343974 -3.732035
DOCKED: USER    NEWDPF quaternion0 -0.401282 -0.155203 0.900382 0.064779
DOCKED: USER    NEWDPF axisangle0 -0.402126 -0.155530 0.902278 172.571717
DOCKED: USER    NEWDPF quat0 -0.402126 -0.155530 0.902278 172.571717
DOCKED: USER    NEWDPF dihe0 78.43 -39.18 58.85 17.15 -179.82 92.43 -38.71 -77.79 -156.29 -5.38 
DOCKED: USER  keepresnum = 1 
DOCKED: USER  
DOCKED: REMARK  10 active torsions:
DOCKED: REMARK  status: ('A' for Active; 'I' for Inactive)
DOCKED: REMARK    1  A    between atoms: C_6  and  C_10 
DOCKED: REMARK    2  A    between atoms: C_10  and  C_11 
DOCKED: REMARK    3  A    between atoms: C_11  and  C_12 
DOCKED: REMARK    4  A    between atoms: C_12  and  O_14 
DOCKED: REMARK    5  A    between atoms: C_17  and  C_20 
DOCKED: REMARK    6  A    between atoms: C_24  and  C_27 
DOCKED: REMARK    7  A    between atoms: C_31  and  C_34 
DOCKED: REMARK    8  A    between atoms: C_34  and  C_35 
DOCKED: REMARK    9  A    between atoms: C_35  and  C_36 
DOCKED: REMARK   10  A    between atoms: C_36  and  O_38 
DOCKED: USER                              x       y       z     vdW  Elec       q    Type
DOCKED: USER                           _______ _______ _______ _____ _____    ______ ____
DOCKED: ROOT
DOCKED: ATOM      1  C   UNL d   1      -8.945 -14.480  -1.912 -0.14 +0.05    +0.064 C 
DOCKED: ATOM      2  C   UNL d   1     -12.056 -11.250  -3.990 -0.32 +0.00    +0.064 A 
DOCKED: ATOM      3  C   UNL d   1     -13.058 -14.502  -7.380 -0.21 +0.01    +0.064 C 
DOCKED: ATOM      4  C   UNL d   1      -9.973 -17.604  -5.445 -0.12 +0.03    +0.064 C 
DOCKED: ATOM      5  C   UNL d   1      -9.665 -13.239  -2.230 -0.17 +0.03    +0.066 A 
DOCKED: ATOM      6  C   UNL d   1      -9.534 -12.049  -1.534 -0.29 -0.01    -0.021 A 
DOCKED: ATOM      7  C   UNL d   1     -10.401 -11.154  -2.110 -0.36 -0.01    -0.025 A 
DOCKED: ATOM      8  C   UNL d   1     -11.028 -11.833  -3.136 -0.27 +0.02    +0.066 A 
DOCKED: ATOM      9  C   UNL d   1     -10.595  -9.725  -1.702 -0.50 +0.01    +0.051 C 
DOCKED: ATOM     10  C   UNL d   1     -12.635 -11.865  -5.023 -0.30 +0.01    +0.066 A 
DOCKED: ATOM     11  C   UNL d   1     -13.697 -11.323  -5.751 -0.32 -0.00    -0.021 A 
DOCKED: ATOM     12  C   UNL d   1     -14.016 -12.248  -6.724 -0.23 +0.00    +0.000 A 
DOCKED: ATOM     13  C   UNL d   1     -13.128 -13.322  -6.533 -0.24 +0.01    +0.070 A 
DOCKED: ATOM     14  C   UNL d   1     -14.419 -10.016  -5.489 -0.33 +0.00    +0.052 C 
DOCKED: ATOM     15  C   UNL d   1     -12.241 -15.561  -7.169 -0.17 +0.01    +0.066 A 
DOCKED: ATOM     16  C   UNL d   1     -12.133 -16.624  -8.057 -0.13 -0.00    -0.021 A 
DOCKED: ATOM     17  C   UNL d   1     -11.246 -17.521  -7.499 -0.18 +0.00    +0.000 A 
DOCKED: ATOM     18  C   UNL d   1     -10.837 -16.986  -6.280 -0.16 +0.03    +0.070 A 
DOCKED: ATOM     19  C   UNL d   1     -12.852 -16.803  -9.367 -0.15 +0.01    +0.052 C 
DOCKED: ATOM     20  C   UNL d   1      -9.473 -17.044  -4.184 -0.09 +0.04    +0.066 A 
DOCKED: ATOM     21  C   UNL d   1      -8.742 -17.749  -3.218 -0.05 -0.02    -0.025 A 
DOCKED: ATOM     22  C   UNL d   1      -8.448 -16.836  -2.226 -0.06 -0.02    -0.021 A 
DOCKED: ATOM     23  C   UNL d   1      -9.015 -15.618  -2.621 -0.10 +0.05    +0.066 A 
DOCKED: ATOM     24  C   UNL d   1      -8.338 -19.205  -3.218 -0.02 +0.03    +0.051 C 
DOCKED: ATOM     25  N   UNL d   1     -10.571 -13.098  -3.213 +0.00 -0.09    -0.248 N 
DOCKED: ATOM     26  N   UNL d   1     -12.292 -13.092  -5.491 -0.15 -0.05    -0.248 N 
DOCKED: ATOM     27  N   UNL d   1     -11.414 -15.760  -6.096 -0.14 -0.07    -0.248 N 
DOCKED: ATOM     28  N   UNL d   1      -9.677 -15.762  -3.794 -0.06 -0.14    -0.248 N 
DOCKED: ATOM     29 FE   UNL d   1     -10.984 -14.429  -4.643 -0.04 +0.00    +0.000 Fe
DOCKED: ENDROOT
DOCKED: BRANCH   6  30
DOCKED: ATOM     30  C   UNL d   1      -8.617 -11.767  -0.393 -0.26 +0.03    +0.052 C 
DOCKED: BRANCH  30  31
DOCKED: ATOM     31  C   UNL d   1      -9.019 -12.576   0.835 -0.30 +0.08    +0.115 C 
DOCKED: BRANCH  31  32
DOCKED: ATOM     32  C   UNL d   1      -7.800 -13.068   1.563 -0.26 +0.17    +0.139 C 
DOCKED: ATOM     33  O   UNL d   1      -7.909 -13.740   2.579 -0.15 -0.92    -0.650 OA
DOCKED: BRANCH  32  34
DOCKED: ATOM     34  O   UNL d   1      -6.573 -12.772   1.102 -0.20 -1.27    -0.776 OA
DOCKED: ATOM     35  H   UNL d   1      -6.081 -13.445   0.612 +0.04 +0.33    +0.167 HD
DOCKED: ENDBRANCH  32  34
DOCKED: ENDBRANCH  31  32
DOCKED: ENDBRANCH  30  31
DOCKED: ENDBRANCH   6  30
DOCKED: BRANCH  22  36
DOCKED: ATOM     36  C   UNL d   1      -7.707 -17.133  -0.949 -0.04 +0.05    +0.052 C 
DOCKED: BRANCH  36  37
DOCKED: ATOM     37  C   UNL d   1      -6.219 -16.885  -1.150 -0.07 +0.16    +0.115 C 
DOCKED: BRANCH  37  38
DOCKED: ATOM     38  C   UNL d   1      -5.809 -15.565  -0.560 -0.10 +0.27    +0.139 C 
DOCKED: ATOM     39  O   UNL d   1      -5.395 -15.495   0.588 -0.25 -1.74    -0.650 OA
DOCKED: BRANCH  38  40
DOCKED: ATOM     40  O   UNL d   1      -5.898 -14.444  -1.297 -0.14 -1.87    -0.776 OA
DOCKED: ATOM     41  H   UNL d   1      -6.200 -13.627  -0.875 +0.05 +0.28    +0.167 HD
DOCKED: ENDBRANCH  38  40
DOCKED: ENDBRANCH  37  38
DOCKED: ENDBRANCH  36  37
DOCKED: ENDBRANCH  22  36
DOCKED: BRANCH  12  42
DOCKED: ATOM     42  C   UNL d   1     -15.109 -12.089  -7.733 -0.19 +0.00    +0.004 C 
DOCKED: ATOM     43  C   UNL d   1     -14.830 -11.828  -9.016 -0.28 +0.00    +0.012 C 
DOCKED: ENDBRANCH  12  42
DOCKED: BRANCH  17  44
DOCKED: ATOM     44  C   UNL d   1     -10.803 -18.798  -8.103 -0.16 +0.00    +0.004 C 
DOCKED: ATOM     45  C   UNL d   1      -9.990 -18.808  -9.164 -0.22 +0.01    +0.012 C 
DOCKED: ENDBRANCH  17  44
DOCKED: TORSDOF 10
DOCKED: TER
DOCKED: ENDMDL
________________________________________________________________________________


	BEGINNING GENETIC ALGORITHM DOCKING 49 of 100
Run: 49 Seed: 945619943 511044471 [ Run 49 of 100 GA/GALS ]
Beginning LAMARCKIAN GENETIC ALGORITHM (LGA), with a maximum of 25000000 energy evaluations.

Final-Value: -13.583


	FINAL GENETIC ALGORITHM DOCKED STATE
	_______________________________________________


Detailed state:  trans -11.179 -13.504 -0.490 quatxyzw 0.091552 0.869049 -0.357489 -0.329505 center -0.174 -0.001 -0.047 ntor 10 123.6895 98.5432 65.8289 176.8698 -85.0425 -134.3159 53.0277 67.4626 -34.5338 -177.6519
State:	-11.179 -13.504  -0.490   0.097  0.920 -0.379 -141.523    123.69   98.54   65.83  176.87  -85.04 -134.32   53.03   67.46  -34.53 -177.65

DOCKED: MODEL       49
DOCKED: USER    Run = 49
DOCKED: USER    DPF = D:/Protein_go_brrr/autodock/final/AncA/heme_Fe/dock.dpf
DOCKED: USER  
DOCKED: USER    Estimated Free Energy of Binding    =   -8.91 kcal/mol  [=(1)+(2)+(3)-(4)]
DOCKED: USER    Estimated Inhibition Constant, Ki   =  293.91 nM (nanomolar)  [Temperature = 298.15 K]
DOCKED: USER    
DOCKED: USER    (1) Final Intermolecular Energy     =  -11.89 kcal/mol
DOCKED: USER        vdW + Hbond + desolv Energy     =   -7.97 kcal/mol
DOCKED: USER        Electrostatic Energy            =   -3.93 kcal/mol
DOCKED: USER    (2) Final Total Internal Energy     =   -1.69 kcal/mol
DOCKED: USER    (3) Torsional Free Energy           =   +2.98 kcal/mol
DOCKED: USER    (4) Unbound System's Energy  [=(2)] =   -1.69 kcal/mol
DOCKED: USER    
DOCKED: USER    
DOCKED: USER    NEWDPF move heme_Fe_opt.pdbqt
DOCKED: USER    NEWDPF about -0.174000 -0.001000 -0.047000
DOCKED: USER    NEWDPF tran0 -11.178784 -13.504054 -0.490157
DOCKED: USER    NEWDPF quaternion0 0.091552 0.869049 -0.357489 -0.329505
DOCKED: USER    NEWDPF axisangle0 0.096968 0.920453 -0.378634 -141.522542
DOCKED: USER    NEWDPF quat0 0.096968 0.920453 -0.378634 -141.522542
DOCKED: USER    NEWDPF dihe0 123.69 98.54 65.83 176.87 -85.04 -134.32 53.03 67.46 -34.53 -177.65 
DOCKED: USER  keepresnum = 1 
DOCKED: USER  
DOCKED: REMARK  10 active torsions:
DOCKED: REMARK  status: ('A' for Active; 'I' for Inactive)
DOCKED: REMARK    1  A    between atoms: C_6  and  C_10 
DOCKED: REMARK    2  A    between atoms: C_10  and  C_11 
DOCKED: REMARK    3  A    between atoms: C_11  and  C_12 
DOCKED: REMARK    4  A    between atoms: C_12  and  O_14 
DOCKED: REMARK    5  A    between atoms: C_17  and  C_20 
DOCKED: REMARK    6  A    between atoms: C_24  and  C_27 
DOCKED: REMARK    7  A    between atoms: C_31  and  C_34 
DOCKED: REMARK    8  A    between atoms: C_34  and  C_35 
DOCKED: REMARK    9  A    between atoms: C_35  and  C_36 
DOCKED: REMARK   10  A    between atoms: C_36  and  O_38 
DOCKED: USER                              x       y       z     vdW  Elec       q    Type
DOCKED: USER                           _______ _______ _______ _____ _____    ______ ____
DOCKED: ROOT
DOCKED: ATOM      1  C   UNL d   1      -9.415 -13.758   0.527 -0.20 +0.04    +0.064 C 
DOCKED: ATOM      2  C   UNL d   1     -13.623 -16.325   0.164 -0.12 +0.01    +0.064 A 
DOCKED: ATOM      3  C   UNL d   1     -14.806 -13.708  -3.687 -0.17 +0.01    +0.064 C 
DOCKED: ATOM      4  C   UNL d   1     -10.788 -11.142  -3.291 -0.37 +0.01    +0.064 C 
DOCKED: ATOM      5  C   UNL d   1     -10.528 -14.667   0.832 -0.13 +0.03    +0.066 A 
DOCKED: ATOM      6  C   UNL d   1     -10.590 -15.498   1.938 -0.11 -0.01    -0.021 A 
DOCKED: ATOM      7  C   UNL d   1     -11.757 -16.214   1.834 -0.10 -0.01    -0.025 A 
DOCKED: ATOM      8  C   UNL d   1     -12.364 -15.790   0.668 -0.05 +0.02    +0.066 A 
DOCKED: ATOM      9  C   UNL d   1     -12.261 -17.228   2.815 -0.05 +0.01    +0.051 C 
DOCKED: ATOM     10  C   UNL d   1     -14.258 -15.894  -0.928 -0.14 +0.01    +0.066 A 
DOCKED: ATOM     11  C   UNL d   1     -15.403 -16.502  -1.449 -0.10 -0.00    -0.021 A 
DOCKED: ATOM     12  C   UNL d   1     -15.755 -15.776  -2.569 -0.10 +0.00    +0.000 A 
DOCKED: ATOM     13  C   UNL d   1     -14.791 -14.758  -2.680 -0.15 +0.01    +0.070 A 
DOCKED: ATOM     14  C   UNL d   1     -16.090 -17.754  -0.943 -0.04 +0.01    +0.052 C 
DOCKED: ATOM     15  C   UNL d   1     -13.853 -12.757  -3.829 -0.20 +0.01    +0.066 A 
DOCKED: ATOM     16  C   UNL d   1     -13.953 -11.713  -4.739 -0.27 -0.00    -0.021 A 
DOCKED: ATOM     17  C   UNL d   1     -12.794 -10.973  -4.629 -0.36 +0.00    +0.000 A 
DOCKED: ATOM     18  C   UNL d   1     -12.010 -11.588  -3.655 -0.29 +0.01    +0.070 A 
DOCKED: ATOM     19  C   UNL d   1     -15.082 -11.433  -5.694 -0.23 +0.00    +0.052 C 
DOCKED: ATOM     20  C   UNL d   1      -9.961 -11.726  -2.228 -0.28 +0.02    +0.066 A 
DOCKED: ATOM     21  C   UNL d   1      -8.620 -11.405  -1.975 -0.28 -0.01    -0.025 A 
DOCKED: ATOM     22  C   UNL d   1      -8.253 -12.152  -0.876 -0.24 -0.01    -0.021 A 
DOCKED: ATOM     23  C   UNL d   1      -9.376 -12.901  -0.506 -0.21 +0.04    +0.066 A 
DOCKED: ATOM     24  C   UNL d   1      -7.722 -10.449  -2.726 -0.23 +0.03    +0.051 C 
DOCKED: ATOM     25  N   UNL d   1     -11.618 -14.843   0.065 -0.01 -0.08    -0.248 N 
DOCKED: ATOM     26  N   UNL d   1     -13.874 -14.835  -1.685 -0.12 -0.03    -0.248 N 
DOCKED: ATOM     27  N   UNL d   1     -12.678 -12.659  -3.132 -0.10 -0.03    -0.248 N 
DOCKED: ATOM     28  N   UNL d   1     -10.401 -12.671  -1.362 -0.14 -0.11    -0.248 N 
DOCKED: ATOM     29 FE   UNL d   1     -12.137 -13.752  -1.524 -0.06 +0.00    +0.000 Fe
DOCKED: ENDROOT
DOCKED: BRANCH   6  30
DOCKED: ATOM     30  C   UNL d   1      -9.602 -15.595   3.050 -0.09 +0.03    +0.052 C 
DOCKED: BRANCH  30  31
DOCKED: ATOM     31  C   UNL d   1      -9.360 -14.227   3.678 -0.19 +0.08    +0.115 C 
DOCKED: BRANCH  31  32
DOCKED: ATOM     32  C   UNL d   1      -7.890 -13.915   3.710 -0.15 +0.19    +0.139 C 
DOCKED: ATOM     33  O   UNL d   1      -7.188 -14.311   4.629 -0.17 -1.03    -0.650 OA
DOCKED: BRANCH  32  34
DOCKED: ATOM     34  O   UNL d   1      -7.333 -13.193   2.723 -0.31 -1.44    -0.776 OA
DOCKED: ATOM     35  H   UNL d   1      -7.422 -13.499   1.809 +0.06 +0.28    +0.167 HD
DOCKED: ENDBRANCH  32  34
DOCKED: ENDBRANCH  31  32
DOCKED: ENDBRANCH  30  31
DOCKED: ENDBRANCH   6  30
DOCKED: BRANCH  22  36
DOCKED: ATOM     36  C   UNL d   1      -6.884 -12.180  -0.248 -0.09 +0.05    +0.052 C 
DOCKED: BRANCH  36  37
DOCKED: ATOM     37  C   UNL d   1      -5.972 -13.102  -1.044 -0.24 +0.18    +0.115 C 
DOCKED: BRANCH  37  38
DOCKED: ATOM     38  C   UNL d   1      -5.591 -14.310  -0.238 -0.14 +0.29    +0.139 C 
DOCKED: ATOM     39  O   UNL d   1      -4.432 -14.697  -0.201 -0.41 -1.42    -0.650 OA
DOCKED: BRANCH  38  40
DOCKED: ATOM     40  O   UNL d   1      -6.530 -14.981   0.453 -0.34 -1.51    -0.776 OA
DOCKED: ATOM     41  H   UNL d   1      -6.804 -14.649   1.319 +0.03 +0.39    +0.167 HD
DOCKED: ENDBRANCH  38  40
DOCKED: ENDBRANCH  37  38
DOCKED: ENDBRANCH  36  37
DOCKED: ENDBRANCH  22  36
DOCKED: BRANCH  12  42
DOCKED: ATOM     42  C   UNL d   1     -16.922 -16.079  -3.453 -0.04 +0.00    +0.004 C 
DOCKED: ATOM     43  C   UNL d   1     -17.961 -15.237  -3.535 -0.05 +0.00    +0.012 C 
DOCKED: ENDBRANCH  12  42
DOCKED: BRANCH  17  44
DOCKED: ATOM     44  C   UNL d   1     -12.466  -9.747  -5.391 -0.53 +0.00    +0.004 C 
DOCKED: ATOM     45  C   UNL d   1     -11.300  -9.631  -6.034 -0.45 +0.00    +0.012 C 
DOCKED: ENDBRANCH  17  44
DOCKED: TORSDOF 10
DOCKED: TER
DOCKED: ENDMDL
________________________________________________________________________________


	BEGINNING GENETIC ALGORITHM DOCKING 50 of 100
Run: 50 Seed: 1302097024 776991265 [ Run 50 of 100 GA/GALS ]
Beginning LAMARCKIAN GENETIC ALGORITHM (LGA), with a maximum of 25000000 energy evaluations.

Final-Value: -13.217


	FINAL GENETIC ALGORITHM DOCKED STATE
	_______________________________________________


Detailed state:  trans -0.150 -15.438 -1.751 quatxyzw 0.614212 0.405830 -0.168916 0.655372 center -0.174 -0.001 -0.047 ntor 10 -86.4178 -177.8479 16.5267 -145.9466 -14.3837 30.4009 123.3053 19.3333 -142.2896 -30.4690
State:	 -0.150 -15.438  -1.751   0.813  0.537 -0.224 98.104    -86.42 -177.85   16.53 -145.95  -14.38   30.40  123.31   19.33 -142.29  -30.47

DOCKED: MODEL       50
DOCKED: USER    Run = 50
DOCKED: USER    DPF = D:/Protein_go_brrr/autodock/final/AncA/heme_Fe/dock.dpf
DOCKED: USER  
DOCKED: USER    Estimated Free Energy of Binding    =   -9.70 kcal/mol  [=(1)+(2)+(3)-(4)]
DOCKED: USER    Estimated Inhibition Constant, Ki   =   77.20 nM (nanomolar)  [Temperature = 298.15 K]
DOCKED: USER    
DOCKED: USER    (1) Final Intermolecular Energy     =  -12.69 kcal/mol
DOCKED: USER        vdW + Hbond + desolv Energy     =   -8.02 kcal/mol
DOCKED: USER        Electrostatic Energy            =   -4.67 kcal/mol
DOCKED: USER    (2) Final Total Internal Energy     =   -0.53 kcal/mol
DOCKED: USER    (3) Torsional Free Energy           =   +2.98 kcal/mol
DOCKED: USER    (4) Unbound System's Energy  [=(2)] =   -0.53 kcal/mol
DOCKED: USER    
DOCKED: USER    
DOCKED: USER    NEWDPF move heme_Fe_opt.pdbqt
DOCKED: USER    NEWDPF about -0.174000 -0.001000 -0.047000
DOCKED: USER    NEWDPF tran0 -0.150191 -15.438277 -1.750538
DOCKED: USER    NEWDPF quaternion0 0.614212 0.405830 -0.168916 0.655372
DOCKED: USER    NEWDPF axisangle0 0.813196 0.537305 -0.223640 98.104206
DOCKED: USER    NEWDPF quat0 0.813196 0.537305 -0.223640 98.104206
DOCKED: USER    NEWDPF dihe0 -86.42 -177.85 16.53 -145.95 -14.38 30.40 123.31 19.33 -142.29 -30.47 
DOCKED: USER  keepresnum = 1 
DOCKED: USER  
DOCKED: REMARK  10 active torsions:
DOCKED: REMARK  status: ('A' for Active; 'I' for Inactive)
DOCKED: REMARK    1  A    between atoms: C_6  and  C_10 
DOCKED: REMARK    2  A    between atoms: C_10  and  C_11 
DOCKED: REMARK    3  A    between atoms: C_11  and  C_12 
DOCKED: REMARK    4  A    between atoms: C_12  and  O_14 
DOCKED: REMARK    5  A    between atoms: C_17  and  C_20 
DOCKED: REMARK    6  A    between atoms: C_24  and  C_27 
DOCKED: REMARK    7  A    between atoms: C_31  and  C_34 
DOCKED: REMARK    8  A    between atoms: C_34  and  C_35 
DOCKED: REMARK    9  A    between atoms: C_35  and  C_36 
DOCKED: REMARK   10  A    between atoms: C_36  and  O_38 
DOCKED: USER                              x       y       z     vdW  Elec       q    Type
DOCKED: USER                           _______ _______ _______ _____ _____    ______ ____
DOCKED: ROOT
DOCKED: ATOM      1  C   UNL d   1      -1.775 -16.520  -2.382 -0.08 +0.08    +0.064 C 
DOCKED: ATOM      2  C   UNL d   1      -0.313 -14.647   1.952 -0.10 +0.05    +0.064 A 
DOCKED: ATOM      3  C   UNL d   1       2.886 -11.928  -0.382 -0.26 +0.02    +0.064 C 
DOCKED: ATOM      4  C   UNL d   1       1.558 -13.805  -4.577 -0.24 +0.03    +0.064 C 
DOCKED: ATOM      5  C   UNL d   1      -1.603 -16.307  -0.939 -0.07 +0.07    +0.066 A 
DOCKED: ATOM      6  C   UNL d   1      -2.279 -17.003   0.050 -0.07 -0.02    -0.021 A 
DOCKED: ATOM      7  C   UNL d   1      -1.875 -16.479   1.253 -0.09 -0.02    -0.025 A 
DOCKED: ATOM      8  C   UNL d   1      -0.966 -15.483   0.952 -0.10 +0.06    +0.066 A 
DOCKED: ATOM      9  C   UNL d   1      -2.326 -16.930   2.608 -0.04 +0.05    +0.051 C 
DOCKED: ATOM     10  C   UNL d   1       0.610 -13.719   1.692 -0.14 +0.04    +0.066 A 
DOCKED: ATOM     11  C   UNL d   1       1.133 -12.856   2.658 -0.23 -0.01    -0.021 A 
DOCKED: ATOM     12  C   UNL d   1       2.046 -12.050   2.007 -0.32 +0.00    +0.000 A 
DOCKED: ATOM     13  C   UNL d   1       2.026 -12.462   0.663 -0.21 +0.02    +0.070 A 
DOCKED: ATOM     14  C   UNL d   1       0.734 -12.757   4.116 -0.31 +0.03    +0.052 C 
DOCKED: ATOM     15  C   UNL d   1       2.834 -12.284  -1.687 -0.16 +0.02    +0.066 A 
DOCKED: ATOM     16  C   UNL d   1       3.739 -11.825  -2.635 -0.23 -0.00    -0.021 A 
DOCKED: ATOM     17  C   UNL d   1       3.356 -12.363  -3.847 -0.23 +0.00    +0.000 A 
DOCKED: ATOM     18  C   UNL d   1       2.221 -13.135  -3.609 -0.16 +0.03    +0.070 A 
DOCKED: ATOM     19  C   UNL d   1       4.904 -10.898  -2.419 -0.34 +0.01    +0.052 C 
DOCKED: ATOM     20  C   UNL d   1       0.398 -14.676  -4.355 -0.17 +0.04    +0.066 A 
DOCKED: ATOM     21  C   UNL d   1      -0.416 -15.213  -5.362 -0.28 -0.02    -0.025 A 
DOCKED: ATOM     22  C   UNL d   1      -1.352 -15.994  -4.715 -0.15 -0.02    -0.021 A 
DOCKED: ATOM     23  C   UNL d   1      -1.077 -15.898  -3.345 -0.12 +0.08    +0.066 A 
DOCKED: ATOM     24  C   UNL d   1      -0.330 -15.006  -6.856 -0.37 +0.03    +0.051 C 
DOCKED: ATOM     25  N   UNL d   1      -0.796 -15.387  -0.382 -0.05 -0.21    -0.248 N 
DOCKED: ATOM     26  N   UNL d   1       1.144 -13.473   0.469 -0.08 -0.11    -0.248 N 
DOCKED: ATOM     27  N   UNL d   1       1.925 -13.123  -2.275 -0.06 -0.09    -0.248 N 
DOCKED: ATOM     28  N   UNL d   1      -0.036 -15.057  -3.129 -0.06 -0.19    -0.248 N 
DOCKED: ATOM     29 FE   UNL d   1       0.554 -14.265  -1.332 -0.02 +0.00    +0.000 Fe
DOCKED: ENDROOT
DOCKED: BRANCH   6  30
DOCKED: ATOM     30  C   UNL d   1      -3.244 -18.123  -0.135 -0.03 +0.05    +0.052 C 
DOCKED: BRANCH  30  31
DOCKED: ATOM     31  C   UNL d   1      -4.348 -17.729  -1.111 -0.06 +0.14    +0.115 C 
DOCKED: BRANCH  31  32
DOCKED: ATOM     32  C   UNL d   1      -5.051 -16.487  -0.636 -0.10 +0.24    +0.139 C 
DOCKED: ATOM     33  O   UNL d   1      -4.903 -16.087   0.510 -0.40 -1.37    -0.650 OA
DOCKED: BRANCH  32  34
DOCKED: ATOM     34  O   UNL d   1      -5.850 -15.804  -1.472 -0.32 -1.89    -0.776 OA
DOCKED: ATOM     35  H   UNL d   1      -6.798 -15.997  -1.478 +0.02 +0.27    +0.167 HD
DOCKED: ENDBRANCH  32  34
DOCKED: ENDBRANCH  31  32
DOCKED: ENDBRANCH  30  31
DOCKED: ENDBRANCH   6  30
DOCKED: BRANCH  22  36
DOCKED: ATOM     36  C   UNL d   1      -2.475 -16.749  -5.374 +0.11 +0.07    +0.052 C 
DOCKED: BRANCH  36  37
DOCKED: ATOM     37  C   UNL d   1      -1.907 -17.865  -6.238 -0.16 +0.11    +0.115 C 
DOCKED: BRANCH  37  38
DOCKED: ATOM     38  C   UNL d   1      -2.920 -18.341  -7.240 -0.17 +0.20    +0.139 C 
DOCKED: ATOM     39  O   UNL d   1      -3.765 -17.578  -7.686 -0.44 -1.10    -0.650 OA
DOCKED: BRANCH  38  40
DOCKED: ATOM     40  O   UNL d   1      -2.907 -19.621  -7.653 -0.31 -1.53    -0.776 OA
DOCKED: ATOM     41  H   UNL d   1      -2.256 -20.229  -7.275 +0.02 +0.20    +0.167 HD
DOCKED: ENDBRANCH  38  40
DOCKED: ENDBRANCH  37  38
DOCKED: ENDBRANCH  36  37
DOCKED: ENDBRANCH  22  36
DOCKED: BRANCH  12  42
DOCKED: ATOM     42  C   UNL d   1       2.845 -10.964   2.655 -0.27 +0.00    +0.004 C 
DOCKED: ATOM     43  C   UNL d   1       3.750 -11.246   3.602 -0.25 +0.00    +0.012 C 
DOCKED: ENDBRANCH  12  42
DOCKED: BRANCH  17  44
DOCKED: ATOM     44  C   UNL d   1       4.042 -12.167  -5.143 -0.38 +0.00    +0.004 C 
DOCKED: ATOM     45  C   UNL d   1       3.681 -11.177  -5.967 -0.54 +0.00    +0.012 C 
DOCKED: ENDBRANCH  17  44
DOCKED: TORSDOF 10
DOCKED: TER
DOCKED: ENDMDL
________________________________________________________________________________


	BEGINNING GENETIC ALGORITHM DOCKING 51 of 100
Run: 51 Seed: 373567796 31005965 [ Run 51 of 100 GA/GALS ]
Beginning LAMARCKIAN GENETIC ALGORITHM (LGA), with a maximum of 25000000 energy evaluations.

Final-Value: -14.455


	FINAL GENETIC ALGORITHM DOCKED STATE
	_______________________________________________


Detailed state:  trans -10.204 -14.016 -3.826 quatxyzw -0.430883 -0.098949 0.894334 0.068668 center -0.174 -0.001 -0.047 ntor 10 46.1904 84.1302 65.6422 37.2484 -128.2768 -133.7190 -69.9618 -54.9801 -158.5425 -8.5451
State:	-10.204 -14.016  -3.826  -0.432 -0.099  0.896 172.125     46.19   84.13   65.64   37.25 -128.28 -133.72  -69.96  -54.98 -158.54   -8.55

DOCKED: MODEL       51
DOCKED: USER    Run = 51
DOCKED: USER    DPF = D:/Protein_go_brrr/autodock/final/AncA/heme_Fe/dock.dpf
DOCKED: USER  
DOCKED: USER    Estimated Free Energy of Binding    =   -8.81 kcal/mol  [=(1)+(2)+(3)-(4)]
DOCKED: USER    Estimated Inhibition Constant, Ki   =  350.55 nM (nanomolar)  [Temperature = 298.15 K]
DOCKED: USER    
DOCKED: USER    (1) Final Intermolecular Energy     =  -11.79 kcal/mol
DOCKED: USER        vdW + Hbond + desolv Energy     =   -8.22 kcal/mol
DOCKED: USER        Electrostatic Energy            =   -3.57 kcal/mol
DOCKED: USER    (2) Final Total Internal Energy     =   -2.67 kcal/mol
DOCKED: USER    (3) Torsional Free Energy           =   +2.98 kcal/mol
DOCKED: USER    (4) Unbound System's Energy  [=(2)] =   -2.67 kcal/mol
DOCKED: USER    
DOCKED: USER    
DOCKED: USER    NEWDPF move heme_Fe_opt.pdbqt
DOCKED: USER    NEWDPF about -0.174000 -0.001000 -0.047000
DOCKED: USER    NEWDPF tran0 -10.203894 -14.016042 -3.825603
DOCKED: USER    NEWDPF quaternion0 -0.430883 -0.098949 0.894334 0.068668
DOCKED: USER    NEWDPF axisangle0 -0.431902 -0.099183 0.896450 172.125027
DOCKED: USER    NEWDPF quat0 -0.431902 -0.099183 0.896450 172.125027
DOCKED: USER    NEWDPF dihe0 46.19 84.13 65.64 37.25 -128.28 -133.72 -69.96 -54.98 -158.54 -8.55 
DOCKED: USER  keepresnum = 1 
DOCKED: USER  
DOCKED: REMARK  10 active torsions:
DOCKED: REMARK  status: ('A' for Active; 'I' for Inactive)
DOCKED: REMARK    1  A    between atoms: C_6  and  C_10 
DOCKED: REMARK    2  A    between atoms: C_10  and  C_11 
DOCKED: REMARK    3  A    between atoms: C_11  and  C_12 
DOCKED: REMARK    4  A    between atoms: C_12  and  O_14 
DOCKED: REMARK    5  A    between atoms: C_17  and  C_20 
DOCKED: REMARK    6  A    between atoms: C_24  and  C_27 
DOCKED: REMARK    7  A    between atoms: C_31  and  C_34 
DOCKED: REMARK    8  A    between atoms: C_34  and  C_35 
DOCKED: REMARK    9  A    between atoms: C_35  and  C_36 
DOCKED: REMARK   10  A    between atoms: C_36  and  O_38 
DOCKED: USER                              x       y       z     vdW  Elec       q    Type
DOCKED: USER                           _______ _______ _______ _____ _____    ______ ____
DOCKED: ROOT
DOCKED: ATOM      1  C   UNL d   1      -9.392 -14.010  -1.941 -0.16 +0.04    +0.064 C 
DOCKED: ATOM      2  C   UNL d   1     -12.199 -10.873  -4.532 -0.36 +0.00    +0.064 A 
DOCKED: ATOM      3  C   UNL d   1     -13.142 -14.401  -7.651 -0.18 +0.00    +0.064 C 
DOCKED: ATOM      4  C   UNL d   1     -10.346 -17.425  -5.217 -0.11 +0.03    +0.064 C 
DOCKED: ATOM      5  C   UNL d   1     -10.027 -12.777  -2.427 -0.19 +0.03    +0.066 A 
DOCKED: ATOM      6  C   UNL d   1      -9.883 -11.530  -1.842 -0.33 -0.01    -0.021 A 
DOCKED: ATOM      7  C   UNL d   1     -10.666 -10.660  -2.560 -0.41 -0.00    -0.025 A 
DOCKED: ATOM      8  C   UNL d   1     -11.258 -11.411  -3.556 -0.31 +0.01    +0.066 A 
DOCKED: ATOM      9  C   UNL d   1     -10.813  -9.191  -2.307 -0.48 +0.00    +0.051 C 
DOCKED: ATOM     10  C   UNL d   1     -12.740 -11.562  -5.537 -0.33 +0.01    +0.066 A 
DOCKED: ATOM     11  C   UNL d   1     -13.725 -11.050  -6.386 -0.33 +0.00    -0.021 A 
DOCKED: ATOM     12  C   UNL d   1     -14.026 -12.054  -7.284 -0.24 +0.00    +0.000 A 
DOCKED: ATOM     13  C   UNL d   1     -13.208 -13.140  -6.929 -0.25 +0.01    +0.070 A 
DOCKED: ATOM     14  C   UNL d   1     -14.396  -9.694  -6.302 -0.38 +0.00    +0.052 C 
DOCKED: ATOM     15  C   UNL d   1     -12.394 -15.468  -7.283 -0.16 +0.01    +0.066 A 
DOCKED: ATOM     16  C   UNL d   1     -12.281 -16.618  -8.053 -0.14 -0.00    -0.021 A 
DOCKED: ATOM     17  C   UNL d   1     -11.478 -17.493  -7.352 -0.16 +0.00    +0.000 A 
DOCKED: ATOM     18  C   UNL d   1     -11.122 -16.856  -6.165 -0.15 +0.03    +0.070 A 
DOCKED: ATOM     19  C   UNL d   1     -12.923 -16.896  -9.386 -0.15 +0.01    +0.052 C 
DOCKED: ATOM     20  C   UNL d   1      -9.900 -16.763  -3.985 -0.08 +0.03    +0.066 A 
DOCKED: ATOM     21  C   UNL d   1      -9.268 -17.399  -2.907 -0.04 -0.01    -0.025 A 
DOCKED: ATOM     22  C   UNL d   1      -8.994 -16.405  -1.990 -0.05 -0.01    -0.021 A 
DOCKED: ATOM     23  C   UNL d   1      -9.473 -15.209  -2.539 -0.09 +0.04    +0.066 A 
DOCKED: ATOM     24  C   UNL d   1      -8.939 -18.864  -2.737 -0.01 +0.03    +0.051 C 
DOCKED: ATOM     25  N   UNL d   1     -10.861 -12.696  -3.479 -0.04 -0.08    -0.248 N 
DOCKED: ATOM     26  N   UNL d   1     -12.430 -12.844  -5.859 -0.19 -0.04    -0.248 N 
DOCKED: ATOM     27  N   UNL d   1     -11.648 -15.595  -6.141 -0.14 -0.07    -0.248 N 
DOCKED: ATOM     28  N   UNL d   1     -10.065 -15.441  -3.736 -0.05 -0.13    -0.248 N 
DOCKED: ATOM     29 FE   UNL d   1     -11.247 -14.144  -4.798 -0.05 +0.00    +0.000 Fe
DOCKED: ENDROOT
DOCKED: BRANCH   6  30
DOCKED: ATOM     30  C   UNL d   1      -9.028 -11.175  -0.673 -0.23 +0.02    +0.052 C 
DOCKED: BRANCH  30  31
DOCKED: ATOM     31  C   UNL d   1      -9.580 -11.793   0.607 -0.34 +0.07    +0.115 C 
DOCKED: BRANCH  31  32
DOCKED: ATOM     32  C   UNL d   1      -8.675 -12.892   1.093 -0.27 +0.12    +0.139 C 
DOCKED: ATOM     33  O   UNL d   1      -9.124 -13.999   1.354 +0.02 -0.51    -0.650 OA
DOCKED: BRANCH  32  34
DOCKED: ATOM     34  O   UNL d   1      -7.360 -12.664   1.246 -0.42 -1.02    -0.776 OA
DOCKED: ATOM     35  H   UNL d   1      -6.728 -13.312   0.904 +0.05 +0.29    +0.167 HD
DOCKED: ENDBRANCH  32  34
DOCKED: ENDBRANCH  31  32
DOCKED: ENDBRANCH  30  31
DOCKED: ENDBRANCH   6  30
DOCKED: BRANCH  22  36
DOCKED: ATOM     36  C   UNL d   1      -8.352 -16.604  -0.642 -0.03 +0.04    +0.052 C 
DOCKED: BRANCH  36  37
DOCKED: ATOM     37  C   UNL d   1      -6.839 -16.519  -0.777 -0.07 +0.15    +0.115 C 
DOCKED: BRANCH  37  38
DOCKED: ATOM     38  C   UNL d   1      -6.274 -15.472   0.141 -0.07 +0.26    +0.139 C 
DOCKED: ATOM     39  O   UNL d   1      -5.447 -14.668  -0.262 -0.61 -1.41    -0.650 OA
DOCKED: BRANCH  38  40
DOCKED: ATOM     40  O   UNL d   1      -6.676 -15.417   1.423 +0.12 -1.80    -0.776 OA
DOCKED: ATOM     41  H   UNL d   1      -7.381 -14.802   1.668 +0.03 +0.30    +0.167 HD
DOCKED: ENDBRANCH  38  40
DOCKED: ENDBRANCH  37  38
DOCKED: ENDBRANCH  36  37
DOCKED: ENDBRANCH  22  36
DOCKED: BRANCH  12  42
DOCKED: ATOM     42  C   UNL d   1     -15.043 -11.949  -8.376 -0.22 +0.00    +0.004 C 
DOCKED: ATOM     43  C   UNL d   1     -14.676 -11.966  -9.664 -0.32 +0.00    +0.012 C 
DOCKED: ENDBRANCH  12  42
DOCKED: BRANCH  17  44
DOCKED: ATOM     44  C   UNL d   1     -11.062 -18.842  -7.797 -0.13 +0.00    +0.004 C 
DOCKED: ATOM     45  C   UNL d   1      -9.929 -19.016  -8.486 -0.19 +0.01    +0.012 C 
DOCKED: ENDBRANCH  17  44
DOCKED: TORSDOF 10
DOCKED: TER
DOCKED: ENDMDL
________________________________________________________________________________


	BEGINNING GENETIC ALGORITHM DOCKING 52 of 100
Run: 52 Seed: 1178167832 1887345823 [ Run 52 of 100 GA/GALS ]
Beginning LAMARCKIAN GENETIC ALGORITHM (LGA), with a maximum of 25000000 energy evaluations.

Final-Value: -20.554


	FINAL GENETIC ALGORITHM DOCKED STATE
	_______________________________________________


Detailed state:  trans -4.919 -9.314 -3.227 quatxyzw -0.074990 -0.003731 0.675343 -0.733672 center -0.174 -0.001 -0.047 ntor 10 80.2229 15.8064 65.4159 -101.5627 170.8913 -23.1669 -30.4126 63.5668 164.4835 145.7268
State:	 -4.919  -9.314  -3.227  -0.110 -0.005  0.994 -85.610     80.22   15.81   65.42 -101.56  170.89  -23.17  -30.41   63.57  164.48  145.73

DOCKED: MODEL       52
DOCKED: USER    Run = 52
DOCKED: USER    DPF = D:/Protein_go_brrr/autodock/final/AncA/heme_Fe/dock.dpf
DOCKED: USER  
DOCKED: USER    Estimated Free Energy of Binding    =  -15.37 kcal/mol  [=(1)+(2)+(3)-(4)]
DOCKED: USER    Estimated Inhibition Constant, Ki   =    5.40 pM (picomolar)  [Temperature = 298.15 K]
DOCKED: USER    
DOCKED: USER    (1) Final Intermolecular Energy     =  -18.35 kcal/mol
DOCKED: USER        vdW + Hbond + desolv Energy     =  -13.94 kcal/mol
DOCKED: USER        Electrostatic Energy            =   -4.41 kcal/mol
DOCKED: USER    (2) Final Total Internal Energy     =   -2.20 kcal/mol
DOCKED: USER    (3) Torsional Free Energy           =   +2.98 kcal/mol
DOCKED: USER    (4) Unbound System's Energy  [=(2)] =   -2.20 kcal/mol
DOCKED: USER    
DOCKED: USER    
DOCKED: USER    NEWDPF move heme_Fe_opt.pdbqt
DOCKED: USER    NEWDPF about -0.174000 -0.001000 -0.047000
DOCKED: USER    NEWDPF tran0 -4.918623 -9.314230 -3.227379
DOCKED: USER    NEWDPF quaternion0 -0.074990 -0.003731 0.675343 -0.733672
DOCKED: USER    NEWDPF axisangle0 -0.110361 -0.005490 0.993876 -85.609813
DOCKED: USER    NEWDPF quat0 -0.110361 -0.005490 0.993876 -85.609813
DOCKED: USER    NEWDPF dihe0 80.22 15.81 65.42 -101.56 170.89 -23.17 -30.41 63.57 164.48 145.73 
DOCKED: USER  keepresnum = 1 
DOCKED: USER  
DOCKED: REMARK  10 active torsions:
DOCKED: REMARK  status: ('A' for Active; 'I' for Inactive)
DOCKED: REMARK    1  A    between atoms: C_6  and  C_10 
DOCKED: REMARK    2  A    between atoms: C_10  and  C_11 
DOCKED: REMARK    3  A    between atoms: C_11  and  C_12 
DOCKED: REMARK    4  A    between atoms: C_12  and  O_14 
DOCKED: REMARK    5  A    between atoms: C_17  and  C_20 
DOCKED: REMARK    6  A    between atoms: C_24  and  C_27 
DOCKED: REMARK    7  A    between atoms: C_31  and  C_34 
DOCKED: REMARK    8  A    between atoms: C_34  and  C_35 
DOCKED: REMARK    9  A    between atoms: C_35  and  C_36 
DOCKED: REMARK   10  A    between atoms: C_36  and  O_38 
DOCKED: USER                              x       y       z     vdW  Elec       q    Type
DOCKED: USER                           _______ _______ _______ _____ _____    ______ ____
DOCKED: ROOT
DOCKED: ATOM      1  C   UNL d   1      -5.091 -11.227  -2.505 -0.36 +0.06    +0.064 C 
DOCKED: ATOM      2  C   UNL d   1      -1.456  -7.881  -2.664 -0.44 +0.02    +0.064 A 
DOCKED: ATOM      3  C   UNL d   1      -4.704  -4.506  -3.730 -0.35 +0.01    +0.064 C 
DOCKED: ATOM      4  C   UNL d   1      -8.222  -7.748  -3.685 -0.49 +0.02    +0.064 C 
DOCKED: ATOM      5  C   UNL d   1      -3.756 -10.614  -2.533 -0.34 +0.05    +0.066 A 
DOCKED: ATOM      6  C   UNL d   1      -2.565 -11.305  -2.380 -0.31 -0.02    -0.021 A 
DOCKED: ATOM      7  C   UNL d   1      -1.556 -10.374  -2.420 -0.25 -0.01    -0.025 A 
DOCKED: ATOM      8  C   UNL d   1      -2.171  -9.150  -2.597 -0.39 +0.03    +0.066 A 
DOCKED: ATOM      9  C   UNL d   1      -0.089 -10.657  -2.313 -0.33 +0.02    +0.051 C 
DOCKED: ATOM     10  C   UNL d   1      -2.020  -6.693  -2.891 -0.42 +0.02    +0.066 A 
DOCKED: ATOM     11  C   UNL d   1      -1.325  -5.483  -2.836 -0.45 -0.00    -0.021 A 
DOCKED: ATOM     12  C   UNL d   1      -2.243  -4.492  -3.123 -0.41 +0.00    +0.000 A 
DOCKED: ATOM     13  C   UNL d   1      -3.464  -5.156  -3.333 -0.37 +0.01    +0.070 A 
DOCKED: ATOM     14  C   UNL d   1       0.128  -5.273  -2.459 -0.46 +0.00    +0.052 C 
DOCKED: ATOM     15  C   UNL d   1      -5.893  -5.134  -3.883 -0.39 +0.02    +0.066 A 
DOCKED: ATOM     16  C   UNL d   1      -7.032  -4.496  -4.360 -0.46 -0.00    -0.021 A 
DOCKED: ATOM     17  C   UNL d   1      -8.049  -5.428  -4.344 -0.48 +0.00    +0.000 A 
DOCKED: ATOM     18  C   UNL d   1      -7.507  -6.614  -3.853 -0.41 +0.02    +0.070 A 
DOCKED: ATOM     19  C   UNL d   1      -7.168  -3.060  -4.790 -0.62 +0.01    +0.052 C 
DOCKED: ATOM     20  C   UNL d   1      -7.672  -9.030  -3.229 -0.33 +0.02    +0.066 A 
DOCKED: ATOM     21  C   UNL d   1      -8.430 -10.151  -2.860 -0.31 -0.01    -0.025 A 
DOCKED: ATOM     22  C   UNL d   1      -7.517 -11.135  -2.540 -0.18 -0.01    -0.021 A 
DOCKED: ATOM     23  C   UNL d   1      -6.246 -10.577  -2.719 -0.19 +0.05    +0.066 A 
DOCKED: ATOM     24  C   UNL d   1      -9.933 -10.297  -2.805 -0.45 +0.01    +0.051 C 
DOCKED: ATOM     25  N   UNL d   1      -3.509  -9.300  -2.675 -0.24 -0.12    -0.248 N 
DOCKED: ATOM     26  N   UNL d   1      -3.331  -6.497  -3.183 -0.25 -0.07    -0.248 N 
DOCKED: ATOM     27  N   UNL d   1      -6.172  -6.447  -3.611 -0.21 -0.10    -0.248 N 
DOCKED: ATOM     28  N   UNL d   1      -6.347  -9.279  -3.096 -0.21 -0.12    -0.248 N 
DOCKED: ATOM     29 FE   UNL d   1      -4.841  -7.888  -3.140 -0.09 +0.00    +0.000 Fe
DOCKED: ENDROOT
DOCKED: BRANCH   6  30
DOCKED: ATOM     30  C   UNL d   1      -2.390 -12.776  -2.224 -0.23 +0.07    +0.052 C 
DOCKED: BRANCH  30  31
DOCKED: ATOM     31  C   UNL d   1      -2.028 -13.128  -0.785 -0.21 +0.13    +0.115 C 
DOCKED: BRANCH  31  32
DOCKED: ATOM     32  C   UNL d   1      -2.551 -14.492  -0.429 -0.16 +0.20    +0.139 C 
DOCKED: ATOM     33  O   UNL d   1      -2.226 -15.030   0.620 -0.00 -0.87    -0.650 OA
DOCKED: BRANCH  32  34
DOCKED: ATOM     34  O   UNL d   1      -3.384 -15.134  -1.265 +0.19 -1.74    -0.776 OA
DOCKED: ATOM     35  H   UNL d   1      -4.335 -15.120  -1.084 +0.02 +0.42    +0.167 HD
DOCKED: ENDBRANCH  32  34
DOCKED: ENDBRANCH  31  32
DOCKED: ENDBRANCH  30  31
DOCKED: ENDBRANCH   6  30
DOCKED: BRANCH  22  36
DOCKED: ATOM     36  C   UNL d   1      -7.851 -12.516  -2.043 -0.27 +0.04    +0.052 C 
DOCKED: BRANCH  36  37
DOCKED: ATOM     37  C   UNL d   1      -7.294 -12.706  -0.640 -0.22 +0.12    +0.115 C 
DOCKED: BRANCH  37  38
DOCKED: ATOM     38  C   UNL d   1      -6.267 -13.801  -0.611 -0.20 +0.23    +0.139 C 
DOCKED: ATOM     39  O   UNL d   1      -6.261 -14.676  -1.465 -0.39 -1.51    -0.650 OA
DOCKED: BRANCH  38  40
DOCKED: ATOM     40  O   UNL d   1      -5.341 -13.828   0.364 -0.12 -1.83    -0.776 OA
DOCKED: ATOM     41  H   UNL d   1      -4.559 -14.387   0.255 +0.03 +0.41    +0.167 HD
DOCKED: ENDBRANCH  38  40
DOCKED: ENDBRANCH  37  38
DOCKED: ENDBRANCH  36  37
DOCKED: ENDBRANCH  22  36
DOCKED: BRANCH  12  42
DOCKED: ATOM     42  C   UNL d   1      -1.938  -3.029  -3.164 -0.39 +0.00    +0.004 C 
DOCKED: ATOM     43  C   UNL d   1      -1.994  -2.345  -4.315 -0.56 +0.00    +0.012 C 
DOCKED: ENDBRANCH  12  42
DOCKED: BRANCH  17  44
DOCKED: ATOM     44  C   UNL d   1      -9.443  -5.205  -4.789 -0.54 +0.00    +0.004 C 
DOCKED: ATOM     45  C   UNL d   1     -10.125  -4.127  -4.389 -0.67 +0.00    +0.012 C 
DOCKED: ENDBRANCH  17  44
DOCKED: TORSDOF 10
DOCKED: TER
DOCKED: ENDMDL
________________________________________________________________________________


	BEGINNING GENETIC ALGORITHM DOCKING 53 of 100
Run: 53 Seed: 794322780 1945927520 [ Run 53 of 100 GA/GALS ]
Beginning LAMARCKIAN GENETIC ALGORITHM (LGA), with a maximum of 25000000 energy evaluations.

Final-Value: -19.862


	FINAL GENETIC ALGORITHM DOCKED STATE
	_______________________________________________


Detailed state:  trans -4.982 -9.177 -3.260 quatxyzw 0.074484 -0.006453 -0.667161 0.741153 center -0.174 -0.001 -0.047 ntor 10 -71.2930 -51.4558 72.2411 -105.5153 43.6328 161.8016 -31.0430 69.0679 -172.4535 -169.9981
State:	 -4.982  -9.177  -3.260   0.111 -0.010 -0.994 84.341    -71.29  -51.46   72.24 -105.52   43.63  161.80  -31.04   69.07 -172.45 -170.00

DOCKED: MODEL       53
DOCKED: USER    Run = 53
DOCKED: USER    DPF = D:/Protein_go_brrr/autodock/final/AncA/heme_Fe/dock.dpf
DOCKED: USER  
DOCKED: USER    Estimated Free Energy of Binding    =  -15.52 kcal/mol  [=(1)+(2)+(3)-(4)]
DOCKED: USER    Estimated Inhibition Constant, Ki   =    4.19 pM (picomolar)  [Temperature = 298.15 K]
DOCKED: USER    
DOCKED: USER    (1) Final Intermolecular Energy     =  -18.50 kcal/mol
DOCKED: USER        vdW + Hbond + desolv Energy     =  -14.71 kcal/mol
DOCKED: USER        Electrostatic Energy            =   -3.79 kcal/mol
DOCKED: USER    (2) Final Total Internal Energy     =   -1.36 kcal/mol
DOCKED: USER    (3) Torsional Free Energy           =   +2.98 kcal/mol
DOCKED: USER    (4) Unbound System's Energy  [=(2)] =   -1.36 kcal/mol
DOCKED: USER    
DOCKED: USER    
DOCKED: USER    NEWDPF move heme_Fe_opt.pdbqt
DOCKED: USER    NEWDPF about -0.174000 -0.001000 -0.047000
DOCKED: USER    NEWDPF tran0 -4.981911 -9.176568 -3.259751
DOCKED: USER    NEWDPF quaternion0 0.074484 -0.006453 -0.667161 0.741153
DOCKED: USER    NEWDPF axisangle0 0.110949 -0.009612 -0.993780 84.340595
DOCKED: USER    NEWDPF quat0 0.110949 -0.009612 -0.993780 84.340595
DOCKED: USER    NEWDPF dihe0 -71.29 -51.46 72.24 -105.52 43.63 161.80 -31.04 69.07 -172.45 -170.00 
DOCKED: USER  keepresnum = 1 
DOCKED: USER  
DOCKED: REMARK  10 active torsions:
DOCKED: REMARK  status: ('A' for Active; 'I' for Inactive)
DOCKED: REMARK    1  A    between atoms: C_6  and  C_10 
DOCKED: REMARK    2  A    between atoms: C_10  and  C_11 
DOCKED: REMARK    3  A    between atoms: C_11  and  C_12 
DOCKED: REMARK    4  A    between atoms: C_12  and  O_14 
DOCKED: REMARK    5  A    between atoms: C_17  and  C_20 
DOCKED: REMARK    6  A    between atoms: C_24  and  C_27 
DOCKED: REMARK    7  A    between atoms: C_31  and  C_34 
DOCKED: REMARK    8  A    between atoms: C_34  and  C_35 
DOCKED: REMARK    9  A    between atoms: C_35  and  C_36 
DOCKED: REMARK   10  A    between atoms: C_36  and  O_38 
DOCKED: USER                              x       y       z     vdW  Elec       q    Type
DOCKED: USER                           _______ _______ _______ _____ _____    ______ ____
DOCKED: ROOT
DOCKED: ATOM      1  C   UNL d   1      -5.189 -11.076  -2.512 -0.36 +0.06    +0.064 C 
DOCKED: ATOM      2  C   UNL d   1      -1.479  -7.819  -2.763 -0.43 +0.02    +0.064 A 
DOCKED: ATOM      3  C   UNL d   1      -4.661  -4.381  -3.823 -0.35 +0.01    +0.064 C 
DOCKED: ATOM      4  C   UNL d   1      -8.254  -7.538  -3.688 -0.49 +0.02    +0.064 C 
DOCKED: ATOM      5  C   UNL d   1      -3.840 -10.495  -2.567 -0.34 +0.05    +0.066 A 
DOCKED: ATOM      6  C   UNL d   1      -2.664 -11.212  -2.422 -0.32 -0.02    -0.021 A 
DOCKED: ATOM      7  C   UNL d   1      -1.634 -10.306  -2.488 -0.23 -0.01    -0.025 A 
DOCKED: ATOM      8  C   UNL d   1      -2.222  -9.070  -2.671 -0.39 +0.03    +0.066 A 
DOCKED: ATOM      9  C   UNL d   1      -0.173 -10.623  -2.399 -0.26 +0.02    +0.051 C 
DOCKED: ATOM     10  C   UNL d   1      -2.018  -6.621  -2.997 -0.42 +0.02    +0.066 A 
DOCKED: ATOM     11  C   UNL d   1      -1.294  -5.427  -2.965 -0.46 -0.00    -0.021 A 
DOCKED: ATOM     12  C   UNL d   1      -2.192  -4.419  -3.251 -0.41 +0.00    +0.000 A 
DOCKED: ATOM     13  C   UNL d   1      -3.432  -5.055  -3.436 -0.37 +0.01    +0.070 A 
DOCKED: ATOM     14  C   UNL d   1       0.169  -5.248  -2.612 -0.53 +0.00    +0.052 C 
DOCKED: ATOM     15  C   UNL d   1      -5.868  -4.982  -3.951 -0.39 +0.01    +0.066 A 
DOCKED: ATOM     16  C   UNL d   1      -6.997  -4.323  -4.419 -0.46 -0.00    -0.021 A 
DOCKED: ATOM     17  C   UNL d   1      -8.035  -5.231  -4.378 -0.48 +0.00    +0.000 A 
DOCKED: ATOM     18  C   UNL d   1      -7.515  -6.423  -3.881 -0.41 +0.02    +0.070 A 
DOCKED: ATOM     19  C   UNL d   1      -7.106  -2.890  -4.865 -0.63 +0.01    +0.052 C 
DOCKED: ATOM     20  C   UNL d   1      -7.728  -8.827  -3.226 -0.36 +0.02    +0.066 A 
DOCKED: ATOM     21  C   UNL d   1      -8.506  -9.925  -2.832 -0.33 -0.01    -0.025 A 
DOCKED: ATOM     22  C   UNL d   1      -7.612 -10.927  -2.513 -0.17 -0.01    -0.021 A 
DOCKED: ATOM     23  C   UNL d   1      -6.331 -10.401  -2.717 -0.13 +0.04    +0.066 A 
DOCKED: ATOM     24  C   UNL d   1     -10.011 -10.035  -2.754 -0.48 +0.01    +0.051 C 
DOCKED: ATOM     25  N   UNL d   1      -3.564  -9.189  -2.728 -0.24 -0.12    -0.248 N 
DOCKED: ATOM     26  N   UNL d   1      -3.328  -6.397  -3.272 -0.25 -0.07    -0.248 N 
DOCKED: ATOM     27  N   UNL d   1      -6.173  -6.285  -3.659 -0.23 -0.09    -0.248 N 
DOCKED: ATOM     28  N   UNL d   1      -6.407  -9.106  -3.108 -0.22 -0.12    -0.248 N 
DOCKED: ATOM     29 FE   UNL d   1      -4.869  -7.751  -3.190 -0.09 +0.00    +0.000 Fe
DOCKED: ENDROOT
DOCKED: BRANCH   6  30
DOCKED: ATOM     30  C   UNL d   1      -2.521 -12.686  -2.251 -0.24 +0.08    +0.052 C 
DOCKED: BRANCH  30  31
DOCKED: ATOM     31  C   UNL d   1      -2.714 -13.081  -0.791 -0.17 +0.15    +0.115 C 
DOCKED: BRANCH  31  32
DOCKED: ATOM     32  C   UNL d   1      -3.311 -14.458  -0.693 -0.15 +0.26    +0.139 C 
DOCKED: ATOM     33  O   UNL d   1      -2.902 -15.366  -1.404 -0.01 -1.28    -0.650 OA
DOCKED: BRANCH  32  34
DOCKED: ATOM     34  O   UNL d   1      -4.302 -14.703   0.180 -0.32 -1.79    -0.776 OA
DOCKED: ATOM     35  H   UNL d   1      -5.197 -14.853  -0.156 +0.02 +0.38    +0.167 HD
DOCKED: ENDBRANCH  32  34
DOCKED: ENDBRANCH  31  32
DOCKED: ENDBRANCH  30  31
DOCKED: ENDBRANCH   6  30
DOCKED: BRANCH  22  36
DOCKED: ATOM     36  C   UNL d   1      -7.972 -12.294  -1.995 -0.27 +0.04    +0.052 C 
DOCKED: BRANCH  36  37
DOCKED: ATOM     37  C   UNL d   1      -8.437 -12.190  -0.550 -0.25 +0.08    +0.115 C 
DOCKED: BRANCH  37  38
DOCKED: ATOM     38  C   UNL d   1      -7.451 -12.835   0.382 -0.22 +0.16    +0.139 C 
DOCKED: ATOM     39  O   UNL d   1      -7.460 -12.578   1.577 -0.62 -0.86    -0.650 OA
DOCKED: BRANCH  38  40
DOCKED: ATOM     40  O   UNL d   1      -6.543 -13.702  -0.098 -0.06 -1.22    -0.776 OA
DOCKED: ATOM     41  H   UNL d   1      -5.608 -13.570   0.114 +0.04 +0.32    +0.167 HD
DOCKED: ENDBRANCH  38  40
DOCKED: ENDBRANCH  37  38
DOCKED: ENDBRANCH  36  37
DOCKED: ENDBRANCH  22  36
DOCKED: BRANCH  12  42
DOCKED: ATOM     42  C   UNL d   1      -1.853  -2.963  -3.315 -0.44 +0.00    +0.004 C 
DOCKED: ATOM     43  C   UNL d   1      -2.039  -2.261  -4.440 -0.58 +0.00    +0.012 C 
DOCKED: ENDBRANCH  12  42
DOCKED: BRANCH  17  44
DOCKED: ATOM     44  C   UNL d   1      -9.430  -4.980  -4.806 -0.53 +0.00    +0.004 C 
DOCKED: ATOM     45  C   UNL d   1     -10.108  -3.922  -4.346 -0.69 +0.00    +0.012 C 
DOCKED: ENDBRANCH  17  44
DOCKED: TORSDOF 10
DOCKED: TER
DOCKED: ENDMDL
________________________________________________________________________________


	BEGINNING GENETIC ALGORITHM DOCKING 54 of 100
Run: 54 Seed: 2096033067 1016721075 [ Run 54 of 100 GA/GALS ]
Beginning LAMARCKIAN GENETIC ALGORITHM (LGA), with a maximum of 25000000 energy evaluations.

Final-Value: -20.509


	FINAL GENETIC ALGORITHM DOCKED STATE
	_______________________________________________


Detailed state:  trans -4.937 -9.202 -3.269 quatxyzw -0.071197 -0.006330 0.662413 -0.745721 center -0.174 -0.001 -0.047 ntor 10 -131.5950 -10.9445 65.5174 -111.4906 49.3164 -179.5456 -24.3235 57.9540 179.9048 157.0511
State:	 -4.937  -9.202  -3.269  -0.107 -0.010  0.994 -83.558   -131.60  -10.94   65.52 -111.49   49.32 -179.55  -24.32   57.95  179.90  157.05

DOCKED: MODEL       54
DOCKED: USER    Run = 54
DOCKED: USER    DPF = D:/Protein_go_brrr/autodock/final/AncA/heme_Fe/dock.dpf
DOCKED: USER  
DOCKED: USER    Estimated Free Energy of Binding    =  -15.53 kcal/mol  [=(1)+(2)+(3)-(4)]
DOCKED: USER    Estimated Inhibition Constant, Ki   =    4.12 pM (picomolar)  [Temperature = 298.15 K]
DOCKED: USER    
DOCKED: USER    (1) Final Intermolecular Energy     =  -18.51 kcal/mol
DOCKED: USER        vdW + Hbond + desolv Energy     =  -14.29 kcal/mol
DOCKED: USER        Electrostatic Energy            =   -4.23 kcal/mol
DOCKED: USER    (2) Final Total Internal Energy     =   -1.99 kcal/mol
DOCKED: USER    (3) Torsional Free Energy           =   +2.98 kcal/mol
DOCKED: USER    (4) Unbound System's Energy  [=(2)] =   -1.99 kcal/mol
DOCKED: USER    
DOCKED: USER    
DOCKED: USER    NEWDPF move heme_Fe_opt.pdbqt
DOCKED: USER    NEWDPF about -0.174000 -0.001000 -0.047000
DOCKED: USER    NEWDPF tran0 -4.937131 -9.202044 -3.269403
DOCKED: USER    NEWDPF quaternion0 -0.071197 -0.006330 0.662413 -0.745721
DOCKED: USER    NEWDPF axisangle0 -0.106861 -0.009502 0.994229 -83.557926
DOCKED: USER    NEWDPF quat0 -0.106861 -0.009502 0.994229 -83.557926
DOCKED: USER    NEWDPF dihe0 -131.60 -10.94 65.52 -111.49 49.32 -179.55 -24.32 57.95 179.90 157.05 
DOCKED: USER  keepresnum = 1 
DOCKED: USER  
DOCKED: REMARK  10 active torsions:
DOCKED: REMARK  status: ('A' for Active; 'I' for Inactive)
DOCKED: REMARK    1  A    between atoms: C_6  and  C_10 
DOCKED: REMARK    2  A    between atoms: C_10  and  C_11 
DOCKED: REMARK    3  A    between atoms: C_11  and  C_12 
DOCKED: REMARK    4  A    between atoms: C_12  and  O_14 
DOCKED: REMARK    5  A    between atoms: C_17  and  C_20 
DOCKED: REMARK    6  A    between atoms: C_24  and  C_27 
DOCKED: REMARK    7  A    between atoms: C_31  and  C_34 
DOCKED: REMARK    8  A    between atoms: C_34  and  C_35 
DOCKED: REMARK    9  A    between atoms: C_35  and  C_36 
DOCKED: REMARK   10  A    between atoms: C_36  and  O_38 
DOCKED: USER                              x       y       z     vdW  Elec       q    Type
DOCKED: USER                           _______ _______ _______ _____ _____    ______ ____
DOCKED: ROOT
DOCKED: ATOM      1  C   UNL d   1      -5.176 -11.116  -2.568 -0.36 +0.06    +0.064 C 
DOCKED: ATOM      2  C   UNL d   1      -1.428  -7.897  -2.689 -0.44 +0.02    +0.064 A 
DOCKED: ATOM      3  C   UNL d   1      -4.554  -4.399  -3.719 -0.31 +0.01    +0.064 C 
DOCKED: ATOM      4  C   UNL d   1      -8.183  -7.517  -3.711 -0.49 +0.02    +0.064 C 
DOCKED: ATOM      5  C   UNL d   1      -3.821 -10.549  -2.589 -0.34 +0.05    +0.066 A 
DOCKED: ATOM      6  C   UNL d   1      -2.655 -11.282  -2.443 -0.31 -0.02    -0.021 A 
DOCKED: ATOM      7  C   UNL d   1      -1.614 -10.387  -2.473 -0.22 -0.01    -0.025 A 
DOCKED: ATOM      8  C   UNL d   1      -2.186  -9.140  -2.637 -0.38 +0.03    +0.066 A 
DOCKED: ATOM      9  C   UNL d   1      -0.158 -10.722  -2.369 -0.29 +0.02    +0.051 C 
DOCKED: ATOM     10  C   UNL d   1      -1.949  -6.688  -2.904 -0.43 +0.02    +0.066 A 
DOCKED: ATOM     11  C   UNL d   1      -1.212  -5.503  -2.834 -0.46 -0.00    -0.021 A 
DOCKED: ATOM     12  C   UNL d   1      -2.095  -4.478  -3.111 -0.41 +0.00    +0.000 A 
DOCKED: ATOM     13  C   UNL d   1      -3.339  -5.096  -3.329 -0.37 +0.01    +0.070 A 
DOCKED: ATOM     14  C   UNL d   1       0.246  -5.348  -2.455 -0.41 +0.00    +0.052 C 
DOCKED: ATOM     15  C   UNL d   1      -5.765  -4.983  -3.879 -0.38 +0.01    +0.066 A 
DOCKED: ATOM     16  C   UNL d   1      -6.880  -4.301  -4.349 -0.46 -0.00    -0.021 A 
DOCKED: ATOM     17  C   UNL d   1      -7.929  -5.198  -4.344 -0.48 +0.00    +0.000 A 
DOCKED: ATOM     18  C   UNL d   1      -7.429  -6.407  -3.866 -0.41 +0.02    +0.070 A 
DOCKED: ATOM     19  C   UNL d   1      -6.966  -2.857  -4.764 -0.63 +0.01    +0.052 C 
DOCKED: ATOM     20  C   UNL d   1      -7.679  -8.822  -3.269 -0.36 +0.02    +0.066 A 
DOCKED: ATOM     21  C   UNL d   1      -8.475  -9.920  -2.913 -0.33 -0.01    -0.025 A 
DOCKED: ATOM     22  C   UNL d   1      -7.598 -10.938  -2.603 -0.18 -0.01    -0.021 A 
DOCKED: ATOM     23  C   UNL d   1      -6.308 -10.423  -2.775 -0.14 +0.04    +0.066 A 
DOCKED: ATOM     24  C   UNL d   1      -9.983 -10.014  -2.859 -0.48 +0.01    +0.051 C 
DOCKED: ATOM     25  N   UNL d   1      -3.528  -9.243  -2.717 -0.24 -0.12    -0.248 N 
DOCKED: ATOM     26  N   UNL d   1      -3.252  -6.442  -3.194 -0.25 -0.07    -0.248 N 
DOCKED: ATOM     27  N   UNL d   1      -6.090  -6.288  -3.622 -0.23 -0.10    -0.248 N 
DOCKED: ATOM     28  N   UNL d   1      -6.363  -9.119  -3.138 -0.23 -0.12    -0.248 N 
DOCKED: ATOM     29 FE   UNL d   1      -4.810  -7.780  -3.166 -0.09 +0.00    +0.000 Fe
DOCKED: ENDROOT
DOCKED: BRANCH   6  30
DOCKED: ATOM     30  C   UNL d   1      -2.531 -12.761  -2.303 -0.20 +0.08    +0.052 C 
DOCKED: BRANCH  30  31
DOCKED: ATOM     31  C   UNL d   1      -2.563 -13.169  -0.834 -0.19 +0.15    +0.115 C 
DOCKED: BRANCH  31  32
DOCKED: ATOM     32  C   UNL d   1      -3.026 -14.593  -0.694 -0.16 +0.24    +0.139 C 
DOCKED: ATOM     33  O   UNL d   1      -2.528 -15.480  -1.371 -0.06 -1.09    -0.650 OA
DOCKED: BRANCH  32  34
DOCKED: ATOM     34  O   UNL d   1      -3.997 -14.903   0.182 -0.28 -1.67    -0.776 OA
DOCKED: ATOM     35  H   UNL d   1      -4.808 -14.374   0.192 +0.02 +0.40    +0.167 HD
DOCKED: ENDBRANCH  32  34
DOCKED: ENDBRANCH  31  32
DOCKED: ENDBRANCH  30  31
DOCKED: ENDBRANCH   6  30
DOCKED: BRANCH  22  36
DOCKED: ATOM     36  C   UNL d   1      -7.980 -12.313  -2.121 -0.27 +0.04    +0.052 C 
DOCKED: BRANCH  36  37
DOCKED: ATOM     37  C   UNL d   1      -7.682 -12.437  -0.634 -0.21 +0.10    +0.115 C 
DOCKED: BRANCH  37  38
DOCKED: ATOM     38  C   UNL d   1      -6.752 -13.586  -0.366 -0.21 +0.20    +0.139 C 
DOCKED: ATOM     39  O   UNL d   1      -6.399 -13.853   0.773 -0.10 -1.38    -0.650 OA
DOCKED: BRANCH  38  40
DOCKED: ATOM     40  O   UNL d   1      -6.295 -14.333  -1.387 -0.29 -1.64    -0.776 OA
DOCKED: ATOM     41  H   UNL d   1      -5.576 -14.960  -1.227 +0.03 +0.45    +0.167 HD
DOCKED: ENDBRANCH  38  40
DOCKED: ENDBRANCH  37  38
DOCKED: ENDBRANCH  36  37
DOCKED: ENDBRANCH  22  36
DOCKED: BRANCH  12  42
DOCKED: ATOM     42  C   UNL d   1      -1.739  -3.025  -3.136 -0.47 +0.00    +0.004 C 
DOCKED: ATOM     43  C   UNL d   1      -1.773  -2.327  -4.279 -0.56 +0.00    +0.012 C 
DOCKED: ENDBRANCH  12  42
DOCKED: BRANCH  17  44
DOCKED: ATOM     44  C   UNL d   1      -9.314  -4.921  -4.788 -0.55 +0.00    +0.004 C 
DOCKED: ATOM     45  C   UNL d   1     -10.029  -3.939  -4.229 -0.67 +0.00    +0.012 C 
DOCKED: ENDBRANCH  17  44
DOCKED: TORSDOF 10
DOCKED: TER
DOCKED: ENDMDL
________________________________________________________________________________


	BEGINNING GENETIC ALGORITHM DOCKING 55 of 100
Run: 55 Seed: 1465013871 893780979 [ Run 55 of 100 GA/GALS ]
Beginning LAMARCKIAN GENETIC ALGORITHM (LGA), with a maximum of 25000000 energy evaluations.

Final-Value: -13.235


	FINAL GENETIC ALGORITHM DOCKED STATE
	_______________________________________________


Detailed state:  trans -0.860 -15.148 -2.651 quatxyzw -0.655908 -0.180179 -0.267563 0.682445 center -0.174 -0.001 -0.047 ntor 10 -90.2712 -141.5081 54.7254 -113.8368 -176.5201 -100.6703 64.4418 -137.0611 176.8937 -28.2640
State:	 -0.860 -15.148  -2.651  -0.897 -0.247 -0.366 93.930    -90.27 -141.51   54.73 -113.84 -176.52 -100.67   64.44 -137.06  176.89  -28.26

DOCKED: MODEL       55
DOCKED: USER    Run = 55
DOCKED: USER    DPF = D:/Protein_go_brrr/autodock/final/AncA/heme_Fe/dock.dpf
DOCKED: USER  
DOCKED: USER    Estimated Free Energy of Binding    =   -9.55 kcal/mol  [=(1)+(2)+(3)-(4)]
DOCKED: USER    Estimated Inhibition Constant, Ki   =   99.92 nM (nanomolar)  [Temperature = 298.15 K]
DOCKED: USER    
DOCKED: USER    (1) Final Intermolecular Energy     =  -12.53 kcal/mol
DOCKED: USER        vdW + Hbond + desolv Energy     =   -8.00 kcal/mol
DOCKED: USER        Electrostatic Energy            =   -4.53 kcal/mol
DOCKED: USER    (2) Final Total Internal Energy     =   -0.70 kcal/mol
DOCKED: USER    (3) Torsional Free Energy           =   +2.98 kcal/mol
DOCKED: USER    (4) Unbound System's Energy  [=(2)] =   -0.70 kcal/mol
DOCKED: USER    
DOCKED: USER    
DOCKED: USER    NEWDPF move heme_Fe_opt.pdbqt
DOCKED: USER    NEWDPF about -0.174000 -0.001000 -0.047000
DOCKED: USER    NEWDPF tran0 -0.859736 -15.148063 -2.650968
DOCKED: USER    NEWDPF quaternion0 -0.655908 -0.180179 -0.267563 0.682445
DOCKED: USER    NEWDPF axisangle0 -0.897352 -0.246504 -0.366054 93.930040
DOCKED: USER    NEWDPF quat0 -0.897352 -0.246504 -0.366054 93.930040
DOCKED: USER    NEWDPF dihe0 -90.27 -141.51 54.73 -113.84 -176.52 -100.67 64.44 -137.06 176.89 -28.26 
DOCKED: USER  keepresnum = 1 
DOCKED: USER  
DOCKED: REMARK  10 active torsions:
DOCKED: REMARK  status: ('A' for Active; 'I' for Inactive)
DOCKED: REMARK    1  A    between atoms: C_6  and  C_10 
DOCKED: REMARK    2  A    between atoms: C_10  and  C_11 
DOCKED: REMARK    3  A    between atoms: C_11  and  C_12 
DOCKED: REMARK    4  A    between atoms: C_12  and  O_14 
DOCKED: REMARK    5  A    between atoms: C_17  and  C_20 
DOCKED: REMARK    6  A    between atoms: C_24  and  C_27 
DOCKED: REMARK    7  A    between atoms: C_31  and  C_34 
DOCKED: REMARK    8  A    between atoms: C_34  and  C_35 
DOCKED: REMARK    9  A    between atoms: C_35  and  C_36 
DOCKED: REMARK   10  A    between atoms: C_36  and  O_38 
DOCKED: USER                              x       y       z     vdW  Elec       q    Type
DOCKED: USER                           _______ _______ _______ _____ _____    ______ ____
DOCKED: ROOT
DOCKED: ATOM      1  C   UNL d   1      -2.103 -16.765  -2.878 -0.04 +0.10    +0.064 C 
DOCKED: ATOM      2  C   UNL d   1       1.101 -14.401  -5.806 -0.31 +0.03    +0.064 A 
DOCKED: ATOM      3  C   UNL d   1       2.932 -12.229  -1.933 -0.20 +0.02    +0.064 C 
DOCKED: ATOM      4  C   UNL d   1      -0.230 -14.426   0.906 -0.14 +0.05    +0.064 C 
DOCKED: ATOM      5  C   UNL d   1      -1.426 -16.237  -4.071 -0.12 +0.08    +0.066 A 
DOCKED: ATOM      6  C   UNL d   1      -1.765 -16.552  -5.376 -0.11 -0.02    -0.021 A 
DOCKED: ATOM      7  C   UNL d   1      -0.872 -15.899  -6.189 -0.29 -0.02    -0.025 A 
DOCKED: ATOM      8  C   UNL d   1      -0.022 -15.208  -5.347 -0.24 +0.05    +0.066 A 
DOCKED: ATOM      9  C   UNL d   1      -0.857 -15.926  -7.686 -0.31 +0.03    +0.051 C 
DOCKED: ATOM     10  C   UNL d   1       1.901 -13.679  -5.019 -0.25 +0.03    +0.066 A 
DOCKED: ATOM     11  C   UNL d   1       3.038 -13.008  -5.476 -0.33 -0.01    -0.021 A 
DOCKED: ATOM     12  C   UNL d   1       3.593 -12.387  -4.375 -0.25 +0.00    +0.000 A 
DOCKED: ATOM     13  C   UNL d   1       2.763 -12.722  -3.291 -0.16 +0.02    +0.070 A 
DOCKED: ATOM     14  C   UNL d   1       3.606 -13.014  -6.880 -0.50 +0.02    +0.052 C 
DOCKED: ATOM     15  C   UNL d   1       2.166 -12.589  -0.876 -0.15 +0.02    +0.066 A 
DOCKED: ATOM     16  C   UNL d   1       2.297 -12.020   0.384 -0.27 -0.01    -0.021 A 
DOCKED: ATOM     17  C   UNL d   1       1.388 -12.655   1.206 -0.24 +0.00    +0.000 A 
DOCKED: ATOM     18  C   UNL d   1       0.727 -13.601   0.427 -0.14 +0.04    +0.070 A 
DOCKED: ATOM     19  C   UNL d   1       3.254 -10.939   0.809 -0.09 +0.01    +0.052 C 
DOCKED: ATOM     20  C   UNL d   1      -0.990 -15.391   0.103 -0.10 +0.06    +0.066 A 
DOCKED: ATOM     21  C   UNL d   1      -1.835 -16.385   0.617 -0.09 -0.02    -0.025 A 
DOCKED: ATOM     22  C   UNL d   1      -2.368 -17.031  -0.479 -0.07 -0.02    -0.021 A 
DOCKED: ATOM     23  C   UNL d   1      -1.826 -16.414  -1.612 -0.07 +0.08    +0.066 A 
DOCKED: ATOM     24  C   UNL d   1      -2.128 -16.720   2.061 -0.07 +0.05    +0.051 C 
DOCKED: ATOM     25  N   UNL d   1      -0.367 -15.409  -4.059 -0.09 -0.21    -0.248 N 
DOCKED: ATOM     26  N   UNL d   1       1.737 -13.517  -3.681 -0.09 -0.11    -0.248 N 
DOCKED: ATOM     27  N   UNL d   1       1.173 -13.532  -0.863 -0.05 -0.11    -0.248 N 
DOCKED: ATOM     28  N   UNL d   1      -0.951 -15.444  -1.250 -0.05 -0.23    -0.248 N 
DOCKED: ATOM     29 FE   UNL d   1       0.392 -14.480  -2.464 -0.02 +0.00    +0.000 Fe
DOCKED: ENDROOT
DOCKED: BRANCH   6  30
DOCKED: ATOM     30  C   UNL d   1      -2.893 -17.414  -5.833 -0.16 +0.07    +0.052 C 
DOCKED: BRANCH  30  31
DOCKED: ATOM     31  C   UNL d   1      -2.427 -18.851  -6.035 -0.11 +0.12    +0.115 C 
DOCKED: BRANCH  31  32
DOCKED: ATOM     32  C   UNL d   1      -2.539 -19.242  -7.483 -0.02 +0.21    +0.139 C 
DOCKED: ATOM     33  O   UNL d   1      -2.272 -20.379  -7.844 -0.11 -0.88    -0.650 OA
DOCKED: BRANCH  32  34
DOCKED: ATOM     34  O   UNL d   1      -2.936 -18.340  -8.396 -0.48 -1.53    -0.776 OA
DOCKED: ATOM     35  H   UNL d   1      -2.270 -17.793  -8.836 +0.06 +0.19    +0.167 HD
DOCKED: ENDBRANCH  32  34
DOCKED: ENDBRANCH  31  32
DOCKED: ENDBRANCH  30  31
DOCKED: ENDBRANCH   6  30
DOCKED: BRANCH  22  36
DOCKED: ATOM     36  C   UNL d   1      -3.308 -18.207  -0.436 -0.03 +0.05    +0.052 C 
DOCKED: BRANCH  36  37
DOCKED: ATOM     37  C   UNL d   1      -4.658 -17.766   0.110 -0.05 +0.13    +0.115 C 
DOCKED: BRANCH  37  38
DOCKED: ATOM     38  C   UNL d   1      -5.065 -16.440  -0.468 -0.11 +0.24    +0.139 C 
DOCKED: ATOM     39  O   UNL d   1      -4.928 -15.410   0.174 -0.57 -1.50    -0.650 OA
DOCKED: BRANCH  38  40
DOCKED: ATOM     40  O   UNL d   1      -5.592 -16.381  -1.704 -0.13 -1.79    -0.776 OA
DOCKED: ATOM     41  H   UNL d   1      -6.197 -17.078  -1.992 +0.01 +0.26    +0.167 HD
DOCKED: ENDBRANCH  38  40
DOCKED: ENDBRANCH  37  38
DOCKED: ENDBRANCH  36  37
DOCKED: ENDBRANCH  22  36
DOCKED: BRANCH  12  42
DOCKED: ATOM     42  C   UNL d   1       4.838 -11.559  -4.396 -0.38 +0.00    +0.004 C 
DOCKED: ATOM     43  C   UNL d   1       4.777 -10.221  -4.367 -0.52 +0.00    +0.012 C 
DOCKED: ENDBRANCH  12  42
DOCKED: BRANCH  17  44
DOCKED: ATOM     44  C   UNL d   1       1.154 -12.361   2.638 -0.28 +0.00    +0.004 C 
DOCKED: ATOM     45  C   UNL d   1       2.140 -12.483   3.532 -0.29 +0.00    +0.012 C 
DOCKED: ENDBRANCH  17  44
DOCKED: TORSDOF 10
DOCKED: TER
DOCKED: ENDMDL
________________________________________________________________________________


	BEGINNING GENETIC ALGORITHM DOCKING 56 of 100
Run: 56 Seed: 395682265 2050411461 [ Run 56 of 100 GA/GALS ]
Beginning LAMARCKIAN GENETIC ALGORITHM (LGA), with a maximum of 25000000 energy evaluations.

Final-Value: -20.468


	FINAL GENETIC ALGORITHM DOCKED STATE
	_______________________________________________


Detailed state:  trans -5.241 -8.978 -3.282 quatxyzw 0.089974 -0.011374 -0.651194 0.753473 center -0.174 -0.001 -0.047 ntor 10 -99.6298 33.7880 72.7462 -120.8258 24.3909 149.9673 -3.9877 -53.2250 -155.2689 39.5162
State:	 -5.241  -8.978  -3.282   0.137 -0.017 -0.990 82.216    -99.63   33.79   72.75 -120.83   24.39  149.97   -3.99  -53.23 -155.27   39.52

DOCKED: MODEL       56
DOCKED: USER    Run = 56
DOCKED: USER    DPF = D:/Protein_go_brrr/autodock/final/AncA/heme_Fe/dock.dpf
DOCKED: USER  
DOCKED: USER    Estimated Free Energy of Binding    =  -15.55 kcal/mol  [=(1)+(2)+(3)-(4)]
DOCKED: USER    Estimated Inhibition Constant, Ki   =    4.03 pM (picomolar)  [Temperature = 298.15 K]
DOCKED: USER    
DOCKED: USER    (1) Final Intermolecular Energy     =  -18.53 kcal/mol
DOCKED: USER        vdW + Hbond + desolv Energy     =  -14.47 kcal/mol
DOCKED: USER        Electrostatic Energy            =   -4.06 kcal/mol
DOCKED: USER    (2) Final Total Internal Energy     =   -1.94 kcal/mol
DOCKED: USER    (3) Torsional Free Energy           =   +2.98 kcal/mol
DOCKED: USER    (4) Unbound System's Energy  [=(2)] =   -1.94 kcal/mol
DOCKED: USER    
DOCKED: USER    
DOCKED: USER    NEWDPF move heme_Fe_opt.pdbqt
DOCKED: USER    NEWDPF about -0.174000 -0.001000 -0.047000
DOCKED: USER    NEWDPF tran0 -5.240591 -8.977810 -3.282348
DOCKED: USER    NEWDPF quaternion0 0.089974 -0.011374 -0.651194 0.753473
DOCKED: USER    NEWDPF axisangle0 0.136848 -0.017299 -0.990441 82.215807
DOCKED: USER    NEWDPF quat0 0.136848 -0.017299 -0.990441 82.215807
DOCKED: USER    NEWDPF dihe0 -99.63 33.79 72.75 -120.83 24.39 149.97 -3.99 -53.23 -155.27 39.52 
DOCKED: USER  keepresnum = 1 
DOCKED: USER  
DOCKED: REMARK  10 active torsions:
DOCKED: REMARK  status: ('A' for Active; 'I' for Inactive)
DOCKED: REMARK    1  A    between atoms: C_6  and  C_10 
DOCKED: REMARK    2  A    between atoms: C_10  and  C_11 
DOCKED: REMARK    3  A    between atoms: C_11  and  C_12 
DOCKED: REMARK    4  A    between atoms: C_12  and  O_14 
DOCKED: REMARK    5  A    between atoms: C_17  and  C_20 
DOCKED: REMARK    6  A    between atoms: C_24  and  C_27 
DOCKED: REMARK    7  A    between atoms: C_31  and  C_34 
DOCKED: REMARK    8  A    between atoms: C_34  and  C_35 
DOCKED: REMARK    9  A    between atoms: C_35  and  C_36 
DOCKED: REMARK   10  A    between atoms: C_36  and  O_38 
DOCKED: USER                              x       y       z     vdW  Elec       q    Type
DOCKED: USER                           _______ _______ _______ _____ _____    ______ ____
DOCKED: ROOT
DOCKED: ATOM      1  C   UNL d   1      -5.536 -10.846  -2.486 -0.30 +0.05    +0.064 C 
DOCKED: ATOM      2  C   UNL d   1      -1.693  -7.750  -2.766 -0.44 +0.02    +0.064 A 
DOCKED: ATOM      3  C   UNL d   1      -4.716  -4.217  -3.972 -0.34 +0.01    +0.064 C 
DOCKED: ATOM      4  C   UNL d   1      -8.436  -7.221  -3.810 -0.48 +0.02    +0.064 C 
DOCKED: ATOM      5  C   UNL d   1      -4.164 -10.321  -2.534 -0.35 +0.05    +0.066 A 
DOCKED: ATOM      6  C   UNL d   1      -3.021 -11.081  -2.351 -0.34 -0.02    -0.021 A 
DOCKED: ATOM      7  C   UNL d   1      -1.954 -10.220  -2.425 -0.31 -0.01    -0.025 A 
DOCKED: ATOM      8  C   UNL d   1      -2.488  -8.966  -2.651 -0.39 +0.03    +0.066 A 
DOCKED: ATOM      9  C   UNL d   1      -0.508 -10.592  -2.303 -0.34 +0.02    +0.051 C 
DOCKED: ATOM     10  C   UNL d   1      -2.179  -6.538  -3.041 -0.41 +0.02    +0.066 A 
DOCKED: ATOM     11  C   UNL d   1      -1.407  -5.374  -3.031 -0.46 -0.00    -0.021 A 
DOCKED: ATOM     12  C   UNL d   1      -2.259  -4.338  -3.359 -0.41 +0.00    +0.000 A 
DOCKED: ATOM     13  C   UNL d   1      -3.521  -4.929  -3.547 -0.37 +0.01    +0.070 A 
DOCKED: ATOM     14  C   UNL d   1       0.056  -5.244  -2.659 -0.56 +0.01    +0.052 C 
DOCKED: ATOM     15  C   UNL d   1      -5.943  -4.772  -4.104 -0.39 +0.01    +0.066 A 
DOCKED: ATOM     16  C   UNL d   1      -7.038  -4.082  -4.608 -0.48 -0.00    -0.021 A 
DOCKED: ATOM     17  C   UNL d   1      -8.113  -4.945  -4.559 -0.48 +0.00    +0.000 A 
DOCKED: ATOM     18  C   UNL d   1      -7.649  -6.143  -4.021 -0.42 +0.02    +0.070 A 
DOCKED: ATOM     19  C   UNL d   1      -7.081  -2.658  -5.095 -0.62 +0.01    +0.052 C 
DOCKED: ATOM     20  C   UNL d   1      -7.970  -8.517  -3.303 -0.39 +0.02    +0.066 A 
DOCKED: ATOM     21  C   UNL d   1      -8.798  -9.571  -2.893 -0.39 -0.01    -0.025 A 
DOCKED: ATOM     22  C   UNL d   1      -7.951 -10.599  -2.531 -0.17 -0.01    -0.021 A 
DOCKED: ATOM     23  C   UNL d   1      -6.646 -10.131  -2.728 +0.02 +0.04    +0.066 A 
DOCKED: ATOM     24  C   UNL d   1     -10.308  -9.618  -2.836 -0.53 +0.01    +0.051 C 
DOCKED: ATOM     25  N   UNL d   1      -3.833  -9.033  -2.727 -0.25 -0.11    -0.248 N 
DOCKED: ATOM     26  N   UNL d   1      -3.474  -6.269  -3.344 -0.25 -0.07    -0.248 N 
DOCKED: ATOM     27  N   UNL d   1      -6.306  -6.053  -3.781 -0.25 -0.08    -0.248 N 
DOCKED: ATOM     28  N   UNL d   1      -6.663  -8.845  -3.157 -0.23 -0.11    -0.248 N 
DOCKED: ATOM     29 FE   UNL d   1      -5.071  -7.557  -3.251 -0.09 +0.00    +0.000 Fe
DOCKED: ENDROOT
DOCKED: BRANCH   6  30
DOCKED: ATOM     30  C   UNL d   1      -2.941 -12.554  -2.137 -0.18 +0.08    +0.052 C 
DOCKED: BRANCH  30  31
DOCKED: ATOM     31  C   UNL d   1      -3.574 -12.941  -0.805 -0.15 +0.18    +0.115 C 
DOCKED: BRANCH  31  32
DOCKED: ATOM     32  C   UNL d   1      -3.577 -14.436  -0.639 -0.15 +0.27    +0.139 C 
DOCKED: ATOM     33  O   UNL d   1      -2.765 -15.130  -1.234 -0.01 -1.18    -0.650 OA
DOCKED: BRANCH  32  34
DOCKED: ATOM     34  O   UNL d   1      -4.476 -15.023   0.169 -0.42 -1.82    -0.776 OA
DOCKED: ATOM     35  H   UNL d   1      -5.374 -15.171  -0.158 +0.02 +0.36    +0.167 HD
DOCKED: ENDBRANCH  32  34
DOCKED: ENDBRANCH  31  32
DOCKED: ENDBRANCH  30  31
DOCKED: ENDBRANCH   6  30
DOCKED: BRANCH  22  36
DOCKED: ATOM     36  C   UNL d   1      -8.374 -11.935  -1.982 -0.29 +0.03    +0.052 C 
DOCKED: BRANCH  36  37
DOCKED: ATOM     37  C   UNL d   1      -7.567 -13.042  -2.645 -0.21 +0.13    +0.115 C 
DOCKED: BRANCH  37  38
DOCKED: ATOM     38  C   UNL d   1      -6.897 -13.909  -1.617 -0.09 +0.22    +0.139 C 
DOCKED: ATOM     39  O   UNL d   1      -6.679 -15.091  -1.842 -0.52 -1.43    -0.650 OA
DOCKED: BRANCH  38  40
DOCKED: ATOM     40  O   UNL d   1      -6.532 -13.387  -0.432 +0.01 -1.13    -0.776 OA
DOCKED: ATOM     41  H   UNL d   1      -5.735 -13.720   0.003 +0.04 +0.32    +0.167 HD
DOCKED: ENDBRANCH  38  40
DOCKED: ENDBRANCH  37  38
DOCKED: ENDBRANCH  36  37
DOCKED: ENDBRANCH  22  36
DOCKED: BRANCH  12  42
DOCKED: ATOM     42  C   UNL d   1      -1.860  -2.900  -3.457 -0.46 +0.00    +0.004 C 
DOCKED: ATOM     43  C   UNL d   1      -2.009  -2.220  -4.601 -0.59 +0.00    +0.012 C 
DOCKED: ENDBRANCH  12  42
DOCKED: BRANCH  17  44
DOCKED: ATOM     44  C   UNL d   1      -9.489  -4.650  -5.017 -0.35 +0.00    +0.004 C 
DOCKED: ATOM     45  C   UNL d   1     -10.242  -3.743  -4.385 -0.71 +0.00    +0.012 C 
DOCKED: ENDBRANCH  17  44
DOCKED: TORSDOF 10
DOCKED: TER
DOCKED: ENDMDL
________________________________________________________________________________


	BEGINNING GENETIC ALGORITHM DOCKING 57 of 100
Run: 57 Seed: 1686361807 1066528449 [ Run 57 of 100 GA/GALS ]
Beginning LAMARCKIAN GENETIC ALGORITHM (LGA), with a maximum of 25000000 energy evaluations.

Final-Value: -20.322


	FINAL GENETIC ALGORITHM DOCKED STATE
	_______________________________________________


Detailed state:  trans -4.876 -9.166 -3.243 quatxyzw 0.078428 -0.001149 -0.673722 0.734811 center -0.174 -0.001 -0.047 ntor 10 102.7955 -16.3693 70.2226 -108.3167 103.4259 -175.0169 -14.4627 40.8859 -169.5663 145.2817
State:	 -4.876  -9.166  -3.243   0.116 -0.002 -0.993 85.418    102.80  -16.37   70.22 -108.32  103.43 -175.02  -14.46   40.89 -169.57  145.28

DOCKED: MODEL       57
DOCKED: USER    Run = 57
DOCKED: USER    DPF = D:/Protein_go_brrr/autodock/final/AncA/heme_Fe/dock.dpf
DOCKED: USER  
DOCKED: USER    Estimated Free Energy of Binding    =  -15.40 kcal/mol  [=(1)+(2)+(3)-(4)]
DOCKED: USER    Estimated Inhibition Constant, Ki   =    5.17 pM (picomolar)  [Temperature = 298.15 K]
DOCKED: USER    
DOCKED: USER    (1) Final Intermolecular Energy     =  -18.38 kcal/mol
DOCKED: USER        vdW + Hbond + desolv Energy     =  -14.27 kcal/mol
DOCKED: USER        Electrostatic Energy            =   -4.11 kcal/mol
DOCKED: USER    (2) Final Total Internal Energy     =   -1.94 kcal/mol
DOCKED: USER    (3) Torsional Free Energy           =   +2.98 kcal/mol
DOCKED: USER    (4) Unbound System's Energy  [=(2)] =   -1.94 kcal/mol
DOCKED: USER    
DOCKED: USER    
DOCKED: USER    NEWDPF move heme_Fe_opt.pdbqt
DOCKED: USER    NEWDPF about -0.174000 -0.001000 -0.047000
DOCKED: USER    NEWDPF tran0 -4.876068 -9.166109 -3.243464
DOCKED: USER    NEWDPF quaternion0 0.078428 -0.001149 -0.673722 0.734811
DOCKED: USER    NEWDPF axisangle0 0.115629 -0.001694 -0.993291 85.417552
DOCKED: USER    NEWDPF quat0 0.115629 -0.001694 -0.993291 85.417552
DOCKED: USER    NEWDPF dihe0 102.80 -16.37 70.22 -108.32 103.43 -175.02 -14.46 40.89 -169.57 145.28 
DOCKED: USER  keepresnum = 1 
DOCKED: USER  
DOCKED: REMARK  10 active torsions:
DOCKED: REMARK  status: ('A' for Active; 'I' for Inactive)
DOCKED: REMARK    1  A    between atoms: C_6  and  C_10 
DOCKED: REMARK    2  A    between atoms: C_10  and  C_11 
DOCKED: REMARK    3  A    between atoms: C_11  and  C_12 
DOCKED: REMARK    4  A    between atoms: C_12  and  O_14 
DOCKED: REMARK    5  A    between atoms: C_17  and  C_20 
DOCKED: REMARK    6  A    between atoms: C_24  and  C_27 
DOCKED: REMARK    7  A    between atoms: C_31  and  C_34 
DOCKED: REMARK    8  A    between atoms: C_34  and  C_35 
DOCKED: REMARK    9  A    between atoms: C_35  and  C_36 
DOCKED: REMARK   10  A    between atoms: C_36  and  O_38 
DOCKED: USER                              x       y       z     vdW  Elec       q    Type
DOCKED: USER                           _______ _______ _______ _____ _____    ______ ____
DOCKED: ROOT
DOCKED: ATOM      1  C   UNL d   1      -5.056 -11.070  -2.499 -0.37 +0.06    +0.064 C 
DOCKED: ATOM      2  C   UNL d   1      -1.406  -7.743  -2.704 -0.45 +0.02    +0.064 A 
DOCKED: ATOM      3  C   UNL d   1      -4.640  -4.365  -3.802 -0.33 +0.01    +0.064 C 
DOCKED: ATOM      4  C   UNL d   1      -8.173  -7.590  -3.711 -0.49 +0.02    +0.064 C 
DOCKED: ATOM      5  C   UNL d   1      -3.718 -10.463  -2.537 -0.34 +0.05    +0.066 A 
DOCKED: ATOM      6  C   UNL d   1      -2.530 -11.158  -2.378 -0.32 -0.02    -0.021 A 
DOCKED: ATOM      7  C   UNL d   1      -1.517 -10.232  -2.432 -0.26 -0.01    -0.025 A 
DOCKED: ATOM      8  C   UNL d   1      -2.126  -9.007  -2.621 -0.40 +0.02    +0.066 A 
DOCKED: ATOM      9  C   UNL d   1      -0.051 -10.521  -2.325 -0.32 +0.02    +0.051 C 
DOCKED: ATOM     10  C   UNL d   1      -1.964  -6.555  -2.944 -0.42 +0.02    +0.066 A 
DOCKED: ATOM     11  C   UNL d   1      -1.264  -5.347  -2.904 -0.46 -0.00    -0.021 A 
DOCKED: ATOM     12  C   UNL d   1      -2.177  -4.356  -3.200 -0.41 +0.00    +0.000 A 
DOCKED: ATOM     13  C   UNL d   1      -3.402  -5.016  -3.400 -0.37 +0.01    +0.070 A 
DOCKED: ATOM     14  C   UNL d   1       0.191  -5.140  -2.533 -0.51 +0.00    +0.052 C 
DOCKED: ATOM     15  C   UNL d   1      -5.833  -4.989  -3.944 -0.39 +0.01    +0.066 A 
DOCKED: ATOM     16  C   UNL d   1      -6.969  -4.352  -4.426 -0.46 -0.00    -0.021 A 
DOCKED: ATOM     17  C   UNL d   1      -7.990  -5.279  -4.398 -0.48 +0.00    +0.000 A 
DOCKED: ATOM     18  C   UNL d   1      -7.453  -6.461  -3.894 -0.41 +0.02    +0.070 A 
DOCKED: ATOM     19  C   UNL d   1      -7.099  -2.920  -4.872 -0.63 +0.01    +0.052 C 
DOCKED: ATOM     20  C   UNL d   1      -7.628  -8.869  -3.242 -0.35 +0.02    +0.066 A 
DOCKED: ATOM     21  C   UNL d   1      -8.390  -9.982  -2.859 -0.32 -0.01    -0.025 A 
DOCKED: ATOM     22  C   UNL d   1      -7.481 -10.966  -2.529 -0.16 -0.01    -0.021 A 
DOCKED: ATOM     23  C   UNL d   1      -6.208 -10.416  -2.717 -0.16 +0.04    +0.066 A 
DOCKED: ATOM     24  C   UNL d   1      -9.894 -10.120  -2.798 -0.47 +0.01    +0.051 C 
DOCKED: ATOM     25  N   UNL d   1      -3.465  -9.152  -2.695 -0.25 -0.11    -0.248 N 
DOCKED: ATOM     26  N   UNL d   1      -3.275  -6.356  -3.235 -0.25 -0.06    -0.248 N 
DOCKED: ATOM     27  N   UNL d   1      -6.117  -6.297  -3.657 -0.22 -0.10    -0.248 N 
DOCKED: ATOM     28  N   UNL d   1      -6.304  -9.123  -3.109 -0.22 -0.12    -0.248 N 
DOCKED: ATOM     29 FE   UNL d   1      -4.791  -7.739  -3.172 -0.09 +0.00    +0.000 Fe
DOCKED: ENDROOT
DOCKED: BRANCH   6  30
DOCKED: ATOM     30  C   UNL d   1      -2.361 -12.628  -2.206 -0.27 +0.07    +0.052 C 
DOCKED: BRANCH  30  31
DOCKED: ATOM     31  C   UNL d   1      -2.634 -13.038  -0.763 -0.17 +0.15    +0.115 C 
DOCKED: BRANCH  31  32
DOCKED: ATOM     32  C   UNL d   1      -2.809 -14.528  -0.663 -0.18 +0.22    +0.139 C 
DOCKED: ATOM     33  O   UNL d   1      -1.912 -15.233  -0.223 -0.03 -0.76    -0.650 OA
DOCKED: BRANCH  32  34
DOCKED: ATOM     34  O   UNL d   1      -3.959 -15.100  -1.058 +0.10 -1.82    -0.776 OA
DOCKED: ATOM     35  H   UNL d   1      -4.734 -15.045  -0.481 +0.02 +0.37    +0.167 HD
DOCKED: ENDBRANCH  32  34
DOCKED: ENDBRANCH  31  32
DOCKED: ENDBRANCH  30  31
DOCKED: ENDBRANCH   6  30
DOCKED: BRANCH  22  36
DOCKED: ATOM     36  C   UNL d   1      -7.821 -12.341  -2.016 -0.28 +0.04    +0.052 C 
DOCKED: BRANCH  36  37
DOCKED: ATOM     37  C   UNL d   1      -7.252 -12.521  -0.616 -0.21 +0.12    +0.115 C 
DOCKED: BRANCH  37  38
DOCKED: ATOM     38  C   UNL d   1      -6.685 -13.901  -0.438 -0.19 +0.21    +0.139 C 
DOCKED: ATOM     39  O   UNL d   1      -6.262 -14.268   0.648 -0.21 -1.50    -0.650 OA
DOCKED: BRANCH  38  40
DOCKED: ATOM     40  O   UNL d   1      -6.636 -14.746  -1.483 -0.45 -1.53    -0.776 OA
DOCKED: ATOM     41  H   UNL d   1      -6.064 -15.524  -1.432 +0.02 +0.40    +0.167 HD
DOCKED: ENDBRANCH  38  40
DOCKED: ENDBRANCH  37  38
DOCKED: ENDBRANCH  36  37
DOCKED: ENDBRANCH  22  36
DOCKED: BRANCH  12  42
DOCKED: ATOM     42  C   UNL d   1      -1.866  -2.894  -3.259 -0.41 +0.00    +0.004 C 
DOCKED: ATOM     43  C   UNL d   1      -2.013  -2.203  -4.397 -0.58 +0.00    +0.012 C 
DOCKED: ENDBRANCH  12  42
DOCKED: BRANCH  17  44
DOCKED: ATOM     44  C   UNL d   1      -9.384  -5.054  -4.842 -0.48 +0.00    +0.004 C 
DOCKED: ATOM     45  C   UNL d   1     -10.106  -4.042  -4.348 -0.67 +0.00    +0.012 C 
DOCKED: ENDBRANCH  17  44
DOCKED: TORSDOF 10
DOCKED: TER
DOCKED: ENDMDL
________________________________________________________________________________


	BEGINNING GENETIC ALGORITHM DOCKING 58 of 100
Run: 58 Seed: 1261683233 86633102 [ Run 58 of 100 GA/GALS ]
Beginning LAMARCKIAN GENETIC ALGORITHM (LGA), with a maximum of 25000000 energy evaluations.

Final-Value: -16.605


	FINAL GENETIC ALGORITHM DOCKED STATE
	_______________________________________________


Detailed state:  trans -6.111 -10.889 -1.645 quatxyzw -0.339744 -0.903023 0.139391 0.222922 center -0.174 -0.001 -0.047 ntor 10 -59.5012 82.6496 -98.2984 -165.4798 38.1490 148.8687 -59.0450 105.2816 165.8332 176.5648
State:	 -6.111 -10.889  -1.645  -0.349 -0.926  0.143 154.239    -59.50   82.65  -98.30 -165.48   38.15  148.87  -59.05  105.28  165.83  176.56

DOCKED: MODEL       58
DOCKED: USER    Run = 58
DOCKED: USER    DPF = D:/Protein_go_brrr/autodock/final/AncA/heme_Fe/dock.dpf
DOCKED: USER  
DOCKED: USER    Estimated Free Energy of Binding    =  -11.86 kcal/mol  [=(1)+(2)+(3)-(4)]
DOCKED: USER    Estimated Inhibition Constant, Ki   =    2.02 nM (nanomolar)  [Temperature = 298.15 K]
DOCKED: USER    
DOCKED: USER    (1) Final Intermolecular Energy     =  -14.85 kcal/mol
DOCKED: USER        vdW + Hbond + desolv Energy     =  -11.06 kcal/mol
DOCKED: USER        Electrostatic Energy            =   -3.79 kcal/mol
DOCKED: USER    (2) Final Total Internal Energy     =   -1.76 kcal/mol
DOCKED: USER    (3) Torsional Free Energy           =   +2.98 kcal/mol
DOCKED: USER    (4) Unbound System's Energy  [=(2)] =   -1.76 kcal/mol
DOCKED: USER    
DOCKED: USER    
DOCKED: USER    NEWDPF move heme_Fe_opt.pdbqt
DOCKED: USER    NEWDPF about -0.174000 -0.001000 -0.047000
DOCKED: USER    NEWDPF tran0 -6.111326 -10.888822 -1.644613
DOCKED: USER    NEWDPF quaternion0 -0.339744 -0.903023 0.139391 0.222922
DOCKED: USER    NEWDPF axisangle0 -0.348514 -0.926333 0.142989 154.238615
DOCKED: USER    NEWDPF quat0 -0.348514 -0.926333 0.142989 154.238615
DOCKED: USER    NEWDPF dihe0 -59.50 82.65 -98.30 -165.48 38.15 148.87 -59.05 105.28 165.83 176.56 
DOCKED: USER  keepresnum = 1 
DOCKED: USER  
DOCKED: REMARK  10 active torsions:
DOCKED: REMARK  status: ('A' for Active; 'I' for Inactive)
DOCKED: REMARK    1  A    between atoms: C_6  and  C_10 
DOCKED: REMARK    2  A    between atoms: C_10  and  C_11 
DOCKED: REMARK    3  A    between atoms: C_11  and  C_12 
DOCKED: REMARK    4  A    between atoms: C_12  and  O_14 
DOCKED: REMARK    5  A    between atoms: C_17  and  C_20 
DOCKED: REMARK    6  A    between atoms: C_24  and  C_27 
DOCKED: REMARK    7  A    between atoms: C_31  and  C_34 
DOCKED: REMARK    8  A    between atoms: C_34  and  C_35 
DOCKED: REMARK    9  A    between atoms: C_35  and  C_36 
DOCKED: REMARK   10  A    between atoms: C_36  and  O_38 
DOCKED: USER                              x       y       z     vdW  Elec       q    Type
DOCKED: USER                           _______ _______ _______ _____ _____    ______ ____
DOCKED: ROOT
DOCKED: ATOM      1  C   UNL d   1      -4.661 -12.239  -1.112 -0.32 +0.09    +0.064 C 
DOCKED: ATOM      2  C   UNL d   1      -9.413 -12.575  -2.428 -0.17 +0.03    +0.064 A 
DOCKED: ATOM      3  C   UNL d   1      -9.210  -8.062  -4.057 -0.50 +0.02    +0.064 C 
DOCKED: ATOM      4  C   UNL d   1      -4.639  -7.679  -2.696 -0.36 +0.03    +0.064 C 
DOCKED: ATOM      5  C   UNL d   1      -6.040 -12.724  -1.255 -0.24 +0.09    +0.066 A 
DOCKED: ATOM      6  C   UNL d   1      -6.501 -13.945  -0.792 -0.19 -0.03    -0.021 A 
DOCKED: ATOM      7  C   UNL d   1      -7.820 -14.039  -1.162 -0.15 -0.03    -0.025 A 
DOCKED: ATOM      8  C   UNL d   1      -8.114 -12.870  -1.836 -0.20 +0.06    +0.066 A 
DOCKED: ATOM      9  C   UNL d   1      -8.741 -15.182  -0.862 -0.08 +0.04    +0.051 C 
DOCKED: ATOM     10  C   UNL d   1      -9.740 -11.432  -3.033 -0.21 +0.02    +0.066 A 
DOCKED: ATOM     11  C   UNL d   1     -10.954 -11.222  -3.690 -0.32 -0.00    -0.021 A 
DOCKED: ATOM     12  C   UNL d   1     -10.914  -9.933  -4.183 -0.48 +0.00    +0.000 A 
DOCKED: ATOM     13  C   UNL d   1      -9.661  -9.421  -3.805 -0.42 +0.02    +0.070 A 
DOCKED: ATOM     14  C   UNL d   1     -12.072 -12.224  -3.898 -0.31 +0.01    +0.052 C 
DOCKED: ATOM     15  C   UNL d   1      -7.985  -7.579  -3.741 -0.42 +0.02    +0.066 A 
DOCKED: ATOM     16  C   UNL d   1      -7.627  -6.248  -3.908 -0.45 -0.01    -0.021 A 
DOCKED: ATOM     17  C   UNL d   1      -6.308  -6.136  -3.519 -0.42 +0.00    +0.000 A 
DOCKED: ATOM     18  C   UNL d   1      -5.890  -7.405  -3.127 -0.03 +0.04    +0.070 A 
DOCKED: ATOM     19  C   UNL d   1      -8.482  -5.127  -4.436 -0.51 +0.01    +0.052 C 
DOCKED: ATOM     20  C   UNL d   1      -4.181  -8.989  -2.218 -0.36 +0.03    +0.066 A 
DOCKED: ATOM     21  C   UNL d   1      -2.848  -9.336  -1.959 -0.44 -0.01    -0.025 A 
DOCKED: ATOM     22  C   UNL d   1      -2.878 -10.635  -1.497 -0.38 -0.01    -0.021 A 
DOCKED: ATOM     23  C   UNL d   1      -4.221 -11.030  -1.497 -0.31 +0.06    +0.066 A 
DOCKED: ATOM     24  C   UNL d   1      -1.603  -8.498  -2.139 -0.52 +0.02    +0.051 C 
DOCKED: ATOM     25  N   UNL d   1      -7.032 -12.068  -1.883 -0.17 -0.24    -0.248 N 
DOCKED: ATOM     26  N   UNL d   1      -8.941 -10.337  -3.111 -0.21 -0.09    -0.248 N 
DOCKED: ATOM     27  N   UNL d   1      -6.932  -8.285  -3.221 -0.26 -0.11    -0.248 N 
DOCKED: ATOM     28  N   UNL d   1      -5.007 -10.037  -1.980 -0.00 -0.15    -0.248 N 
DOCKED: ATOM     29 FE   UNL d   1      -6.973 -10.185  -2.546 -0.08 +0.00    +0.000 Fe
DOCKED: ENDROOT
DOCKED: BRANCH   6  30
DOCKED: ATOM     30  C   UNL d   1      -5.735 -14.964  -0.020 +0.13 +0.11    +0.052 C 
DOCKED: BRANCH  30  31
DOCKED: ATOM     31  C   UNL d   1      -5.360 -16.145  -0.908 +0.02 +0.22    +0.115 C 
DOCKED: BRANCH  31  32
DOCKED: ATOM     32  C   UNL d   1      -3.867 -16.319  -0.949 -0.07 +0.25    +0.139 C 
DOCKED: ATOM     33  O   UNL d   1      -3.190 -16.137   0.054 -0.05 -0.95    -0.650 OA
DOCKED: BRANCH  32  34
DOCKED: ATOM     34  O   UNL d   1      -3.260 -16.676  -2.093 -0.16 -1.63    -0.776 OA
DOCKED: ATOM     35  H   UNL d   1      -2.591 -16.090  -2.473 +0.02 +0.38    +0.167 HD
DOCKED: ENDBRANCH  32  34
DOCKED: ENDBRANCH  31  32
DOCKED: ENDBRANCH  30  31
DOCKED: ENDBRANCH   6  30
DOCKED: BRANCH  22  36
DOCKED: ATOM     36  C   UNL d   1      -1.678 -11.465  -1.123 -0.31 +0.04    +0.052 C 
DOCKED: BRANCH  36  37
DOCKED: ATOM     37  C   UNL d   1      -1.126 -12.156  -2.361 -0.23 +0.09    +0.115 C 
DOCKED: BRANCH  37  38
DOCKED: ATOM     38  C   UNL d   1      -1.991 -13.318  -2.760 -0.12 +0.21    +0.139 C 
DOCKED: ATOM     39  O   UNL d   1      -2.100 -13.643  -3.933 +0.01 -1.12    -0.650 OA
DOCKED: BRANCH  38  40
DOCKED: ATOM     40  O   UNL d   1      -2.658 -14.011  -1.820 +0.01 -1.56    -0.776 OA
DOCKED: ATOM     41  H   UNL d   1      -2.279 -14.836  -1.487 +0.03 +0.27    +0.167 HD
DOCKED: ENDBRANCH  38  40
DOCKED: ENDBRANCH  37  38
DOCKED: ENDBRANCH  36  37
DOCKED: ENDBRANCH  22  36
DOCKED: BRANCH  12  42
DOCKED: ATOM     42  C   UNL d   1     -12.007  -9.284  -4.971 -0.35 +0.00    +0.004 C 
DOCKED: ATOM     43  C   UNL d   1     -12.547  -9.894  -6.034 -0.53 +0.00    +0.012 C 
DOCKED: ENDBRANCH  12  42
DOCKED: BRANCH  17  44
DOCKED: ATOM     44  C   UNL d   1      -5.507  -4.891  -3.504 -0.47 +0.00    +0.004 C 
DOCKED: ATOM     45  C   UNL d   1      -4.490  -4.721  -4.355 -0.49 +0.00    +0.012 C 
DOCKED: ENDBRANCH  17  44
DOCKED: TORSDOF 10
DOCKED: TER
DOCKED: ENDMDL
________________________________________________________________________________


	BEGINNING GENETIC ALGORITHM DOCKING 59 of 100
Run: 59 Seed: 933745715 796884673 [ Run 59 of 100 GA/GALS ]
Beginning LAMARCKIAN GENETIC ALGORITHM (LGA), with a maximum of 25000000 energy evaluations.

Final-Value: -19.304


	FINAL GENETIC ALGORITHM DOCKED STATE
	_______________________________________________


Detailed state:  trans -4.999 -9.244 -3.270 quatxyzw 0.072293 -0.008714 -0.673675 0.735432 center -0.174 -0.001 -0.047 ntor 10 63.2230 -39.5539 63.0971 -102.4514 168.4491 158.9028 -35.3582 78.2936 158.3428 178.8668
State:	 -4.999  -9.244  -3.270   0.107 -0.013 -0.994 85.313     63.22  -39.55   63.10 -102.45  168.45  158.90  -35.36   78.29  158.34  178.87

DOCKED: MODEL       59
DOCKED: USER    Run = 59
DOCKED: USER    DPF = D:/Protein_go_brrr/autodock/final/AncA/heme_Fe/dock.dpf
DOCKED: USER  
DOCKED: USER    Estimated Free Energy of Binding    =  -14.82 kcal/mol  [=(1)+(2)+(3)-(4)]
DOCKED: USER    Estimated Inhibition Constant, Ki   =   13.67 pM (picomolar)  [Temperature = 298.15 K]
DOCKED: USER    
DOCKED: USER    (1) Final Intermolecular Energy     =  -17.80 kcal/mol
DOCKED: USER        vdW + Hbond + desolv Energy     =  -14.21 kcal/mol
DOCKED: USER        Electrostatic Energy            =   -3.59 kcal/mol
DOCKED: USER    (2) Final Total Internal Energy     =   -1.50 kcal/mol
DOCKED: USER    (3) Torsional Free Energy           =   +2.98 kcal/mol
DOCKED: USER    (4) Unbound System's Energy  [=(2)] =   -1.50 kcal/mol
DOCKED: USER    
DOCKED: USER    
DOCKED: USER    NEWDPF move heme_Fe_opt.pdbqt
DOCKED: USER    NEWDPF about -0.174000 -0.001000 -0.047000
DOCKED: USER    NEWDPF tran0 -4.998590 -9.244282 -3.269958
DOCKED: USER    NEWDPF quaternion0 0.072293 -0.008714 -0.673675 0.735432
DOCKED: USER    NEWDPF axisangle0 0.106689 -0.012860 -0.994209 85.312575
DOCKED: USER    NEWDPF quat0 0.106689 -0.012860 -0.994209 85.312575
DOCKED: USER    NEWDPF dihe0 63.22 -39.55 63.10 -102.45 168.45 158.90 -35.36 78.29 158.34 178.87 
DOCKED: USER  keepresnum = 1 
DOCKED: USER  
DOCKED: REMARK  10 active torsions:
DOCKED: REMARK  status: ('A' for Active; 'I' for Inactive)
DOCKED: REMARK    1  A    between atoms: C_6  and  C_10 
DOCKED: REMARK    2  A    between atoms: C_10  and  C_11 
DOCKED: REMARK    3  A    between atoms: C_11  and  C_12 
DOCKED: REMARK    4  A    between atoms: C_12  and  O_14 
DOCKED: REMARK    5  A    between atoms: C_17  and  C_20 
DOCKED: REMARK    6  A    between atoms: C_24  and  C_27 
DOCKED: REMARK    7  A    between atoms: C_31  and  C_34 
DOCKED: REMARK    8  A    between atoms: C_34  and  C_35 
DOCKED: REMARK    9  A    between atoms: C_35  and  C_36 
DOCKED: REMARK   10  A    between atoms: C_36  and  O_38 
DOCKED: USER                              x       y       z     vdW  Elec       q    Type
DOCKED: USER                           _______ _______ _______ _____ _____    ______ ____
DOCKED: ROOT
DOCKED: ATOM      1  C   UNL d   1      -5.168 -11.147  -2.520 -0.36 +0.06    +0.064 C 
DOCKED: ATOM      2  C   UNL d   1      -1.516  -7.828  -2.800 -0.43 +0.02    +0.064 A 
DOCKED: ATOM      3  C   UNL d   1      -4.763  -4.445  -3.838 -0.37 +0.01    +0.064 C 
DOCKED: ATOM      4  C   UNL d   1      -8.301  -7.661  -3.675 -0.49 +0.02    +0.064 C 
DOCKED: ATOM      5  C   UNL d   1      -3.830 -10.543  -2.584 -0.34 +0.05    +0.066 A 
DOCKED: ATOM      6  C   UNL d   1      -2.640 -11.240  -2.448 -0.31 -0.02    -0.021 A 
DOCKED: ATOM      7  C   UNL d   1      -1.627 -10.317  -2.522 -0.20 -0.01    -0.025 A 
DOCKED: ATOM      8  C   UNL d   1      -2.237  -9.091  -2.701 -0.38 +0.03    +0.066 A 
DOCKED: ATOM      9  C   UNL d   1      -0.159 -10.608  -2.444 -0.23 +0.02    +0.051 C 
DOCKED: ATOM     10  C   UNL d   1      -2.076  -6.639  -3.030 -0.42 +0.02    +0.066 A 
DOCKED: ATOM     11  C   UNL d   1      -1.372  -5.433  -3.004 -0.46 -0.00    -0.021 A 
DOCKED: ATOM     12  C   UNL d   1      -2.290  -4.440  -3.284 -0.41 +0.00    +0.000 A 
DOCKED: ATOM     13  C   UNL d   1      -3.520  -5.097  -3.459 -0.37 +0.01    +0.070 A 
DOCKED: ATOM     14  C   UNL d   1       0.090  -5.229  -2.662 -0.56 +0.01    +0.052 C 
DOCKED: ATOM     15  C   UNL d   1      -5.960  -5.066  -3.957 -0.39 +0.01    +0.066 A 
DOCKED: ATOM     16  C   UNL d   1      -7.104  -4.427  -4.417 -0.46 -0.00    -0.021 A 
DOCKED: ATOM     17  C   UNL d   1      -8.127  -5.352  -4.368 -0.48 +0.00    +0.000 A 
DOCKED: ATOM     18  C   UNL d   1      -7.582  -6.535  -3.874 -0.42 +0.02    +0.070 A 
DOCKED: ATOM     19  C   UNL d   1      -7.240  -2.995  -4.862 -0.62 +0.01    +0.052 C 
DOCKED: ATOM     20  C   UNL d   1      -7.750  -8.942  -3.216 -0.35 +0.02    +0.066 A 
DOCKED: ATOM     21  C   UNL d   1      -8.506 -10.052  -2.816 -0.33 -0.01    -0.025 A 
DOCKED: ATOM     22  C   UNL d   1      -7.593 -11.038  -2.503 -0.18 -0.01    -0.021 A 
DOCKED: ATOM     23  C   UNL d   1      -6.322 -10.491  -2.717 -0.16 +0.04    +0.066 A 
DOCKED: ATOM     24  C   UNL d   1     -10.009 -10.187  -2.727 -0.47 +0.01    +0.051 C 
DOCKED: ATOM     25  N   UNL d   1      -3.577  -9.233  -2.749 -0.24 -0.12    -0.248 N 
DOCKED: ATOM     26  N   UNL d   1      -3.392  -6.437  -3.296 -0.25 -0.07    -0.248 N 
DOCKED: ATOM     27  N   UNL d   1      -6.241  -6.373  -3.662 -0.24 -0.10    -0.248 N 
DOCKED: ATOM     28  N   UNL d   1      -6.423  -9.198  -3.108 -0.21 -0.12    -0.248 N 
DOCKED: ATOM     29 FE   UNL d   1      -4.909  -7.817  -3.202 -0.09 +0.00    +0.000 Fe
DOCKED: ENDROOT
DOCKED: BRANCH   6  30
DOCKED: ATOM     30  C   UNL d   1      -2.471 -12.711  -2.277 -0.23 +0.08    +0.052 C 
DOCKED: BRANCH  30  31
DOCKED: ATOM     31  C   UNL d   1      -1.935 -13.035  -0.887 -0.22 +0.12    +0.115 C 
DOCKED: BRANCH  31  32
DOCKED: ATOM     32  C   UNL d   1      -2.526 -14.322  -0.383 -0.14 +0.20    +0.139 C 
DOCKED: ATOM     33  O   UNL d   1      -2.073 -14.869   0.613 -0.00 -0.83    -0.650 OA
DOCKED: BRANCH  32  34
DOCKED: ATOM     34  O   UNL d   1      -3.563 -14.886  -1.025 +0.05 -1.67    -0.776 OA
DOCKED: ATOM     35  H   UNL d   1      -4.408 -14.977  -0.563 +0.02 +0.37    +0.167 HD
DOCKED: ENDBRANCH  32  34
DOCKED: ENDBRANCH  31  32
DOCKED: ENDBRANCH  30  31
DOCKED: ENDBRANCH   6  30
DOCKED: BRANCH  22  36
DOCKED: ATOM     36  C   UNL d   1      -7.926 -12.411  -1.982 -0.27 +0.04    +0.052 C 
DOCKED: BRANCH  36  37
DOCKED: ATOM     37  C   UNL d   1      -8.115 -12.356  -0.473 -0.22 +0.09    +0.115 C 
DOCKED: BRANCH  37  38
DOCKED: ATOM     38  C   UNL d   1      -6.906 -12.890   0.241 -0.23 +0.18    +0.139 C 
DOCKED: ATOM     39  O   UNL d   1      -6.685 -12.592   1.406 -0.47 -1.05    -0.650 OA
DOCKED: BRANCH  38  40
DOCKED: ATOM     40  O   UNL d   1      -6.051 -13.704  -0.403 -0.09 -1.34    -0.776 OA
DOCKED: ATOM     41  H   UNL d   1      -5.100 -13.599  -0.256 +0.04 +0.32    +0.167 HD
DOCKED: ENDBRANCH  38  40
DOCKED: ENDBRANCH  37  38
DOCKED: ENDBRANCH  36  37
DOCKED: ENDBRANCH  22  36
DOCKED: BRANCH  12  42
DOCKED: ATOM     42  C   UNL d   1      -1.976  -2.979  -3.351 -0.40 +0.00    +0.004 C 
DOCKED: ATOM     43  C   UNL d   1      -2.008  -2.319  -4.516 -0.58 +0.00    +0.012 C 
DOCKED: ENDBRANCH  12  42
DOCKED: BRANCH  17  44
DOCKED: ATOM     44  C   UNL d   1      -9.528  -5.124  -4.786 -0.56 +0.00    +0.004 C 
DOCKED: ATOM     45  C   UNL d   1     -10.201  -4.046  -4.370 -0.68 +0.00    +0.012 C 
DOCKED: ENDBRANCH  17  44
DOCKED: TORSDOF 10
DOCKED: TER
DOCKED: ENDMDL
________________________________________________________________________________


	BEGINNING GENETIC ALGORITHM DOCKING 60 of 100
Run: 60 Seed: 417009606 423159880 [ Run 60 of 100 GA/GALS ]
Beginning LAMARCKIAN GENETIC ALGORITHM (LGA), with a maximum of 25000000 energy evaluations.

Final-Value: -17.922


	FINAL GENETIC ALGORITHM DOCKED STATE
	_______________________________________________


Detailed state:  trans -5.540 -10.804 -1.415 quatxyzw -0.573193 -0.787940 0.133636 0.180947 center -0.174 -0.001 -0.047 ntor 10 -53.7092 -79.0427 95.0672 -165.0064 -14.1845 178.1066 -64.0492 30.2379 -159.7490 166.5031
State:	 -5.540 -10.804  -1.415  -0.583 -0.801  0.136 159.150    -53.71  -79.04   95.07 -165.01  -14.18  178.11  -64.05   30.24 -159.75  166.50

DOCKED: MODEL       60
DOCKED: USER    Run = 60
DOCKED: USER    DPF = D:/Protein_go_brrr/autodock/final/AncA/heme_Fe/dock.dpf
DOCKED: USER  
DOCKED: USER    Estimated Free Energy of Binding    =  -12.35 kcal/mol  [=(1)+(2)+(3)-(4)]
DOCKED: USER    Estimated Inhibition Constant, Ki   =  887.69 pM (picomolar)  [Temperature = 298.15 K]
DOCKED: USER    
DOCKED: USER    (1) Final Intermolecular Energy     =  -15.33 kcal/mol
DOCKED: USER        vdW + Hbond + desolv Energy     =  -12.15 kcal/mol
DOCKED: USER        Electrostatic Energy            =   -3.18 kcal/mol
DOCKED: USER    (2) Final Total Internal Energy     =   -2.59 kcal/mol
DOCKED: USER    (3) Torsional Free Energy           =   +2.98 kcal/mol
DOCKED: USER    (4) Unbound System's Energy  [=(2)] =   -2.59 kcal/mol
DOCKED: USER    
DOCKED: USER    
DOCKED: USER    NEWDPF move heme_Fe_opt.pdbqt
DOCKED: USER    NEWDPF about -0.174000 -0.001000 -0.047000
DOCKED: USER    NEWDPF tran0 -5.540439 -10.803597 -1.415062
DOCKED: USER    NEWDPF quaternion0 -0.573193 -0.787940 0.133636 0.180947
DOCKED: USER    NEWDPF axisangle0 -0.582814 -0.801165 0.135879 159.150205
DOCKED: USER    NEWDPF quat0 -0.582814 -0.801165 0.135879 159.150205
DOCKED: USER    NEWDPF dihe0 -53.71 -79.04 95.07 -165.01 -14.18 178.11 -64.05 30.24 -159.75 166.50 
DOCKED: USER  keepresnum = 1 
DOCKED: USER  
DOCKED: REMARK  10 active torsions:
DOCKED: REMARK  status: ('A' for Active; 'I' for Inactive)
DOCKED: REMARK    1  A    between atoms: C_6  and  C_10 
DOCKED: REMARK    2  A    between atoms: C_10  and  C_11 
DOCKED: REMARK    3  A    between atoms: C_11  and  C_12 
DOCKED: REMARK    4  A    between atoms: C_12  and  O_14 
DOCKED: REMARK    5  A    between atoms: C_17  and  C_20 
DOCKED: REMARK    6  A    between atoms: C_24  and  C_27 
DOCKED: REMARK    7  A    between atoms: C_31  and  C_34 
DOCKED: REMARK    8  A    between atoms: C_34  and  C_35 
DOCKED: REMARK    9  A    between atoms: C_35  and  C_36 
DOCKED: REMARK   10  A    between atoms: C_36  and  O_38 
DOCKED: USER                              x       y       z     vdW  Elec       q    Type
DOCKED: USER                           _______ _______ _______ _____ _____    ______ ____
DOCKED: ROOT
DOCKED: ATOM      1  C   UNL d   1      -4.977 -12.738  -1.025 -0.29 +0.10    +0.064 C 
DOCKED: ATOM      2  C   UNL d   1      -9.180 -10.556  -2.441 -0.34 +0.02    +0.064 A 
DOCKED: ATOM      3  C   UNL d   1      -6.681  -6.599  -3.521 -0.43 +0.02    +0.064 C 
DOCKED: ATOM      4  C   UNL d   1      -2.617  -8.655  -2.057 -0.50 +0.02    +0.064 C 
DOCKED: ATOM      5  C   UNL d   1      -6.403 -12.462  -1.244 -0.24 +0.08    +0.066 A 
DOCKED: ATOM      6  C   UNL d   1      -7.434 -13.334  -0.937 -0.20 -0.02    -0.021 A 
DOCKED: ATOM      7  C   UNL d   1      -8.601 -12.729  -1.334 -0.22 -0.02    -0.025 A 
DOCKED: ATOM      8  C   UNL d   1      -8.237 -11.509  -1.869 -0.22 +0.04    +0.066 A 
DOCKED: ATOM      9  C   UNL d   1      -9.981 -13.291  -1.185 -0.22 +0.03    +0.051 C 
DOCKED: ATOM     10  C   UNL d   1      -8.862  -9.349  -2.911 -0.38 +0.02    +0.066 A 
DOCKED: ATOM     11  C   UNL d   1      -9.769  -8.505  -3.557 -0.51 -0.00    -0.021 A 
DOCKED: ATOM     12  C   UNL d   1      -9.069  -7.364  -3.893 -0.48 +0.00    +0.000 A 
DOCKED: ATOM     13  C   UNL d   1      -7.755  -7.576  -3.438 -0.41 +0.02    +0.070 A 
DOCKED: ATOM     14  C   UNL d   1     -11.215  -8.799  -3.898 -0.31 +0.00    +0.052 C 
DOCKED: ATOM     15  C   UNL d   1      -5.403  -6.818  -3.132 -0.18 +0.03    +0.066 A 
DOCKED: ATOM     16  C   UNL d   1      -4.429  -5.827  -3.135 -0.41 -0.01    -0.021 A 
DOCKED: ATOM     17  C   UNL d   1      -3.255  -6.419  -2.716 -0.36 +0.00    +0.000 A 
DOCKED: ATOM     18  C   UNL d   1      -3.540  -7.760  -2.471 -0.37 +0.02    +0.070 A 
DOCKED: ATOM     19  C   UNL d   1      -4.586  -4.386  -3.539 -0.24 +0.01    +0.052 C 
DOCKED: ATOM     20  C   UNL d   1      -2.893 -10.060  -1.731 -0.38 +0.04    +0.066 A 
DOCKED: ATOM     21  C   UNL d   1      -1.921 -11.043  -1.496 -0.34 -0.02    -0.025 A 
DOCKED: ATOM     22  C   UNL d   1      -2.616 -12.195  -1.191 -0.28 -0.02    -0.021 A 
DOCKED: ATOM     23  C   UNL d   1      -3.977 -11.873  -1.258 -0.29 +0.08    +0.066 A 
DOCKED: ATOM     24  C   UNL d   1      -0.417 -10.915  -1.557 -0.38 +0.02    +0.051 C 
DOCKED: ATOM     25  N   UNL d   1      -6.900 -11.345  -1.805 -0.00 -0.19    -0.248 N 
DOCKED: ATOM     26  N   UNL d   1      -7.627  -8.789  -2.847 -0.17 -0.09    -0.248 N 
DOCKED: ATOM     27  N   UNL d   1      -4.869  -7.997  -2.684 -0.24 -0.12    -0.248 N 
DOCKED: ATOM     28  N   UNL d   1      -4.140 -10.581  -1.631 -0.22 -0.18    -0.248 N 
DOCKED: ATOM     29 FE   UNL d   1      -5.881  -9.684  -2.239 -0.08 +0.00    +0.000 Fe
DOCKED: ENDROOT
DOCKED: BRANCH   6  30
DOCKED: ATOM     30  C   UNL d   1      -7.321 -14.667  -0.279 -0.15 +0.07    +0.052 C 
DOCKED: BRANCH  30  31
DOCKED: ATOM     31  C   UNL d   1      -6.675 -15.680  -1.218 -0.02 +0.19    +0.115 C 
DOCKED: BRANCH  31  32
DOCKED: ATOM     32  C   UNL d   1      -5.359 -16.148  -0.662 -0.10 +0.26    +0.139 C 
DOCKED: ATOM     33  O   UNL d   1      -4.820 -15.545   0.255 -0.48 -1.50    -0.650 OA
DOCKED: BRANCH  32  34
DOCKED: ATOM     34  O   UNL d   1      -4.761 -17.238  -1.171 -0.01 -1.14    -0.776 OA
DOCKED: ATOM     35  H   UNL d   1      -3.845 -17.172  -1.476 +0.01 +0.26    +0.167 HD
DOCKED: ENDBRANCH  32  34
DOCKED: ENDBRANCH  31  32
DOCKED: ENDBRANCH  30  31
DOCKED: ENDBRANCH   6  30
DOCKED: BRANCH  22  36
DOCKED: ATOM     36  C   UNL d   1      -2.004 -13.540  -0.900 -0.23 +0.06    +0.052 C 
DOCKED: BRANCH  36  37
DOCKED: ATOM     37  C   UNL d   1      -2.003 -14.387  -2.164 -0.04 +0.19    +0.115 C 
DOCKED: BRANCH  37  38
DOCKED: ATOM     38  C   UNL d   1      -2.097 -15.850  -1.833 -0.07 +0.21    +0.139 C 
DOCKED: ATOM     39  O   UNL d   1      -2.146 -16.690  -2.719 -0.51 -1.01    -0.650 OA
DOCKED: BRANCH  38  40
DOCKED: ATOM     40  O   UNL d   1      -2.132 -16.246  -0.548 +0.01 -0.88    -0.776 OA
DOCKED: ATOM     41  H   UNL d   1      -2.983 -16.482  -0.152 +0.02 +0.22    +0.167 HD
DOCKED: ENDBRANCH  38  40
DOCKED: ENDBRANCH  37  38
DOCKED: ENDBRANCH  36  37
DOCKED: ENDBRANCH  22  36
DOCKED: BRANCH  12  42
DOCKED: ATOM     42  C   UNL d   1      -9.645  -6.187  -4.614 -0.39 +0.00    +0.004 C 
DOCKED: ATOM     43  C   UNL d   1      -9.272  -4.938  -4.305 -0.58 +0.00    +0.012 C 
DOCKED: ENDBRANCH  12  42
DOCKED: BRANCH  17  44
DOCKED: ATOM     44  C   UNL d   1      -1.951  -5.740  -2.542 -0.38 +0.00    +0.004 C 
DOCKED: ATOM     45  C   UNL d   1      -0.926  -6.007  -3.358 -0.56 +0.00    +0.012 C 
DOCKED: ENDBRANCH  17  44
DOCKED: TORSDOF 10
DOCKED: TER
DOCKED: ENDMDL
________________________________________________________________________________


	BEGINNING GENETIC ALGORITHM DOCKING 61 of 100
Run: 61 Seed: 767001631 819880860 [ Run 61 of 100 GA/GALS ]
Beginning LAMARCKIAN GENETIC ALGORITHM (LGA), with a maximum of 25000000 energy evaluations.

Final-Value: -16.538


	FINAL GENETIC ALGORITHM DOCKED STATE
	_______________________________________________


Detailed state:  trans -5.699 -11.218 -1.356 quatxyzw -0.396293 -0.880238 0.132339 0.224987 center -0.174 -0.001 -0.047 ntor 10 175.0049 -162.6853 -108.6323 -154.4906 16.0875 84.8160 -40.3592 124.1728 -151.9567 -179.8478
State:	 -5.699 -11.218  -1.356  -0.407 -0.903  0.136 153.996    175.00 -162.69 -108.63 -154.49   16.09   84.82  -40.36  124.17 -151.96 -179.85

DOCKED: MODEL       61
DOCKED: USER    Run = 61
DOCKED: USER    DPF = D:/Protein_go_brrr/autodock/final/AncA/heme_Fe/dock.dpf
DOCKED: USER  
DOCKED: USER    Estimated Free Energy of Binding    =  -11.78 kcal/mol  [=(1)+(2)+(3)-(4)]
DOCKED: USER    Estimated Inhibition Constant, Ki   =    2.32 nM (nanomolar)  [Temperature = 298.15 K]
DOCKED: USER    
DOCKED: USER    (1) Final Intermolecular Energy     =  -14.76 kcal/mol
DOCKED: USER        vdW + Hbond + desolv Energy     =  -11.04 kcal/mol
DOCKED: USER        Electrostatic Energy            =   -3.72 kcal/mol
DOCKED: USER    (2) Final Total Internal Energy     =   -1.78 kcal/mol
DOCKED: USER    (3) Torsional Free Energy           =   +2.98 kcal/mol
DOCKED: USER    (4) Unbound System's Energy  [=(2)] =   -1.78 kcal/mol
DOCKED: USER    
DOCKED: USER    
DOCKED: USER    NEWDPF move heme_Fe_opt.pdbqt
DOCKED: USER    NEWDPF about -0.174000 -0.001000 -0.047000
DOCKED: USER    NEWDPF tran0 -5.699275 -11.217535 -1.356200
DOCKED: USER    NEWDPF quaternion0 -0.396293 -0.880238 0.132339 0.224987
DOCKED: USER    NEWDPF axisangle0 -0.406721 -0.903399 0.135822 153.995767
DOCKED: USER    NEWDPF quat0 -0.406721 -0.903399 0.135822 153.995767
DOCKED: USER    NEWDPF dihe0 175.00 -162.69 -108.63 -154.49 16.09 84.82 -40.36 124.17 -151.96 -179.85 
DOCKED: USER  keepresnum = 1 
DOCKED: USER  
DOCKED: REMARK  10 active torsions:
DOCKED: REMARK  status: ('A' for Active; 'I' for Inactive)
DOCKED: REMARK    1  A    between atoms: C_6  and  C_10 
DOCKED: REMARK    2  A    between atoms: C_10  and  C_11 
DOCKED: REMARK    3  A    between atoms: C_11  and  C_12 
DOCKED: REMARK    4  A    between atoms: C_12  and  O_14 
DOCKED: REMARK    5  A    between atoms: C_17  and  C_20 
DOCKED: REMARK    6  A    between atoms: C_24  and  C_27 
DOCKED: REMARK    7  A    between atoms: C_31  and  C_34 
DOCKED: REMARK    8  A    between atoms: C_34  and  C_35 
DOCKED: REMARK    9  A    between atoms: C_35  and  C_36 
DOCKED: REMARK   10  A    between atoms: C_36  and  O_38 
DOCKED: USER                              x       y       z     vdW  Elec       q    Type
DOCKED: USER                           _______ _______ _______ _____ _____    ______ ____
DOCKED: ROOT
DOCKED: ATOM      1  C   UNL d   1      -4.431 -12.739  -0.820 -0.25 +0.10    +0.064 C 
DOCKED: ATOM      2  C   UNL d   1      -9.140 -12.493  -2.300 -0.21 +0.04    +0.064 A 
DOCKED: ATOM      3  C   UNL d   1      -8.369  -7.988  -3.777 -0.49 +0.02    +0.064 C 
DOCKED: ATOM      4  C   UNL d   1      -3.837  -8.169  -2.255 -0.44 +0.02    +0.064 C 
DOCKED: ATOM      5  C   UNL d   1      -5.850 -13.059  -1.024 -0.23 +0.11    +0.066 A 
DOCKED: ATOM      6  C   UNL d   1      -6.463 -14.232  -0.616 -0.18 -0.04    -0.021 A 
DOCKED: ATOM      7  C   UNL d   1      -7.770 -14.165  -1.031 -0.14 -0.03    -0.025 A 
DOCKED: ATOM      8  C   UNL d   1      -7.905 -12.951  -1.676 -0.20 +0.06    +0.066 A 
DOCKED: ATOM      9  C   UNL d   1      -8.825 -15.203  -0.798 -0.08 +0.04    +0.051 C 
DOCKED: ATOM     10  C   UNL d   1      -9.313 -11.303  -2.879 -0.23 +0.03    +0.066 A 
DOCKED: ATOM     11  C   UNL d   1     -10.472 -10.938  -3.568 -0.34 -0.01    -0.021 A 
DOCKED: ATOM     12  C   UNL d   1     -10.268  -9.649  -4.019 -0.48 +0.00    +0.000 A 
DOCKED: ATOM     13  C   UNL d   1      -8.979  -9.294  -3.583 -0.39 +0.02    +0.070 A 
DOCKED: ATOM     14  C   UNL d   1     -11.687 -11.800  -3.844 -0.34 +0.01    +0.052 C 
DOCKED: ATOM     15  C   UNL d   1      -7.109  -7.658  -3.405 -0.37 +0.03    +0.066 A 
DOCKED: ATOM     16  C   UNL d   1      -6.597  -6.372  -3.517 -0.41 -0.01    -0.021 A 
DOCKED: ATOM     17  C   UNL d   1      -5.289  -6.422  -3.082 -0.37 +0.00    +0.000 A 
DOCKED: ATOM     18  C   UNL d   1      -5.032  -7.742  -2.718 -0.24 +0.03    +0.070 A 
DOCKED: ATOM     19  C   UNL d   1      -7.300  -5.146  -4.037 -0.49 +0.01    +0.052 C 
DOCKED: ATOM     20  C   UNL d   1      -3.547  -9.535  -1.805 -0.40 +0.03    +0.066 A 
DOCKED: ATOM     21  C   UNL d   1      -2.272 -10.039  -1.514 -0.42 -0.01    -0.025 A 
DOCKED: ATOM     22  C   UNL d   1      -2.466 -11.339  -1.095 -0.28 -0.02    -0.021 A 
DOCKED: ATOM     23  C   UNL d   1      -3.844 -11.578  -1.152 -0.30 +0.07    +0.066 A 
DOCKED: ATOM     24  C   UNL d   1      -0.935  -9.344  -1.626 -0.35 +0.01    +0.051 C 
DOCKED: ATOM     25  N   UNL d   1      -6.738 -12.276  -1.662 -0.17 -0.27    -0.248 N 
DOCKED: ATOM     26  N   UNL d   1      -8.394 -10.305  -2.896 -0.20 -0.10    -0.248 N 
DOCKED: ATOM     27  N   UNL d   1      -6.163  -8.493  -2.875 -0.12 -0.12    -0.248 N 
DOCKED: ATOM     28  N   UNL d   1      -4.494 -10.488  -1.628 -0.18 -0.18    -0.248 N 
DOCKED: ATOM     29 FE   UNL d   1      -6.442 -10.395  -2.262 -0.08 +0.00    +0.000 Fe
DOCKED: ENDROOT
DOCKED: BRANCH   6  30
DOCKED: ATOM     30  C   UNL d   1      -5.846 -15.353   0.148 +0.10 +0.11    +0.052 C 
DOCKED: BRANCH  30  31
DOCKED: ATOM     31  C   UNL d   1      -4.715 -15.993  -0.650 -0.10 +0.22    +0.115 C 
DOCKED: BRANCH  31  32
DOCKED: ATOM     32  C   UNL d   1      -3.558 -16.325   0.250 -0.11 +0.21    +0.139 C 
DOCKED: ATOM     33  O   UNL d   1      -3.701 -16.355   1.464 +0.09 -1.26    -0.650 OA
DOCKED: BRANCH  32  34
DOCKED: ATOM     34  O   UNL d   1      -2.350 -16.593  -0.274 +0.02 -0.86    -0.776 OA
DOCKED: ATOM     35  H   UNL d   1      -2.256 -16.640  -1.236 +0.02 +0.20    +0.167 HD
DOCKED: ENDBRANCH  32  34
DOCKED: ENDBRANCH  31  32
DOCKED: ENDBRANCH  30  31
DOCKED: ENDBRANCH   6  30
DOCKED: BRANCH  22  36
DOCKED: ATOM     36  C   UNL d   1      -1.381 -12.310  -0.709 -0.24 +0.04    +0.052 C 
DOCKED: BRANCH  36  37
DOCKED: ATOM     37  C   UNL d   1      -0.806 -12.960  -1.959 -0.20 +0.09    +0.115 C 
DOCKED: BRANCH  37  38
DOCKED: ATOM     38  C   UNL d   1      -1.882 -13.637  -2.759 -0.09 +0.21    +0.139 C 
DOCKED: ATOM     39  O   UNL d   1      -2.556 -13.006  -3.561 -0.25 -1.23    -0.650 OA
DOCKED: BRANCH  38  40
DOCKED: ATOM     40  O   UNL d   1      -2.116 -14.951  -2.594 -0.01 -1.56    -0.776 OA
DOCKED: ATOM     41  H   UNL d   1      -1.775 -15.393  -1.804 +0.03 +0.23    +0.167 HD
DOCKED: ENDBRANCH  38  40
DOCKED: ENDBRANCH  37  38
DOCKED: ENDBRANCH  36  37
DOCKED: ENDBRANCH  22  36
DOCKED: BRANCH  12  42
DOCKED: ATOM     42  C   UNL d   1     -11.251  -8.856  -4.820 -0.45 +0.00    +0.004 C 
DOCKED: ATOM     43  C   UNL d   1     -11.663  -9.281  -6.022 -0.53 +0.00    +0.012 C 
DOCKED: ENDBRANCH  12  42
DOCKED: BRANCH  17  44
DOCKED: ATOM     44  C   UNL d   1      -4.353  -5.278  -3.001 -0.46 +0.00    +0.004 C 
DOCKED: ATOM     45  C   UNL d   1      -3.425  -5.085  -3.944 -0.49 +0.00    +0.012 C 
DOCKED: ENDBRANCH  17  44
DOCKED: TORSDOF 10
DOCKED: TER
DOCKED: ENDMDL
________________________________________________________________________________


	BEGINNING GENETIC ALGORITHM DOCKING 62 of 100
Run: 62 Seed: 416353331 1067348632 [ Run 62 of 100 GA/GALS ]
Beginning LAMARCKIAN GENETIC ALGORITHM (LGA), with a maximum of 25000000 energy evaluations.

Final-Value: -16.669


	FINAL GENETIC ALGORITHM DOCKED STATE
	_______________________________________________


Detailed state:  trans -4.505 -8.147 -3.381 quatxyzw -0.046867 0.150292 0.974986 -0.156902 center -0.174 -0.001 -0.047 ntor 10 -176.4040 167.4272 -119.0620 -137.3316 -44.4585 55.9671 59.0980 103.5575 133.5633 10.2931
State:	 -4.505  -8.147  -3.381  -0.047  0.152  0.987 -161.946   -176.40  167.43 -119.06 -137.33  -44.46   55.97   59.10  103.56  133.56   10.29

DOCKED: MODEL       62
DOCKED: USER    Run = 62
DOCKED: USER    DPF = D:/Protein_go_brrr/autodock/final/AncA/heme_Fe/dock.dpf
DOCKED: USER  
DOCKED: USER    Estimated Free Energy of Binding    =  -13.19 kcal/mol  [=(1)+(2)+(3)-(4)]
DOCKED: USER    Estimated Inhibition Constant, Ki   =  215.88 pM (picomolar)  [Temperature = 298.15 K]
DOCKED: USER    
DOCKED: USER    (1) Final Intermolecular Energy     =  -16.17 kcal/mol
DOCKED: USER        vdW + Hbond + desolv Energy     =  -14.41 kcal/mol
DOCKED: USER        Electrostatic Energy            =   -1.76 kcal/mol
DOCKED: USER    (2) Final Total Internal Energy     =   -0.50 kcal/mol
DOCKED: USER    (3) Torsional Free Energy           =   +2.98 kcal/mol
DOCKED: USER    (4) Unbound System's Energy  [=(2)] =   -0.50 kcal/mol
DOCKED: USER    
DOCKED: USER    
DOCKED: USER    NEWDPF move heme_Fe_opt.pdbqt
DOCKED: USER    NEWDPF about -0.174000 -0.001000 -0.047000
DOCKED: USER    NEWDPF tran0 -4.505408 -8.147118 -3.380677
DOCKED: USER    NEWDPF quaternion0 -0.046867 0.150292 0.974986 -0.156902
DOCKED: USER    NEWDPF axisangle0 -0.047455 0.152177 0.987213 -161.945802
DOCKED: USER    NEWDPF quat0 -0.047455 0.152177 0.987213 -161.945802
DOCKED: USER    NEWDPF dihe0 -176.40 167.43 -119.06 -137.33 -44.46 55.97 59.10 103.56 133.56 10.29 
DOCKED: USER  keepresnum = 1 
DOCKED: USER  
DOCKED: REMARK  10 active torsions:
DOCKED: REMARK  status: ('A' for Active; 'I' for Inactive)
DOCKED: REMARK    1  A    between atoms: C_6  and  C_10 
DOCKED: REMARK    2  A    between atoms: C_10  and  C_11 
DOCKED: REMARK    3  A    between atoms: C_11  and  C_12 
DOCKED: REMARK    4  A    between atoms: C_12  and  O_14 
DOCKED: REMARK    5  A    between atoms: C_17  and  C_20 
DOCKED: REMARK    6  A    between atoms: C_24  and  C_27 
DOCKED: REMARK    7  A    between atoms: C_31  and  C_34 
DOCKED: REMARK    8  A    between atoms: C_34  and  C_35 
DOCKED: REMARK    9  A    between atoms: C_35  and  C_36 
DOCKED: REMARK   10  A    between atoms: C_36  and  O_38 
DOCKED: USER                              x       y       z     vdW  Elec       q    Type
DOCKED: USER                           _______ _______ _______ _____ _____    ______ ____
DOCKED: ROOT
DOCKED: ATOM      1  C   UNL d   1      -2.635  -8.508  -2.617 -0.47 +0.02    +0.064 C 
DOCKED: ATOM      2  C   UNL d   1      -5.019  -4.491  -4.233 -0.38 +0.01    +0.064 A 
DOCKED: ATOM      3  C   UNL d   1      -9.148  -6.934  -4.005 -0.48 +0.01    +0.064 C 
DOCKED: ATOM      4  C   UNL d   1      -6.847 -10.864  -2.541 -0.10 +0.04    +0.064 C 
DOCKED: ATOM      5  C   UNL d   1      -2.912  -7.176  -3.173 -0.37 +0.02    +0.066 A 
DOCKED: ATOM      6  C   UNL d   1      -1.947  -6.233  -3.484 -0.46 -0.00    -0.021 A 
DOCKED: ATOM      7  C   UNL d   1      -2.610  -5.116  -3.929 -0.42 -0.00    -0.025 A 
DOCKED: ATOM      8  C   UNL d   1      -3.956  -5.421  -3.873 -0.39 +0.01    +0.066 A 
DOCKED: ATOM      9  C   UNL d   1      -1.977  -3.842  -4.397 -0.43 +0.01    +0.051 C 
DOCKED: ATOM     10  C   UNL d   1      -6.321  -4.779  -4.242 -0.40 +0.01    +0.066 A 
DOCKED: ATOM     11  C   UNL d   1      -7.322  -3.834  -4.481 -0.50 -0.00    -0.021 A 
DOCKED: ATOM     12  C   UNL d   1      -8.523  -4.510  -4.405 -0.51 +0.00    +0.000 A 
DOCKED: ATOM     13  C   UNL d   1      -8.190  -5.844  -4.112 -0.42 +0.02    +0.070 A 
DOCKED: ATOM     14  C   UNL d   1      -7.146  -2.345  -4.704 -0.61 +0.00    +0.052 C 
DOCKED: ATOM     15  C   UNL d   1      -8.837  -8.209  -3.673 -0.44 +0.02    +0.066 A 
DOCKED: ATOM     16  C   UNL d   1      -9.766  -9.242  -3.679 -0.48 -0.00    -0.021 A 
DOCKED: ATOM     17  C   UNL d   1      -9.105 -10.376  -3.254 -0.31 +0.00    +0.000 A 
DOCKED: ATOM     18  C   UNL d   1      -7.788 -10.006  -2.993 -0.16 +0.03    +0.070 A 
DOCKED: ATOM     19  C   UNL d   1     -11.223  -9.164  -4.046 -0.45 +0.00    +0.052 C 
DOCKED: ATOM     20  C   UNL d   1      -5.437 -10.526  -2.315 -0.14 +0.05    +0.066 A 
DOCKED: ATOM     21  C   UNL d   1      -4.503 -11.342  -1.662 -0.33 -0.03    -0.025 A 
DOCKED: ATOM     22  C   UNL d   1      -3.307 -10.657  -1.706 -0.37 -0.02    -0.021 A 
DOCKED: ATOM     23  C   UNL d   1      -3.558  -9.453  -2.375 -0.37 +0.03    +0.066 A 
DOCKED: ATOM     24  C   UNL d   1      -4.716 -12.695  -1.023 -0.29 +0.08    +0.051 C 
DOCKED: ATOM     25  N   UNL d   1      -4.136  -6.679  -3.421 -0.16 -0.09    -0.248 N 
DOCKED: ATOM     26  N   UNL d   1      -6.849  -6.007  -4.004 -0.26 -0.07    -0.248 N 
DOCKED: ATOM     27  N   UNL d   1      -7.611  -8.684  -3.292 -0.27 -0.09    -0.248 N 
DOCKED: ATOM     28  N   UNL d   1      -4.869  -9.359  -2.704 -0.23 -0.13    -0.248 N 
DOCKED: ATOM     29 FE   UNL d   1      -5.860  -7.684  -3.354 -0.09 +0.00    +0.000 Fe
DOCKED: ENDROOT
DOCKED: BRANCH   6  30
DOCKED: ATOM     30  C   UNL d   1      -0.468  -6.389  -3.384 -0.51 +0.01    +0.052 C 
DOCKED: BRANCH  30  31
DOCKED: ATOM     31  C   UNL d   1       0.168  -5.140  -2.786 -0.55 +0.01    +0.115 C 
DOCKED: BRANCH  31  32
DOCKED: ATOM     32  C   UNL d   1       1.164  -4.546  -3.743 -0.51 +0.02    +0.139 C 
DOCKED: ATOM     33  O   UNL d   1       1.962  -5.260  -4.335 -0.12 -0.09    -0.650 OA
DOCKED: BRANCH  32  34
DOCKED: ATOM     34  O   UNL d   1       1.186  -3.220  -3.958 +0.17 -0.08    -0.776 OA
DOCKED: ATOM     35  H   UNL d   1       0.590  -2.652  -3.450 +0.14 +0.01    +0.167 HD
DOCKED: ENDBRANCH  32  34
DOCKED: ENDBRANCH  31  32
DOCKED: ENDBRANCH  30  31
DOCKED: ENDBRANCH   6  30
DOCKED: BRANCH  22  36
DOCKED: ATOM     36  C   UNL d   1      -2.008 -11.114  -1.096 -0.30 +0.04    +0.052 C 
DOCKED: BRANCH  36  37
DOCKED: ATOM     37  C   UNL d   1      -1.050 -11.550  -2.195 -0.26 +0.07    +0.115 C 
DOCKED: BRANCH  37  38
DOCKED: ATOM     38  C   UNL d   1      -1.412 -12.913  -2.715 -0.21 +0.14    +0.139 C 
DOCKED: ATOM     39  O   UNL d   1      -2.531 -13.139  -3.150 -0.26 -1.29    -0.650 OA
DOCKED: BRANCH  38  40
DOCKED: ATOM     40  O   UNL d   1      -0.499 -13.900  -2.700 +0.06 -0.65    -0.776 OA
DOCKED: ATOM     41  H   UNL d   1       0.428 -13.681  -2.533 +0.05 +0.10    +0.167 HD
DOCKED: ENDBRANCH  38  40
DOCKED: ENDBRANCH  37  38
DOCKED: ENDBRANCH  36  37
DOCKED: ENDBRANCH  22  36
DOCKED: BRANCH  12  42
DOCKED: ATOM     42  C   UNL d   1      -9.870  -3.885  -4.585 -0.70 +0.00    +0.004 C 
DOCKED: ATOM     43  C   UNL d   1     -10.378  -3.062  -3.659 -0.67 +0.00    +0.012 C 
DOCKED: ENDBRANCH  12  42
DOCKED: BRANCH  17  44
DOCKED: ATOM     44  C   UNL d   1      -9.692 -11.729  -3.125 -0.15 +0.00    +0.004 C 
DOCKED: ATOM     45  C   UNL d   1     -10.373 -12.079  -2.029 -0.32 +0.00    +0.012 C 
DOCKED: ENDBRANCH  17  44
DOCKED: TORSDOF 10
DOCKED: TER
DOCKED: ENDMDL
________________________________________________________________________________


	BEGINNING GENETIC ALGORITHM DOCKING 63 of 100
Run: 63 Seed: 1441479127 1213739646 [ Run 63 of 100 GA/GALS ]
Beginning LAMARCKIAN GENETIC ALGORITHM (LGA), with a maximum of 25000000 energy evaluations.

Final-Value: -17.715


	FINAL GENETIC ALGORITHM DOCKED STATE
	_______________________________________________


Detailed state:  trans -5.341 -11.095 -1.997 quatxyzw 0.120199 -0.090766 -0.807643 0.570111 center -0.174 -0.001 -0.047 ntor 10 -155.6275 -85.2504 91.6702 24.3537 70.8432 29.2990 117.5936 -67.4027 17.6910 13.6502
State:	 -5.341 -11.095  -1.997   0.146 -0.110 -0.983 110.484   -155.63  -85.25   91.67   24.35   70.84   29.30  117.59  -67.40   17.69   13.65

DOCKED: MODEL       63
DOCKED: USER    Run = 63
DOCKED: USER    DPF = D:/Protein_go_brrr/autodock/final/AncA/heme_Fe/dock.dpf
DOCKED: USER  
DOCKED: USER    Estimated Free Energy of Binding    =  -13.03 kcal/mol  [=(1)+(2)+(3)-(4)]
DOCKED: USER    Estimated Inhibition Constant, Ki   =  280.23 pM (picomolar)  [Temperature = 298.15 K]
DOCKED: USER    
DOCKED: USER    (1) Final Intermolecular Energy     =  -16.01 kcal/mol
DOCKED: USER        vdW + Hbond + desolv Energy     =  -11.52 kcal/mol
DOCKED: USER        Electrostatic Energy            =   -4.50 kcal/mol
DOCKED: USER    (2) Final Total Internal Energy     =   -1.70 kcal/mol
DOCKED: USER    (3) Torsional Free Energy           =   +2.98 kcal/mol
DOCKED: USER    (4) Unbound System's Energy  [=(2)] =   -1.70 kcal/mol
DOCKED: USER    
DOCKED: USER    
DOCKED: USER    NEWDPF move heme_Fe_opt.pdbqt
DOCKED: USER    NEWDPF about -0.174000 -0.001000 -0.047000
DOCKED: USER    NEWDPF tran0 -5.341174 -11.094962 -1.997335
DOCKED: USER    NEWDPF quaternion0 0.120199 -0.090766 -0.807643 0.570111
DOCKED: USER    NEWDPF axisangle0 0.146305 -0.110479 -0.983051 110.484017
DOCKED: USER    NEWDPF quat0 0.146305 -0.110479 -0.983051 110.484017
DOCKED: USER    NEWDPF dihe0 -155.63 -85.25 91.67 24.35 70.84 29.30 117.59 -67.40 17.69 13.65 
DOCKED: USER  keepresnum = 1 
DOCKED: USER  
DOCKED: REMARK  10 active torsions:
DOCKED: REMARK  status: ('A' for Active; 'I' for Inactive)
DOCKED: REMARK    1  A    between atoms: C_6  and  C_10 
DOCKED: REMARK    2  A    between atoms: C_10  and  C_11 
DOCKED: REMARK    3  A    between atoms: C_11  and  C_12 
DOCKED: REMARK    4  A    between atoms: C_12  and  O_14 
DOCKED: REMARK    5  A    between atoms: C_17  and  C_20 
DOCKED: REMARK    6  A    between atoms: C_24  and  C_27 
DOCKED: REMARK    7  A    between atoms: C_31  and  C_34 
DOCKED: REMARK    8  A    between atoms: C_34  and  C_35 
DOCKED: REMARK    9  A    between atoms: C_35  and  C_36 
DOCKED: REMARK   10  A    between atoms: C_36  and  O_38 
DOCKED: USER                              x       y       z     vdW  Elec       q    Type
DOCKED: USER                           _______ _______ _______ _____ _____    ______ ____
DOCKED: ROOT
DOCKED: ATOM      1  C   UNL d   1      -4.698 -12.705  -0.900 -0.28 +0.10    +0.064 C 
DOCKED: ATOM      2  C   UNL d   1      -2.718  -8.368  -2.204 -0.43 +0.02    +0.064 A 
DOCKED: ATOM      3  C   UNL d   1      -7.093  -6.824  -3.448 -0.45 +0.02    +0.064 C 
DOCKED: ATOM      4  C   UNL d   1      -9.013 -11.050  -2.291 -0.34 +0.03    +0.064 C 
DOCKED: ATOM      5  C   UNL d   1      -3.723 -11.657  -1.230 -0.30 +0.07    +0.066 A 
DOCKED: ATOM      6  C   UNL d   1      -2.349 -11.789  -1.111 -0.28 -0.02    -0.021 A 
DOCKED: ATOM      7  C   UNL d   1      -1.800 -10.582  -1.470 -0.37 -0.01    -0.025 A 
DOCKED: ATOM      8  C   UNL d   1      -2.861  -9.760  -1.795 -0.40 +0.03    +0.066 A 
DOCKED: ATOM      9  C   UNL d   1      -0.339 -10.255  -1.513 -0.33 +0.02    +0.051 C 
DOCKED: ATOM     10  C   UNL d   1      -3.720  -7.571  -2.578 -0.36 +0.02    +0.066 A 
DOCKED: ATOM     11  C   UNL d   1      -3.566  -6.210  -2.855 -0.36 -0.01    -0.021 A 
DOCKED: ATOM     12  C   UNL d   1      -4.816  -5.738  -3.200 -0.42 +0.00    +0.000 A 
DOCKED: ATOM     13  C   UNL d   1      -5.679  -6.844  -3.107 -0.22 +0.03    +0.070 A 
DOCKED: ATOM     14  C   UNL d   1      -2.301  -5.385  -2.730 -0.40 +0.01    +0.052 C 
DOCKED: ATOM     15  C   UNL d   1      -7.938  -7.873  -3.311 -0.41 +0.02    +0.066 A 
DOCKED: ATOM     16  C   UNL d   1      -9.258  -7.844  -3.742 -0.47 -0.00    -0.021 A 
DOCKED: ATOM     17  C   UNL d   1      -9.815  -9.060  -3.406 -0.51 +0.00    +0.000 A 
DOCKED: ATOM     18  C   UNL d   1      -8.821  -9.803  -2.774 -0.35 +0.02    +0.070 A 
DOCKED: ATOM     19  C   UNL d   1      -9.979  -6.709  -4.420 -0.39 +0.01    +0.052 C 
DOCKED: ATOM     20  C   UNL d   1      -7.975 -11.884  -1.676 -0.22 +0.05    +0.066 A 
DOCKED: ATOM     21  C   UNL d   1      -8.201 -13.089  -0.995 -0.19 -0.02    -0.025 A 
DOCKED: ATOM     22  C   UNL d   1      -6.957 -13.550  -0.619 -0.21 -0.03    -0.021 A 
DOCKED: ATOM     23  C   UNL d   1      -6.025 -12.610  -1.076 -0.25 +0.09    +0.066 A 
DOCKED: ATOM     24  C   UNL d   1      -9.516 -13.777  -0.707 -0.18 +0.03    +0.051 C 
DOCKED: ATOM     25  N   UNL d   1      -4.029 -10.419  -1.658 -0.22 -0.17    -0.248 N 
DOCKED: ATOM     26  N   UNL d   1      -5.013  -7.959  -2.720 -0.23 -0.12    -0.248 N 
DOCKED: ATOM     27  N   UNL d   1      -7.654  -9.091  -2.754 -0.12 -0.10    -0.248 N 
DOCKED: ATOM     28  N   UNL d   1      -6.656 -11.574  -1.680 -0.04 -0.22    -0.248 N 
DOCKED: ATOM     29 FE   UNL d   1      -5.836  -9.767  -2.200 -0.08 +0.00    +0.000 Fe
DOCKED: ENDROOT
DOCKED: BRANCH   6  30
DOCKED: ATOM     30  C   UNL d   1      -1.592 -13.004  -0.698 -0.24 +0.05    +0.052 C 
DOCKED: BRANCH  30  31
DOCKED: ATOM     31  C   UNL d   1      -0.886 -13.634  -1.894 -0.17 +0.10    +0.115 C 
DOCKED: BRANCH  31  32
DOCKED: ATOM     32  C   UNL d   1      -1.889 -14.086  -2.919 +0.09 +0.24    +0.139 C 
DOCKED: ATOM     33  O   UNL d   1      -2.515 -13.270  -3.581 -0.07 -1.33    -0.650 OA
DOCKED: BRANCH  32  34
DOCKED: ATOM     34  O   UNL d   1      -2.108 -15.397  -3.116 -0.11 -1.69    -0.776 OA
DOCKED: ATOM     35  H   UNL d   1      -1.914 -16.018  -2.400 +0.02 +0.26    +0.167 HD
DOCKED: ENDBRANCH  32  34
DOCKED: ENDBRANCH  31  32
DOCKED: ENDBRANCH  30  31
DOCKED: ENDBRANCH   6  30
DOCKED: BRANCH  22  36
DOCKED: ATOM     36  C   UNL d   1      -6.685 -14.799   0.178 -0.14 +0.09    +0.052 C 
DOCKED: BRANCH  36  37
DOCKED: ATOM     37  C   UNL d   1      -6.011 -15.836  -0.707 -0.08 +0.21    +0.115 C 
DOCKED: BRANCH  37  38
DOCKED: ATOM     38  C   UNL d   1      -4.588 -16.065  -0.281 -0.12 +0.26    +0.139 C 
DOCKED: ATOM     39  O   UNL d   1      -4.253 -15.916   0.884 -0.04 -1.53    -0.650 OA
DOCKED: BRANCH  38  40
DOCKED: ATOM     40  O   UNL d   1      -3.667 -16.435  -1.189 -0.01 -1.40    -0.776 OA
DOCKED: ATOM     41  H   UNL d   1      -3.123 -15.755  -1.610 +0.02 +0.37    +0.167 HD
DOCKED: ENDBRANCH  38  40
DOCKED: ENDBRANCH  37  38
DOCKED: ENDBRANCH  36  37
DOCKED: ENDBRANCH  22  36
DOCKED: BRANCH  12  42
DOCKED: ATOM     42  C   UNL d   1      -5.125  -4.321  -3.567 -0.31 +0.00    +0.004 C 
DOCKED: ATOM     43  C   UNL d   1      -5.967  -4.036  -4.568 -0.51 +0.00    +0.012 C 
DOCKED: ENDBRANCH  12  42
DOCKED: BRANCH  17  44
DOCKED: ATOM     44  C   UNL d   1     -11.203  -9.492  -3.690 -0.45 +0.00    +0.004 C 
DOCKED: ATOM     45  C   UNL d   1     -11.553  -9.909  -4.911 -0.56 +0.00    +0.012 C 
DOCKED: ENDBRANCH  17  44
DOCKED: TORSDOF 10
DOCKED: TER
DOCKED: ENDMDL
________________________________________________________________________________


	BEGINNING GENETIC ALGORITHM DOCKING 64 of 100
Run: 64 Seed: 88841192 248898409 [ Run 64 of 100 GA/GALS ]
Beginning LAMARCKIAN GENETIC ALGORITHM (LGA), with a maximum of 25000000 energy evaluations.

Final-Value: -12.697


	FINAL GENETIC ALGORITHM DOCKED STATE
	_______________________________________________


Detailed state:  trans -12.541 -15.932 1.469 quatxyzw 0.011536 -0.744802 -0.667136 0.008220 center -0.174 -0.001 -0.047 ntor 10 153.5560 56.2790 -163.0169 -153.2623 65.1739 -81.5336 -25.7158 46.1422 -150.4694 -179.1254
State:	-12.541 -15.932   1.469   0.012 -0.745 -0.667 179.058    153.56   56.28 -163.02 -153.26   65.17  -81.53  -25.72   46.14 -150.47 -179.13

DOCKED: MODEL       64
DOCKED: USER    Run = 64
DOCKED: USER    DPF = D:/Protein_go_brrr/autodock/final/AncA/heme_Fe/dock.dpf
DOCKED: USER  
DOCKED: USER    Estimated Free Energy of Binding    =   -7.97 kcal/mol  [=(1)+(2)+(3)-(4)]
DOCKED: USER    Estimated Inhibition Constant, Ki   =    1.44 uM (micromolar)  [Temperature = 298.15 K]
DOCKED: USER    
DOCKED: USER    (1) Final Intermolecular Energy     =  -10.95 kcal/mol
DOCKED: USER        vdW + Hbond + desolv Energy     =   -6.87 kcal/mol
DOCKED: USER        Electrostatic Energy            =   -4.08 kcal/mol
DOCKED: USER    (2) Final Total Internal Energy     =   -1.74 kcal/mol
DOCKED: USER    (3) Torsional Free Energy           =   +2.98 kcal/mol
DOCKED: USER    (4) Unbound System's Energy  [=(2)] =   -1.74 kcal/mol
DOCKED: USER    
DOCKED: USER    
DOCKED: USER    NEWDPF move heme_Fe_opt.pdbqt
DOCKED: USER    NEWDPF about -0.174000 -0.001000 -0.047000
DOCKED: USER    NEWDPF tran0 -12.540504 -15.931511 1.468758
DOCKED: USER    NEWDPF quaternion0 0.011536 -0.744802 -0.667136 0.008220
DOCKED: USER    NEWDPF axisangle0 0.011536 -0.744827 -0.667158 179.058076
DOCKED: USER    NEWDPF quat0 0.011536 -0.744827 -0.667158 179.058076
DOCKED: USER    NEWDPF dihe0 153.56 56.28 -163.02 -153.26 65.17 -81.53 -25.72 46.14 -150.47 -179.13 
DOCKED: USER  keepresnum = 1 
DOCKED: USER  
DOCKED: REMARK  10 active torsions:
DOCKED: REMARK  status: ('A' for Active; 'I' for Inactive)
DOCKED: REMARK    1  A    between atoms: C_6  and  C_10 
DOCKED: REMARK    2  A    between atoms: C_10  and  C_11 
DOCKED: REMARK    3  A    between atoms: C_11  and  C_12 
DOCKED: REMARK    4  A    between atoms: C_12  and  O_14 
DOCKED: REMARK    5  A    between atoms: C_17  and  C_20 
DOCKED: REMARK    6  A    between atoms: C_24  and  C_27 
DOCKED: REMARK    7  A    between atoms: C_31  and  C_34 
DOCKED: REMARK    8  A    between atoms: C_34  and  C_35 
DOCKED: REMARK    9  A    between atoms: C_35  and  C_36 
DOCKED: REMARK   10  A    between atoms: C_36  and  O_38 
DOCKED: USER                              x       y       z     vdW  Elec       q    Type
DOCKED: USER                           _______ _______ _______ _____ _____    ______ ____
DOCKED: ROOT
DOCKED: ATOM      1  C   UNL d   1     -10.560 -15.397   1.407 -0.12 +0.03    +0.064 C 
DOCKED: ATOM      2  C   UNL d   1     -14.117 -15.977  -1.977 -0.11 +0.01    +0.064 A 
DOCKED: ATOM      3  C   UNL d   1     -17.379 -15.953   1.548 -0.02 +0.01    +0.064 C 
DOCKED: ATOM      4  C   UNL d   1     -13.944 -15.498   4.847 -0.21 +0.01    +0.064 C 
DOCKED: ATOM      5  C   UNL d   1     -11.252 -15.646   0.134 -0.10 +0.02    +0.066 A 
DOCKED: ATOM      6  C   UNL d   1     -10.622 -15.827  -1.086 -0.07 -0.01    -0.021 A 
DOCKED: ATOM      7  C   UNL d   1     -11.610 -15.984  -2.026 -0.08 -0.01    -0.025 A 
DOCKED: ATOM      8  C   UNL d   1     -12.807 -15.894  -1.342 -0.12 +0.02    +0.066 A 
DOCKED: ATOM      9  C   UNL d   1     -11.406 -16.227  -3.490 -0.08 +0.02    +0.051 C 
DOCKED: ATOM     10  C   UNL d   1     -15.285 -15.950  -1.334 -0.13 +0.01    +0.066 A 
DOCKED: ATOM     11  C   UNL d   1     -16.524 -15.916  -1.978 -0.10 -0.00    -0.021 A 
DOCKED: ATOM     12  C   UNL d   1     -17.481 -15.892  -0.983 -0.11 +0.00    +0.000 A 
DOCKED: ATOM     13  C   UNL d   1     -16.769 -15.904   0.229 +0.09 +0.01    +0.070 A 
DOCKED: ATOM     14  C   UNL d   1     -16.782 -15.841  -3.469 -0.04 +0.01    +0.052 C 
DOCKED: ATOM     15  C   UNL d   1     -16.699 -15.912   2.719 -0.13 +0.01    +0.066 A 
DOCKED: ATOM     16  C   UNL d   1     -17.310 -16.062   3.957 -0.14 -0.00    -0.021 A 
DOCKED: ATOM     17  C   UNL d   1     -16.322 -15.928   4.910 -0.17 +0.00    +0.000 A 
DOCKED: ATOM     18  C   UNL d   1     -15.129 -15.694   4.230 -0.20 +0.01    +0.070 A 
DOCKED: ATOM     19  C   UNL d   1     -18.770 -16.298   4.237 -0.08 +0.00    +0.052 C 
DOCKED: ATOM     20  C   UNL d   1     -12.659 -15.310   4.164 -0.21 +0.02    +0.066 A 
DOCKED: ATOM     21  C   UNL d   1     -11.465 -14.909   4.779 -0.21 -0.01    -0.025 A 
DOCKED: ATOM     22  C   UNL d   1     -10.511 -14.899   3.783 -0.17 -0.01    -0.021 A 
DOCKED: ATOM     23  C   UNL d   1     -11.158 -15.287   2.603 -0.14 +0.03    +0.066 A 
DOCKED: ATOM     24  C   UNL d   1     -11.225 -14.547   6.227 -0.16 +0.02    +0.051 C 
DOCKED: ATOM     25  N   UNL d   1     -12.586 -15.697  -0.027 -0.09 -0.06    -0.248 N 
DOCKED: ATOM     26  N   UNL d   1     -15.431 -15.930   0.016 -0.10 -0.05    -0.248 N 
DOCKED: ATOM     27  N   UNL d   1     -15.352 -15.728   2.881 -0.15 -0.04    -0.248 N 
DOCKED: ATOM     28  N   UNL d   1     -12.478 -15.493   2.833 -0.12 -0.07    -0.248 N 
DOCKED: ATOM     29 FE   UNL d   1     -13.954 -15.711   1.427 -0.05 +0.00    +0.000 Fe
DOCKED: ENDROOT
DOCKED: BRANCH   6  30
DOCKED: ATOM     30  C   UNL d   1      -9.155 -15.870  -1.346 -0.06 +0.04    +0.052 C 
DOCKED: BRANCH  30  31
DOCKED: ATOM     31  C   UNL d   1      -8.498 -14.552  -0.953 -0.10 +0.10    +0.115 C 
DOCKED: BRANCH  31  32
DOCKED: ATOM     32  C   UNL d   1      -7.049 -14.766  -0.615 -0.13 +0.20    +0.139 C 
DOCKED: ATOM     33  O   UNL d   1      -6.256 -15.134  -1.470 -0.49 -1.53    -0.650 OA
DOCKED: BRANCH  32  34
DOCKED: ATOM     34  O   UNL d   1      -6.610 -14.554   0.638 -0.24 -1.56    -0.776 OA
DOCKED: ATOM     35  H   UNL d   1      -7.084 -13.927   1.201 +0.04 +0.30    +0.167 HD
DOCKED: ENDBRANCH  32  34
DOCKED: ENDBRANCH  31  32
DOCKED: ENDBRANCH  30  31
DOCKED: ENDBRANCH   6  30
DOCKED: BRANCH  22  36
DOCKED: ATOM     36  C   UNL d   1      -9.071 -14.492   3.948 -0.19 +0.04    +0.052 C 
DOCKED: BRANCH  36  37
DOCKED: ATOM     37  C   UNL d   1      -8.955 -12.976   3.884 -0.33 +0.08    +0.115 C 
DOCKED: BRANCH  37  38
DOCKED: ATOM     38  C   UNL d   1      -7.811 -12.560   3.003 -0.37 +0.16    +0.139 C 
DOCKED: ATOM     39  O   UNL d   1      -6.666 -12.548   3.429 -0.63 -1.26    -0.650 OA
DOCKED: BRANCH  38  40
DOCKED: ATOM     40  O   UNL d   1      -8.043 -12.191   1.730 -0.53 -0.83    -0.776 OA
DOCKED: ATOM     41  H   UNL d   1      -7.580 -12.651   1.016 +0.07 +0.20    +0.167 HD
DOCKED: ENDBRANCH  38  40
DOCKED: ENDBRANCH  37  38
DOCKED: ENDBRANCH  36  37
DOCKED: ENDBRANCH  22  36
DOCKED: BRANCH  12  42
DOCKED: ATOM     42  C   UNL d   1     -18.957 -15.842  -1.217 -0.08 +0.00    +0.004 C 
DOCKED: ATOM     43  C   UNL d   1     -19.680 -14.781  -0.835 -0.13 +0.00    +0.012 C 
DOCKED: ENDBRANCH  12  42
DOCKED: BRANCH  17  44
DOCKED: ATOM     44  C   UNL d   1     -16.504 -16.036   6.375 -0.14 +0.00    +0.004 C 
DOCKED: ATOM     45  C   UNL d   1     -16.610 -14.941   7.135 -0.24 +0.00    +0.012 C 
DOCKED: ENDBRANCH  17  44
DOCKED: TORSDOF 10
DOCKED: TER
DOCKED: ENDMDL
________________________________________________________________________________


	BEGINNING GENETIC ALGORITHM DOCKING 65 of 100
Run: 65 Seed: 81447723 2068678706 [ Run 65 of 100 GA/GALS ]
Beginning LAMARCKIAN GENETIC ALGORITHM (LGA), with a maximum of 25000000 energy evaluations.

Final-Value: -20.280


	FINAL GENETIC ALGORITHM DOCKED STATE
	_______________________________________________


Detailed state:  trans -5.230 -8.898 -3.355 quatxyzw 0.089189 -0.000629 -0.650731 0.754052 center -0.174 -0.001 -0.047 ntor 10 -162.8528 1.1061 76.5731 -127.6530 43.4585 160.6801 -19.0554 70.3661 -172.9284 166.5800
State:	 -5.230  -8.898  -3.355   0.136 -0.001 -0.991 82.115   -162.85    1.11   76.57 -127.65   43.46  160.68  -19.06   70.37 -172.93  166.58

DOCKED: MODEL       65
DOCKED: USER    Run = 65
DOCKED: USER    DPF = D:/Protein_go_brrr/autodock/final/AncA/heme_Fe/dock.dpf
DOCKED: USER  
DOCKED: USER    Estimated Free Energy of Binding    =  -15.16 kcal/mol  [=(1)+(2)+(3)-(4)]
DOCKED: USER    Estimated Inhibition Constant, Ki   =    7.71 pM (picomolar)  [Temperature = 298.15 K]
DOCKED: USER    
DOCKED: USER    (1) Final Intermolecular Energy     =  -18.14 kcal/mol
DOCKED: USER        vdW + Hbond + desolv Energy     =  -14.31 kcal/mol
DOCKED: USER        Electrostatic Energy            =   -3.84 kcal/mol
DOCKED: USER    (2) Final Total Internal Energy     =   -2.14 kcal/mol
DOCKED: USER    (3) Torsional Free Energy           =   +2.98 kcal/mol
DOCKED: USER    (4) Unbound System's Energy  [=(2)] =   -2.14 kcal/mol
DOCKED: USER    
DOCKED: USER    
DOCKED: USER    NEWDPF move heme_Fe_opt.pdbqt
DOCKED: USER    NEWDPF about -0.174000 -0.001000 -0.047000
DOCKED: USER    NEWDPF tran0 -5.229659 -8.898151 -3.355155
DOCKED: USER    NEWDPF quaternion0 0.089189 -0.000629 -0.650731 0.754052
DOCKED: USER    NEWDPF axisangle0 0.135790 -0.000958 -0.990737 82.114873
DOCKED: USER    NEWDPF quat0 0.135790 -0.000958 -0.990737 82.114873
DOCKED: USER    NEWDPF dihe0 -162.85 1.11 76.57 -127.65 43.46 160.68 -19.06 70.37 -172.93 166.58 
DOCKED: USER  keepresnum = 1 
DOCKED: USER  
DOCKED: REMARK  10 active torsions:
DOCKED: REMARK  status: ('A' for Active; 'I' for Inactive)
DOCKED: REMARK    1  A    between atoms: C_6  and  C_10 
DOCKED: REMARK    2  A    between atoms: C_10  and  C_11 
DOCKED: REMARK    3  A    between atoms: C_11  and  C_12 
DOCKED: REMARK    4  A    between atoms: C_12  and  O_14 
DOCKED: REMARK    5  A    between atoms: C_17  and  C_20 
DOCKED: REMARK    6  A    between atoms: C_24  and  C_27 
DOCKED: REMARK    7  A    between atoms: C_31  and  C_34 
DOCKED: REMARK    8  A    between atoms: C_34  and  C_35 
DOCKED: REMARK    9  A    between atoms: C_35  and  C_36 
DOCKED: REMARK   10  A    between atoms: C_36  and  O_38 
DOCKED: USER                              x       y       z     vdW  Elec       q    Type
DOCKED: USER                           _______ _______ _______ _____ _____    ______ ____
DOCKED: ROOT
DOCKED: ATOM      1  C   UNL d   1      -5.536 -10.778  -2.592 -0.32 +0.05    +0.064 C 
DOCKED: ATOM      2  C   UNL d   1      -1.691  -7.677  -2.766 -0.45 +0.02    +0.064 A 
DOCKED: ATOM      3  C   UNL d   1      -4.697  -4.128  -3.964 -0.29 +0.01    +0.064 C 
DOCKED: ATOM      4  C   UNL d   1      -8.417  -7.134  -3.905 -0.49 +0.02    +0.064 C 
DOCKED: ATOM      5  C   UNL d   1      -4.164 -10.253  -2.611 -0.35 +0.04    +0.066 A 
DOCKED: ATOM      6  C   UNL d   1      -3.023 -11.014  -2.422 -0.34 -0.02    -0.021 A 
DOCKED: ATOM      7  C   UNL d   1      -1.956 -10.152  -2.466 -0.30 -0.01    -0.025 A 
DOCKED: ATOM      8  C   UNL d   1      -2.487  -8.895  -2.682 -0.39 +0.03    +0.066 A 
DOCKED: ATOM      9  C   UNL d   1      -0.512 -10.526  -2.328 -0.32 +0.02    +0.051 C 
DOCKED: ATOM     10  C   UNL d   1      -2.173  -6.461  -3.030 -0.41 +0.02    +0.066 A 
DOCKED: ATOM     11  C   UNL d   1      -1.403  -5.297  -2.990 -0.45 -0.00    -0.021 A 
DOCKED: ATOM     12  C   UNL d   1      -2.250  -4.257  -3.316 -0.41 +0.00    +0.000 A 
DOCKED: ATOM     13  C   UNL d   1      -3.508  -4.845  -3.531 -0.37 +0.01    +0.070 A 
DOCKED: ATOM     14  C   UNL d   1       0.055  -5.172  -2.594 -0.55 +0.01    +0.052 C 
DOCKED: ATOM     15  C   UNL d   1      -5.922  -4.681  -4.123 -0.39 +0.01    +0.066 A 
DOCKED: ATOM     16  C   UNL d   1      -7.009  -3.983  -4.634 -0.49 -0.00    -0.021 A 
DOCKED: ATOM     17  C   UNL d   1      -8.085  -4.847  -4.614 -0.48 +0.00    +0.000 A 
DOCKED: ATOM     18  C   UNL d   1      -7.628  -6.053  -4.087 -0.42 +0.02    +0.070 A 
DOCKED: ATOM     19  C   UNL d   1      -7.046  -2.552  -5.099 -0.57 +0.00    +0.052 C 
DOCKED: ATOM     20  C   UNL d   1      -7.959  -8.438  -3.410 -0.40 +0.02    +0.066 A 
DOCKED: ATOM     21  C   UNL d   1      -8.793  -9.499  -3.029 -0.40 -0.01    -0.025 A 
DOCKED: ATOM     22  C   UNL d   1      -7.951 -10.531  -2.671 -0.23 -0.01    -0.021 A 
DOCKED: ATOM     23  C   UNL d   1      -6.643 -10.060  -2.840 -0.00 +0.04    +0.066 A 
DOCKED: ATOM     24  C   UNL d   1     -10.303  -9.547  -2.996 -0.53 +0.01    +0.051 C 
DOCKED: ATOM     25  N   UNL d   1      -3.830  -8.961  -2.779 -0.24 -0.11    -0.248 N 
DOCKED: ATOM     26  N   UNL d   1      -3.464  -6.188  -3.349 -0.25 -0.06    -0.248 N 
DOCKED: ATOM     27  N   UNL d   1      -6.289  -5.966  -3.825 -0.25 -0.08    -0.248 N 
DOCKED: ATOM     28  N   UNL d   1      -6.654  -8.768  -3.249 -0.24 -0.11    -0.248 N 
DOCKED: ATOM     29 FE   UNL d   1      -5.061  -7.478  -3.299 -0.09 +0.00    +0.000 Fe
DOCKED: ENDROOT
DOCKED: BRANCH   6  30
DOCKED: ATOM     30  C   UNL d   1      -2.946 -12.490  -2.229 -0.17 +0.08    +0.052 C 
DOCKED: BRANCH  30  31
DOCKED: ATOM     31  C   UNL d   1      -3.188 -12.858  -0.769 -0.14 +0.16    +0.115 C 
DOCKED: BRANCH  31  32
DOCKED: ATOM     32  C   UNL d   1      -3.567 -14.308  -0.648 -0.15 +0.27    +0.139 C 
DOCKED: ATOM     33  O   UNL d   1      -2.970 -15.164  -1.285 +0.01 -1.28    -0.650 OA
DOCKED: BRANCH  32  34
DOCKED: ATOM     34  O   UNL d   1      -4.571 -14.677   0.166 -0.39 -1.87    -0.776 OA
DOCKED: ATOM     35  H   UNL d   1      -5.198 -14.006   0.471 +0.03 +0.44    +0.167 HD
DOCKED: ENDBRANCH  32  34
DOCKED: ENDBRANCH  31  32
DOCKED: ENDBRANCH  30  31
DOCKED: ENDBRANCH   6  30
DOCKED: BRANCH  22  36
DOCKED: ATOM     36  C   UNL d   1      -8.381 -11.876  -2.148 -0.29 +0.03    +0.052 C 
DOCKED: BRANCH  36  37
DOCKED: ATOM     37  C   UNL d   1      -8.330 -11.876  -0.627 -0.19 +0.08    +0.115 C 
DOCKED: BRANCH  37  38
DOCKED: ATOM     38  C   UNL d   1      -7.220 -12.756  -0.125 -0.22 +0.15    +0.139 C 
DOCKED: ATOM     39  O   UNL d   1      -6.785 -12.628   1.010 -0.37 -0.95    -0.650 OA
DOCKED: BRANCH  38  40
DOCKED: ATOM     40  O   UNL d   1      -6.693 -13.696  -0.930 -0.03 -1.16    -0.776 OA
DOCKED: ATOM     41  H   UNL d   1      -5.987 -14.264  -0.590 +0.03 +0.32    +0.167 HD
DOCKED: ENDBRANCH  38  40
DOCKED: ENDBRANCH  37  38
DOCKED: ENDBRANCH  36  37
DOCKED: ENDBRANCH  22  36
DOCKED: BRANCH  12  42
DOCKED: ATOM     42  C   UNL d   1      -1.851  -2.817  -3.386 -0.44 +0.00    +0.004 C 
DOCKED: ATOM     43  C   UNL d   1      -2.053  -2.099  -4.498 -0.60 +0.00    +0.012 C 
DOCKED: ENDBRANCH  12  42
DOCKED: BRANCH  17  44
DOCKED: ATOM     44  C   UNL d   1      -9.454  -4.546  -5.088 -0.31 +0.00    +0.004 C 
DOCKED: ATOM     45  C   UNL d   1     -10.265  -3.753  -4.380 -0.71 +0.00    +0.012 C 
DOCKED: ENDBRANCH  17  44
DOCKED: TORSDOF 10
DOCKED: TER
DOCKED: ENDMDL
________________________________________________________________________________


	BEGINNING GENETIC ALGORITHM DOCKING 66 of 100
Run: 66 Seed: 1368223299 1772688764 [ Run 66 of 100 GA/GALS ]
Beginning LAMARCKIAN GENETIC ALGORITHM (LGA), with a maximum of 25000000 energy evaluations.

Final-Value: -11.479


	FINAL GENETIC ALGORITHM DOCKED STATE
	_______________________________________________


Detailed state:  trans -7.049 0.686 -15.943 quatxyzw -0.204462 -0.137742 0.622380 0.742877 center -0.174 -0.001 -0.047 ntor 10 38.7328 93.2916 -108.1893 -113.5197 -91.8618 135.1519 70.4476 -30.4188 -7.9038 -15.0631
State:	 -7.049   0.686 -15.943  -0.305 -0.206  0.930 84.046     38.73   93.29 -108.19 -113.52  -91.86  135.15   70.45  -30.42   -7.90  -15.06

DOCKED: MODEL       66
DOCKED: USER    Run = 66
DOCKED: USER    DPF = D:/Protein_go_brrr/autodock/final/AncA/heme_Fe/dock.dpf
DOCKED: USER  
DOCKED: USER    Estimated Free Energy of Binding    =   -6.42 kcal/mol  [=(1)+(2)+(3)-(4)]
DOCKED: USER    Estimated Inhibition Constant, Ki   =   19.61 uM (micromolar)  [Temperature = 298.15 K]
DOCKED: USER    
DOCKED: USER    (1) Final Intermolecular Energy     =   -9.41 kcal/mol
DOCKED: USER        vdW + Hbond + desolv Energy     =   -8.47 kcal/mol
DOCKED: USER        Electrostatic Energy            =   -0.94 kcal/mol
DOCKED: USER    (2) Final Total Internal Energy     =   -2.07 kcal/mol
DOCKED: USER    (3) Torsional Free Energy           =   +2.98 kcal/mol
DOCKED: USER    (4) Unbound System's Energy  [=(2)] =   -2.07 kcal/mol
DOCKED: USER    
DOCKED: USER    
DOCKED: USER    NEWDPF move heme_Fe_opt.pdbqt
DOCKED: USER    NEWDPF about -0.174000 -0.001000 -0.047000
DOCKED: USER    NEWDPF tran0 -7.049297 0.686398 -15.943270
DOCKED: USER    NEWDPF quaternion0 -0.204462 -0.137742 0.622380 0.742877
DOCKED: USER    NEWDPF axisangle0 -0.305428 -0.205761 0.929719 84.045895
DOCKED: USER    NEWDPF quat0 -0.305428 -0.205761 0.929719 84.045895
DOCKED: USER    NEWDPF dihe0 38.73 93.29 -108.19 -113.52 -91.86 135.15 70.45 -30.42 -7.90 -15.06 
DOCKED: USER  keepresnum = 1 
DOCKED: USER  
DOCKED: REMARK  10 active torsions:
DOCKED: REMARK  status: ('A' for Active; 'I' for Inactive)
DOCKED: REMARK    1  A    between atoms: C_6  and  C_10 
DOCKED: REMARK    2  A    between atoms: C_10  and  C_11 
DOCKED: REMARK    3  A    between atoms: C_11  and  C_12 
DOCKED: REMARK    4  A    between atoms: C_12  and  O_14 
DOCKED: REMARK    5  A    between atoms: C_17  and  C_20 
DOCKED: REMARK    6  A    between atoms: C_24  and  C_27 
DOCKED: REMARK    7  A    between atoms: C_31  and  C_34 
DOCKED: REMARK    8  A    between atoms: C_34  and  C_35 
DOCKED: REMARK    9  A    between atoms: C_35  and  C_36 
DOCKED: REMARK   10  A    between atoms: C_36  and  O_38 
DOCKED: USER                              x       y       z     vdW  Elec       q    Type
DOCKED: USER                           _______ _______ _______ _____ _____    ______ ____
DOCKED: ROOT
DOCKED: ATOM      1  C   UNL d   1      -7.505   2.145 -14.574 -0.29 -0.01    +0.064 C 
DOCKED: ATOM      2  C   UNL d   1     -10.073  -1.405 -16.861 -0.19 -0.04    +0.064 A 
DOCKED: ATOM      3  C   UNL d   1      -5.934  -3.474 -18.148 -0.24 -0.01    +0.064 C 
DOCKED: ATOM      4  C   UNL d   1      -3.429   0.008 -16.031 -0.22 -0.00    +0.064 C 
DOCKED: ATOM      5  C   UNL d   1      -8.611   1.383 -15.170 -0.28 -0.02    +0.066 A 
DOCKED: ATOM      6  C   UNL d   1      -9.946   1.746 -15.104 -0.25 +0.01    -0.021 A 
DOCKED: ATOM      7  C   UNL d   1     -10.659   0.757 -15.736 -0.18 +0.02    -0.025 A 
DOCKED: ATOM      8  C   UNL d   1      -9.730  -0.171 -16.164 -0.23 -0.05    +0.066 A 
DOCKED: ATOM      9  C   UNL d   1     -12.144   0.726 -15.930 -0.08 -0.05    +0.051 C 
DOCKED: ATOM     10  C   UNL d   1      -9.193  -2.289 -17.335 -0.18 -0.02    +0.066 A 
DOCKED: ATOM     11  C   UNL d   1      -9.554  -3.516 -17.897 -0.17 +0.01    -0.021 A 
DOCKED: ATOM     12  C   UNL d   1      -8.377  -4.140 -18.261 -0.26 -0.00    +0.000 A 
DOCKED: ATOM     13  C   UNL d   1      -7.349  -3.255 -17.891 -0.23 -0.01    +0.070 A 
DOCKED: ATOM     14  C   UNL d   1     -10.948  -4.097 -18.018 -0.10 -0.02    +0.052 C 
DOCKED: ATOM     15  C   UNL d   1      -4.937  -2.650 -17.748 -0.29 -0.01    +0.066 A 
DOCKED: ATOM     16  C   UNL d   1      -3.607  -2.843 -18.099 -0.30 +0.00    -0.021 A 
DOCKED: ATOM     17  C   UNL d   1      -2.882  -1.842 -17.487 -0.19 -0.00    +0.000 A 
DOCKED: ATOM     18  C   UNL d   1      -3.788  -1.063 -16.772 -0.19 -0.00    +0.070 A 
DOCKED: ATOM     19  C   UNL d   1      -3.033  -3.940 -18.956 -0.34 -0.01    +0.052 C 
DOCKED: ATOM     20  C   UNL d   1      -4.361   0.888 -15.315 -0.18 -0.00    +0.066 A 
DOCKED: ATOM     21  C   UNL d   1      -3.994   1.874 -14.388 -0.18 +0.00    -0.025 A 
DOCKED: ATOM     22  C   UNL d   1      -5.170   2.479 -13.995 -0.23 -0.00    -0.021 A 
DOCKED: ATOM     23  C   UNL d   1      -6.203   1.838 -14.690 -0.24 -0.00    +0.066 A 
DOCKED: ATOM     24  C   UNL d   1      -2.614   2.232 -13.888 -0.23 +0.00    +0.051 C 
DOCKED: ATOM     25  N   UNL d   1      -8.484   0.217 -15.827 -0.21 +0.10    -0.248 N 
DOCKED: ATOM     26  N   UNL d   1      -7.845  -2.131 -17.319 -0.13 +0.05    -0.248 N 
DOCKED: ATOM     27  N   UNL d   1      -5.057  -1.532 -16.967 -0.16 +0.01    -0.248 N 
DOCKED: ATOM     28  N   UNL d   1      -5.707   0.839 -15.459 -0.13 +0.02    -0.248 N 
DOCKED: ATOM     29 FE   UNL d   1      -6.774  -0.646 -16.389 -0.06 -0.00    +0.000 Fe
DOCKED: ENDROOT
DOCKED: BRANCH   6  30
DOCKED: ATOM     30  C   UNL d   1     -10.517   2.979 -14.491 -0.08 -0.02    +0.052 C 
DOCKED: BRANCH  30  31
DOCKED: ATOM     31  C   UNL d   1     -10.404   4.160 -15.449 -0.12 -0.01    +0.115 C 
DOCKED: BRANCH  31  32
DOCKED: ATOM     32  C   UNL d   1      -9.382   5.144 -14.953 -0.11 +0.00    +0.139 C 
DOCKED: ATOM     33  O   UNL d   1      -9.712   6.080 -14.238 -0.04 -0.04    -0.650 OA
DOCKED: BRANCH  32  34
DOCKED: ATOM     34  O   UNL d   1      -8.089   5.003 -15.292 -0.02 -0.06    -0.776 OA
DOCKED: ATOM     35  H   UNL d   1      -7.407   5.194 -14.633 +0.03 +0.03    +0.167 HD
DOCKED: ENDBRANCH  32  34
DOCKED: ENDBRANCH  31  32
DOCKED: ENDBRANCH  30  31
DOCKED: ENDBRANCH   6  30
DOCKED: BRANCH  22  36
DOCKED: ATOM     36  C   UNL d   1      -5.296   3.578 -12.973 -0.32 +0.01    +0.052 C 
DOCKED: BRANCH  36  37
DOCKED: ATOM     37  C   UNL d   1      -4.987   4.919 -13.621 -0.13 +0.03    +0.115 C 
DOCKED: BRANCH  37  38
DOCKED: ATOM     38  C   UNL d   1      -5.773   6.024 -12.974 -0.18 +0.06    +0.139 C 
DOCKED: ATOM     39  O   UNL d   1      -5.239   7.083 -12.681 -0.02 -0.62    -0.650 OA
DOCKED: BRANCH  38  40
DOCKED: ATOM     40  O   UNL d   1      -7.080   5.850 -12.707 -0.23 -0.33    -0.776 OA
DOCKED: ATOM     41  H   UNL d   1      -7.731   6.055 -13.393 +0.03 +0.06    +0.167 HD
DOCKED: ENDBRANCH  38  40
DOCKED: ENDBRANCH  37  38
DOCKED: ENDBRANCH  36  37
DOCKED: ENDBRANCH  22  36
DOCKED: BRANCH  12  42
DOCKED: ATOM     42  C   UNL d   1      -8.285  -5.491 -18.895 -0.34 -0.00    +0.004 C 
DOCKED: ATOM     43  C   UNL d   1      -8.753  -6.579 -18.270 -0.33 -0.01    +0.012 C 
DOCKED: ENDBRANCH  12  42
DOCKED: BRANCH  17  44
DOCKED: ATOM     44  C   UNL d   1      -1.420  -1.633 -17.596 -0.30 -0.00    +0.004 C 
DOCKED: ATOM     45  C   UNL d   1      -0.562  -2.581 -17.207 -0.36 -0.00    +0.012 C 
DOCKED: ENDBRANCH  17  44
DOCKED: TORSDOF 10
DOCKED: TER
DOCKED: ENDMDL
________________________________________________________________________________


	BEGINNING GENETIC ALGORITHM DOCKING 67 of 100
Run: 67 Seed: 262777683 816901178 [ Run 67 of 100 GA/GALS ]
Beginning LAMARCKIAN GENETIC ALGORITHM (LGA), with a maximum of 25000000 energy evaluations.

Final-Value: -20.763


	FINAL GENETIC ALGORITHM DOCKED STATE
	_______________________________________________


Detailed state:  trans -4.995 -9.279 -3.262 quatxyzw -0.072372 -0.004896 0.668661 -0.740020 center -0.174 -0.001 -0.047 ntor 10 -113.6730 -20.7348 66.2804 -103.5724 33.4658 -174.5447 -23.2217 55.7023 -172.5008 154.1055
State:	 -4.995  -9.279  -3.262  -0.108 -0.007  0.994 -84.534   -113.67  -20.73   66.28 -103.57   33.47 -174.54  -23.22   55.70 -172.50  154.11

DOCKED: MODEL       67
DOCKED: USER    Run = 67
DOCKED: USER    DPF = D:/Protein_go_brrr/autodock/final/AncA/heme_Fe/dock.dpf
DOCKED: USER  
DOCKED: USER    Estimated Free Energy of Binding    =  -15.75 kcal/mol  [=(1)+(2)+(3)-(4)]
DOCKED: USER    Estimated Inhibition Constant, Ki   =    2.86 pM (picomolar)  [Temperature = 298.15 K]
DOCKED: USER    
DOCKED: USER    (1) Final Intermolecular Energy     =  -18.73 kcal/mol
DOCKED: USER        vdW + Hbond + desolv Energy     =  -14.30 kcal/mol
DOCKED: USER        Electrostatic Energy            =   -4.44 kcal/mol
DOCKED: USER    (2) Final Total Internal Energy     =   -2.03 kcal/mol
DOCKED: USER    (3) Torsional Free Energy           =   +2.98 kcal/mol
DOCKED: USER    (4) Unbound System's Energy  [=(2)] =   -2.03 kcal/mol
DOCKED: USER    
DOCKED: USER    
DOCKED: USER    NEWDPF move heme_Fe_opt.pdbqt
DOCKED: USER    NEWDPF about -0.174000 -0.001000 -0.047000
DOCKED: USER    NEWDPF tran0 -4.994541 -9.278688 -3.261817
DOCKED: USER    NEWDPF quaternion0 -0.072372 -0.004896 0.668661 -0.740020
DOCKED: USER    NEWDPF axisangle0 -0.107602 -0.007280 0.994167 -84.533679
DOCKED: USER    NEWDPF quat0 -0.107602 -0.007280 0.994167 -84.533679
DOCKED: USER    NEWDPF dihe0 -113.67 -20.73 66.28 -103.57 33.47 -174.54 -23.22 55.70 -172.50 154.11 
DOCKED: USER  keepresnum = 1 
DOCKED: USER  
DOCKED: REMARK  10 active torsions:
DOCKED: REMARK  status: ('A' for Active; 'I' for Inactive)
DOCKED: REMARK    1  A    between atoms: C_6  and  C_10 
DOCKED: REMARK    2  A    between atoms: C_10  and  C_11 
DOCKED: REMARK    3  A    between atoms: C_11  and  C_12 
DOCKED: REMARK    4  A    between atoms: C_12  and  O_14 
DOCKED: REMARK    5  A    between atoms: C_17  and  C_20 
DOCKED: REMARK    6  A    between atoms: C_24  and  C_27 
DOCKED: REMARK    7  A    between atoms: C_31  and  C_34 
DOCKED: REMARK    8  A    between atoms: C_34  and  C_35 
DOCKED: REMARK    9  A    between atoms: C_35  and  C_36 
DOCKED: REMARK   10  A    between atoms: C_36  and  O_38 
DOCKED: USER                              x       y       z     vdW  Elec       q    Type
DOCKED: USER                           _______ _______ _______ _____ _____    ______ ____
DOCKED: ROOT
DOCKED: ATOM      1  C   UNL d   1      -5.201 -11.193  -2.551 -0.36 +0.06    +0.064 C 
DOCKED: ATOM      2  C   UNL d   1      -1.506  -7.912  -2.692 -0.44 +0.02    +0.064 A 
DOCKED: ATOM      3  C   UNL d   1      -4.692  -4.473  -3.734 -0.34 +0.01    +0.064 C 
DOCKED: ATOM      4  C   UNL d   1      -8.269  -7.650  -3.706 -0.49 +0.02    +0.064 C 
DOCKED: ATOM      5  C   UNL d   1      -3.855 -10.604  -2.577 -0.34 +0.05    +0.066 A 
DOCKED: ATOM      6  C   UNL d   1      -2.677 -11.317  -2.429 -0.31 -0.02    -0.021 A 
DOCKED: ATOM      7  C   UNL d   1      -1.652 -10.405  -2.464 -0.22 -0.01    -0.025 A 
DOCKED: ATOM      8  C   UNL d   1      -2.244  -9.168  -2.633 -0.38 +0.03    +0.066 A 
DOCKED: ATOM      9  C   UNL d   1      -0.190 -10.715  -2.361 -0.29 +0.02    +0.051 C 
DOCKED: ATOM     10  C   UNL d   1      -2.048  -6.713  -2.912 -0.42 +0.02    +0.066 A 
DOCKED: ATOM     11  C   UNL d   1      -1.331  -5.516  -2.849 -0.46 -0.00    -0.021 A 
DOCKED: ATOM     12  C   UNL d   1      -2.231  -4.507  -3.129 -0.41 +0.00    +0.000 A 
DOCKED: ATOM     13  C   UNL d   1      -3.465  -5.147  -3.342 -0.37 +0.01    +0.070 A 
DOCKED: ATOM     14  C   UNL d   1       0.125  -5.335  -2.472 -0.46 +0.00    +0.052 C 
DOCKED: ATOM     15  C   UNL d   1      -5.894  -5.077  -3.889 -0.39 +0.01    +0.066 A 
DOCKED: ATOM     16  C   UNL d   1      -7.021  -4.416  -4.361 -0.46 -0.00    -0.021 A 
DOCKED: ATOM     17  C   UNL d   1      -8.054  -5.330  -4.351 -0.48 +0.00    +0.000 A 
DOCKED: ATOM     18  C   UNL d   1      -7.534  -6.528  -3.868 -0.42 +0.02    +0.070 A 
DOCKED: ATOM     19  C   UNL d   1      -7.131  -2.975  -4.782 -0.63 +0.01    +0.052 C 
DOCKED: ATOM     20  C   UNL d   1      -7.742  -8.945  -3.259 -0.35 +0.02    +0.066 A 
DOCKED: ATOM     21  C   UNL d   1      -8.520 -10.054  -2.897 -0.33 -0.01    -0.025 A 
DOCKED: ATOM     22  C   UNL d   1      -7.625 -11.056  -2.584 -0.19 -0.01    -0.021 A 
DOCKED: ATOM     23  C   UNL d   1      -6.344 -10.520  -2.760 -0.16 +0.04    +0.066 A 
DOCKED: ATOM     24  C   UNL d   1     -10.025 -10.173  -2.841 -0.47 +0.01    +0.051 C 
DOCKED: ATOM     25  N   UNL d   1      -3.584  -9.294  -2.711 -0.24 -0.12    -0.248 N 
DOCKED: ATOM     26  N   UNL d   1      -3.356  -6.491  -3.201 -0.25 -0.07    -0.248 N 
DOCKED: ATOM     27  N   UNL d   1      -6.196  -6.386  -3.625 -0.23 -0.10    -0.248 N 
DOCKED: ATOM     28  N   UNL d   1      -6.422  -9.218  -3.129 -0.23 -0.12    -0.248 N 
DOCKED: ATOM     29 FE   UNL d   1      -4.891  -7.854  -3.165 -0.09 +0.00    +0.000 Fe
DOCKED: ENDROOT
DOCKED: BRANCH   6  30
DOCKED: ATOM     30  C   UNL d   1      -2.528 -12.793  -2.283 -0.20 +0.08    +0.052 C 
DOCKED: BRANCH  30  31
DOCKED: ATOM     31  C   UNL d   1      -2.738 -13.216  -0.833 -0.18 +0.16    +0.115 C 
DOCKED: BRANCH  31  32
DOCKED: ATOM     32  C   UNL d   1      -3.147 -14.661  -0.760 -0.13 +0.25    +0.139 C 
DOCKED: ATOM     33  O   UNL d   1      -2.721 -15.471  -1.571 -0.02 -1.26    -0.650 OA
DOCKED: BRANCH  32  34
DOCKED: ATOM     34  O   UNL d   1      -3.989 -15.076   0.201 -0.29 -1.66    -0.776 OA
DOCKED: ATOM     35  H   UNL d   1      -4.903 -14.757   0.195 +0.02 +0.42    +0.167 HD
DOCKED: ENDBRANCH  32  34
DOCKED: ENDBRANCH  31  32
DOCKED: ENDBRANCH  30  31
DOCKED: ENDBRANCH   6  30
DOCKED: BRANCH  22  36
DOCKED: ATOM     36  C   UNL d   1      -7.984 -12.435  -2.095 -0.27 +0.04    +0.052 C 
DOCKED: BRANCH  36  37
DOCKED: ATOM     37  C   UNL d   1      -7.614 -12.571  -0.626 -0.22 +0.11    +0.115 C 
DOCKED: BRANCH  37  38
DOCKED: ATOM     38  C   UNL d   1      -6.715 -13.755  -0.404 -0.20 +0.21    +0.139 C 
DOCKED: ATOM     39  O   UNL d   1      -6.388 -14.089   0.725 -0.13 -1.43    -0.650 OA
DOCKED: BRANCH  38  40
DOCKED: ATOM     40  O   UNL d   1      -6.259 -14.458  -1.456 -0.31 -1.74    -0.776 OA
DOCKED: ATOM     41  H   UNL d   1      -5.467 -15.002  -1.350 +0.03 +0.49    +0.167 HD
DOCKED: ENDBRANCH  38  40
DOCKED: ENDBRANCH  37  38
DOCKED: ENDBRANCH  36  37
DOCKED: ENDBRANCH  22  36
DOCKED: BRANCH  12  42
DOCKED: ATOM     42  C   UNL d   1      -1.900  -3.049  -3.161 -0.41 +0.00    +0.004 C 
DOCKED: ATOM     43  C   UNL d   1      -1.961  -2.353  -4.304 -0.56 +0.00    +0.012 C 
DOCKED: ENDBRANCH  12  42
DOCKED: BRANCH  17  44
DOCKED: ATOM     44  C   UNL d   1      -9.444  -5.078  -4.793 -0.54 +0.00    +0.004 C 
DOCKED: ATOM     45  C   UNL d   1     -10.120  -4.011  -4.354 -0.68 +0.00    +0.012 C 
DOCKED: ENDBRANCH  17  44
DOCKED: TORSDOF 10
DOCKED: TER
DOCKED: ENDMDL
________________________________________________________________________________


	BEGINNING GENETIC ALGORITHM DOCKING 68 of 100
Run: 68 Seed: 50748148 1218961438 [ Run 68 of 100 GA/GALS ]
Beginning LAMARCKIAN GENETIC ALGORITHM (LGA), with a maximum of 25000000 energy evaluations.

Final-Value: -19.934


	FINAL GENETIC ALGORITHM DOCKED STATE
	_______________________________________________


Detailed state:  trans -5.267 -9.031 -3.283 quatxyzw 0.091906 -0.014333 -0.653614 0.751090 center -0.174 -0.001 -0.047 ntor 10 -103.2514 -16.4374 72.9224 -123.9302 25.1036 175.2721 -9.3544 70.1131 -156.2134 -180.0000
State:	 -5.267  -9.031  -3.283   0.139 -0.022 -0.990 82.630   -103.25  -16.44   72.92 -123.93   25.10  175.27   -9.35   70.11 -156.21 -180.00

DOCKED: MODEL       68
DOCKED: USER    Run = 68
DOCKED: USER    DPF = D:/Protein_go_brrr/autodock/final/AncA/heme_Fe/dock.dpf
DOCKED: USER  
DOCKED: USER    Estimated Free Energy of Binding    =  -15.36 kcal/mol  [=(1)+(2)+(3)-(4)]
DOCKED: USER    Estimated Inhibition Constant, Ki   =    5.47 pM (picomolar)  [Temperature = 298.15 K]
DOCKED: USER    
DOCKED: USER    (1) Final Intermolecular Energy     =  -18.35 kcal/mol
DOCKED: USER        vdW + Hbond + desolv Energy     =  -14.69 kcal/mol
DOCKED: USER        Electrostatic Energy            =   -3.66 kcal/mol
DOCKED: USER    (2) Final Total Internal Energy     =   -1.59 kcal/mol
DOCKED: USER    (3) Torsional Free Energy           =   +2.98 kcal/mol
DOCKED: USER    (4) Unbound System's Energy  [=(2)] =   -1.59 kcal/mol
DOCKED: USER    
DOCKED: USER    
DOCKED: USER    NEWDPF move heme_Fe_opt.pdbqt
DOCKED: USER    NEWDPF about -0.174000 -0.001000 -0.047000
DOCKED: USER    NEWDPF tran0 -5.267111 -9.030558 -3.282703
DOCKED: USER    NEWDPF quaternion0 0.091906 -0.014333 -0.653614 0.751090
DOCKED: USER    NEWDPF axisangle0 0.139210 -0.021711 -0.990025 82.630164
DOCKED: USER    NEWDPF quat0 0.139210 -0.021711 -0.990025 82.630164
DOCKED: USER    NEWDPF dihe0 -103.25 -16.44 72.92 -123.93 25.10 175.27 -9.35 70.11 -156.21 -180.00 
DOCKED: USER  keepresnum = 1 
DOCKED: USER  
DOCKED: REMARK  10 active torsions:
DOCKED: REMARK  status: ('A' for Active; 'I' for Inactive)
DOCKED: REMARK    1  A    between atoms: C_6  and  C_10 
DOCKED: REMARK    2  A    between atoms: C_10  and  C_11 
DOCKED: REMARK    3  A    between atoms: C_11  and  C_12 
DOCKED: REMARK    4  A    between atoms: C_12  and  O_14 
DOCKED: REMARK    5  A    between atoms: C_17  and  C_20 
DOCKED: REMARK    6  A    between atoms: C_24  and  C_27 
DOCKED: REMARK    7  A    between atoms: C_31  and  C_34 
DOCKED: REMARK    8  A    between atoms: C_34  and  C_35 
DOCKED: REMARK    9  A    between atoms: C_35  and  C_36 
DOCKED: REMARK   10  A    between atoms: C_36  and  O_38 
DOCKED: USER                              x       y       z     vdW  Elec       q    Type
DOCKED: USER                           _______ _______ _______ _____ _____    ______ ____
DOCKED: ROOT
DOCKED: ATOM      1  C   UNL d   1      -5.549 -10.895  -2.472 -0.30 +0.05    +0.064 C 
DOCKED: ATOM      2  C   UNL d   1      -1.726  -7.777  -2.784 -0.44 +0.02    +0.064 A 
DOCKED: ATOM      3  C   UNL d   1      -4.774  -4.272  -4.008 -0.38 +0.01    +0.064 C 
DOCKED: ATOM      4  C   UNL d   1      -8.474  -7.297  -3.815 -0.49 +0.02    +0.064 C 
DOCKED: ATOM      5  C   UNL d   1      -4.181 -10.362  -2.528 -0.34 +0.05    +0.066 A 
DOCKED: ATOM      6  C   UNL d   1      -3.032 -11.113  -2.341 -0.34 -0.02    -0.021 A 
DOCKED: ATOM      7  C   UNL d   1      -1.971 -10.246  -2.424 -0.31 -0.01    -0.025 A 
DOCKED: ATOM      8  C   UNL d   1      -2.514  -8.997  -2.659 -0.39 +0.03    +0.066 A 
DOCKED: ATOM      9  C   UNL d   1      -0.522 -10.608  -2.303 -0.34 +0.02    +0.051 C 
DOCKED: ATOM     10  C   UNL d   1      -2.220  -6.570  -3.066 -0.41 +0.02    +0.066 A 
DOCKED: ATOM     11  C   UNL d   1      -1.456  -5.401  -3.066 -0.46 -0.00    -0.021 A 
DOCKED: ATOM     12  C   UNL d   1      -2.315  -4.373  -3.400 -0.41 +0.00    +0.000 A 
DOCKED: ATOM     13  C   UNL d   1      -3.573  -4.973  -3.580 -0.37 +0.01    +0.070 A 
DOCKED: ATOM     14  C   UNL d   1       0.007  -5.259  -2.699 -0.58 +0.01    +0.052 C 
DOCKED: ATOM     15  C   UNL d   1      -5.998  -4.836  -4.132 -0.39 +0.01    +0.066 A 
DOCKED: ATOM     16  C   UNL d   1      -7.098  -4.156  -4.639 -0.48 -0.00    -0.021 A 
DOCKED: ATOM     17  C   UNL d   1      -8.168  -5.025  -4.581 -0.47 +0.00    +0.000 A 
DOCKED: ATOM     18  C   UNL d   1      -7.695  -6.216  -4.035 -0.42 +0.02    +0.070 A 
DOCKED: ATOM     19  C   UNL d   1      -7.151  -2.736  -5.136 -0.62 +0.01    +0.052 C 
DOCKED: ATOM     20  C   UNL d   1      -7.999  -8.587  -3.300 -0.39 +0.02    +0.066 A 
DOCKED: ATOM     21  C   UNL d   1      -8.820  -9.643  -2.880 -0.39 -0.01    -0.025 A 
DOCKED: ATOM     22  C   UNL d   1      -7.966 -10.663  -2.514 -0.18 -0.01    -0.021 A 
DOCKED: ATOM     23  C   UNL d   1      -6.664 -10.189  -2.717 +0.01 +0.04    +0.066 A 
DOCKED: ATOM     24  C   UNL d   1     -10.329  -9.699  -2.819 -0.52 +0.01    +0.051 C 
DOCKED: ATOM     25  N   UNL d   1      -3.858  -9.073  -2.731 -0.24 -0.12    -0.248 N 
DOCKED: ATOM     26  N   UNL d   1      -3.518  -6.311  -3.368 -0.25 -0.07    -0.248 N 
DOCKED: ATOM     27  N   UNL d   1      -6.352  -6.116  -3.800 -0.25 -0.08    -0.248 N 
DOCKED: ATOM     28  N   UNL d   1      -6.691  -8.906  -3.154 -0.23 -0.11    -0.248 N 
DOCKED: ATOM     29 FE   UNL d   1      -5.106  -7.608  -3.261 -0.09 +0.00    +0.000 Fe
DOCKED: ENDROOT
DOCKED: BRANCH   6  30
DOCKED: ATOM     30  C   UNL d   1      -2.942 -12.584  -2.117 -0.17 +0.08    +0.052 C 
DOCKED: BRANCH  30  31
DOCKED: ATOM     31  C   UNL d   1      -3.549 -12.963  -0.771 -0.13 +0.18    +0.115 C 
DOCKED: BRANCH  31  32
DOCKED: ATOM     32  C   UNL d   1      -3.663 -14.457  -0.647 -0.14 +0.27    +0.139 C 
DOCKED: ATOM     33  O   UNL d   1      -2.925 -15.193  -1.286 +0.00 -1.26    -0.650 OA
DOCKED: BRANCH  32  34
DOCKED: ATOM     34  O   UNL d   1      -4.581 -14.998   0.171 -0.44 -1.85    -0.776 OA
DOCKED: ATOM     35  H   UNL d   1      -5.507 -15.019  -0.110 +0.02 +0.37    +0.167 HD
DOCKED: ENDBRANCH  32  34
DOCKED: ENDBRANCH  31  32
DOCKED: ENDBRANCH  30  31
DOCKED: ENDBRANCH   6  30
DOCKED: BRANCH  22  36
DOCKED: ATOM     36  C   UNL d   1      -8.379 -11.998  -1.953 -0.28 +0.03    +0.052 C 
DOCKED: BRANCH  36  37
DOCKED: ATOM     37  C   UNL d   1      -8.623 -11.874  -0.457 -0.24 +0.07    +0.115 C 
DOCKED: BRANCH  37  38
DOCKED: ATOM     38  C   UNL d   1      -7.567 -12.604   0.324 -0.21 +0.15    +0.139 C 
DOCKED: ATOM     39  O   UNL d   1      -7.541 -12.548   1.545 -0.61 -0.83    -0.650 OA
DOCKED: BRANCH  38  40
DOCKED: ATOM     40  O   UNL d   1      -6.635 -13.327  -0.322 +0.01 -1.09    -0.776 OA
DOCKED: ATOM     41  H   UNL d   1      -5.832 -13.588   0.150 +0.04 +0.32    +0.167 HD
DOCKED: ENDBRANCH  38  40
DOCKED: ENDBRANCH  37  38
DOCKED: ENDBRANCH  36  37
DOCKED: ENDBRANCH  22  36
DOCKED: BRANCH  12  42
DOCKED: ATOM     42  C   UNL d   1      -1.926  -2.933  -3.509 -0.45 +0.00    +0.004 C 
DOCKED: ATOM     43  C   UNL d   1      -2.085  -2.261  -4.657 -0.59 +0.00    +0.012 C 
DOCKED: ENDBRANCH  12  42
DOCKED: BRANCH  17  44
DOCKED: ATOM     44  C   UNL d   1      -9.547  -4.742  -5.038 -0.32 +0.00    +0.004 C 
DOCKED: ATOM     45  C   UNL d   1     -10.325  -3.881  -4.373 -0.70 +0.00    +0.012 C 
DOCKED: ENDBRANCH  17  44
DOCKED: TORSDOF 10
DOCKED: TER
DOCKED: ENDMDL
________________________________________________________________________________


	BEGINNING GENETIC ALGORITHM DOCKING 69 of 100
Run: 69 Seed: 594761603 87573945 [ Run 69 of 100 GA/GALS ]
Beginning LAMARCKIAN GENETIC ALGORITHM (LGA), with a maximum of 25000000 energy evaluations.

Final-Value: -19.838


	FINAL GENETIC ALGORITHM DOCKED STATE
	_______________________________________________


Detailed state:  trans -4.802 -9.266 -2.416 quatxyzw 0.687668 0.709006 -0.065627 -0.141833 center -0.174 -0.001 -0.047 ntor 10 71.3696 89.9737 35.2960 -137.2576 -46.3131 110.7008 53.1381 -22.0490 -16.2346 0.4379
State:	 -4.802  -9.266  -2.416   0.695  0.716 -0.066 -163.692     71.37   89.97   35.30 -137.26  -46.31  110.70   53.14  -22.05  -16.23    0.44

DOCKED: MODEL       69
DOCKED: USER    Run = 69
DOCKED: USER    DPF = D:/Protein_go_brrr/autodock/final/AncA/heme_Fe/dock.dpf
DOCKED: USER  
DOCKED: USER    Estimated Free Energy of Binding    =  -14.89 kcal/mol  [=(1)+(2)+(3)-(4)]
DOCKED: USER    Estimated Inhibition Constant, Ki   =   12.27 pM (picomolar)  [Temperature = 298.15 K]
DOCKED: USER    
DOCKED: USER    (1) Final Intermolecular Energy     =  -17.87 kcal/mol
DOCKED: USER        vdW + Hbond + desolv Energy     =  -13.77 kcal/mol
DOCKED: USER        Electrostatic Energy            =   -4.10 kcal/mol
DOCKED: USER    (2) Final Total Internal Energy     =   -1.97 kcal/mol
DOCKED: USER    (3) Torsional Free Energy           =   +2.98 kcal/mol
DOCKED: USER    (4) Unbound System's Energy  [=(2)] =   -1.97 kcal/mol
DOCKED: USER    
DOCKED: USER    
DOCKED: USER    NEWDPF move heme_Fe_opt.pdbqt
DOCKED: USER    NEWDPF about -0.174000 -0.001000 -0.047000
DOCKED: USER    NEWDPF tran0 -4.802125 -9.265920 -2.416147
DOCKED: USER    NEWDPF quaternion0 0.687668 0.709006 -0.065627 -0.141833
DOCKED: USER    NEWDPF axisangle0 0.694691 0.716246 -0.066297 -163.692170
DOCKED: USER    NEWDPF quat0 0.694691 0.716246 -0.066297 -163.692170
DOCKED: USER    NEWDPF dihe0 71.37 89.97 35.30 -137.26 -46.31 110.70 53.14 -22.05 -16.23 0.44 
DOCKED: USER  keepresnum = 1 
DOCKED: USER  
DOCKED: REMARK  10 active torsions:
DOCKED: REMARK  status: ('A' for Active; 'I' for Inactive)
DOCKED: REMARK    1  A    between atoms: C_6  and  C_10 
DOCKED: REMARK    2  A    between atoms: C_10  and  C_11 
DOCKED: REMARK    3  A    between atoms: C_11  and  C_12 
DOCKED: REMARK    4  A    between atoms: C_12  and  O_14 
DOCKED: REMARK    5  A    between atoms: C_17  and  C_20 
DOCKED: REMARK    6  A    between atoms: C_24  and  C_27 
DOCKED: REMARK    7  A    between atoms: C_31  and  C_34 
DOCKED: REMARK    8  A    between atoms: C_34  and  C_35 
DOCKED: REMARK    9  A    between atoms: C_35  and  C_36 
DOCKED: REMARK   10  A    between atoms: C_36  and  O_38 
DOCKED: USER                              x       y       z     vdW  Elec       q    Type
DOCKED: USER                           _______ _______ _______ _____ _____    ______ ____
DOCKED: ROOT
DOCKED: ATOM      1  C   UNL d   1      -4.774 -11.317  -2.351 -0.36 +0.07    +0.064 C 
DOCKED: ATOM      2  C   UNL d   1      -8.151  -7.919  -3.570 -0.42 +0.02    +0.064 A 
DOCKED: ATOM      3  C   UNL d   1      -4.660  -4.628  -3.789 -0.40 +0.01    +0.064 C 
DOCKED: ATOM      4  C   UNL d   1      -1.391  -7.877  -2.507 -0.51 +0.02    +0.064 C 
DOCKED: ATOM      5  C   UNL d   1      -6.060 -10.648  -2.592 -0.11 +0.05    +0.066 A 
DOCKED: ATOM      6  C   UNL d   1      -7.299 -11.260  -2.500 -0.20 -0.01    -0.021 A 
DOCKED: ATOM      7  C   UNL d   1      -8.236 -10.317  -2.843 -0.26 -0.01    -0.025 A 
DOCKED: ATOM      8  C   UNL d   1      -7.532  -9.164  -3.130 -0.31 +0.03    +0.066 A 
DOCKED: ATOM      9  C   UNL d   1      -9.721 -10.516  -2.870 -0.41 +0.02    +0.051 C 
DOCKED: ATOM     10  C   UNL d   1      -7.501  -6.777  -3.798 -0.42 +0.02    +0.066 A 
DOCKED: ATOM     11  C   UNL d   1      -8.104  -5.634  -4.328 -0.46 -0.00    -0.021 A 
DOCKED: ATOM     12  C   UNL d   1      -7.115  -4.676  -4.417 -0.48 +0.00    +0.000 A 
DOCKED: ATOM     13  C   UNL d   1      -5.945  -5.292  -3.939 -0.39 +0.02    +0.070 A 
DOCKED: ATOM     14  C   UNL d   1      -9.539  -5.484  -4.792 -0.47 +0.01    +0.052 C 
DOCKED: ATOM     15  C   UNL d   1      -3.519  -5.231  -3.379 -0.38 +0.01    +0.066 A 
DOCKED: ATOM     16  C   UNL d   1      -2.335  -4.540  -3.152 -0.39 -0.00    -0.021 A 
DOCKED: ATOM     17  C   UNL d   1      -1.390  -5.476  -2.786 -0.46 +0.00    +0.000 A 
DOCKED: ATOM     18  C   UNL d   1      -2.020  -6.718  -2.801 -0.42 +0.02    +0.070 A 
DOCKED: ATOM     19  C   UNL d   1      -2.092  -3.062  -3.298 -0.33 +0.01    +0.052 C 
DOCKED: ATOM     20  C   UNL d   1      -2.035  -9.195  -2.454 -0.40 +0.03    +0.066 A 
DOCKED: ATOM     21  C   UNL d   1      -1.364 -10.421  -2.349 -0.28 -0.01    -0.025 A 
DOCKED: ATOM     22  C   UNL d   1      -2.348 -11.387  -2.293 -0.31 -0.02    -0.021 A 
DOCKED: ATOM     23  C   UNL d   1      -3.574 -10.716  -2.372 -0.33 +0.05    +0.066 A 
DOCKED: ATOM     24  C   UNL d   1       0.124 -10.682  -2.307 -0.32 +0.02    +0.051 C 
DOCKED: ATOM     25  N   UNL d   1      -6.209  -9.366  -2.967 -0.15 -0.13    -0.248 N 
DOCKED: ATOM     26  N   UNL d   1      -6.178  -6.575  -3.570 -0.20 -0.11    -0.248 N 
DOCKED: ATOM     27  N   UNL d   1      -3.339  -6.564  -3.123 -0.25 -0.07    -0.248 N 
DOCKED: ATOM     28  N   UNL d   1      -3.376  -9.383  -2.515 -0.25 -0.12    -0.248 N 
DOCKED: ATOM     29 FE   UNL d   1      -4.775  -7.979  -3.042 -0.09 +0.00    +0.000 Fe
DOCKED: ENDROOT
DOCKED: BRANCH   6  30
DOCKED: ATOM     30  C   UNL d   1      -7.583 -12.664  -2.088 -0.27 +0.05    +0.052 C 
DOCKED: BRANCH  30  31
DOCKED: ATOM     31  C   UNL d   1      -7.380 -12.838  -0.587 -0.22 +0.12    +0.115 C 
DOCKED: BRANCH  31  32
DOCKED: ATOM     32  C   UNL d   1      -6.444 -13.982  -0.312 -0.19 +0.23    +0.139 C 
DOCKED: ATOM     33  O   UNL d   1      -6.583 -15.053  -0.886 -0.38 -1.13    -0.650 OA
DOCKED: BRANCH  32  34
DOCKED: ATOM     34  O   UNL d   1      -5.443 -13.837   0.572 +0.00 -1.97    -0.776 OA
DOCKED: ATOM     35  H   UNL d   1      -4.533 -13.788   0.247 +0.04 +0.37    +0.167 HD
DOCKED: ENDBRANCH  32  34
DOCKED: ENDBRANCH  31  32
DOCKED: ENDBRANCH  30  31
DOCKED: ENDBRANCH   6  30
DOCKED: BRANCH  22  36
DOCKED: ATOM     36  C   UNL d   1      -2.118 -12.873  -2.217 -0.26 +0.07    +0.052 C 
DOCKED: BRANCH  36  37
DOCKED: ATOM     37  C   UNL d   1      -2.219 -13.336  -0.771 -0.20 +0.14    +0.115 C 
DOCKED: BRANCH  37  38
DOCKED: ATOM     38  C   UNL d   1      -2.549 -14.799  -0.695 -0.17 +0.21    +0.139 C 
DOCKED: ATOM     39  O   UNL d   1      -1.723 -15.607  -0.297 -0.01 -0.70    -0.650 OA
DOCKED: BRANCH  38  40
DOCKED: ATOM     40  O   UNL d   1      -3.765 -15.234  -1.073 +0.09 -1.74    -0.776 OA
DOCKED: ATOM     41  H   UNL d   1      -4.471 -15.285  -0.414 +0.02 +0.36    +0.167 HD
DOCKED: ENDBRANCH  38  40
DOCKED: ENDBRANCH  37  38
DOCKED: ENDBRANCH  36  37
DOCKED: ENDBRANCH  22  36
DOCKED: BRANCH  12  42
DOCKED: ATOM     42  C   UNL d   1      -7.311  -3.290  -4.944 -0.65 +0.00    +0.004 C 
DOCKED: ATOM     43  C   UNL d   1      -7.790  -2.315  -4.159 -0.65 +0.00    +0.012 C 
DOCKED: ENDBRANCH  12  42
DOCKED: BRANCH  17  44
DOCKED: ATOM     44  C   UNL d   1       0.018  -5.197  -2.425 -0.53 +0.00    +0.004 C 
DOCKED: ATOM     45  C   UNL d   1       0.954  -5.061  -3.370 -0.63 +0.00    +0.012 C 
DOCKED: ENDBRANCH  17  44
DOCKED: TORSDOF 10
DOCKED: TER
DOCKED: ENDMDL
________________________________________________________________________________


	BEGINNING GENETIC ALGORITHM DOCKING 70 of 100
Run: 70 Seed: 1161705657 1984433229 [ Run 70 of 100 GA/GALS ]
Beginning LAMARCKIAN GENETIC ALGORITHM (LGA), with a maximum of 25000000 energy evaluations.

Final-Value: -17.037


	FINAL GENETIC ALGORITHM DOCKED STATE
	_______________________________________________


Detailed state:  trans -5.515 -10.783 -1.189 quatxyzw -0.565949 -0.785365 0.156821 0.195731 center -0.174 -0.001 -0.047 ntor 10 -178.0754 -131.9460 92.2334 -158.1409 -99.9614 -65.8328 -114.7758 61.3171 148.2150 123.1784
State:	 -5.515 -10.783  -1.189  -0.577 -0.801  0.160 157.425   -178.08 -131.95   92.23 -158.14  -99.96  -65.83 -114.78   61.32  148.21  123.18

DOCKED: MODEL       70
DOCKED: USER    Run = 70
DOCKED: USER    DPF = D:/Protein_go_brrr/autodock/final/AncA/heme_Fe/dock.dpf
DOCKED: USER  
DOCKED: USER    Estimated Free Energy of Binding    =  -12.56 kcal/mol  [=(1)+(2)+(3)-(4)]
DOCKED: USER    Estimated Inhibition Constant, Ki   =  622.91 pM (picomolar)  [Temperature = 298.15 K]
DOCKED: USER    
DOCKED: USER    (1) Final Intermolecular Energy     =  -15.54 kcal/mol
DOCKED: USER        vdW + Hbond + desolv Energy     =  -11.87 kcal/mol
DOCKED: USER        Electrostatic Energy            =   -3.67 kcal/mol
DOCKED: USER    (2) Final Total Internal Energy     =   -1.49 kcal/mol
DOCKED: USER    (3) Torsional Free Energy           =   +2.98 kcal/mol
DOCKED: USER    (4) Unbound System's Energy  [=(2)] =   -1.49 kcal/mol
DOCKED: USER    
DOCKED: USER    
DOCKED: USER    NEWDPF move heme_Fe_opt.pdbqt
DOCKED: USER    NEWDPF about -0.174000 -0.001000 -0.047000
DOCKED: USER    NEWDPF tran0 -5.515015 -10.782729 -1.189266
DOCKED: USER    NEWDPF quaternion0 -0.565949 -0.785365 0.156821 0.195731
DOCKED: USER    NEWDPF axisangle0 -0.577112 -0.800855 0.159914 157.425115
DOCKED: USER    NEWDPF quat0 -0.577112 -0.800855 0.159914 157.425115
DOCKED: USER    NEWDPF dihe0 -178.08 -131.95 92.23 -158.14 -99.96 -65.83 -114.78 61.32 148.21 123.18 
DOCKED: USER  keepresnum = 1 
DOCKED: USER  
DOCKED: REMARK  10 active torsions:
DOCKED: REMARK  status: ('A' for Active; 'I' for Inactive)
DOCKED: REMARK    1  A    between atoms: C_6  and  C_10 
DOCKED: REMARK    2  A    between atoms: C_10  and  C_11 
DOCKED: REMARK    3  A    between atoms: C_11  and  C_12 
DOCKED: REMARK    4  A    between atoms: C_12  and  O_14 
DOCKED: REMARK    5  A    between atoms: C_17  and  C_20 
DOCKED: REMARK    6  A    between atoms: C_24  and  C_27 
DOCKED: REMARK    7  A    between atoms: C_31  and  C_34 
DOCKED: REMARK    8  A    between atoms: C_34  and  C_35 
DOCKED: REMARK    9  A    between atoms: C_35  and  C_36 
DOCKED: REMARK   10  A    between atoms: C_36  and  O_38 
DOCKED: USER                              x       y       z     vdW  Elec       q    Type
DOCKED: USER                           _______ _______ _______ _____ _____    ______ ____
DOCKED: ROOT
DOCKED: ATOM      1  C   UNL d   1      -4.942 -12.689  -0.692 -0.29 +0.10    +0.064 C 
DOCKED: ATOM      2  C   UNL d   1      -9.160 -10.608  -2.211 -0.34 +0.02    +0.064 A 
DOCKED: ATOM      3  C   UNL d   1      -6.682  -6.709  -3.526 -0.42 +0.03    +0.064 C 
DOCKED: ATOM      4  C   UNL d   1      -2.603  -8.663  -1.965 -0.50 +0.02    +0.064 C 
DOCKED: ATOM      5  C   UNL d   1      -6.370 -12.432  -0.921 -0.22 +0.08    +0.066 A 
DOCKED: ATOM      6  C   UNL d   1      -7.396 -13.290  -0.560 -0.21 -0.02    -0.021 A 
DOCKED: ATOM      7  C   UNL d   1      -8.567 -12.713  -0.985 -0.22 -0.02    -0.025 A 
DOCKED: ATOM      8  C   UNL d   1      -8.210 -11.523  -1.591 -0.17 +0.04    +0.066 A 
DOCKED: ATOM      9  C   UNL d   1      -9.945 -13.270  -0.799 -0.21 +0.03    +0.051 C 
DOCKED: ATOM     10  C   UNL d   1      -8.848  -9.428  -2.751 -0.37 +0.02    +0.066 A 
DOCKED: ATOM     11  C   UNL d   1      -9.762  -8.626  -3.439 -0.50 -0.00    -0.021 A 
DOCKED: ATOM     12  C   UNL d   1      -9.068  -7.503  -3.843 -0.48 +0.00    +0.000 A 
DOCKED: ATOM     13  C   UNL d   1      -7.752  -7.684  -3.383 -0.40 +0.02    +0.070 A 
DOCKED: ATOM     14  C   UNL d   1     -11.208  -8.945  -3.757 -0.34 +0.00    +0.052 C 
DOCKED: ATOM     15  C   UNL d   1      -5.401  -6.900  -3.130 -0.12 +0.03    +0.066 A 
DOCKED: ATOM     16  C   UNL d   1      -4.431  -5.908  -3.194 -0.40 -0.01    -0.021 A 
DOCKED: ATOM     17  C   UNL d   1      -3.253  -6.470  -2.747 -0.37 +0.00    +0.000 A 
DOCKED: ATOM     18  C   UNL d   1      -3.532  -7.796  -2.425 -0.38 +0.02    +0.070 A 
DOCKED: ATOM     19  C   UNL d   1      -4.596  -4.492  -3.678 -0.34 +0.01    +0.052 C 
DOCKED: ATOM     20  C   UNL d   1      -2.872 -10.047  -1.558 -0.39 +0.04    +0.066 A 
DOCKED: ATOM     21  C   UNL d   1      -1.895 -11.012  -1.272 -0.30 -0.02    -0.025 A 
DOCKED: ATOM     22  C   UNL d   1      -2.584 -12.148  -0.899 -0.21 -0.02    -0.021 A 
DOCKED: ATOM     23  C   UNL d   1      -3.946 -11.835  -0.978 -0.27 +0.08    +0.066 A 
DOCKED: ATOM     24  C   UNL d   1      -0.392 -10.882  -1.347 -0.37 +0.02    +0.051 C 
DOCKED: ATOM     25  N   UNL d   1      -6.874 -11.351  -1.541 +0.19 -0.20    -0.248 N 
DOCKED: ATOM     26  N   UNL d   1      -7.616  -8.861  -2.725 -0.12 -0.09    -0.248 N 
DOCKED: ATOM     27  N   UNL d   1      -4.861  -8.050  -2.619 -0.23 -0.12    -0.248 N 
DOCKED: ATOM     28  N   UNL d   1      -4.116 -10.567  -1.424 -0.22 -0.18    -0.248 N 
DOCKED: ATOM     29 FE   UNL d   1      -5.864  -9.713  -2.074 -0.08 +0.00    +0.000 Fe
DOCKED: ENDROOT
DOCKED: BRANCH   6  30
DOCKED: ATOM     30  C   UNL d   1      -7.275 -14.582   0.172 -0.15 +0.07    +0.052 C 
DOCKED: BRANCH  30  31
DOCKED: ATOM     31  C   UNL d   1      -7.875 -15.723  -0.643 -0.07 +0.12    +0.115 C 
DOCKED: BRANCH  31  32
DOCKED: ATOM     32  C   UNL d   1      -7.085 -15.942  -1.903 -0.03 +0.22    +0.139 C 
DOCKED: ATOM     33  O   UNL d   1      -7.478 -15.493  -2.971 -0.29 -1.01    -0.650 OA
DOCKED: BRANCH  32  34
DOCKED: ATOM     34  O   UNL d   1      -5.935 -16.635  -1.867 -0.28 -1.52    -0.776 OA
DOCKED: ATOM     35  H   UNL d   1      -5.641 -17.013  -1.026 +0.01 +0.24    +0.167 HD
DOCKED: ENDBRANCH  32  34
DOCKED: ENDBRANCH  31  32
DOCKED: ENDBRANCH  30  31
DOCKED: ENDBRANCH   6  30
DOCKED: BRANCH  22  36
DOCKED: ATOM     36  C   UNL d   1      -1.965 -13.472  -0.536 -0.18 +0.06    +0.052 C 
DOCKED: BRANCH  36  37
DOCKED: ATOM     37  C   UNL d   1      -2.793 -14.604  -1.126 -0.09 +0.20    +0.115 C 
DOCKED: BRANCH  37  38
DOCKED: ATOM     38  C   UNL d   1      -3.325 -15.502  -0.046 -0.13 +0.24    +0.139 C 
DOCKED: ATOM     39  O   UNL d   1      -2.567 -16.175   0.638 -0.03 -0.82    -0.650 OA
DOCKED: BRANCH  38  40
DOCKED: ATOM     40  O   UNL d   1      -4.650 -15.574   0.176 -0.48 -1.70    -0.776 OA
DOCKED: ATOM     41  H   UNL d   1      -5.246 -15.695  -0.577 +0.01 +0.34    +0.167 HD
DOCKED: ENDBRANCH  38  40
DOCKED: ENDBRANCH  37  38
DOCKED: ENDBRANCH  36  37
DOCKED: ENDBRANCH  22  36
DOCKED: BRANCH  12  42
DOCKED: ATOM     42  C   UNL d   1      -9.652  -6.371  -4.627 -0.32 +0.00    +0.004 C 
DOCKED: ATOM     43  C   UNL d   1      -9.325  -5.102  -4.354 -0.58 +0.00    +0.012 C 
DOCKED: ENDBRANCH  12  42
DOCKED: BRANCH  17  44
DOCKED: ATOM     44  C   UNL d   1      -1.951  -5.778  -2.618 -0.43 +0.00    +0.004 C 
DOCKED: ATOM     45  C   UNL d   1      -0.973  -5.987  -3.505 -0.56 +0.00    +0.012 C 
DOCKED: ENDBRANCH  17  44
DOCKED: TORSDOF 10
DOCKED: TER
DOCKED: ENDMDL
________________________________________________________________________________


	BEGINNING GENETIC ALGORITHM DOCKING 71 of 100
Run: 71 Seed: 735622955 982898099 [ Run 71 of 100 GA/GALS ]
Beginning LAMARCKIAN GENETIC ALGORITHM (LGA), with a maximum of 25000000 energy evaluations.

Final-Value: -13.158


	FINAL GENETIC ALGORITHM DOCKED STATE
	_______________________________________________


Detailed state:  trans -0.305 -15.647 -1.764 quatxyzw -0.593365 -0.413679 0.209661 -0.657898 center -0.174 -0.001 -0.047 ntor 10 -153.3658 168.6200 4.5008 -102.2542 -108.2740 -4.2136 -141.9477 38.4241 164.1548 -32.3250
State:	 -0.305 -15.647  -1.764  -0.788 -0.549  0.278 -97.721   -153.37  168.62    4.50 -102.25 -108.27   -4.21 -141.95   38.42  164.15  -32.33

DOCKED: MODEL       71
DOCKED: USER    Run = 71
DOCKED: USER    DPF = D:/Protein_go_brrr/autodock/final/AncA/heme_Fe/dock.dpf
DOCKED: USER  
DOCKED: USER    Estimated Free Energy of Binding    =   -9.62 kcal/mol  [=(1)+(2)+(3)-(4)]
DOCKED: USER    Estimated Inhibition Constant, Ki   =   88.93 nM (nanomolar)  [Temperature = 298.15 K]
DOCKED: USER    
DOCKED: USER    (1) Final Intermolecular Energy     =  -12.60 kcal/mol
DOCKED: USER        vdW + Hbond + desolv Energy     =   -7.93 kcal/mol
DOCKED: USER        Electrostatic Energy            =   -4.67 kcal/mol
DOCKED: USER    (2) Final Total Internal Energy     =   -0.56 kcal/mol
DOCKED: USER    (3) Torsional Free Energy           =   +2.98 kcal/mol
DOCKED: USER    (4) Unbound System's Energy  [=(2)] =   -0.56 kcal/mol
DOCKED: USER    
DOCKED: USER    
DOCKED: USER    NEWDPF move heme_Fe_opt.pdbqt
DOCKED: USER    NEWDPF about -0.174000 -0.001000 -0.047000
DOCKED: USER    NEWDPF tran0 -0.304995 -15.646862 -1.764325
DOCKED: USER    NEWDPF quaternion0 -0.593365 -0.413679 0.209661 -0.657898
DOCKED: USER    NEWDPF axisangle0 -0.787889 -0.549297 0.278395 -97.720548
DOCKED: USER    NEWDPF quat0 -0.787889 -0.549297 0.278395 -97.720548
DOCKED: USER    NEWDPF dihe0 -153.37 168.62 4.50 -102.25 -108.27 -4.21 -141.95 38.42 164.15 -32.33 
DOCKED: USER  keepresnum = 1 
DOCKED: USER  
DOCKED: REMARK  10 active torsions:
DOCKED: REMARK  status: ('A' for Active; 'I' for Inactive)
DOCKED: REMARK    1  A    between atoms: C_6  and  C_10 
DOCKED: REMARK    2  A    between atoms: C_10  and  C_11 
DOCKED: REMARK    3  A    between atoms: C_11  and  C_12 
DOCKED: REMARK    4  A    between atoms: C_12  and  O_14 
DOCKED: REMARK    5  A    between atoms: C_17  and  C_20 
DOCKED: REMARK    6  A    between atoms: C_24  and  C_27 
DOCKED: REMARK    7  A    between atoms: C_31  and  C_34 
DOCKED: REMARK    8  A    between atoms: C_34  and  C_35 
DOCKED: REMARK    9  A    between atoms: C_35  and  C_36 
DOCKED: REMARK   10  A    between atoms: C_36  and  O_38 
DOCKED: USER                              x       y       z     vdW  Elec       q    Type
DOCKED: USER                           _______ _______ _______ _____ _____    ______ ____
DOCKED: ROOT
DOCKED: ATOM      1  C   UNL d   1      -1.868 -16.855  -2.318 -0.08 +0.08    +0.064 C 
DOCKED: ATOM      2  C   UNL d   1      -0.349 -14.864   1.943 -0.11 +0.05    +0.064 A 
DOCKED: ATOM      3  C   UNL d   1       2.507 -11.905  -0.538 -0.27 +0.02    +0.064 C 
DOCKED: ATOM      4  C   UNL d   1       1.129 -13.889  -4.667 -0.26 +0.03    +0.064 C 
DOCKED: ATOM      5  C   UNL d   1      -1.643 -16.626  -0.884 -0.06 +0.06    +0.066 A 
DOCKED: ATOM      6  C   UNL d   1      -2.213 -17.371   0.135 -0.05 -0.02    -0.021 A 
DOCKED: ATOM      7  C   UNL d   1      -1.793 -16.815   1.318 -0.08 -0.02    -0.025 A 
DOCKED: ATOM      8  C   UNL d   1      -0.982 -15.751   0.975 -0.09 +0.06    +0.066 A 
DOCKED: ATOM      9  C   UNL d   1      -2.141 -17.298   2.693 -0.08 +0.05    +0.051 C 
DOCKED: ATOM     10  C   UNL d   1       0.484 -13.866   1.640 -0.14 +0.04    +0.066 A 
DOCKED: ATOM     11  C   UNL d   1       0.984 -12.962   2.581 -0.20 -0.01    -0.021 A 
DOCKED: ATOM     12  C   UNL d   1       1.797 -12.088   1.888 -0.31 +0.00    +0.000 A 
DOCKED: ATOM     13  C   UNL d   1       1.744 -12.503   0.546 -0.21 +0.02    +0.070 A 
DOCKED: ATOM     14  C   UNL d   1       0.650 -12.893   4.057 -0.27 +0.03    +0.052 C 
DOCKED: ATOM     15  C   UNL d   1       2.420 -12.267  -1.840 -0.17 +0.02    +0.066 A 
DOCKED: ATOM     16  C   UNL d   1       3.238 -11.740  -2.831 -0.24 -0.01    -0.021 A 
DOCKED: ATOM     17  C   UNL d   1       2.840 -12.308  -4.023 -0.26 +0.00    +0.000 A 
DOCKED: ATOM     18  C   UNL d   1       1.783 -13.167  -3.732 -0.18 +0.03    +0.070 A 
DOCKED: ATOM     19  C   UNL d   1       4.336 -10.722  -2.670 -0.30 +0.01    +0.052 C 
DOCKED: ATOM     20  C   UNL d   1       0.054 -14.849  -4.391 -0.18 +0.05    +0.066 A 
DOCKED: ATOM     21  C   UNL d   1      -0.764 -15.451  -5.358 -0.25 -0.02    -0.025 A 
DOCKED: ATOM     22  C   UNL d   1      -1.602 -16.302  -4.667 -0.14 -0.03    -0.021 A 
DOCKED: ATOM     23  C   UNL d   1      -1.269 -16.182  -3.313 -0.11 +0.08    +0.066 A 
DOCKED: ATOM     24  C   UNL d   1      -0.767 -15.240  -6.854 -0.40 +0.03    +0.051 C 
DOCKED: ATOM     25  N   UNL d   1      -0.885 -15.644  -0.365 -0.04 -0.21    -0.248 N 
DOCKED: ATOM     26  N   UNL d   1       0.936 -13.581   0.393 -0.08 -0.12    -0.248 N 
DOCKED: ATOM     27  N   UNL d   1       1.553 -13.176  -2.384 -0.06 -0.10    -0.248 N 
DOCKED: ATOM     28  N   UNL d   1      -0.289 -15.261  -3.146 -0.06 -0.21    -0.248 N 
DOCKED: ATOM     29 FE   UNL d   1       0.324 -14.420  -1.378 -0.02 +0.00    +0.000 Fe
DOCKED: ENDROOT
DOCKED: BRANCH   6  30
DOCKED: ATOM     30  C   UNL d   1      -3.095 -18.564  -0.005 -0.02 +0.04    +0.052 C 
DOCKED: BRANCH  30  31
DOCKED: ATOM     31  C   UNL d   1      -4.539 -18.212   0.331 -0.03 +0.11    +0.115 C 
DOCKED: BRANCH  31  32
DOCKED: ATOM     32  C   UNL d   1      -4.879 -16.839  -0.181 -0.10 +0.21    +0.139 C 
DOCKED: ATOM     33  O   UNL d   1      -5.028 -15.904   0.593 -0.42 -1.52    -0.650 OA
DOCKED: BRANCH  32  34
DOCKED: ATOM     34  O   UNL d   1      -5.022 -16.628  -1.500 -0.08 -1.59    -0.776 OA
DOCKED: ATOM     35  H   UNL d   1      -5.290 -17.364  -2.067 +0.01 +0.27    +0.167 HD
DOCKED: ENDBRANCH  32  34
DOCKED: ENDBRANCH  31  32
DOCKED: ENDBRANCH  30  31
DOCKED: ENDBRANCH   6  30
DOCKED: BRANCH  22  36
DOCKED: ATOM     36  C   UNL d   1      -2.694 -17.144  -5.273 -0.10 +0.07    +0.052 C 
DOCKED: BRANCH  36  37
DOCKED: ATOM     37  C   UNL d   1      -2.084 -18.184  -6.202 -0.14 +0.11    +0.115 C 
DOCKED: BRANCH  37  38
DOCKED: ATOM     38  C   UNL d   1      -2.944 -18.392  -7.416 -0.09 +0.22    +0.139 C 
DOCKED: ATOM     39  O   UNL d   1      -4.021 -17.824  -7.524 -0.33 -1.21    -0.650 OA
DOCKED: BRANCH  38  40
DOCKED: ATOM     40  O   UNL d   1      -2.531 -19.213  -8.398 -0.38 -1.48    -0.776 OA
DOCKED: ATOM     41  H   UNL d   1      -1.617 -19.529  -8.394 +0.04 +0.19    +0.167 HD
DOCKED: ENDBRANCH  38  40
DOCKED: ENDBRANCH  37  38
DOCKED: ENDBRANCH  36  37
DOCKED: ENDBRANCH  22  36
DOCKED: BRANCH  12  42
DOCKED: ATOM     42  C   UNL d   1       2.539 -10.942   2.499 -0.35 +0.00    +0.004 C 
DOCKED: ATOM     43  C   UNL d   1       3.333 -11.122   3.562 -0.29 +0.00    +0.012 C 
DOCKED: ENDBRANCH  12  42
DOCKED: BRANCH  17  44
DOCKED: ATOM     44  C   UNL d   1       3.445 -12.061  -5.351 -0.43 +0.00    +0.004 C 
DOCKED: ATOM     45  C   UNL d   1       3.677 -10.814  -5.777 -0.53 +0.00    +0.012 C 
DOCKED: ENDBRANCH  17  44
DOCKED: TORSDOF 10
DOCKED: TER
DOCKED: ENDMDL
________________________________________________________________________________


	BEGINNING GENETIC ALGORITHM DOCKING 72 of 100
Run: 72 Seed: 676772176 418465615 [ Run 72 of 100 GA/GALS ]
Beginning LAMARCKIAN GENETIC ALGORITHM (LGA), with a maximum of 25000000 energy evaluations.

Final-Value: -17.069


	FINAL GENETIC ALGORITHM DOCKED STATE
	_______________________________________________


Detailed state:  trans -5.466 -10.769 -1.293 quatxyzw -0.560711 -0.793324 0.146860 0.186205 center -0.174 -0.001 -0.047 ntor 10 -33.7475 154.2125 98.7202 -163.9433 15.0413 -9.1944 -68.0233 -65.5877 -167.1466 128.8818
State:	 -5.466 -10.769  -1.293  -0.571 -0.807  0.149 158.537    -33.75  154.21   98.72 -163.94   15.04   -9.19  -68.02  -65.59 -167.15  128.88

DOCKED: MODEL       72
DOCKED: USER    Run = 72
DOCKED: USER    DPF = D:/Protein_go_brrr/autodock/final/AncA/heme_Fe/dock.dpf
DOCKED: USER  
DOCKED: USER    Estimated Free Energy of Binding    =  -12.47 kcal/mol  [=(1)+(2)+(3)-(4)]
DOCKED: USER    Estimated Inhibition Constant, Ki   =  723.82 pM (picomolar)  [Temperature = 298.15 K]
DOCKED: USER    
DOCKED: USER    (1) Final Intermolecular Energy     =  -15.45 kcal/mol
DOCKED: USER        vdW + Hbond + desolv Energy     =  -12.00 kcal/mol
DOCKED: USER        Electrostatic Energy            =   -3.46 kcal/mol
DOCKED: USER    (2) Final Total Internal Energy     =   -1.62 kcal/mol
DOCKED: USER    (3) Torsional Free Energy           =   +2.98 kcal/mol
DOCKED: USER    (4) Unbound System's Energy  [=(2)] =   -1.62 kcal/mol
DOCKED: USER    
DOCKED: USER    
DOCKED: USER    NEWDPF move heme_Fe_opt.pdbqt
DOCKED: USER    NEWDPF about -0.174000 -0.001000 -0.047000
DOCKED: USER    NEWDPF tran0 -5.466073 -10.769356 -1.292774
DOCKED: USER    NEWDPF quaternion0 -0.560711 -0.793324 0.146860 0.186205
DOCKED: USER    NEWDPF axisangle0 -0.570692 -0.807445 0.149474 158.537196
DOCKED: USER    NEWDPF quat0 -0.570692 -0.807445 0.149474 158.537196
DOCKED: USER    NEWDPF dihe0 -33.75 154.21 98.72 -163.94 15.04 -9.19 -68.02 -65.59 -167.15 128.88 
DOCKED: USER  keepresnum = 1 
DOCKED: USER  
DOCKED: REMARK  10 active torsions:
DOCKED: REMARK  status: ('A' for Active; 'I' for Inactive)
DOCKED: REMARK    1  A    between atoms: C_6  and  C_10 
DOCKED: REMARK    2  A    between atoms: C_10  and  C_11 
DOCKED: REMARK    3  A    between atoms: C_11  and  C_12 
DOCKED: REMARK    4  A    between atoms: C_12  and  O_14 
DOCKED: REMARK    5  A    between atoms: C_17  and  C_20 
DOCKED: REMARK    6  A    between atoms: C_24  and  C_27 
DOCKED: REMARK    7  A    between atoms: C_31  and  C_34 
DOCKED: REMARK    8  A    between atoms: C_34  and  C_35 
DOCKED: REMARK    9  A    between atoms: C_35  and  C_36 
DOCKED: REMARK   10  A    between atoms: C_36  and  O_38 
DOCKED: USER                              x       y       z     vdW  Elec       q    Type
DOCKED: USER                           _______ _______ _______ _____ _____    ______ ____
DOCKED: ROOT
DOCKED: ATOM      1  C   UNL d   1      -4.854 -12.678  -0.852 -0.29 +0.10    +0.064 C 
DOCKED: ATOM      2  C   UNL d   1      -9.122 -10.634  -2.280 -0.33 +0.02    +0.064 A 
DOCKED: ATOM      3  C   UNL d   1      -6.726  -6.657  -3.509 -0.43 +0.02    +0.064 C 
DOCKED: ATOM      4  C   UNL d   1      -2.600  -8.577  -2.035 -0.50 +0.02    +0.064 C 
DOCKED: ATOM      5  C   UNL d   1      -6.289 -12.440  -1.062 -0.23 +0.08    +0.066 A 
DOCKED: ATOM      6  C   UNL d   1      -7.296 -13.326  -0.715 -0.21 -0.02    -0.021 A 
DOCKED: ATOM      7  C   UNL d   1      -8.481 -12.759  -1.116 -0.22 -0.02    -0.025 A 
DOCKED: ATOM      8  C   UNL d   1      -8.151 -11.548  -1.692 -0.18 +0.04    +0.066 A 
DOCKED: ATOM      9  C   UNL d   1      -9.847 -13.347  -0.933 -0.21 +0.03    +0.051 C 
DOCKED: ATOM     10  C   UNL d   1      -8.837  -9.434  -2.790 -0.37 +0.02    +0.066 A 
DOCKED: ATOM     11  C   UNL d   1      -9.770  -8.631  -3.449 -0.50 -0.00    -0.021 A 
DOCKED: ATOM     12  C   UNL d   1      -9.100  -7.485  -3.828 -0.47 +0.00    +0.000 A 
DOCKED: ATOM     13  C   UNL d   1      -7.777  -7.654  -3.384 -0.40 +0.02    +0.070 A 
DOCKED: ATOM     14  C   UNL d   1     -11.214  -8.968  -3.763 -0.35 +0.00    +0.052 C 
DOCKED: ATOM     15  C   UNL d   1      -5.439  -6.835  -3.129 -0.17 +0.03    +0.066 A 
DOCKED: ATOM     16  C   UNL d   1      -4.488  -5.823  -3.174 -0.40 -0.01    -0.021 A 
DOCKED: ATOM     17  C   UNL d   1      -3.296  -6.376  -2.752 -0.36 +0.00    +0.000 A 
DOCKED: ATOM     18  C   UNL d   1      -3.548  -7.715  -2.464 -0.37 +0.02    +0.070 A 
DOCKED: ATOM     19  C   UNL d   1      -4.683  -4.399  -3.619 -0.29 +0.01    +0.052 C 
DOCKED: ATOM     20  C   UNL d   1      -2.840  -9.976  -1.663 -0.39 +0.04    +0.066 A 
DOCKED: ATOM     21  C   UNL d   1      -1.844 -10.930  -1.412 -0.33 -0.02    -0.025 A 
DOCKED: ATOM     22  C   UNL d   1      -2.508 -12.088  -1.064 -0.28 -0.02    -0.021 A 
DOCKED: ATOM     23  C   UNL d   1      -3.877 -11.798  -1.123 -0.29 +0.07    +0.066 A 
DOCKED: ATOM     24  C   UNL d   1      -0.343 -10.771  -1.495 -0.39 +0.02    +0.051 C 
DOCKED: ATOM     25  N   UNL d   1      -6.818 -11.352  -1.649 +0.11 -0.20    -0.248 N 
DOCKED: ATOM     26  N   UNL d   1      -7.614  -8.846  -2.758 -0.13 -0.09    -0.248 N 
DOCKED: ATOM     27  N   UNL d   1      -4.874  -7.988  -2.653 -0.23 -0.12    -0.248 N 
DOCKED: ATOM     28  N   UNL d   1      -4.074 -10.522  -1.533 -0.22 -0.18    -0.248 N 
DOCKED: ATOM     29 FE   UNL d   1      -5.842  -9.683  -2.146 -0.08 +0.00    +0.000 Fe
DOCKED: ENDROOT
DOCKED: BRANCH   6  30
DOCKED: ATOM     30  C   UNL d   1      -7.145 -14.636  -0.020 -0.15 +0.07    +0.052 C 
DOCKED: BRANCH  30  31
DOCKED: ATOM     31  C   UNL d   1      -6.658 -15.709  -0.988 -0.09 +0.19    +0.115 C 
DOCKED: BRANCH  31  32
DOCKED: ATOM     32  C   UNL d   1      -5.260 -16.136  -0.639 -0.10 +0.26    +0.139 C 
DOCKED: ATOM     33  O   UNL d   1      -4.773 -15.850   0.447 -0.41 -1.46    -0.650 OA
DOCKED: BRANCH  32  34
DOCKED: ATOM     34  O   UNL d   1      -4.529 -16.839  -1.520 -0.01 -1.47    -0.776 OA
DOCKED: ATOM     35  H   UNL d   1      -3.572 -16.702  -1.552 +0.01 +0.30    +0.167 HD
DOCKED: ENDBRANCH  32  34
DOCKED: ENDBRANCH  31  32
DOCKED: ENDBRANCH  30  31
DOCKED: ENDBRANCH   6  30
DOCKED: BRANCH  22  36
DOCKED: ATOM     36  C   UNL d   1      -1.863 -13.410  -0.741 -0.23 +0.06    +0.052 C 
DOCKED: BRANCH  36  37
DOCKED: ATOM     37  C   UNL d   1      -2.592 -14.528  -1.470 -0.03 +0.21    +0.115 C 
DOCKED: BRANCH  37  38
DOCKED: ATOM     38  C   UNL d   1      -1.709 -15.160  -2.509 -0.07 +0.22    +0.139 C 
DOCKED: ATOM     39  O   UNL d   1      -0.631 -14.662  -2.799 +0.01 -0.61    -0.650 OA
DOCKED: BRANCH  38  40
DOCKED: ATOM     40  O   UNL d   1      -2.104 -16.283  -3.133 -0.49 -1.42    -0.776 OA
DOCKED: ATOM     41  H   UNL d   1      -2.723 -16.877  -2.685 +0.01 +0.31    +0.167 HD
DOCKED: ENDBRANCH  38  40
DOCKED: ENDBRANCH  37  38
DOCKED: ENDBRANCH  36  37
DOCKED: ENDBRANCH  22  36
DOCKED: BRANCH  12  42
DOCKED: ATOM     42  C   UNL d   1      -9.712  -6.344  -4.577 -0.37 +0.00    +0.004 C 
DOCKED: ATOM     43  C   UNL d   1      -9.311  -5.084  -4.361 -0.59 +0.00    +0.012 C 
DOCKED: ENDBRANCH  12  42
DOCKED: BRANCH  17  44
DOCKED: ATOM     44  C   UNL d   1      -2.006  -5.663  -2.615 -0.41 +0.00    +0.004 C 
DOCKED: ATOM     45  C   UNL d   1      -0.991  -5.917  -3.449 -0.56 +0.00    +0.012 C 
DOCKED: ENDBRANCH  17  44
DOCKED: TORSDOF 10
DOCKED: TER
DOCKED: ENDMDL
________________________________________________________________________________


	BEGINNING GENETIC ALGORITHM DOCKING 73 of 100
Run: 73 Seed: 1239225454 246432808 [ Run 73 of 100 GA/GALS ]
Beginning LAMARCKIAN GENETIC ALGORITHM (LGA), with a maximum of 25000000 energy evaluations.

Final-Value: -13.723


	FINAL GENETIC ALGORITHM DOCKED STATE
	_______________________________________________


Detailed state:  trans -10.438 -13.836 -1.086 quatxyzw -0.258578 0.337981 0.881374 -0.205151 center -0.174 -0.001 -0.047 ntor 10 164.0653 157.6070 -161.6944 -156.5810 -174.7803 84.0989 79.7940 63.9155 9.5146 150.9535
State:	-10.438 -13.836  -1.086  -0.264  0.345  0.901 -156.323    164.07  157.61 -161.69 -156.58 -174.78   84.10   79.79   63.92    9.51  150.95

DOCKED: MODEL       73
DOCKED: USER    Run = 73
DOCKED: USER    DPF = D:/Protein_go_brrr/autodock/final/AncA/heme_Fe/dock.dpf
DOCKED: USER  
DOCKED: USER    Estimated Free Energy of Binding    =   -9.64 kcal/mol  [=(1)+(2)+(3)-(4)]
DOCKED: USER    Estimated Inhibition Constant, Ki   =   85.53 nM (nanomolar)  [Temperature = 298.15 K]
DOCKED: USER    
DOCKED: USER    (1) Final Intermolecular Energy     =  -12.63 kcal/mol
DOCKED: USER        vdW + Hbond + desolv Energy     =   -8.46 kcal/mol
DOCKED: USER        Electrostatic Energy            =   -4.17 kcal/mol
DOCKED: USER    (2) Final Total Internal Energy     =   -1.10 kcal/mol
DOCKED: USER    (3) Torsional Free Energy           =   +2.98 kcal/mol
DOCKED: USER    (4) Unbound System's Energy  [=(2)] =   -1.10 kcal/mol
DOCKED: USER    
DOCKED: USER    
DOCKED: USER    NEWDPF move heme_Fe_opt.pdbqt
DOCKED: USER    NEWDPF about -0.174000 -0.001000 -0.047000
DOCKED: USER    NEWDPF tran0 -10.437993 -13.835773 -1.086080
DOCKED: USER    NEWDPF quaternion0 -0.258578 0.337981 0.881374 -0.205151
DOCKED: USER    NEWDPF axisangle0 -0.264198 0.345326 0.900527 -156.323380
DOCKED: USER    NEWDPF quat0 -0.264198 0.345326 0.900527 -156.323380
DOCKED: USER    NEWDPF dihe0 164.07 157.61 -161.69 -156.58 -174.78 84.10 79.79 63.92 9.51 150.95 
DOCKED: USER  keepresnum = 1 
DOCKED: USER  
DOCKED: REMARK  10 active torsions:
DOCKED: REMARK  status: ('A' for Active; 'I' for Inactive)
DOCKED: REMARK    1  A    between atoms: C_6  and  C_10 
DOCKED: REMARK    2  A    between atoms: C_10  and  C_11 
DOCKED: REMARK    3  A    between atoms: C_11  and  C_12 
DOCKED: REMARK    4  A    between atoms: C_12  and  O_14 
DOCKED: REMARK    5  A    between atoms: C_17  and  C_20 
DOCKED: REMARK    6  A    between atoms: C_24  and  C_27 
DOCKED: REMARK    7  A    between atoms: C_31  and  C_34 
DOCKED: REMARK    8  A    between atoms: C_34  and  C_35 
DOCKED: REMARK    9  A    between atoms: C_35  and  C_36 
DOCKED: REMARK   10  A    between atoms: C_36  and  O_38 
DOCKED: USER                              x       y       z     vdW  Elec       q    Type
DOCKED: USER                           _______ _______ _______ _____ _____    ______ ____
DOCKED: ROOT
DOCKED: ATOM      1  C   UNL d   1      -9.026 -13.792   0.402 -0.19 +0.05    +0.064 C 
DOCKED: ATOM      2  C   UNL d   1     -10.037 -10.960  -3.521 -0.25 +0.02    +0.064 A 
DOCKED: ATOM      3  C   UNL d   1     -14.328 -13.090  -3.865 -0.21 +0.01    +0.064 C 
DOCKED: ATOM      4  C   UNL d   1     -13.328 -15.913  -0.135 -0.12 +0.01    +0.064 C 
DOCKED: ATOM      5  C   UNL d   1      -8.879 -12.856  -0.721 -0.21 +0.05    +0.066 A 
DOCKED: ATOM      6  C   UNL d   1      -7.728 -12.142  -1.010 -0.20 -0.02    -0.021 A 
DOCKED: ATOM      7  C   UNL d   1      -8.011 -11.353  -2.098 -0.23 -0.02    -0.025 A 
DOCKED: ATOM      8  C   UNL d   1      -9.325 -11.616  -2.431 -0.26 +0.03    +0.066 A 
DOCKED: ATOM      9  C   UNL d   1      -7.061 -10.418  -2.781 -0.11 +0.03    +0.051 C 
DOCKED: ATOM     10  C   UNL d   1     -11.286 -11.237  -3.900 -0.31 +0.01    +0.066 A 
DOCKED: ATOM     11  C   UNL d   1     -11.979 -10.513  -4.872 -0.45 -0.00    -0.021 A 
DOCKED: ATOM     12  C   UNL d   1     -13.226 -11.097  -4.978 -0.37 +0.00    +0.000 A 
DOCKED: ATOM     13  C   UNL d   1     -13.231 -12.152  -4.050 -0.25 +0.00    +0.070 A 
DOCKED: ATOM     14  C   UNL d   1     -11.503  -9.282  -5.615 -0.53 +0.01    +0.052 C 
DOCKED: ATOM     15  C   UNL d   1     -14.359 -14.075  -2.937 -0.15 +0.01    +0.066 A 
DOCKED: ATOM     16  C   UNL d   1     -15.381 -15.012  -2.858 -0.13 -0.00    -0.021 A 
DOCKED: ATOM     17  C   UNL d   1     -15.097 -15.825  -1.781 -0.14 +0.00    +0.000 A 
DOCKED: ATOM     18  C   UNL d   1     -13.907 -15.362  -1.224 -0.10 +0.01    +0.070 A 
DOCKED: ATOM     19  C   UNL d   1     -16.593 -15.125  -3.744 -0.06 +0.01    +0.052 C 
DOCKED: ATOM     20  C   UNL d   1     -12.046 -15.492   0.442 -0.07 +0.02    +0.066 A 
DOCKED: ATOM     21  C   UNL d   1     -11.535 -15.916   1.677 -0.11 -0.01    -0.025 A 
DOCKED: ATOM     22  C   UNL d   1     -10.303 -15.309   1.803 -0.12 -0.01    -0.021 A 
DOCKED: ATOM     23  C   UNL d   1     -10.114 -14.538   0.650 -0.13 +0.04    +0.066 A 
DOCKED: ATOM     24  C   UNL d   1     -12.167 -16.839   2.692 -0.08 +0.01    +0.051 C 
DOCKED: ATOM     25  N   UNL d   1      -9.848 -12.538  -1.598 -0.15 -0.12    -0.248 N 
DOCKED: ATOM     26  N   UNL d   1     -12.052 -12.233  -3.386 -0.17 -0.04    -0.248 N 
DOCKED: ATOM     27  N   UNL d   1     -13.429 -14.313  -1.960 -0.09 -0.02    -0.248 N 
DOCKED: ATOM     28  N   UNL d   1     -11.200 -14.618  -0.156 -0.07 -0.09    -0.248 N 
DOCKED: ATOM     29 FE   UNL d   1     -11.627 -13.427  -1.770 -0.06 +0.00    +0.000 Fe
DOCKED: ENDROOT
DOCKED: BRANCH   6  30
DOCKED: ATOM     30  C   UNL d   1      -6.418 -12.219  -0.304 -0.16 +0.06    +0.052 C 
DOCKED: BRANCH  30  31
DOCKED: ATOM     31  C   UNL d   1      -5.448 -13.120  -1.061 -0.22 +0.20    +0.115 C 
DOCKED: BRANCH  31  32
DOCKED: ATOM     32  C   UNL d   1      -5.393 -14.482  -0.428 -0.11 +0.30    +0.139 C 
DOCKED: ATOM     33  O   UNL d   1      -4.603 -15.325  -0.830 -0.11 -1.51    -0.650 OA
DOCKED: BRANCH  32  34
DOCKED: ATOM     34  O   UNL d   1      -6.216 -14.787   0.590 -0.32 -1.81    -0.776 OA
DOCKED: ATOM     35  H   UNL d   1      -6.668 -14.072   1.059 +0.04 +0.36    +0.167 HD
DOCKED: ENDBRANCH  32  34
DOCKED: ENDBRANCH  31  32
DOCKED: ENDBRANCH  30  31
DOCKED: ENDBRANCH   6  30
DOCKED: BRANCH  22  36
DOCKED: ATOM     36  C   UNL d   1      -9.382 -15.427   2.990 -0.10 +0.03    +0.052 C 
DOCKED: BRANCH  36  37
DOCKED: ATOM     37  C   UNL d   1      -9.295 -14.088   3.707 -0.20 +0.08    +0.115 C 
DOCKED: BRANCH  37  38
DOCKED: ATOM     38  C   UNL d   1      -7.895 -13.544   3.664 -0.22 +0.18    +0.139 C 
DOCKED: ATOM     39  O   UNL d   1      -7.499 -12.912   2.695 -0.54 -0.99    -0.650 OA
DOCKED: BRANCH  38  40
DOCKED: ATOM     40  O   UNL d   1      -7.062 -13.754   4.698 -0.30 -1.21    -0.776 OA
DOCKED: ATOM     41  H   UNL d   1      -7.434 -13.947   5.570 +0.07 +0.15    +0.167 HD
DOCKED: ENDBRANCH  38  40
DOCKED: ENDBRANCH  37  38
DOCKED: ENDBRANCH  36  37
DOCKED: ENDBRANCH  22  36
DOCKED: BRANCH  12  42
DOCKED: ATOM     42  C   UNL d   1     -14.311 -10.637  -5.899 -0.40 +0.00    +0.004 C 
DOCKED: ATOM     43  C   UNL d   1     -15.451 -10.123  -5.418 -0.39 +0.00    +0.012 C 
DOCKED: ENDBRANCH  12  42
DOCKED: BRANCH  17  44
DOCKED: ATOM     44  C   UNL d   1     -15.900 -16.983  -1.327 -0.08 +0.00    +0.004 C 
DOCKED: ATOM     45  C   UNL d   1     -16.701 -16.884  -0.261 -0.10 +0.00    +0.012 C 
DOCKED: ENDBRANCH  17  44
DOCKED: TORSDOF 10
DOCKED: TER
DOCKED: ENDMDL
________________________________________________________________________________


	BEGINNING GENETIC ALGORITHM DOCKING 74 of 100
Run: 74 Seed: 1065749756 718154058 [ Run 74 of 100 GA/GALS ]
Beginning LAMARCKIAN GENETIC ALGORITHM (LGA), with a maximum of 25000000 energy evaluations.

Final-Value: -18.827


	FINAL GENETIC ALGORITHM DOCKED STATE
	_______________________________________________


Detailed state:  trans -4.634 -9.328 -2.392 quatxyzw -0.676698 -0.718395 0.071188 0.144637 center -0.174 -0.001 -0.047 ntor 10 -15.3545 -56.0455 53.4607 -143.7513 7.8107 61.0796 23.3524 0.4284 -39.4685 -178.3168
State:	 -4.634  -9.328  -2.392  -0.684 -0.726  0.072 163.367    -15.35  -56.05   53.46 -143.75    7.81   61.08   23.35    0.43  -39.47 -178.32

DOCKED: MODEL       74
DOCKED: USER    Run = 74
DOCKED: USER    DPF = D:/Protein_go_brrr/autodock/final/AncA/heme_Fe/dock.dpf
DOCKED: USER  
DOCKED: USER    Estimated Free Energy of Binding    =  -15.47 kcal/mol  [=(1)+(2)+(3)-(4)]
DOCKED: USER    Estimated Inhibition Constant, Ki   =    4.61 pM (picomolar)  [Temperature = 298.15 K]
DOCKED: USER    
DOCKED: USER    (1) Final Intermolecular Energy     =  -18.45 kcal/mol
DOCKED: USER        vdW + Hbond + desolv Energy     =  -14.35 kcal/mol
DOCKED: USER        Electrostatic Energy            =   -4.10 kcal/mol
DOCKED: USER    (2) Final Total Internal Energy     =   -0.38 kcal/mol
DOCKED: USER    (3) Torsional Free Energy           =   +2.98 kcal/mol
DOCKED: USER    (4) Unbound System's Energy  [=(2)] =   -0.38 kcal/mol
DOCKED: USER    
DOCKED: USER    
DOCKED: USER    NEWDPF move heme_Fe_opt.pdbqt
DOCKED: USER    NEWDPF about -0.174000 -0.001000 -0.047000
DOCKED: USER    NEWDPF tran0 -4.633674 -9.327833 -2.392015
DOCKED: USER    NEWDPF quaternion0 -0.676698 -0.718395 0.071188 0.144637
DOCKED: USER    NEWDPF axisangle0 -0.683889 -0.726030 0.071945 163.367441
DOCKED: USER    NEWDPF quat0 -0.683889 -0.726030 0.071945 163.367441
DOCKED: USER    NEWDPF dihe0 -15.35 -56.05 53.46 -143.75 7.81 61.08 23.35 0.43 -39.47 -178.32 
DOCKED: USER  keepresnum = 1 
DOCKED: USER  
DOCKED: REMARK  10 active torsions:
DOCKED: REMARK  status: ('A' for Active; 'I' for Inactive)
DOCKED: REMARK    1  A    between atoms: C_6  and  C_10 
DOCKED: REMARK    2  A    between atoms: C_10  and  C_11 
DOCKED: REMARK    3  A    between atoms: C_11  and  C_12 
DOCKED: REMARK    4  A    between atoms: C_12  and  O_14 
DOCKED: REMARK    5  A    between atoms: C_17  and  C_20 
DOCKED: REMARK    6  A    between atoms: C_24  and  C_27 
DOCKED: REMARK    7  A    between atoms: C_31  and  C_34 
DOCKED: REMARK    8  A    between atoms: C_34  and  C_35 
DOCKED: REMARK    9  A    between atoms: C_35  and  C_36 
DOCKED: REMARK   10  A    between atoms: C_36  and  O_38 
DOCKED: USER                              x       y       z     vdW  Elec       q    Type
DOCKED: USER                           _______ _______ _______ _____ _____    ______ ____
DOCKED: ROOT
DOCKED: ATOM      1  C   UNL d   1      -4.549 -11.376  -2.299 -0.36 +0.07    +0.064 C 
DOCKED: ATOM      2  C   UNL d   1      -8.027  -8.089  -3.537 -0.42 +0.02    +0.064 A 
DOCKED: ATOM      3  C   UNL d   1      -4.628  -4.707  -3.828 -0.43 +0.01    +0.064 C 
DOCKED: ATOM      4  C   UNL d   1      -1.262  -7.848  -2.529 -0.50 +0.02    +0.064 C 
DOCKED: ATOM      5  C   UNL d   1      -5.855 -10.746  -2.539 -0.17 +0.05    +0.066 A 
DOCKED: ATOM      6  C   UNL d   1      -7.076 -11.390  -2.430 -0.22 -0.02    -0.021 A 
DOCKED: ATOM      7  C   UNL d   1      -8.041 -10.478  -2.777 -0.23 -0.01    -0.025 A 
DOCKED: ATOM      8  C   UNL d   1      -7.371  -9.310  -3.086 -0.23 +0.03    +0.066 A 
DOCKED: ATOM      9  C   UNL d   1      -9.519 -10.718  -2.790 -0.38 +0.02    +0.051 C 
DOCKED: ATOM     10  C   UNL d   1      -7.410  -6.932  -3.786 -0.41 +0.02    +0.066 A 
DOCKED: ATOM     11  C   UNL d   1      -8.048  -5.814  -4.326 -0.46 -0.00    -0.021 A 
DOCKED: ATOM     12  C   UNL d   1      -7.086  -4.830  -4.436 -0.47 +0.00    +0.000 A 
DOCKED: ATOM     13  C   UNL d   1      -5.896  -5.408  -3.960 -0.38 +0.02    +0.070 A 
DOCKED: ATOM     14  C   UNL d   1      -9.490  -5.709  -4.781 -0.43 +0.01    +0.052 C 
DOCKED: ATOM     15  C   UNL d   1      -3.469  -5.273  -3.419 -0.38 +0.01    +0.066 A 
DOCKED: ATOM     16  C   UNL d   1      -2.302  -4.547  -3.211 -0.40 -0.00    -0.021 A 
DOCKED: ATOM     17  C   UNL d   1      -1.329  -5.452  -2.840 -0.47 +0.00    +0.000 A 
DOCKED: ATOM     18  C   UNL d   1      -1.925  -6.711  -2.834 -0.43 +0.02    +0.070 A 
DOCKED: ATOM     19  C   UNL d   1      -2.101  -3.065  -3.379 -0.35 +0.01    +0.052 C 
DOCKED: ATOM     20  C   UNL d   1      -1.870  -9.182  -2.452 -0.39 +0.02    +0.066 A 
DOCKED: ATOM     21  C   UNL d   1      -1.165 -10.388  -2.336 -0.29 -0.01    -0.025 A 
DOCKED: ATOM     22  C   UNL d   1      -2.121 -11.379  -2.260 -0.30 -0.02    -0.021 A 
DOCKED: ATOM     23  C   UNL d   1      -3.366 -10.743  -2.338 -0.33 +0.05    +0.066 A 
DOCKED: ATOM     24  C   UNL d   1       0.330 -10.607  -2.303 -0.30 +0.02    +0.051 C 
DOCKED: ATOM     25  N   UNL d   1      -6.042  -9.473  -2.931 -0.16 -0.13    -0.248 N 
DOCKED: ATOM     26  N   UNL d   1      -6.091  -6.692  -3.571 -0.14 -0.11    -0.248 N 
DOCKED: ATOM     27  N   UNL d   1      -3.250  -6.597  -3.147 -0.25 -0.07    -0.248 N 
DOCKED: ATOM     28  N   UNL d   1      -3.205  -9.407  -2.501 -0.25 -0.12    -0.248 N 
DOCKED: ATOM     29 FE   UNL d   1      -4.646  -8.049  -3.036 -0.09 +0.00    +0.000 Fe
DOCKED: ENDROOT
DOCKED: BRANCH   6  30
DOCKED: ATOM     30  C   UNL d   1      -7.318 -12.796  -1.996 -0.26 +0.06    +0.052 C 
DOCKED: BRANCH  30  31
DOCKED: ATOM     31  C   UNL d   1      -6.582 -13.094  -0.694 -0.24 +0.15    +0.115 C 
DOCKED: BRANCH  31  32
DOCKED: ATOM     32  C   UNL d   1      -6.342 -14.571  -0.553 -0.15 +0.25    +0.139 C 
DOCKED: ATOM     33  O   UNL d   1      -6.594 -15.335  -1.474 -0.57 -1.28    -0.650 OA
DOCKED: BRANCH  32  34
DOCKED: ATOM     34  O   UNL d   1      -5.847 -15.068   0.594 -0.25 -2.06    -0.776 OA
DOCKED: ATOM     35  H   UNL d   1      -5.906 -16.019   0.758 +0.01 +0.35    +0.167 HD
DOCKED: ENDBRANCH  32  34
DOCKED: ENDBRANCH  31  32
DOCKED: ENDBRANCH  30  31
DOCKED: ENDBRANCH   6  30
DOCKED: BRANCH  22  36
DOCKED: ATOM     36  C   UNL d   1      -1.851 -12.858  -2.166 -0.26 +0.06    +0.052 C 
DOCKED: BRANCH  36  37
DOCKED: ATOM     37  C   UNL d   1      -1.558 -13.415  -3.551 -0.18 +0.15    +0.115 C 
DOCKED: BRANCH  37  38
DOCKED: ATOM     38  C   UNL d   1      -1.274 -14.889  -3.490 -0.16 +0.18    +0.139 C 
DOCKED: ATOM     39  O   UNL d   1      -2.117 -15.672  -3.078 -0.27 -1.36    -0.650 OA
DOCKED: BRANCH  38  40
DOCKED: ATOM     40  O   UNL d   1      -0.079 -15.359  -3.889 +0.06 -0.60    -0.776 OA
DOCKED: ATOM     41  H   UNL d   1       0.449 -15.886  -3.272 +0.03 +0.11    +0.167 HD
DOCKED: ENDBRANCH  38  40
DOCKED: ENDBRANCH  37  38
DOCKED: ENDBRANCH  36  37
DOCKED: ENDBRANCH  22  36
DOCKED: BRANCH  12  42
DOCKED: ATOM     42  C   UNL d   1      -7.324  -3.457  -4.980 -0.64 +0.00    +0.004 C 
DOCKED: ATOM     43  C   UNL d   1      -7.472  -2.408  -4.161 -0.67 +0.00    +0.012 C 
DOCKED: ENDBRANCH  12  42
DOCKED: BRANCH  17  44
DOCKED: ATOM     44  C   UNL d   1       0.074  -5.130  -2.494 -0.55 +0.00    +0.004 C 
DOCKED: ATOM     45  C   UNL d   1       1.024  -5.108  -3.434 -0.64 +0.00    +0.012 C 
DOCKED: ENDBRANCH  17  44
DOCKED: TORSDOF 10
DOCKED: TER
DOCKED: ENDMDL
________________________________________________________________________________


	BEGINNING GENETIC ALGORITHM DOCKING 75 of 100
Run: 75 Seed: 366242309 2136570964 [ Run 75 of 100 GA/GALS ]
Beginning LAMARCKIAN GENETIC ALGORITHM (LGA), with a maximum of 25000000 energy evaluations.

Final-Value: -17.632


	FINAL GENETIC ALGORITHM DOCKED STATE
	_______________________________________________


Detailed state:  trans -5.388 -11.058 -1.963 quatxyzw 0.118629 -0.100948 -0.800348 0.578946 center -0.174 -0.001 -0.047 ntor 10 -15.0570 58.6375 91.5726 24.9128 169.0447 -118.5943 66.1042 -94.8913 -7.9327 -37.0456
State:	 -5.388 -11.058  -1.963   0.145 -0.124 -0.982 109.247    -15.06   58.64   91.57   24.91  169.04 -118.59   66.10  -94.89   -7.93  -37.05

DOCKED: MODEL       75
DOCKED: USER    Run = 75
DOCKED: USER    DPF = D:/Protein_go_brrr/autodock/final/AncA/heme_Fe/dock.dpf
DOCKED: USER  
DOCKED: USER    Estimated Free Energy of Binding    =  -12.58 kcal/mol  [=(1)+(2)+(3)-(4)]
DOCKED: USER    Estimated Inhibition Constant, Ki   =  603.57 pM (picomolar)  [Temperature = 298.15 K]
DOCKED: USER    
DOCKED: USER    (1) Final Intermolecular Energy     =  -15.56 kcal/mol
DOCKED: USER        vdW + Hbond + desolv Energy     =  -11.91 kcal/mol
DOCKED: USER        Electrostatic Energy            =   -3.65 kcal/mol
DOCKED: USER    (2) Final Total Internal Energy     =   -2.07 kcal/mol
DOCKED: USER    (3) Torsional Free Energy           =   +2.98 kcal/mol
DOCKED: USER    (4) Unbound System's Energy  [=(2)] =   -2.07 kcal/mol
DOCKED: USER    
DOCKED: USER    
DOCKED: USER    NEWDPF move heme_Fe_opt.pdbqt
DOCKED: USER    NEWDPF about -0.174000 -0.001000 -0.047000
DOCKED: USER    NEWDPF tran0 -5.387753 -11.058388 -1.962808
DOCKED: USER    NEWDPF quaternion0 0.118629 -0.100948 -0.800348 0.578946
DOCKED: USER    NEWDPF axisangle0 0.145492 -0.123807 -0.981582 109.247047
DOCKED: USER    NEWDPF quat0 0.145492 -0.123807 -0.981582 109.247047
DOCKED: USER    NEWDPF dihe0 -15.06 58.64 91.57 24.91 169.04 -118.59 66.10 -94.89 -7.93 -37.05 
DOCKED: USER  keepresnum = 1 
DOCKED: USER  
DOCKED: REMARK  10 active torsions:
DOCKED: REMARK  status: ('A' for Active; 'I' for Inactive)
DOCKED: REMARK    1  A    between atoms: C_6  and  C_10 
DOCKED: REMARK    2  A    between atoms: C_10  and  C_11 
DOCKED: REMARK    3  A    between atoms: C_11  and  C_12 
DOCKED: REMARK    4  A    between atoms: C_12  and  O_14 
DOCKED: REMARK    5  A    between atoms: C_17  and  C_20 
DOCKED: REMARK    6  A    between atoms: C_24  and  C_27 
DOCKED: REMARK    7  A    between atoms: C_31  and  C_34 
DOCKED: REMARK    8  A    between atoms: C_34  and  C_35 
DOCKED: REMARK    9  A    between atoms: C_35  and  C_36 
DOCKED: REMARK   10  A    between atoms: C_36  and  O_38 
DOCKED: USER                              x       y       z     vdW  Elec       q    Type
DOCKED: USER                           _______ _______ _______ _____ _____    ______ ____
DOCKED: ROOT
DOCKED: ATOM      1  C   UNL d   1      -4.773 -12.669  -0.850 -0.28 +0.10    +0.064 C 
DOCKED: ATOM      2  C   UNL d   1      -2.699  -8.402  -2.236 -0.44 +0.02    +0.064 A 
DOCKED: ATOM      3  C   UNL d   1      -7.047  -6.765  -3.455 -0.45 +0.02    +0.064 C 
DOCKED: ATOM      4  C   UNL d   1      -9.061 -10.924  -2.218 -0.36 +0.03    +0.064 C 
DOCKED: ATOM      5  C   UNL d   1      -3.776 -11.651  -1.205 -0.30 +0.07    +0.066 A 
DOCKED: ATOM      6  C   UNL d   1      -2.405 -11.815  -1.099 -0.28 -0.02    -0.021 A 
DOCKED: ATOM      7  C   UNL d   1      -1.829 -10.629  -1.480 -0.37 -0.01    -0.025 A 
DOCKED: ATOM      8  C   UNL d   1      -2.873  -9.784  -1.806 -0.40 +0.03    +0.066 A 
DOCKED: ATOM      9  C   UNL d   1      -0.361 -10.339  -1.543 -0.36 +0.02    +0.051 C 
DOCKED: ATOM     10  C   UNL d   1      -3.685  -7.585  -2.610 -0.37 +0.02    +0.066 A 
DOCKED: ATOM     11  C   UNL d   1      -3.499  -6.232  -2.907 -0.37 -0.01    -0.021 A 
DOCKED: ATOM     12  C   UNL d   1      -4.741  -5.733  -3.246 -0.42 +0.00    +0.000 A 
DOCKED: ATOM     13  C   UNL d   1      -5.630  -6.816  -3.128 -0.22 +0.03    +0.070 A 
DOCKED: ATOM     14  C   UNL d   1      -2.213  -5.438  -2.807 -0.42 +0.01    +0.052 C 
DOCKED: ATOM     15  C   UNL d   1      -7.917  -7.789  -3.294 -0.41 +0.02    +0.066 A 
DOCKED: ATOM     16  C   UNL d   1      -9.241  -7.733  -3.711 -0.46 -0.00    -0.021 A 
DOCKED: ATOM     17  C   UNL d   1      -9.824  -8.930  -3.352 -0.51 +0.00    +0.000 A 
DOCKED: ATOM     18  C   UNL d   1      -8.842  -9.689  -2.720 -0.36 +0.02    +0.070 A 
DOCKED: ATOM     19  C   UNL d   1      -9.939  -6.590  -4.397 -0.43 +0.01    +0.052 C 
DOCKED: ATOM     20  C   UNL d   1      -8.037 -11.776  -1.602 -0.21 +0.04    +0.066 A 
DOCKED: ATOM     21  C   UNL d   1      -8.286 -12.966  -0.903 -0.20 -0.02    -0.025 A 
DOCKED: ATOM     22  C   UNL d   1      -7.050 -13.453  -0.533 -0.22 -0.03    -0.021 A 
DOCKED: ATOM     23  C   UNL d   1      -6.100 -12.543  -1.013 -0.25 +0.09    +0.066 A 
DOCKED: ATOM     24  C   UNL d   1      -9.614 -13.615  -0.590 -0.20 +0.03    +0.051 C 
DOCKED: ATOM     25  N   UNL d   1      -4.055 -10.412  -1.646 -0.22 -0.17    -0.248 N 
DOCKED: ATOM     26  N   UNL d   1      -4.988  -7.942  -2.733 -0.23 -0.12    -0.248 N 
DOCKED: ATOM     27  N   UNL d   1      -7.658  -9.006  -2.723 -0.12 -0.09    -0.248 N 
DOCKED: ATOM     28  N   UNL d   1      -6.710 -11.499  -1.625 +0.04 -0.21    -0.248 N 
DOCKED: ATOM     29 FE   UNL d   1      -5.851  -9.721  -2.179 -0.08 +0.00    +0.000 Fe
DOCKED: ENDROOT
DOCKED: BRANCH   6  30
DOCKED: ATOM     30  C   UNL d   1      -1.674 -13.044  -0.677 -0.24 +0.05    +0.052 C 
DOCKED: BRANCH  30  31
DOCKED: ATOM     31  C   UNL d   1      -1.545 -14.022  -1.839 -0.17 +0.14    +0.115 C 
DOCKED: BRANCH  31  32
DOCKED: ATOM     32  C   UNL d   1      -2.337 -15.271  -1.566 -0.03 +0.23    +0.139 C 
DOCKED: ATOM     33  O   UNL d   1      -2.530 -16.093  -2.452 -0.26 -1.41    -0.650 OA
DOCKED: BRANCH  32  34
DOCKED: ATOM     34  O   UNL d   1      -2.841 -15.496  -0.341 -0.02 -1.17    -0.776 OA
DOCKED: ATOM     35  H   UNL d   1      -3.522 -16.175  -0.231 +0.02 +0.26    +0.167 HD
DOCKED: ENDBRANCH  32  34
DOCKED: ENDBRANCH  31  32
DOCKED: ENDBRANCH  30  31
DOCKED: ENDBRANCH   6  30
DOCKED: BRANCH  22  36
DOCKED: ATOM     36  C   UNL d   1      -6.801 -14.697   0.278 -0.11 +0.09    +0.052 C 
DOCKED: BRANCH  36  37
DOCKED: ATOM     37  C   UNL d   1      -7.371 -15.906  -0.448 -0.08 +0.14    +0.115 C 
DOCKED: BRANCH  37  38
DOCKED: ATOM     38  C   UNL d   1      -6.397 -16.434  -1.463 -0.00 +0.23    +0.139 C 
DOCKED: ATOM     39  O   UNL d   1      -6.683 -16.459  -2.651 -0.31 -1.20    -0.650 OA
DOCKED: BRANCH  38  40
DOCKED: ATOM     40  O   UNL d   1      -5.195 -16.889  -1.066 -0.07 -1.25    -0.776 OA
DOCKED: ATOM     41  H   UNL d   1      -4.396 -16.481  -1.426 +0.01 +0.35    +0.167 HD
DOCKED: ENDBRANCH  38  40
DOCKED: ENDBRANCH  37  38
DOCKED: ENDBRANCH  36  37
DOCKED: ENDBRANCH  22  36
DOCKED: BRANCH  12  42
DOCKED: ATOM     42  C   UNL d   1      -5.018  -4.314  -3.629 -0.32 +0.00    +0.004 C 
DOCKED: ATOM     43  C   UNL d   1      -5.862  -4.022  -4.626 -0.49 +0.00    +0.012 C 
DOCKED: ENDBRANCH  12  42
DOCKED: BRANCH  17  44
DOCKED: ATOM     44  C   UNL d   1     -11.225  -9.330  -3.616 -0.40 +0.00    +0.004 C 
DOCKED: ATOM     45  C   UNL d   1     -11.597  -9.766  -4.824 -0.56 +0.00    +0.012 C 
DOCKED: ENDBRANCH  17  44
DOCKED: TORSDOF 10
DOCKED: TER
DOCKED: ENDMDL
________________________________________________________________________________


	BEGINNING GENETIC ALGORITHM DOCKING 76 of 100
Run: 76 Seed: 1820001188 1938831322 [ Run 76 of 100 GA/GALS ]
Beginning LAMARCKIAN GENETIC ALGORITHM (LGA), with a maximum of 25000000 energy evaluations.

Final-Value: -20.636


	FINAL GENETIC ALGORITHM DOCKED STATE
	_______________________________________________


Detailed state:  trans -4.967 -9.214 -2.492 quatxyzw 0.699781 0.699504 -0.054964 -0.134088 center -0.174 -0.001 -0.047 ntor 10 65.1799 -91.2723 46.6100 -133.2966 -25.9779 40.8495 62.2827 -28.1251 -17.4156 -3.3525
State:	 -4.967  -9.214  -2.492   0.706  0.706 -0.055 -164.588     65.18  -91.27   46.61 -133.30  -25.98   40.85   62.28  -28.13  -17.42   -3.35

DOCKED: MODEL       76
DOCKED: USER    Run = 76
DOCKED: USER    DPF = D:/Protein_go_brrr/autodock/final/AncA/heme_Fe/dock.dpf
DOCKED: USER  
DOCKED: USER    Estimated Free Energy of Binding    =  -15.72 kcal/mol  [=(1)+(2)+(3)-(4)]
DOCKED: USER    Estimated Inhibition Constant, Ki   =    3.02 pM (picomolar)  [Temperature = 298.15 K]
DOCKED: USER    
DOCKED: USER    (1) Final Intermolecular Energy     =  -18.70 kcal/mol
DOCKED: USER        vdW + Hbond + desolv Energy     =  -14.25 kcal/mol
DOCKED: USER        Electrostatic Energy            =   -4.45 kcal/mol
DOCKED: USER    (2) Final Total Internal Energy     =   -1.94 kcal/mol
DOCKED: USER    (3) Torsional Free Energy           =   +2.98 kcal/mol
DOCKED: USER    (4) Unbound System's Energy  [=(2)] =   -1.94 kcal/mol
DOCKED: USER    
DOCKED: USER    
DOCKED: USER    NEWDPF move heme_Fe_opt.pdbqt
DOCKED: USER    NEWDPF about -0.174000 -0.001000 -0.047000
DOCKED: USER    NEWDPF tran0 -4.967012 -9.214448 -2.491947
DOCKED: USER    NEWDPF quaternion0 0.699781 0.699504 -0.054964 -0.134088
DOCKED: USER    NEWDPF axisangle0 0.706158 0.705879 -0.055465 -164.588221
DOCKED: USER    NEWDPF quat0 0.706158 0.705879 -0.055465 -164.588221
DOCKED: USER    NEWDPF dihe0 65.18 -91.27 46.61 -133.30 -25.98 40.85 62.28 -28.13 -17.42 -3.35 
DOCKED: USER  keepresnum = 1 
DOCKED: USER  
DOCKED: REMARK  10 active torsions:
DOCKED: REMARK  status: ('A' for Active; 'I' for Inactive)
DOCKED: REMARK    1  A    between atoms: C_6  and  C_10 
DOCKED: REMARK    2  A    between atoms: C_10  and  C_11 
DOCKED: REMARK    3  A    between atoms: C_11  and  C_12 
DOCKED: REMARK    4  A    between atoms: C_12  and  O_14 
DOCKED: REMARK    5  A    between atoms: C_17  and  C_20 
DOCKED: REMARK    6  A    between atoms: C_24  and  C_27 
DOCKED: REMARK    7  A    between atoms: C_31  and  C_34 
DOCKED: REMARK    8  A    between atoms: C_34  and  C_35 
DOCKED: REMARK    9  A    between atoms: C_35  and  C_36 
DOCKED: REMARK   10  A    between atoms: C_36  and  O_38 
DOCKED: USER                              x       y       z     vdW  Elec       q    Type
DOCKED: USER                           _______ _______ _______ _____ _____    ______ ____
DOCKED: ROOT
DOCKED: ATOM      1  C   UNL d   1      -4.997 -11.266  -2.484 -0.36 +0.07    +0.064 C 
DOCKED: ATOM      2  C   UNL d   1      -8.267  -7.742  -3.633 -0.43 +0.02    +0.064 A 
DOCKED: ATOM      3  C   UNL d   1      -4.683  -4.546  -3.733 -0.36 +0.01    +0.064 C 
DOCKED: ATOM      4  C   UNL d   1      -1.517  -7.921  -2.518 -0.51 +0.02    +0.064 C 
DOCKED: ATOM      5  C   UNL d   1      -6.262 -10.555  -2.716 -0.18 +0.04    +0.066 A 
DOCKED: ATOM      6  C   UNL d   1      -7.518 -11.134  -2.651 -0.19 -0.01    -0.021 A 
DOCKED: ATOM      7  C   UNL d   1      -8.426 -10.156  -2.974 -0.29 -0.01    -0.025 A 
DOCKED: ATOM      8  C   UNL d   1      -7.687  -9.015  -3.223 -0.34 +0.02    +0.066 A 
DOCKED: ATOM      9  C   UNL d   1      -9.915 -10.312  -3.018 -0.44 +0.01    +0.051 C 
DOCKED: ATOM     10  C   UNL d   1      -7.583  -6.613  -3.824 -0.42 +0.02    +0.066 A 
DOCKED: ATOM     11  C   UNL d   1      -8.150  -5.439  -4.326 -0.46 -0.00    -0.021 A 
DOCKED: ATOM     12  C   UNL d   1      -7.133  -4.506  -4.380 -0.48 +0.00    +0.000 A 
DOCKED: ATOM     13  C   UNL d   1      -5.985  -5.169  -3.912 -0.39 +0.02    +0.070 A 
DOCKED: ATOM     14  C   UNL d   1      -9.576  -5.235  -4.797 -0.49 +0.01    +0.052 C 
DOCKED: ATOM     15  C   UNL d   1      -3.563  -5.192  -3.331 -0.37 +0.01    +0.066 A 
DOCKED: ATOM     16  C   UNL d   1      -2.362  -4.542  -3.076 -0.38 -0.00    -0.021 A 
DOCKED: ATOM     17  C   UNL d   1      -1.447  -5.514  -2.729 -0.46 +0.00    +0.000 A 
DOCKED: ATOM     18  C   UNL d   1      -2.111  -6.737  -2.785 -0.42 +0.02    +0.070 A 
DOCKED: ATOM     19  C   UNL d   1      -2.076  -3.068  -3.179 -0.30 +0.01    +0.052 C 
DOCKED: ATOM     20  C   UNL d   1      -2.199  -9.221  -2.506 -0.39 +0.03    +0.066 A 
DOCKED: ATOM     21  C   UNL d   1      -1.563 -10.468  -2.431 -0.23 -0.01    -0.025 A 
DOCKED: ATOM     22  C   UNL d   1      -2.574 -11.407  -2.410 -0.31 -0.02    -0.021 A 
DOCKED: ATOM     23  C   UNL d   1      -3.780 -10.699  -2.479 -0.34 +0.05    +0.066 A 
DOCKED: ATOM     24  C   UNL d   1      -0.084 -10.772  -2.385 -0.28 +0.02    +0.051 C 
DOCKED: ATOM     25  N   UNL d   1      -6.372  -9.259  -3.056 -0.18 -0.12    -0.248 N 
DOCKED: ATOM     26  N   UNL d   1      -6.257  -6.455  -3.580 -0.24 -0.10    -0.248 N 
DOCKED: ATOM     27  N   UNL d   1      -3.423  -6.536  -3.112 -0.25 -0.07    -0.248 N 
DOCKED: ATOM     28  N   UNL d   1      -3.544  -9.369  -2.583 -0.24 -0.12    -0.248 N 
DOCKED: ATOM     29 FE   UNL d   1      -4.898  -7.912  -3.082 -0.09 +0.00    +0.000 Fe
DOCKED: ENDROOT
DOCKED: BRANCH   6  30
DOCKED: ATOM     30  C   UNL d   1      -7.845 -12.540  -2.281 -0.27 +0.04    +0.052 C 
DOCKED: BRANCH  30  31
DOCKED: ATOM     31  C   UNL d   1      -7.632 -12.769  -0.788 -0.22 +0.11    +0.115 C 
DOCKED: BRANCH  31  32
DOCKED: ATOM     32  C   UNL d   1      -6.564 -13.804  -0.562 -0.20 +0.21    +0.139 C 
DOCKED: ATOM     33  O   UNL d   1      -6.333 -14.656  -1.408 -0.41 -1.43    -0.650 OA
DOCKED: BRANCH  32  34
DOCKED: ATOM     34  O   UNL d   1      -5.851 -13.800   0.577 -0.14 -1.79    -0.776 OA
DOCKED: ATOM     35  H   UNL d   1      -4.902 -13.618   0.536 +0.05 +0.40    +0.167 HD
DOCKED: ENDBRANCH  32  34
DOCKED: ENDBRANCH  31  32
DOCKED: ENDBRANCH  30  31
DOCKED: ENDBRANCH   6  30
DOCKED: BRANCH  22  36
DOCKED: ATOM     36  C   UNL d   1      -2.387 -12.901  -2.374 -0.17 +0.08    +0.052 C 
DOCKED: BRANCH  36  37
DOCKED: ATOM     37  C   UNL d   1      -2.420 -13.388  -0.933 -0.21 +0.15    +0.115 C 
DOCKED: BRANCH  37  38
DOCKED: ATOM     38  C   UNL d   1      -2.932 -14.798  -0.853 -0.14 +0.24    +0.139 C 
DOCKED: ATOM     39  O   UNL d   1      -2.591 -15.635  -1.675 -0.09 -1.21    -0.650 OA
DOCKED: BRANCH  38  40
DOCKED: ATOM     40  O   UNL d   1      -3.779 -15.149   0.131 -0.23 -1.55    -0.776 OA
DOCKED: ATOM     41  H   UNL d   1      -4.731 -15.041  -0.007 +0.02 +0.39    +0.167 HD
DOCKED: ENDBRANCH  38  40
DOCKED: ENDBRANCH  37  38
DOCKED: ENDBRANCH  36  37
DOCKED: ENDBRANCH  22  36
DOCKED: BRANCH  12  42
DOCKED: ATOM     42  C   UNL d   1      -7.285  -3.101  -4.870 -0.67 +0.00    +0.004 C 
DOCKED: ATOM     43  C   UNL d   1      -7.525  -2.097  -4.017 -0.62 +0.00    +0.012 C 
DOCKED: ENDBRANCH  12  42
DOCKED: BRANCH  17  44
DOCKED: ATOM     44  C   UNL d   1      -0.034  -5.285  -2.350 -0.50 +0.00    +0.004 C 
DOCKED: ATOM     45  C   UNL d   1       0.900  -5.071  -3.282 -0.63 +0.00    +0.012 C 
DOCKED: ENDBRANCH  17  44
DOCKED: TORSDOF 10
DOCKED: TER
DOCKED: ENDMDL
________________________________________________________________________________


	BEGINNING GENETIC ALGORITHM DOCKING 77 of 100
Run: 77 Seed: 527516208 1115165877 [ Run 77 of 100 GA/GALS ]
Beginning LAMARCKIAN GENETIC ALGORITHM (LGA), with a maximum of 25000000 energy evaluations.

Final-Value: -17.098


	FINAL GENETIC ALGORITHM DOCKED STATE
	_______________________________________________


Detailed state:  trans -5.536 -11.046 -2.009 quatxyzw -0.122123 0.093143 0.782902 -0.602889 center -0.174 -0.001 -0.047 ntor 10 164.6068 23.9266 99.6745 41.4261 -83.0963 19.5482 -6.2947 -80.3904 -18.7177 7.8504
State:	 -5.536 -11.046  -2.009  -0.153  0.117  0.981 -105.846    164.61   23.93   99.67   41.43  -83.10   19.55   -6.29  -80.39  -18.72    7.85

DOCKED: MODEL       77
DOCKED: USER    Run = 77
DOCKED: USER    DPF = D:/Protein_go_brrr/autodock/final/AncA/heme_Fe/dock.dpf
DOCKED: USER  
DOCKED: USER    Estimated Free Energy of Binding    =  -11.90 kcal/mol  [=(1)+(2)+(3)-(4)]
DOCKED: USER    Estimated Inhibition Constant, Ki   =    1.91 nM (nanomolar)  [Temperature = 298.15 K]
DOCKED: USER    
DOCKED: USER    (1) Final Intermolecular Energy     =  -14.88 kcal/mol
DOCKED: USER        vdW + Hbond + desolv Energy     =  -11.65 kcal/mol
DOCKED: USER        Electrostatic Energy            =   -3.23 kcal/mol
DOCKED: USER    (2) Final Total Internal Energy     =   -2.22 kcal/mol
DOCKED: USER    (3) Torsional Free Energy           =   +2.98 kcal/mol
DOCKED: USER    (4) Unbound System's Energy  [=(2)] =   -2.22 kcal/mol
DOCKED: USER    
DOCKED: USER    
DOCKED: USER    NEWDPF move heme_Fe_opt.pdbqt
DOCKED: USER    NEWDPF about -0.174000 -0.001000 -0.047000
DOCKED: USER    NEWDPF tran0 -5.535533 -11.045509 -2.009421
DOCKED: USER    NEWDPF quaternion0 -0.122123 0.093143 0.782902 -0.602889
DOCKED: USER    NEWDPF axisangle0 -0.153070 0.116746 0.981295 -105.845778
DOCKED: USER    NEWDPF quat0 -0.153070 0.116746 0.981295 -105.845778
DOCKED: USER    NEWDPF dihe0 164.61 23.93 99.67 41.43 -83.10 19.55 -6.29 -80.39 -18.72 7.85 
DOCKED: USER  keepresnum = 1 
DOCKED: USER  
DOCKED: REMARK  10 active torsions:
DOCKED: REMARK  status: ('A' for Active; 'I' for Inactive)
DOCKED: REMARK    1  A    between atoms: C_6  and  C_10 
DOCKED: REMARK    2  A    between atoms: C_10  and  C_11 
DOCKED: REMARK    3  A    between atoms: C_11  and  C_12 
DOCKED: REMARK    4  A    between atoms: C_12  and  O_14 
DOCKED: REMARK    5  A    between atoms: C_17  and  C_20 
DOCKED: REMARK    6  A    between atoms: C_24  and  C_27 
DOCKED: REMARK    7  A    between atoms: C_31  and  C_34 
DOCKED: REMARK    8  A    between atoms: C_34  and  C_35 
DOCKED: REMARK    9  A    between atoms: C_35  and  C_36 
DOCKED: REMARK   10  A    between atoms: C_36  and  O_38 
DOCKED: USER                              x       y       z     vdW  Elec       q    Type
DOCKED: USER                           _______ _______ _______ _____ _____    ______ ____
DOCKED: ROOT
DOCKED: ATOM      1  C   UNL d   1      -5.039 -12.700  -0.901 -0.29 +0.10    +0.064 C 
DOCKED: ATOM      2  C   UNL d   1      -2.697  -8.542  -2.190 -0.44 +0.02    +0.064 A 
DOCKED: ATOM      3  C   UNL d   1      -6.916  -6.651  -3.491 -0.44 +0.02    +0.064 C 
DOCKED: ATOM      4  C   UNL d   1      -9.188 -10.703  -2.349 -0.38 +0.02    +0.064 C 
DOCKED: ATOM      5  C   UNL d   1      -3.978 -11.735  -1.221 -0.29 +0.07    +0.066 A 
DOCKED: ATOM      6  C   UNL d   1      -2.621 -11.977  -1.085 -0.28 -0.02    -0.021 A 
DOCKED: ATOM      7  C   UNL d   1      -1.971 -10.821  -1.439 -0.35 -0.02    -0.025 A 
DOCKED: ATOM      8  C   UNL d   1      -2.958  -9.916  -1.779 -0.39 +0.04    +0.066 A 
DOCKED: ATOM      9  C   UNL d   1      -0.488 -10.614  -1.465 -0.39 +0.02    +0.051 C 
DOCKED: ATOM     10  C   UNL d   1      -3.626  -7.667  -2.578 -0.37 +0.02    +0.066 A 
DOCKED: ATOM     11  C   UNL d   1      -3.358  -6.324  -2.855 -0.36 -0.01    -0.021 A 
DOCKED: ATOM     12  C   UNL d   1      -4.562  -5.752  -3.217 -0.42 +0.00    +0.000 A 
DOCKED: ATOM     13  C   UNL d   1      -5.513  -6.784  -3.133 -0.21 +0.03    +0.070 A 
DOCKED: ATOM     14  C   UNL d   1      -2.033  -5.604  -2.716 -0.44 +0.01    +0.052 C 
DOCKED: ATOM     15  C   UNL d   1      -7.846  -7.627  -3.363 -0.41 +0.02    +0.066 A 
DOCKED: ATOM     16  C   UNL d   1      -9.154  -7.492  -3.809 -0.45 -0.00    -0.021 A 
DOCKED: ATOM     17  C   UNL d   1      -9.812  -8.658  -3.478 -0.52 +0.00    +0.000 A 
DOCKED: ATOM     18  C   UNL d   1      -8.889  -9.477  -2.832 -0.37 +0.02    +0.070 A 
DOCKED: ATOM     19  C   UNL d   1      -9.771  -6.305  -4.499 -0.39 +0.01    +0.052 C 
DOCKED: ATOM     20  C   UNL d   1      -8.228 -11.617  -1.719 -0.21 +0.04    +0.066 A 
DOCKED: ATOM     21  C   UNL d   1      -8.560 -12.798  -1.039 -0.22 -0.02    -0.025 A 
DOCKED: ATOM     22  C   UNL d   1      -7.362 -13.357  -0.646 -0.21 -0.02    -0.021 A 
DOCKED: ATOM     23  C   UNL d   1      -6.352 -12.497  -1.093 -0.24 +0.08    +0.066 A 
DOCKED: ATOM     24  C   UNL d   1      -9.930 -13.375  -0.765 -0.21 +0.03    +0.051 C 
DOCKED: ATOM     25  N   UNL d   1      -4.177 -10.478  -1.655 -0.22 -0.18    -0.248 N 
DOCKED: ATOM     26  N   UNL d   1      -4.945  -7.949  -2.735 -0.23 -0.12    -0.248 N 
DOCKED: ATOM     27  N   UNL d   1      -7.669  -8.862  -2.799 -0.15 -0.09    -0.248 N 
DOCKED: ATOM     28  N   UNL d   1      -6.888 -11.415  -1.708 +0.03 -0.20    -0.248 N 
DOCKED: ATOM     29 FE   UNL d   1      -5.918  -9.683  -2.221 -0.08 +0.00    +0.000 Fe
DOCKED: ENDROOT
DOCKED: BRANCH   6  30
DOCKED: ATOM     30  C   UNL d   1      -1.970 -13.249  -0.660 -0.23 +0.06    +0.052 C 
DOCKED: BRANCH  30  31
DOCKED: ATOM     31  C   UNL d   1      -2.105 -14.313  -1.743 -0.13 +0.18    +0.115 C 
DOCKED: BRANCH  31  32
DOCKED: ATOM     32  C   UNL d   1      -1.319 -15.541  -1.375 -0.10 +0.15    +0.139 C 
DOCKED: ATOM     33  O   UNL d   1      -0.119 -15.605  -1.604 +0.03 -0.47    -0.650 OA
DOCKED: BRANCH  32  34
DOCKED: ATOM     34  O   UNL d   1      -1.932 -16.584  -0.790 +0.02 -0.81    -0.776 OA
DOCKED: ATOM     35  H   UNL d   1      -2.812 -16.457  -0.407 +0.02 +0.22    +0.167 HD
DOCKED: ENDBRANCH  32  34
DOCKED: ENDBRANCH  31  32
DOCKED: ENDBRANCH  30  31
DOCKED: ENDBRANCH   6  30
DOCKED: BRANCH  22  36
DOCKED: ATOM     36  C   UNL d   1      -7.203 -14.621   0.157 -0.15 +0.07    +0.052 C 
DOCKED: BRANCH  36  37
DOCKED: ATOM     37  C   UNL d   1      -6.740 -15.751  -0.751 -0.10 +0.17    +0.115 C 
DOCKED: BRANCH  37  38
DOCKED: ATOM     38  C   UNL d   1      -5.255 -15.953  -0.645 -0.10 +0.27    +0.139 C 
DOCKED: ATOM     39  O   UNL d   1      -4.633 -15.530   0.319 -0.43 -1.53    -0.650 OA
DOCKED: BRANCH  38  40
DOCKED: ATOM     40  O   UNL d   1      -4.595 -16.603  -1.620 +0.13 -1.70    -0.776 OA
DOCKED: ATOM     41  H   UNL d   1      -3.751 -17.029  -1.413 +0.01 +0.27    +0.167 HD
DOCKED: ENDBRANCH  38  40
DOCKED: ENDBRANCH  37  38
DOCKED: ENDBRANCH  36  37
DOCKED: ENDBRANCH  22  36
DOCKED: BRANCH  12  42
DOCKED: ATOM     42  C   UNL d   1      -4.750  -4.316  -3.590 -0.28 +0.00    +0.004 C 
DOCKED: ATOM     43  C   UNL d   1      -5.671  -3.954  -4.493 -0.48 +0.00    +0.012 C 
DOCKED: ENDBRANCH  12  42
DOCKED: BRANCH  17  44
DOCKED: ATOM     44  C   UNL d   1     -11.226  -8.977  -3.778 -0.39 +0.00    +0.004 C 
DOCKED: ATOM     45  C   UNL d   1     -11.554  -9.678  -4.868 -0.56 +0.00    +0.012 C 
DOCKED: ENDBRANCH  17  44
DOCKED: TORSDOF 10
DOCKED: TER
DOCKED: ENDMDL
________________________________________________________________________________


	BEGINNING GENETIC ALGORITHM DOCKING 78 of 100
Run: 78 Seed: 1576492595 298899806 [ Run 78 of 100 GA/GALS ]
Beginning LAMARCKIAN GENETIC ALGORITHM (LGA), with a maximum of 25000000 energy evaluations.

Final-Value: -20.282


	FINAL GENETIC ALGORITHM DOCKED STATE
	_______________________________________________


Detailed state:  trans -4.881 -9.232 -3.242 quatxyzw -0.084147 0.015229 0.677522 -0.730514 center -0.174 -0.001 -0.047 ntor 10 78.0677 -22.2933 72.5532 -108.1826 133.4489 -178.3311 -22.1854 45.3194 -180.0000 140.9628
State:	 -4.881  -9.232  -3.242  -0.123  0.022  0.992 -86.141     78.07  -22.29   72.55 -108.18  133.45 -178.33  -22.19   45.32 -180.00  140.96

DOCKED: MODEL       78
DOCKED: USER    Run = 78
DOCKED: USER    DPF = D:/Protein_go_brrr/autodock/final/AncA/heme_Fe/dock.dpf
DOCKED: USER  
DOCKED: USER    Estimated Free Energy of Binding    =  -15.46 kcal/mol  [=(1)+(2)+(3)-(4)]
DOCKED: USER    Estimated Inhibition Constant, Ki   =    4.66 pM (picomolar)  [Temperature = 298.15 K]
DOCKED: USER    
DOCKED: USER    (1) Final Intermolecular Energy     =  -18.44 kcal/mol
DOCKED: USER        vdW + Hbond + desolv Energy     =  -14.13 kcal/mol
DOCKED: USER        Electrostatic Energy            =   -4.31 kcal/mol
DOCKED: USER    (2) Final Total Internal Energy     =   -1.84 kcal/mol
DOCKED: USER    (3) Torsional Free Energy           =   +2.98 kcal/mol
DOCKED: USER    (4) Unbound System's Energy  [=(2)] =   -1.84 kcal/mol
DOCKED: USER    
DOCKED: USER    
DOCKED: USER    NEWDPF move heme_Fe_opt.pdbqt
DOCKED: USER    NEWDPF about -0.174000 -0.001000 -0.047000
DOCKED: USER    NEWDPF tran0 -4.880948 -9.232265 -3.242299
DOCKED: USER    NEWDPF quaternion0 -0.084147 0.015229 0.677522 -0.730514
DOCKED: USER    NEWDPF axisangle0 -0.123220 0.022301 0.992129 -86.140938
DOCKED: USER    NEWDPF quat0 -0.123220 0.022301 0.992129 -86.140938
DOCKED: USER    NEWDPF dihe0 78.07 -22.29 72.55 -108.18 133.45 -178.33 -22.19 45.32 -180.00 140.96 
DOCKED: USER  keepresnum = 1 
DOCKED: USER  
DOCKED: REMARK  10 active torsions:
DOCKED: REMARK  status: ('A' for Active; 'I' for Inactive)
DOCKED: REMARK    1  A    between atoms: C_6  and  C_10 
DOCKED: REMARK    2  A    between atoms: C_10  and  C_11 
DOCKED: REMARK    3  A    between atoms: C_11  and  C_12 
DOCKED: REMARK    4  A    between atoms: C_12  and  O_14 
DOCKED: REMARK    5  A    between atoms: C_17  and  C_20 
DOCKED: REMARK    6  A    between atoms: C_24  and  C_27 
DOCKED: REMARK    7  A    between atoms: C_31  and  C_34 
DOCKED: REMARK    8  A    between atoms: C_34  and  C_35 
DOCKED: REMARK    9  A    between atoms: C_35  and  C_36 
DOCKED: REMARK   10  A    between atoms: C_36  and  O_38 
DOCKED: USER                              x       y       z     vdW  Elec       q    Type
DOCKED: USER                           _______ _______ _______ _____ _____    ______ ____
DOCKED: ROOT
DOCKED: ATOM      1  C   UNL d   1      -5.033 -11.116  -2.442 -0.36 +0.06    +0.064 C 
DOCKED: ATOM      2  C   UNL d   1      -1.417  -7.763  -2.791 -0.43 +0.02    +0.064 A 
DOCKED: ATOM      3  C   UNL d   1      -4.697  -4.447  -3.938 -0.40 +0.01    +0.064 C 
DOCKED: ATOM      4  C   UNL d   1      -8.198  -7.699  -3.709 -0.49 +0.02    +0.064 C 
DOCKED: ATOM      5  C   UNL d   1      -3.701 -10.498  -2.516 -0.34 +0.05    +0.066 A 
DOCKED: ATOM      6  C   UNL d   1      -2.505 -11.177  -2.354 -0.32 -0.02    -0.021 A 
DOCKED: ATOM      7  C   UNL d   1      -1.501 -10.245  -2.447 -0.25 -0.01    -0.025 A 
DOCKED: ATOM      8  C   UNL d   1      -2.125  -9.031  -2.663 -0.39 +0.03    +0.066 A 
DOCKED: ATOM      9  C   UNL d   1      -0.031 -10.517  -2.353 -0.30 +0.02    +0.051 C 
DOCKED: ATOM     10  C   UNL d   1      -1.990  -6.588  -3.056 -0.42 +0.02    +0.066 A 
DOCKED: ATOM     11  C   UNL d   1      -1.300  -5.373  -3.059 -0.46 -0.00    -0.021 A 
DOCKED: ATOM     12  C   UNL d   1      -2.227  -4.399  -3.371 -0.41 +0.00    +0.000 A 
DOCKED: ATOM     13  C   UNL d   1      -3.448  -5.075  -3.535 -0.38 +0.01    +0.070 A 
DOCKED: ATOM     14  C   UNL d   1       0.157  -5.143  -2.714 -0.60 +0.01    +0.052 C 
DOCKED: ATOM     15  C   UNL d   1      -5.886  -5.085  -4.047 -0.39 +0.01    +0.066 A 
DOCKED: ATOM     16  C   UNL d   1      -7.035  -4.472  -4.530 -0.46 -0.00    -0.021 A 
DOCKED: ATOM     17  C   UNL d   1      -8.047  -5.407  -4.462 -0.47 +0.00    +0.000 A 
DOCKED: ATOM     18  C   UNL d   1      -7.492  -6.570  -3.933 -0.42 +0.02    +0.070 A 
DOCKED: ATOM     19  C   UNL d   1      -7.184  -3.055  -5.015 -0.62 +0.01    +0.052 C 
DOCKED: ATOM     20  C   UNL d   1      -7.635  -8.960  -3.212 -0.34 +0.02    +0.066 A 
DOCKED: ATOM     21  C   UNL d   1      -8.382 -10.069  -2.787 -0.31 -0.01    -0.025 A 
DOCKED: ATOM     22  C   UNL d   1      -7.459 -11.035  -2.442 -0.15 -0.01    -0.021 A 
DOCKED: ATOM     23  C   UNL d   1      -6.194 -10.479  -2.663 -0.09 +0.04    +0.066 A 
DOCKED: ATOM     24  C   UNL d   1      -9.883 -10.219  -2.702 -0.46 +0.01    +0.051 C 
DOCKED: ATOM     25  N   UNL d   1      -3.462  -9.190  -2.713 -0.25 -0.11    -0.248 N 
DOCKED: ATOM     26  N   UNL d   1      -3.306  -6.408  -3.335 -0.25 -0.07    -0.248 N 
DOCKED: ATOM     27  N   UNL d   1      -6.154  -6.387  -3.719 -0.21 -0.10    -0.248 N 
DOCKED: ATOM     28  N   UNL d   1      -6.307  -9.198  -3.090 -0.21 -0.12    -0.248 N 
DOCKED: ATOM     29 FE   UNL d   1      -4.809  -7.803  -3.212 -0.09 +0.00    +0.000 Fe
DOCKED: ENDROOT
DOCKED: BRANCH   6  30
DOCKED: ATOM     30  C   UNL d   1      -2.320 -12.641  -2.143 -0.27 +0.07    +0.052 C 
DOCKED: BRANCH  30  31
DOCKED: ATOM     31  C   UNL d   1      -2.315 -12.976  -0.655 -0.18 +0.13    +0.115 C 
DOCKED: BRANCH  31  32
DOCKED: ATOM     32  C   UNL d   1      -2.668 -14.422  -0.440 -0.15 +0.21    +0.139 C 
DOCKED: ATOM     33  O   UNL d   1      -2.008 -15.118   0.318 -0.03 -0.79    -0.650 OA
DOCKED: BRANCH  32  34
DOCKED: ATOM     34  O   UNL d   1      -3.717 -14.962  -1.082 +0.12 -1.76    -0.776 OA
DOCKED: ATOM     35  H   UNL d   1      -4.547 -15.091  -0.601 +0.02 +0.37    +0.167 HD
DOCKED: ENDBRANCH  32  34
DOCKED: ENDBRANCH  31  32
DOCKED: ENDBRANCH  30  31
DOCKED: ENDBRANCH   6  30
DOCKED: BRANCH  22  36
DOCKED: ATOM     36  C   UNL d   1      -7.779 -12.397  -1.886 -0.27 +0.04    +0.052 C 
DOCKED: BRANCH  36  37
DOCKED: ATOM     37  C   UNL d   1      -7.101 -12.573  -0.535 -0.23 +0.12    +0.115 C 
DOCKED: BRANCH  37  38
DOCKED: ATOM     38  C   UNL d   1      -6.452 -13.924  -0.430 -0.19 +0.23    +0.139 C 
DOCKED: ATOM     39  O   UNL d   1      -5.879 -14.264   0.595 -0.21 -1.68    -0.650 OA
DOCKED: BRANCH  38  40
DOCKED: ATOM     40  O   UNL d   1      -6.494 -14.772  -1.472 -0.43 -1.63    -0.776 OA
DOCKED: ATOM     41  H   UNL d   1      -5.828 -15.471  -1.537 +0.05 +0.47    +0.167 HD
DOCKED: ENDBRANCH  38  40
DOCKED: ENDBRANCH  37  38
DOCKED: ENDBRANCH  36  37
DOCKED: ENDBRANCH  22  36
DOCKED: BRANCH  12  42
DOCKED: ATOM     42  C   UNL d   1      -1.930  -2.936  -3.475 -0.44 +0.00    +0.004 C 
DOCKED: ATOM     43  C   UNL d   1      -2.143  -2.270  -4.617 -0.59 +0.00    +0.012 C 
DOCKED: ENDBRANCH  12  42
DOCKED: BRANCH  17  44
DOCKED: ATOM     44  C   UNL d   1      -9.449  -5.207  -4.894 -0.39 +0.00    +0.004 C 
DOCKED: ATOM     45  C   UNL d   1     -10.172  -4.187  -4.420 -0.66 +0.00    +0.012 C 
DOCKED: ENDBRANCH  17  44
DOCKED: TORSDOF 10
DOCKED: TER
DOCKED: ENDMDL
________________________________________________________________________________


	BEGINNING GENETIC ALGORITHM DOCKING 79 of 100
Run: 79 Seed: 394984579 1175021339 [ Run 79 of 100 GA/GALS ]
Beginning LAMARCKIAN GENETIC ALGORITHM (LGA), with a maximum of 25000000 energy evaluations.

Final-Value: -13.101


	FINAL GENETIC ALGORITHM DOCKED STATE
	_______________________________________________


Detailed state:  trans -0.922 -15.176 -2.526 quatxyzw -0.661664 -0.194163 -0.263216 0.674699 center -0.174 -0.001 -0.047 ntor 10 -89.6207 -146.2468 54.1824 -114.9974 -171.8412 -88.9379 65.2518 -152.8793 -179.9657 -19.9540
State:	 -0.922 -15.176  -2.526  -0.896 -0.263 -0.357 95.138    -89.62 -146.25   54.18 -115.00 -171.84  -88.94   65.25 -152.88 -179.97  -19.95

DOCKED: MODEL       79
DOCKED: USER    Run = 79
DOCKED: USER    DPF = D:/Protein_go_brrr/autodock/final/AncA/heme_Fe/dock.dpf
DOCKED: USER  
DOCKED: USER    Estimated Free Energy of Binding    =   -9.48 kcal/mol  [=(1)+(2)+(3)-(4)]
DOCKED: USER    Estimated Inhibition Constant, Ki   =  112.51 nM (nanomolar)  [Temperature = 298.15 K]
DOCKED: USER    
DOCKED: USER    (1) Final Intermolecular Energy     =  -12.46 kcal/mol
DOCKED: USER        vdW + Hbond + desolv Energy     =   -7.75 kcal/mol
DOCKED: USER        Electrostatic Energy            =   -4.72 kcal/mol
DOCKED: USER    (2) Final Total Internal Energy     =   -0.64 kcal/mol
DOCKED: USER    (3) Torsional Free Energy           =   +2.98 kcal/mol
DOCKED: USER    (4) Unbound System's Energy  [=(2)] =   -0.64 kcal/mol
DOCKED: USER    
DOCKED: USER    
DOCKED: USER    NEWDPF move heme_Fe_opt.pdbqt
DOCKED: USER    NEWDPF about -0.174000 -0.001000 -0.047000
DOCKED: USER    NEWDPF tran0 -0.921652 -15.175612 -2.526385
DOCKED: USER    NEWDPF quaternion0 -0.661664 -0.194163 -0.263216 0.674699
DOCKED: USER    NEWDPF axisangle0 -0.896451 -0.263060 -0.356617 95.138385
DOCKED: USER    NEWDPF quat0 -0.896451 -0.263060 -0.356617 95.138385
DOCKED: USER    NEWDPF dihe0 -89.62 -146.25 54.18 -115.00 -171.84 -88.94 65.25 -152.88 -179.97 -19.95 
DOCKED: USER  keepresnum = 1 
DOCKED: USER  
DOCKED: REMARK  10 active torsions:
DOCKED: REMARK  status: ('A' for Active; 'I' for Inactive)
DOCKED: REMARK    1  A    between atoms: C_6  and  C_10 
DOCKED: REMARK    2  A    between atoms: C_10  and  C_11 
DOCKED: REMARK    3  A    between atoms: C_11  and  C_12 
DOCKED: REMARK    4  A    between atoms: C_12  and  O_14 
DOCKED: REMARK    5  A    between atoms: C_17  and  C_20 
DOCKED: REMARK    6  A    between atoms: C_24  and  C_27 
DOCKED: REMARK    7  A    between atoms: C_31  and  C_34 
DOCKED: REMARK    8  A    between atoms: C_34  and  C_35 
DOCKED: REMARK    9  A    between atoms: C_35  and  C_36 
DOCKED: REMARK   10  A    between atoms: C_36  and  O_38 
DOCKED: USER                              x       y       z     vdW  Elec       q    Type
DOCKED: USER                           _______ _______ _______ _____ _____    ______ ____
DOCKED: ROOT
DOCKED: ATOM      1  C   UNL d   1      -2.148 -16.808  -2.730 -0.03 +0.10    +0.064 C 
DOCKED: ATOM      2  C   UNL d   1       0.931 -14.372  -5.733 -0.31 +0.03    +0.064 A 
DOCKED: ATOM      3  C   UNL d   1       2.848 -12.208  -1.898 -0.20 +0.02    +0.064 C 
DOCKED: ATOM      4  C   UNL d   1      -0.193 -14.476   1.017 -0.14 +0.04    +0.064 C 
DOCKED: ATOM      5  C   UNL d   1      -1.516 -16.261  -3.938 -0.11 +0.09    +0.066 A 
DOCKED: ATOM      6  C   UNL d   1      -1.890 -16.569  -5.236 -0.06 -0.03    -0.021 A 
DOCKED: ATOM      7  C   UNL d   1      -1.032 -15.895  -6.069 -0.25 -0.02    -0.025 A 
DOCKED: ATOM      8  C   UNL d   1      -0.166 -15.200  -5.247 -0.24 +0.05    +0.066 A 
DOCKED: ATOM      9  C   UNL d   1      -1.063 -15.909  -7.567 -0.33 +0.03    +0.051 C 
DOCKED: ATOM     10  C   UNL d   1       1.744 -13.646  -4.964 -0.25 +0.03    +0.066 A 
DOCKED: ATOM     11  C   UNL d   1       2.856 -12.954  -5.449 -0.34 -0.01    -0.021 A 
DOCKED: ATOM     12  C   UNL d   1       3.436 -12.335  -4.360 -0.26 +0.00    +0.000 A 
DOCKED: ATOM     13  C   UNL d   1       2.645 -12.692  -3.254 -0.16 +0.02    +0.070 A 
DOCKED: ATOM     14  C   UNL d   1       3.381 -12.939  -6.870 -0.48 +0.02    +0.052 C 
DOCKED: ATOM     15  C   UNL d   1       2.121 -12.589  -0.821 -0.15 +0.02    +0.066 A 
DOCKED: ATOM     16  C   UNL d   1       2.281 -12.029   0.439 -0.27 -0.01    -0.021 A 
DOCKED: ATOM     17  C   UNL d   1       1.408 -12.684   1.283 -0.24 +0.00    +0.000 A 
DOCKED: ATOM     18  C   UNL d   1       0.736 -13.633   0.515 -0.14 +0.04    +0.070 A 
DOCKED: ATOM     19  C   UNL d   1       3.236 -10.938   0.845 -0.10 +0.01    +0.052 C 
DOCKED: ATOM     20  C   UNL d   1      -0.964 -15.445   0.228 -0.10 +0.06    +0.066 A 
DOCKED: ATOM     21  C   UNL d   1      -1.778 -16.455   0.759 -0.09 -0.02    -0.025 A 
DOCKED: ATOM     22  C   UNL d   1      -2.335 -17.099  -0.327 -0.06 -0.02    -0.021 A 
DOCKED: ATOM     23  C   UNL d   1      -1.837 -16.464  -1.470 -0.07 +0.08    +0.066 A 
DOCKED: ATOM     24  C   UNL d   1      -2.022 -16.807   2.208 -0.08 +0.05    +0.051 C 
DOCKED: ATOM     25  N   UNL d   1      -0.469 -15.417  -3.951 -0.09 -0.22    -0.248 N 
DOCKED: ATOM     26  N   UNL d   1       1.618 -13.498  -3.621 -0.09 -0.11    -0.248 N 
DOCKED: ATOM     27  N   UNL d   1       1.142 -13.546  -0.787 -0.05 -0.11    -0.248 N 
DOCKED: ATOM     28  N   UNL d   1      -0.966 -15.485  -1.126 -0.05 -0.23    -0.248 N 
DOCKED: ATOM     29 FE   UNL d   1       0.326 -14.491  -2.371 -0.02 +0.00    +0.000 Fe
DOCKED: ENDROOT
DOCKED: BRANCH   6  30
DOCKED: ATOM     30  C   UNL d   1      -3.019 -17.443  -5.665 -0.14 +0.07    +0.052 C 
DOCKED: BRANCH  30  31
DOCKED: ATOM     31  C   UNL d   1      -2.555 -18.887  -5.820 -0.10 +0.12    +0.115 C 
DOCKED: BRANCH  31  32
DOCKED: ATOM     32  C   UNL d   1      -2.648 -19.318  -7.258 -0.05 +0.20    +0.139 C 
DOCKED: ATOM     33  O   UNL d   1      -2.462 -20.485  -7.572 -0.10 -0.88    -0.650 OA
DOCKED: BRANCH  32  34
DOCKED: ATOM     34  O   UNL d   1      -2.937 -18.419  -8.214 -0.50 -1.52    -0.776 OA
DOCKED: ATOM     35  H   UNL d   1      -2.212 -17.951  -8.653 +0.06 +0.20    +0.167 HD
DOCKED: ENDBRANCH  32  34
DOCKED: ENDBRANCH  31  32
DOCKED: ENDBRANCH  30  31
DOCKED: ENDBRANCH   6  30
DOCKED: BRANCH  22  36
DOCKED: ATOM     36  C   UNL d   1      -3.256 -18.290  -0.266 -0.03 +0.04    +0.052 C 
DOCKED: BRANCH  36  37
DOCKED: ATOM     37  C   UNL d   1      -4.654 -17.837   0.129 -0.05 +0.12    +0.115 C 
DOCKED: BRANCH  37  38
DOCKED: ATOM     38  C   UNL d   1      -4.890 -16.407  -0.267 -0.11 +0.24    +0.139 C 
DOCKED: ATOM     39  O   UNL d   1      -4.605 -15.493   0.492 -0.32 -1.65    -0.650 OA
DOCKED: BRANCH  38  40
DOCKED: ATOM     40  O   UNL d   1      -5.424 -16.123  -1.469 -0.15 -1.86    -0.776 OA
DOCKED: ATOM     41  H   UNL d   1      -6.071 -16.732  -1.851 +0.01 +0.30    +0.167 HD
DOCKED: ENDBRANCH  38  40
DOCKED: ENDBRANCH  37  38
DOCKED: ENDBRANCH  36  37
DOCKED: ENDBRANCH  22  36
DOCKED: BRANCH  12  42
DOCKED: ATOM     42  C   UNL d   1       4.668 -11.488  -4.412 -0.39 +0.00    +0.004 C 
DOCKED: ATOM     43  C   UNL d   1       4.588 -10.152  -4.380 -0.52 +0.00    +0.012 C 
DOCKED: ENDBRANCH  12  42
DOCKED: BRANCH  17  44
DOCKED: ATOM     44  C   UNL d   1       1.213 -12.405   2.724 -0.31 +0.00    +0.004 C 
DOCKED: ATOM     45  C   UNL d   1       2.222 -12.544   3.590 -0.28 +0.00    +0.012 C 
DOCKED: ENDBRANCH  17  44
DOCKED: TORSDOF 10
DOCKED: TER
DOCKED: ENDMDL
________________________________________________________________________________


	BEGINNING GENETIC ALGORITHM DOCKING 80 of 100
Run: 80 Seed: 1655699309 846886221 [ Run 80 of 100 GA/GALS ]
Beginning LAMARCKIAN GENETIC ALGORITHM (LGA), with a maximum of 25000000 energy evaluations.

Final-Value: -19.224


	FINAL GENETIC ALGORITHM DOCKED STATE
	_______________________________________________


Detailed state:  trans -4.708 -9.333 -2.379 quatxyzw -0.680655 -0.714804 0.068871 0.144986 center -0.174 -0.001 -0.047 ntor 10 89.9848 12.8018 53.3654 -142.5225 152.1462 -87.6761 45.5201 -8.6725 -34.1046 180.0000
State:	 -4.708  -9.333  -2.379  -0.688 -0.722  0.070 163.327     89.98   12.80   53.37 -142.52  152.15  -87.68   45.52   -8.67  -34.10  180.00

DOCKED: MODEL       80
DOCKED: USER    Run = 80
DOCKED: USER    DPF = D:/Protein_go_brrr/autodock/final/AncA/heme_Fe/dock.dpf
DOCKED: USER  
DOCKED: USER    Estimated Free Energy of Binding    =  -15.81 kcal/mol  [=(1)+(2)+(3)-(4)]
DOCKED: USER    Estimated Inhibition Constant, Ki   =    2.57 pM (picomolar)  [Temperature = 298.15 K]
DOCKED: USER    
DOCKED: USER    (1) Final Intermolecular Energy     =  -18.79 kcal/mol
DOCKED: USER        vdW + Hbond + desolv Energy     =  -14.71 kcal/mol
DOCKED: USER        Electrostatic Energy            =   -4.08 kcal/mol
DOCKED: USER    (2) Final Total Internal Energy     =   -0.43 kcal/mol
DOCKED: USER    (3) Torsional Free Energy           =   +2.98 kcal/mol
DOCKED: USER    (4) Unbound System's Energy  [=(2)] =   -0.43 kcal/mol
DOCKED: USER    
DOCKED: USER    
DOCKED: USER    NEWDPF move heme_Fe_opt.pdbqt
DOCKED: USER    NEWDPF about -0.174000 -0.001000 -0.047000
DOCKED: USER    NEWDPF tran0 -4.707945 -9.333430 -2.378990
DOCKED: USER    NEWDPF quaternion0 -0.680655 -0.714804 0.068871 0.144986
DOCKED: USER    NEWDPF axisangle0 -0.687924 -0.722438 0.069606 163.327048
DOCKED: USER    NEWDPF quat0 -0.687924 -0.722438 0.069606 163.327048
DOCKED: USER    NEWDPF dihe0 89.98 12.80 53.37 -142.52 152.15 -87.68 45.52 -8.67 -34.10 180.00 
DOCKED: USER  keepresnum = 1 
DOCKED: USER  
DOCKED: REMARK  10 active torsions:
DOCKED: REMARK  status: ('A' for Active; 'I' for Inactive)
DOCKED: REMARK    1  A    between atoms: C_6  and  C_10 
DOCKED: REMARK    2  A    between atoms: C_10  and  C_11 
DOCKED: REMARK    3  A    between atoms: C_11  and  C_12 
DOCKED: REMARK    4  A    between atoms: C_12  and  O_14 
DOCKED: REMARK    5  A    between atoms: C_17  and  C_20 
DOCKED: REMARK    6  A    between atoms: C_24  and  C_27 
DOCKED: REMARK    7  A    between atoms: C_31  and  C_34 
DOCKED: REMARK    8  A    between atoms: C_34  and  C_35 
DOCKED: REMARK    9  A    between atoms: C_35  and  C_36 
DOCKED: REMARK   10  A    between atoms: C_36  and  O_38 
DOCKED: USER                              x       y       z     vdW  Elec       q    Type
DOCKED: USER                           _______ _______ _______ _____ _____    ______ ____
DOCKED: ROOT
DOCKED: ATOM      1  C   UNL d   1      -4.644 -11.383  -2.293 -0.36 +0.07    +0.064 C 
DOCKED: ATOM      2  C   UNL d   1      -8.082  -8.057  -3.537 -0.42 +0.02    +0.064 A 
DOCKED: ATOM      3  C   UNL d   1      -4.650  -4.708  -3.799 -0.42 +0.01    +0.064 C 
DOCKED: ATOM      4  C   UNL d   1      -1.322  -7.887  -2.493 -0.51 +0.02    +0.064 C 
DOCKED: ATOM      5  C   UNL d   1      -5.942 -10.739  -2.538 -0.14 +0.05    +0.066 A 
DOCKED: ATOM      6  C   UNL d   1      -7.170 -11.372  -2.437 -0.22 -0.02    -0.021 A 
DOCKED: ATOM      7  C   UNL d   1      -8.124 -10.448  -2.786 -0.25 -0.01    -0.025 A 
DOCKED: ATOM      8  C   UNL d   1      -7.441  -9.286  -3.087 -0.24 +0.03    +0.066 A 
DOCKED: ATOM      9  C   UNL d   1      -9.605 -10.674  -2.807 -0.39 +0.02    +0.051 C 
DOCKED: ATOM     10  C   UNL d   1      -7.453  -6.906  -3.779 -0.41 +0.02    +0.066 A 
DOCKED: ATOM     11  C   UNL d   1      -8.078  -5.779  -4.319 -0.46 -0.00    -0.021 A 
DOCKED: ATOM     12  C   UNL d   1      -7.105  -4.805  -4.420 -0.47 +0.00    +0.000 A 
DOCKED: ATOM     13  C   UNL d   1      -5.924  -5.396  -3.939 -0.38 +0.02    +0.070 A 
DOCKED: ATOM     14  C   UNL d   1      -9.516  -5.659  -4.781 -0.44 +0.01    +0.052 C 
DOCKED: ATOM     15  C   UNL d   1      -3.498  -5.287  -3.386 -0.38 +0.01    +0.066 A 
DOCKED: ATOM     16  C   UNL d   1      -2.325  -4.573  -3.169 -0.39 -0.00    -0.021 A 
DOCKED: ATOM     17  C   UNL d   1      -1.363  -5.489  -2.796 -0.47 +0.00    +0.000 A 
DOCKED: ATOM     18  C   UNL d   1      -1.971  -6.742  -2.798 -0.42 +0.02    +0.070 A 
DOCKED: ATOM     19  C   UNL d   1      -2.109  -3.093  -3.331 -0.34 +0.01    +0.052 C 
DOCKED: ATOM     20  C   UNL d   1      -1.943  -9.215  -2.425 -0.40 +0.03    +0.066 A 
DOCKED: ATOM     21  C   UNL d   1      -1.250 -10.428  -2.309 -0.31 -0.01    -0.025 A 
DOCKED: ATOM     22  C   UNL d   1      -2.217 -11.410  -2.241 -0.31 -0.02    -0.021 A 
DOCKED: ATOM     23  C   UNL d   1      -3.454 -10.761  -2.323 -0.33 +0.05    +0.066 A 
DOCKED: ATOM     24  C   UNL d   1       0.242 -10.662  -2.268 -0.32 +0.02    +0.051 C 
DOCKED: ATOM     25  N   UNL d   1      -6.114  -9.463  -2.925 -0.15 -0.13    -0.248 N 
DOCKED: ATOM     26  N   UNL d   1      -6.133  -6.679  -3.557 -0.17 -0.11    -0.248 N 
DOCKED: ATOM     27  N   UNL d   1      -3.294  -6.614  -3.117 -0.25 -0.07    -0.248 N 
DOCKED: ATOM     28  N   UNL d   1      -3.280  -9.427  -2.481 -0.25 -0.12    -0.248 N 
DOCKED: ATOM     29 FE   UNL d   1      -4.705  -8.053  -3.018 -0.09 +0.00    +0.000 Fe
DOCKED: ENDROOT
DOCKED: BRANCH   6  30
DOCKED: ATOM     30  C   UNL d   1      -7.428 -12.776  -2.009 -0.26 +0.05    +0.052 C 
DOCKED: BRANCH  30  31
DOCKED: ATOM     31  C   UNL d   1      -6.813 -13.046  -0.641 -0.24 +0.14    +0.115 C 
DOCKED: BRANCH  31  32
DOCKED: ATOM     32  C   UNL d   1      -6.079 -14.359  -0.644 -0.16 +0.26    +0.139 C 
DOCKED: ATOM     33  O   UNL d   1      -5.131 -14.545   0.106 -0.51 -1.57    -0.650 OA
DOCKED: BRANCH  32  34
DOCKED: ATOM     34  O   UNL d   1      -6.461 -15.343  -1.476 -0.52 -1.63    -0.776 OA
DOCKED: ATOM     35  H   UNL d   1      -7.120 -15.983  -1.174 +0.02 +0.23    +0.167 HD
DOCKED: ENDBRANCH  32  34
DOCKED: ENDBRANCH  31  32
DOCKED: ENDBRANCH  30  31
DOCKED: ENDBRANCH   6  30
DOCKED: BRANCH  22  36
DOCKED: ATOM     36  C   UNL d   1      -1.961 -12.891  -2.151 -0.26 +0.06    +0.052 C 
DOCKED: BRANCH  36  37
DOCKED: ATOM     37  C   UNL d   1      -1.708 -13.454  -3.542 -0.17 +0.16    +0.115 C 
DOCKED: BRANCH  37  38
DOCKED: ATOM     38  C   UNL d   1      -1.225 -14.875  -3.469 -0.16 +0.18    +0.139 C 
DOCKED: ATOM     39  O   UNL d   1      -0.034 -15.125  -3.354 +0.03 -0.50    -0.650 OA
DOCKED: BRANCH  38  40
DOCKED: ATOM     40  O   UNL d   1      -2.107 -15.888  -3.533 -0.34 -1.60    -0.776 OA
DOCKED: ATOM     41  H   UNL d   1      -1.815 -16.781  -3.304 +0.02 +0.23    +0.167 HD
DOCKED: ENDBRANCH  38  40
DOCKED: ENDBRANCH  37  38
DOCKED: ENDBRANCH  36  37
DOCKED: ENDBRANCH  22  36
DOCKED: BRANCH  12  42
DOCKED: ATOM     42  C   UNL d   1      -7.326  -3.428  -4.960 -0.64 +0.00    +0.004 C 
DOCKED: ATOM     43  C   UNL d   1      -7.471  -2.380  -4.139 -0.66 +0.00    +0.012 C 
DOCKED: ENDBRANCH  12  42
DOCKED: BRANCH  17  44
DOCKED: ATOM     44  C   UNL d   1       0.041  -5.181  -2.441 -0.53 +0.00    +0.004 C 
DOCKED: ATOM     45  C   UNL d   1       0.991  -5.142  -3.381 -0.63 +0.00    +0.012 C 
DOCKED: ENDBRANCH  17  44
DOCKED: TORSDOF 10
DOCKED: TER
DOCKED: ENDMDL
________________________________________________________________________________


	BEGINNING GENETIC ALGORITHM DOCKING 81 of 100
Run: 81 Seed: 279681776 918856605 [ Run 81 of 100 GA/GALS ]
Beginning LAMARCKIAN GENETIC ALGORITHM (LGA), with a maximum of 25000000 energy evaluations.

Final-Value: -19.550


	FINAL GENETIC ALGORITHM DOCKED STATE
	_______________________________________________


Detailed state:  trans -5.327 -8.872 -3.299 quatxyzw -0.096972 0.019818 0.646258 -0.756674 center -0.174 -0.001 -0.047 ntor 10 -165.6463 72.2070 76.5747 -129.9709 55.1505 -125.8918 -31.8847 41.6407 -163.3524 -151.4506
State:	 -5.327  -8.872  -3.299  -0.148  0.030  0.988 -81.656   -165.65   72.21   76.57 -129.97   55.15 -125.89  -31.88   41.64 -163.35 -151.45

DOCKED: MODEL       81
DOCKED: USER    Run = 81
DOCKED: USER    DPF = D:/Protein_go_brrr/autodock/final/AncA/heme_Fe/dock.dpf
DOCKED: USER  
DOCKED: USER    Estimated Free Energy of Binding    =  -15.05 kcal/mol  [=(1)+(2)+(3)-(4)]
DOCKED: USER    Estimated Inhibition Constant, Ki   =    9.31 pM (picomolar)  [Temperature = 298.15 K]
DOCKED: USER    
DOCKED: USER    (1) Final Intermolecular Energy     =  -18.03 kcal/mol
DOCKED: USER        vdW + Hbond + desolv Energy     =  -14.81 kcal/mol
DOCKED: USER        Electrostatic Energy            =   -3.22 kcal/mol
DOCKED: USER    (2) Final Total Internal Energy     =   -1.52 kcal/mol
DOCKED: USER    (3) Torsional Free Energy           =   +2.98 kcal/mol
DOCKED: USER    (4) Unbound System's Energy  [=(2)] =   -1.52 kcal/mol
DOCKED: USER    
DOCKED: USER    
DOCKED: USER    NEWDPF move heme_Fe_opt.pdbqt
DOCKED: USER    NEWDPF about -0.174000 -0.001000 -0.047000
DOCKED: USER    NEWDPF tran0 -5.327332 -8.872402 -3.298998
DOCKED: USER    NEWDPF quaternion0 -0.096972 0.019818 0.646258 -0.756674
DOCKED: USER    NEWDPF axisangle0 -0.148322 0.030313 0.988474 -81.656361
DOCKED: USER    NEWDPF quat0 -0.148322 0.030313 0.988474 -81.656361
DOCKED: USER    NEWDPF dihe0 -165.65 72.21 76.57 -129.97 55.15 -125.89 -31.88 41.64 -163.35 -151.45 
DOCKED: USER  keepresnum = 1 
DOCKED: USER  
DOCKED: REMARK  10 active torsions:
DOCKED: REMARK  status: ('A' for Active; 'I' for Inactive)
DOCKED: REMARK    1  A    between atoms: C_6  and  C_10 
DOCKED: REMARK    2  A    between atoms: C_10  and  C_11 
DOCKED: REMARK    3  A    between atoms: C_11  and  C_12 
DOCKED: REMARK    4  A    between atoms: C_12  and  O_14 
DOCKED: REMARK    5  A    between atoms: C_17  and  C_20 
DOCKED: REMARK    6  A    between atoms: C_24  and  C_27 
DOCKED: REMARK    7  A    between atoms: C_31  and  C_34 
DOCKED: REMARK    8  A    between atoms: C_34  and  C_35 
DOCKED: REMARK    9  A    between atoms: C_35  and  C_36 
DOCKED: REMARK   10  A    between atoms: C_36  and  O_38 
DOCKED: USER                              x       y       z     vdW  Elec       q    Type
DOCKED: USER                           _______ _______ _______ _____ _____    ______ ____
DOCKED: ROOT
DOCKED: ATOM      1  C   UNL d   1      -5.645 -10.719  -2.463 -0.22 +0.05    +0.064 C 
DOCKED: ATOM      2  C   UNL d   1      -1.763  -7.680  -2.817 -0.44 +0.02    +0.064 A 
DOCKED: ATOM      3  C   UNL d   1      -4.743  -4.135  -4.090 -0.34 +0.01    +0.064 C 
DOCKED: ATOM      4  C   UNL d   1      -8.501  -7.085  -3.855 -0.48 +0.02    +0.064 C 
DOCKED: ATOM      5  C   UNL d   1      -4.266 -10.214  -2.525 -0.34 +0.04    +0.066 A 
DOCKED: ATOM      6  C   UNL d   1      -3.132 -10.984  -2.329 -0.35 -0.02    -0.021 A 
DOCKED: ATOM      7  C   UNL d   1      -2.055 -10.139  -2.424 -0.33 -0.01    -0.025 A 
DOCKED: ATOM      8  C   UNL d   1      -2.573  -8.883  -2.675 -0.39 +0.03    +0.066 A 
DOCKED: ATOM      9  C   UNL d   1      -0.614 -10.527  -2.298 -0.34 +0.02    +0.051 C 
DOCKED: ATOM     10  C   UNL d   1      -2.233  -6.468  -3.117 -0.41 +0.02    +0.066 A 
DOCKED: ATOM     11  C   UNL d   1      -1.447  -5.314  -3.133 -0.46 -0.00    -0.021 A 
DOCKED: ATOM     12  C   UNL d   1      -2.286  -4.274  -3.481 -0.41 +0.00    +0.000 A 
DOCKED: ATOM     13  C   UNL d   1      -3.556  -4.853  -3.653 -0.37 +0.01    +0.070 A 
DOCKED: ATOM     14  C   UNL d   1       0.019  -5.195  -2.768 -0.59 +0.01    +0.052 C 
DOCKED: ATOM     15  C   UNL d   1      -5.978  -4.676  -4.207 -0.39 +0.01    +0.066 A 
DOCKED: ATOM     16  C   UNL d   1      -7.065  -3.983  -4.723 -0.49 -0.00    -0.021 A 
DOCKED: ATOM     17  C   UNL d   1      -8.151  -4.831  -4.653 -0.48 +0.00    +0.000 A 
DOCKED: ATOM     18  C   UNL d   1      -7.701  -6.023  -4.091 -0.42 +0.02    +0.070 A 
DOCKED: ATOM     19  C   UNL d   1      -7.091  -2.569  -5.240 -0.54 +0.01    +0.052 C 
DOCKED: ATOM     20  C   UNL d   1      -8.051  -8.377  -3.323 -0.40 +0.02    +0.066 A 
DOCKED: ATOM     21  C   UNL d   1      -8.891  -9.411  -2.888 -0.41 -0.01    -0.025 A 
DOCKED: ATOM     22  C   UNL d   1      -8.057 -10.442  -2.507 -0.15 -0.01    -0.021 A 
DOCKED: ATOM     23  C   UNL d   1      -6.746  -9.995  -2.717 +0.10 +0.04    +0.066 A 
DOCKED: ATOM     24  C   UNL d   1     -10.401  -9.437  -2.826 -0.54 +0.01    +0.051 C 
DOCKED: ATOM     25  N   UNL d   1      -3.919  -8.934  -2.746 -0.24 -0.11    -0.248 N 
DOCKED: ATOM     26  N   UNL d   1      -3.526  -6.188  -3.422 -0.25 -0.06    -0.248 N 
DOCKED: ATOM     27  N   UNL d   1      -6.356  -5.945  -3.857 -0.25 -0.08    -0.248 N 
DOCKED: ATOM     28  N   UNL d   1      -6.748  -8.719  -3.172 -0.24 -0.11    -0.248 N 
DOCKED: ATOM     29 FE   UNL d   1      -5.139  -7.453  -3.298 -0.09 +0.00    +0.000 Fe
DOCKED: ENDROOT
DOCKED: BRANCH   6  30
DOCKED: ATOM     30  C   UNL d   1      -3.071 -12.453  -2.084 -0.15 +0.08    +0.052 C 
DOCKED: BRANCH  30  31
DOCKED: ATOM     31  C   UNL d   1      -3.521 -12.784  -0.665 -0.09 +0.17    +0.115 C 
DOCKED: BRANCH  31  32
DOCKED: ATOM     32  C   UNL d   1      -4.191 -14.129  -0.626 -0.12 +0.29    +0.139 C 
DOCKED: ATOM     33  O   UNL d   1      -3.617 -15.123  -1.047 +0.02 -1.41    -0.650 OA
DOCKED: BRANCH  32  34
DOCKED: ATOM     34  O   UNL d   1      -5.431 -14.251  -0.124 -0.44 -1.68    -0.776 OA
DOCKED: ATOM     35  H   UNL d   1      -5.963 -13.454   0.013 +0.04 +0.29    +0.167 HD
DOCKED: ENDBRANCH  32  34
DOCKED: ENDBRANCH  31  32
DOCKED: ENDBRANCH  30  31
DOCKED: ENDBRANCH   6  30
DOCKED: BRANCH  22  36
DOCKED: ATOM     36  C   UNL d   1      -8.495 -11.761  -1.928 -0.30 +0.03    +0.052 C 
DOCKED: BRANCH  36  37
DOCKED: ATOM     37  C   UNL d   1      -9.379 -11.520  -0.713 -0.34 +0.06    +0.115 C 
DOCKED: BRANCH  37  38
DOCKED: ATOM     38  C   UNL d   1      -9.058 -12.492   0.387 -0.28 +0.10    +0.139 C 
DOCKED: ATOM     39  O   UNL d   1      -9.935 -13.181   0.888 -0.51 -0.43    -0.650 OA
DOCKED: BRANCH  38  40
DOCKED: ATOM     40  O   UNL d   1      -7.795 -12.608   0.833 -0.32 -0.83    -0.776 OA
DOCKED: ATOM     41  H   UNL d   1      -7.290 -13.403   0.614 +0.06 +0.22    +0.167 HD
DOCKED: ENDBRANCH  38  40
DOCKED: ENDBRANCH  37  38
DOCKED: ENDBRANCH  36  37
DOCKED: ENDBRANCH  22  36
DOCKED: BRANCH  12  42
DOCKED: ATOM     42  C   UNL d   1      -1.869  -2.844  -3.611 -0.48 +0.00    +0.004 C 
DOCKED: ATOM     43  C   UNL d   1      -2.082  -2.164  -4.745 -0.60 +0.00    +0.012 C 
DOCKED: ENDBRANCH  12  42
DOCKED: BRANCH  17  44
DOCKED: ATOM     44  C   UNL d   1      -9.525  -4.527  -5.114 -0.31 +0.00    +0.004 C 
DOCKED: ATOM     45  C   UNL d   1     -10.328  -3.735  -4.396 -0.71 +0.00    +0.012 C 
DOCKED: ENDBRANCH  17  44
DOCKED: TORSDOF 10
DOCKED: TER
DOCKED: ENDMDL
________________________________________________________________________________


	BEGINNING GENETIC ALGORITHM DOCKING 82 of 100
Run: 82 Seed: 1105302827 1715251468 [ Run 82 of 100 GA/GALS ]
Beginning LAMARCKIAN GENETIC ALGORITHM (LGA), with a maximum of 25000000 energy evaluations.

Final-Value: -20.283


	FINAL GENETIC ALGORITHM DOCKED STATE
	_______________________________________________


Detailed state:  trans -4.991 -9.261 -3.224 quatxyzw -0.075557 -0.003521 0.666872 -0.741324 center -0.174 -0.001 -0.047 ntor 10 -172.1437 -12.2827 67.6730 -102.8867 54.9072 163.1493 -18.8515 64.7674 -175.1015 161.8359
State:	 -4.991  -9.261  -3.224  -0.113 -0.005  0.994 -84.311   -172.14  -12.28   67.67 -102.89   54.91  163.15  -18.85   64.77 -175.10  161.84

DOCKED: MODEL       82
DOCKED: USER    Run = 82
DOCKED: USER    DPF = D:/Protein_go_brrr/autodock/final/AncA/heme_Fe/dock.dpf
DOCKED: USER  
DOCKED: USER    Estimated Free Energy of Binding    =  -15.27 kcal/mol  [=(1)+(2)+(3)-(4)]
DOCKED: USER    Estimated Inhibition Constant, Ki   =    6.42 pM (picomolar)  [Temperature = 298.15 K]
DOCKED: USER    
DOCKED: USER    (1) Final Intermolecular Energy     =  -18.25 kcal/mol
DOCKED: USER        vdW + Hbond + desolv Energy     =  -14.33 kcal/mol
DOCKED: USER        Electrostatic Energy            =   -3.93 kcal/mol
DOCKED: USER    (2) Final Total Internal Energy     =   -2.03 kcal/mol
DOCKED: USER    (3) Torsional Free Energy           =   +2.98 kcal/mol
DOCKED: USER    (4) Unbound System's Energy  [=(2)] =   -2.03 kcal/mol
DOCKED: USER    
DOCKED: USER    
DOCKED: USER    NEWDPF move heme_Fe_opt.pdbqt
DOCKED: USER    NEWDPF about -0.174000 -0.001000 -0.047000
DOCKED: USER    NEWDPF tran0 -4.990652 -9.260607 -3.224027
DOCKED: USER    NEWDPF quaternion0 -0.075557 -0.003521 0.666872 -0.741324
DOCKED: USER    NEWDPF axisangle0 -0.112578 -0.005246 0.993629 -84.311426
DOCKED: USER    NEWDPF quat0 -0.112578 -0.005246 0.993629 -84.311426
DOCKED: USER    NEWDPF dihe0 -172.14 -12.28 67.67 -102.89 54.91 163.15 -18.85 64.77 -175.10 161.84 
DOCKED: USER  keepresnum = 1 
DOCKED: USER  
DOCKED: REMARK  10 active torsions:
DOCKED: REMARK  status: ('A' for Active; 'I' for Inactive)
DOCKED: REMARK    1  A    between atoms: C_6  and  C_10 
DOCKED: REMARK    2  A    between atoms: C_10  and  C_11 
DOCKED: REMARK    3  A    between atoms: C_11  and  C_12 
DOCKED: REMARK    4  A    between atoms: C_12  and  O_14 
DOCKED: REMARK    5  A    between atoms: C_17  and  C_20 
DOCKED: REMARK    6  A    between atoms: C_24  and  C_27 
DOCKED: REMARK    7  A    between atoms: C_31  and  C_34 
DOCKED: REMARK    8  A    between atoms: C_34  and  C_35 
DOCKED: REMARK    9  A    between atoms: C_35  and  C_36 
DOCKED: REMARK   10  A    between atoms: C_36  and  O_38 
DOCKED: USER                              x       y       z     vdW  Elec       q    Type
DOCKED: USER                           _______ _______ _______ _____ _____    ______ ____
DOCKED: ROOT
DOCKED: ATOM      1  C   UNL d   1      -5.208 -11.169  -2.502 -0.36 +0.06    +0.064 C 
DOCKED: ATOM      2  C   UNL d   1      -1.498  -7.907  -2.655 -0.44 +0.02    +0.064 A 
DOCKED: ATOM      3  C   UNL d   1      -4.665  -4.459  -3.726 -0.33 +0.01    +0.064 C 
DOCKED: ATOM      4  C   UNL d   1      -8.256  -7.619  -3.687 -0.49 +0.02    +0.064 C 
DOCKED: ATOM      5  C   UNL d   1      -3.859 -10.586  -2.528 -0.34 +0.05    +0.066 A 
DOCKED: ATOM      6  C   UNL d   1      -2.684 -11.304  -2.373 -0.32 -0.02    -0.021 A 
DOCKED: ATOM      7  C   UNL d   1      -1.655 -10.397  -2.411 -0.26 -0.01    -0.025 A 
DOCKED: ATOM      8  C   UNL d   1      -2.241  -9.159  -2.589 -0.39 +0.03    +0.066 A 
DOCKED: ATOM      9  C   UNL d   1      -0.195 -10.713  -2.302 -0.33 +0.02    +0.051 C 
DOCKED: ATOM     10  C   UNL d   1      -2.033  -6.706  -2.883 -0.42 +0.02    +0.066 A 
DOCKED: ATOM     11  C   UNL d   1      -1.311  -5.512  -2.826 -0.46 -0.00    -0.021 A 
DOCKED: ATOM     12  C   UNL d   1      -2.206  -4.501  -3.114 -0.41 +0.00    +0.000 A 
DOCKED: ATOM     13  C   UNL d   1      -3.441  -5.136  -3.327 -0.37 +0.01    +0.070 A 
DOCKED: ATOM     14  C   UNL d   1       0.145  -5.336  -2.447 -0.44 +0.00    +0.052 C 
DOCKED: ATOM     15  C   UNL d   1      -5.869  -5.059  -3.881 -0.39 +0.01    +0.066 A 
DOCKED: ATOM     16  C   UNL d   1      -6.991  -4.396  -4.359 -0.46 -0.00    -0.021 A 
DOCKED: ATOM     17  C   UNL d   1      -8.029  -5.304  -4.346 -0.48 +0.00    +0.000 A 
DOCKED: ATOM     18  C   UNL d   1      -7.515  -6.502  -3.854 -0.41 +0.02    +0.070 A 
DOCKED: ATOM     19  C   UNL d   1      -7.094  -2.957  -4.789 -0.63 +0.01    +0.052 C 
DOCKED: ATOM     20  C   UNL d   1      -7.737  -8.914  -3.230 -0.35 +0.02    +0.066 A 
DOCKED: ATOM     21  C   UNL d   1      -8.520 -10.017  -2.863 -0.33 -0.01    -0.025 A 
DOCKED: ATOM     22  C   UNL d   1      -7.631 -11.021  -2.541 -0.19 -0.01    -0.021 A 
DOCKED: ATOM     23  C   UNL d   1      -6.347 -10.493  -2.718 -0.16 +0.04    +0.066 A 
DOCKED: ATOM     24  C   UNL d   1     -10.026 -10.129  -2.810 -0.47 +0.01    +0.051 C 
DOCKED: ATOM     25  N   UNL d   1      -3.582  -9.279  -2.669 -0.24 -0.12    -0.248 N 
DOCKED: ATOM     26  N   UNL d   1      -3.339  -6.480  -3.177 -0.25 -0.07    -0.248 N 
DOCKED: ATOM     27  N   UNL d   1      -6.178  -6.365  -3.609 -0.24 -0.10    -0.248 N 
DOCKED: ATOM     28  N   UNL d   1      -6.418  -9.193  -3.095 -0.21 -0.12    -0.248 N 
DOCKED: ATOM     29 FE   UNL d   1      -4.880  -7.836  -3.136 -0.09 +0.00    +0.000 Fe
DOCKED: ENDROOT
DOCKED: BRANCH   6  30
DOCKED: ATOM     30  C   UNL d   1      -2.543 -12.780  -2.216 -0.20 +0.08    +0.052 C 
DOCKED: BRANCH  30  31
DOCKED: ATOM     31  C   UNL d   1      -2.695 -13.185  -0.754 -0.17 +0.16    +0.115 C 
DOCKED: BRANCH  31  32
DOCKED: ATOM     32  C   UNL d   1      -3.009 -14.651  -0.645 -0.17 +0.24    +0.139 C 
DOCKED: ATOM     33  O   UNL d   1      -2.282 -15.485  -1.166 -0.03 -0.95    -0.650 OA
DOCKED: BRANCH  32  34
DOCKED: ATOM     34  O   UNL d   1      -4.098 -15.060   0.029 -0.30 -1.66    -0.776 OA
DOCKED: ATOM     35  H   UNL d   1      -4.732 -14.399   0.341 +0.03 +0.44    +0.167 HD
DOCKED: ENDBRANCH  32  34
DOCKED: ENDBRANCH  31  32
DOCKED: ENDBRANCH  30  31
DOCKED: ENDBRANCH   6  30
DOCKED: BRANCH  22  36
DOCKED: ATOM     36  C   UNL d   1      -7.998 -12.395  -2.045 -0.27 +0.04    +0.052 C 
DOCKED: BRANCH  36  37
DOCKED: ATOM     37  C   UNL d   1      -7.811 -12.463  -0.536 -0.21 +0.10    +0.115 C 
DOCKED: BRANCH  37  38
DOCKED: ATOM     38  C   UNL d   1      -6.740 -13.451  -0.170 -0.22 +0.20    +0.139 C 
DOCKED: ATOM     39  O   UNL d   1      -6.228 -13.435   0.940 -0.02 -1.38    -0.650 OA
DOCKED: BRANCH  38  40
DOCKED: ATOM     40  O   UNL d   1      -6.334 -14.365  -1.069 -0.32 -1.47    -0.776 OA
DOCKED: ATOM     41  H   UNL d   1      -5.528 -14.871  -0.893 +0.02 +0.39    +0.167 HD
DOCKED: ENDBRANCH  38  40
DOCKED: ENDBRANCH  37  38
DOCKED: ENDBRANCH  36  37
DOCKED: ENDBRANCH  22  36
DOCKED: BRANCH  12  42
DOCKED: ATOM     42  C   UNL d   1      -1.868  -3.045  -3.155 -0.42 +0.00    +0.004 C 
DOCKED: ATOM     43  C   UNL d   1      -1.949  -2.350  -4.298 -0.56 +0.00    +0.012 C 
DOCKED: ENDBRANCH  12  42
DOCKED: BRANCH  17  44
DOCKED: ATOM     44  C   UNL d   1      -9.417  -5.049  -4.793 -0.54 +0.00    +0.004 C 
DOCKED: ATOM     45  C   UNL d   1     -10.085  -3.970  -4.373 -0.69 +0.00    +0.012 C 
DOCKED: ENDBRANCH  17  44
DOCKED: TORSDOF 10
DOCKED: TER
DOCKED: ENDMDL
________________________________________________________________________________


	BEGINNING GENETIC ALGORITHM DOCKING 83 of 100
Run: 83 Seed: 7183355 1987573367 [ Run 83 of 100 GA/GALS ]
Beginning LAMARCKIAN GENETIC ALGORITHM (LGA), with a maximum of 25000000 energy evaluations.

Final-Value: -20.114


	FINAL GENETIC ALGORITHM DOCKED STATE
	_______________________________________________


Detailed state:  trans -4.984 -9.574 -3.103 quatxyzw 0.087052 -0.018251 -0.677651 0.729985 center -0.174 -0.001 -0.047 ntor 10 -92.5114 -75.2384 65.6307 -104.7104 8.2244 142.6062 -21.3994 75.1836 -152.9420 -177.5867
State:	 -4.984  -9.574  -3.103   0.127 -0.027 -0.991 86.230    -92.51  -75.24   65.63 -104.71    8.22  142.61  -21.40   75.18 -152.94 -177.59

DOCKED: MODEL       83
DOCKED: USER    Run = 83
DOCKED: USER    DPF = D:/Protein_go_brrr/autodock/final/AncA/heme_Fe/dock.dpf
DOCKED: USER  
DOCKED: USER    Estimated Free Energy of Binding    =  -15.63 kcal/mol  [=(1)+(2)+(3)-(4)]
DOCKED: USER    Estimated Inhibition Constant, Ki   =    3.49 pM (picomolar)  [Temperature = 298.15 K]
DOCKED: USER    
DOCKED: USER    (1) Final Intermolecular Energy     =  -18.61 kcal/mol
DOCKED: USER        vdW + Hbond + desolv Energy     =  -14.52 kcal/mol
DOCKED: USER        Electrostatic Energy            =   -4.09 kcal/mol
DOCKED: USER    (2) Final Total Internal Energy     =   -1.50 kcal/mol
DOCKED: USER    (3) Torsional Free Energy           =   +2.98 kcal/mol
DOCKED: USER    (4) Unbound System's Energy  [=(2)] =   -1.50 kcal/mol
DOCKED: USER    
DOCKED: USER    
DOCKED: USER    NEWDPF move heme_Fe_opt.pdbqt
DOCKED: USER    NEWDPF about -0.174000 -0.001000 -0.047000
DOCKED: USER    NEWDPF tran0 -4.983742 -9.574124 -3.103436
DOCKED: USER    NEWDPF quaternion0 0.087052 -0.018251 -0.677651 0.729985
DOCKED: USER    NEWDPF axisangle0 0.127369 -0.026704 -0.991496 86.229672
DOCKED: USER    NEWDPF quat0 0.127369 -0.026704 -0.991496 86.229672
DOCKED: USER    NEWDPF dihe0 -92.51 -75.24 65.63 -104.71 8.22 142.61 -21.40 75.18 -152.94 -177.59 
DOCKED: USER  keepresnum = 1 
DOCKED: USER  
DOCKED: REMARK  10 active torsions:
DOCKED: REMARK  status: ('A' for Active; 'I' for Inactive)
DOCKED: REMARK    1  A    between atoms: C_6  and  C_10 
DOCKED: REMARK    2  A    between atoms: C_10  and  C_11 
DOCKED: REMARK    3  A    between atoms: C_11  and  C_12 
DOCKED: REMARK    4  A    between atoms: C_12  and  O_14 
DOCKED: REMARK    5  A    between atoms: C_17  and  C_20 
DOCKED: REMARK    6  A    between atoms: C_24  and  C_27 
DOCKED: REMARK    7  A    between atoms: C_31  and  C_34 
DOCKED: REMARK    8  A    between atoms: C_34  and  C_35 
DOCKED: REMARK    9  A    between atoms: C_35  and  C_36 
DOCKED: REMARK   10  A    between atoms: C_36  and  O_38 
DOCKED: USER                              x       y       z     vdW  Elec       q    Type
DOCKED: USER                           _______ _______ _______ _____ _____    ______ ____
DOCKED: ROOT
DOCKED: ATOM      1  C   UNL d   1      -5.134 -11.451  -2.287 -0.35 +0.07    +0.064 C 
DOCKED: ATOM      2  C   UNL d   1      -1.521  -8.100  -2.666 -0.43 +0.02    +0.064 A 
DOCKED: ATOM      3  C   UNL d   1      -4.803  -4.795  -3.839 -0.43 +0.01    +0.064 C 
DOCKED: ATOM      4  C   UNL d   1      -8.302  -8.047  -3.581 -0.49 +0.02    +0.064 C 
DOCKED: ATOM      5  C   UNL d   1      -3.803 -10.834  -2.367 -0.33 +0.06    +0.066 A 
DOCKED: ATOM      6  C   UNL d   1      -2.606 -11.511  -2.200 -0.32 -0.02    -0.021 A 
DOCKED: ATOM      7  C   UNL d   1      -1.603 -10.579  -2.301 -0.32 -0.01    -0.025 A 
DOCKED: ATOM      8  C   UNL d   1      -2.227  -9.367  -2.527 -0.38 +0.03    +0.066 A 
DOCKED: ATOM      9  C   UNL d   1      -0.133 -10.849  -2.206 -0.34 +0.02    +0.051 C 
DOCKED: ATOM     10  C   UNL d   1      -2.094  -6.927  -2.941 -0.42 +0.02    +0.066 A 
DOCKED: ATOM     11  C   UNL d   1      -1.405  -5.712  -2.955 -0.46 -0.00    -0.021 A 
DOCKED: ATOM     12  C   UNL d   1      -2.332  -4.740  -3.274 -0.42 +0.00    +0.000 A 
DOCKED: ATOM     13  C   UNL d   1      -3.553  -5.419  -3.432 -0.38 +0.01    +0.070 A 
DOCKED: ATOM     14  C   UNL d   1       0.053  -5.478  -2.613 -0.52 +0.01    +0.052 C 
DOCKED: ATOM     15  C   UNL d   1      -5.991  -5.435  -3.942 -0.39 +0.02    +0.066 A 
DOCKED: ATOM     16  C   UNL d   1      -7.141  -4.826  -4.430 -0.46 -0.00    -0.021 A 
DOCKED: ATOM     17  C   UNL d   1      -8.152  -5.761  -4.354 -0.48 +0.00    +0.000 A 
DOCKED: ATOM     18  C   UNL d   1      -7.596  -6.919  -3.815 -0.42 +0.02    +0.070 A 
DOCKED: ATOM     19  C   UNL d   1      -7.291  -3.413  -4.926 -0.60 +0.01    +0.052 C 
DOCKED: ATOM     20  C   UNL d   1      -7.738  -9.303  -3.074 -0.27 +0.03    +0.066 A 
DOCKED: ATOM     21  C   UNL d   1      -8.484 -10.408  -2.639 -0.30 -0.01    -0.025 A 
DOCKED: ATOM     22  C   UNL d   1      -7.561 -11.371  -2.287 -0.24 -0.01    -0.021 A 
DOCKED: ATOM     23  C   UNL d   1      -6.296 -10.817  -2.513 -0.06 +0.05    +0.066 A 
DOCKED: ATOM     24  C   UNL d   1      -9.985 -10.558  -2.552 -0.44 +0.01    +0.051 C 
DOCKED: ATOM     25  N   UNL d   1      -3.565  -9.527  -2.576 -0.24 -0.13    -0.248 N 
DOCKED: ATOM     26  N   UNL d   1      -3.410  -6.750  -3.220 -0.25 -0.07    -0.248 N 
DOCKED: ATOM     27  N   UNL d   1      -6.258  -6.734  -3.603 -0.18 -0.11    -0.248 N 
DOCKED: ATOM     28  N   UNL d   1      -6.410  -9.539  -2.951 -0.13 -0.13    -0.248 N 
DOCKED: ATOM     29 FE   UNL d   1      -4.912  -8.145  -3.086 -0.09 +0.00    +0.000 Fe
DOCKED: ENDROOT
DOCKED: BRANCH   6  30
DOCKED: ATOM     30  C   UNL d   1      -2.421 -12.973  -1.977 -0.23 +0.08    +0.052 C 
DOCKED: BRANCH  30  31
DOCKED: ATOM     31  C   UNL d   1      -3.050 -13.401  -0.656 -0.14 +0.17    +0.115 C 
DOCKED: BRANCH  31  32
DOCKED: ATOM     32  C   UNL d   1      -3.331 -14.879  -0.662 -0.14 +0.26    +0.139 C 
DOCKED: ATOM     33  O   UNL d   1      -2.925 -15.586  -1.573 +0.00 -1.35    -0.650 OA
DOCKED: BRANCH  32  34
DOCKED: ATOM     34  O   UNL d   1      -4.034 -15.436   0.339 -0.26 -1.66    -0.776 OA
DOCKED: ATOM     35  H   UNL d   1      -4.999 -15.460   0.278 +0.01 +0.40    +0.167 HD
DOCKED: ENDBRANCH  32  34
DOCKED: ENDBRANCH  31  32
DOCKED: ENDBRANCH  30  31
DOCKED: ENDBRANCH   6  30
DOCKED: BRANCH  22  36
DOCKED: ATOM     36  C   UNL d   1      -7.880 -12.729  -1.719 -0.25 +0.05    +0.052 C 
DOCKED: BRANCH  36  37
DOCKED: ATOM     37  C   UNL d   1      -8.164 -12.609  -0.229 -0.23 +0.10    +0.115 C 
DOCKED: BRANCH  37  38
DOCKED: ATOM     38  C   UNL d   1      -7.014 -13.135   0.583 -0.22 +0.19    +0.139 C 
DOCKED: ATOM     39  O   UNL d   1      -6.683 -12.590   1.625 -0.53 -1.11    -0.650 OA
DOCKED: BRANCH  38  40
DOCKED: ATOM     40  O   UNL d   1      -6.335 -14.217   0.162 -0.32 -1.46    -0.776 OA
DOCKED: ATOM     41  H   UNL d   1      -5.458 -14.098  -0.229 +0.03 +0.34    +0.167 HD
DOCKED: ENDBRANCH  38  40
DOCKED: ENDBRANCH  37  38
DOCKED: ENDBRANCH  36  37
DOCKED: ENDBRANCH  22  36
DOCKED: BRANCH  12  42
DOCKED: ATOM     42  C   UNL d   1      -2.036  -3.279  -3.391 -0.43 +0.00    +0.004 C 
DOCKED: ATOM     43  C   UNL d   1      -2.119  -2.651  -4.571 -0.56 +0.00    +0.012 C 
DOCKED: ENDBRANCH  12  42
DOCKED: BRANCH  17  44
DOCKED: ATOM     44  C   UNL d   1      -9.554  -5.565  -4.786 -0.51 +0.00    +0.004 C 
DOCKED: ATOM     45  C   UNL d   1     -10.256  -4.504  -4.375 -0.61 +0.00    +0.012 C 
DOCKED: ENDBRANCH  17  44
DOCKED: TORSDOF 10
DOCKED: TER
DOCKED: ENDMDL
________________________________________________________________________________


	BEGINNING GENETIC ALGORITHM DOCKING 84 of 100
Run: 84 Seed: 1647451162 1997666804 [ Run 84 of 100 GA/GALS ]
Beginning LAMARCKIAN GENETIC ALGORITHM (LGA), with a maximum of 25000000 energy evaluations.

Final-Value: -18.826


	FINAL GENETIC ALGORITHM DOCKED STATE
	_______________________________________________


Detailed state:  trans -4.731 -9.392 -2.364 quatxyzw 0.681088 0.713920 -0.075183 -0.144170 center -0.174 -0.001 -0.047 ntor 10 -55.8197 -82.0635 55.7270 -136.6274 22.5735 58.2622 29.3091 9.8641 -35.6097 -155.2834
State:	 -4.731  -9.392  -2.364   0.688  0.721 -0.076 -163.422    -55.82  -82.06   55.73 -136.63   22.57   58.26   29.31    9.86  -35.61 -155.28

DOCKED: MODEL       84
DOCKED: USER    Run = 84
DOCKED: USER    DPF = D:/Protein_go_brrr/autodock/final/AncA/heme_Fe/dock.dpf
DOCKED: USER  
DOCKED: USER    Estimated Free Energy of Binding    =  -15.49 kcal/mol  [=(1)+(2)+(3)-(4)]
DOCKED: USER    Estimated Inhibition Constant, Ki   =    4.44 pM (picomolar)  [Temperature = 298.15 K]
DOCKED: USER    
DOCKED: USER    (1) Final Intermolecular Energy     =  -18.47 kcal/mol
DOCKED: USER        vdW + Hbond + desolv Energy     =  -14.21 kcal/mol
DOCKED: USER        Electrostatic Energy            =   -4.26 kcal/mol
DOCKED: USER    (2) Final Total Internal Energy     =   -0.36 kcal/mol
DOCKED: USER    (3) Torsional Free Energy           =   +2.98 kcal/mol
DOCKED: USER    (4) Unbound System's Energy  [=(2)] =   -0.36 kcal/mol
DOCKED: USER    
DOCKED: USER    
DOCKED: USER    NEWDPF move heme_Fe_opt.pdbqt
DOCKED: USER    NEWDPF about -0.174000 -0.001000 -0.047000
DOCKED: USER    NEWDPF tran0 -4.730924 -9.391537 -2.364275
DOCKED: USER    NEWDPF quaternion0 0.681088 0.713920 -0.075183 -0.144170
DOCKED: USER    NEWDPF axisangle0 0.688278 0.721457 -0.075977 -163.421609
DOCKED: USER    NEWDPF quat0 0.688278 0.721457 -0.075977 -163.421609
DOCKED: USER    NEWDPF dihe0 -55.82 -82.06 55.73 -136.63 22.57 58.26 29.31 9.86 -35.61 -155.28 
DOCKED: USER  keepresnum = 1 
DOCKED: USER  
DOCKED: REMARK  10 active torsions:
DOCKED: REMARK  status: ('A' for Active; 'I' for Inactive)
DOCKED: REMARK    1  A    between atoms: C_6  and  C_10 
DOCKED: REMARK    2  A    between atoms: C_10  and  C_11 
DOCKED: REMARK    3  A    between atoms: C_11  and  C_12 
DOCKED: REMARK    4  A    between atoms: C_12  and  O_14 
DOCKED: REMARK    5  A    between atoms: C_17  and  C_20 
DOCKED: REMARK    6  A    between atoms: C_24  and  C_27 
DOCKED: REMARK    7  A    between atoms: C_31  and  C_34 
DOCKED: REMARK    8  A    between atoms: C_34  and  C_35 
DOCKED: REMARK    9  A    between atoms: C_35  and  C_36 
DOCKED: REMARK   10  A    between atoms: C_36  and  O_38 
DOCKED: USER                              x       y       z     vdW  Elec       q    Type
DOCKED: USER                           _______ _______ _______ _____ _____    ______ ____
DOCKED: ROOT
DOCKED: ATOM      1  C   UNL d   1      -4.674 -11.440  -2.263 -0.35 +0.07    +0.064 C 
DOCKED: ATOM      2  C   UNL d   1      -8.111  -8.112  -3.501 -0.42 +0.02    +0.064 A 
DOCKED: ATOM      3  C   UNL d   1      -4.669  -4.778  -3.821 -0.43 +0.01    +0.064 C 
DOCKED: ATOM      4  C   UNL d   1      -1.340  -7.959  -2.522 -0.50 +0.02    +0.064 C 
DOCKED: ATOM      5  C   UNL d   1      -5.972 -10.793  -2.500 -0.13 +0.05    +0.066 A 
DOCKED: ATOM      6  C   UNL d   1      -7.201 -11.421  -2.382 -0.23 -0.02    -0.021 A 
DOCKED: ATOM      7  C   UNL d   1      -8.155 -10.497  -2.730 -0.27 -0.01    -0.025 A 
DOCKED: ATOM      8  C   UNL d   1      -7.470  -9.339  -3.047 -0.20 +0.03    +0.066 A 
DOCKED: ATOM      9  C   UNL d   1      -9.637 -10.717  -2.736 -0.39 +0.02    +0.051 C 
DOCKED: ATOM     10  C   UNL d   1      -7.480  -6.965  -3.757 -0.41 +0.02    +0.066 A 
DOCKED: ATOM     11  C   UNL d   1      -8.106  -5.840  -4.300 -0.46 -0.00    -0.021 A 
DOCKED: ATOM     12  C   UNL d   1      -7.131  -4.870  -4.418 -0.47 +0.00    +0.000 A 
DOCKED: ATOM     13  C   UNL d   1      -5.947  -5.462  -3.944 -0.38 +0.02    +0.070 A 
DOCKED: ATOM     14  C   UNL d   1      -9.548  -5.718  -4.749 -0.44 +0.01    +0.052 C 
DOCKED: ATOM     15  C   UNL d   1      -3.515  -5.357  -3.414 -0.38 +0.01    +0.066 A 
DOCKED: ATOM     16  C   UNL d   1      -2.338  -4.647  -3.215 -0.40 -0.00    -0.021 A 
DOCKED: ATOM     17  C   UNL d   1      -1.376  -5.563  -2.843 -0.47 +0.00    +0.000 A 
DOCKED: ATOM     18  C   UNL d   1      -1.989  -6.814  -2.829 -0.43 +0.02    +0.070 A 
DOCKED: ATOM     19  C   UNL d   1      -2.118  -3.169  -3.390 -0.37 +0.01    +0.052 C 
DOCKED: ATOM     20  C   UNL d   1      -1.966  -9.284  -2.437 -0.39 +0.03    +0.066 A 
DOCKED: ATOM     21  C   UNL d   1      -1.276 -10.499  -2.318 -0.30 -0.01    -0.025 A 
DOCKED: ATOM     22  C   UNL d   1      -2.246 -11.476  -2.233 -0.31 -0.02    -0.021 A 
DOCKED: ATOM     23  C   UNL d   1      -3.482 -10.824  -2.309 -0.33 +0.05    +0.066 A 
DOCKED: ATOM     24  C   UNL d   1       0.215 -10.738  -2.290 -0.32 +0.02    +0.051 C 
DOCKED: ATOM     25  N   UNL d   1      -6.143  -9.520  -2.896 -0.13 -0.13    -0.248 N 
DOCKED: ATOM     26  N   UNL d   1      -6.157  -6.741  -3.549 -0.18 -0.11    -0.248 N 
DOCKED: ATOM     27  N   UNL d   1      -3.314  -6.683  -3.137 -0.25 -0.07    -0.248 N 
DOCKED: ATOM     28  N   UNL d   1      -3.304  -9.491  -2.479 -0.24 -0.12    -0.248 N 
DOCKED: ATOM     29 FE   UNL d   1      -4.729  -8.116  -3.014 -0.09 +0.00    +0.000 Fe
DOCKED: ENDROOT
DOCKED: BRANCH   6  30
DOCKED: ATOM     30  C   UNL d   1      -7.461 -12.821  -1.942 -0.26 +0.05    +0.052 C 
DOCKED: BRANCH  30  31
DOCKED: ATOM     31  C   UNL d   1      -6.801 -13.094  -0.594 -0.24 +0.15    +0.115 C 
DOCKED: BRANCH  31  32
DOCKED: ATOM     32  C   UNL d   1      -6.430 -14.546  -0.475 -0.15 +0.24    +0.139 C 
DOCKED: ATOM     33  O   UNL d   1      -6.274 -15.234  -1.474 -0.51 -1.50    -0.650 OA
DOCKED: BRANCH  32  34
DOCKED: ATOM     34  O   UNL d   1      -6.265 -15.103   0.737 -0.16 -1.87    -0.776 OA
DOCKED: ATOM     35  H   UNL d   1      -6.784 -15.886   0.968 +0.02 +0.28    +0.167 HD
DOCKED: ENDBRANCH  32  34
DOCKED: ENDBRANCH  31  32
DOCKED: ENDBRANCH  30  31
DOCKED: ENDBRANCH   6  30
DOCKED: BRANCH  22  36
DOCKED: ATOM     36  C   UNL d   1      -1.995 -12.958  -2.134 -0.26 +0.07    +0.052 C 
DOCKED: BRANCH  36  37
DOCKED: ATOM     37  C   UNL d   1      -1.184 -13.423  -3.335 -0.20 +0.12    +0.115 C 
DOCKED: BRANCH  37  38
DOCKED: ATOM     38  C   UNL d   1      -1.103 -14.922  -3.382 -0.16 +0.17    +0.139 C 
DOCKED: ATOM     39  O   UNL d   1      -2.117 -15.602  -3.433 -0.23 -1.41    -0.650 OA
DOCKED: BRANCH  38  40
DOCKED: ATOM     40  O   UNL d   1       0.096 -15.531  -3.364 +0.06 -0.57    -0.776 OA
DOCKED: ATOM     41  H   UNL d   1       0.438 -15.871  -2.526 +0.03 +0.11    +0.167 HD
DOCKED: ENDBRANCH  38  40
DOCKED: ENDBRANCH  37  38
DOCKED: ENDBRANCH  36  37
DOCKED: ENDBRANCH  22  36
DOCKED: BRANCH  12  42
DOCKED: ATOM     42  C   UNL d   1      -7.352  -3.496  -4.968 -0.63 +0.00    +0.004 C 
DOCKED: ATOM     43  C   UNL d   1      -7.437  -2.435  -4.155 -0.66 +0.00    +0.012 C 
DOCKED: ENDBRANCH  12  42
DOCKED: BRANCH  17  44
DOCKED: ATOM     44  C   UNL d   1       0.033  -5.258  -2.504 -0.54 +0.00    +0.004 C 
DOCKED: ATOM     45  C   UNL d   1       0.952  -5.114  -3.464 -0.64 +0.00    +0.012 C 
DOCKED: ENDBRANCH  17  44
DOCKED: TORSDOF 10
DOCKED: TER
DOCKED: ENDMDL
________________________________________________________________________________


	BEGINNING GENETIC ALGORITHM DOCKING 85 of 100
Run: 85 Seed: 834211611 1367093382 [ Run 85 of 100 GA/GALS ]
Beginning LAMARCKIAN GENETIC ALGORITHM (LGA), with a maximum of 25000000 energy evaluations.

Final-Value: -19.581


	FINAL GENETIC ALGORITHM DOCKED STATE
	_______________________________________________


Detailed state:  trans -5.208 -8.987 -3.268 quatxyzw -0.087783 0.010608 0.650621 -0.754237 center -0.174 -0.001 -0.047 ntor 10 114.8378 -10.0514 72.1884 -117.9910 156.5904 -45.1903 -20.8211 -64.2845 162.5924 34.8019
State:	 -5.208  -8.987  -3.268  -0.134  0.016  0.991 -82.082    114.84  -10.05   72.19 -117.99  156.59  -45.19  -20.82  -64.28  162.59   34.80

DOCKED: MODEL       85
DOCKED: USER    Run = 85
DOCKED: USER    DPF = D:/Protein_go_brrr/autodock/final/AncA/heme_Fe/dock.dpf
DOCKED: USER  
DOCKED: USER    Estimated Free Energy of Binding    =  -14.78 kcal/mol  [=(1)+(2)+(3)-(4)]
DOCKED: USER    Estimated Inhibition Constant, Ki   =   14.65 pM (picomolar)  [Temperature = 298.15 K]
DOCKED: USER    
DOCKED: USER    (1) Final Intermolecular Energy     =  -17.76 kcal/mol
DOCKED: USER        vdW + Hbond + desolv Energy     =  -13.83 kcal/mol
DOCKED: USER        Electrostatic Energy            =   -3.93 kcal/mol
DOCKED: USER    (2) Final Total Internal Energy     =   -1.82 kcal/mol
DOCKED: USER    (3) Torsional Free Energy           =   +2.98 kcal/mol
DOCKED: USER    (4) Unbound System's Energy  [=(2)] =   -1.82 kcal/mol
DOCKED: USER    
DOCKED: USER    
DOCKED: USER    NEWDPF move heme_Fe_opt.pdbqt
DOCKED: USER    NEWDPF about -0.174000 -0.001000 -0.047000
DOCKED: USER    NEWDPF tran0 -5.208083 -8.987441 -3.268425
DOCKED: USER    NEWDPF quaternion0 -0.087783 0.010608 0.650621 -0.754237
DOCKED: USER    NEWDPF axisangle0 -0.133692 0.016156 0.990891 -82.082432
DOCKED: USER    NEWDPF quat0 -0.133692 0.016156 0.990891 -82.082432
DOCKED: USER    NEWDPF dihe0 114.84 -10.05 72.19 -117.99 156.59 -45.19 -20.82 -64.28 162.59 34.80 
DOCKED: USER  keepresnum = 1 
DOCKED: USER  
DOCKED: REMARK  10 active torsions:
DOCKED: REMARK  status: ('A' for Active; 'I' for Inactive)
DOCKED: REMARK    1  A    between atoms: C_6  and  C_10 
DOCKED: REMARK    2  A    between atoms: C_10  and  C_11 
DOCKED: REMARK    3  A    between atoms: C_11  and  C_12 
DOCKED: REMARK    4  A    between atoms: C_12  and  O_14 
DOCKED: REMARK    5  A    between atoms: C_17  and  C_20 
DOCKED: REMARK    6  A    between atoms: C_24  and  C_27 
DOCKED: REMARK    7  A    between atoms: C_31  and  C_34 
DOCKED: REMARK    8  A    between atoms: C_34  and  C_35 
DOCKED: REMARK    9  A    between atoms: C_35  and  C_36 
DOCKED: REMARK   10  A    between atoms: C_36  and  O_38 
DOCKED: USER                              x       y       z     vdW  Elec       q    Type
DOCKED: USER                           _______ _______ _______ _____ _____    ______ ____
DOCKED: ROOT
DOCKED: ATOM      1  C   UNL d   1      -5.506 -10.858  -2.480 -0.30 +0.05    +0.064 C 
DOCKED: ATOM      2  C   UNL d   1      -1.658  -7.768  -2.752 -0.44 +0.02    +0.064 A 
DOCKED: ATOM      3  C   UNL d   1      -4.676  -4.225  -3.938 -0.33 +0.01    +0.064 C 
DOCKED: ATOM      4  C   UNL d   1      -8.401  -7.222  -3.783 -0.48 +0.02    +0.064 C 
DOCKED: ATOM      5  C   UNL d   1      -4.133 -10.336  -2.528 -0.34 +0.05    +0.066 A 
DOCKED: ATOM      6  C   UNL d   1      -2.990 -11.099  -2.350 -0.34 -0.02    -0.021 A 
DOCKED: ATOM      7  C   UNL d   1      -1.922 -10.239  -2.421 -0.31 -0.01    -0.025 A 
DOCKED: ATOM      8  C   UNL d   1      -2.455  -8.983  -2.642 -0.39 +0.03    +0.066 A 
DOCKED: ATOM      9  C   UNL d   1      -0.477 -10.615  -2.304 -0.34 +0.02    +0.051 C 
DOCKED: ATOM     10  C   UNL d   1      -2.142  -6.554  -3.021 -0.42 +0.02    +0.066 A 
DOCKED: ATOM     11  C   UNL d   1      -1.368  -5.391  -3.007 -0.46 -0.00    -0.021 A 
DOCKED: ATOM     12  C   UNL d   1      -2.218  -4.353  -3.329 -0.41 +0.00    +0.000 A 
DOCKED: ATOM     13  C   UNL d   1      -3.481  -4.941  -3.517 -0.37 +0.01    +0.070 A 
DOCKED: ATOM     14  C   UNL d   1       0.096  -5.266  -2.637 -0.55 +0.01    +0.052 C 
DOCKED: ATOM     15  C   UNL d   1      -5.905  -4.777  -4.070 -0.39 +0.01    +0.066 A 
DOCKED: ATOM     16  C   UNL d   1      -6.999  -4.083  -4.570 -0.48 -0.00    -0.021 A 
DOCKED: ATOM     17  C   UNL d   1      -8.075  -4.944  -4.523 -0.48 +0.00    +0.000 A 
DOCKED: ATOM     18  C   UNL d   1      -7.612  -6.145  -3.990 -0.42 +0.02    +0.070 A 
DOCKED: ATOM     19  C   UNL d   1      -7.040  -2.657  -5.050 -0.62 +0.01    +0.052 C 
DOCKED: ATOM     20  C   UNL d   1      -7.937  -8.522  -3.283 -0.39 +0.02    +0.066 A 
DOCKED: ATOM     21  C   UNL d   1      -8.766  -9.576  -2.876 -0.39 -0.01    -0.025 A 
DOCKED: ATOM     22  C   UNL d   1      -7.920 -10.607  -2.520 -0.16 -0.01    -0.021 A 
DOCKED: ATOM     23  C   UNL d   1      -6.615 -10.141  -2.717 +0.02 +0.04    +0.066 A 
DOCKED: ATOM     24  C   UNL d   1     -10.276  -9.620  -2.817 -0.52 +0.01    +0.051 C 
DOCKED: ATOM     25  N   UNL d   1      -3.799  -9.047  -2.716 -0.25 -0.11    -0.248 N 
DOCKED: ATOM     26  N   UNL d   1      -3.437  -6.281  -3.321 -0.25 -0.07    -0.248 N 
DOCKED: ATOM     27  N   UNL d   1      -6.269  -6.058  -3.753 -0.25 -0.08    -0.248 N 
DOCKED: ATOM     28  N   UNL d   1      -6.631  -8.853  -3.140 -0.23 -0.11    -0.248 N 
DOCKED: ATOM     29 FE   UNL d   1      -5.036  -7.567  -3.231 -0.09 +0.00    +0.000 Fe
DOCKED: ENDROOT
DOCKED: BRANCH   6  30
DOCKED: ATOM     30  C   UNL d   1      -2.913 -12.572  -2.142 -0.18 +0.08    +0.052 C 
DOCKED: BRANCH  30  31
DOCKED: ATOM     31  C   UNL d   1      -2.528 -12.896  -0.703 -0.16 +0.14    +0.115 C 
DOCKED: BRANCH  31  32
DOCKED: ATOM     32  C   UNL d   1      -2.931 -14.302  -0.354 -0.11 +0.22    +0.139 C 
DOCKED: ATOM     33  O   UNL d   1      -2.368 -14.906   0.548 +0.02 -0.91    -0.650 OA
DOCKED: BRANCH  32  34
DOCKED: ATOM     34  O   UNL d   1      -3.918 -14.909  -1.034 +0.09 -1.80    -0.776 OA
DOCKED: ATOM     35  H   UNL d   1      -4.817 -14.559  -0.969 +0.02 +0.41    +0.167 HD
DOCKED: ENDBRANCH  32  34
DOCKED: ENDBRANCH  31  32
DOCKED: ENDBRANCH  30  31
DOCKED: ENDBRANCH   6  30
DOCKED: BRANCH  22  36
DOCKED: ATOM     36  C   UNL d   1      -8.345 -11.945  -1.976 -0.29 +0.03    +0.052 C 
DOCKED: BRANCH  36  37
DOCKED: ATOM     37  C   UNL d   1      -7.625 -13.056  -2.726 -0.19 +0.12    +0.115 C 
DOCKED: BRANCH  37  38
DOCKED: ATOM     38  C   UNL d   1      -6.698 -13.809  -1.815 +0.01 +0.25    +0.139 C 
DOCKED: ATOM     39  O   UNL d   1      -5.960 -13.214  -1.044 -0.05 -1.06    -0.650 OA
DOCKED: BRANCH  38  40
DOCKED: ATOM     40  O   UNL d   1      -6.672 -15.153  -1.845 -0.50 -1.71    -0.776 OA
DOCKED: ATOM     41  H   UNL d   1      -5.972 -15.621  -1.369 +0.02 +0.39    +0.167 HD
DOCKED: ENDBRANCH  38  40
DOCKED: ENDBRANCH  37  38
DOCKED: ENDBRANCH  36  37
DOCKED: ENDBRANCH  22  36
DOCKED: BRANCH  12  42
DOCKED: ATOM     42  C   UNL d   1      -1.817  -2.915  -3.422 -0.47 +0.00    +0.004 C 
DOCKED: ATOM     43  C   UNL d   1      -1.957  -2.232  -4.566 -0.59 +0.00    +0.012 C 
DOCKED: ENDBRANCH  12  42
DOCKED: BRANCH  17  44
DOCKED: ATOM     44  C   UNL d   1      -9.452  -4.644  -4.977 -0.39 +0.00    +0.004 C 
DOCKED: ATOM     45  C   UNL d   1     -10.181  -3.699  -4.375 -0.71 +0.00    +0.012 C 
DOCKED: ENDBRANCH  17  44
DOCKED: TORSDOF 10
DOCKED: TER
DOCKED: ENDMDL
________________________________________________________________________________


	BEGINNING GENETIC ALGORITHM DOCKING 86 of 100
Run: 86 Seed: 1839890129 1670444446 [ Run 86 of 100 GA/GALS ]
Beginning LAMARCKIAN GENETIC ALGORITHM (LGA), with a maximum of 25000000 energy evaluations.

Final-Value: -19.252


	FINAL GENETIC ALGORITHM DOCKED STATE
	_______________________________________________


Detailed state:  trans -5.047 -9.096 -2.478 quatxyzw 0.701898 0.692820 -0.081331 -0.143959 center -0.174 -0.001 -0.047 ntor 10 -102.1008 -83.7246 31.8030 -135.0682 74.9864 70.8053 -3.6991 -43.7548 -150.8465 0.1211
State:	 -5.047  -9.096  -2.478   0.709  0.700 -0.082 -163.446   -102.10  -83.72   31.80 -135.07   74.99   70.81   -3.70  -43.75 -150.85    0.12

DOCKED: MODEL       86
DOCKED: USER    Run = 86
DOCKED: USER    DPF = D:/Protein_go_brrr/autodock/final/AncA/heme_Fe/dock.dpf
DOCKED: USER  
DOCKED: USER    Estimated Free Energy of Binding    =  -14.76 kcal/mol  [=(1)+(2)+(3)-(4)]
DOCKED: USER    Estimated Inhibition Constant, Ki   =   15.28 pM (picomolar)  [Temperature = 298.15 K]
DOCKED: USER    
DOCKED: USER    (1) Final Intermolecular Energy     =  -17.74 kcal/mol
DOCKED: USER        vdW + Hbond + desolv Energy     =  -14.03 kcal/mol
DOCKED: USER        Electrostatic Energy            =   -3.71 kcal/mol
DOCKED: USER    (2) Final Total Internal Energy     =   -1.51 kcal/mol
DOCKED: USER    (3) Torsional Free Energy           =   +2.98 kcal/mol
DOCKED: USER    (4) Unbound System's Energy  [=(2)] =   -1.51 kcal/mol
DOCKED: USER    
DOCKED: USER    
DOCKED: USER    NEWDPF move heme_Fe_opt.pdbqt
DOCKED: USER    NEWDPF about -0.174000 -0.001000 -0.047000
DOCKED: USER    NEWDPF tran0 -5.046999 -9.096155 -2.477609
DOCKED: USER    NEWDPF quaternion0 0.701898 0.692820 -0.081331 -0.143959
DOCKED: USER    NEWDPF axisangle0 0.709286 0.700113 -0.082187 -163.445943
DOCKED: USER    NEWDPF quat0 0.709286 0.700113 -0.082187 -163.445943
DOCKED: USER    NEWDPF dihe0 -102.10 -83.72 31.80 -135.07 74.99 70.81 -3.70 -43.75 -150.85 0.12 
DOCKED: USER  keepresnum = 1 
DOCKED: USER  
DOCKED: REMARK  10 active torsions:
DOCKED: REMARK  status: ('A' for Active; 'I' for Inactive)
DOCKED: REMARK    1  A    between atoms: C_6  and  C_10 
DOCKED: REMARK    2  A    between atoms: C_10  and  C_11 
DOCKED: REMARK    3  A    between atoms: C_11  and  C_12 
DOCKED: REMARK    4  A    between atoms: C_12  and  O_14 
DOCKED: REMARK    5  A    between atoms: C_17  and  C_20 
DOCKED: REMARK    6  A    between atoms: C_24  and  C_27 
DOCKED: REMARK    7  A    between atoms: C_31  and  C_34 
DOCKED: REMARK    8  A    between atoms: C_34  and  C_35 
DOCKED: REMARK    9  A    between atoms: C_35  and  C_36 
DOCKED: REMARK   10  A    between atoms: C_36  and  O_38 
DOCKED: USER                              x       y       z     vdW  Elec       q    Type
DOCKED: USER                           _______ _______ _______ _____ _____    ______ ____
DOCKED: ROOT
DOCKED: ATOM      1  C   UNL d   1      -5.113 -11.144  -2.364 -0.35 +0.06    +0.064 C 
DOCKED: ATOM      2  C   UNL d   1      -8.344  -7.621  -3.624 -0.43 +0.02    +0.064 A 
DOCKED: ATOM      3  C   UNL d   1      -4.707  -4.503  -3.961 -0.41 +0.01    +0.064 C 
DOCKED: ATOM      4  C   UNL d   1      -1.576  -7.871  -2.641 -0.51 +0.02    +0.064 C 
DOCKED: ATOM      5  C   UNL d   1      -6.370 -10.421  -2.606 +0.11 +0.04    +0.066 A 
DOCKED: ATOM      6  C   UNL d   1      -7.635 -10.973  -2.486 -0.17 -0.01    -0.021 A 
DOCKED: ATOM      7  C   UNL d   1      -8.531  -9.995  -2.840 -0.33 -0.01    -0.025 A 
DOCKED: ATOM      8  C   UNL d   1      -7.778  -8.883  -3.162 -0.35 +0.02    +0.066 A 
DOCKED: ATOM      9  C   UNL d   1     -10.024 -10.126  -2.845 -0.47 +0.01    +0.051 C 
DOCKED: ATOM     10  C   UNL d   1      -7.644  -6.516  -3.886 -0.42 +0.02    +0.066 A 
DOCKED: ATOM     11  C   UNL d   1      -8.201  -5.359  -4.436 -0.46 -0.00    -0.021 A 
DOCKED: ATOM     12  C   UNL d   1      -7.169  -4.450  -4.559 -0.49 +0.00    +0.000 A 
DOCKED: ATOM     13  C   UNL d   1      -6.023  -5.109  -4.081 -0.39 +0.02    +0.070 A 
DOCKED: ATOM     14  C   UNL d   1      -9.633  -5.153  -4.887 -0.39 +0.01    +0.052 C 
DOCKED: ATOM     15  C   UNL d   1      -3.590  -5.149  -3.550 -0.38 +0.01    +0.066 A 
DOCKED: ATOM     16  C   UNL d   1      -2.373  -4.509  -3.353 -0.40 -0.00    -0.021 A 
DOCKED: ATOM     17  C   UNL d   1      -1.467  -5.479  -2.976 -0.47 +0.00    +0.000 A 
DOCKED: ATOM     18  C   UNL d   1      -2.154  -6.691  -2.955 -0.41 +0.02    +0.070 A 
DOCKED: ATOM     19  C   UNL d   1      -2.063  -3.048  -3.537 -0.40 +0.01    +0.052 C 
DOCKED: ATOM     20  C   UNL d   1      -2.280  -9.156  -2.549 -0.39 +0.03    +0.066 A 
DOCKED: ATOM     21  C   UNL d   1      -1.665 -10.409  -2.423 -0.25 -0.01    -0.025 A 
DOCKED: ATOM     22  C   UNL d   1      -2.692 -11.326  -2.333 -0.32 -0.02    -0.021 A 
DOCKED: ATOM     23  C   UNL d   1      -3.887 -10.601  -2.414 -0.34 +0.05    +0.066 A 
DOCKED: ATOM     24  C   UNL d   1      -0.191 -10.738  -2.392 -0.27 +0.02    +0.051 C 
DOCKED: ATOM     25  N   UNL d   1      -6.464  -9.143  -3.010 -0.15 -0.12    -0.248 N 
DOCKED: ATOM     26  N   UNL d   1      -6.311  -6.372  -3.679 -0.24 -0.09    -0.248 N 
DOCKED: ATOM     27  N   UNL d   1      -3.469  -6.482  -3.265 -0.25 -0.07    -0.248 N 
DOCKED: ATOM     28  N   UNL d   1      -3.629  -9.282  -2.590 -0.25 -0.12    -0.248 N 
DOCKED: ATOM     29 FE   UNL d   1      -4.968  -7.827  -3.134 -0.09 +0.00    +0.000 Fe
DOCKED: ENDROOT
DOCKED: BRANCH   6  30
DOCKED: ATOM     30  C   UNL d   1      -7.978 -12.352  -2.038 -0.27 +0.04    +0.052 C 
DOCKED: BRANCH  30  31
DOCKED: ATOM     31  C   UNL d   1      -7.382 -13.391  -2.981 -0.06 +0.15    +0.115 C 
DOCKED: BRANCH  31  32
DOCKED: ATOM     32  C   UNL d   1      -7.657 -14.780  -2.475 -0.10 +0.19    +0.139 C 
DOCKED: ATOM     33  O   UNL d   1      -8.772 -15.271  -2.576 +0.00 -0.54    -0.650 OA
DOCKED: BRANCH  32  34
DOCKED: ATOM     34  O   UNL d   1      -6.674 -15.497  -1.905 -0.52 -1.68    -0.776 OA
DOCKED: ATOM     35  H   UNL d   1      -6.421 -15.303  -0.991 +0.02 +0.31    +0.167 HD
DOCKED: ENDBRANCH  32  34
DOCKED: ENDBRANCH  31  32
DOCKED: ENDBRANCH  30  31
DOCKED: ENDBRANCH   6  30
DOCKED: BRANCH  22  36
DOCKED: ATOM     36  C   UNL d   1      -2.531 -12.820  -2.225 -0.20 +0.08    +0.052 C 
DOCKED: BRANCH  36  37
DOCKED: ATOM     37  C   UNL d   1      -2.627 -13.242  -0.767 -0.18 +0.15    +0.115 C 
DOCKED: BRANCH  37  38
DOCKED: ATOM     38  C   UNL d   1      -3.498 -14.457  -0.614 -0.15 +0.26    +0.139 C 
DOCKED: ATOM     39  O   UNL d   1      -3.122 -15.550  -1.010 -0.03 -1.18    -0.650 OA
DOCKED: BRANCH  38  40
DOCKED: ATOM     40  O   UNL d   1      -4.710 -14.346  -0.040 -0.35 -1.77    -0.776 OA
DOCKED: ATOM     41  H   UNL d   1      -5.489 -14.243  -0.603 +0.03 +0.35    +0.167 HD
DOCKED: ENDBRANCH  38  40
DOCKED: ENDBRANCH  37  38
DOCKED: ENDBRANCH  36  37
DOCKED: ENDBRANCH  22  36
DOCKED: BRANCH  12  42
DOCKED: ATOM     42  C   UNL d   1      -7.307  -3.069  -5.116 -0.67 +0.00    +0.004 C 
DOCKED: ATOM     43  C   UNL d   1      -7.796  -2.070  -4.369 -0.62 +0.00    +0.012 C 
DOCKED: ENDBRANCH  12  42
DOCKED: BRANCH  17  44
DOCKED: ATOM     44  C   UNL d   1      -0.043  -5.258  -2.638 -0.61 +0.00    +0.004 C 
DOCKED: ATOM     45  C   UNL d   1       0.879  -5.144  -3.599 -0.65 +0.00    +0.012 C 
DOCKED: ENDBRANCH  17  44
DOCKED: TORSDOF 10
DOCKED: TER
DOCKED: ENDMDL
________________________________________________________________________________


	BEGINNING GENETIC ALGORITHM DOCKING 87 of 100
Run: 87 Seed: 1855368045 1508837832 [ Run 87 of 100 GA/GALS ]
Beginning LAMARCKIAN GENETIC ALGORITHM (LGA), with a maximum of 25000000 energy evaluations.

Final-Value: -14.251


	FINAL GENETIC ALGORITHM DOCKED STATE
	_______________________________________________


Detailed state:  trans -10.115 -14.441 -3.477 quatxyzw -0.455549 -0.125133 0.880691 0.034643 center -0.174 -0.001 -0.047 ntor 10 -165.6399 178.5060 89.6260 38.6060 -52.2550 -96.9130 42.8750 -172.8587 -27.7700 0.1922
State:	-10.115 -14.441  -3.477  -0.456 -0.125  0.881 176.029   -165.64  178.51   89.63   38.61  -52.26  -96.91   42.88 -172.86  -27.77    0.19

DOCKED: MODEL       87
DOCKED: USER    Run = 87
DOCKED: USER    DPF = D:/Protein_go_brrr/autodock/final/AncA/heme_Fe/dock.dpf
DOCKED: USER  
DOCKED: USER    Estimated Free Energy of Binding    =   -9.63 kcal/mol  [=(1)+(2)+(3)-(4)]
DOCKED: USER    Estimated Inhibition Constant, Ki   =   87.72 nM (nanomolar)  [Temperature = 298.15 K]
DOCKED: USER    
DOCKED: USER    (1) Final Intermolecular Energy     =  -12.61 kcal/mol
DOCKED: USER        vdW + Hbond + desolv Energy     =   -8.25 kcal/mol
DOCKED: USER        Electrostatic Energy            =   -4.36 kcal/mol
DOCKED: USER    (2) Final Total Internal Energy     =   -1.64 kcal/mol
DOCKED: USER    (3) Torsional Free Energy           =   +2.98 kcal/mol
DOCKED: USER    (4) Unbound System's Energy  [=(2)] =   -1.64 kcal/mol
DOCKED: USER    
DOCKED: USER    
DOCKED: USER    NEWDPF move heme_Fe_opt.pdbqt
DOCKED: USER    NEWDPF about -0.174000 -0.001000 -0.047000
DOCKED: USER    NEWDPF tran0 -10.115182 -14.440783 -3.477046
DOCKED: USER    NEWDPF quaternion0 -0.455549 -0.125133 0.880691 0.034643
DOCKED: USER    NEWDPF axisangle0 -0.455823 -0.125208 0.881220 176.029443
DOCKED: USER    NEWDPF quat0 -0.455823 -0.125208 0.881220 176.029443
DOCKED: USER    NEWDPF dihe0 -165.64 178.51 89.63 38.61 -52.26 -96.91 42.88 -172.86 -27.77 0.19 
DOCKED: USER  keepresnum = 1 
DOCKED: USER  
DOCKED: REMARK  10 active torsions:
DOCKED: REMARK  status: ('A' for Active; 'I' for Inactive)
DOCKED: REMARK    1  A    between atoms: C_6  and  C_10 
DOCKED: REMARK    2  A    between atoms: C_10  and  C_11 
DOCKED: REMARK    3  A    between atoms: C_11  and  C_12 
DOCKED: REMARK    4  A    between atoms: C_12  and  O_14 
DOCKED: REMARK    5  A    between atoms: C_17  and  C_20 
DOCKED: REMARK    6  A    between atoms: C_24  and  C_27 
DOCKED: REMARK    7  A    between atoms: C_31  and  C_34 
DOCKED: REMARK    8  A    between atoms: C_34  and  C_35 
DOCKED: REMARK    9  A    between atoms: C_35  and  C_36 
DOCKED: REMARK   10  A    between atoms: C_36  and  O_38 
DOCKED: USER                              x       y       z     vdW  Elec       q    Type
DOCKED: USER                           _______ _______ _______ _____ _____    ______ ____
DOCKED: ROOT
DOCKED: ATOM      1  C   UNL d   1      -9.394 -14.623  -1.565 -0.12 +0.04    +0.064 C 
DOCKED: ATOM      2  C   UNL d   1     -11.949 -11.168  -4.006 -0.33 +0.00    +0.064 A 
DOCKED: ATOM      3  C   UNL d   1     -12.882 -14.387  -7.446 -0.18 +0.00    +0.064 C 
DOCKED: ATOM      4  C   UNL d   1     -10.325 -17.716  -5.151 -0.09 +0.03    +0.064 C 
DOCKED: ATOM      5  C   UNL d   1      -9.956 -13.328  -1.974 -0.18 +0.03    +0.066 A 
DOCKED: ATOM      6  C   UNL d   1      -9.790 -12.140  -1.282 -0.28 -0.01    -0.021 A 
DOCKED: ATOM      7  C   UNL d   1     -10.504 -11.182  -1.958 -0.34 -0.01    -0.025 A 
DOCKED: ATOM      8  C   UNL d   1     -11.078 -11.823  -3.039 -0.27 +0.02    +0.066 A 
DOCKED: ATOM      9  C   UNL d   1     -10.605  -9.733  -1.591 -0.48 +0.01    +0.051 C 
DOCKED: ATOM     10  C   UNL d   1     -12.469 -11.749  -5.089 -0.32 +0.01    +0.066 A 
DOCKED: ATOM     11  C   UNL d   1     -13.392 -11.128  -5.934 -0.36 -0.00    -0.021 A 
DOCKED: ATOM     12  C   UNL d   1     -13.690 -12.041  -6.925 -0.26 +0.00    +0.000 A 
DOCKED: ATOM     13  C   UNL d   1     -12.932 -13.187  -6.625 -0.26 +0.01    +0.070 A 
DOCKED: ATOM     14  C   UNL d   1     -14.012  -9.755  -5.767 -0.35 +0.00    +0.052 C 
DOCKED: ATOM     15  C   UNL d   1     -12.195 -15.511  -7.135 -0.17 +0.01    +0.066 A 
DOCKED: ATOM     16  C   UNL d   1     -12.092 -16.599  -7.993 -0.13 -0.00    -0.021 A 
DOCKED: ATOM     17  C   UNL d   1     -11.357 -17.561  -7.332 -0.17 +0.00    +0.000 A 
DOCKED: ATOM     18  C   UNL d   1     -11.033 -17.039  -6.082 -0.13 +0.03    +0.070 A 
DOCKED: ATOM     19  C   UNL d   1     -12.680 -16.740  -9.371 -0.12 +0.01    +0.052 C 
DOCKED: ATOM     20  C   UNL d   1      -9.913 -17.176  -3.850 -0.06 +0.03    +0.066 A 
DOCKED: ATOM     21  C   UNL d   1      -9.358 -17.924  -2.802 -0.02 -0.01    -0.025 A 
DOCKED: ATOM     22  C   UNL d   1      -9.088 -17.021  -1.795 -0.03 -0.01    -0.021 A 
DOCKED: ATOM     23  C   UNL d   1      -9.493 -15.765  -2.263 -0.07 +0.04    +0.066 A 
DOCKED: ATOM     24  C   UNL d   1      -9.095 -19.411  -2.741 -0.00 +0.02    +0.051 C 
DOCKED: ATOM     25  N   UNL d   1     -10.735 -13.127  -3.051 -0.10 -0.09    -0.248 N 
DOCKED: ATOM     26  N   UNL d   1     -12.195 -13.012  -5.501 -0.15 -0.05    -0.248 N 
DOCKED: ATOM     27  N   UNL d   1     -11.510 -15.762  -5.977 -0.12 -0.07    -0.248 N 
DOCKED: ATOM     28  N   UNL d   1     -10.037 -15.873  -3.500 -0.05 -0.13    -0.248 N 
DOCKED: ATOM     29 FE   UNL d   1     -11.115 -14.445  -4.501 -0.04 +0.00    +0.000 Fe
DOCKED: ENDROOT
DOCKED: BRANCH   6  30
DOCKED: ATOM     30  C   UNL d   1      -8.979 -11.919  -0.051 -0.33 +0.03    +0.052 C 
DOCKED: BRANCH  30  31
DOCKED: ATOM     31  C   UNL d   1      -7.508 -12.224  -0.313 -0.13 +0.10    +0.115 C 
DOCKED: BRANCH  31  32
DOCKED: ATOM     32  C   UNL d   1      -6.920 -12.999   0.833 -0.22 +0.20    +0.139 C 
DOCKED: ATOM     33  O   UNL d   1      -7.030 -12.594   1.982 -0.71 -1.06    -0.650 OA
DOCKED: BRANCH  32  34
DOCKED: ATOM     34  O   UNL d   1      -6.265 -14.150   0.604 -0.21 -1.71    -0.776 OA
DOCKED: ATOM     35  H   UNL d   1      -5.995 -14.364  -0.300 +0.03 +0.32    +0.167 HD
DOCKED: ENDBRANCH  32  34
DOCKED: ENDBRANCH  31  32
DOCKED: ENDBRANCH  30  31
DOCKED: ENDBRANCH   6  30
DOCKED: BRANCH  22  36
DOCKED: ATOM     36  C   UNL d   1      -8.519 -17.356  -0.442 -0.01 +0.03    +0.052 C 
DOCKED: BRANCH  36  37
DOCKED: ATOM     37  C   UNL d   1      -7.016 -17.117  -0.443 -0.04 +0.12    +0.115 C 
DOCKED: BRANCH  37  38
DOCKED: ATOM     38  C   UNL d   1      -6.574 -16.478  -1.729 +0.05 +0.23    +0.139 C 
DOCKED: ATOM     39  O   UNL d   1      -6.119 -17.156  -2.640 -0.14 -1.08    -0.650 OA
DOCKED: BRANCH  38  40
DOCKED: ATOM     40  O   UNL d   1      -6.673 -15.146  -1.886 -0.49 -1.73    -0.776 OA
DOCKED: ATOM     41  H   UNL d   1      -7.054 -14.616  -1.173 +0.04 +0.25    +0.167 HD
DOCKED: ENDBRANCH  38  40
DOCKED: ENDBRANCH  37  38
DOCKED: ENDBRANCH  36  37
DOCKED: ENDBRANCH  22  36
DOCKED: BRANCH  12  42
DOCKED: ATOM     42  C   UNL d   1     -14.649 -11.804  -8.048 -0.26 +0.00    +0.004 C 
DOCKED: ATOM     43  C   UNL d   1     -14.357 -12.190  -9.297 -0.32 +0.00    +0.012 C 
DOCKED: ENDBRANCH  12  42
DOCKED: BRANCH  17  44
DOCKED: ATOM     44  C   UNL d   1     -10.974 -18.887  -7.869 -0.13 +0.00    +0.004 C 
DOCKED: ATOM     45  C   UNL d   1      -9.805 -19.059  -8.496 -0.19 +0.01    +0.012 C 
DOCKED: ENDBRANCH  17  44
DOCKED: TORSDOF 10
DOCKED: TER
DOCKED: ENDMDL
________________________________________________________________________________


	BEGINNING GENETIC ALGORITHM DOCKING 88 of 100
Run: 88 Seed: 406864083 907866897 [ Run 88 of 100 GA/GALS ]
Beginning LAMARCKIAN GENETIC ALGORITHM (LGA), with a maximum of 25000000 energy evaluations.

Final-Value: -18.368


	FINAL GENETIC ALGORITHM DOCKED STATE
	_______________________________________________


Detailed state:  trans -4.967 -9.289 -3.154 quatxyzw -0.094334 0.023548 0.677950 -0.728649 center -0.174 -0.001 -0.047 ntor 10 152.3322 82.9757 70.8152 -114.9294 -167.5654 38.9902 10.6333 -60.4015 26.0233 54.1258
State:	 -4.967  -9.289  -3.154  -0.138  0.034  0.990 -86.453    152.33   82.98   70.82 -114.93 -167.57   38.99   10.63  -60.40   26.02   54.13

DOCKED: MODEL       88
DOCKED: USER    Run = 88
DOCKED: USER    DPF = D:/Protein_go_brrr/autodock/final/AncA/heme_Fe/dock.dpf
DOCKED: USER  
DOCKED: USER    Estimated Free Energy of Binding    =  -14.17 kcal/mol  [=(1)+(2)+(3)-(4)]
DOCKED: USER    Estimated Inhibition Constant, Ki   =   41.38 pM (picomolar)  [Temperature = 298.15 K]
DOCKED: USER    
DOCKED: USER    (1) Final Intermolecular Energy     =  -17.15 kcal/mol
DOCKED: USER        vdW + Hbond + desolv Energy     =  -13.43 kcal/mol
DOCKED: USER        Electrostatic Energy            =   -3.72 kcal/mol
DOCKED: USER    (2) Final Total Internal Energy     =   -1.22 kcal/mol
DOCKED: USER    (3) Torsional Free Energy           =   +2.98 kcal/mol
DOCKED: USER    (4) Unbound System's Energy  [=(2)] =   -1.22 kcal/mol
DOCKED: USER    
DOCKED: USER    
DOCKED: USER    NEWDPF move heme_Fe_opt.pdbqt
DOCKED: USER    NEWDPF about -0.174000 -0.001000 -0.047000
DOCKED: USER    NEWDPF tran0 -4.967019 -9.288952 -3.153849
DOCKED: USER    NEWDPF quaternion0 -0.094334 0.023548 0.677950 -0.728649
DOCKED: USER    NEWDPF axisangle0 -0.137737 0.034383 0.989872 -86.453429
DOCKED: USER    NEWDPF quat0 -0.137737 0.034383 0.989872 -86.453429
DOCKED: USER    NEWDPF dihe0 152.33 82.98 70.82 -114.93 -167.57 38.99 10.63 -60.40 26.02 54.13 
DOCKED: USER  keepresnum = 1 
DOCKED: USER  
DOCKED: REMARK  10 active torsions:
DOCKED: REMARK  status: ('A' for Active; 'I' for Inactive)
DOCKED: REMARK    1  A    between atoms: C_6  and  C_10 
DOCKED: REMARK    2  A    between atoms: C_10  and  C_11 
DOCKED: REMARK    3  A    between atoms: C_11  and  C_12 
DOCKED: REMARK    4  A    between atoms: C_12  and  O_14 
DOCKED: REMARK    5  A    between atoms: C_17  and  C_20 
DOCKED: REMARK    6  A    between atoms: C_24  and  C_27 
DOCKED: REMARK    7  A    between atoms: C_31  and  C_34 
DOCKED: REMARK    8  A    between atoms: C_34  and  C_35 
DOCKED: REMARK    9  A    between atoms: C_35  and  C_36 
DOCKED: REMARK   10  A    between atoms: C_36  and  O_38 
DOCKED: USER                              x       y       z     vdW  Elec       q    Type
DOCKED: USER                           _______ _______ _______ _____ _____    ______ ____
DOCKED: ROOT
DOCKED: ATOM      1  C   UNL d   1      -5.116 -11.151  -2.304 -0.35 +0.06    +0.064 C 
DOCKED: ATOM      2  C   UNL d   1      -1.507  -7.801  -2.736 -0.44 +0.02    +0.064 A 
DOCKED: ATOM      3  C   UNL d   1      -4.792  -4.524  -3.975 -0.42 +0.01    +0.064 C 
DOCKED: ATOM      4  C   UNL d   1      -8.287  -7.776  -3.666 -0.49 +0.02    +0.064 C 
DOCKED: ATOM      5  C   UNL d   1      -3.786 -10.533  -2.392 -0.34 +0.05    +0.066 A 
DOCKED: ATOM      6  C   UNL d   1      -2.588 -11.205  -2.211 -0.33 -0.02    -0.021 A 
DOCKED: ATOM      7  C   UNL d   1      -1.587 -10.273  -2.327 -0.33 -0.01    -0.025 A 
DOCKED: ATOM      8  C   UNL d   1      -2.212  -9.067  -2.576 -0.39 +0.03    +0.066 A 
DOCKED: ATOM      9  C   UNL d   1      -0.116 -10.540  -2.223 -0.35 +0.02    +0.051 C 
DOCKED: ATOM     10  C   UNL d   1      -2.082  -6.635  -3.033 -0.42 +0.02    +0.066 A 
DOCKED: ATOM     11  C   UNL d   1      -1.394  -5.419  -3.067 -0.46 -0.00    -0.021 A 
DOCKED: ATOM     12  C   UNL d   1      -2.323  -4.455  -3.406 -0.41 +0.00    +0.000 A 
DOCKED: ATOM     13  C   UNL d   1      -3.543  -5.138  -3.554 -0.38 +0.01    +0.070 A 
DOCKED: ATOM     14  C   UNL d   1       0.062  -5.177  -2.727 -0.59 +0.01    +0.052 C 
DOCKED: ATOM     15  C   UNL d   1      -5.980  -5.167  -4.069 -0.39 +0.01    +0.066 A 
DOCKED: ATOM     16  C   UNL d   1      -7.129  -4.569  -4.571 -0.47 -0.00    -0.021 A 
DOCKED: ATOM     17  C   UNL d   1      -8.139  -5.504  -4.479 -0.47 +0.00    +0.000 A 
DOCKED: ATOM     18  C   UNL d   1      -7.582  -6.651  -3.919 -0.42 +0.02    +0.070 A 
DOCKED: ATOM     19  C   UNL d   1      -7.280  -3.165  -5.092 -0.61 +0.01    +0.052 C 
DOCKED: ATOM     20  C   UNL d   1      -7.722  -9.022  -3.135 -0.34 +0.02    +0.066 A 
DOCKED: ATOM     21  C   UNL d   1      -8.467 -10.120  -2.682 -0.32 -0.01    -0.025 A 
DOCKED: ATOM     22  C   UNL d   1      -7.543 -11.075  -2.310 -0.16 -0.01    -0.021 A 
DOCKED: ATOM     23  C   UNL d   1      -6.278 -10.523  -2.544 +0.09 +0.04    +0.066 A 
DOCKED: ATOM     24  C   UNL d   1      -9.968 -10.271  -2.595 -0.46 +0.01    +0.051 C 
DOCKED: ATOM     25  N   UNL d   1      -3.549  -9.230  -2.624 -0.25 -0.12    -0.248 N 
DOCKED: ATOM     26  N   UNL d   1      -3.398  -6.465  -3.318 -0.25 -0.07    -0.248 N 
DOCKED: ATOM     27  N   UNL d   1      -6.245  -6.460  -3.707 -0.20 -0.10    -0.248 N 
DOCKED: ATOM     28  N   UNL d   1      -6.393  -9.254  -3.005 -0.15 -0.12    -0.248 N 
DOCKED: ATOM     29 FE   UNL d   1      -4.898  -7.859  -3.162 -0.09 +0.00    +0.000 Fe
DOCKED: ENDROOT
DOCKED: BRANCH   6  30
DOCKED: ATOM     30  C   UNL d   1      -2.401 -12.662  -1.961 -0.28 +0.07    +0.052 C 
DOCKED: BRANCH  30  31
DOCKED: ATOM     31  C   UNL d   1      -1.656 -13.318  -3.118 -0.20 +0.15    +0.115 C 
DOCKED: BRANCH  31  32
DOCKED: ATOM     32  C   UNL d   1      -1.696 -14.815  -2.989 -0.05 +0.23    +0.139 C 
DOCKED: ATOM     33  O   UNL d   1      -0.976 -15.520  -3.682 -0.05 -0.72    -0.650 OA
DOCKED: BRANCH  32  34
DOCKED: ATOM     34  O   UNL d   1      -2.528 -15.394  -2.108 +0.03 -1.70    -0.776 OA
DOCKED: ATOM     35  H   UNL d   1      -2.785 -14.905  -1.313 +0.02 +0.31    +0.167 HD
DOCKED: ENDBRANCH  32  34
DOCKED: ENDBRANCH  31  32
DOCKED: ENDBRANCH  30  31
DOCKED: ENDBRANCH   6  30
DOCKED: BRANCH  22  36
DOCKED: ATOM     36  C   UNL d   1      -7.861 -12.423  -1.719 -0.27 +0.04    +0.052 C 
DOCKED: BRANCH  36  37
DOCKED: ATOM     37  C   UNL d   1      -6.768 -13.416  -2.087 -0.10 +0.19    +0.115 C 
DOCKED: BRANCH  37  38
DOCKED: ATOM     38  C   UNL d   1      -6.089 -13.950  -0.858 -0.14 +0.26    +0.139 C 
DOCKED: ATOM     39  O   UNL d   1      -6.730 -14.205   0.150 -0.18 -1.07    -0.650 OA
DOCKED: BRANCH  38  40
DOCKED: ATOM     40  O   UNL d   1      -4.758 -14.148  -0.859 -0.03 -1.78    -0.776 OA
DOCKED: ATOM     41  H   UNL d   1      -4.416 -15.036  -1.034 +0.02 +0.42    +0.167 HD
DOCKED: ENDBRANCH  38  40
DOCKED: ENDBRANCH  37  38
DOCKED: ENDBRANCH  36  37
DOCKED: ENDBRANCH  22  36
DOCKED: BRANCH  12  42
DOCKED: ATOM     42  C   UNL d   1      -2.029  -2.995  -3.548 -0.45 +0.00    +0.004 C 
DOCKED: ATOM     43  C   UNL d   1      -2.209  -2.367  -4.717 -0.58 +0.00    +0.012 C 
DOCKED: ENDBRANCH  12  42
DOCKED: BRANCH  17  44
DOCKED: ATOM     44  C   UNL d   1      -9.540  -5.318  -4.918 -0.35 +0.00    +0.004 C 
DOCKED: ATOM     45  C   UNL d   1     -10.309  -4.369  -4.373 -0.63 +0.00    +0.012 C 
DOCKED: ENDBRANCH  17  44
DOCKED: TORSDOF 10
DOCKED: TER
DOCKED: ENDMDL
________________________________________________________________________________


	BEGINNING GENETIC ALGORITHM DOCKING 89 of 100
Run: 89 Seed: 916666675 1111217453 [ Run 89 of 100 GA/GALS ]
Beginning LAMARCKIAN GENETIC ALGORITHM (LGA), with a maximum of 25000000 energy evaluations.

Final-Value: -19.114


	FINAL GENETIC ALGORITHM DOCKED STATE
	_______________________________________________


Detailed state:  trans -4.944 -9.300 -2.401 quatxyzw 0.693629 0.701992 -0.075112 -0.142980 center -0.174 -0.001 -0.047 ntor 10 -138.9848 -17.6079 51.2086 -132.4643 116.5120 77.4321 -11.5555 -50.1807 -167.6177 -0.9012
State:	 -4.944  -9.300  -2.401   0.701  0.709 -0.076 -163.559   -138.98  -17.61   51.21 -132.46  116.51   77.43  -11.56  -50.18 -167.62   -0.90

DOCKED: MODEL       89
DOCKED: USER    Run = 89
DOCKED: USER    DPF = D:/Protein_go_brrr/autodock/final/AncA/heme_Fe/dock.dpf
DOCKED: USER  
DOCKED: USER    Estimated Free Energy of Binding    =  -14.62 kcal/mol  [=(1)+(2)+(3)-(4)]
DOCKED: USER    Estimated Inhibition Constant, Ki   =   19.09 pM (picomolar)  [Temperature = 298.15 K]
DOCKED: USER    
DOCKED: USER    (1) Final Intermolecular Energy     =  -17.61 kcal/mol
DOCKED: USER        vdW + Hbond + desolv Energy     =  -14.03 kcal/mol
DOCKED: USER        Electrostatic Energy            =   -3.58 kcal/mol
DOCKED: USER    (2) Final Total Internal Energy     =   -1.51 kcal/mol
DOCKED: USER    (3) Torsional Free Energy           =   +2.98 kcal/mol
DOCKED: USER    (4) Unbound System's Energy  [=(2)] =   -1.51 kcal/mol
DOCKED: USER    
DOCKED: USER    
DOCKED: USER    NEWDPF move heme_Fe_opt.pdbqt
DOCKED: USER    NEWDPF about -0.174000 -0.001000 -0.047000
DOCKED: USER    NEWDPF tran0 -4.944273 -9.299713 -2.400633
DOCKED: USER    NEWDPF quaternion0 0.693629 0.701992 -0.075112 -0.142980
DOCKED: USER    NEWDPF axisangle0 0.700830 0.709280 -0.075891 -163.559387
DOCKED: USER    NEWDPF quat0 0.700830 0.709280 -0.075891 -163.559387
DOCKED: USER    NEWDPF dihe0 -138.98 -17.61 51.21 -132.46 116.51 77.43 -11.56 -50.18 -167.62 -0.90 
DOCKED: USER  keepresnum = 1 
DOCKED: USER  
DOCKED: REMARK  10 active torsions:
DOCKED: REMARK  status: ('A' for Active; 'I' for Inactive)
DOCKED: REMARK    1  A    between atoms: C_6  and  C_10 
DOCKED: REMARK    2  A    between atoms: C_10  and  C_11 
DOCKED: REMARK    3  A    between atoms: C_11  and  C_12 
DOCKED: REMARK    4  A    between atoms: C_12  and  O_14 
DOCKED: REMARK    5  A    between atoms: C_17  and  C_20 
DOCKED: REMARK    6  A    between atoms: C_24  and  C_27 
DOCKED: REMARK    7  A    between atoms: C_31  and  C_34 
DOCKED: REMARK    8  A    between atoms: C_34  and  C_35 
DOCKED: REMARK    9  A    between atoms: C_35  and  C_36 
DOCKED: REMARK   10  A    between atoms: C_36  and  O_38 
DOCKED: USER                              x       y       z     vdW  Elec       q    Type
DOCKED: USER                           _______ _______ _______ _____ _____    ______ ____
DOCKED: ROOT
DOCKED: ATOM      1  C   UNL d   1      -4.958 -11.350  -2.306 -0.36 +0.07    +0.064 C 
DOCKED: ATOM      2  C   UNL d   1      -8.275  -7.901  -3.545 -0.43 +0.02    +0.064 A 
DOCKED: ATOM      3  C   UNL d   1      -4.719  -4.686  -3.841 -0.42 +0.01    +0.064 C 
DOCKED: ATOM      4  C   UNL d   1      -1.506  -7.984  -2.541 -0.50 +0.02    +0.064 C 
DOCKED: ATOM      5  C   UNL d   1      -6.232 -10.658  -2.546 -0.01 +0.05    +0.066 A 
DOCKED: ATOM      6  C   UNL d   1      -7.482 -11.243  -2.435 -0.20 -0.01    -0.021 A 
DOCKED: ATOM      7  C   UNL d   1      -8.403 -10.285  -2.783 -0.30 -0.01    -0.025 A 
DOCKED: ATOM      8  C   UNL d   1      -7.678  -9.151  -3.093 -0.29 +0.03    +0.066 A 
DOCKED: ATOM      9  C   UNL d   1      -9.891 -10.454  -2.795 -0.43 +0.01    +0.051 C 
DOCKED: ATOM     10  C   UNL d   1      -7.603  -6.775  -3.795 -0.42 +0.02    +0.066 A 
DOCKED: ATOM     11  C   UNL d   1      -8.188  -5.628  -4.336 -0.46 -0.00    -0.021 A 
DOCKED: ATOM     12  C   UNL d   1      -7.180  -4.691  -4.447 -0.48 +0.00    +0.000 A 
DOCKED: ATOM     13  C   UNL d   1      -6.019  -5.325  -3.971 -0.39 +0.02    +0.070 A 
DOCKED: ATOM     14  C   UNL d   1      -9.623  -5.455  -4.790 -0.48 +0.01    +0.052 C 
DOCKED: ATOM     15  C   UNL d   1      -3.587  -5.306  -3.432 -0.38 +0.01    +0.066 A 
DOCKED: ATOM     16  C   UNL d   1      -2.387  -4.637  -3.225 -0.40 -0.00    -0.021 A 
DOCKED: ATOM     17  C   UNL d   1      -1.458  -5.587  -2.854 -0.47 +0.00    +0.000 A 
DOCKED: ATOM     18  C   UNL d   1      -2.113  -6.816  -2.846 -0.42 +0.02    +0.070 A 
DOCKED: ATOM     19  C   UNL d   1      -2.115  -3.167  -3.395 -0.37 +0.01    +0.052 C 
DOCKED: ATOM     20  C   UNL d   1      -2.177  -9.287  -2.463 -0.39 +0.03    +0.066 A 
DOCKED: ATOM     21  C   UNL d   1      -1.530 -10.525  -2.346 -0.28 -0.01    -0.025 A 
DOCKED: ATOM     22  C   UNL d   1      -2.533 -11.469  -2.268 -0.32 -0.02    -0.021 A 
DOCKED: ATOM     23  C   UNL d   1      -3.746 -10.774  -2.346 -0.33 +0.05    +0.066 A 
DOCKED: ATOM     24  C   UNL d   1      -0.047 -10.815  -2.313 -0.33 +0.02    +0.051 C 
DOCKED: ATOM     25  N   UNL d   1      -6.358  -9.378  -2.938 -0.12 -0.12    -0.248 N 
DOCKED: ATOM     26  N   UNL d   1      -6.274  -6.598  -3.581 -0.22 -0.11    -0.248 N 
DOCKED: ATOM     27  N   UNL d   1      -3.432  -6.639  -3.159 -0.25 -0.07    -0.248 N 
DOCKED: ATOM     28  N   UNL d   1      -3.522  -9.448  -2.510 -0.24 -0.12    -0.248 N 
DOCKED: ATOM     29 FE   UNL d   1      -4.896  -8.023  -3.046 -0.09 +0.00    +0.000 Fe
DOCKED: ENDROOT
DOCKED: BRANCH   6  30
DOCKED: ATOM     30  C   UNL d   1      -7.791 -12.635  -2.000 -0.26 +0.05    +0.052 C 
DOCKED: BRANCH  30  31
DOCKED: ATOM     31  C   UNL d   1      -7.539 -13.623  -3.133 -0.00 +0.15    +0.115 C 
DOCKED: BRANCH  31  32
DOCKED: ATOM     32  C   UNL d   1      -7.579 -15.035  -2.618 -0.06 +0.21    +0.139 C 
DOCKED: ATOM     33  O   UNL d   1      -8.433 -15.818  -3.010 -0.02 -0.61    -0.650 OA
DOCKED: BRANCH  32  34
DOCKED: ATOM     34  O   UNL d   1      -6.672 -15.451  -1.719 -0.54 -1.59    -0.776 OA
DOCKED: ATOM     35  H   UNL d   1      -6.420 -14.858  -0.997 +0.03 +0.31    +0.167 HD
DOCKED: ENDBRANCH  32  34
DOCKED: ENDBRANCH  31  32
DOCKED: ENDBRANCH  30  31
DOCKED: ENDBRANCH   6  30
DOCKED: BRANCH  22  36
DOCKED: ATOM     36  C   UNL d   1      -2.333 -12.959  -2.173 -0.21 +0.08    +0.052 C 
DOCKED: BRANCH  36  37
DOCKED: ATOM     37  C   UNL d   1      -2.398 -13.394  -0.716 -0.19 +0.15    +0.115 C 
DOCKED: BRANCH  37  38
DOCKED: ATOM     38  C   UNL d   1      -3.359 -14.535  -0.537 -0.14 +0.26    +0.139 C 
DOCKED: ATOM     39  O   UNL d   1      -3.044 -15.673  -0.853 -0.03 -1.09    -0.650 OA
DOCKED: BRANCH  38  40
DOCKED: ATOM     40  O   UNL d   1      -4.583 -14.308  -0.027 -0.31 -1.76    -0.776 OA
DOCKED: ATOM     41  H   UNL d   1      -5.275 -14.972  -0.153 +0.02 +0.37    +0.167 HD
DOCKED: ENDBRANCH  38  40
DOCKED: ENDBRANCH  37  38
DOCKED: ENDBRANCH  36  37
DOCKED: ENDBRANCH  22  36
DOCKED: BRANCH  12  42
DOCKED: ATOM     42  C   UNL d   1      -7.351  -3.309  -4.992 -0.65 +0.00    +0.004 C 
DOCKED: ATOM     43  C   UNL d   1      -7.494  -2.258  -4.174 -0.67 +0.00    +0.012 C 
DOCKED: ENDBRANCH  12  42
DOCKED: BRANCH  17  44
DOCKED: ATOM     44  C   UNL d   1      -0.041  -5.332  -2.508 -0.56 +0.00    +0.004 C 
DOCKED: ATOM     45  C   UNL d   1       0.872  -5.134  -3.465 -0.64 +0.00    +0.012 C 
DOCKED: ENDBRANCH  17  44
DOCKED: TORSDOF 10
DOCKED: TER
DOCKED: ENDMDL
________________________________________________________________________________


	BEGINNING GENETIC ALGORITHM DOCKING 90 of 100
Run: 90 Seed: 402865657 1351350171 [ Run 90 of 100 GA/GALS ]
Beginning LAMARCKIAN GENETIC ALGORITHM (LGA), with a maximum of 25000000 energy evaluations.

Final-Value: -19.505


	FINAL GENETIC ALGORITHM DOCKED STATE
	_______________________________________________


Detailed state:  trans -5.094 -9.602 -2.267 quatxyzw 0.683129 0.706110 -0.101945 -0.156047 center -0.174 -0.001 -0.047 ntor 10 -179.8821 16.3565 66.5562 -119.7682 165.5996 -115.9441 -42.9531 -75.7427 160.0410 13.0445
State:	 -5.094  -9.602  -2.267   0.692  0.715 -0.103 -162.045   -179.88   16.36   66.56 -119.77  165.60 -115.94  -42.95  -75.74  160.04   13.04

DOCKED: MODEL       90
DOCKED: USER    Run = 90
DOCKED: USER    DPF = D:/Protein_go_brrr/autodock/final/AncA/heme_Fe/dock.dpf
DOCKED: USER  
DOCKED: USER    Estimated Free Energy of Binding    =  -14.52 kcal/mol  [=(1)+(2)+(3)-(4)]
DOCKED: USER    Estimated Inhibition Constant, Ki   =   22.67 pM (picomolar)  [Temperature = 298.15 K]
DOCKED: USER    
DOCKED: USER    (1) Final Intermolecular Energy     =  -17.50 kcal/mol
DOCKED: USER        vdW + Hbond + desolv Energy     =  -13.47 kcal/mol
DOCKED: USER        Electrostatic Energy            =   -4.04 kcal/mol
DOCKED: USER    (2) Final Total Internal Energy     =   -2.00 kcal/mol
DOCKED: USER    (3) Torsional Free Energy           =   +2.98 kcal/mol
DOCKED: USER    (4) Unbound System's Energy  [=(2)] =   -2.00 kcal/mol
DOCKED: USER    
DOCKED: USER    
DOCKED: USER    NEWDPF move heme_Fe_opt.pdbqt
DOCKED: USER    NEWDPF about -0.174000 -0.001000 -0.047000
DOCKED: USER    NEWDPF tran0 -5.094027 -9.602104 -2.267017
DOCKED: USER    NEWDPF quaternion0 0.683129 0.706110 -0.101945 -0.156047
DOCKED: USER    NEWDPF axisangle0 0.691601 0.714868 -0.103209 -162.044918
DOCKED: USER    NEWDPF quat0 0.691601 0.714868 -0.103209 -162.044918
DOCKED: USER    NEWDPF dihe0 -179.88 16.36 66.56 -119.77 165.60 -115.94 -42.95 -75.74 160.04 13.04 
DOCKED: USER  keepresnum = 1 
DOCKED: USER  
DOCKED: REMARK  10 active torsions:
DOCKED: REMARK  status: ('A' for Active; 'I' for Inactive)
DOCKED: REMARK    1  A    between atoms: C_6  and  C_10 
DOCKED: REMARK    2  A    between atoms: C_10  and  C_11 
DOCKED: REMARK    3  A    between atoms: C_11  and  C_12 
DOCKED: REMARK    4  A    between atoms: C_12  and  O_14 
DOCKED: REMARK    5  A    between atoms: C_17  and  C_20 
DOCKED: REMARK    6  A    between atoms: C_24  and  C_27 
DOCKED: REMARK    7  A    between atoms: C_31  and  C_34 
DOCKED: REMARK    8  A    between atoms: C_34  and  C_35 
DOCKED: REMARK    9  A    between atoms: C_35  and  C_36 
DOCKED: REMARK   10  A    between atoms: C_36  and  O_38 
DOCKED: USER                              x       y       z     vdW  Elec       q    Type
DOCKED: USER                           _______ _______ _______ _____ _____    ______ ____
DOCKED: ROOT
DOCKED: ATOM      1  C   UNL d   1      -5.074 -11.643  -2.054 -0.33 +0.08    +0.064 C 
DOCKED: ATOM      2  C   UNL d   1      -8.469  -8.319  -3.417 -0.42 +0.02    +0.064 A 
DOCKED: ATOM      3  C   UNL d   1      -4.970  -5.077  -3.977 -0.44 +0.01    +0.064 C 
DOCKED: ATOM      4  C   UNL d   1      -1.680  -8.248  -2.559 -0.50 +0.02    +0.064 C 
DOCKED: ATOM      5  C   UNL d   1      -6.363 -10.984  -2.305 -0.06 +0.05    +0.066 A 
DOCKED: ATOM      6  C   UNL d   1      -7.602 -11.580  -2.133 -0.23 -0.02    -0.021 A 
DOCKED: ATOM      7  C   UNL d   1      -8.544 -10.657  -2.515 -0.30 -0.01    -0.025 A 
DOCKED: ATOM      8  C   UNL d   1      -7.843  -9.533  -2.906 -0.19 +0.03    +0.066 A 
DOCKED: ATOM      9  C   UNL d   1     -10.030 -10.848  -2.485 -0.41 +0.01    +0.051 C 
DOCKED: ATOM     10  C   UNL d   1      -7.820  -7.201  -3.746 -0.42 +0.02    +0.066 A 
DOCKED: ATOM     11  C   UNL d   1      -8.434  -6.096  -4.340 -0.46 -0.00    -0.021 A 
DOCKED: ATOM     12  C   UNL d   1      -7.443  -5.153  -4.528 -0.48 +0.00    +0.000 A 
DOCKED: ATOM     13  C   UNL d   1      -6.262  -5.741  -4.041 -0.37 +0.02    +0.070 A 
DOCKED: ATOM     14  C   UNL d   1      -9.881  -5.969  -4.772 -0.38 +0.01    +0.052 C 
DOCKED: ATOM     15  C   UNL d   1      -3.820  -5.657  -3.558 -0.38 +0.02    +0.066 A 
DOCKED: ATOM     16  C   UNL d   1      -2.627  -4.960  -3.417 -0.41 -0.00    -0.021 A 
DOCKED: ATOM     17  C   UNL d   1      -1.676  -5.873  -3.011 -0.47 +0.00    +0.000 A 
DOCKED: ATOM     18  C   UNL d   1      -2.312  -7.109  -2.918 -0.41 +0.02    +0.070 A 
DOCKED: ATOM     19  C   UNL d   1      -2.381  -3.498  -3.677 -0.39 +0.01    +0.052 C 
DOCKED: ATOM     20  C   UNL d   1      -2.329  -9.554  -2.391 -0.38 +0.03    +0.066 A 
DOCKED: ATOM     21  C   UNL d   1      -1.661 -10.774  -2.217 -0.31 -0.01    -0.025 A 
DOCKED: ATOM     22  C   UNL d   1      -2.647 -11.726  -2.062 -0.31 -0.02    -0.021 A 
DOCKED: ATOM     23  C   UNL d   1      -3.872 -11.054  -2.154 -0.32 +0.06    +0.066 A 
DOCKED: ATOM     24  C   UNL d   1      -0.174 -11.041  -2.199 -0.33 +0.02    +0.051 C 
DOCKED: ATOM     25  N   UNL d   1      -6.517  -9.732  -2.768 -0.05 -0.13    -0.248 N 
DOCKED: ATOM     26  N   UNL d   1      -6.490  -6.993  -3.573 -0.19 -0.11    -0.248 N 
DOCKED: ATOM     27  N   UNL d   1      -3.639  -6.969  -3.211 -0.23 -0.08    -0.248 N 
DOCKED: ATOM     28  N   UNL d   1      -3.672  -9.736  -2.399 -0.24 -0.14    -0.248 N 
DOCKED: ATOM     29 FE   UNL d   1      -5.079  -8.364  -2.986 -0.09 +0.00    +0.000 Fe
DOCKED: ENDROOT
DOCKED: BRANCH   6  30
DOCKED: ATOM     30  C   UNL d   1      -7.881 -12.948  -1.611 -0.24 +0.05    +0.052 C 
DOCKED: BRANCH  30  31
DOCKED: ATOM     31  C   UNL d   1      -8.416 -13.849  -2.718 -0.12 +0.10    +0.115 C 
DOCKED: BRANCH  31  32
DOCKED: ATOM     32  C   UNL d   1      -7.774 -15.207  -2.648 -0.11 +0.18    +0.139 C 
DOCKED: ATOM     33  O   UNL d   1      -8.245 -16.152  -3.266 -0.02 -0.63    -0.650 OA
DOCKED: BRANCH  32  34
DOCKED: ATOM     34  O   UNL d   1      -6.673 -15.395  -1.902 -0.51 -1.69    -0.776 OA
DOCKED: ATOM     35  H   UNL d   1      -6.304 -14.646  -1.413 +0.03 +0.37    +0.167 HD
DOCKED: ENDBRANCH  32  34
DOCKED: ENDBRANCH  31  32
DOCKED: ENDBRANCH  30  31
DOCKED: ENDBRANCH   6  30
DOCKED: BRANCH  22  36
DOCKED: ATOM     36  C   UNL d   1      -2.423 -13.204  -1.885 -0.20 +0.08    +0.052 C 
DOCKED: BRANCH  36  37
DOCKED: ATOM     37  C   UNL d   1      -2.787 -13.613  -0.466 +0.00 +0.17    +0.115 C 
DOCKED: BRANCH  37  38
DOCKED: ATOM     38  C   UNL d   1      -4.119 -14.308  -0.430 -0.09 +0.29    +0.139 C 
DOCKED: ATOM     39  O   UNL d   1      -5.065 -13.818   0.169 -0.28 -1.43    -0.650 OA
DOCKED: BRANCH  38  40
DOCKED: ATOM     40  O   UNL d   1      -4.278 -15.486  -1.060 +0.05 -1.83    -0.776 OA
DOCKED: ATOM     41  H   UNL d   1      -5.173 -15.809  -1.234 +0.02 +0.41    +0.167 HD
DOCKED: ENDBRANCH  38  40
DOCKED: ENDBRANCH  37  38
DOCKED: ENDBRANCH  36  37
DOCKED: ENDBRANCH  22  36
DOCKED: BRANCH  12  42
DOCKED: ATOM     42  C   UNL d   1      -7.647  -3.807  -5.148 -0.60 +0.00    +0.004 C 
DOCKED: ATOM     43  C   UNL d   1      -7.486  -2.687  -4.432 -0.67 +0.00    +0.012 C 
DOCKED: ENDBRANCH  12  42
DOCKED: BRANCH  17  44
DOCKED: ATOM     44  C   UNL d   1      -0.256  -5.579  -2.713 -0.61 +0.00    +0.004 C 
DOCKED: ATOM     45  C   UNL d   1       0.578  -5.177  -3.678 -0.63 +0.00    +0.012 C 
DOCKED: ENDBRANCH  17  44
DOCKED: TORSDOF 10
DOCKED: TER
DOCKED: ENDMDL
________________________________________________________________________________


	BEGINNING GENETIC ALGORITHM DOCKING 91 of 100
Run: 91 Seed: 1059491554 1302746674 [ Run 91 of 100 GA/GALS ]
Beginning LAMARCKIAN GENETIC ALGORITHM (LGA), with a maximum of 25000000 energy evaluations.

Final-Value: -18.781


	FINAL GENETIC ALGORITHM DOCKED STATE
	_______________________________________________


Detailed state:  trans -5.052 -9.454 -3.169 quatxyzw 0.080998 -0.014239 -0.673817 0.734308 center -0.174 -0.001 -0.047 ntor 10 -98.1087 -141.6259 68.3186 -104.3674 -138.1840 -153.3951 -41.7686 -83.3359 -165.7269 150.4520
State:	 -5.052  -9.454  -3.169   0.119 -0.021 -0.993 85.503    -98.11 -141.63   68.32 -104.37 -138.18 -153.40  -41.77  -83.34 -165.73  150.45

DOCKED: MODEL       91
DOCKED: USER    Run = 91
DOCKED: USER    DPF = D:/Protein_go_brrr/autodock/final/AncA/heme_Fe/dock.dpf
DOCKED: USER  
DOCKED: USER    Estimated Free Energy of Binding    =  -15.18 kcal/mol  [=(1)+(2)+(3)-(4)]
DOCKED: USER    Estimated Inhibition Constant, Ki   =    7.50 pM (picomolar)  [Temperature = 298.15 K]
DOCKED: USER    
DOCKED: USER    (1) Final Intermolecular Energy     =  -18.16 kcal/mol
DOCKED: USER        vdW + Hbond + desolv Energy     =  -14.77 kcal/mol
DOCKED: USER        Electrostatic Energy            =   -3.39 kcal/mol
DOCKED: USER    (2) Final Total Internal Energy     =   -0.62 kcal/mol
DOCKED: USER    (3) Torsional Free Energy           =   +2.98 kcal/mol
DOCKED: USER    (4) Unbound System's Energy  [=(2)] =   -0.62 kcal/mol
DOCKED: USER    
DOCKED: USER    
DOCKED: USER    NEWDPF move heme_Fe_opt.pdbqt
DOCKED: USER    NEWDPF about -0.174000 -0.001000 -0.047000
DOCKED: USER    NEWDPF tran0 -5.051584 -9.454287 -3.168713
DOCKED: USER    NEWDPF quaternion0 0.080998 -0.014239 -0.673817 0.734308
DOCKED: USER    NEWDPF axisangle0 0.119323 -0.020977 -0.992634 85.502530
DOCKED: USER    NEWDPF quat0 0.119323 -0.020977 -0.992634 85.502530
DOCKED: USER    NEWDPF dihe0 -98.11 -141.63 68.32 -104.37 -138.18 -153.40 -41.77 -83.34 -165.73 150.45 
DOCKED: USER  keepresnum = 1 
DOCKED: USER  
DOCKED: REMARK  10 active torsions:
DOCKED: REMARK  status: ('A' for Active; 'I' for Inactive)
DOCKED: REMARK    1  A    between atoms: C_6  and  C_10 
DOCKED: REMARK    2  A    between atoms: C_10  and  C_11 
DOCKED: REMARK    3  A    between atoms: C_11  and  C_12 
DOCKED: REMARK    4  A    between atoms: C_12  and  O_14 
DOCKED: REMARK    5  A    between atoms: C_17  and  C_20 
DOCKED: REMARK    6  A    between atoms: C_24  and  C_27 
DOCKED: REMARK    7  A    between atoms: C_31  and  C_34 
DOCKED: REMARK    8  A    between atoms: C_34  and  C_35 
DOCKED: REMARK    9  A    between atoms: C_35  and  C_36 
DOCKED: REMARK   10  A    between atoms: C_36  and  O_38 
DOCKED: USER                              x       y       z     vdW  Elec       q    Type
DOCKED: USER                           _______ _______ _______ _____ _____    ______ ____
DOCKED: ROOT
DOCKED: ATOM      1  C   UNL d   1      -5.221 -11.341  -2.380 -0.35 +0.07    +0.064 C 
DOCKED: ATOM      2  C   UNL d   1      -1.572  -8.025  -2.715 -0.43 +0.02    +0.064 A 
DOCKED: ATOM      3  C   UNL d   1      -4.819  -4.667  -3.834 -0.42 +0.01    +0.064 C 
DOCKED: ATOM      4  C   UNL d   1      -8.354  -7.883  -3.618 -0.49 +0.02    +0.064 C 
DOCKED: ATOM      5  C   UNL d   1      -3.884 -10.737  -2.453 -0.34 +0.05    +0.066 A 
DOCKED: ATOM      6  C   UNL d   1      -2.694 -11.430  -2.298 -0.32 -0.02    -0.021 A 
DOCKED: ATOM      7  C   UNL d   1      -1.681 -10.508  -2.387 -0.26 -0.01    -0.025 A 
DOCKED: ATOM      8  C   UNL d   1      -2.292  -9.286  -2.594 -0.38 +0.03    +0.066 A 
DOCKED: ATOM      9  C   UNL d   1      -0.214 -10.796  -2.298 -0.33 +0.02    +0.051 C 
DOCKED: ATOM     10  C   UNL d   1      -2.133  -6.842  -2.971 -0.42 +0.02    +0.066 A 
DOCKED: ATOM     11  C   UNL d   1      -1.430  -5.634  -2.968 -0.46 -0.00    -0.021 A 
DOCKED: ATOM     12  C   UNL d   1      -2.348  -4.648  -3.271 -0.41 +0.00    +0.000 A 
DOCKED: ATOM     13  C   UNL d   1      -3.576  -5.311  -3.438 -0.38 +0.01    +0.070 A 
DOCKED: ATOM     14  C   UNL d   1       0.030  -5.421  -2.625 -0.54 +0.01    +0.052 C 
DOCKED: ATOM     15  C   UNL d   1      -6.015  -5.292  -3.944 -0.39 +0.02    +0.066 A 
DOCKED: ATOM     16  C   UNL d   1      -7.158  -4.663  -4.421 -0.46 -0.00    -0.021 A 
DOCKED: ATOM     17  C   UNL d   1      -8.180  -5.588  -4.357 -0.48 +0.00    +0.000 A 
DOCKED: ATOM     18  C   UNL d   1      -7.636  -6.760  -3.837 -0.42 +0.02    +0.070 A 
DOCKED: ATOM     19  C   UNL d   1      -7.294  -3.242  -4.896 -0.61 +0.01    +0.052 C 
DOCKED: ATOM     20  C   UNL d   1      -7.803  -9.154  -3.131 -0.34 +0.02    +0.066 A 
DOCKED: ATOM     21  C   UNL d   1      -8.560 -10.257  -2.711 -0.33 -0.01    -0.025 A 
DOCKED: ATOM     22  C   UNL d   1      -7.647 -11.235  -2.375 -0.22 -0.01    -0.021 A 
DOCKED: ATOM     23  C   UNL d   1      -6.376 -10.691  -2.595 -0.05 +0.05    +0.066 A 
DOCKED: ATOM     24  C   UNL d   1     -10.062 -10.392  -2.624 -0.46 +0.01    +0.051 C 
DOCKED: ATOM     25  N   UNL d   1      -3.632  -9.431  -2.643 -0.24 -0.12    -0.248 N 
DOCKED: ATOM     26  N   UNL d   1      -3.448  -6.646  -3.246 -0.24 -0.07    -0.248 N 
DOCKED: ATOM     27  N   UNL d   1      -6.296  -6.593  -3.624 -0.20 -0.10    -0.248 N 
DOCKED: ATOM     28  N   UNL d   1      -6.477  -9.406  -3.013 -0.16 -0.12    -0.248 N 
DOCKED: ATOM     29 FE   UNL d   1      -4.964  -8.026  -3.130 -0.09 +0.00    +0.000 Fe
DOCKED: ENDROOT
DOCKED: BRANCH   6  30
DOCKED: ATOM     30  C   UNL d   1      -2.524 -12.897  -2.097 -0.21 +0.08    +0.052 C 
DOCKED: BRANCH  30  31
DOCKED: ATOM     31  C   UNL d   1      -2.867 -13.289  -0.663 -0.14 +0.16    +0.115 C 
DOCKED: BRANCH  31  32
DOCKED: ATOM     32  C   UNL d   1      -3.660 -14.566  -0.642 -0.13 +0.28    +0.139 C 
DOCKED: ATOM     33  O   UNL d   1      -4.616 -14.693   0.110 -0.45 -1.56    -0.650 OA
DOCKED: BRANCH  32  34
DOCKED: ATOM     34  O   UNL d   1      -3.323 -15.583  -1.453 +0.14 -1.74    -0.776 OA
DOCKED: ATOM     35  H   UNL d   1      -2.608 -16.179  -1.186 +0.02 +0.25    +0.167 HD
DOCKED: ENDBRANCH  32  34
DOCKED: ENDBRANCH  31  32
DOCKED: ENDBRANCH  30  31
DOCKED: ENDBRANCH   6  30
DOCKED: BRANCH  22  36
DOCKED: ATOM     36  C   UNL d   1      -7.980 -12.598  -1.827 -0.26 +0.04    +0.052 C 
DOCKED: BRANCH  36  37
DOCKED: ATOM     37  C   UNL d   1      -7.501 -12.702  -0.386 -0.22 +0.11    +0.115 C 
DOCKED: BRANCH  37  38
DOCKED: ATOM     38  C   UNL d   1      -8.614 -12.393   0.575 -0.26 +0.11    +0.139 C 
DOCKED: ATOM     39  O   UNL d   1      -8.373 -11.955   1.690 -0.51 -0.61    -0.650 OA
DOCKED: BRANCH  38  40
DOCKED: ATOM     40  O   UNL d   1      -9.892 -12.602   0.212 -0.44 -0.51    -0.776 OA
DOCKED: ATOM     41  H   UNL d   1     -10.107 -13.380  -0.322 +0.06 +0.10    +0.167 HD
DOCKED: ENDBRANCH  38  40
DOCKED: ENDBRANCH  37  38
DOCKED: ENDBRANCH  36  37
DOCKED: ENDBRANCH  22  36
DOCKED: BRANCH  12  42
DOCKED: ATOM     42  C   UNL d   1      -2.035  -3.188  -3.367 -0.42 +0.00    +0.004 C 
DOCKED: ATOM     43  C   UNL d   1      -2.164  -2.530  -4.526 -0.56 +0.00    +0.012 C 
DOCKED: ENDBRANCH  12  42
DOCKED: BRANCH  17  44
DOCKED: ATOM     44  C   UNL d   1      -9.580  -5.371  -4.784 -0.53 +0.00    +0.004 C 
DOCKED: ATOM     45  C   UNL d   1     -10.267  -4.305  -4.362 -0.64 +0.00    +0.012 C 
DOCKED: ENDBRANCH  17  44
DOCKED: TORSDOF 10
DOCKED: TER
DOCKED: ENDMDL
________________________________________________________________________________


	BEGINNING GENETIC ALGORITHM DOCKING 92 of 100
Run: 92 Seed: 2144597565 461599548 [ Run 92 of 100 GA/GALS ]
Beginning LAMARCKIAN GENETIC ALGORITHM (LGA), with a maximum of 25000000 energy evaluations.

Final-Value: -18.519


	FINAL GENETIC ALGORITHM DOCKED STATE
	_______________________________________________


Detailed state:  trans -4.874 -9.168 -3.249 quatxyzw -0.078897 0.009720 0.672064 -0.736214 center -0.174 -0.001 -0.047 ntor 10 -95.0284 -118.8307 79.1828 -107.0743 -24.5599 -56.6794 3.5086 -70.1710 -140.9379 79.0705
State:	 -4.874  -9.168  -3.249  -0.117  0.014  0.993 -85.180    -95.03 -118.83   79.18 -107.07  -24.56  -56.68    3.51  -70.17 -140.94   79.07

DOCKED: MODEL       92
DOCKED: USER    Run = 92
DOCKED: USER    DPF = D:/Protein_go_brrr/autodock/final/AncA/heme_Fe/dock.dpf
DOCKED: USER  
DOCKED: USER    Estimated Free Energy of Binding    =  -14.89 kcal/mol  [=(1)+(2)+(3)-(4)]
DOCKED: USER    Estimated Inhibition Constant, Ki   =   12.11 pM (picomolar)  [Temperature = 298.15 K]
DOCKED: USER    
DOCKED: USER    (1) Final Intermolecular Energy     =  -17.88 kcal/mol
DOCKED: USER        vdW + Hbond + desolv Energy     =  -14.29 kcal/mol
DOCKED: USER        Electrostatic Energy            =   -3.59 kcal/mol
DOCKED: USER    (2) Final Total Internal Energy     =   -0.64 kcal/mol
DOCKED: USER    (3) Torsional Free Energy           =   +2.98 kcal/mol
DOCKED: USER    (4) Unbound System's Energy  [=(2)] =   -0.64 kcal/mol
DOCKED: USER    
DOCKED: USER    
DOCKED: USER    NEWDPF move heme_Fe_opt.pdbqt
DOCKED: USER    NEWDPF about -0.174000 -0.001000 -0.047000
DOCKED: USER    NEWDPF tran0 -4.874102 -9.168319 -3.248700
DOCKED: USER    NEWDPF quaternion0 -0.078897 0.009720 0.672064 -0.736214
DOCKED: USER    NEWDPF axisangle0 -0.116583 0.014363 0.993077 -85.180168
DOCKED: USER    NEWDPF quat0 -0.116583 0.014363 0.993077 -85.180168
DOCKED: USER    NEWDPF dihe0 -95.03 -118.83 79.18 -107.07 -24.56 -56.68 3.51 -70.17 -140.94 79.07 
DOCKED: USER  keepresnum = 1 
DOCKED: USER  
DOCKED: REMARK  10 active torsions:
DOCKED: REMARK  status: ('A' for Active; 'I' for Inactive)
DOCKED: REMARK    1  A    between atoms: C_6  and  C_10 
DOCKED: REMARK    2  A    between atoms: C_10  and  C_11 
DOCKED: REMARK    3  A    between atoms: C_11  and  C_12 
DOCKED: REMARK    4  A    between atoms: C_12  and  O_14 
DOCKED: REMARK    5  A    between atoms: C_17  and  C_20 
DOCKED: REMARK    6  A    between atoms: C_24  and  C_27 
DOCKED: REMARK    7  A    between atoms: C_31  and  C_34 
DOCKED: REMARK    8  A    between atoms: C_34  and  C_35 
DOCKED: REMARK    9  A    between atoms: C_35  and  C_36 
DOCKED: REMARK   10  A    between atoms: C_36  and  O_38 
DOCKED: USER                              x       y       z     vdW  Elec       q    Type
DOCKED: USER                           _______ _______ _______ _____ _____    ______ ____
DOCKED: ROOT
DOCKED: ATOM      1  C   UNL d   1      -5.056 -11.062  -2.479 -0.37 +0.06    +0.064 C 
DOCKED: ATOM      2  C   UNL d   1      -1.390  -7.759  -2.767 -0.44 +0.02    +0.064 A 
DOCKED: ATOM      3  C   UNL d   1      -4.617  -4.376  -3.867 -0.36 +0.01    +0.064 C 
DOCKED: ATOM      4  C   UNL d   1      -8.167  -7.579  -3.697 -0.49 +0.02    +0.064 C 
DOCKED: ATOM      5  C   UNL d   1      -3.715 -10.463  -2.540 -0.34 +0.05    +0.066 A 
DOCKED: ATOM      6  C   UNL d   1      -2.529 -11.163  -2.387 -0.32 -0.02    -0.021 A 
DOCKED: ATOM      7  C   UNL d   1      -1.512 -10.244  -2.463 -0.24 -0.01    -0.025 A 
DOCKED: ATOM      8  C   UNL d   1      -2.117  -9.018  -2.661 -0.39 +0.02    +0.066 A 
DOCKED: ATOM      9  C   UNL d   1      -0.046 -10.540  -2.370 -0.29 +0.02    +0.051 C 
DOCKED: ATOM     10  C   UNL d   1      -1.944  -6.571  -3.015 -0.42 +0.02    +0.066 A 
DOCKED: ATOM     11  C   UNL d   1      -1.236  -5.366  -2.997 -0.46 -0.00    -0.021 A 
DOCKED: ATOM     12  C   UNL d   1      -2.148  -4.373  -3.295 -0.41 +0.00    +0.000 A 
DOCKED: ATOM     13  C   UNL d   1      -3.379  -5.029  -3.472 -0.37 +0.01    +0.070 A 
DOCKED: ATOM     14  C   UNL d   1       0.223  -5.164  -2.646 -0.56 +0.00    +0.052 C 
DOCKED: ATOM     15  C   UNL d   1      -5.816  -4.995  -3.989 -0.39 +0.01    +0.066 A 
DOCKED: ATOM     16  C   UNL d   1      -6.954  -4.356  -4.465 -0.46 -0.00    -0.021 A 
DOCKED: ATOM     17  C   UNL d   1      -7.980  -5.277  -4.413 -0.48 +0.00    +0.000 A 
DOCKED: ATOM     18  C   UNL d   1      -7.443  -6.457  -3.902 -0.41 +0.02    +0.070 A 
DOCKED: ATOM     19  C   UNL d   1      -7.081  -2.930  -4.927 -0.62 +0.01    +0.052 C 
DOCKED: ATOM     20  C   UNL d   1      -7.624  -8.856  -3.219 -0.35 +0.02    +0.066 A 
DOCKED: ATOM     21  C   UNL d   1      -8.388  -9.959  -2.813 -0.32 -0.01    -0.025 A 
DOCKED: ATOM     22  C   UNL d   1      -7.481 -10.945  -2.483 -0.14 -0.01    -0.021 A 
DOCKED: ATOM     23  C   UNL d   1      -6.206 -10.405  -2.692 -0.10 +0.04    +0.066 A 
DOCKED: ATOM     24  C   UNL d   1      -9.891 -10.088  -2.734 -0.47 +0.01    +0.051 C 
DOCKED: ATOM     25  N   UNL d   1      -3.456  -9.156  -2.717 -0.25 -0.11    -0.248 N 
DOCKED: ATOM     26  N   UNL d   1      -3.257  -6.367  -3.293 -0.25 -0.06    -0.248 N 
DOCKED: ATOM     27  N   UNL d   1      -6.104  -6.297  -3.682 -0.22 -0.10    -0.248 N 
DOCKED: ATOM     28  N   UNL d   1      -6.300  -9.115  -3.098 -0.21 -0.12    -0.248 N 
DOCKED: ATOM     29 FE   UNL d   1      -4.781  -7.741  -3.196 -0.09 +0.00    +0.000 Fe
DOCKED: ENDROOT
DOCKED: BRANCH   6  30
DOCKED: ATOM     30  C   UNL d   1      -2.367 -12.632  -2.199 -0.27 +0.07    +0.052 C 
DOCKED: BRANCH  30  31
DOCKED: ATOM     31  C   UNL d   1      -3.248 -13.132  -1.059 -0.22 +0.18    +0.115 C 
DOCKED: BRANCH  31  32
DOCKED: ATOM     32  C   UNL d   1      -3.016 -14.597  -0.818 -0.14 +0.25    +0.139 C 
DOCKED: ATOM     33  O   UNL d   1      -2.591 -15.317  -1.711 -0.02 -1.28    -0.650 OA
DOCKED: BRANCH  32  34
DOCKED: ATOM     34  O   UNL d   1      -3.274 -15.132   0.388 -0.03 -1.41    -0.776 OA
DOCKED: ATOM     35  H   UNL d   1      -4.176 -15.417   0.591 +0.01 +0.40    +0.167 HD
DOCKED: ENDBRANCH  32  34
DOCKED: ENDBRANCH  31  32
DOCKED: ENDBRANCH  30  31
DOCKED: ENDBRANCH   6  30
DOCKED: BRANCH  22  36
DOCKED: ATOM     36  C   UNL d   1      -7.822 -12.311  -1.949 -0.28 +0.04    +0.052 C 
DOCKED: BRANCH  36  37
DOCKED: ATOM     37  C   UNL d   1      -6.552 -13.135  -1.796 -0.18 +0.18    +0.115 C 
DOCKED: BRANCH  37  38
DOCKED: ATOM     38  C   UNL d   1      -6.206 -13.329  -0.347 -0.23 +0.22    +0.139 C 
DOCKED: ATOM     39  O   UNL d   1      -6.047 -12.369   0.392 -0.09 -0.88    -0.650 OA
DOCKED: BRANCH  38  40
DOCKED: ATOM     40  O   UNL d   1      -6.064 -14.571   0.148 -0.46 -1.61    -0.776 OA
DOCKED: ATOM     41  H   UNL d   1      -5.380 -15.149  -0.218 +0.02 +0.36    +0.167 HD
DOCKED: ENDBRANCH  38  40
DOCKED: ENDBRANCH  37  38
DOCKED: ENDBRANCH  36  37
DOCKED: ENDBRANCH  22  36
DOCKED: BRANCH  12  42
DOCKED: ATOM     42  C   UNL d   1      -1.829  -2.914  -3.375 -0.45 +0.00    +0.004 C 
DOCKED: ATOM     43  C   UNL d   1      -2.151  -2.197  -4.460 -0.58 +0.00    +0.012 C 
DOCKED: ENDBRANCH  12  42
DOCKED: BRANCH  17  44
DOCKED: ATOM     44  C   UNL d   1      -9.378  -5.050  -4.844 -0.47 +0.00    +0.004 C 
DOCKED: ATOM     45  C   UNL d   1     -10.080  -4.014  -4.373 -0.68 +0.00    +0.012 C 
DOCKED: ENDBRANCH  17  44
DOCKED: TORSDOF 10
DOCKED: TER
DOCKED: ENDMDL
________________________________________________________________________________


	BEGINNING GENETIC ALGORITHM DOCKING 93 of 100
Run: 93 Seed: 1862548769 1477013792 [ Run 93 of 100 GA/GALS ]
Beginning LAMARCKIAN GENETIC ALGORITHM (LGA), with a maximum of 25000000 energy evaluations.

Final-Value: -19.627


	FINAL GENETIC ALGORITHM DOCKED STATE
	_______________________________________________


Detailed state:  trans -5.321 -9.051 -3.285 quatxyzw -0.092123 0.014659 0.655274 -0.749609 center -0.174 -0.001 -0.047 ntor 10 84.9595 67.9898 70.9870 -123.4188 121.9725 -88.4109 -42.0367 63.1936 -172.0577 180.0000
State:	 -5.321  -9.051  -3.285  -0.139  0.022  0.990 -82.887     84.96   67.99   70.99 -123.42  121.97  -88.41  -42.04   63.19 -172.06  180.00

DOCKED: MODEL       93
DOCKED: USER    Run = 93
DOCKED: USER    DPF = D:/Protein_go_brrr/autodock/final/AncA/heme_Fe/dock.dpf
DOCKED: USER  
DOCKED: USER    Estimated Free Energy of Binding    =  -14.54 kcal/mol  [=(1)+(2)+(3)-(4)]
DOCKED: USER    Estimated Inhibition Constant, Ki   =   22.00 pM (picomolar)  [Temperature = 298.15 K]
DOCKED: USER    
DOCKED: USER    (1) Final Intermolecular Energy     =  -17.52 kcal/mol
DOCKED: USER        vdW + Hbond + desolv Energy     =  -13.91 kcal/mol
DOCKED: USER        Electrostatic Energy            =   -3.61 kcal/mol
DOCKED: USER    (2) Final Total Internal Energy     =   -2.10 kcal/mol
DOCKED: USER    (3) Torsional Free Energy           =   +2.98 kcal/mol
DOCKED: USER    (4) Unbound System's Energy  [=(2)] =   -2.10 kcal/mol
DOCKED: USER    
DOCKED: USER    
DOCKED: USER    NEWDPF move heme_Fe_opt.pdbqt
DOCKED: USER    NEWDPF about -0.174000 -0.001000 -0.047000
DOCKED: USER    NEWDPF tran0 -5.321325 -9.050828 -3.284539
DOCKED: USER    NEWDPF quaternion0 -0.092123 0.014659 0.655274 -0.749609
DOCKED: USER    NEWDPF axisangle0 -0.139183 0.022147 0.990019 -82.886932
DOCKED: USER    NEWDPF quat0 -0.139183 0.022147 0.990019 -82.886932
DOCKED: USER    NEWDPF dihe0 84.96 67.99 70.99 -123.42 121.97 -88.41 -42.04 63.19 -172.06 180.00 
DOCKED: USER  keepresnum = 1 
DOCKED: USER  
DOCKED: REMARK  10 active torsions:
DOCKED: REMARK  status: ('A' for Active; 'I' for Inactive)
DOCKED: REMARK    1  A    between atoms: C_6  and  C_10 
DOCKED: REMARK    2  A    between atoms: C_10  and  C_11 
DOCKED: REMARK    3  A    between atoms: C_11  and  C_12 
DOCKED: REMARK    4  A    between atoms: C_12  and  O_14 
DOCKED: REMARK    5  A    between atoms: C_17  and  C_20 
DOCKED: REMARK    6  A    between atoms: C_24  and  C_27 
DOCKED: REMARK    7  A    between atoms: C_31  and  C_34 
DOCKED: REMARK    8  A    between atoms: C_34  and  C_35 
DOCKED: REMARK    9  A    between atoms: C_35  and  C_36 
DOCKED: REMARK   10  A    between atoms: C_36  and  O_38 
DOCKED: USER                              x       y       z     vdW  Elec       q    Type
DOCKED: USER                           _______ _______ _______ _____ _____    ______ ____
DOCKED: ROOT
DOCKED: ATOM      1  C   UNL d   1      -5.595 -10.915  -2.472 -0.30 +0.05    +0.064 C 
DOCKED: ATOM      2  C   UNL d   1      -1.786  -7.781  -2.789 -0.44 +0.02    +0.064 A 
DOCKED: ATOM      3  C   UNL d   1      -4.849  -4.291  -4.014 -0.39 +0.01    +0.064 C 
DOCKED: ATOM      4  C   UNL d   1      -8.536  -7.332  -3.817 -0.49 +0.02    +0.064 C 
DOCKED: ATOM      5  C   UNL d   1      -4.229 -10.377  -2.529 -0.34 +0.05    +0.066 A 
DOCKED: ATOM      6  C   UNL d   1      -3.076 -11.123  -2.343 -0.34 -0.02    -0.021 A 
DOCKED: ATOM      7  C   UNL d   1      -2.019 -10.251  -2.427 -0.31 -0.01    -0.025 A 
DOCKED: ATOM      8  C   UNL d   1      -2.568  -9.005  -2.662 -0.38 +0.03    +0.066 A 
DOCKED: ATOM      9  C   UNL d   1      -0.569 -10.607  -2.306 -0.33 +0.02    +0.051 C 
DOCKED: ATOM     10  C   UNL d   1      -2.285  -6.577  -3.072 -0.41 +0.02    +0.066 A 
DOCKED: ATOM     11  C   UNL d   1      -1.526  -5.404  -3.074 -0.45 -0.00    -0.021 A 
DOCKED: ATOM     12  C   UNL d   1      -2.390  -4.380  -3.408 -0.41 +0.00    +0.000 A 
DOCKED: ATOM     13  C   UNL d   1      -3.645  -4.986  -3.587 -0.37 +0.01    +0.070 A 
DOCKED: ATOM     14  C   UNL d   1      -0.063  -5.256  -2.707 -0.59 +0.01    +0.052 C 
DOCKED: ATOM     15  C   UNL d   1      -6.071  -4.860  -4.138 -0.39 +0.01    +0.066 A 
DOCKED: ATOM     16  C   UNL d   1      -7.175  -4.185  -4.645 -0.48 -0.00    -0.021 A 
DOCKED: ATOM     17  C   UNL d   1      -8.240  -5.059  -4.585 -0.47 +0.00    +0.000 A 
DOCKED: ATOM     18  C   UNL d   1      -7.762  -6.248  -4.039 -0.42 +0.02    +0.070 A 
DOCKED: ATOM     19  C   UNL d   1      -7.234  -2.766  -5.142 -0.61 +0.01    +0.052 C 
DOCKED: ATOM     20  C   UNL d   1      -8.056  -8.619  -3.301 -0.39 +0.02    +0.066 A 
DOCKED: ATOM     21  C   UNL d   1      -8.871  -9.679  -2.879 -0.39 -0.01    -0.025 A 
DOCKED: ATOM     22  C   UNL d   1      -8.012 -10.694  -2.512 -0.19 -0.01    -0.021 A 
DOCKED: ATOM     23  C   UNL d   1      -6.713 -10.214  -2.717 +0.00 +0.04    +0.066 A 
DOCKED: ATOM     24  C   UNL d   1     -10.380  -9.741  -2.817 -0.52 +0.01    +0.051 C 
DOCKED: ATOM     25  N   UNL d   1      -3.911  -9.086  -2.733 -0.24 -0.12    -0.248 N 
DOCKED: ATOM     26  N   UNL d   1      -3.584  -6.324  -3.374 -0.25 -0.07    -0.248 N 
DOCKED: ATOM     27  N   UNL d   1      -6.419  -6.141  -3.804 -0.25 -0.08    -0.248 N 
DOCKED: ATOM     28  N   UNL d   1      -6.745  -8.933  -3.156 -0.23 -0.11    -0.248 N 
DOCKED: ATOM     29 FE   UNL d   1      -5.167  -7.628  -3.265 -0.09 +0.00    +0.000 Fe
DOCKED: ENDROOT
DOCKED: BRANCH   6  30
DOCKED: ATOM     30  C   UNL d   1      -2.980 -12.593  -2.117 -0.14 +0.08    +0.052 C 
DOCKED: BRANCH  30  31
DOCKED: ATOM     31  C   UNL d   1      -3.213 -12.930  -0.648 -0.09 +0.16    +0.115 C 
DOCKED: BRANCH  31  32
DOCKED: ATOM     32  C   UNL d   1      -4.085 -14.149  -0.520 -0.10 +0.28    +0.139 C 
DOCKED: ATOM     33  O   UNL d   1      -3.690 -15.137   0.082 -0.22 -1.27    -0.650 OA
DOCKED: BRANCH  32  34
DOCKED: ATOM     34  O   UNL d   1      -5.311 -14.162  -1.070 -0.07 -1.82    -0.776 OA
DOCKED: ATOM     35  H   UNL d   1      -6.073 -13.930  -0.522 +0.04 +0.30    +0.167 HD
DOCKED: ENDBRANCH  32  34
DOCKED: ENDBRANCH  31  32
DOCKED: ENDBRANCH  30  31
DOCKED: ENDBRANCH   6  30
DOCKED: BRANCH  22  36
DOCKED: ATOM     36  C   UNL d   1      -8.419 -12.031  -1.950 -0.28 +0.03    +0.052 C 
DOCKED: BRANCH  36  37
DOCKED: ATOM     37  C   UNL d   1      -8.663 -11.906  -0.454 -0.25 +0.07    +0.115 C 
DOCKED: BRANCH  37  38
DOCKED: ATOM     38  C   UNL d   1      -7.706 -12.766   0.322 -0.22 +0.14    +0.139 C 
DOCKED: ATOM     39  O   UNL d   1      -7.977 -13.930   0.576 +0.03 -0.71    -0.650 OA
DOCKED: BRANCH  38  40
DOCKED: ATOM     40  O   UNL d   1      -6.537 -12.254   0.747 -0.12 -1.03    -0.776 OA
DOCKED: ATOM     41  H   UNL d   1      -5.712 -12.581   0.359 +0.05 +0.25    +0.167 HD
DOCKED: ENDBRANCH  38  40
DOCKED: ENDBRANCH  37  38
DOCKED: ENDBRANCH  36  37
DOCKED: ENDBRANCH  22  36
DOCKED: BRANCH  12  42
DOCKED: ATOM     42  C   UNL d   1      -2.007  -2.939  -3.519 -0.44 +0.00    +0.004 C 
DOCKED: ATOM     43  C   UNL d   1      -2.134  -2.279  -4.678 -0.59 +0.00    +0.012 C 
DOCKED: ENDBRANCH  12  42
DOCKED: BRANCH  17  44
DOCKED: ATOM     44  C   UNL d   1      -9.621  -4.782  -5.041 -0.32 +0.00    +0.004 C 
DOCKED: ATOM     45  C   UNL d   1     -10.399  -3.916  -4.383 -0.69 +0.00    +0.012 C 
DOCKED: ENDBRANCH  17  44
DOCKED: TORSDOF 10
DOCKED: TER
DOCKED: ENDMDL
________________________________________________________________________________


	BEGINNING GENETIC ALGORITHM DOCKING 94 of 100
Run: 94 Seed: 865527878 560803474 [ Run 94 of 100 GA/GALS ]
Beginning LAMARCKIAN GENETIC ALGORITHM (LGA), with a maximum of 25000000 energy evaluations.

Final-Value: -17.248


	FINAL GENETIC ALGORITHM DOCKED STATE
	_______________________________________________


Detailed state:  trans -4.524 -8.083 -3.331 quatxyzw -0.050384 0.143054 0.976152 -0.155318 center -0.174 -0.001 -0.047 ntor 10 -144.8502 152.2910 -122.4118 -138.7519 161.2542 80.8199 -25.4919 133.7513 35.9226 -7.7240
State:	 -4.524  -8.083  -3.331  -0.051  0.145  0.988 -162.130   -144.85  152.29 -122.41 -138.75  161.25   80.82  -25.49  133.75   35.92   -7.72

DOCKED: MODEL       94
DOCKED: USER    Run = 94
DOCKED: USER    DPF = D:/Protein_go_brrr/autodock/final/AncA/heme_Fe/dock.dpf
DOCKED: USER  
DOCKED: USER    Estimated Free Energy of Binding    =  -13.89 kcal/mol  [=(1)+(2)+(3)-(4)]
DOCKED: USER    Estimated Inhibition Constant, Ki   =   66.13 pM (picomolar)  [Temperature = 298.15 K]
DOCKED: USER    
DOCKED: USER    (1) Final Intermolecular Energy     =  -16.87 kcal/mol
DOCKED: USER        vdW + Hbond + desolv Energy     =  -14.69 kcal/mol
DOCKED: USER        Electrostatic Energy            =   -2.18 kcal/mol
DOCKED: USER    (2) Final Total Internal Energy     =   -0.38 kcal/mol
DOCKED: USER    (3) Torsional Free Energy           =   +2.98 kcal/mol
DOCKED: USER    (4) Unbound System's Energy  [=(2)] =   -0.38 kcal/mol
DOCKED: USER    
DOCKED: USER    
DOCKED: USER    NEWDPF move heme_Fe_opt.pdbqt
DOCKED: USER    NEWDPF about -0.174000 -0.001000 -0.047000
DOCKED: USER    NEWDPF tran0 -4.524116 -8.082928 -3.330792
DOCKED: USER    NEWDPF quaternion0 -0.050384 0.143054 0.976152 -0.155318
DOCKED: USER    NEWDPF axisangle0 -0.051003 0.144811 0.988144 -162.129495
DOCKED: USER    NEWDPF quat0 -0.051003 0.144811 0.988144 -162.129495
DOCKED: USER    NEWDPF dihe0 -144.85 152.29 -122.41 -138.75 161.25 80.82 -25.49 133.75 35.92 -7.72 
DOCKED: USER  keepresnum = 1 
DOCKED: USER  
DOCKED: REMARK  10 active torsions:
DOCKED: REMARK  status: ('A' for Active; 'I' for Inactive)
DOCKED: REMARK    1  A    between atoms: C_6  and  C_10 
DOCKED: REMARK    2  A    between atoms: C_10  and  C_11 
DOCKED: REMARK    3  A    between atoms: C_11  and  C_12 
DOCKED: REMARK    4  A    between atoms: C_12  and  O_14 
DOCKED: REMARK    5  A    between atoms: C_17  and  C_20 
DOCKED: REMARK    6  A    between atoms: C_24  and  C_27 
DOCKED: REMARK    7  A    between atoms: C_31  and  C_34 
DOCKED: REMARK    8  A    between atoms: C_34  and  C_35 
DOCKED: REMARK    9  A    between atoms: C_35  and  C_36 
DOCKED: REMARK   10  A    between atoms: C_36  and  O_38 
DOCKED: USER                              x       y       z     vdW  Elec       q    Type
DOCKED: USER                           _______ _______ _______ _____ _____    ______ ____
DOCKED: ROOT
DOCKED: ATOM      1  C   UNL d   1      -2.659  -8.444  -2.556 -0.47 +0.02    +0.064 C 
DOCKED: ATOM      2  C   UNL d   1      -5.049  -4.418  -4.139 -0.37 +0.01    +0.064 A 
DOCKED: ATOM      3  C   UNL d   1      -9.167  -6.885  -3.979 -0.48 +0.01    +0.064 C 
DOCKED: ATOM      4  C   UNL d   1      -6.859 -10.823  -2.547 -0.07 +0.04    +0.064 C 
DOCKED: ATOM      5  C   UNL d   1      -2.938  -7.107  -3.096 -0.38 +0.02    +0.066 A 
DOCKED: ATOM      6  C   UNL d   1      -1.975  -6.154  -3.387 -0.45 -0.00    -0.021 A 
DOCKED: ATOM      7  C   UNL d   1      -2.640  -5.035  -3.823 -0.42 -0.00    -0.025 A 
DOCKED: ATOM      8  C   UNL d   1      -3.985  -5.348  -3.782 -0.39 +0.01    +0.066 A 
DOCKED: ATOM      9  C   UNL d   1      -2.010  -3.752  -4.269 -0.44 +0.01    +0.051 C 
DOCKED: ATOM     10  C   UNL d   1      -6.350  -4.713  -4.164 -0.40 +0.01    +0.066 A 
DOCKED: ATOM     11  C   UNL d   1      -7.354  -3.770  -4.399 -0.50 -0.00    -0.021 A 
DOCKED: ATOM     12  C   UNL d   1      -8.552  -4.453  -4.341 -0.51 +0.00    +0.000 A 
DOCKED: ATOM     13  C   UNL d   1      -8.215  -5.789  -4.063 -0.41 +0.02    +0.070 A 
DOCKED: ATOM     14  C   UNL d   1      -7.184  -2.278  -4.600 -0.61 +0.00    +0.052 C 
DOCKED: ATOM     15  C   UNL d   1      -8.853  -8.163  -3.661 -0.44 +0.02    +0.066 A 
DOCKED: ATOM     16  C   UNL d   1      -9.776  -9.201  -3.689 -0.48 -0.00    -0.021 A 
DOCKED: ATOM     17  C   UNL d   1      -9.113 -10.337  -3.273 -0.32 +0.00    +0.000 A 
DOCKED: ATOM     18  C   UNL d   1      -7.800  -9.964  -2.996 -0.17 +0.03    +0.070 A 
DOCKED: ATOM     19  C   UNL d   1     -11.231  -9.126  -4.067 -0.44 +0.00    +0.052 C 
DOCKED: ATOM     20  C   UNL d   1      -5.453 -10.480  -2.305 -0.09 +0.05    +0.066 A 
DOCKED: ATOM     21  C   UNL d   1      -4.519 -11.300  -1.654 -0.32 -0.02    -0.025 A 
DOCKED: ATOM     22  C   UNL d   1      -3.326 -10.608  -1.679 -0.37 -0.01    -0.021 A 
DOCKED: ATOM     23  C   UNL d   1      -3.578  -9.397  -2.334 -0.38 +0.03    +0.066 A 
DOCKED: ATOM     24  C   UNL d   1      -4.731 -12.663  -1.036 -0.30 +0.08    +0.051 C 
DOCKED: ATOM     25  N   UNL d   1      -4.163  -6.612  -3.349 -0.19 -0.09    -0.248 N 
DOCKED: ATOM     26  N   UNL d   1      -6.873  -5.946  -3.946 -0.26 -0.07    -0.248 N 
DOCKED: ATOM     27  N   UNL d   1      -7.627  -8.637  -3.276 -0.27 -0.09    -0.248 N 
DOCKED: ATOM     28  N   UNL d   1      -4.887  -9.305  -2.674 -0.23 -0.13    -0.248 N 
DOCKED: ATOM     29 FE   UNL d   1      -5.881  -7.628  -3.309 -0.09 +0.00    +0.000 Fe
DOCKED: ENDROOT
DOCKED: BRANCH   6  30
DOCKED: ATOM     30  C   UNL d   1      -0.496  -6.304  -3.277 -0.52 +0.01    +0.052 C 
DOCKED: BRANCH  30  31
DOCKED: ATOM     31  C   UNL d   1       0.181  -5.967  -4.600 -0.34 +0.02    +0.115 C 
DOCKED: BRANCH  31  32
DOCKED: ATOM     32  C   UNL d   1       1.596  -5.516  -4.367 -0.54 +0.02    +0.139 C 
DOCKED: ATOM     33  O   UNL d   1       2.412  -5.526  -5.279 -0.09 -0.09    -0.650 OA
DOCKED: BRANCH  32  34
DOCKED: ATOM     34  O   UNL d   1       1.978  -5.095  -3.150 +0.07 -0.08    -0.776 OA
DOCKED: ATOM     35  H   UNL d   1       1.599  -5.517  -2.367 -0.16 +0.01    +0.167 HD
DOCKED: ENDBRANCH  32  34
DOCKED: ENDBRANCH  31  32
DOCKED: ENDBRANCH  30  31
DOCKED: ENDBRANCH   6  30
DOCKED: BRANCH  22  36
DOCKED: ATOM     36  C   UNL d   1      -2.031 -11.066  -1.064 -0.29 +0.04    +0.052 C 
DOCKED: BRANCH  36  37
DOCKED: ATOM     37  C   UNL d   1      -1.243 -11.885  -2.076 -0.26 +0.08    +0.115 C 
DOCKED: BRANCH  37  38
DOCKED: ATOM     38  C   UNL d   1      -2.121 -12.906  -2.744 -0.19 +0.20    +0.139 C 
DOCKED: ATOM     39  O   UNL d   1      -2.854 -12.590  -3.670 -0.35 -1.14    -0.650 OA
DOCKED: BRANCH  38  40
DOCKED: ATOM     40  O   UNL d   1      -2.107 -14.182  -2.321 -0.02 -1.38    -0.776 OA
DOCKED: ATOM     41  H   UNL d   1      -1.304 -14.533  -1.911 +0.04 +0.19    +0.167 HD
DOCKED: ENDBRANCH  38  40
DOCKED: ENDBRANCH  37  38
DOCKED: ENDBRANCH  36  37
DOCKED: ENDBRANCH  22  36
DOCKED: BRANCH  12  42
DOCKED: ATOM     42  C   UNL d   1      -9.901  -3.833  -4.525 -0.70 +0.00    +0.004 C 
DOCKED: ATOM     43  C   UNL d   1     -10.450  -3.079  -3.564 -0.65 +0.00    +0.012 C 
DOCKED: ENDBRANCH  12  42
DOCKED: BRANCH  17  44
DOCKED: ATOM     44  C   UNL d   1      -9.693 -11.695  -3.167 -0.09 +0.00    +0.004 C 
DOCKED: ATOM     45  C   UNL d   1     -10.358 -12.072  -2.070 -0.33 +0.00    +0.012 C 
DOCKED: ENDBRANCH  17  44
DOCKED: TORSDOF 10
DOCKED: TER
DOCKED: ENDMDL
________________________________________________________________________________


	BEGINNING GENETIC ALGORITHM DOCKING 95 of 100
Run: 95 Seed: 1423288477 1785285737 [ Run 95 of 100 GA/GALS ]
Beginning LAMARCKIAN GENETIC ALGORITHM (LGA), with a maximum of 25000000 energy evaluations.

Final-Value: -15.603


	FINAL GENETIC ALGORITHM DOCKED STATE
	_______________________________________________


Detailed state:  trans -5.542 -9.902 -1.826 quatxyzw -0.231623 -0.942889 0.134036 0.198356 center -0.174 -0.001 -0.047 ntor 10 75.3296 114.1263 -142.6163 -102.0018 119.4240 -154.4882 53.6716 22.2121 -145.9060 128.6701
State:	 -5.542  -9.902  -1.826  -0.236 -0.962  0.137 157.118     75.33  114.13 -142.62 -102.00  119.42 -154.49   53.67   22.21 -145.91  128.67

DOCKED: MODEL       95
DOCKED: USER    Run = 95
DOCKED: USER    DPF = D:/Protein_go_brrr/autodock/final/AncA/heme_Fe/dock.dpf
DOCKED: USER  
DOCKED: USER    Estimated Free Energy of Binding    =  -12.33 kcal/mol  [=(1)+(2)+(3)-(4)]
DOCKED: USER    Estimated Inhibition Constant, Ki   =  911.13 pM (picomolar)  [Temperature = 298.15 K]
DOCKED: USER    
DOCKED: USER    (1) Final Intermolecular Energy     =  -15.32 kcal/mol
DOCKED: USER        vdW + Hbond + desolv Energy     =  -13.13 kcal/mol
DOCKED: USER        Electrostatic Energy            =   -2.19 kcal/mol
DOCKED: USER    (2) Final Total Internal Energy     =   -0.29 kcal/mol
DOCKED: USER    (3) Torsional Free Energy           =   +2.98 kcal/mol
DOCKED: USER    (4) Unbound System's Energy  [=(2)] =   -0.29 kcal/mol
DOCKED: USER    
DOCKED: USER    
DOCKED: USER    NEWDPF move heme_Fe_opt.pdbqt
DOCKED: USER    NEWDPF about -0.174000 -0.001000 -0.047000
DOCKED: USER    NEWDPF tran0 -5.541726 -9.902288 -1.826035
DOCKED: USER    NEWDPF quaternion0 -0.231623 -0.942889 0.134036 0.198356
DOCKED: USER    NEWDPF axisangle0 -0.236319 -0.962004 0.136754 157.118363
DOCKED: USER    NEWDPF quat0 -0.236319 -0.962004 0.136754 157.118363
DOCKED: USER    NEWDPF dihe0 75.33 114.13 -142.62 -102.00 119.42 -154.49 53.67 22.21 -145.91 128.67 
DOCKED: USER  keepresnum = 1 
DOCKED: USER  
DOCKED: REMARK  10 active torsions:
DOCKED: REMARK  status: ('A' for Active; 'I' for Inactive)
DOCKED: REMARK    1  A    between atoms: C_6  and  C_10 
DOCKED: REMARK    2  A    between atoms: C_10  and  C_11 
DOCKED: REMARK    3  A    between atoms: C_11  and  C_12 
DOCKED: REMARK    4  A    between atoms: C_12  and  O_14 
DOCKED: REMARK    5  A    between atoms: C_17  and  C_20 
DOCKED: REMARK    6  A    between atoms: C_24  and  C_27 
DOCKED: REMARK    7  A    between atoms: C_31  and  C_34 
DOCKED: REMARK    8  A    between atoms: C_34  and  C_35 
DOCKED: REMARK    9  A    between atoms: C_35  and  C_36 
DOCKED: REMARK   10  A    between atoms: C_36  and  O_38 
DOCKED: USER                              x       y       z     vdW  Elec       q    Type
DOCKED: USER                           _______ _______ _______ _____ _____    ______ ____
DOCKED: ROOT
DOCKED: ATOM      1  C   UNL d   1      -3.792 -10.896  -1.424 -0.38 +0.05    +0.064 C 
DOCKED: ATOM      2  C   UNL d   1      -8.455 -12.277  -2.310 -0.22 +0.04    +0.064 A 
DOCKED: ATOM      3  C   UNL d   1      -9.377  -7.860  -3.955 -0.52 +0.01    +0.064 C 
DOCKED: ATOM      4  C   UNL d   1      -4.898  -6.473  -3.008 -0.38 +0.03    +0.064 C 
DOCKED: ATOM      5  C   UNL d   1      -5.041 -11.670  -1.443 -0.26 +0.07    +0.066 A 
DOCKED: ATOM      6  C   UNL d   1      -5.184 -12.953  -0.939 -0.25 -0.04    -0.021 A 
DOCKED: ATOM      7  C   UNL d   1      -6.478 -13.337  -1.189 -0.22 -0.04    -0.025 A 
DOCKED: ATOM      8  C   UNL d   1      -7.076 -12.273  -1.836 -0.24 +0.07    +0.066 A 
DOCKED: ATOM      9  C   UNL d   1      -7.100 -14.645  -0.808 -0.15 +0.07    +0.051 C 
DOCKED: ATOM     10  C   UNL d   1      -9.072 -11.244  -2.884 -0.22 +0.03    +0.066 A 
DOCKED: ATOM     11  C   UNL d   1     -10.356 -11.315  -3.431 -0.24 -0.01    -0.021 A 
DOCKED: ATOM     12  C   UNL d   1     -10.639 -10.058  -3.927 -0.46 +0.00    +0.000 A 
DOCKED: ATOM     13  C   UNL d   1      -9.499  -9.280  -3.663 -0.43 +0.02    +0.070 A 
DOCKED: ATOM     14  C   UNL d   1     -11.243 -12.539  -3.537 -0.21 +0.01    +0.052 C 
DOCKED: ATOM     15  C   UNL d   1      -8.263  -7.119  -3.750 -0.42 +0.02    +0.066 A 
DOCKED: ATOM     16  C   UNL d   1      -8.219  -5.745  -3.949 -0.45 -0.00    -0.021 A 
DOCKED: ATOM     17  C   UNL d   1      -6.927  -5.343  -3.680 -0.46 +0.00    +0.000 A 
DOCKED: ATOM     18  C   UNL d   1      -6.211  -6.484  -3.326 -0.32 +0.03    +0.070 A 
DOCKED: ATOM     19  C   UNL d   1      -9.338  -4.846  -4.400 -0.56 +0.01    +0.052 C 
DOCKED: ATOM     20  C   UNL d   1      -4.127  -7.643  -2.571 -0.35 +0.03    +0.066 A 
DOCKED: ATOM     21  C   UNL d   1      -2.732  -7.688  -2.432 -0.44 -0.01    -0.025 A 
DOCKED: ATOM     22  C   UNL d   1      -2.440  -8.954  -1.968 -0.47 -0.01    -0.021 A 
DOCKED: ATOM     23  C   UNL d   1      -3.661  -9.629  -1.848 -0.39 +0.03    +0.066 A 
DOCKED: ATOM     24  C   UNL d   1      -1.720  -6.605  -2.723 -0.51 +0.01    +0.051 C 
DOCKED: ATOM     25  N   UNL d   1      -6.202 -11.257  -1.980 -0.06 -0.22    -0.248 N 
DOCKED: ATOM     26  N   UNL d   1      -8.540 -10.004  -3.035 -0.22 -0.09    -0.248 N 
DOCKED: ATOM     27  N   UNL d   1      -7.042  -7.570  -3.326 -0.27 -0.10    -0.248 N 
DOCKED: ATOM     28  N   UNL d   1      -4.682  -8.839  -2.260 -0.20 -0.11    -0.248 N 
DOCKED: ATOM     29 FE   UNL d   1      -6.610  -9.420  -2.648 -0.08 +0.00    +0.000 Fe
DOCKED: ENDROOT
DOCKED: BRANCH   6  30
DOCKED: ATOM     30  C   UNL d   1      -4.151 -13.766  -0.237 +0.07 +0.10    +0.052 C 
DOCKED: BRANCH  30  31
DOCKED: ATOM     31  C   UNL d   1      -2.907 -13.925  -1.104 -0.16 +0.20    +0.115 C 
DOCKED: BRANCH  31  32
DOCKED: ATOM     32  C   UNL d   1      -2.554 -15.379  -1.257 -0.08 +0.23    +0.139 C 
DOCKED: ATOM     33  O   UNL d   1      -2.532 -15.902  -2.363 -0.18 -1.45    -0.650 OA
DOCKED: BRANCH  32  34
DOCKED: ATOM     34  O   UNL d   1      -2.259 -16.119  -0.175 +0.01 -0.91    -0.776 OA
DOCKED: ATOM     35  H   UNL d   1      -1.336 -16.348  -0.001 +0.02 +0.15    +0.167 HD
DOCKED: ENDBRANCH  32  34
DOCKED: ENDBRANCH  31  32
DOCKED: ENDBRANCH  30  31
DOCKED: ENDBRANCH   6  30
DOCKED: BRANCH  22  36
DOCKED: ATOM     36  C   UNL d   1      -1.061  -9.497  -1.702 -0.41 +0.02    +0.052 C 
DOCKED: BRANCH  36  37
DOCKED: ATOM     37  C   UNL d   1      -0.937 -10.894  -2.291 -0.28 +0.06    +0.115 C 
DOCKED: BRANCH  37  38
DOCKED: ATOM     38  C   UNL d   1       0.176 -11.659  -1.633 -0.28 +0.06    +0.139 C 
DOCKED: ATOM     39  O   UNL d   1       0.742 -12.569  -2.220 +0.03 -0.31    -0.650 OA
DOCKED: BRANCH  38  40
DOCKED: ATOM     40  O   UNL d   1       0.556 -11.348  -0.381 +0.02 -0.25    -0.776 OA
DOCKED: ATOM     41  H   UNL d   1       0.966 -10.487  -0.215 -0.44 +0.00    +0.167 HD
DOCKED: ENDBRANCH  38  40
DOCKED: ENDBRANCH  37  38
DOCKED: ENDBRANCH  36  37
DOCKED: ENDBRANCH  22  36
DOCKED: BRANCH  12  42
DOCKED: ATOM     42  C   UNL d   1     -11.911  -9.676  -4.615 -0.37 +0.00    +0.004 C 
DOCKED: ATOM     43  C   UNL d   1     -12.009  -9.706  -5.950 -0.57 +0.00    +0.012 C 
DOCKED: ENDBRANCH  12  42
DOCKED: BRANCH  17  44
DOCKED: ATOM     44  C   UNL d   1      -6.416  -3.955  -3.738 -0.49 +0.00    +0.004 C 
DOCKED: ATOM     45  C   UNL d   1      -6.668  -3.176  -4.795 -0.63 +0.00    +0.012 C 
DOCKED: ENDBRANCH  17  44
DOCKED: TORSDOF 10
DOCKED: TER
DOCKED: ENDMDL
________________________________________________________________________________


	BEGINNING GENETIC ALGORITHM DOCKING 96 of 100
Run: 96 Seed: 1281588925 2137561337 [ Run 96 of 100 GA/GALS ]
Beginning LAMARCKIAN GENETIC ALGORITHM (LGA), with a maximum of 25000000 energy evaluations.

Final-Value: -20.732


	FINAL GENETIC ALGORITHM DOCKED STATE
	_______________________________________________


Detailed state:  trans -4.960 -9.279 -3.250 quatxyzw -0.074259 -0.008307 0.665268 -0.742856 center -0.174 -0.001 -0.047 ntor 10 -87.8117 -28.7290 60.3275 -104.6870 36.9601 -171.8145 -30.6047 56.3085 -179.0738 156.2210
State:	 -4.960  -9.279  -3.250  -0.111 -0.012  0.994 -84.049    -87.81  -28.73   60.33 -104.69   36.96 -171.81  -30.60   56.31 -179.07  156.22

DOCKED: MODEL       96
DOCKED: USER    Run = 96
DOCKED: USER    DPF = D:/Protein_go_brrr/autodock/final/AncA/heme_Fe/dock.dpf
DOCKED: USER  
DOCKED: USER    Estimated Free Energy of Binding    =  -15.59 kcal/mol  [=(1)+(2)+(3)-(4)]
DOCKED: USER    Estimated Inhibition Constant, Ki   =    3.73 pM (picomolar)  [Temperature = 298.15 K]
DOCKED: USER    
DOCKED: USER    (1) Final Intermolecular Energy     =  -18.57 kcal/mol
DOCKED: USER        vdW + Hbond + desolv Energy     =  -14.02 kcal/mol
DOCKED: USER        Electrostatic Energy            =   -4.55 kcal/mol
DOCKED: USER    (2) Final Total Internal Energy     =   -2.16 kcal/mol
DOCKED: USER    (3) Torsional Free Energy           =   +2.98 kcal/mol
DOCKED: USER    (4) Unbound System's Energy  [=(2)] =   -2.16 kcal/mol
DOCKED: USER    
DOCKED: USER    
DOCKED: USER    NEWDPF move heme_Fe_opt.pdbqt
DOCKED: USER    NEWDPF about -0.174000 -0.001000 -0.047000
DOCKED: USER    NEWDPF tran0 -4.960394 -9.279341 -3.249897
DOCKED: USER    NEWDPF quaternion0 -0.074259 -0.008307 0.665268 -0.742856
DOCKED: USER    NEWDPF axisangle0 -0.110925 -0.012409 0.993751 -84.049433
DOCKED: USER    NEWDPF quat0 -0.110925 -0.012409 0.993751 -84.049433
DOCKED: USER    NEWDPF dihe0 -87.81 -28.73 60.33 -104.69 36.96 -171.81 -30.60 56.31 -179.07 156.22 
DOCKED: USER  keepresnum = 1 
DOCKED: USER  
DOCKED: REMARK  10 active torsions:
DOCKED: REMARK  status: ('A' for Active; 'I' for Inactive)
DOCKED: REMARK    1  A    between atoms: C_6  and  C_10 
DOCKED: REMARK    2  A    between atoms: C_10  and  C_11 
DOCKED: REMARK    3  A    between atoms: C_11  and  C_12 
DOCKED: REMARK    4  A    between atoms: C_12  and  O_14 
DOCKED: REMARK    5  A    between atoms: C_17  and  C_20 
DOCKED: REMARK    6  A    between atoms: C_24  and  C_27 
DOCKED: REMARK    7  A    between atoms: C_31  and  C_34 
DOCKED: REMARK    8  A    between atoms: C_34  and  C_35 
DOCKED: REMARK    9  A    between atoms: C_35  and  C_36 
DOCKED: REMARK   10  A    between atoms: C_36  and  O_38 
DOCKED: USER                              x       y       z     vdW  Elec       q    Type
DOCKED: USER                           _______ _______ _______ _____ _____    ______ ____
DOCKED: ROOT
DOCKED: ATOM      1  C   UNL d   1      -5.189 -11.193  -2.545 -0.36 +0.06    +0.064 C 
DOCKED: ATOM      2  C   UNL d   1      -1.466  -7.943  -2.649 -0.44 +0.02    +0.064 A 
DOCKED: ATOM      3  C   UNL d   1      -4.615  -4.475  -3.709 -0.33 +0.01    +0.064 C 
DOCKED: ATOM      4  C   UNL d   1      -8.217  -7.622  -3.717 -0.49 +0.02    +0.064 C 
DOCKED: ATOM      5  C   UNL d   1      -3.838 -10.615  -2.559 -0.34 +0.05    +0.066 A 
DOCKED: ATOM      6  C   UNL d   1      -2.667 -11.339  -2.403 -0.32 -0.02    -0.021 A 
DOCKED: ATOM      7  C   UNL d   1      -1.633 -10.435  -2.428 -0.24 -0.01    -0.025 A 
DOCKED: ATOM      8  C   UNL d   1      -2.214  -9.193  -2.599 -0.38 +0.03    +0.066 A 
DOCKED: ATOM      9  C   UNL d   1      -0.175 -10.758  -2.314 -0.32 +0.02    +0.051 C 
DOCKED: ATOM     10  C   UNL d   1      -1.996  -6.739  -2.870 -0.43 +0.02    +0.066 A 
DOCKED: ATOM     11  C   UNL d   1      -1.269  -5.548  -2.799 -0.46 -0.00    -0.021 A 
DOCKED: ATOM     12  C   UNL d   1      -2.159  -4.531  -3.084 -0.40 +0.00    +0.000 A 
DOCKED: ATOM     13  C   UNL d   1      -3.396  -5.160  -3.309 -0.37 +0.01    +0.070 A 
DOCKED: ATOM     14  C   UNL d   1       0.186  -5.381  -2.411 -0.39 +0.00    +0.052 C 
DOCKED: ATOM     15  C   UNL d   1      -5.819  -5.069  -3.875 -0.39 +0.01    +0.066 A 
DOCKED: ATOM     16  C   UNL d   1      -6.937  -4.398  -4.355 -0.46 -0.00    -0.021 A 
DOCKED: ATOM     17  C   UNL d   1      -7.978  -5.302  -4.354 -0.48 +0.00    +0.000 A 
DOCKED: ATOM     18  C   UNL d   1      -7.471  -6.506  -3.870 -0.41 +0.02    +0.070 A 
DOCKED: ATOM     19  C   UNL d   1      -7.032  -2.955  -4.773 -0.62 +0.01    +0.052 C 
DOCKED: ATOM     20  C   UNL d   1      -7.705  -8.922  -3.269 -0.35 +0.02    +0.066 A 
DOCKED: ATOM     21  C   UNL d   1      -8.495 -10.026  -2.915 -0.32 -0.01    -0.025 A 
DOCKED: ATOM     22  C   UNL d   1      -7.611 -11.036  -2.597 -0.19 -0.01    -0.021 A 
DOCKED: ATOM     23  C   UNL d   1      -6.324 -10.511  -2.762 -0.16 +0.04    +0.066 A 
DOCKED: ATOM     24  C   UNL d   1     -10.002 -10.132  -2.871 -0.47 +0.01    +0.051 C 
DOCKED: ATOM     25  N   UNL d   1      -3.554  -9.307  -2.688 -0.24 -0.12    -0.248 N 
DOCKED: ATOM     26  N   UNL d   1      -3.299  -6.505  -3.170 -0.25 -0.07    -0.248 N 
DOCKED: ATOM     27  N   UNL d   1      -6.135  -6.376  -3.617 -0.23 -0.10    -0.248 N 
DOCKED: ATOM     28  N   UNL d   1      -6.388  -9.207  -3.128 -0.23 -0.12    -0.248 N 
DOCKED: ATOM     29 FE   UNL d   1      -4.845  -7.856  -3.149 -0.09 +0.00    +0.000 Fe
DOCKED: ENDROOT
DOCKED: BRANCH   6  30
DOCKED: ATOM     30  C   UNL d   1      -2.532 -12.816  -2.259 -0.19 +0.08    +0.052 C 
DOCKED: BRANCH  30  31
DOCKED: ATOM     31  C   UNL d   1      -2.595 -13.223  -0.791 -0.18 +0.15    +0.115 C 
DOCKED: BRANCH  31  32
DOCKED: ATOM     32  C   UNL d   1      -3.191 -14.597  -0.651 -0.16 +0.25    +0.139 C 
DOCKED: ATOM     33  O   UNL d   1      -2.950 -15.468  -1.475 -0.02 -1.32    -0.650 OA
DOCKED: BRANCH  32  34
DOCKED: ATOM     34  O   UNL d   1      -3.999 -14.879   0.385 -0.06 -1.80    -0.776 OA
DOCKED: ATOM     35  H   UNL d   1      -4.954 -14.764   0.281 +0.03 +0.44    +0.167 HD
DOCKED: ENDBRANCH  32  34
DOCKED: ENDBRANCH  31  32
DOCKED: ENDBRANCH  30  31
DOCKED: ENDBRANCH   6  30
DOCKED: BRANCH  22  36
DOCKED: ATOM     36  C   UNL d   1      -7.985 -12.413  -2.114 -0.27 +0.04    +0.052 C 
DOCKED: BRANCH  36  37
DOCKED: ATOM     37  C   UNL d   1      -7.676 -12.538  -0.630 -0.21 +0.10    +0.115 C 
DOCKED: BRANCH  37  38
DOCKED: ATOM     38  C   UNL d   1      -6.772 -13.708  -0.364 -0.20 +0.20    +0.139 C 
DOCKED: ATOM     39  O   UNL d   1      -6.528 -14.063   0.779 -0.12 -1.37    -0.650 OA
DOCKED: BRANCH  38  40
DOCKED: ATOM     40  O   UNL d   1      -6.218 -14.375  -1.393 -0.27 -1.71    -0.776 OA
DOCKED: ATOM     41  H   UNL d   1      -5.363 -14.809  -1.265 +0.03 +0.47    +0.167 HD
DOCKED: ENDBRANCH  38  40
DOCKED: ENDBRANCH  37  38
DOCKED: ENDBRANCH  36  37
DOCKED: ENDBRANCH  22  36
DOCKED: BRANCH  12  42
DOCKED: ATOM     42  C   UNL d   1      -1.815  -3.076  -3.111 -0.44 +0.00    +0.004 C 
DOCKED: ATOM     43  C   UNL d   1      -1.746  -2.405  -4.268 -0.56 +0.00    +0.012 C 
DOCKED: ENDBRANCH  12  42
DOCKED: BRANCH  17  44
DOCKED: ATOM     44  C   UNL d   1      -9.363  -5.038  -4.808 -0.52 +0.00    +0.004 C 
DOCKED: ATOM     45  C   UNL d   1     -10.041  -3.979  -4.354 -0.69 +0.00    +0.012 C 
DOCKED: ENDBRANCH  17  44
DOCKED: TORSDOF 10
DOCKED: TER
DOCKED: ENDMDL
________________________________________________________________________________


	BEGINNING GENETIC ALGORITHM DOCKING 97 of 100
Run: 97 Seed: 848729024 866550620 [ Run 97 of 100 GA/GALS ]
Beginning LAMARCKIAN GENETIC ALGORITHM (LGA), with a maximum of 25000000 energy evaluations.

Final-Value: -18.077


	FINAL GENETIC ALGORITHM DOCKED STATE
	_______________________________________________


Detailed state:  trans -4.909 -9.379 -2.408 quatxyzw 0.691089 0.704117 -0.078255 -0.143147 center -0.174 -0.001 -0.047 ntor 10 -133.7370 21.8950 30.5396 -128.8905 4.4785 -179.7768 60.5637 -12.3085 3.2136 16.3047
State:	 -4.909  -9.379  -2.408   0.698  0.711 -0.079 -163.540   -133.74   21.89   30.54 -128.89    4.48 -179.78   60.56  -12.31    3.21   16.30

DOCKED: MODEL       97
DOCKED: USER    Run = 97
DOCKED: USER    DPF = D:/Protein_go_brrr/autodock/final/AncA/heme_Fe/dock.dpf
DOCKED: USER  
DOCKED: USER    Estimated Free Energy of Binding    =  -14.88 kcal/mol  [=(1)+(2)+(3)-(4)]
DOCKED: USER    Estimated Inhibition Constant, Ki   =   12.42 pM (picomolar)  [Temperature = 298.15 K]
DOCKED: USER    
DOCKED: USER    (1) Final Intermolecular Energy     =  -17.86 kcal/mol
DOCKED: USER        vdW + Hbond + desolv Energy     =  -13.81 kcal/mol
DOCKED: USER        Electrostatic Energy            =   -4.05 kcal/mol
DOCKED: USER    (2) Final Total Internal Energy     =   -0.22 kcal/mol
DOCKED: USER    (3) Torsional Free Energy           =   +2.98 kcal/mol
DOCKED: USER    (4) Unbound System's Energy  [=(2)] =   -0.22 kcal/mol
DOCKED: USER    
DOCKED: USER    
DOCKED: USER    NEWDPF move heme_Fe_opt.pdbqt
DOCKED: USER    NEWDPF about -0.174000 -0.001000 -0.047000
DOCKED: USER    NEWDPF tran0 -4.908731 -9.379160 -2.407689
DOCKED: USER    NEWDPF quaternion0 0.691089 0.704117 -0.078255 -0.143147
DOCKED: USER    NEWDPF axisangle0 0.698280 0.711444 -0.079069 -163.540009
DOCKED: USER    NEWDPF quat0 0.698280 0.711444 -0.079069 -163.540009
DOCKED: USER    NEWDPF dihe0 -133.74 21.89 30.54 -128.89 4.48 -179.78 60.56 -12.31 3.21 16.30 
DOCKED: USER  keepresnum = 1 
DOCKED: USER  
DOCKED: REMARK  10 active torsions:
DOCKED: REMARK  status: ('A' for Active; 'I' for Inactive)
DOCKED: REMARK    1  A    between atoms: C_6  and  C_10 
DOCKED: REMARK    2  A    between atoms: C_10  and  C_11 
DOCKED: REMARK    3  A    between atoms: C_11  and  C_12 
DOCKED: REMARK    4  A    between atoms: C_12  and  O_14 
DOCKED: REMARK    5  A    between atoms: C_17  and  C_20 
DOCKED: REMARK    6  A    between atoms: C_24  and  C_27 
DOCKED: REMARK    7  A    between atoms: C_31  and  C_34 
DOCKED: REMARK    8  A    between atoms: C_34  and  C_35 
DOCKED: REMARK    9  A    between atoms: C_35  and  C_36 
DOCKED: REMARK   10  A    between atoms: C_36  and  O_38 
DOCKED: USER                              x       y       z     vdW  Elec       q    Type
DOCKED: USER                           _______ _______ _______ _____ _____    ______ ____
DOCKED: ROOT
DOCKED: ATOM      1  C   UNL d   1      -4.910 -11.429  -2.303 -0.35 +0.07    +0.064 C 
DOCKED: ATOM      2  C   UNL d   1      -8.253  -8.005  -3.542 -0.42 +0.02    +0.064 A 
DOCKED: ATOM      3  C   UNL d   1      -4.716  -4.771  -3.872 -0.43 +0.01    +0.064 C 
DOCKED: ATOM      4  C   UNL d   1      -1.479  -8.044  -2.572 -0.50 +0.02    +0.064 C 
DOCKED: ATOM      5  C   UNL d   1      -6.189 -10.745  -2.540 -0.07 +0.05    +0.066 A 
DOCKED: ATOM      6  C   UNL d   1      -7.436 -11.337  -2.419 -0.22 -0.01    -0.021 A 
DOCKED: ATOM      7  C   UNL d   1      -8.364 -10.386  -2.767 -0.30 -0.01    -0.025 A 
DOCKED: ATOM      8  C   UNL d   1      -7.646  -9.249  -3.087 -0.27 +0.03    +0.066 A 
DOCKED: ATOM      9  C   UNL d   1      -9.851 -10.564  -2.771 -0.42 +0.01    +0.051 C 
DOCKED: ATOM     10  C   UNL d   1      -7.589  -6.877  -3.801 -0.42 +0.02    +0.066 A 
DOCKED: ATOM     11  C   UNL d   1      -8.183  -5.736  -4.345 -0.46 -0.00    -0.021 A 
DOCKED: ATOM     12  C   UNL d   1      -7.180  -4.794  -4.466 -0.48 +0.00    +0.000 A 
DOCKED: ATOM     13  C   UNL d   1      -6.014  -5.418  -3.992 -0.39 +0.02    +0.070 A 
DOCKED: ATOM     14  C   UNL d   1      -9.621  -5.573  -4.793 -0.46 +0.01    +0.052 C 
DOCKED: ATOM     15  C   UNL d   1      -3.579  -5.383  -3.466 -0.38 +0.01    +0.066 A 
DOCKED: ATOM     16  C   UNL d   1      -2.382  -4.706  -3.269 -0.40 -0.00    -0.021 A 
DOCKED: ATOM     17  C   UNL d   1      -1.446  -5.649  -2.897 -0.47 +0.00    +0.000 A 
DOCKED: ATOM     18  C   UNL d   1      -2.094  -6.882  -2.880 -0.42 +0.02    +0.070 A 
DOCKED: ATOM     19  C   UNL d   1      -2.119  -3.235  -3.447 -0.39 +0.01    +0.052 C 
DOCKED: ATOM     20  C   UNL d   1      -2.142  -9.351  -2.484 -0.38 +0.03    +0.066 A 
DOCKED: ATOM     21  C   UNL d   1      -1.487 -10.585  -2.364 -0.26 -0.01    -0.025 A 
DOCKED: ATOM     22  C   UNL d   1      -2.484 -11.534  -2.276 -0.31 -0.02    -0.021 A 
DOCKED: ATOM     23  C   UNL d   1      -3.702 -10.846  -2.352 -0.33 +0.06    +0.066 A 
DOCKED: ATOM     24  C   UNL d   1      -0.003 -10.867  -2.337 -0.31 +0.02    +0.051 C 
DOCKED: ATOM     25  N   UNL d   1      -6.325  -9.468  -2.938 -0.13 -0.13    -0.248 N 
DOCKED: ATOM     26  N   UNL d   1      -6.260  -6.691  -3.595 -0.19 -0.11    -0.248 N 
DOCKED: ATOM     27  N   UNL d   1      -3.416  -6.714  -3.187 -0.25 -0.07    -0.248 N 
DOCKED: ATOM     28  N   UNL d   1      -3.486  -9.520  -2.524 -0.24 -0.13    -0.248 N 
DOCKED: ATOM     29 FE   UNL d   1      -4.871  -8.105  -3.059 -0.09 +0.00    +0.000 Fe
DOCKED: ENDROOT
DOCKED: BRANCH   6  30
DOCKED: ATOM     30  C   UNL d   1      -7.735 -12.728  -1.976 -0.26 +0.05    +0.052 C 
DOCKED: BRANCH  30  31
DOCKED: ATOM     31  C   UNL d   1      -7.985 -12.774  -0.473 -0.21 +0.10    +0.115 C 
DOCKED: BRANCH  31  32
DOCKED: ATOM     32  C   UNL d   1      -6.980 -13.668   0.200 -0.19 +0.20    +0.139 C 
DOCKED: ATOM     33  O   UNL d   1      -6.069 -14.174  -0.440 -0.25 -1.21    -0.650 OA
DOCKED: BRANCH  32  34
DOCKED: ATOM     34  O   UNL d   1      -7.075 -13.919   1.517 +0.08 -1.54    -0.776 OA
DOCKED: ATOM     35  H   UNL d   1      -7.937 -14.153   1.889 +0.05 +0.23    +0.167 HD
DOCKED: ENDBRANCH  32  34
DOCKED: ENDBRANCH  31  32
DOCKED: ENDBRANCH  30  31
DOCKED: ENDBRANCH   6  30
DOCKED: BRANCH  22  36
DOCKED: ATOM     36  C   UNL d   1      -2.276 -13.022  -2.175 -0.21 +0.08    +0.052 C 
DOCKED: BRANCH  36  37
DOCKED: ATOM     37  C   UNL d   1      -2.743 -13.515  -0.813 -0.19 +0.17    +0.115 C 
DOCKED: BRANCH  37  38
DOCKED: ATOM     38  C   UNL d   1      -2.849 -15.013  -0.789 -0.14 +0.23    +0.139 C 
DOCKED: ATOM     39  O   UNL d   1      -3.213 -15.598   0.220 -0.08 -1.07    -0.650 OA
DOCKED: BRANCH  38  40
DOCKED: ATOM     40  O   UNL d   1      -2.539 -15.725  -1.887 -0.13 -1.50    -0.776 OA
DOCKED: ATOM     41  H   UNL d   1      -2.895 -16.620  -1.984 +0.01 +0.30    +0.167 HD
DOCKED: ENDBRANCH  38  40
DOCKED: ENDBRANCH  37  38
DOCKED: ENDBRANCH  36  37
DOCKED: ENDBRANCH  22  36
DOCKED: BRANCH  12  42
DOCKED: ATOM     42  C   UNL d   1      -7.363  -3.415  -5.017 -0.64 +0.00    +0.004 C 
DOCKED: ATOM     43  C   UNL d   1      -7.905  -2.442  -4.273 -0.66 +0.00    +0.012 C 
DOCKED: ENDBRANCH  12  42
DOCKED: BRANCH  17  44
DOCKED: ATOM     44  C   UNL d   1      -0.029  -5.384  -2.561 -0.57 +0.00    +0.004 C 
DOCKED: ATOM     45  C   UNL d   1       0.864  -5.116  -3.519 -0.65 +0.00    +0.012 C 
DOCKED: ENDBRANCH  17  44
DOCKED: TORSDOF 10
DOCKED: TER
DOCKED: ENDMDL
________________________________________________________________________________


	BEGINNING GENETIC ALGORITHM DOCKING 98 of 100
Run: 98 Seed: 332375105 599996702 [ Run 98 of 100 GA/GALS ]
Beginning LAMARCKIAN GENETIC ALGORITHM (LGA), with a maximum of 25000000 energy evaluations.

Final-Value: -16.921


	FINAL GENETIC ALGORITHM DOCKED STATE
	_______________________________________________


Detailed state:  trans -4.827 -10.588 -2.530 quatxyzw -0.106547 0.061017 0.746975 -0.653417 center -0.174 -0.001 -0.047 ntor 10 88.9531 106.7966 38.8107 87.0176 162.3159 -61.4332 59.3300 133.2141 15.8959 -144.7678
State:	 -4.827 -10.588  -2.530  -0.141  0.081  0.987 -98.401     88.95  106.80   38.81   87.02  162.32  -61.43   59.33  133.21   15.90 -144.77

DOCKED: MODEL       98
DOCKED: USER    Run = 98
DOCKED: USER    DPF = D:/Protein_go_brrr/autodock/final/AncA/heme_Fe/dock.dpf
DOCKED: USER  
DOCKED: USER    Estimated Free Energy of Binding    =  -13.52 kcal/mol  [=(1)+(2)+(3)-(4)]
DOCKED: USER    Estimated Inhibition Constant, Ki   =  123.36 pM (picomolar)  [Temperature = 298.15 K]
DOCKED: USER    
DOCKED: USER    (1) Final Intermolecular Energy     =  -16.50 kcal/mol
DOCKED: USER        vdW + Hbond + desolv Energy     =  -13.25 kcal/mol
DOCKED: USER        Electrostatic Energy            =   -3.25 kcal/mol
DOCKED: USER    (2) Final Total Internal Energy     =   -0.42 kcal/mol
DOCKED: USER    (3) Torsional Free Energy           =   +2.98 kcal/mol
DOCKED: USER    (4) Unbound System's Energy  [=(2)] =   -0.42 kcal/mol
DOCKED: USER    
DOCKED: USER    
DOCKED: USER    NEWDPF move heme_Fe_opt.pdbqt
DOCKED: USER    NEWDPF about -0.174000 -0.001000 -0.047000
DOCKED: USER    NEWDPF tran0 -4.826940 -10.587507 -2.529576
DOCKED: USER    NEWDPF quaternion0 -0.106547 0.061017 0.746975 -0.653417
DOCKED: USER    NEWDPF axisangle0 -0.140750 0.080604 0.986759 -98.400603
DOCKED: USER    NEWDPF quat0 -0.140750 0.080604 0.986759 -98.400603
DOCKED: USER    NEWDPF dihe0 88.95 106.80 38.81 87.02 162.32 -61.43 59.33 133.21 15.90 -144.77 
DOCKED: USER  keepresnum = 1 
DOCKED: USER  
DOCKED: REMARK  10 active torsions:
DOCKED: REMARK  status: ('A' for Active; 'I' for Inactive)
DOCKED: REMARK    1  A    between atoms: C_6  and  C_10 
DOCKED: REMARK    2  A    between atoms: C_10  and  C_11 
DOCKED: REMARK    3  A    between atoms: C_11  and  C_12 
DOCKED: REMARK    4  A    between atoms: C_12  and  O_14 
DOCKED: REMARK    5  A    between atoms: C_17  and  C_20 
DOCKED: REMARK    6  A    between atoms: C_24  and  C_27 
DOCKED: REMARK    7  A    between atoms: C_31  and  C_34 
DOCKED: REMARK    8  A    between atoms: C_34  and  C_35 
DOCKED: REMARK    9  A    between atoms: C_35  and  C_36 
DOCKED: REMARK   10  A    between atoms: C_36  and  O_38 
DOCKED: USER                              x       y       z     vdW  Elec       q    Type
DOCKED: USER                           _______ _______ _______ _____ _____    ______ ____
DOCKED: ROOT
DOCKED: ATOM      1  C   UNL d   1      -4.566 -12.365  -1.537 -0.24 +0.10    +0.064 C 
DOCKED: ATOM      2  C   UNL d   1      -1.713  -8.431  -2.438 -0.44 +0.02    +0.064 A 
DOCKED: ATOM      3  C   UNL d   1      -5.633  -5.965  -3.709 -0.37 +0.02    +0.064 C 
DOCKED: ATOM      4  C   UNL d   1      -8.400  -9.791  -2.944 -0.36 +0.02    +0.064 C 
DOCKED: ATOM      5  C   UNL d   1      -3.390 -11.512  -1.753 -0.30 +0.07    +0.066 A 
DOCKED: ATOM      6  C   UNL d   1      -2.076 -11.923  -1.597 -0.30 -0.02    -0.021 A 
DOCKED: ATOM      7  C   UNL d   1      -1.284 -10.828  -1.844 -0.35 -0.01    -0.025 A 
DOCKED: ATOM      8  C   UNL d   1      -2.146  -9.791  -2.142 -0.38 +0.03    +0.066 A 
DOCKED: ATOM      9  C   UNL d   1       0.213 -10.797  -1.812 -0.36 +0.02    +0.051 C 
DOCKED: ATOM     10  C   UNL d   1      -2.519  -7.426  -2.784 -0.41 +0.02    +0.066 A 
DOCKED: ATOM     11  C   UNL d   1      -2.087  -6.108  -2.951 -0.44 -0.00    -0.021 A 
DOCKED: ATOM     12  C   UNL d   1      -3.202  -5.373  -3.301 -0.42 +0.00    +0.000 A 
DOCKED: ATOM     13  C   UNL d   1      -4.269  -6.289  -3.323 -0.30 +0.02    +0.070 A 
DOCKED: ATOM     14  C   UNL d   1      -0.693  -5.562  -2.720 -0.55 +0.01    +0.052 C 
DOCKED: ATOM     15  C   UNL d   1      -6.673  -6.830  -3.682 -0.29 +0.03    +0.066 A 
DOCKED: ATOM     16  C   UNL d   1      -7.940  -6.509  -4.153 -0.46 -0.01    -0.021 A 
DOCKED: ATOM     17  C   UNL d   1      -8.741  -7.611  -3.931 -0.49 +0.00    +0.000 A 
DOCKED: ATOM     18  C   UNL d   1      -7.943  -8.578  -3.323 -0.39 +0.02    +0.070 A 
DOCKED: ATOM     19  C   UNL d   1      -8.389  -5.211  -4.767 -0.48 +0.01    +0.052 C 
DOCKED: ATOM     20  C   UNL d   1      -7.577 -10.856  -2.359 -0.05 +0.04    +0.066 A 
DOCKED: ATOM     21  C   UNL d   1      -8.068 -12.035  -1.781 -0.25 -0.02    -0.025 A 
DOCKED: ATOM     22  C   UNL d   1      -6.958 -12.759  -1.398 -0.25 -0.02    -0.021 A 
DOCKED: ATOM     23  C   UNL d   1      -5.839 -11.995  -1.750 -0.25 +0.08    +0.066 A 
DOCKED: ATOM     24  C   UNL d   1      -9.505 -12.464  -1.590 -0.28 +0.03    +0.051 C 
DOCKED: ATOM     25  N   UNL d   1      -3.426 -10.212  -2.095 -0.22 -0.16    -0.248 N 
DOCKED: ATOM     26  N   UNL d   1      -3.855  -7.538  -2.999 -0.22 -0.10    -0.248 N 
DOCKED: ATOM     27  N   UNL d   1      -6.662  -8.115  -3.209 -0.25 -0.12    -0.248 N 
DOCKED: ATOM     28  N   UNL d   1      -6.224 -10.815  -2.295 -0.05 -0.19    -0.248 N 
DOCKED: ATOM     29 FE   UNL d   1      -5.041  -9.177  -2.647 -0.08 +0.00    +0.000 Fe
DOCKED: ENDROOT
DOCKED: BRANCH   6  30
DOCKED: ATOM     30  C   UNL d   1      -1.594 -13.290  -1.253 -0.24 +0.05    +0.052 C 
DOCKED: BRANCH  30  31
DOCKED: ATOM     31  C   UNL d   1      -1.008 -13.982  -2.479 -0.17 +0.12    +0.115 C 
DOCKED: BRANCH  31  32
DOCKED: ATOM     32  C   UNL d   1      -1.754 -15.253  -2.772 +0.05 +0.23    +0.139 C 
DOCKED: ATOM     33  O   UNL d   1      -1.670 -15.786  -3.870 -0.33 -1.00    -0.650 OA
DOCKED: BRANCH  32  34
DOCKED: ATOM     34  O   UNL d   1      -2.524 -15.817  -1.827 -0.15 -1.44    -0.776 OA
DOCKED: ATOM     35  H   UNL d   1      -2.135 -16.477  -1.236 +0.02 +0.20    +0.167 HD
DOCKED: ENDBRANCH  32  34
DOCKED: ENDBRANCH  31  32
DOCKED: ENDBRANCH  30  31
DOCKED: ENDBRANCH   6  30
DOCKED: BRANCH  22  36
DOCKED: ATOM     36  C   UNL d   1      -6.976 -14.088  -0.690 -0.19 +0.07    +0.052 C 
DOCKED: BRANCH  36  37
DOCKED: ATOM     37  C   UNL d   1      -7.946 -14.033   0.481 -0.16 +0.13    +0.115 C 
DOCKED: BRANCH  37  38
DOCKED: ATOM     38  C   UNL d   1      -7.726 -12.795   1.304 -0.22 +0.17    +0.139 C 
DOCKED: ATOM     39  O   UNL d   1      -6.658 -12.596   1.862 -0.58 -1.17    -0.650 OA
DOCKED: BRANCH  38  40
DOCKED: ATOM     40  O   UNL d   1      -8.714 -11.891   1.434 -0.36 -0.62    -0.776 OA
DOCKED: ATOM     41  H   UNL d   1      -8.933 -11.322   0.683 +0.08 +0.10    +0.167 HD
DOCKED: ENDBRANCH  38  40
DOCKED: ENDBRANCH  37  38
DOCKED: ENDBRANCH  36  37
DOCKED: ENDBRANCH  22  36
DOCKED: BRANCH  12  42
DOCKED: ATOM     42  C   UNL d   1      -3.208  -3.902  -3.569 -0.22 +0.00    +0.004 C 
DOCKED: ATOM     43  C   UNL d   1      -2.930  -3.422  -4.788 -0.52 +0.00    +0.012 C 
DOCKED: ENDBRANCH  12  42
DOCKED: BRANCH  17  44
DOCKED: ATOM     44  C   UNL d   1     -10.170  -7.736  -4.294 -0.49 +0.00    +0.004 C 
DOCKED: ATOM     45  C   UNL d   1     -10.656  -8.886  -4.773 -0.55 +0.00    +0.012 C 
DOCKED: ENDBRANCH  17  44
DOCKED: TORSDOF 10
DOCKED: TER
DOCKED: ENDMDL
________________________________________________________________________________


	BEGINNING GENETIC ALGORITHM DOCKING 99 of 100
Run: 99 Seed: 959076687 582921215 [ Run 99 of 100 GA/GALS ]
Beginning LAMARCKIAN GENETIC ALGORITHM (LGA), with a maximum of 25000000 energy evaluations.

Final-Value: -12.572


	FINAL GENETIC ALGORITHM DOCKED STATE
	_______________________________________________


Detailed state:  trans -10.775 -13.955 -1.227 quatxyzw -0.255445 0.324938 0.879395 -0.236279 center -0.174 -0.001 -0.047 ntor 10 167.3385 179.0219 179.7619 -149.8488 -109.7769 -46.1941 -74.7532 57.5769 -57.6184 136.8221
State:	-10.775 -13.955  -1.227  -0.263  0.334  0.905 -152.666    167.34  179.02  179.76 -149.85 -109.78  -46.19  -74.75   57.58  -57.62  136.82

DOCKED: MODEL       99
DOCKED: USER    Run = 99
DOCKED: USER    DPF = D:/Protein_go_brrr/autodock/final/AncA/heme_Fe/dock.dpf
DOCKED: USER  
DOCKED: USER    Estimated Free Energy of Binding    =   -9.21 kcal/mol  [=(1)+(2)+(3)-(4)]
DOCKED: USER    Estimated Inhibition Constant, Ki   =  176.27 nM (nanomolar)  [Temperature = 298.15 K]
DOCKED: USER    
DOCKED: USER    (1) Final Intermolecular Energy     =  -12.20 kcal/mol
DOCKED: USER        vdW + Hbond + desolv Energy     =   -7.72 kcal/mol
DOCKED: USER        Electrostatic Energy            =   -4.47 kcal/mol
DOCKED: USER    (2) Final Total Internal Energy     =   -0.37 kcal/mol
DOCKED: USER    (3) Torsional Free Energy           =   +2.98 kcal/mol
DOCKED: USER    (4) Unbound System's Energy  [=(2)] =   -0.37 kcal/mol
DOCKED: USER    
DOCKED: USER    
DOCKED: USER    NEWDPF move heme_Fe_opt.pdbqt
DOCKED: USER    NEWDPF about -0.174000 -0.001000 -0.047000
DOCKED: USER    NEWDPF tran0 -10.774613 -13.954789 -1.227161
DOCKED: USER    NEWDPF quaternion0 -0.255445 0.324938 0.879395 -0.236279
DOCKED: USER    NEWDPF axisangle0 -0.262888 0.334407 0.905020 -152.665908
DOCKED: USER    NEWDPF quat0 -0.262888 0.334407 0.905020 -152.665908
DOCKED: USER    NEWDPF dihe0 167.34 179.02 179.76 -149.85 -109.78 -46.19 -74.75 57.58 -57.62 136.82 
DOCKED: USER  keepresnum = 1 
DOCKED: USER  
DOCKED: REMARK  10 active torsions:
DOCKED: REMARK  status: ('A' for Active; 'I' for Inactive)
DOCKED: REMARK    1  A    between atoms: C_6  and  C_10 
DOCKED: REMARK    2  A    between atoms: C_10  and  C_11 
DOCKED: REMARK    3  A    between atoms: C_11  and  C_12 
DOCKED: REMARK    4  A    between atoms: C_12  and  O_14 
DOCKED: REMARK    5  A    between atoms: C_17  and  C_20 
DOCKED: REMARK    6  A    between atoms: C_24  and  C_27 
DOCKED: REMARK    7  A    between atoms: C_31  and  C_34 
DOCKED: REMARK    8  A    between atoms: C_34  and  C_35 
DOCKED: REMARK    9  A    between atoms: C_35  and  C_36 
DOCKED: REMARK   10  A    between atoms: C_36  and  O_38 
DOCKED: USER                              x       y       z     vdW  Elec       q    Type
DOCKED: USER                           _______ _______ _______ _____ _____    ______ ____
DOCKED: ROOT
DOCKED: ATOM      1  C   UNL d   1      -9.396 -14.041   0.291 -0.17 +0.04    +0.064 C 
DOCKED: ATOM      2  C   UNL d   1     -10.173 -11.012  -3.537 -0.25 +0.02    +0.064 A 
DOCKED: ATOM      3  C   UNL d   1     -14.557 -12.903  -4.055 -0.21 +0.01    +0.064 C 
DOCKED: ATOM      4  C   UNL d   1     -13.787 -15.916  -0.420 -0.14 +0.01    +0.064 C 
DOCKED: ATOM      5  C   UNL d   1      -9.177 -13.071  -0.791 -0.19 +0.04    +0.066 A 
DOCKED: ATOM      6  C   UNL d   1      -7.985 -12.407  -1.028 -0.23 -0.02    -0.021 A 
DOCKED: ATOM      7  C   UNL d   1      -8.202 -11.563  -2.089 -0.26 -0.02    -0.025 A 
DOCKED: ATOM      8  C   UNL d   1      -9.521 -11.746  -2.460 -0.25 +0.03    +0.066 A 
DOCKED: ATOM      9  C   UNL d   1      -7.191 -10.652  -2.715 -0.19 +0.03    +0.051 C 
DOCKED: ATOM     10  C   UNL d   1     -11.425 -11.210  -3.953 -0.32 +0.01    +0.066 A 
DOCKED: ATOM     11  C   UNL d   1     -12.059 -10.414  -4.910 -0.45 -0.00    -0.021 A 
DOCKED: ATOM     12  C   UNL d   1     -13.331 -10.928  -5.065 -0.38 +0.00    +0.000 A 
DOCKED: ATOM     13  C   UNL d   1     -13.411 -12.017  -4.180 -0.25 +0.00    +0.070 A 
DOCKED: ATOM     14  C   UNL d   1     -11.503  -9.181  -5.594 -0.47 +0.01    +0.052 C 
DOCKED: ATOM     15  C   UNL d   1     -14.659 -13.920  -3.168 -0.16 +0.01    +0.066 A 
DOCKED: ATOM     16  C   UNL d   1     -15.729 -14.806  -3.147 -0.12 -0.00    -0.021 A 
DOCKED: ATOM     17  C   UNL d   1     -15.511 -15.673  -2.097 -0.13 +0.00    +0.000 A 
DOCKED: ATOM     18  C   UNL d   1     -14.312 -15.294  -1.498 -0.13 +0.01    +0.070 A 
DOCKED: ATOM     19  C   UNL d   1     -16.924 -14.822  -4.062 -0.05 +0.01    +0.052 C 
DOCKED: ATOM     20  C   UNL d   1     -12.499 -15.583   0.200 -0.01 +0.02    +0.066 A 
DOCKED: ATOM     21  C   UNL d   1     -12.038 -16.080   1.427 -0.11 -0.01    -0.025 A 
DOCKED: ATOM     22  C   UNL d   1     -10.780 -15.543   1.604 -0.11 -0.01    -0.021 A 
DOCKED: ATOM     23  C   UNL d   1     -10.526 -14.739   0.487 -0.12 +0.03    +0.066 A 
DOCKED: ATOM     24  C   UNL d   1     -12.739 -17.008   2.392 -0.08 +0.01    +0.051 C 
DOCKED: ATOM     25  N   UNL d   1     -10.108 -12.671  -1.675 -0.15 -0.11    -0.248 N 
DOCKED: ATOM     26  N   UNL d   1     -12.252 -12.184  -3.495 -0.17 -0.03    -0.248 N 
DOCKED: ATOM     27  N   UNL d   1     -13.766 -14.244  -2.182 -0.11 -0.02    -0.248 N 
DOCKED: ATOM     28  N   UNL d   1     -11.596 -14.732  -0.345 -0.05 -0.08    -0.248 N 
DOCKED: ATOM     29 FE   UNL d   1     -11.926 -13.459  -1.919 -0.06 +0.00    +0.000 Fe
DOCKED: ENDROOT
DOCKED: BRANCH   6  30
DOCKED: ATOM     30  C   UNL d   1      -6.697 -12.578  -0.298 -0.27 +0.06    +0.052 C 
DOCKED: BRANCH  30  31
DOCKED: ATOM     31  C   UNL d   1      -6.543 -14.012   0.197 -0.15 +0.20    +0.115 C 
DOCKED: BRANCH  31  32
DOCKED: ATOM     32  C   UNL d   1      -5.546 -14.756  -0.647 -0.09 +0.30    +0.139 C 
DOCKED: ATOM     33  O   UNL d   1      -5.910 -15.644  -1.404 -0.33 -1.58    -0.650 OA
DOCKED: BRANCH  32  34
DOCKED: ATOM     34  O   UNL d   1      -4.240 -14.449  -0.576 -0.11 -1.67    -0.776 OA
DOCKED: ATOM     35  H   UNL d   1      -3.972 -13.636  -0.126 +0.04 +0.31    +0.167 HD
DOCKED: ENDBRANCH  32  34
DOCKED: ENDBRANCH  31  32
DOCKED: ENDBRANCH  30  31
DOCKED: ENDBRANCH   6  30
DOCKED: BRANCH  22  36
DOCKED: ATOM     36  C   UNL d   1      -9.894 -15.754   2.804 -0.08 +0.03    +0.052 C 
DOCKED: BRANCH  36  37
DOCKED: ATOM     37  C   UNL d   1      -9.471 -14.407   3.372 -0.17 +0.08    +0.115 C 
DOCKED: BRANCH  37  38
DOCKED: ATOM     38  C   UNL d   1      -7.974 -14.291   3.423 -0.12 +0.19    +0.139 C 
DOCKED: ATOM     39  O   UNL d   1      -7.291 -15.203   3.863 +0.11 -1.18    -0.650 OA
DOCKED: BRANCH  38  40
DOCKED: ATOM     40  O   UNL d   1      -7.372 -13.170   2.986 -0.35 -1.40    -0.776 OA
DOCKED: ATOM     41  H   UNL d   1      -7.915 -12.456   2.624 +0.08 +0.19    +0.167 HD
DOCKED: ENDBRANCH  38  40
DOCKED: ENDBRANCH  37  38
DOCKED: ENDBRANCH  36  37
DOCKED: ENDBRANCH  22  36
DOCKED: BRANCH  12  42
DOCKED: ATOM     42  C   UNL d   1     -14.370 -10.378  -5.989 -0.42 +0.00    +0.004 C 
DOCKED: ATOM     43  C   UNL d   1     -15.624 -10.166  -5.569 -0.38 +0.00    +0.012 C 
DOCKED: ENDBRANCH  12  42
DOCKED: BRANCH  17  44
DOCKED: ATOM     44  C   UNL d   1     -16.382 -16.805  -1.706 -0.07 +0.00    +0.004 C 
DOCKED: ATOM     45  C   UNL d   1     -17.296 -16.663  -0.741 -0.09 +0.00    +0.012 C 
DOCKED: ENDBRANCH  17  44
DOCKED: TORSDOF 10
DOCKED: TER
DOCKED: ENDMDL
________________________________________________________________________________


	BEGINNING GENETIC ALGORITHM DOCKING 100 of 100
Run: 100 Seed: 1672896755 706850772 [ Run 100 of 100 GA/GALS ]
Beginning LAMARCKIAN GENETIC ALGORITHM (LGA), with a maximum of 25000000 energy evaluations.

Final-Value: -18.752


	FINAL GENETIC ALGORITHM DOCKED STATE
	_______________________________________________


Detailed state:  trans -4.848 -9.510 -3.096 quatxyzw 0.088912 -0.025386 -0.689556 0.718306 center -0.174 -0.001 -0.047 ntor 10 89.8976 142.6302 64.9282 -105.2900 144.5998 143.6682 35.3229 69.8364 32.2932 -172.8264
State:	 -4.848  -9.510  -3.096   0.128 -0.036 -0.991 88.170     89.90  142.63   64.93 -105.29  144.60  143.67   35.32   69.84   32.29 -172.83

DOCKED: MODEL      100
DOCKED: USER    Run = 100
DOCKED: USER    DPF = D:/Protein_go_brrr/autodock/final/AncA/heme_Fe/dock.dpf
DOCKED: USER  
DOCKED: USER    Estimated Free Energy of Binding    =  -15.41 kcal/mol  [=(1)+(2)+(3)-(4)]
DOCKED: USER    Estimated Inhibition Constant, Ki   =    5.07 pM (picomolar)  [Temperature = 298.15 K]
DOCKED: USER    
DOCKED: USER    (1) Final Intermolecular Energy     =  -18.39 kcal/mol
DOCKED: USER        vdW + Hbond + desolv Energy     =  -14.39 kcal/mol
DOCKED: USER        Electrostatic Energy            =   -4.01 kcal/mol
DOCKED: USER    (2) Final Total Internal Energy     =   -0.36 kcal/mol
DOCKED: USER    (3) Torsional Free Energy           =   +2.98 kcal/mol
DOCKED: USER    (4) Unbound System's Energy  [=(2)] =   -0.36 kcal/mol
DOCKED: USER    
DOCKED: USER    
DOCKED: USER    NEWDPF move heme_Fe_opt.pdbqt
DOCKED: USER    NEWDPF about -0.174000 -0.001000 -0.047000
DOCKED: USER    NEWDPF tran0 -4.848494 -9.510211 -3.096069
DOCKED: USER    NEWDPF quaternion0 0.088912 -0.025386 -0.689556 0.718306
DOCKED: USER    NEWDPF axisangle0 0.127798 -0.036489 -0.991129 88.170449
DOCKED: USER    NEWDPF quat0 0.127798 -0.036489 -0.991129 88.170449
DOCKED: USER    NEWDPF dihe0 89.90 142.63 64.93 -105.29 144.60 143.67 35.32 69.84 32.29 -172.83 
DOCKED: USER  keepresnum = 1 
DOCKED: USER  
DOCKED: REMARK  10 active torsions:
DOCKED: REMARK  status: ('A' for Active; 'I' for Inactive)
DOCKED: REMARK    1  A    between atoms: C_6  and  C_10 
DOCKED: REMARK    2  A    between atoms: C_10  and  C_11 
DOCKED: REMARK    3  A    between atoms: C_11  and  C_12 
DOCKED: REMARK    4  A    between atoms: C_12  and  O_14 
DOCKED: REMARK    5  A    between atoms: C_17  and  C_20 
DOCKED: REMARK    6  A    between atoms: C_24  and  C_27 
DOCKED: REMARK    7  A    between atoms: C_31  and  C_34 
DOCKED: REMARK    8  A    between atoms: C_34  and  C_35 
DOCKED: REMARK    9  A    between atoms: C_35  and  C_36 
DOCKED: REMARK   10  A    between atoms: C_36  and  O_38 
DOCKED: USER                              x       y       z     vdW  Elec       q    Type
DOCKED: USER                           _______ _______ _______ _____ _____    ______ ____
DOCKED: ROOT
DOCKED: ATOM      1  C   UNL d   1      -4.930 -11.379  -2.253 -0.35 +0.07    +0.064 C 
DOCKED: ATOM      2  C   UNL d   1      -1.430  -7.920  -2.716 -0.44 +0.02    +0.064 A 
DOCKED: ATOM      3  C   UNL d   1      -4.828  -4.739  -3.900 -0.43 +0.01    +0.064 C 
DOCKED: ATOM      4  C   UNL d   1      -8.219  -8.096  -3.559 -0.48 +0.02    +0.064 C 
DOCKED: ATOM      5  C   UNL d   1      -3.620 -10.721  -2.355 -0.33 +0.05    +0.066 A 
DOCKED: ATOM      6  C   UNL d   1      -2.401 -11.357  -2.191 -0.32 -0.02    -0.021 A 
DOCKED: ATOM      7  C   UNL d   1      -1.430 -10.395  -2.316 -0.32 -0.01    -0.025 A 
DOCKED: ATOM      8  C   UNL d   1      -2.094  -9.207  -2.552 -0.39 +0.03    +0.066 A 
DOCKED: ATOM      9  C   UNL d   1       0.049 -10.617  -2.232 -0.34 +0.02    +0.051 C 
DOCKED: ATOM     10  C   UNL d   1      -2.044  -6.770  -3.001 -0.42 +0.02    +0.066 A 
DOCKED: ATOM     11  C   UNL d   1      -1.394  -5.534  -3.039 -0.46 -0.00    -0.021 A 
DOCKED: ATOM     12  C   UNL d   1      -2.356  -4.597  -3.361 -0.41 +0.00    +0.000 A 
DOCKED: ATOM     13  C   UNL d   1      -3.556  -5.316  -3.497 -0.38 +0.01    +0.070 A 
DOCKED: ATOM     14  C   UNL d   1       0.059  -5.249  -2.715 -0.59 +0.01    +0.052 C 
DOCKED: ATOM     15  C   UNL d   1      -5.997  -5.417  -3.981 -0.39 +0.02    +0.066 A 
DOCKED: ATOM     16  C   UNL d   1      -7.170  -4.853  -4.465 -0.46 -0.00    -0.021 A 
DOCKED: ATOM     17  C   UNL d   1      -8.150  -5.818  -4.365 -0.48 +0.00    +0.000 A 
DOCKED: ATOM     18  C   UNL d   1      -7.552  -6.950  -3.817 -0.41 +0.02    +0.070 A 
DOCKED: ATOM     19  C   UNL d   1      -7.371  -3.452  -4.979 -0.59 +0.01    +0.052 C 
DOCKED: ATOM     20  C   UNL d   1      -7.610  -9.327  -3.041 -0.22 +0.03    +0.066 A 
DOCKED: ATOM     21  C   UNL d   1      -8.315 -10.449  -2.583 -0.27 -0.01    -0.025 A 
DOCKED: ATOM     22  C   UNL d   1      -7.358 -11.377  -2.228 -0.21 -0.02    -0.021 A 
DOCKED: ATOM     23  C   UNL d   1      -6.114 -10.786  -2.475 -0.06 +0.05    +0.066 A 
DOCKED: ATOM     24  C   UNL d   1      -9.810 -10.646  -2.478 -0.42 +0.02    +0.051 C 
DOCKED: ATOM     25  N   UNL d   1      -3.427  -9.410  -2.584 -0.24 -0.12    -0.248 N 
DOCKED: ATOM     26  N   UNL d   1      -3.368  -6.639  -3.269 -0.25 -0.07    -0.248 N 
DOCKED: ATOM     27  N   UNL d   1      -6.219  -6.720  -3.621 -0.15 -0.11    -0.248 N 
DOCKED: ATOM     28  N   UNL d   1      -6.273  -9.519  -2.929 -0.13 -0.13    -0.248 N 
DOCKED: ATOM     29 FE   UNL d   1      -4.823  -8.079  -3.099 -0.09 +0.00    +0.000 Fe
DOCKED: ENDROOT
DOCKED: BRANCH   6  30
DOCKED: ATOM     30  C   UNL d   1      -2.166 -12.809  -1.950 -0.27 +0.07    +0.052 C 
DOCKED: BRANCH  30  31
DOCKED: ATOM     31  C   UNL d   1      -1.285 -13.403  -3.043 -0.21 +0.13    +0.115 C 
DOCKED: BRANCH  31  32
DOCKED: ATOM     32  C   UNL d   1      -1.703 -14.815  -3.346 -0.02 +0.23    +0.139 C 
DOCKED: ATOM     33  O   UNL d   1      -1.646 -15.250  -4.488 -0.06 -0.94    -0.650 OA
DOCKED: BRANCH  32  34
DOCKED: ATOM     34  O   UNL d   1      -2.145 -15.614  -2.361 -0.20 -1.45    -0.776 OA
DOCKED: ATOM     35  H   UNL d   1      -1.508 -16.159  -1.877 +0.02 +0.19    +0.167 HD
DOCKED: ENDBRANCH  32  34
DOCKED: ENDBRANCH  31  32
DOCKED: ENDBRANCH  30  31
DOCKED: ENDBRANCH   6  30
DOCKED: BRANCH  22  36
DOCKED: ATOM     36  C   UNL d   1      -7.627 -12.736  -1.638 -0.26 +0.05    +0.052 C 
DOCKED: BRANCH  36  37
DOCKED: ATOM     37  C   UNL d   1      -8.015 -12.593  -0.173 -0.23 +0.10    +0.115 C 
DOCKED: BRANCH  37  38
DOCKED: ATOM     38  C   UNL d   1      -6.943 -13.141   0.725 -0.21 +0.20    +0.139 C 
DOCKED: ATOM     39  O   UNL d   1      -6.687 -12.604   1.793 -0.57 -1.15    -0.650 OA
DOCKED: BRANCH  38  40
DOCKED: ATOM     40  O   UNL d   1      -6.249 -14.232   0.353 -0.32 -1.60    -0.776 OA
DOCKED: ATOM     41  H   UNL d   1      -6.709 -14.945  -0.112 +0.03 +0.27    +0.167 HD
DOCKED: ENDBRANCH  38  40
DOCKED: ENDBRANCH  37  38
DOCKED: ENDBRANCH  36  37
DOCKED: ENDBRANCH  22  36
DOCKED: BRANCH  12  42
DOCKED: ATOM     42  C   UNL d   1      -2.108  -3.129  -3.501 -0.43 +0.00    +0.004 C 
DOCKED: ATOM     43  C   UNL d   1      -2.209  -2.523  -4.692 -0.57 +0.00    +0.012 C 
DOCKED: ENDBRANCH  12  42
DOCKED: BRANCH  17  44
DOCKED: ATOM     44  C   UNL d   1      -9.562  -5.674  -4.785 -0.48 +0.00    +0.004 C 
DOCKED: ATOM     45  C   UNL d   1     -10.297  -4.636  -4.373 -0.57 +0.00    +0.012 C 
DOCKED: ENDBRANCH  17  44
DOCKED: TORSDOF 10
DOCKED: TER
DOCKED: ENDMDL
________________________________________________________________________________

DPF> analysis                             # perform a ranked cluster analysis


		CLUSTER ANALYSIS OF CONFORMATIONS
		_________________________________

Number of conformations = 100

RMSD cluster analysis will be performed using the ligand atoms only (45 / 45 total atoms).

Outputting structurally similar clusters, ranked in order of increasing energy.


________________________________________________________________________________

Number of distinct conformational clusters found = 13,  out of 100 runs,
Using an rmsd-tolerance of 2.0 A


	CLUSTERING HISTOGRAM
	____________________

________________________________________________________________________________
     |           |     |           |     |                                    
Clus | Lowest    | Run | Mean      | Num | Histogram                          
-ter | Binding   |     | Binding   | in  |                                    
Rank | Energy    |     | Energy    | Clus|    5    10   15   20   25   30   35
_____|___________|_____|___________|_____|____:____|____:____|____:____|____:___
   1 |    -15.81 |  80 |    -14.81 |  64 |################################################################
   2 |    -13.89 |  94 |    -13.57 |   4 |####
   3 |    -13.38 |   8 |    -11.92 |   7 |#######
   4 |    -12.33 |  95 |    -12.33 |   1 |#
   5 |     -9.81 |   4 |     -9.41 |   6 |######
   6 |     -9.70 |  50 |     -9.50 |   5 |#####
   7 |     -9.68 |  13 |     -9.32 |   5 |#####
   8 |     -9.25 |  16 |     -9.25 |   1 |#
   9 |     -7.97 |  64 |     -7.97 |   1 |#
  10 |     -6.95 |  11 |     -6.83 |   2 |##
  11 |     -6.92 |  38 |     -6.92 |   1 |#
  12 |     -6.42 |  66 |     -6.39 |   2 |##
  13 |     -6.30 |  40 |     -6.30 |   1 |#
_____|___________|_____|___________|_____|______________________________________


Number of multi-member conformational clusters found = 8, out of 100 runs.

	RMSD TABLE
	__________

_____________________________________________________________________
     |      |      |           |         |                 |
Rank | Sub- | Run  | Binding   | Cluster | Reference       | Grep
     | Rank |      | Energy    | RMSD    | RMSD            | Pattern
_____|______|______|___________|_________|_________________|___________
   1      1     80      -15.81      0.00      8.55           RANKING
   1      2     67      -15.75      1.06      8.23           RANKING
   1      3     10      -15.74      0.23      8.59           RANKING
   1      4      5      -15.74      1.07      8.23           RANKING
   1      5     76      -15.72      0.97      8.27           RANKING
   1      6      2      -15.63      0.85      8.48           RANKING
   1      7     83      -15.63      1.18      8.32           RANKING
   1      8     96      -15.59      1.08      8.20           RANKING
   1      9     17      -15.59      1.03      8.39           RANKING
   1     10     56      -15.55      1.22      8.16           RANKING
   1     11     37      -15.54      0.29      8.55           RANKING
   1     12     54      -15.53      1.09      8.14           RANKING
   1     13     53      -15.52      1.25      8.05           RANKING
   1     14     84      -15.49      0.56      8.62           RANKING
   1     15     74      -15.47      0.54      8.58           RANKING
   1     16     78      -15.46      1.07      8.21           RANKING
   1     17    100      -15.41      0.93      8.39           RANKING
   1     18     19      -15.40      1.57      8.12           RANKING
   1     19     44      -15.40      1.05      8.31           RANKING
   1     20     57      -15.40      1.08      8.18           RANKING
   1     21     27      -15.38      1.33      8.10           RANKING
   1     22     52      -15.37      1.16      8.21           RANKING
   1     23     68      -15.36      1.35      8.07           RANKING
   1     24     30      -15.36      1.10      8.19           RANKING
   1     25      7      -15.34      1.22      8.03           RANKING
   1     26      6      -15.29      1.10      8.28           RANKING
   1     27     82      -15.27      1.11      8.17           RANKING
   1     28     33      -15.21      1.28      8.10           RANKING
   1     29     34      -15.19      1.18      8.19           RANKING
   1     30     91      -15.18      1.51      8.24           RANKING
   1     31     65      -15.16      1.31      7.99           RANKING
   1     32     21      -15.15      1.21      8.07           RANKING
   1     33     32      -15.14      1.26      8.20           RANKING
   1     34     81      -15.05      1.58      7.95           RANKING
   1     35     26      -15.01      0.92      8.33           RANKING
   1     36     24      -15.01      1.14      8.21           RANKING
   1     37     18      -14.91      1.25      8.02           RANKING
   1     38     92      -14.89      1.16      8.15           RANKING
   1     39     69      -14.89      1.02      8.29           RANKING
   1     40     97      -14.88      1.01      8.46           RANKING
   1     41     12      -14.86      1.59      7.91           RANKING
   1     42     59      -14.82      1.26      8.09           RANKING
   1     43     39      -14.82      1.58      7.84           RANKING
   1     44      9      -14.78      1.58      7.82           RANKING
   1     45     85      -14.78      1.19      8.16           RANKING
   1     46     20      -14.77      1.49      8.02           RANKING
   1     47     86      -14.76      0.96      8.38           RANKING
   1     48     36      -14.75      0.95      8.46           RANKING
   1     49     23      -14.71      1.39      7.92           RANKING
   1     50     31      -14.65      1.10      8.14           RANKING
   1     51     89      -14.62      0.94      8.46           RANKING
   1     52     93      -14.54      1.38      8.00           RANKING
   1     53     90      -14.52      0.99      8.67           RANKING
   1     54     88      -14.17      0.99      8.35           RANKING
   1     55     42      -14.11      0.85      8.53           RANKING
   1     56     98      -13.52      1.73      8.85           RANKING
   1     57     63      -13.03      1.81      9.55           RANKING
   1     58     29      -12.83      1.65      9.60           RANKING
   1     59     75      -12.58      1.90      9.70           RANKING
   1     60     70      -12.56      1.87      9.63           RANKING
   1     61     72      -12.47      1.70      9.66           RANKING
   1     62      1      -12.43      1.93      9.84           RANKING
   1     63     60      -12.35      1.83      9.75           RANKING
   1     64     77      -11.90      1.88      9.73           RANKING
   2      1     94      -13.89      0.00      8.10           RANKING
   2      2     45      -13.68      0.59      8.07           RANKING
   2      3     46      -13.53      0.63      8.14           RANKING
   2      4     62      -13.19      0.80      8.06           RANKING
   3      1      8      -13.38      0.00      9.24           RANKING
   3      2     43      -13.25      0.58      9.34           RANKING
   3      3     58      -11.86      1.74     10.22           RANKING
   3      4     61      -11.78      1.64     10.14           RANKING
   3      5     47      -11.36      1.73     10.56           RANKING
   3      6     35      -11.23      1.39     10.34           RANKING
   3      7     15      -10.59      1.87     10.66           RANKING
   4      1     95      -12.33      0.00      9.53           RANKING
   5      1      4       -9.81      0.00     14.81           RANKING
   5      2     87       -9.63      0.71     14.94           RANKING
   5      3     28       -9.56      0.81     14.79           RANKING
   5      4     41       -9.33      1.08     15.17           RANKING
   5      5     48       -9.33      0.41     14.82           RANKING
   5      6     51       -8.81      0.89     14.84           RANKING
   6      1     50       -9.70      0.00     12.06           RANKING
   6      2     71       -9.62      0.62     12.25           RANKING
   6      3     55       -9.55      1.33     12.44           RANKING
   6      4     79       -9.48      1.29     12.43           RANKING
   6      5     25       -9.14      1.42     12.30           RANKING
   7      1     13       -9.68      0.00     14.09           RANKING
   7      2     73       -9.64      0.12     14.09           RANKING
   7      3     99       -9.21      0.85     14.28           RANKING
   7      4     22       -9.15      0.98     14.31           RANKING
   7      5     49       -8.91      0.87     14.45           RANKING
   8      1     16       -9.25      0.00     11.01           RANKING
   9      1     64       -7.97      0.00     16.57           RANKING
  10      1     11       -6.95      0.00     14.80           RANKING
  10      2      3       -6.72      0.97     14.95           RANKING
  11      1     38       -6.92      0.00     15.38           RANKING
  12      1     66       -6.42      0.00     16.65           RANKING
  12      2     14       -6.36      1.50     16.79           RANKING
  13      1     40       -6.30      0.00     13.68           RANKING
_______________________________________________________________________



	INFORMATION ENTROPY ANALYSIS FOR THIS CLUSTERING
	________________________________________________


Information entropy for this clustering = 0.32  (rmstol = 2.00 Angstrom)

_______________________________________________________________________


	STATISTICAL MECHANICAL ANALYSIS
	_______________________________


Partition function, Q =   102.23            at Temperature, T = 298.15 K
Free energy,        A ~ -2741.54 kcal/mol   at Temperature, T = 298.15 K
Internal energy,    U =   -13.07 kcal/mol   at Temperature, T = 298.15 K
Entropy,            S =     9.15 kcal/mol/K at Temperature, T = 298.15 K

_______________________________________________________________________


	LOWEST ENERGY DOCKED CONFORMATION from EACH CLUSTER
	___________________________________________________



Keeping original residue number (specified in the input PDBQ file) for outputting.

MODEL       80
USER    Run = 80
USER    Cluster Rank = 1
USER    Number of conformations in this cluster = 64
USER  
USER    RMSD from reference structure       = 8.549 A
USER  
USER    Estimated Free Energy of Binding    =  -15.81 kcal/mol  [=(1)+(2)+(3)-(4)]
USER    Estimated Inhibition Constant, Ki   =    2.57 pM (picomolar)  [Temperature = 298.15 K]
USER    
USER    (1) Final Intermolecular Energy     =  -18.79 kcal/mol
USER        vdW + Hbond + desolv Energy     =  -14.71 kcal/mol
USER        Electrostatic Energy            =   -4.08 kcal/mol
USER    (2) Final Total Internal Energy     =   -0.43 kcal/mol
USER    (3) Torsional Free Energy           =   +2.98 kcal/mol
USER    (4) Unbound System's Energy  [=(2)] =   -0.43 kcal/mol
USER    
USER    
USER  
USER    DPF = D:/Protein_go_brrr/autodock/final/AncA/heme_Fe/dock.dpf
USER    NEWDPF move	heme_Fe_opt.pdbqt
USER    NEWDPF about	-0.174000 -0.001000 -0.047000
USER    NEWDPF tran0	-4.707945 -9.333430 -2.378990
USER    NEWDPF axisangle0	-0.687924 -0.722438 0.069606 163.327048
USER    NEWDPF quaternion0	-0.680655 -0.714804 0.068871 0.144986
USER    NEWDPF dihe0	89.98 12.80 53.37 -142.52 152.15 -87.68 45.52 -8.67 -34.10 180.00 
USER  
USER                              x       y       z    vdW   Elec        q     RMS 
ATOM      1  C   UNL d   1      -4.644 -11.383  -2.293 -0.36 +0.07    +0.064     8.549
ATOM      2  C   UNL d   1      -8.082  -8.057  -3.537 -0.42 +0.02    +0.064     8.549
ATOM      3  C   UNL d   1      -4.650  -4.708  -3.799 -0.42 +0.01    +0.064     8.549
ATOM      4  C   UNL d   1      -1.322  -7.887  -2.493 -0.51 +0.02    +0.064     8.549
ATOM      5  C   UNL d   1      -5.942 -10.739  -2.538 -0.14 +0.05    +0.066     8.549
ATOM      6  C   UNL d   1      -7.170 -11.372  -2.437 -0.22 -0.02    -0.021     8.549
ATOM      7  C   UNL d   1      -8.124 -10.448  -2.786 -0.25 -0.01    -0.025     8.549
ATOM      8  C   UNL d   1      -7.441  -9.286  -3.087 -0.24 +0.03    +0.066     8.549
ATOM      9  C   UNL d   1      -9.605 -10.674  -2.807 -0.39 +0.02    +0.051     8.549
ATOM     10  C   UNL d   1      -7.453  -6.906  -3.779 -0.41 +0.02    +0.066     8.549
ATOM     11  C   UNL d   1      -8.078  -5.779  -4.319 -0.46 -0.00    -0.021     8.549
ATOM     12  C   UNL d   1      -7.105  -4.805  -4.420 -0.47 +0.00    +0.000     8.549
ATOM     13  C   UNL d   1      -5.924  -5.396  -3.939 -0.38 +0.02    +0.070     8.549
ATOM     14  C   UNL d   1      -9.516  -5.659  -4.781 -0.44 +0.01    +0.052     8.549
ATOM     15  C   UNL d   1      -3.498  -5.287  -3.386 -0.38 +0.01    +0.066     8.549
ATOM     16  C   UNL d   1      -2.325  -4.573  -3.169 -0.39 -0.00    -0.021     8.549
ATOM     17  C   UNL d   1      -1.363  -5.489  -2.796 -0.47 +0.00    +0.000     8.549
ATOM     18  C   UNL d   1      -1.971  -6.742  -2.798 -0.42 +0.02    +0.070     8.549
ATOM     19  C   UNL d   1      -2.109  -3.093  -3.331 -0.34 +0.01    +0.052     8.549
ATOM     20  C   UNL d   1      -1.943  -9.215  -2.425 -0.40 +0.03    +0.066     8.549
ATOM     21  C   UNL d   1      -1.250 -10.428  -2.309 -0.31 -0.01    -0.025     8.549
ATOM     22  C   UNL d   1      -2.217 -11.410  -2.241 -0.31 -0.02    -0.021     8.549
ATOM     23  C   UNL d   1      -3.454 -10.761  -2.323 -0.33 +0.05    +0.066     8.549
ATOM     24  C   UNL d   1       0.242 -10.662  -2.268 -0.32 +0.02    +0.051     8.549
ATOM     25  N   UNL d   1      -6.114  -9.463  -2.925 -0.15 -0.13    -0.248     8.549
ATOM     26  N   UNL d   1      -6.133  -6.679  -3.557 -0.17 -0.11    -0.248     8.549
ATOM     27  N   UNL d   1      -3.294  -6.614  -3.117 -0.25 -0.07    -0.248     8.549
ATOM     28  N   UNL d   1      -3.280  -9.427  -2.481 -0.25 -0.12    -0.248     8.549
ATOM     29 FE   UNL d   1      -4.705  -8.053  -3.018 -0.09 +0.00    +0.000     8.549
ATOM     30  C   UNL d   1      -7.428 -12.776  -2.009 -0.26 +0.05    +0.052     8.549
ATOM     31  C   UNL d   1      -6.813 -13.046  -0.641 -0.24 +0.14    +0.115     8.549
ATOM     32  C   UNL d   1      -6.079 -14.359  -0.644 -0.16 +0.26    +0.139     8.549
ATOM     33  O   UNL d   1      -5.131 -14.545   0.106 -0.51 -1.57    -0.650     8.549
ATOM     34  O   UNL d   1      -6.461 -15.343  -1.476 -0.52 -1.63    -0.776     8.549
ATOM     35  H   UNL d   1      -7.120 -15.983  -1.174 +0.02 +0.23    +0.167     8.549
ATOM     36  C   UNL d   1      -1.961 -12.891  -2.151 -0.26 +0.06    +0.052     8.549
ATOM     37  C   UNL d   1      -1.708 -13.454  -3.542 -0.17 +0.16    +0.115     8.549
ATOM     38  C   UNL d   1      -1.225 -14.875  -3.469 -0.16 +0.18    +0.139     8.549
ATOM     39  O   UNL d   1      -0.034 -15.125  -3.354 +0.03 -0.50    -0.650     8.549
ATOM     40  O   UNL d   1      -2.107 -15.888  -3.533 -0.34 -1.60    -0.776     8.549
ATOM     41  H   UNL d   1      -1.815 -16.781  -3.304 +0.02 +0.23    +0.167     8.549
ATOM     42  C   UNL d   1      -7.326  -3.428  -4.960 -0.64 +0.00    +0.004     8.549
ATOM     43  C   UNL d   1      -7.471  -2.380  -4.139 -0.66 +0.00    +0.012     8.549
ATOM     44  C   UNL d   1       0.041  -5.181  -2.441 -0.53 +0.00    +0.004     8.549
ATOM     45  C   UNL d   1       0.991  -5.142  -3.381 -0.63 +0.00    +0.012     8.549
TER
ENDMDL
MODEL       94
USER    Run = 94
USER    Cluster Rank = 2
USER    Number of conformations in this cluster = 4
USER  
USER    RMSD from reference structure       = 8.099 A
USER  
USER    Estimated Free Energy of Binding    =  -13.89 kcal/mol  [=(1)+(2)+(3)-(4)]
USER    Estimated Inhibition Constant, Ki   =   66.13 pM (picomolar)  [Temperature = 298.15 K]
USER    
USER    (1) Final Intermolecular Energy     =  -16.87 kcal/mol
USER        vdW + Hbond + desolv Energy     =  -14.69 kcal/mol
USER        Electrostatic Energy            =   -2.18 kcal/mol
USER    (2) Final Total Internal Energy     =   -0.38 kcal/mol
USER    (3) Torsional Free Energy           =   +2.98 kcal/mol
USER    (4) Unbound System's Energy  [=(2)] =   -0.38 kcal/mol
USER    
USER    
USER  
USER    DPF = D:/Protein_go_brrr/autodock/final/AncA/heme_Fe/dock.dpf
USER    NEWDPF move	heme_Fe_opt.pdbqt
USER    NEWDPF about	-0.174000 -0.001000 -0.047000
USER    NEWDPF tran0	-4.524116 -8.082928 -3.330792
USER    NEWDPF axisangle0	-0.051003 0.144811 0.988144 -162.129495
USER    NEWDPF quaternion0	-0.050384 0.143054 0.976152 -0.155318
USER    NEWDPF dihe0	-144.85 152.29 -122.41 -138.75 161.25 80.82 -25.49 133.75 35.92 -7.72 
USER  
USER                              x       y       z    vdW   Elec        q     RMS 
ATOM      1  C   UNL d   1      -2.659  -8.444  -2.556 -0.47 +0.02    +0.064     8.099
ATOM      2  C   UNL d   1      -5.049  -4.418  -4.139 -0.37 +0.01    +0.064     8.099
ATOM      3  C   UNL d   1      -9.167  -6.885  -3.979 -0.48 +0.01    +0.064     8.099
ATOM      4  C   UNL d   1      -6.859 -10.823  -2.547 -0.07 +0.04    +0.064     8.099
ATOM      5  C   UNL d   1      -2.938  -7.107  -3.096 -0.38 +0.02    +0.066     8.099
ATOM      6  C   UNL d   1      -1.975  -6.154  -3.387 -0.45 -0.00    -0.021     8.099
ATOM      7  C   UNL d   1      -2.640  -5.035  -3.823 -0.42 -0.00    -0.025     8.099
ATOM      8  C   UNL d   1      -3.985  -5.348  -3.782 -0.39 +0.01    +0.066     8.099
ATOM      9  C   UNL d   1      -2.010  -3.752  -4.269 -0.44 +0.01    +0.051     8.099
ATOM     10  C   UNL d   1      -6.350  -4.713  -4.164 -0.40 +0.01    +0.066     8.099
ATOM     11  C   UNL d   1      -7.354  -3.770  -4.399 -0.50 -0.00    -0.021     8.099
ATOM     12  C   UNL d   1      -8.552  -4.453  -4.341 -0.51 +0.00    +0.000     8.099
ATOM     13  C   UNL d   1      -8.215  -5.789  -4.063 -0.41 +0.02    +0.070     8.099
ATOM     14  C   UNL d   1      -7.184  -2.278  -4.600 -0.61 +0.00    +0.052     8.099
ATOM     15  C   UNL d   1      -8.853  -8.163  -3.661 -0.44 +0.02    +0.066     8.099
ATOM     16  C   UNL d   1      -9.776  -9.201  -3.689 -0.48 -0.00    -0.021     8.099
ATOM     17  C   UNL d   1      -9.113 -10.337  -3.273 -0.32 +0.00    +0.000     8.099
ATOM     18  C   UNL d   1      -7.800  -9.964  -2.996 -0.17 +0.03    +0.070     8.099
ATOM     19  C   UNL d   1     -11.231  -9.126  -4.067 -0.44 +0.00    +0.052     8.099
ATOM     20  C   UNL d   1      -5.453 -10.480  -2.305 -0.09 +0.05    +0.066     8.099
ATOM     21  C   UNL d   1      -4.519 -11.300  -1.654 -0.32 -0.02    -0.025     8.099
ATOM     22  C   UNL d   1      -3.326 -10.608  -1.679 -0.37 -0.01    -0.021     8.099
ATOM     23  C   UNL d   1      -3.578  -9.397  -2.334 -0.38 +0.03    +0.066     8.099
ATOM     24  C   UNL d   1      -4.731 -12.663  -1.036 -0.30 +0.08    +0.051     8.099
ATOM     25  N   UNL d   1      -4.163  -6.612  -3.349 -0.19 -0.09    -0.248     8.099
ATOM     26  N   UNL d   1      -6.873  -5.946  -3.946 -0.26 -0.07    -0.248     8.099
ATOM     27  N   UNL d   1      -7.627  -8.637  -3.276 -0.27 -0.09    -0.248     8.099
ATOM     28  N   UNL d   1      -4.887  -9.305  -2.674 -0.23 -0.13    -0.248     8.099
ATOM     29 FE   UNL d   1      -5.881  -7.628  -3.309 -0.09 +0.00    +0.000     8.099
ATOM     30  C   UNL d   1      -0.496  -6.304  -3.277 -0.52 +0.01    +0.052     8.099
ATOM     31  C   UNL d   1       0.181  -5.967  -4.600 -0.34 +0.02    +0.115     8.099
ATOM     32  C   UNL d   1       1.596  -5.516  -4.367 -0.54 +0.02    +0.139     8.099
ATOM     33  O   UNL d   1       2.412  -5.526  -5.279 -0.09 -0.09    -0.650     8.099
ATOM     34  O   UNL d   1       1.978  -5.095  -3.150 +0.07 -0.08    -0.776     8.099
ATOM     35  H   UNL d   1       1.599  -5.517  -2.367 -0.16 +0.01    +0.167     8.099
ATOM     36  C   UNL d   1      -2.031 -11.066  -1.064 -0.29 +0.04    +0.052     8.099
ATOM     37  C   UNL d   1      -1.243 -11.885  -2.076 -0.26 +0.08    +0.115     8.099
ATOM     38  C   UNL d   1      -2.121 -12.906  -2.744 -0.19 +0.20    +0.139     8.099
ATOM     39  O   UNL d   1      -2.854 -12.590  -3.670 -0.35 -1.14    -0.650     8.099
ATOM     40  O   UNL d   1      -2.107 -14.182  -2.321 -0.02 -1.38    -0.776     8.099
ATOM     41  H   UNL d   1      -1.304 -14.533  -1.911 +0.04 +0.19    +0.167     8.099
ATOM     42  C   UNL d   1      -9.901  -3.833  -4.525 -0.70 +0.00    +0.004     8.099
ATOM     43  C   UNL d   1     -10.450  -3.079  -3.564 -0.65 +0.00    +0.012     8.099
ATOM     44  C   UNL d   1      -9.693 -11.695  -3.167 -0.09 +0.00    +0.004     8.099
ATOM     45  C   UNL d   1     -10.358 -12.072  -2.070 -0.33 +0.00    +0.012     8.099
TER
ENDMDL
MODEL        8
USER    Run = 8
USER    Cluster Rank = 3
USER    Number of conformations in this cluster = 7
USER  
USER    RMSD from reference structure       = 9.239 A
USER  
USER    Estimated Free Energy of Binding    =  -13.38 kcal/mol  [=(1)+(2)+(3)-(4)]
USER    Estimated Inhibition Constant, Ki   =  156.81 pM (picomolar)  [Temperature = 298.15 K]
USER    
USER    (1) Final Intermolecular Energy     =  -16.36 kcal/mol
USER        vdW + Hbond + desolv Energy     =  -12.62 kcal/mol
USER        Electrostatic Energy            =   -3.74 kcal/mol
USER    (2) Final Total Internal Energy     =   -0.46 kcal/mol
USER    (3) Torsional Free Energy           =   +2.98 kcal/mol
USER    (4) Unbound System's Energy  [=(2)] =   -0.46 kcal/mol
USER    
USER    
USER  
USER    DPF = D:/Protein_go_brrr/autodock/final/AncA/heme_Fe/dock.dpf
USER    NEWDPF move	heme_Fe_opt.pdbqt
USER    NEWDPF about	-0.174000 -0.001000 -0.047000
USER    NEWDPF tran0	-5.224176 -10.997326 -2.106717
USER    NEWDPF axisangle0	0.168375 -0.099375 -0.980701 100.677806
USER    NEWDPF quaternion0	0.129621 -0.076502 -0.754976 0.638245
USER    NEWDPF dihe0	76.47 38.37 28.46 58.54 168.30 85.87 62.82 132.92 3.15 -148.45 
USER  
USER                              x       y       z    vdW   Elec        q     RMS 
ATOM      1  C   UNL d   1      -4.918 -12.707  -1.015 -0.29 +0.10    +0.064     9.239
ATOM      2  C   UNL d   1      -2.182  -8.738  -2.105 -0.44 +0.02    +0.064     9.239
ATOM      3  C   UNL d   1      -6.165  -6.476  -3.550 -0.31 +0.03    +0.064     9.239
ATOM      4  C   UNL d   1      -8.816 -10.343  -2.600 -0.37 +0.02    +0.064     9.239
ATOM      5  C   UNL d   1      -3.767 -11.829  -1.266 -0.29 +0.08    +0.066     9.239
ATOM      6  C   UNL d   1      -2.442 -12.187  -1.075 -0.27 -0.02    -0.021     9.239
ATOM      7  C   UNL d   1      -1.684 -11.083  -1.374 -0.32 -0.02    -0.025     9.239
ATOM      8  C   UNL d   1      -2.575 -10.092  -1.737 -0.38 +0.04    +0.066     9.239
ATOM      9  C   UNL d   1      -0.189 -11.001  -1.330 -0.37 +0.02    +0.051     9.239
ATOM     10  C   UNL d   1      -3.017  -7.781  -2.515 -0.40 +0.02    +0.066     9.239
ATOM     11  C   UNL d   1      -2.626  -6.460  -2.750 -0.40 -0.01    -0.021     9.239
ATOM     12  C   UNL d   1      -3.760  -5.783  -3.152 -0.42 +0.00    +0.000     9.239
ATOM     13  C   UNL d   1      -4.796  -6.733  -3.132 -0.21 +0.03    +0.070     9.239
ATOM     14  C   UNL d   1      -1.253  -5.856  -2.536 -0.44 +0.01    +0.052     9.239
ATOM     15  C   UNL d   1      -7.178  -7.372  -3.484 -0.38 +0.03    +0.066     9.239
ATOM     16  C   UNL d   1      -8.448  -7.120  -3.985 -0.46 -0.01    -0.021     9.239
ATOM     17  C   UNL d   1      -9.216  -8.233  -3.710 -0.50 +0.00    +0.000     9.239
ATOM     18  C   UNL d   1      -8.394  -9.138  -3.041 -0.36 +0.02    +0.070     9.239
ATOM     19  C   UNL d   1      -8.932  -5.873  -4.675 -0.42 +0.01    +0.052     9.239
ATOM     20  C   UNL d   1      -7.966 -11.346  -1.948 -0.18 +0.04    +0.066     9.239
ATOM     21  C   UNL d   1      -8.426 -12.507  -1.310 -0.23 -0.02    -0.025     9.239
ATOM     22  C   UNL d   1      -7.297 -13.172  -0.877 -0.22 -0.02    -0.021     9.239
ATOM     23  C   UNL d   1      -6.199 -12.392  -1.260 -0.24 +0.08    +0.066     9.239
ATOM     24  C   UNL d   1      -9.849 -12.972  -1.110 -0.24 +0.03    +0.051     9.239
ATOM     25  N   UNL d   1      -3.841 -10.552  -1.680 -0.22 -0.18    -0.248     9.239
ATOM     26  N   UNL d   1      -4.346  -7.948  -2.736 -0.24 -0.11    -0.248     9.239
ATOM     27  N   UNL d   1      -7.130  -8.628  -2.941 -0.15 -0.10    -0.248     9.239
ATOM     28  N   UNL d   1      -6.616 -11.258  -1.873 +0.05 -0.20    -0.248     9.239
ATOM     29 FE   UNL d   1      -5.483  -9.603  -2.305 -0.08 +0.00    +0.000     9.239
ATOM     30  C   UNL d   1      -1.920 -13.517  -0.650 -0.22 +0.06    +0.052     9.239
ATOM     31  C   UNL d   1      -1.588 -14.380  -1.862 -0.16 +0.15    +0.115     9.239
ATOM     32  C   UNL d   1      -2.452 -15.609  -1.886 +0.21 +0.26    +0.139     9.239
ATOM     33  O   UNL d   1      -2.497 -16.321  -2.880 -0.40 -1.45    -0.650     9.239
ATOM     34  O   UNL d   1      -3.188 -15.938  -0.811 -0.01 -1.29    -0.776     9.239
ATOM     35  H   UNL d   1      -2.887 -16.659  -0.239 +0.02 +0.21    +0.167     9.239
ATOM     36  C   UNL d   1      -7.280 -14.460  -0.096 -0.16 +0.07    +0.052     9.239
ATOM     37  C   UNL d   1      -8.196 -14.339   1.113 -0.14 +0.13    +0.115     9.239
ATOM     38  C   UNL d   1      -7.937 -13.060   1.859 -0.28 +0.17    +0.139     9.239
ATOM     39  O   UNL d   1      -8.489 -12.021   1.529 -0.49 -0.58    -0.650     9.239
ATOM     40  O   UNL d   1      -7.087 -13.052   2.901 -0.36 -1.59    -0.776     9.239
ATOM     41  H   UNL d   1      -7.295 -12.507   3.672 +0.08 +0.22    +0.167     9.239
ATOM     42  C   UNL d   1      -3.811  -4.330  -3.501 -0.30 +0.00    +0.004     9.239
ATOM     43  C   UNL d   1      -3.340  -3.886  -4.673 -0.50 +0.00    +0.012     9.239
ATOM     44  C   UNL d   1     -10.636  -8.426  -4.079 -0.54 +0.00    +0.004     9.239
ATOM     45  C   UNL d   1     -10.989  -9.344  -4.985 -0.58 +0.00    +0.012     9.239
TER
ENDMDL
MODEL       95
USER    Run = 95
USER    Cluster Rank = 4
USER    Number of conformations in this cluster = 1
USER  
USER    RMSD from reference structure       = 9.534 A
USER  
USER    Estimated Free Energy of Binding    =  -12.33 kcal/mol  [=(1)+(2)+(3)-(4)]
USER    Estimated Inhibition Constant, Ki   =  911.13 pM (picomolar)  [Temperature = 298.15 K]
USER    
USER    (1) Final Intermolecular Energy     =  -15.32 kcal/mol
USER        vdW + Hbond + desolv Energy     =  -13.13 kcal/mol
USER        Electrostatic Energy            =   -2.19 kcal/mol
USER    (2) Final Total Internal Energy     =   -0.29 kcal/mol
USER    (3) Torsional Free Energy           =   +2.98 kcal/mol
USER    (4) Unbound System's Energy  [=(2)] =   -0.29 kcal/mol
USER    
USER    
USER  
USER    DPF = D:/Protein_go_brrr/autodock/final/AncA/heme_Fe/dock.dpf
USER    NEWDPF move	heme_Fe_opt.pdbqt
USER    NEWDPF about	-0.174000 -0.001000 -0.047000
USER    NEWDPF tran0	-5.541726 -9.902288 -1.826035
USER    NEWDPF axisangle0	-0.236319 -0.962004 0.136754 157.118363
USER    NEWDPF quaternion0	-0.231623 -0.942889 0.134036 0.198356
USER    NEWDPF dihe0	75.33 114.13 -142.62 -102.00 119.42 -154.49 53.67 22.21 -145.91 128.67 
USER  
USER                              x       y       z    vdW   Elec        q     RMS 
ATOM      1  C   UNL d   1      -3.792 -10.896  -1.424 -0.38 +0.05    +0.064     9.534
ATOM      2  C   UNL d   1      -8.455 -12.277  -2.310 -0.22 +0.04    +0.064     9.534
ATOM      3  C   UNL d   1      -9.377  -7.860  -3.955 -0.52 +0.01    +0.064     9.534
ATOM      4  C   UNL d   1      -4.898  -6.473  -3.008 -0.38 +0.03    +0.064     9.534
ATOM      5  C   UNL d   1      -5.041 -11.670  -1.443 -0.26 +0.07    +0.066     9.534
ATOM      6  C   UNL d   1      -5.184 -12.953  -0.939 -0.25 -0.04    -0.021     9.534
ATOM      7  C   UNL d   1      -6.478 -13.337  -1.189 -0.22 -0.04    -0.025     9.534
ATOM      8  C   UNL d   1      -7.076 -12.273  -1.836 -0.24 +0.07    +0.066     9.534
ATOM      9  C   UNL d   1      -7.100 -14.645  -0.808 -0.15 +0.07    +0.051     9.534
ATOM     10  C   UNL d   1      -9.072 -11.244  -2.884 -0.22 +0.03    +0.066     9.534
ATOM     11  C   UNL d   1     -10.356 -11.315  -3.431 -0.24 -0.01    -0.021     9.534
ATOM     12  C   UNL d   1     -10.639 -10.058  -3.927 -0.46 +0.00    +0.000     9.534
ATOM     13  C   UNL d   1      -9.499  -9.280  -3.663 -0.43 +0.02    +0.070     9.534
ATOM     14  C   UNL d   1     -11.243 -12.539  -3.537 -0.21 +0.01    +0.052     9.534
ATOM     15  C   UNL d   1      -8.263  -7.119  -3.750 -0.42 +0.02    +0.066     9.534
ATOM     16  C   UNL d   1      -8.219  -5.745  -3.949 -0.45 -0.00    -0.021     9.534
ATOM     17  C   UNL d   1      -6.927  -5.343  -3.680 -0.46 +0.00    +0.000     9.534
ATOM     18  C   UNL d   1      -6.211  -6.484  -3.326 -0.32 +0.03    +0.070     9.534
ATOM     19  C   UNL d   1      -9.338  -4.846  -4.400 -0.56 +0.01    +0.052     9.534
ATOM     20  C   UNL d   1      -4.127  -7.643  -2.571 -0.35 +0.03    +0.066     9.534
ATOM     21  C   UNL d   1      -2.732  -7.688  -2.432 -0.44 -0.01    -0.025     9.534
ATOM     22  C   UNL d   1      -2.440  -8.954  -1.968 -0.47 -0.01    -0.021     9.534
ATOM     23  C   UNL d   1      -3.661  -9.629  -1.848 -0.39 +0.03    +0.066     9.534
ATOM     24  C   UNL d   1      -1.720  -6.605  -2.723 -0.51 +0.01    +0.051     9.534
ATOM     25  N   UNL d   1      -6.202 -11.257  -1.980 -0.06 -0.22    -0.248     9.534
ATOM     26  N   UNL d   1      -8.540 -10.004  -3.035 -0.22 -0.09    -0.248     9.534
ATOM     27  N   UNL d   1      -7.042  -7.570  -3.326 -0.27 -0.10    -0.248     9.534
ATOM     28  N   UNL d   1      -4.682  -8.839  -2.260 -0.20 -0.11    -0.248     9.534
ATOM     29 FE   UNL d   1      -6.610  -9.420  -2.648 -0.08 +0.00    +0.000     9.534
ATOM     30  C   UNL d   1      -4.151 -13.766  -0.237 +0.07 +0.10    +0.052     9.534
ATOM     31  C   UNL d   1      -2.907 -13.925  -1.104 -0.16 +0.20    +0.115     9.534
ATOM     32  C   UNL d   1      -2.554 -15.379  -1.257 -0.08 +0.23    +0.139     9.534
ATOM     33  O   UNL d   1      -2.532 -15.902  -2.363 -0.18 -1.45    -0.650     9.534
ATOM     34  O   UNL d   1      -2.259 -16.119  -0.175 +0.01 -0.91    -0.776     9.534
ATOM     35  H   UNL d   1      -1.336 -16.348  -0.001 +0.02 +0.15    +0.167     9.534
ATOM     36  C   UNL d   1      -1.061  -9.497  -1.702 -0.41 +0.02    +0.052     9.534
ATOM     37  C   UNL d   1      -0.937 -10.894  -2.291 -0.28 +0.06    +0.115     9.534
ATOM     38  C   UNL d   1       0.176 -11.659  -1.633 -0.28 +0.06    +0.139     9.534
ATOM     39  O   UNL d   1       0.742 -12.569  -2.220 +0.03 -0.31    -0.650     9.534
ATOM     40  O   UNL d   1       0.556 -11.348  -0.381 +0.02 -0.25    -0.776     9.534
ATOM     41  H   UNL d   1       0.966 -10.487  -0.215 -0.44 +0.00    +0.167     9.534
ATOM     42  C   UNL d   1     -11.911  -9.676  -4.615 -0.37 +0.00    +0.004     9.534
ATOM     43  C   UNL d   1     -12.009  -9.706  -5.950 -0.57 +0.00    +0.012     9.534
ATOM     44  C   UNL d   1      -6.416  -3.955  -3.738 -0.49 +0.00    +0.004     9.534
ATOM     45  C   UNL d   1      -6.668  -3.176  -4.795 -0.63 +0.00    +0.012     9.534
TER
ENDMDL
MODEL        4
USER    Run = 4
USER    Cluster Rank = 5
USER    Number of conformations in this cluster = 6
USER  
USER    RMSD from reference structure       = 14.809 A
USER  
USER    Estimated Free Energy of Binding    =   -9.81 kcal/mol  [=(1)+(2)+(3)-(4)]
USER    Estimated Inhibition Constant, Ki   =   64.94 nM (nanomolar)  [Temperature = 298.15 K]
USER    
USER    (1) Final Intermolecular Energy     =  -12.79 kcal/mol
USER        vdW + Hbond + desolv Energy     =   -8.46 kcal/mol
USER        Electrostatic Energy            =   -4.33 kcal/mol
USER    (2) Final Total Internal Energy     =   -2.05 kcal/mol
USER    (3) Torsional Free Energy           =   +2.98 kcal/mol
USER    (4) Unbound System's Energy  [=(2)] =   -2.05 kcal/mol
USER    
USER    
USER  
USER    DPF = D:/Protein_go_brrr/autodock/final/AncA/heme_Fe/dock.dpf
USER    NEWDPF move	heme_Fe_opt.pdbqt
USER    NEWDPF about	-0.174000 -0.001000 -0.047000
USER    NEWDPF tran0	-9.811384 -14.416632 -3.524155
USER    NEWDPF axisangle0	0.420919 0.128746 -0.897915 -173.505921
USER    NEWDPF quaternion0	0.420243 0.128539 -0.896474 -0.056641
USER    NEWDPF dihe0	121.31 26.79 73.36 44.23 141.10 -56.85 -30.81 -96.36 -138.73 -11.91 
USER  
USER                              x       y       z    vdW   Elec        q     RMS 
ATOM      1  C   UNL d   1      -8.948 -14.521  -1.665 -0.13 +0.05    +0.064    14.809
ATOM      2  C   UNL d   1     -11.840 -11.249  -3.981 -0.33 +0.01    +0.064    14.809
ATOM      3  C   UNL d   1     -12.851 -14.586  -7.285 -0.22 +0.01    +0.064    14.809
ATOM      4  C   UNL d   1      -9.975 -17.734  -5.118 -0.10 +0.03    +0.064    14.809
ATOM      5  C   UNL d   1      -9.603 -13.265  -2.057 -0.17 +0.04    +0.066    14.809
ATOM      6  C   UNL d   1      -9.448 -12.055  -1.401 -0.29 -0.01    -0.021    14.809
ATOM      7  C   UNL d   1     -10.255 -11.148  -2.042 -0.36 -0.01    -0.025    14.809
ATOM      8  C   UNL d   1     -10.871 -11.840  -3.067 -0.26 +0.02    +0.066    14.809
ATOM      9  C   UNL d   1     -10.403  -9.698  -1.696 -0.49 +0.01    +0.051    14.809
ATOM     10  C   UNL d   1     -12.406 -11.879  -5.013 -0.30 +0.01    +0.066    14.809
ATOM     11  C   UNL d   1     -13.416 -11.323  -5.801 -0.34 -0.00    -0.021    14.809
ATOM     12  C   UNL d   1     -13.737 -12.272  -6.751 -0.26 +0.00    +0.000    14.809
ATOM     13  C   UNL d   1     -12.903 -13.372  -6.485 -0.25 +0.01    +0.070    14.809
ATOM     14  C   UNL d   1     -14.091  -9.979  -5.616 -0.38 +0.00    +0.052    14.809
ATOM     15  C   UNL d   1     -12.088 -15.668  -7.003 -0.18 +0.01    +0.066    14.809
ATOM     16  C   UNL d   1     -11.991 -16.768  -7.846 -0.18 -0.00    -0.021    14.809
ATOM     17  C   UNL d   1     -11.165 -17.679  -7.221 -0.16 +0.00    +0.000    14.809
ATOM     18  C   UNL d   1     -10.779 -17.114  -6.008 -0.14 +0.03    +0.070    14.809
ATOM     19  C   UNL d   1     -12.668 -16.969  -9.175 -0.15 +0.01    +0.052    14.809
ATOM     20  C   UNL d   1      -9.499 -17.146  -3.860 -0.07 +0.04    +0.066    14.809
ATOM     21  C   UNL d   1      -8.834 -17.843  -2.841 -0.03 -0.02    -0.025    14.809
ATOM     22  C   UNL d   1      -8.540 -16.905  -1.873 -0.04 -0.02    -0.021    14.809
ATOM     23  C   UNL d   1      -9.039 -15.681  -2.334 -0.08 +0.05    +0.066    14.809
ATOM     24  C   UNL d   1      -8.493 -19.313  -2.770 -0.01 +0.03    +0.051    14.809
ATOM     25  N   UNL d   1     -10.465 -13.125  -3.079 -0.06 -0.10    -0.248    14.809
ATOM     26  N   UNL d   1     -12.098 -13.137  -5.420 -0.13 -0.05    -0.248    14.809
ATOM     27  N   UNL d   1     -11.311 -15.860  -5.892 -0.12 -0.08    -0.248    14.809
ATOM     28  N   UNL d   1      -9.663 -15.844  -3.526 -0.06 -0.15    -0.248    14.809
ATOM     29 FE   UNL d   1     -10.880 -14.492  -4.473 -0.04 +0.00    +0.000    14.809
ATOM     30  C   UNL d   1      -8.564 -11.767  -0.236 -0.22 +0.03    +0.052    14.809
ATOM     31  C   UNL d   1      -8.760 -12.806   0.862 -0.28 +0.09    +0.115    14.809
ATOM     32  C   UNL d   1      -7.483 -13.009   1.629 -0.25 +0.20    +0.139    14.809
ATOM     33  O   UNL d   1      -7.503 -13.169   2.841 -0.46 -1.06    -0.650    14.809
ATOM     34  O   UNL d   1      -6.304 -13.017   0.985 -0.04 -1.42    -0.776    14.809
ATOM     35  H   UNL d   1      -6.156 -13.667   0.284 +0.04 +0.31    +0.167    14.809
ATOM     36  C   UNL d   1      -7.860 -17.182  -0.557 -0.02 +0.04    +0.052    14.809
ATOM     37  C   UNL d   1      -6.350 -17.162  -0.745 -0.06 +0.14    +0.115    14.809
ATOM     38  C   UNL d   1      -5.821 -15.756  -0.704 -0.06 +0.26    +0.139    14.809
ATOM     39  O   UNL d   1      -6.242 -14.906  -1.475 -0.42 -1.54    -0.650    14.809
ATOM     40  O   UNL d   1      -4.871 -15.423   0.188 -0.52 -1.78    -0.776    14.809
ATOM     41  H   UNL d   1      -4.807 -14.504   0.485 +0.04 +0.48    +0.167    14.809
ATOM     42  C   UNL d   1     -14.784 -12.107  -7.806 -0.22 +0.00    +0.004    14.809
ATOM     43  C   UNL d   1     -14.473 -12.195  -9.106 -0.31 +0.00    +0.012    14.809
ATOM     44  C   UNL d   1     -10.754 -18.995  -7.760 -0.13 +0.00    +0.004    14.809
ATOM     45  C   UNL d   1      -9.573 -19.148  -8.369 -0.19 +0.01    +0.012    14.809
TER
ENDMDL
MODEL       50
USER    Run = 50
USER    Cluster Rank = 6
USER    Number of conformations in this cluster = 5
USER  
USER    RMSD from reference structure       = 12.059 A
USER  
USER    Estimated Free Energy of Binding    =   -9.70 kcal/mol  [=(1)+(2)+(3)-(4)]
USER    Estimated Inhibition Constant, Ki   =   77.20 nM (nanomolar)  [Temperature = 298.15 K]
USER    
USER    (1) Final Intermolecular Energy     =  -12.69 kcal/mol
USER        vdW + Hbond + desolv Energy     =   -8.02 kcal/mol
USER        Electrostatic Energy            =   -4.67 kcal/mol
USER    (2) Final Total Internal Energy     =   -0.53 kcal/mol
USER    (3) Torsional Free Energy           =   +2.98 kcal/mol
USER    (4) Unbound System's Energy  [=(2)] =   -0.53 kcal/mol
USER    
USER    
USER  
USER    DPF = D:/Protein_go_brrr/autodock/final/AncA/heme_Fe/dock.dpf
USER    NEWDPF move	heme_Fe_opt.pdbqt
USER    NEWDPF about	-0.174000 -0.001000 -0.047000
USER    NEWDPF tran0	-0.150191 -15.438277 -1.750538
USER    NEWDPF axisangle0	0.813196 0.537305 -0.223640 98.104206
USER    NEWDPF quaternion0	0.614212 0.405830 -0.168916 0.655372
USER    NEWDPF dihe0	-86.42 -177.85 16.53 -145.95 -14.38 30.40 123.31 19.33 -142.29 -30.47 
USER  
USER                              x       y       z    vdW   Elec        q     RMS 
ATOM      1  C   UNL d   1      -1.775 -16.520  -2.382 -0.08 +0.08    +0.064    12.059
ATOM      2  C   UNL d   1      -0.313 -14.647   1.952 -0.10 +0.05    +0.064    12.059
ATOM      3  C   UNL d   1       2.886 -11.928  -0.382 -0.26 +0.02    +0.064    12.059
ATOM      4  C   UNL d   1       1.558 -13.805  -4.577 -0.24 +0.03    +0.064    12.059
ATOM      5  C   UNL d   1      -1.603 -16.307  -0.939 -0.07 +0.07    +0.066    12.059
ATOM      6  C   UNL d   1      -2.279 -17.003   0.050 -0.07 -0.02    -0.021    12.059
ATOM      7  C   UNL d   1      -1.875 -16.479   1.253 -0.09 -0.02    -0.025    12.059
ATOM      8  C   UNL d   1      -0.966 -15.483   0.952 -0.10 +0.06    +0.066    12.059
ATOM      9  C   UNL d   1      -2.326 -16.930   2.608 -0.04 +0.05    +0.051    12.059
ATOM     10  C   UNL d   1       0.610 -13.719   1.692 -0.14 +0.04    +0.066    12.059
ATOM     11  C   UNL d   1       1.133 -12.856   2.658 -0.23 -0.01    -0.021    12.059
ATOM     12  C   UNL d   1       2.046 -12.050   2.007 -0.32 +0.00    +0.000    12.059
ATOM     13  C   UNL d   1       2.026 -12.462   0.663 -0.21 +0.02    +0.070    12.059
ATOM     14  C   UNL d   1       0.734 -12.757   4.116 -0.31 +0.03    +0.052    12.059
ATOM     15  C   UNL d   1       2.834 -12.284  -1.687 -0.16 +0.02    +0.066    12.059
ATOM     16  C   UNL d   1       3.739 -11.825  -2.635 -0.23 -0.00    -0.021    12.059
ATOM     17  C   UNL d   1       3.356 -12.363  -3.847 -0.23 +0.00    +0.000    12.059
ATOM     18  C   UNL d   1       2.221 -13.135  -3.609 -0.16 +0.03    +0.070    12.059
ATOM     19  C   UNL d   1       4.904 -10.898  -2.419 -0.34 +0.01    +0.052    12.059
ATOM     20  C   UNL d   1       0.398 -14.676  -4.355 -0.17 +0.04    +0.066    12.059
ATOM     21  C   UNL d   1      -0.416 -15.213  -5.362 -0.28 -0.02    -0.025    12.059
ATOM     22  C   UNL d   1      -1.352 -15.994  -4.715 -0.15 -0.02    -0.021    12.059
ATOM     23  C   UNL d   1      -1.077 -15.898  -3.345 -0.12 +0.08    +0.066    12.059
ATOM     24  C   UNL d   1      -0.330 -15.006  -6.856 -0.37 +0.03    +0.051    12.059
ATOM     25  N   UNL d   1      -0.796 -15.387  -0.382 -0.05 -0.21    -0.248    12.059
ATOM     26  N   UNL d   1       1.144 -13.473   0.469 -0.08 -0.11    -0.248    12.059
ATOM     27  N   UNL d   1       1.925 -13.123  -2.275 -0.06 -0.09    -0.248    12.059
ATOM     28  N   UNL d   1      -0.036 -15.057  -3.129 -0.06 -0.19    -0.248    12.059
ATOM     29 FE   UNL d   1       0.554 -14.265  -1.332 -0.02 +0.00    +0.000    12.059
ATOM     30  C   UNL d   1      -3.244 -18.123  -0.135 -0.03 +0.05    +0.052    12.059
ATOM     31  C   UNL d   1      -4.348 -17.729  -1.111 -0.06 +0.14    +0.115    12.059
ATOM     32  C   UNL d   1      -5.051 -16.487  -0.636 -0.10 +0.24    +0.139    12.059
ATOM     33  O   UNL d   1      -4.903 -16.087   0.510 -0.40 -1.37    -0.650    12.059
ATOM     34  O   UNL d   1      -5.850 -15.804  -1.472 -0.32 -1.89    -0.776    12.059
ATOM     35  H   UNL d   1      -6.798 -15.997  -1.478 +0.02 +0.27    +0.167    12.059
ATOM     36  C   UNL d   1      -2.475 -16.749  -5.374 +0.11 +0.07    +0.052    12.059
ATOM     37  C   UNL d   1      -1.907 -17.865  -6.238 -0.16 +0.11    +0.115    12.059
ATOM     38  C   UNL d   1      -2.920 -18.341  -7.240 -0.17 +0.20    +0.139    12.059
ATOM     39  O   UNL d   1      -3.765 -17.578  -7.686 -0.44 -1.10    -0.650    12.059
ATOM     40  O   UNL d   1      -2.907 -19.621  -7.653 -0.31 -1.53    -0.776    12.059
ATOM     41  H   UNL d   1      -2.256 -20.229  -7.275 +0.02 +0.20    +0.167    12.059
ATOM     42  C   UNL d   1       2.845 -10.964   2.655 -0.27 +0.00    +0.004    12.059
ATOM     43  C   UNL d   1       3.750 -11.246   3.602 -0.25 +0.00    +0.012    12.059
ATOM     44  C   UNL d   1       4.042 -12.167  -5.143 -0.38 +0.00    +0.004    12.059
ATOM     45  C   UNL d   1       3.681 -11.177  -5.967 -0.54 +0.00    +0.012    12.059
TER
ENDMDL
MODEL       13
USER    Run = 13
USER    Cluster Rank = 7
USER    Number of conformations in this cluster = 5
USER  
USER    RMSD from reference structure       = 14.092 A
USER  
USER    Estimated Free Energy of Binding    =   -9.68 kcal/mol  [=(1)+(2)+(3)-(4)]
USER    Estimated Inhibition Constant, Ki   =   79.69 nM (nanomolar)  [Temperature = 298.15 K]
USER    
USER    (1) Final Intermolecular Energy     =  -12.67 kcal/mol
USER        vdW + Hbond + desolv Energy     =   -8.63 kcal/mol
USER        Electrostatic Energy            =   -4.04 kcal/mol
USER    (2) Final Total Internal Energy     =   -1.12 kcal/mol
USER    (3) Torsional Free Energy           =   +2.98 kcal/mol
USER    (4) Unbound System's Energy  [=(2)] =   -1.12 kcal/mol
USER    
USER    
USER  
USER    DPF = D:/Protein_go_brrr/autodock/final/AncA/heme_Fe/dock.dpf
USER    NEWDPF move	heme_Fe_opt.pdbqt
USER    NEWDPF about	-0.174000 -0.001000 -0.047000
USER    NEWDPF tran0	-10.445635 -13.831245 -1.110003
USER    NEWDPF axisangle0	0.268916 -0.343784 -0.899720 156.280871
USER    NEWDPF quaternion0	0.263176 -0.336445 -0.880515 0.205514
USER    NEWDPF dihe0	136.91 154.30 -162.55 -159.17 -154.19 88.28 71.82 63.87 7.73 149.32 
USER  
USER                              x       y       z    vdW   Elec        q     RMS 
ATOM      1  C   UNL d   1      -9.048 -13.784   0.391 -0.19 +0.05    +0.064    14.092
ATOM      2  C   UNL d   1     -10.030 -10.954  -3.540 -0.25 +0.02    +0.064    14.092
ATOM      3  C   UNL d   1     -14.312 -13.095  -3.925 -0.21 +0.01    +0.064    14.092
ATOM      4  C   UNL d   1     -13.339 -15.918  -0.187 -0.13 +0.01    +0.064    14.092
ATOM      5  C   UNL d   1      -8.893 -12.847  -0.730 -0.21 +0.04    +0.066    14.092
ATOM      6  C   UNL d   1      -7.741 -12.129  -1.008 -0.19 -0.02    -0.021    14.092
ATOM      7  C   UNL d   1      -8.016 -11.341  -2.097 -0.23 -0.02    -0.025    14.092
ATOM      8  C   UNL d   1      -9.327 -11.608  -2.444 -0.26 +0.03    +0.066    14.092
ATOM      9  C   UNL d   1      -7.063 -10.403  -2.772 -0.11 +0.03    +0.051    14.092
ATOM     10  C   UNL d   1     -11.274 -11.234  -3.930 -0.31 +0.01    +0.066    14.092
ATOM     11  C   UNL d   1     -11.961 -10.512  -4.909 -0.45 -0.00    -0.021    14.092
ATOM     12  C   UNL d   1     -13.205 -11.099  -5.027 -0.37 +0.00    +0.000    14.092
ATOM     13  C   UNL d   1     -13.216 -12.155  -4.099 -0.25 +0.01    +0.070    14.092
ATOM     14  C   UNL d   1     -11.481  -9.279  -5.647 -0.52 +0.01    +0.052    14.092
ATOM     15  C   UNL d   1     -14.348 -14.081  -2.998 -0.16 +0.01    +0.066    14.092
ATOM     16  C   UNL d   1     -15.368 -15.021  -2.929 -0.13 -0.00    -0.021    14.092
ATOM     17  C   UNL d   1     -15.092 -15.834  -1.850 -0.14 +0.00    +0.000    14.092
ATOM     18  C   UNL d   1     -13.909 -15.367  -1.281 -0.11 +0.01    +0.070    14.092
ATOM     19  C   UNL d   1     -16.571 -15.137  -3.826 -0.05 +0.01    +0.052    14.092
ATOM     20  C   UNL d   1     -12.063 -15.493   0.402 -0.07 +0.02    +0.066    14.092
ATOM     21  C   UNL d   1     -11.563 -15.916   1.641 -0.11 -0.01    -0.025    14.092
ATOM     22  C   UNL d   1     -10.333 -15.305   1.780 -0.12 -0.01    -0.021    14.092
ATOM     23  C   UNL d   1     -10.136 -14.533   0.629 -0.13 +0.04    +0.066    14.092
ATOM     24  C   UNL d   1     -12.201 -16.841   2.650 -0.08 +0.01    +0.051    14.092
ATOM     25  N   UNL d   1      -9.854 -12.532  -1.616 -0.15 -0.12    -0.248    14.092
ATOM     26  N   UNL d   1     -12.043 -12.232  -3.424 -0.17 -0.04    -0.248    14.092
ATOM     27  N   UNL d   1     -13.427 -14.317  -2.012 -0.10 -0.03    -0.248    14.092
ATOM     28  N   UNL d   1     -11.214 -14.616  -0.187 -0.07 -0.09    -0.248    14.092
ATOM     29 FE   UNL d   1     -11.630 -13.425  -1.805 -0.06 +0.00    +0.000    14.092
ATOM     30  C   UNL d   1      -6.438 -12.203  -0.289 -0.15 +0.06    +0.052    14.092
ATOM     31  C   UNL d   1      -5.473 -13.135  -1.014 -0.23 +0.20    +0.115    14.092
ATOM     32  C   UNL d   1      -5.291 -14.410  -0.238 -0.11 +0.30    +0.139    14.092
ATOM     33  O   UNL d   1      -4.268 -15.070  -0.354 -0.29 -1.38    -0.650    14.092
ATOM     34  O   UNL d   1      -6.256 -14.837   0.594 -0.35 -1.78    -0.776    14.092
ATOM     35  H   UNL d   1      -6.696 -14.197   1.171 +0.04 +0.38    +0.167    14.092
ATOM     36  C   UNL d   1      -9.424 -15.421   2.975 -0.10 +0.03    +0.052    14.092
ATOM     37  C   UNL d   1      -9.315 -14.072   3.670 -0.21 +0.08    +0.115    14.092
ATOM     38  C   UNL d   1      -7.904 -13.557   3.629 -0.23 +0.18    +0.139    14.092
ATOM     39  O   UNL d   1      -7.511 -12.885   2.687 -0.55 -0.98    -0.650    14.092
ATOM     40  O   UNL d   1      -7.058 -13.837   4.636 -0.26 -1.27    -0.776    14.092
ATOM     41  H   UNL d   1      -7.418 -14.020   5.515 +0.07 +0.16    +0.167    14.092
ATOM     42  C   UNL d   1     -14.283 -10.641  -5.958 -0.40 +0.00    +0.004    14.092
ATOM     43  C   UNL d   1     -15.435 -10.147  -5.488 -0.39 +0.00    +0.012    14.092
ATOM     44  C   UNL d   1     -15.896 -16.994  -1.404 -0.08 +0.00    +0.004    14.092
ATOM     45  C   UNL d   1     -16.669 -16.914  -0.315 -0.10 +0.00    +0.012    14.092
TER
ENDMDL
MODEL       16
USER    Run = 16
USER    Cluster Rank = 8
USER    Number of conformations in this cluster = 1
USER  
USER    RMSD from reference structure       = 11.015 A
USER  
USER    Estimated Free Energy of Binding    =   -9.25 kcal/mol  [=(1)+(2)+(3)-(4)]
USER    Estimated Inhibition Constant, Ki   =  165.73 nM (nanomolar)  [Temperature = 298.15 K]
USER    
USER    (1) Final Intermolecular Energy     =  -12.23 kcal/mol
USER        vdW + Hbond + desolv Energy     =   -8.77 kcal/mol
USER        Electrostatic Energy            =   -3.46 kcal/mol
USER    (2) Final Total Internal Energy     =   -1.45 kcal/mol
USER    (3) Torsional Free Energy           =   +2.98 kcal/mol
USER    (4) Unbound System's Energy  [=(2)] =   -1.45 kcal/mol
USER    
USER    
USER  
USER    DPF = D:/Protein_go_brrr/autodock/final/AncA/heme_Fe/dock.dpf
USER    NEWDPF move	heme_Fe_opt.pdbqt
USER    NEWDPF about	-0.174000 -0.001000 -0.047000
USER    NEWDPF tran0	-5.712781 -13.264560 -1.528156
USER    NEWDPF axisangle0	-0.181192 0.133153 0.974392 -95.787107
USER    NEWDPF quaternion0	-0.134426 0.098786 0.722902 -0.670510
USER    NEWDPF dihe0	56.06 -142.81 179.21 16.46 169.36 123.07 -63.53 90.60 162.33 -163.58 
USER  
USER                              x       y       z    vdW   Elec        q     RMS 
ATOM      1  C   UNL d   1      -5.559 -14.956  -0.376 -0.11 +0.14    +0.064    11.015
ATOM      2  C   UNL d   1      -2.471 -11.305  -1.628 -0.31 +0.05    +0.064    11.015
ATOM      3  C   UNL d   1      -6.237  -8.729  -3.130 -0.27 +0.03    +0.064    11.015
ATOM      4  C   UNL d   1      -9.232 -12.291  -2.023 -0.27 +0.03    +0.064    11.015
ATOM      5  C   UNL d   1      -4.332 -14.200  -0.667 -0.08 +0.14    +0.066    11.015
ATOM      6  C   UNL d   1      -3.046 -14.675  -0.471 -0.17 -0.04    -0.021    11.015
ATOM      7  C   UNL d   1      -2.189 -13.659  -0.815 -0.20 -0.03    -0.025    11.015
ATOM      8  C   UNL d   1      -2.987 -12.602  -1.209 -0.24 +0.09    +0.066    11.015
ATOM      9  C   UNL d   1      -0.693 -13.717  -0.783 -0.18 +0.04    +0.051    11.015
ATOM     10  C   UNL d   1      -3.216 -10.288  -2.067 -0.35 +0.04    +0.066    11.015
ATOM     11  C   UNL d   1      -2.704  -9.020  -2.353 -0.44 -0.01    -0.021    11.015
ATOM     12  C   UNL d   1      -3.773  -8.253  -2.772 -0.37 +0.00    +0.000    11.015
ATOM     13  C   UNL d   1      -4.894  -9.100  -2.712 -0.30 +0.04    +0.070    11.015
ATOM     14  C   UNL d   1      -1.278  -8.542  -2.170 -0.51 +0.01    +0.052    11.015
ATOM     15  C   UNL d   1      -7.328  -9.523  -3.025 -0.14 +0.03    +0.066    11.015
ATOM     16  C   UNL d   1      -8.574  -9.169  -3.528 -0.41 -0.01    -0.021    11.015
ATOM     17  C   UNL d   1      -9.441 -10.194  -3.206 -0.39 +0.00    +0.000    11.015
ATOM     18  C   UNL d   1      -8.702 -11.148  -2.511 -0.26 +0.03    +0.070    11.015
ATOM     19  C   UNL d   1      -8.945  -7.907  -4.259 -0.46 +0.01    +0.052    11.015
ATOM     20  C   UNL d   1      -8.473 -13.346  -1.340 -0.17 +0.05    +0.066    11.015
ATOM     21  C   UNL d   1      -9.035 -14.435  -0.657 -0.11 -0.02    -0.025    11.015
ATOM     22  C   UNL d   1      -7.970 -15.188  -0.207 -0.08 -0.02    -0.021    11.015
ATOM     23  C   UNL d   1      -6.807 -14.529  -0.625 -0.14 +0.10    +0.066    11.015
ATOM     24  C   UNL d   1     -10.494 -14.756  -0.431 -0.14 +0.02    +0.051    11.015
ATOM     25  N   UNL d   1      -4.290 -12.938  -1.126 -0.17 -0.44    -0.248    11.015
ATOM     26  N   UNL d   1      -4.556 -10.337  -2.274 -0.22 -0.17    -0.248    11.015
ATOM     27  N   UNL d   1      -7.394 -10.757  -2.437 -0.08 -0.15    -0.248    11.015
ATOM     28  N   UNL d   1      -7.120 -13.383  -1.277 -0.13 -0.31    -0.248    11.015
ATOM     29 FE   UNL d   1      -5.840 -11.860  -1.775 -0.06 +0.00    +0.000    11.015
ATOM     30  C   UNL d   1      -2.648 -16.032  -0.000 -0.14 +0.07    +0.052    11.015
ATOM     31  C   UNL d   1      -2.103 -15.973   1.423 +0.03 +0.14    +0.115    11.015
ATOM     32  C   UNL d   1      -2.983 -16.758   2.356 +0.15 +0.20    +0.139    11.015
ATOM     33  O   UNL d   1      -2.620 -16.999   3.499 -0.03 -0.72    -0.650    11.015
ATOM     34  O   UNL d   1      -4.180 -17.204   1.939 -0.02 -1.22    -0.776    11.015
ATOM     35  H   UNL d   1      -4.972 -16.958   2.438 +0.00 +0.37    +0.167    11.015
ATOM     36  C   UNL d   1      -8.067 -16.442   0.620 -0.04 +0.05    +0.052    11.015
ATOM     37  C   UNL d   1      -8.627 -16.108   1.995 -0.05 +0.10    +0.115    11.015
ATOM     38  C   UNL d   1      -7.524 -15.781   2.961 +0.05 +0.21    +0.139    11.015
ATOM     39  O   UNL d   1      -7.504 -14.709   3.548 -0.03 -1.17    -0.650    11.015
ATOM     40  O   UNL d   1      -6.542 -16.672   3.185 -0.04 -1.40    -0.776    11.015
ATOM     41  H   UNL d   1      -6.216 -17.208   2.448 +0.00 +0.25    +0.167    11.015
ATOM     42  C   UNL d   1      -3.689  -6.815  -3.174 -0.43 +0.00    +0.004    11.015
ATOM     43  C   UNL d   1      -4.566  -5.917  -2.707 -0.45 +0.00    +0.012    11.015
ATOM     44  C   UNL d   1     -10.876 -10.264  -3.560 -0.50 +0.00    +0.004    11.015
ATOM     45  C   UNL d   1     -11.261 -10.456  -4.826 -0.51 +0.00    +0.012    11.015
TER
ENDMDL
MODEL       64
USER    Run = 64
USER    Cluster Rank = 9
USER    Number of conformations in this cluster = 1
USER  
USER    RMSD from reference structure       = 16.574 A
USER  
USER    Estimated Free Energy of Binding    =   -7.97 kcal/mol  [=(1)+(2)+(3)-(4)]
USER    Estimated Inhibition Constant, Ki   =    1.44 uM (micromolar)  [Temperature = 298.15 K]
USER    
USER    (1) Final Intermolecular Energy     =  -10.95 kcal/mol
USER        vdW + Hbond + desolv Energy     =   -6.87 kcal/mol
USER        Electrostatic Energy            =   -4.08 kcal/mol
USER    (2) Final Total Internal Energy     =   -1.74 kcal/mol
USER    (3) Torsional Free Energy           =   +2.98 kcal/mol
USER    (4) Unbound System's Energy  [=(2)] =   -1.74 kcal/mol
USER    
USER    
USER  
USER    DPF = D:/Protein_go_brrr/autodock/final/AncA/heme_Fe/dock.dpf
USER    NEWDPF move	heme_Fe_opt.pdbqt
USER    NEWDPF about	-0.174000 -0.001000 -0.047000
USER    NEWDPF tran0	-12.540504 -15.931511 1.468758
USER    NEWDPF axisangle0	0.011536 -0.744827 -0.667158 179.058076
USER    NEWDPF quaternion0	0.011536 -0.744802 -0.667136 0.008220
USER    NEWDPF dihe0	153.56 56.28 -163.02 -153.26 65.17 -81.53 -25.72 46.14 -150.47 -179.13 
USER  
USER                              x       y       z    vdW   Elec        q     RMS 
ATOM      1  C   UNL d   1     -10.560 -15.397   1.407 -0.12 +0.03    +0.064    16.574
ATOM      2  C   UNL d   1     -14.117 -15.977  -1.977 -0.11 +0.01    +0.064    16.574
ATOM      3  C   UNL d   1     -17.379 -15.953   1.548 -0.02 +0.01    +0.064    16.574
ATOM      4  C   UNL d   1     -13.944 -15.498   4.847 -0.21 +0.01    +0.064    16.574
ATOM      5  C   UNL d   1     -11.252 -15.646   0.134 -0.10 +0.02    +0.066    16.574
ATOM      6  C   UNL d   1     -10.622 -15.827  -1.086 -0.07 -0.01    -0.021    16.574
ATOM      7  C   UNL d   1     -11.610 -15.984  -2.026 -0.08 -0.01    -0.025    16.574
ATOM      8  C   UNL d   1     -12.807 -15.894  -1.342 -0.12 +0.02    +0.066    16.574
ATOM      9  C   UNL d   1     -11.406 -16.227  -3.490 -0.08 +0.02    +0.051    16.574
ATOM     10  C   UNL d   1     -15.285 -15.950  -1.334 -0.13 +0.01    +0.066    16.574
ATOM     11  C   UNL d   1     -16.524 -15.916  -1.978 -0.10 -0.00    -0.021    16.574
ATOM     12  C   UNL d   1     -17.481 -15.892  -0.983 -0.11 +0.00    +0.000    16.574
ATOM     13  C   UNL d   1     -16.769 -15.904   0.229 +0.09 +0.01    +0.070    16.574
ATOM     14  C   UNL d   1     -16.782 -15.841  -3.469 -0.04 +0.01    +0.052    16.574
ATOM     15  C   UNL d   1     -16.699 -15.912   2.719 -0.13 +0.01    +0.066    16.574
ATOM     16  C   UNL d   1     -17.310 -16.062   3.957 -0.14 -0.00    -0.021    16.574
ATOM     17  C   UNL d   1     -16.322 -15.928   4.910 -0.17 +0.00    +0.000    16.574
ATOM     18  C   UNL d   1     -15.129 -15.694   4.230 -0.20 +0.01    +0.070    16.574
ATOM     19  C   UNL d   1     -18.770 -16.298   4.237 -0.08 +0.00    +0.052    16.574
ATOM     20  C   UNL d   1     -12.659 -15.310   4.164 -0.21 +0.02    +0.066    16.574
ATOM     21  C   UNL d   1     -11.465 -14.909   4.779 -0.21 -0.01    -0.025    16.574
ATOM     22  C   UNL d   1     -10.511 -14.899   3.783 -0.17 -0.01    -0.021    16.574
ATOM     23  C   UNL d   1     -11.158 -15.287   2.603 -0.14 +0.03    +0.066    16.574
ATOM     24  C   UNL d   1     -11.225 -14.547   6.227 -0.16 +0.02    +0.051    16.574
ATOM     25  N   UNL d   1     -12.586 -15.697  -0.027 -0.09 -0.06    -0.248    16.574
ATOM     26  N   UNL d   1     -15.431 -15.930   0.016 -0.10 -0.05    -0.248    16.574
ATOM     27  N   UNL d   1     -15.352 -15.728   2.881 -0.15 -0.04    -0.248    16.574
ATOM     28  N   UNL d   1     -12.478 -15.493   2.833 -0.12 -0.07    -0.248    16.574
ATOM     29 FE   UNL d   1     -13.954 -15.711   1.427 -0.05 +0.00    +0.000    16.574
ATOM     30  C   UNL d   1      -9.155 -15.870  -1.346 -0.06 +0.04    +0.052    16.574
ATOM     31  C   UNL d   1      -8.498 -14.552  -0.953 -0.10 +0.10    +0.115    16.574
ATOM     32  C   UNL d   1      -7.049 -14.766  -0.615 -0.13 +0.20    +0.139    16.574
ATOM     33  O   UNL d   1      -6.256 -15.134  -1.470 -0.49 -1.53    -0.650    16.574
ATOM     34  O   UNL d   1      -6.610 -14.554   0.638 -0.24 -1.56    -0.776    16.574
ATOM     35  H   UNL d   1      -7.084 -13.927   1.201 +0.04 +0.30    +0.167    16.574
ATOM     36  C   UNL d   1      -9.071 -14.492   3.948 -0.19 +0.04    +0.052    16.574
ATOM     37  C   UNL d   1      -8.955 -12.976   3.884 -0.33 +0.08    +0.115    16.574
ATOM     38  C   UNL d   1      -7.811 -12.560   3.003 -0.37 +0.16    +0.139    16.574
ATOM     39  O   UNL d   1      -6.666 -12.548   3.429 -0.63 -1.26    -0.650    16.574
ATOM     40  O   UNL d   1      -8.043 -12.191   1.730 -0.53 -0.83    -0.776    16.574
ATOM     41  H   UNL d   1      -7.580 -12.651   1.016 +0.07 +0.20    +0.167    16.574
ATOM     42  C   UNL d   1     -18.957 -15.842  -1.217 -0.08 +0.00    +0.004    16.574
ATOM     43  C   UNL d   1     -19.680 -14.781  -0.835 -0.13 +0.00    +0.012    16.574
ATOM     44  C   UNL d   1     -16.504 -16.036   6.375 -0.14 +0.00    +0.004    16.574
ATOM     45  C   UNL d   1     -16.610 -14.941   7.135 -0.24 +0.00    +0.012    16.574
TER
ENDMDL
MODEL       11
USER    Run = 11
USER    Cluster Rank = 10
USER    Number of conformations in this cluster = 2
USER  
USER    RMSD from reference structure       = 14.803 A
USER  
USER    Estimated Free Energy of Binding    =   -6.95 kcal/mol  [=(1)+(2)+(3)-(4)]
USER    Estimated Inhibition Constant, Ki   =    8.03 uM (micromolar)  [Temperature = 298.15 K]
USER    
USER    (1) Final Intermolecular Energy     =   -9.93 kcal/mol
USER        vdW + Hbond + desolv Energy     =   -7.48 kcal/mol
USER        Electrostatic Energy            =   -2.45 kcal/mol
USER    (2) Final Total Internal Energy     =   -2.31 kcal/mol
USER    (3) Torsional Free Energy           =   +2.98 kcal/mol
USER    (4) Unbound System's Energy  [=(2)] =   -2.31 kcal/mol
USER    
USER    
USER  
USER    DPF = D:/Protein_go_brrr/autodock/final/AncA/heme_Fe/dock.dpf
USER    NEWDPF move	heme_Fe_opt.pdbqt
USER    NEWDPF about	-0.174000 -0.001000 -0.047000
USER    NEWDPF tran0	0.655808 5.367399 -14.593267
USER    NEWDPF axisangle0	-0.501279 0.235635 -0.832584 175.810417
USER    NEWDPF quaternion0	-0.500944 0.235477 -0.832027 0.036553
USER    NEWDPF dihe0	74.22 -51.62 -114.65 45.53 167.63 88.94 -72.82 85.43 177.08 -176.56 
USER  
USER                              x       y       z    vdW   Elec        q     RMS 
ATOM      1  C   UNL d   1       2.089   5.539 -16.052 -0.08 +0.01    +0.064    14.803
ATOM      2  C   UNL d   1       1.108   7.930 -11.839 -0.12 +0.00    +0.064    14.803
ATOM      3  C   UNL d   1      -1.815   4.339 -10.562 -0.35 +0.01    +0.064    14.803
ATOM      4  C   UNL d   1      -0.961   2.058 -14.679 -0.26 -0.00    +0.064    14.803
ATOM      5  C   UNL d   1       2.019   6.584 -15.022 -0.08 +0.01    +0.066    14.803
ATOM      6  C   UNL d   1       2.646   7.817 -15.102 -0.07 -0.00    -0.021    14.803
ATOM      7  C   UNL d   1       2.376   8.479 -13.930 -0.03 -0.00    -0.025    14.803
ATOM      8  C   UNL d   1       1.594   7.624 -13.178 -0.10 +0.01    +0.066    14.803
ATOM      9  C   UNL d   1       2.831   9.860 -13.571 -0.06 +0.01    +0.051    14.803
ATOM     10  C   UNL d   1       0.305   7.147 -11.115 -0.02 +0.00    +0.066    14.803
ATOM     11  C   UNL d   1      -0.050   7.415  -9.791 -0.23 +0.01    -0.021    14.803
ATOM     12  C   UNL d   1      -0.879   6.385  -9.394 -0.32 -0.00    +0.000    14.803
ATOM     13  C   UNL d   1      -0.981   5.529 -10.505 -0.25 +0.01    +0.070    14.803
ATOM     14  C   UNL d   1       0.432   8.559  -8.923 -0.13 -0.06    +0.052    14.803
ATOM     15  C   UNL d   1      -1.876   3.484 -11.610 -0.28 +0.01    +0.066    14.803
ATOM     16  C   UNL d   1      -2.759   2.413 -11.665 -0.34 -0.00    -0.021    14.803
ATOM     17  C   UNL d   1      -2.512   1.752 -12.851 -0.37 +0.00    +0.000    14.803
ATOM     18  C   UNL d   1      -1.479   2.434 -13.490 -0.26 +0.00    +0.070    14.803
ATOM     19  C   UNL d   1      -3.778   2.009 -10.634 -0.49 +0.00    +0.052    14.803
ATOM     20  C   UNL d   1       0.083   2.786 -15.411 -0.05 -0.01    +0.066    14.803
ATOM     21  C   UNL d   1       0.767   2.306 -16.537 -0.09 +0.00    -0.025    14.803
ATOM     22  C   UNL d   1       1.622   3.319 -16.919 -0.10 -0.00    -0.021    14.803
ATOM     23  C   UNL d   1       1.432   4.369 -16.012 -0.10 +0.01    +0.066    14.803
ATOM     24  C   UNL d   1       0.634   0.966 -17.222 +0.05 +0.00    +0.051    14.803
ATOM     25  N   UNL d   1       1.371   6.476 -13.849 -0.07 -0.04    -0.248    14.803
ATOM     26  N   UNL d   1      -0.252   5.989 -11.552 -0.09 -0.03    -0.248    14.803
ATOM     27  N   UNL d   1      -1.117   3.524 -12.749 -0.16 -0.02    -0.248    14.803
ATOM     28  N   UNL d   1       0.524   4.020 -15.068 -0.09 -0.00    -0.248    14.803
ATOM     29 FE   UNL d   1       0.135   5.003 -13.311 -0.04 +0.00    +0.000    14.803
ATOM     30  C   UNL d   1       3.443   8.350 -16.243 -0.06 +0.01    +0.052    14.803
ATOM     31  C   UNL d   1       4.927   8.058 -16.048 -0.12 +0.05    +0.115    14.803
ATOM     32  C   UNL d   1       5.380   6.977 -16.990 -0.13 +0.10    +0.139    14.803
ATOM     33  O   UNL d   1       6.570   6.753 -17.155 -0.11 -0.72    -0.650    14.803
ATOM     34  O   UNL d   1       4.475   6.246 -17.661 +0.01 -0.42    -0.776    14.803
ATOM     35  H   UNL d   1       4.311   5.333 -17.386 +0.03 +0.11    +0.167    14.803
ATOM     36  C   UNL d   1       2.601   3.260 -18.062 -0.07 +0.01    +0.052    14.803
ATOM     37  C   UNL d   1       3.842   2.490 -17.635 -0.10 +0.04    +0.115    14.803
ATOM     38  C   UNL d   1       4.920   3.424 -17.164 -0.12 +0.14    +0.139    14.803
ATOM     39  O   UNL d   1       4.982   3.767 -15.992 -0.28 -0.92    -0.650    14.803
ATOM     40  O   UNL d   1       5.829   3.895 -18.036 -0.19 -0.97    -0.776    14.803
ATOM     41  H   UNL d   1       5.982   4.849 -18.086 +0.01 +0.21    +0.167    14.803
ATOM     42  C   UNL d   1      -1.493   6.255  -8.037 -0.32 -0.00    +0.004    14.803
ATOM     43  C   UNL d   1      -0.735   6.030  -6.956 -0.64 -0.01    +0.012    14.803
ATOM     44  C   UNL d   1      -3.231   0.557 -13.348 -0.47 -0.00    +0.004    14.803
ATOM     45  C   UNL d   1      -4.202   0.673 -14.260 -0.36 -0.00    +0.012    14.803
TER
ENDMDL
MODEL       38
USER    Run = 38
USER    Cluster Rank = 11
USER    Number of conformations in this cluster = 1
USER  
USER    RMSD from reference structure       = 15.377 A
USER  
USER    Estimated Free Energy of Binding    =   -6.92 kcal/mol  [=(1)+(2)+(3)-(4)]
USER    Estimated Inhibition Constant, Ki   =    8.52 uM (micromolar)  [Temperature = 298.15 K]
USER    
USER    (1) Final Intermolecular Energy     =   -9.90 kcal/mol
USER        vdW + Hbond + desolv Energy     =   -7.25 kcal/mol
USER        Electrostatic Energy            =   -2.65 kcal/mol
USER    (2) Final Total Internal Energy     =   -0.48 kcal/mol
USER    (3) Torsional Free Energy           =   +2.98 kcal/mol
USER    (4) Unbound System's Energy  [=(2)] =   -0.48 kcal/mol
USER    
USER    
USER  
USER    DPF = D:/Protein_go_brrr/autodock/final/AncA/heme_Fe/dock.dpf
USER    NEWDPF move	heme_Fe_opt.pdbqt
USER    NEWDPF about	-0.174000 -0.001000 -0.047000
USER    NEWDPF tran0	-4.919745 3.649740 -14.780749
USER    NEWDPF axisangle0	-0.206820 -0.120920 0.970878 107.539349
USER    NEWDPF quaternion0	-0.166831 -0.097540 0.783156 0.591033
USER    NEWDPF dihe0	-6.90 141.30 92.34 50.55 85.69 97.64 29.85 -60.85 178.41 9.60 
USER  
USER                              x       y       z    vdW   Elec        q     RMS 
ATOM      1  C   UNL d   1      -4.567   5.250 -13.545 -0.13 +0.02    +0.064    15.377
ATOM      2  C   UNL d   1      -8.622   2.994 -15.248 -0.18 -0.01    +0.064    15.377
ATOM      3  C   UNL d   1      -5.901  -0.723 -16.606 -0.16 -0.00    +0.064    15.377
ATOM      4  C   UNL d   1      -1.950   1.487 -15.060 -0.24 -0.00    +0.064    15.377
ATOM      5  C   UNL d   1      -5.950   4.996 -13.974 -0.13 +0.01    +0.066    15.377
ATOM      6  C   UNL d   1      -6.994   5.897 -13.850 -0.14 -0.01    -0.021    15.377
ATOM      7  C   UNL d   1      -8.121   5.268 -14.319 +0.03 -0.01    -0.025    15.377
ATOM      8  C   UNL d   1      -7.720   4.006 -14.713 -0.16 +0.01    +0.066    15.377
ATOM      9  C   UNL d   1      -9.494   5.861 -14.399 -0.07 +0.00    +0.051    15.377
ATOM     10  C   UNL d   1      -8.252   1.791 -15.688 -0.19 -0.01    +0.066    15.377
ATOM     11  C   UNL d   1      -9.154   0.801 -16.088 -0.23 +0.01    -0.021    15.377
ATOM     12  C   UNL d   1      -8.394  -0.288 -16.468 -0.24 -0.00    +0.000    15.377
ATOM     13  C   UNL d   1      -7.056   0.095 -16.271 -0.18 -0.01    +0.070    15.377
ATOM     14  C   UNL d   1     -10.667   0.864 -16.044 -0.19 -0.04    +0.052    15.377
ATOM     15  C   UNL d   1      -4.613  -0.380 -16.370 -0.19 -0.00    +0.066    15.377
ATOM     16  C   UNL d   1      -3.534  -1.144 -16.795 -0.17 +0.00    -0.021    15.377
ATOM     17  C   UNL d   1      -2.393  -0.510 -16.347 -0.16 -0.00    +0.000    15.377
ATOM     18  C   UNL d   1      -2.804   0.626 -15.654 -0.18 -0.00    +0.070    15.377
ATOM     19  C   UNL d   1      -3.571  -2.434 -17.569 -0.30 -0.00    +0.052    15.377
ATOM     20  C   UNL d   1      -2.342   2.725 -14.376 -0.12 +0.00    +0.066    15.377
ATOM     21  C   UNL d   1      -1.496   3.518 -13.588 -0.17 -0.00    -0.025    15.377
ATOM     22  C   UNL d   1      -2.259   4.592 -13.177 -0.12 -0.00    -0.021    15.377
ATOM     23  C   UNL d   1      -3.536   4.409 -13.722 -0.08 +0.01    +0.066    15.377
ATOM     24  C   UNL d   1      -0.046   3.285 -13.231 -0.29 -0.00    +0.051    15.377
ATOM     25  N   UNL d   1      -6.397   3.847 -14.510 -0.09 -0.02    -0.248    15.377
ATOM     26  N   UNL d   1      -6.969   1.359 -15.787 -0.12 +0.03    -0.248    15.377
ATOM     27  N   UNL d   1      -4.166   0.731 -15.705 -0.10 +0.01    -0.248    15.377
ATOM     28  N   UNL d   1      -3.593   3.246 -14.415 -0.03 -0.02    -0.248    15.377
ATOM     29 FE   UNL d   1      -5.279   2.302 -15.101 -0.03 -0.00    +0.000    15.377
ATOM     30  C   UNL d   1      -6.924   7.292 -13.331 -0.17 +0.03    +0.052    15.377
ATOM     31  C   UNL d   1      -7.212   7.328 -11.834 -0.12 +0.08    +0.115    15.377
ATOM     32  C   UNL d   1      -7.847   8.636 -11.451 -0.14 +0.11    +0.139    15.377
ATOM     33  O   UNL d   1      -9.056   8.792 -11.542 -0.01 -0.22    -0.650    15.377
ATOM     34  O   UNL d   1      -7.086   9.649 -11.004 -0.39 -1.31    -0.776    15.377
ATOM     35  H   UNL d   1      -7.495  10.514 -10.858 +0.01 +0.15    +0.167    15.377
ATOM     36  C   UNL d   1      -1.798   5.703 -12.271 -0.18 +0.01    +0.052    15.377
ATOM     37  C   UNL d   1      -1.595   6.975 -13.081 -0.09 +0.04    +0.115    15.377
ATOM     38  C   UNL d   1      -2.513   8.066 -12.610 -0.01 +0.13    +0.139    15.377
ATOM     39  O   UNL d   1      -2.119   8.922 -11.831 -0.35 -0.75    -0.650    15.377
ATOM     40  O   UNL d   1      -3.786   8.107 -13.043 -0.48 -0.99    -0.776    15.377
ATOM     41  H   UNL d   1      -3.976   7.883 -13.965 +0.01 +0.11    +0.167    15.377
ATOM     42  C   UNL d   1      -8.947  -1.587 -16.960 -0.25 -0.00    +0.004    15.377
ATOM     43  C   UNL d   1      -8.365  -2.246 -17.971 -0.20 -0.00    +0.012    15.377
ATOM     44  C   UNL d   1      -1.001  -0.953 -16.584 -0.33 +0.00    +0.004    15.377
ATOM     45  C   UNL d   1      -0.228  -0.331 -17.481 -0.23 +0.00    +0.012    15.377
TER
ENDMDL
MODEL       66
USER    Run = 66
USER    Cluster Rank = 12
USER    Number of conformations in this cluster = 2
USER  
USER    RMSD from reference structure       = 16.646 A
USER  
USER    Estimated Free Energy of Binding    =   -6.42 kcal/mol  [=(1)+(2)+(3)-(4)]
USER    Estimated Inhibition Constant, Ki   =   19.61 uM (micromolar)  [Temperature = 298.15 K]
USER    
USER    (1) Final Intermolecular Energy     =   -9.41 kcal/mol
USER        vdW + Hbond + desolv Energy     =   -8.47 kcal/mol
USER        Electrostatic Energy            =   -0.94 kcal/mol
USER    (2) Final Total Internal Energy     =   -2.07 kcal/mol
USER    (3) Torsional Free Energy           =   +2.98 kcal/mol
USER    (4) Unbound System's Energy  [=(2)] =   -2.07 kcal/mol
USER    
USER    
USER  
USER    DPF = D:/Protein_go_brrr/autodock/final/AncA/heme_Fe/dock.dpf
USER    NEWDPF move	heme_Fe_opt.pdbqt
USER    NEWDPF about	-0.174000 -0.001000 -0.047000
USER    NEWDPF tran0	-7.049297 0.686398 -15.943270
USER    NEWDPF axisangle0	-0.305428 -0.205761 0.929719 84.045895
USER    NEWDPF quaternion0	-0.204462 -0.137742 0.622380 0.742877
USER    NEWDPF dihe0	38.73 93.29 -108.19 -113.52 -91.86 135.15 70.45 -30.42 -7.90 -15.06 
USER  
USER                              x       y       z    vdW   Elec        q     RMS 
ATOM      1  C   UNL d   1      -7.505   2.145 -14.574 -0.29 -0.01    +0.064    16.646
ATOM      2  C   UNL d   1     -10.073  -1.405 -16.861 -0.19 -0.04    +0.064    16.646
ATOM      3  C   UNL d   1      -5.934  -3.474 -18.148 -0.24 -0.01    +0.064    16.646
ATOM      4  C   UNL d   1      -3.429   0.008 -16.031 -0.22 -0.00    +0.064    16.646
ATOM      5  C   UNL d   1      -8.611   1.383 -15.170 -0.28 -0.02    +0.066    16.646
ATOM      6  C   UNL d   1      -9.946   1.746 -15.104 -0.25 +0.01    -0.021    16.646
ATOM      7  C   UNL d   1     -10.659   0.757 -15.736 -0.18 +0.02    -0.025    16.646
ATOM      8  C   UNL d   1      -9.730  -0.171 -16.164 -0.23 -0.05    +0.066    16.646
ATOM      9  C   UNL d   1     -12.144   0.726 -15.930 -0.08 -0.05    +0.051    16.646
ATOM     10  C   UNL d   1      -9.193  -2.289 -17.335 -0.18 -0.02    +0.066    16.646
ATOM     11  C   UNL d   1      -9.554  -3.516 -17.897 -0.17 +0.01    -0.021    16.646
ATOM     12  C   UNL d   1      -8.377  -4.140 -18.261 -0.26 -0.00    +0.000    16.646
ATOM     13  C   UNL d   1      -7.349  -3.255 -17.891 -0.23 -0.01    +0.070    16.646
ATOM     14  C   UNL d   1     -10.948  -4.097 -18.018 -0.10 -0.02    +0.052    16.646
ATOM     15  C   UNL d   1      -4.937  -2.650 -17.748 -0.29 -0.01    +0.066    16.646
ATOM     16  C   UNL d   1      -3.607  -2.843 -18.099 -0.30 +0.00    -0.021    16.646
ATOM     17  C   UNL d   1      -2.882  -1.842 -17.487 -0.19 -0.00    +0.000    16.646
ATOM     18  C   UNL d   1      -3.788  -1.063 -16.772 -0.19 -0.00    +0.070    16.646
ATOM     19  C   UNL d   1      -3.033  -3.940 -18.956 -0.34 -0.01    +0.052    16.646
ATOM     20  C   UNL d   1      -4.361   0.888 -15.315 -0.18 -0.00    +0.066    16.646
ATOM     21  C   UNL d   1      -3.994   1.874 -14.388 -0.18 +0.00    -0.025    16.646
ATOM     22  C   UNL d   1      -5.170   2.479 -13.995 -0.23 -0.00    -0.021    16.646
ATOM     23  C   UNL d   1      -6.203   1.838 -14.690 -0.24 -0.00    +0.066    16.646
ATOM     24  C   UNL d   1      -2.614   2.232 -13.888 -0.23 +0.00    +0.051    16.646
ATOM     25  N   UNL d   1      -8.484   0.217 -15.827 -0.21 +0.10    -0.248    16.646
ATOM     26  N   UNL d   1      -7.845  -2.131 -17.319 -0.13 +0.05    -0.248    16.646
ATOM     27  N   UNL d   1      -5.057  -1.532 -16.967 -0.16 +0.01    -0.248    16.646
ATOM     28  N   UNL d   1      -5.707   0.839 -15.459 -0.13 +0.02    -0.248    16.646
ATOM     29 FE   UNL d   1      -6.774  -0.646 -16.389 -0.06 -0.00    +0.000    16.646
ATOM     30  C   UNL d   1     -10.517   2.979 -14.491 -0.08 -0.02    +0.052    16.646
ATOM     31  C   UNL d   1     -10.404   4.160 -15.449 -0.12 -0.01    +0.115    16.646
ATOM     32  C   UNL d   1      -9.382   5.144 -14.953 -0.11 +0.00    +0.139    16.646
ATOM     33  O   UNL d   1      -9.712   6.080 -14.238 -0.04 -0.04    -0.650    16.646
ATOM     34  O   UNL d   1      -8.089   5.003 -15.292 -0.02 -0.06    -0.776    16.646
ATOM     35  H   UNL d   1      -7.407   5.194 -14.633 +0.03 +0.03    +0.167    16.646
ATOM     36  C   UNL d   1      -5.296   3.578 -12.973 -0.32 +0.01    +0.052    16.646
ATOM     37  C   UNL d   1      -4.987   4.919 -13.621 -0.13 +0.03    +0.115    16.646
ATOM     38  C   UNL d   1      -5.773   6.024 -12.974 -0.18 +0.06    +0.139    16.646
ATOM     39  O   UNL d   1      -5.239   7.083 -12.681 -0.02 -0.62    -0.650    16.646
ATOM     40  O   UNL d   1      -7.080   5.850 -12.707 -0.23 -0.33    -0.776    16.646
ATOM     41  H   UNL d   1      -7.731   6.055 -13.393 +0.03 +0.06    +0.167    16.646
ATOM     42  C   UNL d   1      -8.285  -5.491 -18.895 -0.34 -0.00    +0.004    16.646
ATOM     43  C   UNL d   1      -8.753  -6.579 -18.270 -0.33 -0.01    +0.012    16.646
ATOM     44  C   UNL d   1      -1.420  -1.633 -17.596 -0.30 -0.00    +0.004    16.646
ATOM     45  C   UNL d   1      -0.562  -2.581 -17.207 -0.36 -0.00    +0.012    16.646
TER
ENDMDL
MODEL       40
USER    Run = 40
USER    Cluster Rank = 13
USER    Number of conformations in this cluster = 1
USER  
USER    RMSD from reference structure       = 13.677 A
USER  
USER    Estimated Free Energy of Binding    =   -6.30 kcal/mol  [=(1)+(2)+(3)-(4)]
USER    Estimated Inhibition Constant, Ki   =   23.94 uM (micromolar)  [Temperature = 298.15 K]
USER    
USER    (1) Final Intermolecular Energy     =   -9.29 kcal/mol
USER        vdW + Hbond + desolv Energy     =   -7.31 kcal/mol
USER        Electrostatic Energy            =   -1.98 kcal/mol
USER    (2) Final Total Internal Energy     =   -0.76 kcal/mol
USER    (3) Torsional Free Energy           =   +2.98 kcal/mol
USER    (4) Unbound System's Energy  [=(2)] =   -0.76 kcal/mol
USER    
USER    
USER  
USER    DPF = D:/Protein_go_brrr/autodock/final/AncA/heme_Fe/dock.dpf
USER    NEWDPF move	heme_Fe_opt.pdbqt
USER    NEWDPF about	-0.174000 -0.001000 -0.047000
USER    NEWDPF tran0	-0.008633 7.904356 -12.478101
USER    NEWDPF axisangle0	0.433760 -0.759729 -0.484421 -121.857455
USER    NEWDPF quaternion0	0.379113 -0.664015 -0.423392 -0.485897
USER    NEWDPF dihe0	162.55 -172.99 -160.26 32.93 -105.69 -100.13 -120.88 -161.58 -18.26 170.35 
USER  
USER                              x       y       z    vdW   Elec        q     RMS 
ATOM      1  C   UNL d   1      -0.041   9.799 -13.265 -0.03 +0.01    +0.064    13.677
ATOM      2  C   UNL d   1      -0.425   5.243 -15.143 -0.04 +0.01    +0.064    13.677
ATOM      3  C   UNL d   1      -1.176   3.554 -10.710 -0.33 +0.01    +0.064    13.677
ATOM      4  C   UNL d   1      -0.703   7.940  -8.860 -0.30 -0.03    +0.064    13.677
ATOM      5  C   UNL d   1       0.003   8.662 -14.195 -0.02 +0.01    +0.066    13.677
ATOM      6  C   UNL d   1       0.308   8.755 -15.543 -0.01 -0.00    -0.021    13.677
ATOM      7  C   UNL d   1       0.197   7.490 -16.065 -0.01 -0.00    -0.025    13.677
ATOM      8  C   UNL d   1      -0.171   6.672 -15.014 -0.02 +0.01    +0.066    13.677
ATOM      9  C   UNL d   1       0.451   7.096 -17.488 -0.00 +0.01    +0.051    13.677
ATOM     10  C   UNL d   1      -0.725   4.422 -14.135 -0.11 +0.01    +0.066    13.677
ATOM     11  C   UNL d   1      -1.076   3.081 -14.306 -0.19 -0.00    -0.021    13.677
ATOM     12  C   UNL d   1      -1.314   2.575 -13.044 -0.33 +0.00    +0.000    13.677
ATOM     13  C   UNL d   1      -1.102   3.647 -12.159 -0.28 +0.01    +0.070    13.677
ATOM     14  C   UNL d   1      -1.244   2.335 -15.614 -0.16 +0.00    +0.052    13.677
ATOM     15  C   UNL d   1      -1.023   4.595  -9.857 -0.32 +0.00    +0.066    13.677
ATOM     16  C   UNL d   1      -1.002   4.447  -8.476 -0.51 +0.00    -0.021    13.677
ATOM     17  C   UNL d   1      -0.869   5.711  -7.940 -0.52 -0.00    +0.000    13.677
ATOM     18  C   UNL d   1      -0.816   6.603  -9.009 -0.30 -0.02    +0.070    13.677
ATOM     19  C   UNL d   1      -1.127   3.171  -7.687 -0.15 -0.01    +0.052    13.677
ATOM     20  C   UNL d   1      -0.582   8.903  -9.961 -0.17 -0.01    +0.066    13.677
ATOM     21  C   UNL d   1      -0.665  10.297  -9.831 -0.13 +0.00    -0.025    13.677
ATOM     22  C   UNL d   1      -0.461  10.807 -11.097 -0.06 -0.00    -0.021    13.677
ATOM     23  C   UNL d   1      -0.269   9.710 -11.946 -0.05 +0.01    +0.066    13.677
ATOM     24  C   UNL d   1      -0.926  11.115  -8.587 -0.13 -0.02    +0.051    13.677
ATOM     25  N   UNL d   1      -0.278   7.387 -13.876 -0.01 -0.05    -0.248    13.677
ATOM     26  N   UNL d   1      -0.752   4.775 -12.825 -0.10 -0.03    -0.248    13.677
ATOM     27  N   UNL d   1      -0.867   5.914 -10.189 -0.18 -0.02    -0.248    13.677
ATOM     28  N   UNL d   1      -0.389   8.550 -11.255 -0.07 -0.04    -0.248    13.677
ATOM     29 FE   UNL d   1      -0.571   6.664 -12.038 -0.03 +0.00    +0.000    13.677
ATOM     30  C   UNL d   1       0.705   9.978 -16.296 -0.00 +0.01    +0.052    13.677
ATOM     31  C   UNL d   1       2.110  10.422 -15.904 -0.02 +0.01    +0.115    13.677
ATOM     32  C   UNL d   1       3.104   9.330 -16.186 -0.04 +0.03    +0.139    13.677
ATOM     33  O   UNL d   1       3.585   8.674 -15.273 +0.00 -0.17    -0.650    13.677
ATOM     34  O   UNL d   1       3.476   9.066 -17.450 +0.02 -0.16    -0.776    13.677
ATOM     35  H   UNL d   1       2.929   9.392 -18.178 +0.01 +0.03    +0.167    13.677
ATOM     36  C   UNL d   1      -0.498  12.264 -11.474 -0.01 +0.00    +0.052    13.677
ATOM     37  C   UNL d   1      -1.900  12.641 -11.930 -0.01 +0.03    +0.115    13.677
ATOM     38  C   UNL d   1      -2.905  11.620 -11.479 -0.02 +0.12    +0.139    13.677
ATOM     39  O   UNL d   1      -3.317  10.765 -12.250 -0.03 -0.83    -0.650    13.677
ATOM     40  O   UNL d   1      -3.366  11.643 -10.216 -0.43 -0.97    -0.776    13.677
ATOM     41  H   UNL d   1      -3.117  12.378  -9.638 +0.01 +0.08    +0.167    13.677
ATOM     42  C   UNL d   1      -1.730   1.169 -12.749 -0.37 -0.00    +0.004    13.677
ATOM     43  C   UNL d   1      -2.949   0.899 -12.263 -0.57 -0.00    +0.012    13.677
ATOM     44  C   UNL d   1      -0.778   6.042  -6.500 -0.58 -0.00    +0.004    13.677
ATOM     45  C   UNL d   1       0.401   6.032  -5.869 -0.68 -0.01    +0.012    13.677
TER
ENDMDL


AVSFLD: # AVS field file
AVSFLD: #
AVSFLD: # Created by AutoDock
AVSFLD: #
AVSFLD: ndim=2           # number of dimensions in the field
AVSFLD: nspace=1         # number of physical coordinates
AVSFLD: veclen=7         # vector size
AVSFLD: dim1=45          # atoms
AVSFLD: dim2=13          # conformations
AVSFLD: data=Real       # data type (byte,integer,Real,double)
AVSFLD: field=uniform    # field coordinate layout
AVSFLD: label= x y z vdW Elec q RMS
AVSFLD: variable 1 file = D:/Protein_go_brrr/autodock/final/AncA/heme_Fe/dock.dlg.pdb filetype = ascii offset = 5 stride = 12
AVSFLD: variable 2 file = D:/Protein_go_brrr/autodock/final/AncA/heme_Fe/dock.dlg.pdb filetype = ascii offset = 6 stride = 12
AVSFLD: variable 3 file = D:/Protein_go_brrr/autodock/final/AncA/heme_Fe/dock.dlg.pdb filetype = ascii offset = 7 stride = 12
AVSFLD: variable 4 file = D:/Protein_go_brrr/autodock/final/AncA/heme_Fe/dock.dlg.pdb filetype = ascii offset = 8 stride = 12
AVSFLD: variable 5 file = D:/Protein_go_brrr/autodock/final/AncA/heme_Fe/dock.dlg.pdb filetype = ascii offset = 9 stride = 12
AVSFLD: variable 6 file = D:/Protein_go_brrr/autodock/final/AncA/heme_Fe/dock.dlg.pdb filetype = ascii offset = 10 stride = 12
AVSFLD: variable 7 file = D:/Protein_go_brrr/autodock/final/AncA/heme_Fe/dock.dlg.pdb filetype = ascii offset = 11 stride = 12
AVSFLD: # end of file

>>> Closing the docking parameter file (DPF)...
This docking finished at:			6:42 20" a.m., 09/30/2025


________________________________________________________________________________

D:/autodockScripts/autodock4.exe: Successful Completion on "ACER"

Real= 14h 34m 58.07s,  CPU= 5m 56.81s,  System= 1m 40.91s
________________________________________________________________________________

