          AutoDock 4.2 Release 4.2.6   
         (C) 1989-2012 The Scripps Research Institute
        AutoDock comes with ABSOLUTELY NO WARRANTY.
        AutoDock is free software, and you are welcome
        to redistribute it under certain conditions;
        for details type 'autodock4 -C'

                     main.cc  $Revision: 1.213 $

                   Compiled on Jul 18 2014 at 15:34:58


This file was created at:			6:37 29" p.m., 10/01/2025
                   on host:		"ACER"
Current Working Directory = "D:\Protein_go_brrr\autodock\final\AncMH_nat\2_3_BPG"

      ________________________________________________________________

                   SETTING UP DEFAULT PARAMETER LIBRARY
      ________________________________________________________________


Random number generator was seeded with values 138736, 1759336649.
Docking parameter file (DPF) used for this docking:		D:/Protein_go_brrr/autodock/final/AncMH_nat/2_3_BPG/dock.dpf
DPF> autodock_parameter_version 4.2       # used by autodock to validate parameter set

	Autodock parameter version 4.2.
DPF> outlev 1                             # diagnostic output level

Output Level = 1  ADT-COMPATIBLE OUTPUT DURING DOCKING.
DPF> intelec                              # calculate internal electrostatics

Electrostatic energies will be calculated for all non-bonds between moving atoms.
DPF> seed pid time                        # seeds for random generator

Random number generator was seeded with values 138736, 1759336649.
DPF> ligand_types P C OA                  # atoms types in ligand

DPF> fld opt_AncMH_nat.maps.fld           # grid_data_file

Opening Grid Map Dimensions file:		opt_AncMH_nat.maps.fld
Grid Point Spacing =				0.425 Angstroms

Even Number of User-specified Grid Points =	126 x-points
						126 y-points
						126 z-points

Coordinates of Central Grid Point of Maps =	(-1.644, 0.366, 1.789)
Macromolecule file used to create Grid Maps =	opt_AncMH_nat.pdbqt
Grid Parameter file used to create Grid Maps =	D:/Protein_go_brrr/autodock/final/AncMH_nat/2_3_BPG/grid.gpf
Minimum coordinates in grid = (-28.419, -26.409, -24.986)
Maximum coordinates in grid = (25.131, 27.141, 28.564)

DPF> map opt_AncMH_nat.P.map              # atom-specific affinity map

DPF> map opt_AncMH_nat.C.map              # atom-specific affinity map

DPF> map opt_AncMH_nat.OA.map             # atom-specific affinity map

DPF> elecmap opt_AncMH_nat.e.map          # electrostatics map

DPF> desolvmap opt_AncMH_nat.d.map        # desolvation map

DPF> move 2_3_BPG_opt.pdbqt               # small molecule

1,4-interactions will be _ignored_ in the non-bonded internal energy calculation.

Ligand PDBQT file = "2_3_BPG_opt.pdbqt"

INPUT LIGAND PDBQT FILE:
________________________

INPUT-LIGAND-PDBQT: REMARK  6 active torsions:
INPUT-LIGAND-PDBQT: REMARK  status: ('A' for Active; 'I' for Inactive)
INPUT-LIGAND-PDBQT: REMARK    1  A    between atoms: P_1  and  O_3 
INPUT-LIGAND-PDBQT: REMARK    2  A    between atoms: P_2  and  O_4 
INPUT-LIGAND-PDBQT: REMARK    3  A    between atoms: O_3  and  C_13 
INPUT-LIGAND-PDBQT: REMARK    4  A    between atoms: O_4  and  C_14 
INPUT-LIGAND-PDBQT: REMARK    5  A    between atoms: C_13  and  C_14 
INPUT-LIGAND-PDBQT: REMARK    6  A    between atoms: C_13  and  C_15 
INPUT-LIGAND-PDBQT: ROOT
INPUT-LIGAND-PDBQT: ATOM      1  C   UNL d   1      -0.571  -0.229   0.124  0.00  0.00     0.193 C 
INPUT-LIGAND-PDBQT: ENDROOT
INPUT-LIGAND-PDBQT: BRANCH   1   2
INPUT-LIGAND-PDBQT: ATOM      2  O   UNL d   1      -1.621   0.569  -0.519  0.00  0.00    -0.356 OA
INPUT-LIGAND-PDBQT: BRANCH   2   3
INPUT-LIGAND-PDBQT: ATOM      3  P   UNL d   1      -3.039   0.957   0.218  0.00  0.00    -0.014 P 
INPUT-LIGAND-PDBQT: ATOM      4  O   UNL d   1      -3.756   1.871  -0.788  0.00  0.00    -0.577 OA
INPUT-LIGAND-PDBQT: ATOM      5  O   UNL d   1      -2.691   1.702   1.505  0.00  0.00    -0.577 OA
INPUT-LIGAND-PDBQT: ATOM      6  O   UNL d   1      -3.816  -0.334   0.454  0.00  0.00    -0.638 OA
INPUT-LIGAND-PDBQT: ENDBRANCH   2   3
INPUT-LIGAND-PDBQT: ENDBRANCH   1   2
INPUT-LIGAND-PDBQT: BRANCH   1   7
INPUT-LIGAND-PDBQT: ATOM      7  C   UNL d   1       0.831   0.324  -0.327  0.00  0.00     0.201 C 
INPUT-LIGAND-PDBQT: BRANCH   7   8
INPUT-LIGAND-PDBQT: ATOM      8  O   UNL d   1       1.946  -0.012   0.528  0.00  0.00    -0.364 OA
INPUT-LIGAND-PDBQT: BRANCH   8   9
INPUT-LIGAND-PDBQT: ATOM      9  P   UNL d   1       3.455   0.578   0.194  0.00  0.00    -0.015 P 
INPUT-LIGAND-PDBQT: ATOM     10  O   UNL d   1       4.367  -0.029   1.267  0.00  0.00    -0.577 OA
INPUT-LIGAND-PDBQT: ATOM     11  O   UNL d   1       3.374   2.100   0.308  0.00  0.00    -0.577 OA
INPUT-LIGAND-PDBQT: ATOM     12  O   UNL d   1       3.825   0.102  -1.210  0.00  0.00    -0.638 OA
INPUT-LIGAND-PDBQT: ENDBRANCH   8   9
INPUT-LIGAND-PDBQT: ENDBRANCH   7   8
INPUT-LIGAND-PDBQT: ENDBRANCH   1   7
INPUT-LIGAND-PDBQT: BRANCH   1  13
INPUT-LIGAND-PDBQT: ATOM     13  C   UNL d   1      -0.687  -1.734  -0.323  0.00  0.00     0.073 C 
INPUT-LIGAND-PDBQT: ATOM     14  O   UNL d   1      -0.704  -2.000  -1.576  0.00  0.00    -0.547 OA
INPUT-LIGAND-PDBQT: ATOM     15  O   UNL d   1      -0.694  -2.619   0.607  0.00  0.00    -0.547 OA
INPUT-LIGAND-PDBQT: ENDBRANCH   1  13
INPUT-LIGAND-PDBQT: TORSDOF 6
________________________________________________________________________________

Total charge on ligand                               =	-4.960 e
REMARK  6 active torsions:
REMARK  status: ('A' for Active; 'I' for Inactive)
REMARK    1  A    between atoms: P_1  and  O_3 
REMARK    2  A    between atoms: P_2  and  O_4 
REMARK    3  A    between atoms: O_3  and  C_13 
REMARK    4  A    between atoms: O_4  and  C_14 
REMARK    5  A    between atoms: C_13  and  C_14 
REMARK    6  A    between atoms: C_13  and  C_15 


Number of Rotatable Bonds in Small Molecule =	6 torsions
Number of atoms in ligand:  15

Number of non-hydrogen atoms in ligand:  15

Number of vibrational degrees of freedom of ligand:  39


Number of torsional degrees of freedom = 6
Estimated loss of torsional free energy upon binding = +1.7898 kcal/mol


DPF> about 0.015 0.083 0.031            # small molecule center

Small molecule center of rotation =	(+0.015, +0.083, +0.031)

DPF> tran0 random                         # initial coordinates/A or random

Initial translation =			(-3.893, 6.976, 21.170) Angstroms
DPF> quaternion0 random                   # initial orientation

Each run will begin with a new, random initial orientation.
Initial quaternion,  (x,y,z,w) =	( 0.265, -0.752, -0.415, 0.438 ),
DPF> dihe0 random                         # initial dihedrals (relative) or random

DPF> torsdof 6                            # torsional degrees of freedom

Number of torsional degrees of freedom = 6
Free energy coefficient for torsional degrees of freedom = 0.2983, the factory default value.

Estimated loss of torsional free energy upon binding = +1.7898 kcal/mol

DPF> rmstol 2.0                           # cluster_tolerance/A

Maximum RMS tolerance for conformational cluster analysis = 2.00 Angstroms
DPF> extnrg 1000.0                        # external grid energy

External grid energy (beyond grid map walls) = 1000.00

DPF> e0max 0.0 10000                      # max initial energy; max number of retries

Using user-specified maximum number of retries for simanneal initialization, 10000 retries.
If the simanneal initial energy is greater than e0max, 0.000,
then a new, random initial state will be created.

DPF> ga_pop_size 150                      # number of individuals in population

A population of 150 individuals will be used
DPF> ga_num_evals 25000000                # maximum number of energy evaluations

There will be at most 25000000 function evaluations used.
DPF> ga_num_generations 27000             # maximum number of generations

The GA will run for at most 27000 generations.
DPF> ga_elitism 1                         # number of top individuals to survive to next generation

The 1 best will be preserved each GA generation.
DPF> ga_mutation_rate 0.02                # rate of gene mutation

The mutation rate is 0.020000.
DPF> ga_crossover_rate 0.8                # rate of crossover

The crossover rate is 0.800000.
DPF> ga_window_size 10                    # 

The GA's selection window is 10 generations.
DPF> ga_cauchy_alpha 0.0                  # Alpha parameter of Cauchy distribution

The alpha parameter (for the Cauchy distribution) is being set to 0.000000.
DPF> ga_cauchy_beta 1.0                   # Beta parameter Cauchy distribution

The beta parameter (for the Cauchy distribution) is being set to 1.000000.
DPF> set_ga                               # set the above parameters for GA or LGA

DPF> sw_max_its 300                       # iterations of Solis & Wets local search

Solis & Wets algorithms will perform at most 300 iterations.
DPF> sw_max_succ 4                        # consecutive successes before changing rho

Solis & Wets algorithms expand rho every 4 in a row successes.
DPF> sw_max_fail 4                        # consecutive failures before changing rho

Solis & Wets algorithms contract rho every 4 in a row failures.
DPF> sw_rho 1.0                           # size of local search space to sample

rho is set to 1.000000.
DPF> sw_lb_rho 0.01                       # lower bound on rho

rho will never get smaller than 0.010000.
DPF> ls_search_freq 0.06                  # probability of performing local search on individual

Local search will be performed with frequency 0.060000.
DPF> set_psw1                             # set the above pseudo-Solis & Wets parameters

Creating a new Local Search object using the pseudo-Solis-Wets algorithm (pSW1) with the current settings.

DPF> unbound_model bound                  # state of unbound ligand

DPF> ga_run 100                           # do this many hybrid GA-LS runs

centering ligand on specified point: 0.015 0.083 0.031
Furthest true ligand atom from "about" center is 4.525 Angstroms (maxrad).
Number of requested GA dockings = 100 runs
Unbound model to be used is 'same as bound' [AutoDock 4.2 default].

	BEGINNING GENETIC ALGORITHM DOCKING 1 of 100
Run: 1 Seed: 1675962364 1688180921 [ Run 1 of 100 GA/GALS ]
Beginning LAMARCKIAN GENETIC ALGORITHM (LGA), with a maximum of 25000000 energy evaluations.

Final-Value: -8.174


	FINAL GENETIC ALGORITHM DOCKED STATE
	_______________________________________________


Detailed state:  trans -18.324 -0.179 1.266 quatxyzw -0.950818 0.184905 0.197761 0.150487 center 0.015 0.083 0.031 ntor 6 -32.0997 13.6970 -140.0850 -2.6790 39.4545 79.6173
State:	-18.324  -0.179   1.266  -0.962  0.187  0.200 162.690    -32.10   13.70 -140.08   -2.68   39.45   79.62

DOCKED: MODEL        1
DOCKED: USER    Run = 1
DOCKED: USER    DPF = D:/Protein_go_brrr/autodock/final/AncMH_nat/2_3_BPG/dock.dpf
DOCKED: USER  
DOCKED: USER    Estimated Free Energy of Binding    =   -8.63 kcal/mol  [=(1)+(2)+(3)-(4)]
DOCKED: USER    Estimated Inhibition Constant, Ki   =  470.07 nM (nanomolar)  [Temperature = 298.15 K]
DOCKED: USER    
DOCKED: USER    (1) Final Intermolecular Energy     =  -10.42 kcal/mol
DOCKED: USER        vdW + Hbond + desolv Energy     =   -2.21 kcal/mol
DOCKED: USER        Electrostatic Energy            =   -8.21 kcal/mol
DOCKED: USER    (2) Final Total Internal Energy     =   +2.25 kcal/mol
DOCKED: USER    (3) Torsional Free Energy           =   +1.79 kcal/mol
DOCKED: USER    (4) Unbound System's Energy  [=(2)] =   +2.25 kcal/mol
DOCKED: USER    
DOCKED: USER    
DOCKED: USER    NEWDPF move 2_3_BPG_opt.pdbqt
DOCKED: USER    NEWDPF about 0.015000 0.083000 0.031000
DOCKED: USER    NEWDPF tran0 -18.323987 -0.179325 1.266310
DOCKED: USER    NEWDPF quaternion0 -0.950818 0.184905 0.197761 0.150487
DOCKED: USER    NEWDPF axisangle0 -0.961770 0.187035 0.200039 162.689678
DOCKED: USER    NEWDPF quat0 -0.961770 0.187035 0.200039 162.689678
DOCKED: USER    NEWDPF dihe0 -32.10 13.70 -140.08 -2.68 39.45 79.62 
DOCKED: USER  keepresnum = 1 
DOCKED: USER  
DOCKED: REMARK  6 active torsions:
DOCKED: REMARK  status: ('A' for Active; 'I' for Inactive)
DOCKED: REMARK    1  A    between atoms: P_1  and  O_3 
DOCKED: REMARK    2  A    between atoms: P_2  and  O_4 
DOCKED: REMARK    3  A    between atoms: O_3  and  C_13 
DOCKED: REMARK    4  A    between atoms: O_4  and  C_14 
DOCKED: REMARK    5  A    between atoms: C_13  and  C_14 
DOCKED: REMARK    6  A    between atoms: C_13  and  C_15 
DOCKED: USER                              x       y       z     vdW  Elec       q    Type
DOCKED: USER                           _______ _______ _______ _____ _____    ______ ____
DOCKED: ROOT
DOCKED: ATOM      1  C   UNL d   1     -18.773   0.318   1.260 -0.08 +0.25    +0.193 C 
DOCKED: ENDROOT
DOCKED: BRANCH   1   2
DOCKED: ATOM      2  O   UNL d   1     -19.625   0.180   2.447 -0.08 -0.56    -0.356 OA
DOCKED: BRANCH   2   3
DOCKED: ATOM      3  P   UNL d   1     -21.262   0.325   2.405 +0.21 -0.02    -0.014 P 
DOCKED: ATOM      4  O   UNL d   1     -21.682   0.353   3.883 -0.54 -1.08    -0.577 OA
DOCKED: ATOM      5  O   UNL d   1     -21.808  -0.909   1.689 +0.01 -0.38    -0.577 OA
DOCKED: ATOM      6  O   UNL d   1     -21.601   1.636   1.702 -0.00 -1.00    -0.638 OA
DOCKED: ENDBRANCH   2   3
DOCKED: ENDBRANCH   1   2
DOCKED: BRANCH   1   7
DOCKED: ATOM      7  C   UNL d   1     -17.543  -0.652   1.405 -0.06 +0.23    +0.201 C 
DOCKED: BRANCH   7   8
DOCKED: ATOM      8  O   UNL d   1     -16.241  -0.027   1.381 -0.53 -0.66    -0.364 OA
DOCKED: BRANCH   8   9
DOCKED: ATOM      9  P   UNL d   1     -15.006  -0.717   0.523 -0.23 -0.02    -0.015 P 
DOCKED: ATOM     10  O   UNL d   1     -15.643  -1.175  -0.795 -0.07 -0.72    -0.577 OA
DOCKED: ATOM     11  O   UNL d   1     -14.493  -1.896   1.349 -0.08 -0.72    -0.577 OA
DOCKED: ATOM     12  O   UNL d   1     -13.950   0.366   0.304 +0.01 -1.23    -0.638 OA
DOCKED: ENDBRANCH   8   9
DOCKED: ENDBRANCH   7   8
DOCKED: ENDBRANCH   1   7
DOCKED: BRANCH   1  13
DOCKED: ATOM     13  C   UNL d   1     -18.239   1.795   1.149 -0.11 +0.14    +0.073 C 
DOCKED: ATOM     14  O   UNL d   1     -18.218   2.519   2.205 -0.59 -1.43    -0.547 OA
DOCKED: ATOM     15  O   UNL d   1     -17.794   2.168   0.004 -0.05 -1.02    -0.547 OA
DOCKED: ENDBRANCH   1  13
DOCKED: TORSDOF 6
DOCKED: TER
DOCKED: ENDMDL
________________________________________________________________________________


	BEGINNING GENETIC ALGORITHM DOCKING 2 of 100
Run: 2 Seed: 983566533 1338833152 [ Run 2 of 100 GA/GALS ]
Beginning LAMARCKIAN GENETIC ALGORITHM (LGA), with a maximum of 25000000 energy evaluations.

Final-Value: -8.180


	FINAL GENETIC ALGORITHM DOCKED STATE
	_______________________________________________


Detailed state:  trans -19.215 3.639 0.297 quatxyzw -0.653376 -0.410976 0.633242 0.056592 center 0.015 0.083 0.031 ntor 6 -167.7779 53.1363 -135.5466 27.9677 41.4997 -143.8409
State:	-19.215   3.639   0.297  -0.654 -0.412  0.634 173.512   -167.78   53.14 -135.55   27.97   41.50 -143.84

DOCKED: MODEL        2
DOCKED: USER    Run = 2
DOCKED: USER    DPF = D:/Protein_go_brrr/autodock/final/AncMH_nat/2_3_BPG/dock.dpf
DOCKED: USER  
DOCKED: USER    Estimated Free Energy of Binding    =   -8.70 kcal/mol  [=(1)+(2)+(3)-(4)]
DOCKED: USER    Estimated Inhibition Constant, Ki   =  419.59 nM (nanomolar)  [Temperature = 298.15 K]
DOCKED: USER    
DOCKED: USER    (1) Final Intermolecular Energy     =  -10.49 kcal/mol
DOCKED: USER        vdW + Hbond + desolv Energy     =   -2.79 kcal/mol
DOCKED: USER        Electrostatic Energy            =   -7.69 kcal/mol
DOCKED: USER    (2) Final Total Internal Energy     =   +2.31 kcal/mol
DOCKED: USER    (3) Torsional Free Energy           =   +1.79 kcal/mol
DOCKED: USER    (4) Unbound System's Energy  [=(2)] =   +2.31 kcal/mol
DOCKED: USER    
DOCKED: USER    
DOCKED: USER    NEWDPF move 2_3_BPG_opt.pdbqt
DOCKED: USER    NEWDPF about 0.015000 0.083000 0.031000
DOCKED: USER    NEWDPF tran0 -19.214860 3.639302 0.296671
DOCKED: USER    NEWDPF quaternion0 -0.653376 -0.410976 0.633242 0.056592
DOCKED: USER    NEWDPF axisangle0 -0.654425 -0.411636 0.634259 173.511565
DOCKED: USER    NEWDPF quat0 -0.654425 -0.411636 0.634259 173.511565
DOCKED: USER    NEWDPF dihe0 -167.78 53.14 -135.55 27.97 41.50 -143.84 
DOCKED: USER  keepresnum = 1 
DOCKED: USER  
DOCKED: REMARK  6 active torsions:
DOCKED: REMARK  status: ('A' for Active; 'I' for Inactive)
DOCKED: REMARK    1  A    between atoms: P_1  and  O_3 
DOCKED: REMARK    2  A    between atoms: P_2  and  O_4 
DOCKED: REMARK    3  A    between atoms: O_3  and  C_13 
DOCKED: REMARK    4  A    between atoms: O_4  and  C_14 
DOCKED: REMARK    5  A    between atoms: C_13  and  C_14 
DOCKED: REMARK    6  A    between atoms: C_13  and  C_15 
DOCKED: USER                              x       y       z     vdW  Elec       q    Type
DOCKED: USER                           _______ _______ _______ _____ _____    ______ ____
DOCKED: ROOT
DOCKED: ATOM      1  C   UNL d   1     -19.395   3.516   0.930 -0.12 +0.29    +0.193 C 
DOCKED: ENDROOT
DOCKED: BRANCH   1   2
DOCKED: ATOM      2  O   UNL d   1     -18.261   2.886   1.615 -0.57 -0.79    -0.356 OA
DOCKED: BRANCH   2   3
DOCKED: ATOM      3  P   UNL d   1     -18.194   1.280   1.962 -0.08 -0.03    -0.014 P 
DOCKED: ATOM      4  O   UNL d   1     -17.794   1.225   3.445 -0.25 -1.09    -0.577 OA
DOCKED: ATOM      5  O   UNL d   1     -17.119   0.668   1.067 -0.43 -1.20    -0.577 OA
DOCKED: ATOM      6  O   UNL d   1     -19.582   0.691   1.734 -0.12 -1.02    -0.638 OA
DOCKED: ENDBRANCH   2   3
DOCKED: ENDBRANCH   1   2
DOCKED: BRANCH   1   7
DOCKED: ATOM      7  C   UNL d   1     -18.903   4.074  -0.456 -0.08 +0.19    +0.201 C 
DOCKED: BRANCH   7   8
DOCKED: ATOM      8  O   UNL d   1     -17.629   3.574  -0.919 -0.17 -0.51    -0.364 OA
DOCKED: BRANCH   8   9
DOCKED: ATOM      9  P   UNL d   1     -16.511   4.615  -1.556 -0.04 -0.02    -0.015 P 
DOCKED: ATOM     10  O   UNL d   1     -16.463   5.795  -0.578 -0.09 -0.53    -0.577 OA
DOCKED: ATOM     11  O   UNL d   1     -17.026   5.035  -2.932 +0.00 -0.29    -0.577 OA
DOCKED: ATOM     12  O   UNL d   1     -15.181   3.866  -1.617 -0.39 -1.25    -0.638 OA
DOCKED: ENDBRANCH   8   9
DOCKED: ENDBRANCH   7   8
DOCKED: ENDBRANCH   1   7
DOCKED: BRANCH   1  13
DOCKED: ATOM     13  C   UNL d   1     -19.946   4.715   1.789 -0.08 +0.11    +0.073 C 
DOCKED: ATOM     14  O   UNL d   1     -21.125   4.622   2.283 -0.31 -1.00    -0.547 OA
DOCKED: ATOM     15  O   UNL d   1     -19.147   5.697   1.998 -0.07 -0.56    -0.547 OA
DOCKED: ENDBRANCH   1  13
DOCKED: TORSDOF 6
DOCKED: TER
DOCKED: ENDMDL
________________________________________________________________________________


	BEGINNING GENETIC ALGORITHM DOCKING 3 of 100
Run: 3 Seed: 1850964140 958002808 [ Run 3 of 100 GA/GALS ]
Beginning LAMARCKIAN GENETIC ALGORITHM (LGA), with a maximum of 25000000 energy evaluations.

Final-Value: -7.942


	FINAL GENETIC ALGORITHM DOCKED STATE
	_______________________________________________


Detailed state:  trans -18.429 0.892 1.203 quatxyzw 0.365564 0.772458 -0.514478 0.070592 center 0.015 0.083 0.031 ntor 6 -29.1222 -99.8961 170.7454 43.5475 3.7844 120.2917
State:	-18.429   0.892   1.203   0.366  0.774 -0.516 171.904    -29.12  -99.90  170.75   43.55    3.78  120.29

DOCKED: MODEL        3
DOCKED: USER    Run = 3
DOCKED: USER    DPF = D:/Protein_go_brrr/autodock/final/AncMH_nat/2_3_BPG/dock.dpf
DOCKED: USER  
DOCKED: USER    Estimated Free Energy of Binding    =   -8.21 kcal/mol  [=(1)+(2)+(3)-(4)]
DOCKED: USER    Estimated Inhibition Constant, Ki   =  952.26 nM (nanomolar)  [Temperature = 298.15 K]
DOCKED: USER    
DOCKED: USER    (1) Final Intermolecular Energy     =  -10.00 kcal/mol
DOCKED: USER        vdW + Hbond + desolv Energy     =   -2.50 kcal/mol
DOCKED: USER        Electrostatic Energy            =   -7.50 kcal/mol
DOCKED: USER    (2) Final Total Internal Energy     =   +2.06 kcal/mol
DOCKED: USER    (3) Torsional Free Energy           =   +1.79 kcal/mol
DOCKED: USER    (4) Unbound System's Energy  [=(2)] =   +2.06 kcal/mol
DOCKED: USER    
DOCKED: USER    
DOCKED: USER    NEWDPF move 2_3_BPG_opt.pdbqt
DOCKED: USER    NEWDPF about 0.015000 0.083000 0.031000
DOCKED: USER    NEWDPF tran0 -18.429189 0.892078 1.203275
DOCKED: USER    NEWDPF quaternion0 0.365564 0.772458 -0.514478 0.070592
DOCKED: USER    NEWDPF axisangle0 0.366479 0.774390 -0.515764 171.903968
DOCKED: USER    NEWDPF quat0 0.366479 0.774390 -0.515764 171.903968
DOCKED: USER    NEWDPF dihe0 -29.12 -99.90 170.75 43.55 3.78 120.29 
DOCKED: USER  keepresnum = 1 
DOCKED: USER  
DOCKED: REMARK  6 active torsions:
DOCKED: REMARK  status: ('A' for Active; 'I' for Inactive)
DOCKED: REMARK    1  A    between atoms: P_1  and  O_3 
DOCKED: REMARK    2  A    between atoms: P_2  and  O_4 
DOCKED: REMARK    3  A    between atoms: O_3  and  C_13 
DOCKED: REMARK    4  A    between atoms: O_4  and  C_14 
DOCKED: REMARK    5  A    between atoms: C_13  and  C_14 
DOCKED: REMARK    6  A    between atoms: C_13  and  C_15 
DOCKED: USER                              x       y       z     vdW  Elec       q    Type
DOCKED: USER                           _______ _______ _______ _____ _____    ______ ____
DOCKED: ROOT
DOCKED: ATOM      1  C   UNL d   1     -18.204   0.386   1.581 -0.11 +0.28    +0.193 C 
DOCKED: ENDROOT
DOCKED: BRANCH   1   2
DOCKED: ATOM      2  O   UNL d   1     -16.741   0.357   1.482 -0.52 -0.69    -0.356 OA
DOCKED: BRANCH   2   3
DOCKED: ATOM      3  P   UNL d   1     -15.931  -0.484   0.324 -0.13 -0.02    -0.014 P 
DOCKED: ATOM      4  O   UNL d   1     -16.089   0.365  -0.947 -0.25 -0.95    -0.577 OA
DOCKED: ATOM      5  O   UNL d   1     -16.620  -1.840   0.184 -0.04 -0.66    -0.577 OA
DOCKED: ATOM      6  O   UNL d   1     -14.470  -0.586   0.751 -0.06 -0.93    -0.638 OA
DOCKED: ENDBRANCH   2   3
DOCKED: ENDBRANCH   1   2
DOCKED: BRANCH   1   7
DOCKED: ATOM      7  C   UNL d   1     -18.727   1.727   0.946 -0.11 +0.33    +0.201 C 
DOCKED: BRANCH   7   8
DOCKED: ATOM      8  O   UNL d   1     -18.640   2.899   1.787 -0.63 -0.88    -0.364 OA
DOCKED: BRANCH   8   9
DOCKED: ATOM      9  P   UNL d   1     -19.312   4.327   1.293 -0.20 -0.02    -0.015 P 
DOCKED: ATOM     10  O   UNL d   1     -19.765   4.076  -0.151 +0.00 -0.51    -0.577 OA
DOCKED: ATOM     11  O   UNL d   1     -18.213   5.387   1.370 -0.07 -0.63    -0.577 OA
DOCKED: ATOM     12  O   UNL d   1     -20.490   4.617   2.222 -0.12 -1.22    -0.638 OA
DOCKED: ENDBRANCH   8   9
DOCKED: ENDBRANCH   7   8
DOCKED: ENDBRANCH   1   7
DOCKED: BRANCH   1  13
DOCKED: ATOM     13  C   UNL d   1     -18.644   0.338   3.092 -0.09 +0.12    +0.073 C 
DOCKED: ATOM     14  O   UNL d   1     -17.822   0.754   3.981 -0.10 -0.84    -0.547 OA
DOCKED: ATOM     15  O   UNL d   1     -19.839  -0.061   3.338 -0.07 -0.87    -0.547 OA
DOCKED: ENDBRANCH   1  13
DOCKED: TORSDOF 6
DOCKED: TER
DOCKED: ENDMDL
________________________________________________________________________________


	BEGINNING GENETIC ALGORITHM DOCKING 4 of 100
Run: 4 Seed: 782340471 1888114034 [ Run 4 of 100 GA/GALS ]
Beginning LAMARCKIAN GENETIC ALGORITHM (LGA), with a maximum of 25000000 energy evaluations.

Final-Value: -8.050


	FINAL GENETIC ALGORITHM DOCKED STATE
	_______________________________________________


Detailed state:  trans -15.729 -0.910 1.752 quatxyzw 0.108705 -0.008976 -0.235140 -0.965822 center 0.015 0.083 0.031 ntor 6 -3.2714 -106.0917 -18.3387 -1.0392 -48.0207 -160.4141
State:	-15.729  -0.910   1.752   0.419 -0.035 -0.907 -30.046     -3.27 -106.09  -18.34   -1.04  -48.02 -160.41

DOCKED: MODEL        4
DOCKED: USER    Run = 4
DOCKED: USER    DPF = D:/Protein_go_brrr/autodock/final/AncMH_nat/2_3_BPG/dock.dpf
DOCKED: USER  
DOCKED: USER    Estimated Free Energy of Binding    =   -8.49 kcal/mol  [=(1)+(2)+(3)-(4)]
DOCKED: USER    Estimated Inhibition Constant, Ki   =  595.82 nM (nanomolar)  [Temperature = 298.15 K]
DOCKED: USER    
DOCKED: USER    (1) Final Intermolecular Energy     =  -10.28 kcal/mol
DOCKED: USER        vdW + Hbond + desolv Energy     =   -2.85 kcal/mol
DOCKED: USER        Electrostatic Energy            =   -7.43 kcal/mol
DOCKED: USER    (2) Final Total Internal Energy     =   +2.23 kcal/mol
DOCKED: USER    (3) Torsional Free Energy           =   +1.79 kcal/mol
DOCKED: USER    (4) Unbound System's Energy  [=(2)] =   +2.23 kcal/mol
DOCKED: USER    
DOCKED: USER    
DOCKED: USER    NEWDPF move 2_3_BPG_opt.pdbqt
DOCKED: USER    NEWDPF about 0.015000 0.083000 0.031000
DOCKED: USER    NEWDPF tran0 -15.729204 -0.909986 1.752185
DOCKED: USER    NEWDPF quaternion0 0.108705 -0.008976 -0.235140 -0.965822
DOCKED: USER    NEWDPF axisangle0 0.419376 -0.034629 -0.907152 -30.045956
DOCKED: USER    NEWDPF quat0 0.419376 -0.034629 -0.907152 -30.045956
DOCKED: USER    NEWDPF dihe0 -3.27 -106.09 -18.34 -1.04 -48.02 -160.41 
DOCKED: USER  keepresnum = 1 
DOCKED: USER  
DOCKED: REMARK  6 active torsions:
DOCKED: REMARK  status: ('A' for Active; 'I' for Inactive)
DOCKED: REMARK    1  A    between atoms: P_1  and  O_3 
DOCKED: REMARK    2  A    between atoms: P_2  and  O_4 
DOCKED: REMARK    3  A    between atoms: O_3  and  C_13 
DOCKED: REMARK    4  A    between atoms: O_4  and  C_14 
DOCKED: REMARK    5  A    between atoms: C_13  and  C_14 
DOCKED: REMARK    6  A    between atoms: C_13  and  C_15 
DOCKED: USER                              x       y       z     vdW  Elec       q    Type
DOCKED: USER                           _______ _______ _______ _____ _____    ______ ____
DOCKED: ROOT
DOCKED: ATOM      1  C   UNL d   1     -16.398  -0.932   1.796 -0.11 +0.23    +0.193 C 
DOCKED: ENDROOT
DOCKED: BRANCH   1   2
DOCKED: ATOM      2  O   UNL d   1     -16.927   0.370   1.375 -0.55 -0.67    -0.356 OA
DOCKED: BRANCH   2   3
DOCKED: ATOM      3  P   UNL d   1     -18.080   1.190   2.212 -0.10 -0.03    -0.014 P 
DOCKED: ATOM      4  O   UNL d   1     -17.370   1.648   3.495 -0.22 -1.08    -0.577 OA
DOCKED: ATOM      5  O   UNL d   1     -19.206   0.203   2.515 -0.07 -0.90    -0.577 OA
DOCKED: ATOM      6  O   UNL d   1     -18.524   2.377   1.364 -0.57 -1.31    -0.638 OA
DOCKED: ENDBRANCH   2   3
DOCKED: ENDBRANCH   1   2
DOCKED: BRANCH   1   7
DOCKED: ATOM      7  C   UNL d   1     -14.870  -1.000   1.427 -0.17 +0.26    +0.201 C 
DOCKED: BRANCH   7   8
DOCKED: ATOM      8  O   UNL d   1     -14.330   0.164   0.763 -0.04 -0.72    -0.364 OA
DOCKED: BRANCH   8   9
DOCKED: ATOM      9  P   UNL d   1     -12.875   0.791   1.240 -0.11 -0.02    -0.015 P 
DOCKED: ATOM     10  O   UNL d   1     -12.441   1.710   0.092 -0.52 -0.88    -0.577 OA
DOCKED: ATOM     11  O   UNL d   1     -11.919  -0.388   1.421 -0.02 -0.43    -0.577 OA
DOCKED: ATOM     12  O   UNL d   1     -13.121   1.566   2.534 -0.23 -0.92    -0.638 OA
DOCKED: ENDBRANCH   8   9
DOCKED: ENDBRANCH   7   8
DOCKED: ENDBRANCH   1   7
DOCKED: BRANCH   1  13
DOCKED: ATOM     13  C   UNL d   1     -17.151  -2.090   1.041 -0.10 +0.07    +0.073 C 
DOCKED: ATOM     14  O   UNL d   1     -17.256  -2.022  -0.234 -0.04 -0.56    -0.547 OA
DOCKED: ATOM     15  O   UNL d   1     -17.565  -3.076   1.752 -0.00 -0.48    -0.547 OA
DOCKED: ENDBRANCH   1  13
DOCKED: TORSDOF 6
DOCKED: TER
DOCKED: ENDMDL
________________________________________________________________________________


	BEGINNING GENETIC ALGORITHM DOCKING 5 of 100
Run: 5 Seed: 1609176571 2025093947 [ Run 5 of 100 GA/GALS ]
Beginning LAMARCKIAN GENETIC ALGORITHM (LGA), with a maximum of 25000000 energy evaluations.

Final-Value: -8.113


	FINAL GENETIC ALGORITHM DOCKED STATE
	_______________________________________________


Detailed state:  trans -16.743 0.257 2.895 quatxyzw 0.527772 -0.031324 0.366128 0.765785 center 0.015 0.083 0.031 ntor 6 129.7904 70.3361 84.9143 -4.9606 67.7406 -61.8541
State:	-16.743   0.257   2.895   0.821 -0.049  0.569 80.046    129.79   70.34   84.91   -4.96   67.74  -61.85

DOCKED: MODEL        5
DOCKED: USER    Run = 5
DOCKED: USER    DPF = D:/Protein_go_brrr/autodock/final/AncMH_nat/2_3_BPG/dock.dpf
DOCKED: USER  
DOCKED: USER    Estimated Free Energy of Binding    =   -8.81 kcal/mol  [=(1)+(2)+(3)-(4)]
DOCKED: USER    Estimated Inhibition Constant, Ki   =  348.06 nM (nanomolar)  [Temperature = 298.15 K]
DOCKED: USER    
DOCKED: USER    (1) Final Intermolecular Energy     =  -10.60 kcal/mol
DOCKED: USER        vdW + Hbond + desolv Energy     =   -2.12 kcal/mol
DOCKED: USER        Electrostatic Energy            =   -8.48 kcal/mol
DOCKED: USER    (2) Final Total Internal Energy     =   +2.49 kcal/mol
DOCKED: USER    (3) Torsional Free Energy           =   +1.79 kcal/mol
DOCKED: USER    (4) Unbound System's Energy  [=(2)] =   +2.49 kcal/mol
DOCKED: USER    
DOCKED: USER    
DOCKED: USER    NEWDPF move 2_3_BPG_opt.pdbqt
DOCKED: USER    NEWDPF about 0.015000 0.083000 0.031000
DOCKED: USER    NEWDPF tran0 -16.743296 0.257283 2.895427
DOCKED: USER    NEWDPF quaternion0 0.527772 -0.031324 0.366128 0.765785
DOCKED: USER    NEWDPF axisangle0 0.820672 -0.048708 0.569320 80.046244
DOCKED: USER    NEWDPF quat0 0.820672 -0.048708 0.569320 80.046244
DOCKED: USER    NEWDPF dihe0 129.79 70.34 84.91 -4.96 67.74 -61.85 
DOCKED: USER  keepresnum = 1 
DOCKED: USER  
DOCKED: REMARK  6 active torsions:
DOCKED: REMARK  status: ('A' for Active; 'I' for Inactive)
DOCKED: REMARK    1  A    between atoms: P_1  and  O_3 
DOCKED: REMARK    2  A    between atoms: P_2  and  O_4 
DOCKED: REMARK    3  A    between atoms: O_3  and  C_13 
DOCKED: REMARK    4  A    between atoms: O_4  and  C_14 
DOCKED: REMARK    5  A    between atoms: C_13  and  C_14 
DOCKED: REMARK    6  A    between atoms: C_13  and  C_15 
DOCKED: USER                              x       y       z     vdW  Elec       q    Type
DOCKED: USER                           _______ _______ _______ _____ _____    ______ ____
DOCKED: ROOT
DOCKED: ATOM      1  C   UNL d   1     -17.295   0.624   2.997 -0.18 +0.30    +0.193 C 
DOCKED: ENDROOT
DOCKED: BRANCH   1   2
DOCKED: ATOM      2  O   UNL d   1     -17.920   0.882   1.695 -0.27 -0.62    -0.356 OA
DOCKED: BRANCH   2   3
DOCKED: ATOM      3  P   UNL d   1     -18.537   2.344   1.263 +0.02 -0.03    -0.014 P 
DOCKED: ATOM      4  O   UNL d   1     -20.049   2.101   1.140 -0.15 -1.01    -0.577 OA
DOCKED: ATOM      5  O   UNL d   1     -17.916   2.717  -0.081 -0.01 -1.00    -0.577 OA
DOCKED: ATOM      6  O   UNL d   1     -18.218   3.337   2.377 -0.28 -1.59    -0.638 OA
DOCKED: ENDBRANCH   2   3
DOCKED: ENDBRANCH   1   2
DOCKED: BRANCH   1   7
DOCKED: ATOM      7  C   UNL d   1     -16.176  -0.466   2.813 -0.13 +0.23    +0.201 C 
DOCKED: BRANCH   7   8
DOCKED: ATOM      8  O   UNL d   1     -14.827   0.032   2.677 -0.15 -0.48    -0.364 OA
DOCKED: BRANCH   8   9
DOCKED: ATOM      9  P   UNL d   1     -14.052  -0.060   1.219 -0.19 -0.02    -0.015 P 
DOCKED: ATOM     10  O   UNL d   1     -13.276  -1.382   1.262 -0.08 -0.61    -0.577 OA
DOCKED: ATOM     11  O   UNL d   1     -13.119   1.148   1.133 -0.24 -1.14    -0.577 OA
DOCKED: ATOM     12  O   UNL d   1     -15.129  -0.062   0.135 -0.25 -1.22    -0.638 OA
DOCKED: ENDBRANCH   8   9
DOCKED: ENDBRANCH   7   8
DOCKED: ENDBRANCH   1   7
DOCKED: BRANCH   1  13
DOCKED: ATOM     13  C   UNL d   1     -18.368   0.078   4.012 -0.11 +0.10    +0.073 C 
DOCKED: ATOM     14  O   UNL d   1     -18.010  -0.138   5.223 -0.06 -0.52    -0.547 OA
DOCKED: ATOM     15  O   UNL d   1     -19.567  -0.058   3.574 -0.04 -0.86    -0.547 OA
DOCKED: ENDBRANCH   1  13
DOCKED: TORSDOF 6
DOCKED: TER
DOCKED: ENDMDL
________________________________________________________________________________


	BEGINNING GENETIC ALGORITHM DOCKING 6 of 100
Run: 6 Seed: 264303820 319727511 [ Run 6 of 100 GA/GALS ]
Beginning LAMARCKIAN GENETIC ALGORITHM (LGA), with a maximum of 25000000 energy evaluations.

Final-Value: -8.588


	FINAL GENETIC ALGORITHM DOCKED STATE
	_______________________________________________


Detailed state:  trans -15.331 -0.783 0.892 quatxyzw -0.081752 0.975987 -0.191627 -0.063595 center 0.015 0.083 0.031 ntor 6 49.0025 -125.6141 -65.8448 19.9433 6.9606 179.7221
State:	-15.331  -0.783   0.892  -0.082  0.978 -0.192 -172.708     49.00 -125.61  -65.84   19.94    6.96  179.72

DOCKED: MODEL        6
DOCKED: USER    Run = 6
DOCKED: USER    DPF = D:/Protein_go_brrr/autodock/final/AncMH_nat/2_3_BPG/dock.dpf
DOCKED: USER  
DOCKED: USER    Estimated Free Energy of Binding    =   -8.96 kcal/mol  [=(1)+(2)+(3)-(4)]
DOCKED: USER    Estimated Inhibition Constant, Ki   =  269.55 nM (nanomolar)  [Temperature = 298.15 K]
DOCKED: USER    
DOCKED: USER    (1) Final Intermolecular Energy     =  -10.75 kcal/mol
DOCKED: USER        vdW + Hbond + desolv Energy     =   -3.34 kcal/mol
DOCKED: USER        Electrostatic Energy            =   -7.41 kcal/mol
DOCKED: USER    (2) Final Total Internal Energy     =   +2.16 kcal/mol
DOCKED: USER    (3) Torsional Free Energy           =   +1.79 kcal/mol
DOCKED: USER    (4) Unbound System's Energy  [=(2)] =   +2.16 kcal/mol
DOCKED: USER    
DOCKED: USER    
DOCKED: USER    NEWDPF move 2_3_BPG_opt.pdbqt
DOCKED: USER    NEWDPF about 0.015000 0.083000 0.031000
DOCKED: USER    NEWDPF tran0 -15.330544 -0.782581 0.891663
DOCKED: USER    NEWDPF quaternion0 -0.081752 0.975987 -0.191627 -0.063595
DOCKED: USER    NEWDPF axisangle0 -0.081918 0.977967 -0.192016 -172.707575
DOCKED: USER    NEWDPF quat0 -0.081918 0.977967 -0.192016 -172.707575
DOCKED: USER    NEWDPF dihe0 49.00 -125.61 -65.84 19.94 6.96 179.72 
DOCKED: USER  keepresnum = 1 
DOCKED: USER  
DOCKED: REMARK  6 active torsions:
DOCKED: REMARK  status: ('A' for Active; 'I' for Inactive)
DOCKED: REMARK    1  A    between atoms: P_1  and  O_3 
DOCKED: REMARK    2  A    between atoms: P_2  and  O_4 
DOCKED: REMARK    3  A    between atoms: O_3  and  C_13 
DOCKED: REMARK    4  A    between atoms: O_4  and  C_14 
DOCKED: REMARK    5  A    between atoms: C_13  and  C_14 
DOCKED: REMARK    6  A    between atoms: C_13  and  C_15 
DOCKED: USER                              x       y       z     vdW  Elec       q    Type
DOCKED: USER                           _______ _______ _______ _____ _____    ______ ____
DOCKED: ROOT
DOCKED: ATOM      1  C   UNL d   1     -14.700  -0.994   0.981 -0.18 +0.26    +0.193 C 
DOCKED: ENDROOT
DOCKED: BRANCH   1   2
DOCKED: ATOM      2  O   UNL d   1     -13.881   0.162   1.362 -0.13 -0.58    -0.356 OA
DOCKED: BRANCH   2   3
DOCKED: ATOM      3  P   UNL d   1     -12.705   0.792   0.400 -0.19 -0.02    -0.014 P 
DOCKED: ATOM      4  O   UNL d   1     -13.388   0.985  -0.963 -0.09 -0.85    -0.577 OA
DOCKED: ATOM      5  O   UNL d   1     -11.582  -0.240   0.324 -0.03 -0.41    -0.577 OA
DOCKED: ATOM      6  O   UNL d   1     -12.268   2.124   1.001 -0.56 -0.93    -0.638 OA
DOCKED: ENDBRANCH   2   3
DOCKED: ENDBRANCH   1   2
DOCKED: BRANCH   1   7
DOCKED: ATOM      7  C   UNL d   1     -16.217  -0.582   1.052 -0.09 +0.30    +0.201 C 
DOCKED: BRANCH   7   8
DOCKED: ATOM      8  O   UNL d   1     -16.521   0.566   1.874 -0.33 -0.75    -0.364 OA
DOCKED: BRANCH   8   9
DOCKED: ATOM      9  P   UNL d   1     -18.093   0.943   2.225 -0.17 -0.03    -0.015 P 
DOCKED: ATOM     10  O   UNL d   1     -18.210   0.790   3.747 -0.08 -1.02    -0.577 OA
DOCKED: ATOM     11  O   UNL d   1     -18.970  -0.065   1.482 -0.00 -0.68    -0.577 OA
DOCKED: ATOM     12  O   UNL d   1     -18.324   2.384   1.774 -0.62 -1.49    -0.638 OA
DOCKED: ENDBRANCH   8   9
DOCKED: ENDBRANCH   7   8
DOCKED: ENDBRANCH   1   7
DOCKED: BRANCH   1  13
DOCKED: ATOM     13  C   UNL d   1     -14.453  -2.184   1.980 -0.19 +0.08    +0.073 C 
DOCKED: ATOM     14  O   UNL d   1     -15.333  -2.418   2.882 -0.00 -0.48    -0.547 OA
DOCKED: ATOM     15  O   UNL d   1     -13.402  -2.896   1.790 -0.69 -0.80    -0.547 OA
DOCKED: ENDBRANCH   1  13
DOCKED: TORSDOF 6
DOCKED: TER
DOCKED: ENDMDL
________________________________________________________________________________


	BEGINNING GENETIC ALGORITHM DOCKING 7 of 100
Run: 7 Seed: 1120380028 2135265005 [ Run 7 of 100 GA/GALS ]
Beginning LAMARCKIAN GENETIC ALGORITHM (LGA), with a maximum of 25000000 energy evaluations.

Final-Value: -9.020


	FINAL GENETIC ALGORITHM DOCKED STATE
	_______________________________________________


Detailed state:  trans -15.139 -0.525 1.926 quatxyzw 0.087451 -0.975871 0.143477 -0.139433 center 0.015 0.083 0.031 ntor 6 26.8514 -141.4743 179.8318 9.8149 2.4697 -68.6990
State:	-15.139  -0.525   1.926   0.088 -0.985  0.145 -163.970     26.85 -141.47  179.83    9.81    2.47  -68.70

DOCKED: MODEL        7
DOCKED: USER    Run = 7
DOCKED: USER    DPF = D:/Protein_go_brrr/autodock/final/AncMH_nat/2_3_BPG/dock.dpf
DOCKED: USER  
DOCKED: USER    Estimated Free Energy of Binding    =   -9.23 kcal/mol  [=(1)+(2)+(3)-(4)]
DOCKED: USER    Estimated Inhibition Constant, Ki   =  170.90 nM (nanomolar)  [Temperature = 298.15 K]
DOCKED: USER    
DOCKED: USER    (1) Final Intermolecular Energy     =  -11.02 kcal/mol
DOCKED: USER        vdW + Hbond + desolv Energy     =   -3.70 kcal/mol
DOCKED: USER        Electrostatic Energy            =   -7.32 kcal/mol
DOCKED: USER    (2) Final Total Internal Energy     =   +2.00 kcal/mol
DOCKED: USER    (3) Torsional Free Energy           =   +1.79 kcal/mol
DOCKED: USER    (4) Unbound System's Energy  [=(2)] =   +2.00 kcal/mol
DOCKED: USER    
DOCKED: USER    
DOCKED: USER    NEWDPF move 2_3_BPG_opt.pdbqt
DOCKED: USER    NEWDPF about 0.015000 0.083000 0.031000
DOCKED: USER    NEWDPF tran0 -15.139331 -0.524591 1.926335
DOCKED: USER    NEWDPF quaternion0 0.087451 -0.975871 0.143477 -0.139433
DOCKED: USER    NEWDPF axisangle0 0.088313 -0.985498 0.144892 -163.969895
DOCKED: USER    NEWDPF quat0 0.088313 -0.985498 0.144892 -163.969895
DOCKED: USER    NEWDPF dihe0 26.85 -141.47 179.83 9.81 2.47 -68.70 
DOCKED: USER  keepresnum = 1 
DOCKED: USER  
DOCKED: REMARK  6 active torsions:
DOCKED: REMARK  status: ('A' for Active; 'I' for Inactive)
DOCKED: REMARK    1  A    between atoms: P_1  and  O_3 
DOCKED: REMARK    2  A    between atoms: P_2  and  O_4 
DOCKED: REMARK    3  A    between atoms: O_3  and  C_13 
DOCKED: REMARK    4  A    between atoms: O_4  and  C_14 
DOCKED: REMARK    5  A    between atoms: C_13  and  C_14 
DOCKED: REMARK    6  A    between atoms: C_13  and  C_15 
DOCKED: USER                              x       y       z     vdW  Elec       q    Type
DOCKED: USER                           _______ _______ _______ _____ _____    ______ ____
DOCKED: ROOT
DOCKED: ATOM      1  C   UNL d   1     -14.542  -0.771   1.746 -0.19 +0.24    +0.193 C 
DOCKED: ENDROOT
DOCKED: BRANCH   1   2
DOCKED: ATOM      2  O   UNL d   1     -13.558   0.315   1.822 -0.17 -0.51    -0.356 OA
DOCKED: BRANCH   2   3
DOCKED: ATOM      3  P   UNL d   1     -12.642   0.794   0.543 -0.22 -0.02    -0.014 P 
DOCKED: ATOM      4  O   UNL d   1     -13.559   0.608  -0.676 -0.08 -0.88    -0.577 OA
DOCKED: ATOM      5  O   UNL d   1     -11.431  -0.135   0.481 -0.03 -0.38    -0.577 OA
DOCKED: ATOM      6  O   UNL d   1     -12.275   2.259   0.749 -0.56 -0.95    -0.638 OA
DOCKED: ENDBRANCH   2   3
DOCKED: ENDBRANCH   1   2
DOCKED: BRANCH   1   7
DOCKED: ATOM      7  C   UNL d   1     -15.873  -0.295   2.437 -0.13 +0.27    +0.201 C 
DOCKED: BRANCH   7   8
DOCKED: ATOM      8  O   UNL d   1     -16.839   0.344   1.572 -0.50 -0.67    -0.364 OA
DOCKED: BRANCH   8   9
DOCKED: ATOM      9  P   UNL d   1     -18.214   1.006   2.210 -0.13 -0.03    -0.015 P 
DOCKED: ATOM     10  O   UNL d   1     -18.091   0.799   3.724 -0.09 -1.00    -0.577 OA
DOCKED: ATOM     11  O   UNL d   1     -19.395   0.234   1.622 -0.03 -0.76    -0.577 OA
DOCKED: ATOM     12  O   UNL d   1     -18.219   2.487   1.831 -0.61 -1.50    -0.638 OA
DOCKED: ENDBRANCH   8   9
DOCKED: ENDBRANCH   7   8
DOCKED: ENDBRANCH   1   7
DOCKED: BRANCH   1  13
DOCKED: ATOM     13  C   UNL d   1     -14.005  -2.039   2.508 -0.26 +0.07    +0.073 C 
DOCKED: ATOM     14  O   UNL d   1     -14.114  -2.078   3.784 -0.03 -0.35    -0.547 OA
DOCKED: ATOM     15  O   UNL d   1     -13.542  -2.998   1.789 -0.66 -0.85    -0.547 OA
DOCKED: ENDBRANCH   1  13
DOCKED: TORSDOF 6
DOCKED: TER
DOCKED: ENDMDL
________________________________________________________________________________


	BEGINNING GENETIC ALGORITHM DOCKING 8 of 100
Run: 8 Seed: 729741174 1875223559 [ Run 8 of 100 GA/GALS ]
Beginning LAMARCKIAN GENETIC ALGORITHM (LGA), with a maximum of 25000000 energy evaluations.

Final-Value: -8.142


	FINAL GENETIC ALGORITHM DOCKED STATE
	_______________________________________________


Detailed state:  trans -17.424 -0.491 2.701 quatxyzw 0.866647 -0.125217 -0.144441 -0.460848 center 0.015 0.083 0.031 ntor 6 -50.6687 -33.4330 -159.1635 24.1955 -40.0361 2.1393
State:	-17.424  -0.491   2.701   0.977 -0.141 -0.163 -125.116    -50.67  -33.43 -159.16   24.20  -40.04    2.14

DOCKED: MODEL        8
DOCKED: USER    Run = 8
DOCKED: USER    DPF = D:/Protein_go_brrr/autodock/final/AncMH_nat/2_3_BPG/dock.dpf
DOCKED: USER  
DOCKED: USER    Estimated Free Energy of Binding    =   -8.45 kcal/mol  [=(1)+(2)+(3)-(4)]
DOCKED: USER    Estimated Inhibition Constant, Ki   =  642.14 nM (nanomolar)  [Temperature = 298.15 K]
DOCKED: USER    
DOCKED: USER    (1) Final Intermolecular Energy     =  -10.24 kcal/mol
DOCKED: USER        vdW + Hbond + desolv Energy     =   -3.01 kcal/mol
DOCKED: USER        Electrostatic Energy            =   -7.23 kcal/mol
DOCKED: USER    (2) Final Total Internal Energy     =   +2.10 kcal/mol
DOCKED: USER    (3) Torsional Free Energy           =   +1.79 kcal/mol
DOCKED: USER    (4) Unbound System's Energy  [=(2)] =   +2.10 kcal/mol
DOCKED: USER    
DOCKED: USER    
DOCKED: USER    NEWDPF move 2_3_BPG_opt.pdbqt
DOCKED: USER    NEWDPF about 0.015000 0.083000 0.031000
DOCKED: USER    NEWDPF tran0 -17.424102 -0.490694 2.700965
DOCKED: USER    NEWDPF quaternion0 0.866647 -0.125217 -0.144441 -0.460848
DOCKED: USER    NEWDPF axisangle0 0.976526 -0.141092 -0.162754 -125.116257
DOCKED: USER    NEWDPF quat0 0.976526 -0.141092 -0.162754 -125.116257
DOCKED: USER    NEWDPF dihe0 -50.67 -33.43 -159.16 24.20 -40.04 2.14 
DOCKED: USER  keepresnum = 1 
DOCKED: USER  
DOCKED: REMARK  6 active torsions:
DOCKED: REMARK  status: ('A' for Active; 'I' for Inactive)
DOCKED: REMARK    1  A    between atoms: P_1  and  O_3 
DOCKED: REMARK    2  A    between atoms: P_2  and  O_4 
DOCKED: REMARK    3  A    between atoms: O_3  and  C_13 
DOCKED: REMARK    4  A    between atoms: O_4  and  C_14 
DOCKED: REMARK    5  A    between atoms: C_13  and  C_14 
DOCKED: REMARK    6  A    between atoms: C_13  and  C_15 
DOCKED: USER                              x       y       z     vdW  Elec       q    Type
DOCKED: USER                           _______ _______ _______ _____ _____    ______ ____
DOCKED: ROOT
DOCKED: ATOM      1  C   UNL d   1     -17.975  -0.187   2.470 -0.12 +0.24    +0.193 C 
DOCKED: ENDROOT
DOCKED: BRANCH   1   2
DOCKED: ATOM      2  O   UNL d   1     -18.780   0.237   3.621 -0.08 -0.58    -0.356 OA
DOCKED: BRANCH   2   3
DOCKED: ATOM      3  P   UNL d   1     -20.195  -0.484   4.048 -0.05 -0.02    -0.014 P 
DOCKED: ATOM      4  O   UNL d   1     -20.178  -0.480   5.585 -0.03 -0.56    -0.577 OA
DOCKED: ATOM      5  O   UNL d   1     -20.164  -1.905   3.490 +0.03 -0.40    -0.577 OA
DOCKED: ATOM      6  O   UNL d   1     -21.339   0.361   3.499 -0.35 -1.31    -0.638 OA
DOCKED: ENDBRANCH   2   3
DOCKED: ENDBRANCH   1   2
DOCKED: BRANCH   1   7
DOCKED: ATOM      7  C   UNL d   1     -16.557  -0.634   2.983 -0.12 +0.21    +0.201 C 
DOCKED: BRANCH   7   8
DOCKED: ATOM      8  O   UNL d   1     -15.788  -1.455   2.076 -0.07 -0.39    -0.364 OA
DOCKED: BRANCH   8   9
DOCKED: ATOM      9  P   UNL d   1     -14.148  -1.265   1.972 -0.35 -0.02    -0.015 P 
DOCKED: ATOM     10  O   UNL d   1     -13.736  -0.629   3.305 -0.03 -0.44    -0.577 OA
DOCKED: ATOM     11  O   UNL d   1     -13.881  -0.335   0.789 -0.04 -0.82    -0.577 OA
DOCKED: ATOM     12  O   UNL d   1     -13.543  -2.656   1.789 -0.61 -0.85    -0.638 OA
DOCKED: ENDBRANCH   8   9
DOCKED: ENDBRANCH   7   8
DOCKED: ENDBRANCH   1   7
DOCKED: BRANCH   1  13
DOCKED: ATOM     13  C   UNL d   1     -17.793   1.013   1.467 -0.11 +0.13    +0.073 C 
DOCKED: ATOM     14  O   UNL d   1     -18.282   2.154   1.784 -0.66 -1.25    -0.547 OA
DOCKED: ATOM     15  O   UNL d   1     -17.102   0.788   0.409 -0.41 -1.19    -0.547 OA
DOCKED: ENDBRANCH   1  13
DOCKED: TORSDOF 6
DOCKED: TER
DOCKED: ENDMDL
________________________________________________________________________________


	BEGINNING GENETIC ALGORITHM DOCKING 9 of 100
Run: 9 Seed: 2143818385 823799686 [ Run 9 of 100 GA/GALS ]
Beginning LAMARCKIAN GENETIC ALGORITHM (LGA), with a maximum of 25000000 energy evaluations.

Final-Value: -8.445


	FINAL GENETIC ALGORITHM DOCKED STATE
	_______________________________________________


Detailed state:  trans -15.444 -1.372 1.657 quatxyzw 0.237724 -0.931156 0.262051 -0.088115 center 0.015 0.083 0.031 ntor 6 174.9157 -108.4913 -112.5067 -4.6854 -67.2223 -175.9270
State:	-15.444  -1.372   1.657   0.239 -0.935  0.263 -169.890    174.92 -108.49 -112.51   -4.69  -67.22 -175.93

DOCKED: MODEL        9
DOCKED: USER    Run = 9
DOCKED: USER    DPF = D:/Protein_go_brrr/autodock/final/AncMH_nat/2_3_BPG/dock.dpf
DOCKED: USER  
DOCKED: USER    Estimated Free Energy of Binding    =   -9.09 kcal/mol  [=(1)+(2)+(3)-(4)]
DOCKED: USER    Estimated Inhibition Constant, Ki   =  216.23 nM (nanomolar)  [Temperature = 298.15 K]
DOCKED: USER    
DOCKED: USER    (1) Final Intermolecular Energy     =  -10.88 kcal/mol
DOCKED: USER        vdW + Hbond + desolv Energy     =   -3.11 kcal/mol
DOCKED: USER        Electrostatic Energy            =   -7.78 kcal/mol
DOCKED: USER    (2) Final Total Internal Energy     =   +2.44 kcal/mol
DOCKED: USER    (3) Torsional Free Energy           =   +1.79 kcal/mol
DOCKED: USER    (4) Unbound System's Energy  [=(2)] =   +2.44 kcal/mol
DOCKED: USER    
DOCKED: USER    
DOCKED: USER    NEWDPF move 2_3_BPG_opt.pdbqt
DOCKED: USER    NEWDPF about 0.015000 0.083000 0.031000
DOCKED: USER    NEWDPF tran0 -15.444485 -1.372459 1.657088
DOCKED: USER    NEWDPF quaternion0 0.237724 -0.931156 0.262051 -0.088115
DOCKED: USER    NEWDPF axisangle0 0.238652 -0.934792 0.263074 -169.889600
DOCKED: USER    NEWDPF quat0 0.238652 -0.934792 0.263074 -169.889600
DOCKED: USER    NEWDPF dihe0 174.92 -108.49 -112.51 -4.69 -67.22 -175.93 
DOCKED: USER  keepresnum = 1 
DOCKED: USER  
DOCKED: REMARK  6 active torsions:
DOCKED: REMARK  status: ('A' for Active; 'I' for Inactive)
DOCKED: REMARK    1  A    between atoms: P_1  and  O_3 
DOCKED: REMARK    2  A    between atoms: P_2  and  O_4 
DOCKED: REMARK    3  A    between atoms: O_3  and  C_13 
DOCKED: REMARK    4  A    between atoms: O_4  and  C_14 
DOCKED: REMARK    5  A    between atoms: C_13  and  C_14 
DOCKED: REMARK    6  A    between atoms: C_13  and  C_15 
DOCKED: USER                              x       y       z     vdW  Elec       q    Type
DOCKED: USER                           _______ _______ _______ _____ _____    ______ ____
DOCKED: ROOT
DOCKED: ATOM      1  C   UNL d   1     -14.785  -1.423   1.548 -0.18 +0.23    +0.193 C 
DOCKED: ENDROOT
DOCKED: BRANCH   1   2
DOCKED: ATOM      2  O   UNL d   1     -14.235  -0.068   1.434 -0.15 -0.56    -0.356 OA
DOCKED: BRANCH   2   3
DOCKED: ATOM      3  P   UNL d   1     -13.132   0.365   0.293 -0.22 -0.02    -0.014 P 
DOCKED: ATOM      4  O   UNL d   1     -13.899   0.276  -1.035 -0.03 -0.78    -0.577 OA
DOCKED: ATOM      5  O   UNL d   1     -11.995  -0.652   0.354 -0.03 -0.47    -0.577 OA
DOCKED: ATOM      6  O   UNL d   1     -12.686   1.794   0.588 -0.43 -1.25    -0.638 OA
DOCKED: ENDBRANCH   2   3
DOCKED: ENDBRANCH   1   2
DOCKED: BRANCH   1   7
DOCKED: ATOM      7  C   UNL d   1     -16.259  -1.326   2.088 -0.11 +0.21    +0.201 C 
DOCKED: BRANCH   7   8
DOCKED: ATOM      8  O   UNL d   1     -16.627  -0.066   2.693 -0.14 -0.48    -0.364 OA
DOCKED: BRANCH   8   9
DOCKED: ATOM      9  P   UNL d   1     -17.803   0.873   2.004 -0.20 -0.03    -0.015 P 
DOCKED: ATOM     10  O   UNL d   1     -19.110   0.103   2.227 -0.05 -0.82    -0.577 OA
DOCKED: ATOM     11  O   UNL d   1     -17.460   0.998   0.519 -0.35 -1.15    -0.577 OA
DOCKED: ATOM     12  O   UNL d   1     -17.794   2.214   2.735 -0.35 -1.55    -0.638 OA
DOCKED: ENDBRANCH   8   9
DOCKED: ENDBRANCH   7   8
DOCKED: ENDBRANCH   1   7
DOCKED: BRANCH   1  13
DOCKED: ATOM     13  C   UNL d   1     -13.930  -2.269   2.565 -0.25 +0.07    +0.073 C 
DOCKED: ATOM     14  O   UNL d   1     -13.545  -3.439   2.214 -0.59 -0.84    -0.547 OA
DOCKED: ATOM     15  O   UNL d   1     -13.615  -1.702   3.673 -0.04 -0.34    -0.547 OA
DOCKED: ENDBRANCH   1  13
DOCKED: TORSDOF 6
DOCKED: TER
DOCKED: ENDMDL
________________________________________________________________________________


	BEGINNING GENETIC ALGORITHM DOCKING 10 of 100
Run: 10 Seed: 801727448 1315234679 [ Run 10 of 100 GA/GALS ]
Beginning LAMARCKIAN GENETIC ALGORITHM (LGA), with a maximum of 25000000 energy evaluations.

Final-Value: -8.539


	FINAL GENETIC ALGORITHM DOCKED STATE
	_______________________________________________


Detailed state:  trans -15.180 -0.980 0.847 quatxyzw -0.195343 0.940296 -0.272821 -0.057044 center 0.015 0.083 0.031 ntor 6 4.7569 -140.2374 -4.9531 -1.2430 -45.7762 174.0588
State:	-15.180  -0.980   0.847  -0.196  0.942 -0.273 -173.460      4.76 -140.24   -4.95   -1.24  -45.78  174.06

DOCKED: MODEL       10
DOCKED: USER    Run = 10
DOCKED: USER    DPF = D:/Protein_go_brrr/autodock/final/AncMH_nat/2_3_BPG/dock.dpf
DOCKED: USER  
DOCKED: USER    Estimated Free Energy of Binding    =   -9.02 kcal/mol  [=(1)+(2)+(3)-(4)]
DOCKED: USER    Estimated Inhibition Constant, Ki   =  244.65 nM (nanomolar)  [Temperature = 298.15 K]
DOCKED: USER    
DOCKED: USER    (1) Final Intermolecular Energy     =  -10.81 kcal/mol
DOCKED: USER        vdW + Hbond + desolv Energy     =   -3.21 kcal/mol
DOCKED: USER        Electrostatic Energy            =   -7.60 kcal/mol
DOCKED: USER    (2) Final Total Internal Energy     =   +2.27 kcal/mol
DOCKED: USER    (3) Torsional Free Energy           =   +1.79 kcal/mol
DOCKED: USER    (4) Unbound System's Energy  [=(2)] =   +2.27 kcal/mol
DOCKED: USER    
DOCKED: USER    
DOCKED: USER    NEWDPF move 2_3_BPG_opt.pdbqt
DOCKED: USER    NEWDPF about 0.015000 0.083000 0.031000
DOCKED: USER    NEWDPF tran0 -15.179666 -0.980472 0.847477
DOCKED: USER    NEWDPF quaternion0 -0.195343 0.940296 -0.272821 -0.057044
DOCKED: USER    NEWDPF axisangle0 -0.195662 0.941829 -0.273266 -173.459727
DOCKED: USER    NEWDPF quat0 -0.195662 0.941829 -0.273266 -173.459727
DOCKED: USER    NEWDPF dihe0 4.76 -140.24 -4.95 -1.24 -45.78 174.06 
DOCKED: USER  keepresnum = 1 
DOCKED: USER  
DOCKED: REMARK  6 active torsions:
DOCKED: REMARK  status: ('A' for Active; 'I' for Inactive)
DOCKED: REMARK    1  A    between atoms: P_1  and  O_3 
DOCKED: REMARK    2  A    between atoms: P_2  and  O_4 
DOCKED: REMARK    3  A    between atoms: O_3  and  C_13 
DOCKED: REMARK    4  A    between atoms: O_4  and  C_14 
DOCKED: REMARK    5  A    between atoms: C_13  and  C_14 
DOCKED: REMARK    6  A    between atoms: C_13  and  C_15 
DOCKED: USER                              x       y       z     vdW  Elec       q    Type
DOCKED: USER                           _______ _______ _______ _____ _____    ______ ____
DOCKED: ROOT
DOCKED: ATOM      1  C   UNL d   1     -14.517  -1.034   0.936 -0.18 +0.25    +0.193 C 
DOCKED: ENDROOT
DOCKED: BRANCH   1   2
DOCKED: ATOM      2  O   UNL d   1     -13.960   0.318   1.053 -0.09 -0.67    -0.356 OA
DOCKED: BRANCH   2   3
DOCKED: ATOM      3  P   UNL d   1     -12.615   0.813   0.246 -0.22 -0.02    -0.014 P 
DOCKED: ATOM      4  O   UNL d   1     -12.697   0.096  -1.110 -0.03 -0.53    -0.577 OA
DOCKED: ATOM      5  O   UNL d   1     -11.406   0.349   1.055 -0.00 -0.38    -0.577 OA
DOCKED: ATOM      6  O   UNL d   1     -12.693   2.327   0.085 -0.41 -1.29    -0.638 OA
DOCKED: ENDBRANCH   2   3
DOCKED: ENDBRANCH   1   2
DOCKED: BRANCH   1   7
DOCKED: ATOM      7  C   UNL d   1     -16.086  -0.943   1.020 -0.12 +0.27    +0.201 C 
DOCKED: BRANCH   7   8
DOCKED: ATOM      8  O   UNL d   1     -16.613   0.188   1.748 -0.44 -0.64    -0.364 OA
DOCKED: BRANCH   8   9
DOCKED: ATOM      9  P   UNL d   1     -17.909   1.027   1.152 -0.08 -0.03    -0.015 P 
DOCKED: ATOM     10  O   UNL d   1     -18.218   2.089   2.213 -0.62 -1.45    -0.577 OA
DOCKED: ATOM     11  O   UNL d   1     -19.054   0.026   0.994 +0.01 -0.64    -0.577 OA
DOCKED: ATOM     12  O   UNL d   1     -17.472   1.650  -0.173 -0.05 -1.29    -0.638 OA
DOCKED: ENDBRANCH   8   9
DOCKED: ENDBRANCH   7   8
DOCKED: ENDBRANCH   1   7
DOCKED: BRANCH   1  13
DOCKED: ATOM     13  C   UNL d   1     -14.001  -1.935   2.120 -0.25 +0.08    +0.073 C 
DOCKED: ATOM     14  O   UNL d   1     -14.245  -1.565   3.321 -0.03 -0.41    -0.547 OA
DOCKED: ATOM     15  O   UNL d   1     -13.413  -3.032   1.803 -0.69 -0.85    -0.547 OA
DOCKED: ENDBRANCH   1  13
DOCKED: TORSDOF 6
DOCKED: TER
DOCKED: ENDMDL
________________________________________________________________________________


	BEGINNING GENETIC ALGORITHM DOCKING 11 of 100
Run: 11 Seed: 1420963068 1220809407 [ Run 11 of 100 GA/GALS ]
Beginning LAMARCKIAN GENETIC ALGORITHM (LGA), with a maximum of 25000000 energy evaluations.

Final-Value: -9.019


	FINAL GENETIC ALGORITHM DOCKED STATE
	_______________________________________________


Detailed state:  trans -15.087 -0.471 1.764 quatxyzw -0.046545 -0.980754 0.076690 -0.173420 center 0.015 0.083 0.031 ntor 6 79.9853 -166.4342 177.2114 37.5783 -8.5057 -41.1269
State:	-15.087  -0.471   1.764  -0.047 -0.996  0.078 -160.027     79.99 -166.43  177.21   37.58   -8.51  -41.13

DOCKED: MODEL       11
DOCKED: USER    Run = 11
DOCKED: USER    DPF = D:/Protein_go_brrr/autodock/final/AncMH_nat/2_3_BPG/dock.dpf
DOCKED: USER  
DOCKED: USER    Estimated Free Energy of Binding    =   -9.25 kcal/mol  [=(1)+(2)+(3)-(4)]
DOCKED: USER    Estimated Inhibition Constant, Ki   =  166.39 nM (nanomolar)  [Temperature = 298.15 K]
DOCKED: USER    
DOCKED: USER    (1) Final Intermolecular Energy     =  -11.04 kcal/mol
DOCKED: USER        vdW + Hbond + desolv Energy     =   -3.43 kcal/mol
DOCKED: USER        Electrostatic Energy            =   -7.60 kcal/mol
DOCKED: USER    (2) Final Total Internal Energy     =   +2.02 kcal/mol
DOCKED: USER    (3) Torsional Free Energy           =   +1.79 kcal/mol
DOCKED: USER    (4) Unbound System's Energy  [=(2)] =   +2.02 kcal/mol
DOCKED: USER    
DOCKED: USER    
DOCKED: USER    NEWDPF move 2_3_BPG_opt.pdbqt
DOCKED: USER    NEWDPF about 0.015000 0.083000 0.031000
DOCKED: USER    NEWDPF tran0 -15.086661 -0.471264 1.763845
DOCKED: USER    NEWDPF quaternion0 -0.046545 -0.980754 0.076690 -0.173420
DOCKED: USER    NEWDPF axisangle0 -0.047261 -0.995843 0.077870 -160.026522
DOCKED: USER    NEWDPF quat0 -0.047261 -0.995843 0.077870 -160.026522
DOCKED: USER    NEWDPF dihe0 79.99 -166.43 177.21 37.58 -8.51 -41.13 
DOCKED: USER  keepresnum = 1 
DOCKED: USER  
DOCKED: REMARK  6 active torsions:
DOCKED: REMARK  status: ('A' for Active; 'I' for Inactive)
DOCKED: REMARK    1  A    between atoms: P_1  and  O_3 
DOCKED: REMARK    2  A    between atoms: P_2  and  O_4 
DOCKED: REMARK    3  A    between atoms: O_3  and  C_13 
DOCKED: REMARK    4  A    between atoms: O_4  and  C_14 
DOCKED: REMARK    5  A    between atoms: C_13  and  C_14 
DOCKED: REMARK    6  A    between atoms: C_13  and  C_15 
DOCKED: USER                              x       y       z     vdW  Elec       q    Type
DOCKED: USER                           _______ _______ _______ _____ _____    ______ ____
DOCKED: ROOT
DOCKED: ATOM      1  C   UNL d   1     -14.591  -0.860   1.534 -0.19 +0.24    +0.193 C 
DOCKED: ENDROOT
DOCKED: BRANCH   1   2
DOCKED: ATOM      2  O   UNL d   1     -13.334  -0.112   1.649 -0.14 -0.42    -0.356 OA
DOCKED: BRANCH   2   3
DOCKED: ATOM      3  P   UNL d   1     -12.690   0.765   0.415 -0.22 -0.02    -0.014 P 
DOCKED: ATOM      4  O   UNL d   1     -13.792   0.787  -0.655 -0.01 -1.02    -0.577 OA
DOCKED: ATOM      5  O   UNL d   1     -11.449   0.019  -0.071 -0.03 -0.38    -0.577 OA
DOCKED: ATOM      6  O   UNL d   1     -12.391   2.166   0.940 -0.50 -1.06    -0.638 OA
DOCKED: ENDBRANCH   2   3
DOCKED: ENDBRANCH   1   2
DOCKED: BRANCH   1   7
DOCKED: ATOM      7  C   UNL d   1     -15.710  -0.090   2.328 -0.12 +0.30    +0.201 C 
DOCKED: BRANCH   7   8
DOCKED: ATOM      8  O   UNL d   1     -16.833   0.373   1.545 -0.51 -0.69    -0.364 OA
DOCKED: BRANCH   8   9
DOCKED: ATOM      9  P   UNL d   1     -18.132   1.075   2.291 -0.09 -0.03    -0.015 P 
DOCKED: ATOM     10  O   UNL d   1     -17.795   1.046   3.787 -0.13 -0.99    -0.577 OA
DOCKED: ATOM     11  O   UNL d   1     -19.352   0.215   1.964 -0.05 -0.82    -0.577 OA
DOCKED: ATOM     12  O   UNL d   1     -18.243   2.501   1.755 -0.60 -1.48    -0.638 OA
DOCKED: ENDBRANCH   8   9
DOCKED: ENDBRANCH   7   8
DOCKED: ENDBRANCH   1   7
DOCKED: BRANCH   1  13
DOCKED: ATOM     13  C   UNL d   1     -14.425  -2.294   2.161 -0.16 +0.08    +0.073 C 
DOCKED: ATOM     14  O   UNL d   1     -15.336  -2.726   2.951 +0.00 -0.48    -0.547 OA
DOCKED: ATOM     15  O   UNL d   1     -13.404  -2.978   1.789 -0.69 -0.83    -0.547 OA
DOCKED: ENDBRANCH   1  13
DOCKED: TORSDOF 6
DOCKED: TER
DOCKED: ENDMDL
________________________________________________________________________________


	BEGINNING GENETIC ALGORITHM DOCKING 12 of 100
Run: 12 Seed: 533329104 397879493 [ Run 12 of 100 GA/GALS ]
Beginning LAMARCKIAN GENETIC ALGORITHM (LGA), with a maximum of 25000000 energy evaluations.

Final-Value: -8.139


	FINAL GENETIC ALGORITHM DOCKED STATE
	_______________________________________________


Detailed state:  trans -16.541 -1.012 1.122 quatxyzw -0.557144 0.381912 0.268491 0.686765 center 0.015 0.083 0.031 ntor 6 144.6764 -76.4723 48.8980 42.3655 30.8496 160.7489
State:	-16.541  -1.012   1.122  -0.766  0.525  0.369 93.251    144.68  -76.47   48.90   42.37   30.85  160.75

DOCKED: MODEL       12
DOCKED: USER    Run = 12
DOCKED: USER    DPF = D:/Protein_go_brrr/autodock/final/AncMH_nat/2_3_BPG/dock.dpf
DOCKED: USER  
DOCKED: USER    Estimated Free Energy of Binding    =   -8.44 kcal/mol  [=(1)+(2)+(3)-(4)]
DOCKED: USER    Estimated Inhibition Constant, Ki   =  648.51 nM (nanomolar)  [Temperature = 298.15 K]
DOCKED: USER    
DOCKED: USER    (1) Final Intermolecular Energy     =  -10.23 kcal/mol
DOCKED: USER        vdW + Hbond + desolv Energy     =   -2.99 kcal/mol
DOCKED: USER        Electrostatic Energy            =   -7.25 kcal/mol
DOCKED: USER    (2) Final Total Internal Energy     =   +2.09 kcal/mol
DOCKED: USER    (3) Torsional Free Energy           =   +1.79 kcal/mol
DOCKED: USER    (4) Unbound System's Energy  [=(2)] =   +2.09 kcal/mol
DOCKED: USER    
DOCKED: USER    
DOCKED: USER    NEWDPF move 2_3_BPG_opt.pdbqt
DOCKED: USER    NEWDPF about 0.015000 0.083000 0.031000
DOCKED: USER    NEWDPF tran0 -16.541361 -1.011896 1.122248
DOCKED: USER    NEWDPF quaternion0 -0.557144 0.381912 0.268491 0.686765
DOCKED: USER    NEWDPF axisangle0 -0.766487 0.525413 0.369375 93.250852
DOCKED: USER    NEWDPF quat0 -0.766487 0.525413 0.369375 93.250852
DOCKED: USER    NEWDPF dihe0 144.68 -76.47 48.90 42.37 30.85 160.75 
DOCKED: USER  keepresnum = 1 
DOCKED: USER  
DOCKED: REMARK  6 active torsions:
DOCKED: REMARK  status: ('A' for Active; 'I' for Inactive)
DOCKED: REMARK    1  A    between atoms: P_1  and  O_3 
DOCKED: REMARK    2  A    between atoms: P_2  and  O_4 
DOCKED: REMARK    3  A    between atoms: O_3  and  C_13 
DOCKED: REMARK    4  A    between atoms: O_4  and  C_14 
DOCKED: REMARK    5  A    between atoms: C_13  and  C_14 
DOCKED: REMARK    6  A    between atoms: C_13  and  C_15 
DOCKED: USER                              x       y       z     vdW  Elec       q    Type
DOCKED: USER                           _______ _______ _______ _____ _____    ______ ____
DOCKED: ROOT
DOCKED: ATOM      1  C   UNL d   1     -16.931  -0.672   0.696 -0.08 +0.25    +0.193 C 
DOCKED: ENDROOT
DOCKED: BRANCH   1   2
DOCKED: ATOM      2  O   UNL d   1     -17.039   0.710   1.177 -0.46 -0.77    -0.356 OA
DOCKED: BRANCH   2   3
DOCKED: ATOM      3  P   UNL d   1     -18.213   1.217   2.211 -0.07 -0.03    -0.014 P 
DOCKED: ATOM      4  O   UNL d   1     -17.531   1.231   3.588 -0.17 -1.01    -0.577 OA
DOCKED: ATOM      5  O   UNL d   1     -19.341   0.188   2.154 -0.06 -0.84    -0.577 OA
DOCKED: ATOM      6  O   UNL d   1     -18.644   2.616   1.785 -0.59 -1.57    -0.638 OA
DOCKED: ENDBRANCH   2   3
DOCKED: ENDBRANCH   1   2
DOCKED: BRANCH   1   7
DOCKED: ATOM      7  C   UNL d   1     -15.800  -1.403   1.509 -0.13 +0.24    +0.201 C 
DOCKED: BRANCH   7   8
DOCKED: ATOM      8  O   UNL d   1     -14.620  -0.619   1.791 -0.13 -0.47    -0.364 OA
DOCKED: BRANCH   8   9
DOCKED: ATOM      9  P   UNL d   1     -13.134  -1.345   1.841 -0.37 -0.01    -0.015 P 
DOCKED: ATOM     10  O   UNL d   1     -12.517  -0.902   3.173 +0.06 -0.35    -0.577 OA
DOCKED: ATOM     11  O   UNL d   1     -12.342  -0.821   0.643 -0.04 -0.52    -0.577 OA
DOCKED: ATOM     12  O   UNL d   1     -13.367  -2.854   1.790 -0.65 -0.92    -0.638 OA
DOCKED: ENDBRANCH   8   9
DOCKED: ENDBRANCH   7   8
DOCKED: ENDBRANCH   1   7
DOCKED: BRANCH   1  13
DOCKED: ATOM     13  C   UNL d   1     -16.543  -0.683  -0.830 -0.12 +0.09    +0.073 C 
DOCKED: ATOM     14  O   UNL d   1     -16.748  -1.752  -1.505 -0.05 -0.55    -0.547 OA
DOCKED: ATOM     15  O   UNL d   1     -16.097   0.414  -1.326 -0.13 -0.79    -0.547 OA
DOCKED: ENDBRANCH   1  13
DOCKED: TORSDOF 6
DOCKED: TER
DOCKED: ENDMDL
________________________________________________________________________________


	BEGINNING GENETIC ALGORITHM DOCKING 13 of 100
Run: 13 Seed: 847253549 1887860164 [ Run 13 of 100 GA/GALS ]
Beginning LAMARCKIAN GENETIC ALGORITHM (LGA), with a maximum of 25000000 energy evaluations.

Final-Value: -8.083


	FINAL GENETIC ALGORITHM DOCKED STATE
	_______________________________________________


Detailed state:  trans -15.293 -0.742 2.381 quatxyzw -0.009935 0.999573 0.003325 0.027284 center 0.015 0.083 0.031 ntor 6 -122.6415 164.6763 -37.5857 17.2938 -67.3582 -90.4937
State:	-15.293  -0.742   2.381  -0.010  1.000  0.003 176.873   -122.64  164.68  -37.59   17.29  -67.36  -90.49

DOCKED: MODEL       13
DOCKED: USER    Run = 13
DOCKED: USER    DPF = D:/Protein_go_brrr/autodock/final/AncMH_nat/2_3_BPG/dock.dpf
DOCKED: USER  
DOCKED: USER    Estimated Free Energy of Binding    =   -8.47 kcal/mol  [=(1)+(2)+(3)-(4)]
DOCKED: USER    Estimated Inhibition Constant, Ki   =  621.79 nM (nanomolar)  [Temperature = 298.15 K]
DOCKED: USER    
DOCKED: USER    (1) Final Intermolecular Energy     =  -10.26 kcal/mol
DOCKED: USER        vdW + Hbond + desolv Energy     =   -3.25 kcal/mol
DOCKED: USER        Electrostatic Energy            =   -7.01 kcal/mol
DOCKED: USER    (2) Final Total Internal Energy     =   +2.17 kcal/mol
DOCKED: USER    (3) Torsional Free Energy           =   +1.79 kcal/mol
DOCKED: USER    (4) Unbound System's Energy  [=(2)] =   +2.17 kcal/mol
DOCKED: USER    
DOCKED: USER    
DOCKED: USER    NEWDPF move 2_3_BPG_opt.pdbqt
DOCKED: USER    NEWDPF about 0.015000 0.083000 0.031000
DOCKED: USER    NEWDPF tran0 -15.292662 -0.742385 2.381361
DOCKED: USER    NEWDPF quaternion0 -0.009935 0.999573 0.003325 0.027284
DOCKED: USER    NEWDPF axisangle0 -0.009938 0.999945 0.003326 176.873074
DOCKED: USER    NEWDPF quat0 -0.009938 0.999945 0.003326 176.873074
DOCKED: USER    NEWDPF dihe0 -122.64 164.68 -37.59 17.29 -67.36 -90.49 
DOCKED: USER  keepresnum = 1 
DOCKED: USER  
DOCKED: REMARK  6 active torsions:
DOCKED: REMARK  status: ('A' for Active; 'I' for Inactive)
DOCKED: REMARK    1  A    between atoms: P_1  and  O_3 
DOCKED: REMARK    2  A    between atoms: P_2  and  O_4 
DOCKED: REMARK    3  A    between atoms: O_3  and  C_13 
DOCKED: REMARK    4  A    between atoms: O_4  and  C_14 
DOCKED: REMARK    5  A    between atoms: C_13  and  C_14 
DOCKED: REMARK    6  A    between atoms: C_13  and  C_15 
DOCKED: USER                              x       y       z     vdW  Elec       q    Type
DOCKED: USER                           _______ _______ _______ _____ _____    ______ ____
DOCKED: ROOT
DOCKED: ATOM      1  C   UNL d   1     -14.707  -1.042   2.254 -0.19 +0.21    +0.193 C 
DOCKED: ENDROOT
DOCKED: BRANCH   1   2
DOCKED: ATOM      2  O   UNL d   1     -13.639  -0.227   2.845 -0.15 -0.33    -0.356 OA
DOCKED: BRANCH   2   3
DOCKED: ATOM      3  P   UNL d   1     -12.488   0.536   1.953 -0.40 -0.01    -0.014 P 
DOCKED: ATOM      4  O   UNL d   1     -12.508  -0.190   0.599 -0.04 -0.57    -0.577 OA
DOCKED: ATOM      5  O   UNL d   1     -11.155   0.344   2.674 -0.01 -0.28    -0.577 OA
DOCKED: ATOM      6  O   UNL d   1     -12.895   1.999   1.809 -0.19 -1.21    -0.638 OA
DOCKED: ENDBRANCH   2   3
DOCKED: ENDBRANCH   1   2
DOCKED: BRANCH   1   7
DOCKED: ATOM      7  C   UNL d   1     -16.092  -0.520   2.785 -0.13 +0.23    +0.201 C 
DOCKED: BRANCH   7   8
DOCKED: ATOM      8  O   UNL d   1     -16.498   0.784   2.313 -0.23 -0.72    -0.364 OA
DOCKED: BRANCH   8   9
DOCKED: ATOM      9  P   UNL d   1     -17.846   0.941   1.366 -0.11 -0.03    -0.015 P 
DOCKED: ATOM     10  O   UNL d   1     -18.473   2.277   1.785 -0.63 -1.36    -0.577 OA
DOCKED: ATOM     11  O   UNL d   1     -18.757  -0.243   1.688 +0.00 -0.67    -0.577 OA
DOCKED: ATOM     12  O   UNL d   1     -17.377   0.958  -0.088 -0.33 -1.16    -0.638 OA
DOCKED: ENDBRANCH   8   9
DOCKED: ENDBRANCH   7   8
DOCKED: ENDBRANCH   1   7
DOCKED: BRANCH   1  13
DOCKED: ATOM     13  C   UNL d   1     -14.537  -2.547   2.684 -0.21 +0.07    +0.073 C 
DOCKED: ATOM     14  O   UNL d   1     -13.542  -3.207   2.219 -0.64 -0.77    -0.547 OA
DOCKED: ATOM     15  O   UNL d   1     -15.381  -3.009   3.534 +0.02 -0.40    -0.547 OA
DOCKED: ENDBRANCH   1  13
DOCKED: TORSDOF 6
DOCKED: TER
DOCKED: ENDMDL
________________________________________________________________________________


	BEGINNING GENETIC ALGORITHM DOCKING 14 of 100
Run: 14 Seed: 401061210 1403576493 [ Run 14 of 100 GA/GALS ]
Beginning LAMARCKIAN GENETIC ALGORITHM (LGA), with a maximum of 25000000 energy evaluations.

Final-Value: -8.441


	FINAL GENETIC ALGORITHM DOCKED STATE
	_______________________________________________


Detailed state:  trans -15.487 -0.944 1.096 quatxyzw -0.238470 0.921753 -0.293058 0.087299 center 0.015 0.083 0.031 ntor 6 176.8409 -97.2128 127.9586 -7.9322 -40.4405 -176.6335
State:	-15.487  -0.944   1.096  -0.239  0.925 -0.294 169.983    176.84  -97.21  127.96   -7.93  -40.44 -176.63

DOCKED: MODEL       14
DOCKED: USER    Run = 14
DOCKED: USER    DPF = D:/Protein_go_brrr/autodock/final/AncMH_nat/2_3_BPG/dock.dpf
DOCKED: USER  
DOCKED: USER    Estimated Free Energy of Binding    =   -8.88 kcal/mol  [=(1)+(2)+(3)-(4)]
DOCKED: USER    Estimated Inhibition Constant, Ki   =  309.82 nM (nanomolar)  [Temperature = 298.15 K]
DOCKED: USER    
DOCKED: USER    (1) Final Intermolecular Energy     =  -10.67 kcal/mol
DOCKED: USER        vdW + Hbond + desolv Energy     =   -3.04 kcal/mol
DOCKED: USER        Electrostatic Energy            =   -7.63 kcal/mol
DOCKED: USER    (2) Final Total Internal Energy     =   +2.23 kcal/mol
DOCKED: USER    (3) Torsional Free Energy           =   +1.79 kcal/mol
DOCKED: USER    (4) Unbound System's Energy  [=(2)] =   +2.23 kcal/mol
DOCKED: USER    
DOCKED: USER    
DOCKED: USER    NEWDPF move 2_3_BPG_opt.pdbqt
DOCKED: USER    NEWDPF about 0.015000 0.083000 0.031000
DOCKED: USER    NEWDPF tran0 -15.487078 -0.944125 1.096086
DOCKED: USER    NEWDPF quaternion0 -0.238470 0.921753 -0.293058 0.087299
DOCKED: USER    NEWDPF axisangle0 -0.239384 0.925285 -0.294181 169.983491
DOCKED: USER    NEWDPF quat0 -0.239384 0.925285 -0.294181 169.983491
DOCKED: USER    NEWDPF dihe0 176.84 -97.21 127.96 -7.93 -40.44 -176.63 
DOCKED: USER  keepresnum = 1 
DOCKED: USER  
DOCKED: REMARK  6 active torsions:
DOCKED: REMARK  status: ('A' for Active; 'I' for Inactive)
DOCKED: REMARK    1  A    between atoms: P_1  and  O_3 
DOCKED: REMARK    2  A    between atoms: P_2  and  O_4 
DOCKED: REMARK    3  A    between atoms: O_3  and  C_13 
DOCKED: REMARK    4  A    between atoms: O_4  and  C_14 
DOCKED: REMARK    5  A    between atoms: C_13  and  C_14 
DOCKED: REMARK    6  A    between atoms: C_13  and  C_15 
DOCKED: USER                              x       y       z     vdW  Elec       q    Type
DOCKED: USER                           _______ _______ _______ _____ _____    ______ ____
DOCKED: ROOT
DOCKED: ATOM      1  C   UNL d   1     -14.826  -0.994   1.000 -0.17 +0.26    +0.193 C 
DOCKED: ENDROOT
DOCKED: BRANCH   1   2
DOCKED: ATOM      2  O   UNL d   1     -14.289   0.359   0.809 +0.05 -0.77    -0.356 OA
DOCKED: BRANCH   2   3
DOCKED: ATOM      3  P   UNL d   1     -13.119   0.719  -0.289 -0.07 -0.02    -0.014 P 
DOCKED: ATOM      4  O   UNL d   1     -13.862   0.789  -1.632 -0.01 -0.70    -0.577 OA
DOCKED: ATOM      5  O   UNL d   1     -12.108  -0.426  -0.265 -0.02 -0.49    -0.577 OA
DOCKED: ATOM      6  O   UNL d   1     -12.517   2.069   0.089 -0.49 -1.11    -0.638 OA
DOCKED: ENDBRANCH   2   3
DOCKED: ENDBRANCH   1   2
DOCKED: BRANCH   1   7
DOCKED: ATOM      7  C   UNL d   1     -16.309  -0.881   1.512 -0.11 +0.25    +0.201 C 
DOCKED: BRANCH   7   8
DOCKED: ATOM      8  O   UNL d   1     -16.695   0.405   2.046 -0.37 -0.65    -0.364 OA
DOCKED: BRANCH   8   9
DOCKED: ATOM      9  P   UNL d   1     -18.215   0.996   1.769 -0.19 -0.03    -0.015 P 
DOCKED: ATOM     10  O   UNL d   1     -18.427   0.857   0.257 -0.05 -0.75    -0.577 OA
DOCKED: ATOM     11  O   UNL d   1     -18.213   2.458   2.214 -0.59 -1.50    -0.577 OA
DOCKED: ATOM     12  O   UNL d   1     -19.188   0.129   2.567 -0.04 -0.97    -0.638 OA
DOCKED: ENDBRANCH   8   9
DOCKED: ENDBRANCH   7   8
DOCKED: ENDBRANCH   1   7
DOCKED: BRANCH   1  13
DOCKED: ATOM     13  C   UNL d   1     -13.976  -1.764   2.079 -0.26 +0.07    +0.073 C 
DOCKED: ATOM     14  O   UNL d   1     -13.541  -2.934   1.793 -0.66 -0.83    -0.547 OA
DOCKED: ATOM     15  O   UNL d   1     -13.716  -1.139   3.170 -0.04 -0.41    -0.547 OA
DOCKED: ENDBRANCH   1  13
DOCKED: TORSDOF 6
DOCKED: TER
DOCKED: ENDMDL
________________________________________________________________________________


	BEGINNING GENETIC ALGORITHM DOCKING 15 of 100
Run: 15 Seed: 698311905 137641794 [ Run 15 of 100 GA/GALS ]
Beginning LAMARCKIAN GENETIC ALGORITHM (LGA), with a maximum of 25000000 energy evaluations.

Final-Value: -8.930


	FINAL GENETIC ALGORITHM DOCKED STATE
	_______________________________________________


Detailed state:  trans -15.001 -0.353 2.052 quatxyzw 0.108734 -0.985947 0.092552 -0.086710 center 0.015 0.083 0.031 ntor 6 -170.9063 -147.9014 179.1208 7.9975 6.2544 -62.6000
State:	-15.001  -0.353   2.052   0.109 -0.990  0.093 -170.051   -170.91 -147.90  179.12    8.00    6.25  -62.60

DOCKED: MODEL       15
DOCKED: USER    Run = 15
DOCKED: USER    DPF = D:/Protein_go_brrr/autodock/final/AncMH_nat/2_3_BPG/dock.dpf
DOCKED: USER  
DOCKED: USER    Estimated Free Energy of Binding    =   -9.12 kcal/mol  [=(1)+(2)+(3)-(4)]
DOCKED: USER    Estimated Inhibition Constant, Ki   =  206.72 nM (nanomolar)  [Temperature = 298.15 K]
DOCKED: USER    
DOCKED: USER    (1) Final Intermolecular Energy     =  -10.91 kcal/mol
DOCKED: USER        vdW + Hbond + desolv Energy     =   -3.77 kcal/mol
DOCKED: USER        Electrostatic Energy            =   -7.14 kcal/mol
DOCKED: USER    (2) Final Total Internal Energy     =   +1.98 kcal/mol
DOCKED: USER    (3) Torsional Free Energy           =   +1.79 kcal/mol
DOCKED: USER    (4) Unbound System's Energy  [=(2)] =   +1.98 kcal/mol
DOCKED: USER    
DOCKED: USER    
DOCKED: USER    NEWDPF move 2_3_BPG_opt.pdbqt
DOCKED: USER    NEWDPF about 0.015000 0.083000 0.031000
DOCKED: USER    NEWDPF tran0 -15.000635 -0.353157 2.051818
DOCKED: USER    NEWDPF quaternion0 0.108734 -0.985947 0.092552 -0.086710
DOCKED: USER    NEWDPF axisangle0 0.109145 -0.989675 0.092902 -170.051297
DOCKED: USER    NEWDPF quat0 0.109145 -0.989675 0.092902 -170.051297
DOCKED: USER    NEWDPF dihe0 -170.91 -147.90 179.12 8.00 6.25 -62.60 
DOCKED: USER  keepresnum = 1 
DOCKED: USER  
DOCKED: REMARK  6 active torsions:
DOCKED: REMARK  status: ('A' for Active; 'I' for Inactive)
DOCKED: REMARK    1  A    between atoms: P_1  and  O_3 
DOCKED: REMARK    2  A    between atoms: P_2  and  O_4 
DOCKED: REMARK    3  A    between atoms: O_3  and  C_13 
DOCKED: REMARK    4  A    between atoms: O_4  and  C_14 
DOCKED: REMARK    5  A    between atoms: C_13  and  C_14 
DOCKED: REMARK    6  A    between atoms: C_13  and  C_15 
DOCKED: USER                              x       y       z     vdW  Elec       q    Type
DOCKED: USER                           _______ _______ _______ _____ _____    ______ ____
DOCKED: ROOT
DOCKED: ATOM      1  C   UNL d   1     -14.379  -0.555   1.901 -0.20 +0.24    +0.193 C 
DOCKED: ENDROOT
DOCKED: BRANCH   1   2
DOCKED: ATOM      2  O   UNL d   1     -13.457   0.548   2.192 -0.20 -0.48    -0.356 OA
DOCKED: BRANCH   2   3
DOCKED: ATOM      3  P   UNL d   1     -12.424   1.179   1.079 -0.15 -0.02    -0.014 P 
DOCKED: ATOM      4  O   UNL d   1     -13.119   0.936  -0.270 -0.24 -0.94    -0.577 OA
DOCKED: ATOM      5  O   UNL d   1     -11.114   0.400   1.184 +0.00 -0.34    -0.577 OA
DOCKED: ATOM      6  O   UNL d   1     -12.270   2.668   1.369 -0.49 -0.89    -0.638 OA
DOCKED: ENDBRANCH   2   3
DOCKED: ENDBRANCH   1   2
DOCKED: BRANCH   1   7
DOCKED: ATOM      7  C   UNL d   1     -15.787  -0.212   2.515 -0.14 +0.27    +0.201 C 
DOCKED: BRANCH   7   8
DOCKED: ATOM      8  O   UNL d   1     -16.748   0.367   1.604 -0.50 -0.69    -0.364 OA
DOCKED: BRANCH   8   9
DOCKED: ATOM      9  P   UNL d   1     -18.172   0.979   2.180 -0.15 -0.03    -0.015 P 
DOCKED: ATOM     10  O   UNL d   1     -18.102   0.789   3.701 -0.10 -1.00    -0.577 OA
DOCKED: ATOM     11  O   UNL d   1     -19.297   0.155   1.554 -0.02 -0.73    -0.577 OA
DOCKED: ATOM     12  O   UNL d   1     -18.221   2.455   1.788 -0.62 -1.48    -0.638 OA
DOCKED: ENDBRANCH   8   9
DOCKED: ENDBRANCH   7   8
DOCKED: ENDBRANCH   1   7
DOCKED: BRANCH   1  13
DOCKED: ATOM     13  C   UNL d   1     -13.854  -1.886   2.558 -0.26 +0.07    +0.073 C 
DOCKED: ATOM     14  O   UNL d   1     -13.544  -2.864   1.792 -0.66 -0.80    -0.547 OA
DOCKED: ATOM     15  O   UNL d   1     -13.706  -1.887   3.833 -0.03 -0.32    -0.547 OA
DOCKED: ENDBRANCH   1  13
DOCKED: TORSDOF 6
DOCKED: TER
DOCKED: ENDMDL
________________________________________________________________________________


	BEGINNING GENETIC ALGORITHM DOCKING 16 of 100
Run: 16 Seed: 1253766669 835304771 [ Run 16 of 100 GA/GALS ]
Beginning LAMARCKIAN GENETIC ALGORITHM (LGA), with a maximum of 25000000 energy evaluations.

Final-Value: -8.707


	FINAL GENETIC ALGORITHM DOCKED STATE
	_______________________________________________


Detailed state:  trans -14.571 -0.562 0.954 quatxyzw -0.114266 0.945881 -0.166237 -0.254199 center 0.015 0.083 0.031 ntor 6 -1.9526 131.1905 -101.4502 24.9310 -17.8342 161.7206
State:	-14.571  -0.562   0.954  -0.118  0.978 -0.172 -150.548     -1.95  131.19 -101.45   24.93  -17.83  161.72

DOCKED: MODEL       16
DOCKED: USER    Run = 16
DOCKED: USER    DPF = D:/Protein_go_brrr/autodock/final/AncMH_nat/2_3_BPG/dock.dpf
DOCKED: USER  
DOCKED: USER    Estimated Free Energy of Binding    =   -9.06 kcal/mol  [=(1)+(2)+(3)-(4)]
DOCKED: USER    Estimated Inhibition Constant, Ki   =  228.08 nM (nanomolar)  [Temperature = 298.15 K]
DOCKED: USER    
DOCKED: USER    (1) Final Intermolecular Energy     =  -10.85 kcal/mol
DOCKED: USER        vdW + Hbond + desolv Energy     =   -3.74 kcal/mol
DOCKED: USER        Electrostatic Energy            =   -7.11 kcal/mol
DOCKED: USER    (2) Final Total Internal Energy     =   +2.14 kcal/mol
DOCKED: USER    (3) Torsional Free Energy           =   +1.79 kcal/mol
DOCKED: USER    (4) Unbound System's Energy  [=(2)] =   +2.14 kcal/mol
DOCKED: USER    
DOCKED: USER    
DOCKED: USER    NEWDPF move 2_3_BPG_opt.pdbqt
DOCKED: USER    NEWDPF about 0.015000 0.083000 0.031000
DOCKED: USER    NEWDPF tran0 -14.571107 -0.561994 0.953927
DOCKED: USER    NEWDPF quaternion0 -0.114266 0.945881 -0.166237 -0.254199
DOCKED: USER    NEWDPF axisangle0 -0.118147 0.978007 -0.171883 -150.547799
DOCKED: USER    NEWDPF quat0 -0.118147 0.978007 -0.171883 -150.547799
DOCKED: USER    NEWDPF dihe0 -1.95 131.19 -101.45 24.93 -17.83 161.72 
DOCKED: USER  keepresnum = 1 
DOCKED: USER  
DOCKED: REMARK  6 active torsions:
DOCKED: REMARK  status: ('A' for Active; 'I' for Inactive)
DOCKED: REMARK    1  A    between atoms: P_1  and  O_3 
DOCKED: REMARK    2  A    between atoms: P_2  and  O_4 
DOCKED: REMARK    3  A    between atoms: O_3  and  C_13 
DOCKED: REMARK    4  A    between atoms: O_4  and  C_14 
DOCKED: REMARK    5  A    between atoms: C_13  and  C_14 
DOCKED: REMARK    6  A    between atoms: C_13  and  C_15 
DOCKED: USER                              x       y       z     vdW  Elec       q    Type
DOCKED: USER                           _______ _______ _______ _____ _____    ______ ____
DOCKED: ROOT
DOCKED: ATOM      1  C   UNL d   1     -13.987  -0.696   1.254 -0.21 +0.24    +0.193 C 
DOCKED: ENDROOT
DOCKED: BRANCH   1   2
DOCKED: ATOM      2  O   UNL d   1     -13.539   0.517   1.946 -0.20 -0.53    -0.356 OA
DOCKED: BRANCH   2   3
DOCKED: ATOM      3  P   UNL d   1     -12.285   1.445   1.422 -0.29 -0.02    -0.014 P 
DOCKED: ATOM      4  O   UNL d   1     -11.121   0.456   1.255 +0.00 -0.34    -0.577 OA
DOCKED: ATOM      5  O   UNL d   1     -11.997   2.473   2.514 -0.19 -0.49    -0.577 OA
DOCKED: ATOM      6  O   UNL d   1     -12.686   2.068   0.089 -0.46 -1.25    -0.638 OA
DOCKED: ENDBRANCH   2   3
DOCKED: ENDBRANCH   1   2
DOCKED: BRANCH   1   7
DOCKED: ATOM      7  C   UNL d   1     -15.478  -0.494   0.795 -0.09 +0.32    +0.201 C 
DOCKED: BRANCH   7   8
DOCKED: ATOM      8  O   UNL d   1     -16.334   0.208   1.723 -0.44 -0.69    -0.364 OA
DOCKED: BRANCH   8   9
DOCKED: ATOM      9  P   UNL d   1     -17.794   0.800   1.220 -0.13 -0.03    -0.015 P 
DOCKED: ATOM     10  O   UNL d   1     -18.743  -0.404   1.246 +0.02 -0.61    -0.577 OA
DOCKED: ATOM     11  O   UNL d   1     -17.594   1.337  -0.197 -0.19 -1.02    -0.577 OA
DOCKED: ATOM     12  O   UNL d   1     -18.211   1.881   2.216 -0.58 -1.53    -0.638 OA
DOCKED: ENDBRANCH   8   9
DOCKED: ENDBRANCH   7   8
DOCKED: ENDBRANCH   1   7
DOCKED: BRANCH   1  13
DOCKED: ATOM     13  C   UNL d   1     -13.923  -1.929   2.230 -0.26 +0.07    +0.073 C 
DOCKED: ATOM     14  O   UNL d   1     -14.491  -1.833   3.374 -0.02 -0.41    -0.547 OA
DOCKED: ATOM     15  O   UNL d   1     -13.352  -2.992   1.791 -0.71 -0.83    -0.547 OA
DOCKED: ENDBRANCH   1  13
DOCKED: TORSDOF 6
DOCKED: TER
DOCKED: ENDMDL
________________________________________________________________________________


	BEGINNING GENETIC ALGORITHM DOCKING 17 of 100
Run: 17 Seed: 1784906053 46394421 [ Run 17 of 100 GA/GALS ]
Beginning LAMARCKIAN GENETIC ALGORITHM (LGA), with a maximum of 25000000 energy evaluations.

Final-Value: -8.041


	FINAL GENETIC ALGORITHM DOCKED STATE
	_______________________________________________


Detailed state:  trans -17.862 0.287 1.697 quatxyzw -0.419070 0.331921 -0.339448 -0.773940 center 0.015 0.083 0.031 ntor 6 147.5597 24.0351 124.4078 27.2640 -89.2587 -72.6590
State:	-17.862   0.287   1.697  -0.662  0.524 -0.536 -78.582    147.56   24.04  124.41   27.26  -89.26  -72.66

DOCKED: MODEL       17
DOCKED: USER    Run = 17
DOCKED: USER    DPF = D:/Protein_go_brrr/autodock/final/AncMH_nat/2_3_BPG/dock.dpf
DOCKED: USER  
DOCKED: USER    Estimated Free Energy of Binding    =   -8.45 kcal/mol  [=(1)+(2)+(3)-(4)]
DOCKED: USER    Estimated Inhibition Constant, Ki   =  644.73 nM (nanomolar)  [Temperature = 298.15 K]
DOCKED: USER    
DOCKED: USER    (1) Final Intermolecular Energy     =  -10.24 kcal/mol
DOCKED: USER        vdW + Hbond + desolv Energy     =   -2.15 kcal/mol
DOCKED: USER        Electrostatic Energy            =   -8.09 kcal/mol
DOCKED: USER    (2) Final Total Internal Energy     =   +2.19 kcal/mol
DOCKED: USER    (3) Torsional Free Energy           =   +1.79 kcal/mol
DOCKED: USER    (4) Unbound System's Energy  [=(2)] =   +2.19 kcal/mol
DOCKED: USER    
DOCKED: USER    
DOCKED: USER    NEWDPF move 2_3_BPG_opt.pdbqt
DOCKED: USER    NEWDPF about 0.015000 0.083000 0.031000
DOCKED: USER    NEWDPF tran0 -17.861611 0.286533 1.696621
DOCKED: USER    NEWDPF quaternion0 -0.419070 0.331921 -0.339448 -0.773940
DOCKED: USER    NEWDPF axisangle0 -0.661768 0.524148 -0.536034 -78.581862
DOCKED: USER    NEWDPF quat0 -0.661768 0.524148 -0.536034 -78.581862
DOCKED: USER    NEWDPF dihe0 147.56 24.04 124.41 27.26 -89.26 -72.66 
DOCKED: USER  keepresnum = 1 
DOCKED: USER  
DOCKED: REMARK  6 active torsions:
DOCKED: REMARK  status: ('A' for Active; 'I' for Inactive)
DOCKED: REMARK    1  A    between atoms: P_1  and  O_3 
DOCKED: REMARK    2  A    between atoms: P_2  and  O_4 
DOCKED: REMARK    3  A    between atoms: O_3  and  C_13 
DOCKED: REMARK    4  A    between atoms: O_4  and  C_14 
DOCKED: REMARK    5  A    between atoms: C_13  and  C_14 
DOCKED: REMARK    6  A    between atoms: C_13  and  C_15 
DOCKED: USER                              x       y       z     vdW  Elec       q    Type
DOCKED: USER                           _______ _______ _______ _____ _____    ______ ____
DOCKED: ROOT
DOCKED: ATOM      1  C   UNL d   1     -18.186   0.666   2.144 -0.14 +0.32    +0.193 C 
DOCKED: ENDROOT
DOCKED: BRANCH   1   2
DOCKED: ATOM      2  O   UNL d   1     -19.079   1.572   1.411 -0.49 -0.67    -0.356 OA
DOCKED: BRANCH   2   3
DOCKED: ATOM      3  P   UNL d   1     -18.770   3.174   1.206 -0.03 -0.03    -0.014 P 
DOCKED: ATOM      4  O   UNL d   1     -20.138   3.788   0.870 -0.05 -0.77    -0.577 OA
DOCKED: ATOM      5  O   UNL d   1     -17.794   3.301   0.038 +0.00 -1.02    -0.577 OA
DOCKED: ATOM      6  O   UNL d   1     -18.220   3.719   2.520 -0.17 -1.47    -0.638 OA
DOCKED: ENDBRANCH   2   3
DOCKED: ENDBRANCH   1   2
DOCKED: BRANCH   1   7
DOCKED: ATOM      7  C   UNL d   1     -17.640  -0.420   1.146 -0.06 +0.25    +0.201 C 
DOCKED: BRANCH   7   8
DOCKED: ATOM      8  O   UNL d   1     -16.450  -0.059   0.410 -0.63 -0.65    -0.364 OA
DOCKED: BRANCH   8   9
DOCKED: ATOM      9  P   UNL d   1     -14.958  -0.484   0.985 -0.21 -0.02    -0.015 P 
DOCKED: ATOM     10  O   UNL d   1     -14.917   0.051   2.422 -0.08 -0.84    -0.577 OA
DOCKED: ATOM     11  O   UNL d   1     -13.924   0.200   0.092 -0.04 -1.01    -0.577 OA
DOCKED: ATOM     12  O   UNL d   1     -14.874  -2.009   0.938 +0.01 -0.86    -0.638 OA
DOCKED: ENDBRANCH   8   9
DOCKED: ENDBRANCH   7   8
DOCKED: ENDBRANCH   1   7
DOCKED: BRANCH   1  13
DOCKED: ATOM     13  C   UNL d   1     -18.979  -0.059   3.294 -0.10 +0.11    +0.073 C 
DOCKED: ATOM     14  O   UNL d   1     -18.319  -0.551   4.275 -0.03 -0.55    -0.547 OA
DOCKED: ATOM     15  O   UNL d   1     -20.260  -0.058   3.209 -0.15 -0.88    -0.547 OA
DOCKED: ENDBRANCH   1  13
DOCKED: TORSDOF 6
DOCKED: TER
DOCKED: ENDMDL
________________________________________________________________________________


	BEGINNING GENETIC ALGORITHM DOCKING 18 of 100
Run: 18 Seed: 1453910707 1378863026 [ Run 18 of 100 GA/GALS ]
Beginning LAMARCKIAN GENETIC ALGORITHM (LGA), with a maximum of 25000000 energy evaluations.

Final-Value: -8.806


	FINAL GENETIC ALGORITHM DOCKED STATE
	_______________________________________________


Detailed state:  trans -15.456 -0.954 1.280 quatxyzw 0.204940 -0.931723 0.281752 -0.102508 center 0.015 0.083 0.031 ntor 6 8.1764 -120.4593 -129.8703 -6.6097 19.8992 -133.1005
State:	-15.456  -0.954   1.280   0.206 -0.937  0.283 -168.233      8.18 -120.46 -129.87   -6.61   19.90 -133.10

DOCKED: MODEL       18
DOCKED: USER    Run = 18
DOCKED: USER    DPF = D:/Protein_go_brrr/autodock/final/AncMH_nat/2_3_BPG/dock.dpf
DOCKED: USER  
DOCKED: USER    Estimated Free Energy of Binding    =   -9.17 kcal/mol  [=(1)+(2)+(3)-(4)]
DOCKED: USER    Estimated Inhibition Constant, Ki   =  191.10 nM (nanomolar)  [Temperature = 298.15 K]
DOCKED: USER    
DOCKED: USER    (1) Final Intermolecular Energy     =  -10.96 kcal/mol
DOCKED: USER        vdW + Hbond + desolv Energy     =   -3.35 kcal/mol
DOCKED: USER        Electrostatic Energy            =   -7.61 kcal/mol
DOCKED: USER    (2) Final Total Internal Energy     =   +2.15 kcal/mol
DOCKED: USER    (3) Torsional Free Energy           =   +1.79 kcal/mol
DOCKED: USER    (4) Unbound System's Energy  [=(2)] =   +2.15 kcal/mol
DOCKED: USER    
DOCKED: USER    
DOCKED: USER    NEWDPF move 2_3_BPG_opt.pdbqt
DOCKED: USER    NEWDPF about 0.015000 0.083000 0.031000
DOCKED: USER    NEWDPF tran0 -15.456072 -0.954317 1.280145
DOCKED: USER    NEWDPF quaternion0 0.204940 -0.931723 0.281752 -0.102508
DOCKED: USER    NEWDPF axisangle0 0.206025 -0.936657 0.283244 -168.232787
DOCKED: USER    NEWDPF quat0 0.206025 -0.936657 0.283244 -168.232787
DOCKED: USER    NEWDPF dihe0 8.18 -120.46 -129.87 -6.61 19.90 -133.10 
DOCKED: USER  keepresnum = 1 
DOCKED: USER  
DOCKED: REMARK  6 active torsions:
DOCKED: REMARK  status: ('A' for Active; 'I' for Inactive)
DOCKED: REMARK    1  A    between atoms: P_1  and  O_3 
DOCKED: REMARK    2  A    between atoms: P_2  and  O_4 
DOCKED: REMARK    3  A    between atoms: O_3  and  C_13 
DOCKED: REMARK    4  A    between atoms: O_4  and  C_14 
DOCKED: REMARK    5  A    between atoms: C_13  and  C_14 
DOCKED: REMARK    6  A    between atoms: C_13  and  C_15 
DOCKED: USER                              x       y       z     vdW  Elec       q    Type
DOCKED: USER                           _______ _______ _______ _____ _____    ______ ____
DOCKED: ROOT
DOCKED: ATOM      1  C   UNL d   1     -14.801  -1.053   1.175 -0.18 +0.25    +0.193 C 
DOCKED: ENDROOT
DOCKED: BRANCH   1   2
DOCKED: ATOM      2  O   UNL d   1     -14.164   0.256   0.995 -0.05 -0.70    -0.356 OA
DOCKED: BRANCH   2   3
DOCKED: ATOM      3  P   UNL d   1     -13.004   0.548  -0.134 -0.16 -0.02    -0.014 P 
DOCKED: ATOM      4  O   UNL d   1     -13.649   0.125  -1.463 -0.03 -0.63    -0.577 OA
DOCKED: ATOM      5  O   UNL d   1     -11.804  -0.330   0.213 -0.03 -0.44    -0.577 OA
DOCKED: ATOM      6  O   UNL d   1     -12.692   2.041  -0.113 -0.43 -1.17    -0.638 OA
DOCKED: ENDBRANCH   2   3
DOCKED: ENDBRANCH   1   2
DOCKED: BRANCH   1   7
DOCKED: ATOM      7  C   UNL d   1     -16.265  -0.833   1.707 -0.11 +0.25    +0.201 C 
DOCKED: BRANCH   7   8
DOCKED: ATOM      8  O   UNL d   1     -16.880   0.427   1.360 -0.51 -0.72    -0.364 OA
DOCKED: BRANCH   8   9
DOCKED: ATOM      9  P   UNL d   1     -18.120   1.026   2.277 -0.11 -0.03    -0.015 P 
DOCKED: ATOM     10  O   UNL d   1     -17.594   1.011   3.717 -0.12 -0.94    -0.577 OA
DOCKED: ATOM     11  O   UNL d   1     -19.307   0.082   2.093 -0.04 -0.80    -0.577 OA
DOCKED: ATOM     12  O   UNL d   1     -18.401   2.445   1.784 -0.61 -1.52    -0.638 OA
DOCKED: ENDBRANCH   8   9
DOCKED: ENDBRANCH   7   8
DOCKED: ENDBRANCH   1   7
DOCKED: BRANCH   1  13
DOCKED: ATOM     13  C   UNL d   1     -14.002  -1.902   2.233 -0.26 +0.07    +0.073 C 
DOCKED: ATOM     14  O   UNL d   1     -13.912  -1.457   3.431 -0.03 -0.38    -0.547 OA
DOCKED: ATOM     15  O   UNL d   1     -13.537  -3.033   1.842 -0.67 -0.85    -0.547 OA
DOCKED: ENDBRANCH   1  13
DOCKED: TORSDOF 6
DOCKED: TER
DOCKED: ENDMDL
________________________________________________________________________________


	BEGINNING GENETIC ALGORITHM DOCKING 19 of 100
Run: 19 Seed: 2084961095 1639291014 [ Run 19 of 100 GA/GALS ]
Beginning LAMARCKIAN GENETIC ALGORITHM (LGA), with a maximum of 25000000 energy evaluations.

Final-Value: -8.553


	FINAL GENETIC ALGORITHM DOCKED STATE
	_______________________________________________


Detailed state:  trans -15.716 -0.953 1.525 quatxyzw 0.038381 0.632794 -0.527832 0.565236 center 0.015 0.083 0.031 ntor 6 80.4839 -11.6804 -168.4816 166.7693 -42.1083 -87.7913
State:	-15.716  -0.953   1.525   0.047  0.767 -0.640 111.163     80.48  -11.68 -168.48  166.77  -42.11  -87.79

DOCKED: MODEL       19
DOCKED: USER    Run = 19
DOCKED: USER    DPF = D:/Protein_go_brrr/autodock/final/AncMH_nat/2_3_BPG/dock.dpf
DOCKED: USER  
DOCKED: USER    Estimated Free Energy of Binding    =   -9.24 kcal/mol  [=(1)+(2)+(3)-(4)]
DOCKED: USER    Estimated Inhibition Constant, Ki   =  169.35 nM (nanomolar)  [Temperature = 298.15 K]
DOCKED: USER    
DOCKED: USER    (1) Final Intermolecular Energy     =  -11.03 kcal/mol
DOCKED: USER        vdW + Hbond + desolv Energy     =   -3.03 kcal/mol
DOCKED: USER        Electrostatic Energy            =   -8.00 kcal/mol
DOCKED: USER    (2) Final Total Internal Energy     =   +2.47 kcal/mol
DOCKED: USER    (3) Torsional Free Energy           =   +1.79 kcal/mol
DOCKED: USER    (4) Unbound System's Energy  [=(2)] =   +2.47 kcal/mol
DOCKED: USER    
DOCKED: USER    
DOCKED: USER    NEWDPF move 2_3_BPG_opt.pdbqt
DOCKED: USER    NEWDPF about 0.015000 0.083000 0.031000
DOCKED: USER    NEWDPF tran0 -15.715948 -0.953202 1.524819
DOCKED: USER    NEWDPF quaternion0 0.038381 0.632794 -0.527832 0.565236
DOCKED: USER    NEWDPF axisangle0 0.046526 0.767089 -0.639851 111.162606
DOCKED: USER    NEWDPF quat0 0.046526 0.767089 -0.639851 111.162606
DOCKED: USER    NEWDPF dihe0 80.48 -11.68 -168.48 166.77 -42.11 -87.79 
DOCKED: USER  keepresnum = 1 
DOCKED: USER  
DOCKED: REMARK  6 active torsions:
DOCKED: REMARK  status: ('A' for Active; 'I' for Inactive)
DOCKED: REMARK    1  A    between atoms: P_1  and  O_3 
DOCKED: REMARK    2  A    between atoms: P_2  and  O_4 
DOCKED: REMARK    3  A    between atoms: O_3  and  C_13 
DOCKED: REMARK    4  A    between atoms: O_4  and  C_14 
DOCKED: REMARK    5  A    between atoms: C_13  and  C_14 
DOCKED: REMARK    6  A    between atoms: C_13  and  C_15 
DOCKED: USER                              x       y       z     vdW  Elec       q    Type
DOCKED: USER                           _______ _______ _______ _____ _____    ______ ____
DOCKED: ROOT
DOCKED: ATOM      1  C   UNL d   1     -15.405  -1.527   1.370 -0.15 +0.23    +0.193 C 
DOCKED: ENDROOT
DOCKED: BRANCH   1   2
DOCKED: ATOM      2  O   UNL d   1     -14.981  -1.452  -0.033 -0.11 -0.48    -0.356 OA
DOCKED: BRANCH   2   3
DOCKED: ATOM      3  P   UNL d   1     -14.486  -0.058  -0.753 -0.20 -0.02    -0.014 P 
DOCKED: ATOM      4  O   UNL d   1     -13.778  -0.521  -2.036 -0.03 -0.53    -0.577 OA
DOCKED: ATOM      5  O   UNL d   1     -13.517   0.628   0.207 -0.08 -1.08    -0.577 OA
DOCKED: ATOM      6  O   UNL d   1     -15.725   0.775  -1.066 -0.02 -1.24    -0.638 OA
DOCKED: ENDBRANCH   2   3
DOCKED: ENDBRANCH   1   2
DOCKED: BRANCH   1   7
DOCKED: ATOM      7  C   UNL d   1     -15.870  -0.097   1.834 -0.04 +0.33    +0.201 C 
DOCKED: BRANCH   7   8
DOCKED: ATOM      8  O   UNL d   1     -17.123   0.367   1.286 -0.51 -0.65    -0.364 OA
DOCKED: BRANCH   8   9
DOCKED: ATOM      9  P   UNL d   1     -18.180   1.215   2.236 -0.05 -0.03    -0.015 P 
DOCKED: ATOM     10  O   UNL d   1     -17.371   1.612   3.477 -0.22 -1.08    -0.577 OA
DOCKED: ATOM     11  O   UNL d   1     -19.328   0.266   2.582 -0.06 -0.95    -0.577 OA
DOCKED: ATOM     12  O   UNL d   1     -18.633   2.433   1.432 -0.60 -1.35    -0.638 OA
DOCKED: ENDBRANCH   8   9
DOCKED: ENDBRANCH   7   8
DOCKED: ENDBRANCH   1   7
DOCKED: BRANCH   1  13
DOCKED: ATOM     13  C   UNL d   1     -14.201  -1.984   2.274 -0.25 +0.07    +0.073 C 
DOCKED: ATOM     14  O   UNL d   1     -13.981  -1.350   3.365 -0.03 -0.40    -0.547 OA
DOCKED: ATOM     15  O   UNL d   1     -13.544  -3.018   1.890 -0.67 -0.82    -0.547 OA
DOCKED: ENDBRANCH   1  13
DOCKED: TORSDOF 6
DOCKED: TER
DOCKED: ENDMDL
________________________________________________________________________________


	BEGINNING GENETIC ALGORITHM DOCKING 20 of 100
Run: 20 Seed: 161376351 1179760040 [ Run 20 of 100 GA/GALS ]
Beginning LAMARCKIAN GENETIC ALGORITHM (LGA), with a maximum of 25000000 energy evaluations.

Final-Value: -8.752


	FINAL GENETIC ALGORITHM DOCKED STATE
	_______________________________________________


Detailed state:  trans -15.409 -1.039 1.080 quatxyzw 0.209283 -0.928394 0.305727 -0.028555 center 0.015 0.083 0.031 ntor 6 4.6063 -107.0341 -120.9551 8.6187 28.6299 -147.8629
State:	-15.409  -1.039   1.080   0.209 -0.929  0.306 -176.727      4.61 -107.03 -120.96    8.62   28.63 -147.86

DOCKED: MODEL       20
DOCKED: USER    Run = 20
DOCKED: USER    DPF = D:/Protein_go_brrr/autodock/final/AncMH_nat/2_3_BPG/dock.dpf
DOCKED: USER  
DOCKED: USER    Estimated Free Energy of Binding    =   -9.14 kcal/mol  [=(1)+(2)+(3)-(4)]
DOCKED: USER    Estimated Inhibition Constant, Ki   =  201.16 nM (nanomolar)  [Temperature = 298.15 K]
DOCKED: USER    
DOCKED: USER    (1) Final Intermolecular Energy     =  -10.93 kcal/mol
DOCKED: USER        vdW + Hbond + desolv Energy     =   -3.37 kcal/mol
DOCKED: USER        Electrostatic Energy            =   -7.55 kcal/mol
DOCKED: USER    (2) Final Total Internal Energy     =   +2.17 kcal/mol
DOCKED: USER    (3) Torsional Free Energy           =   +1.79 kcal/mol
DOCKED: USER    (4) Unbound System's Energy  [=(2)] =   +2.17 kcal/mol
DOCKED: USER    
DOCKED: USER    
DOCKED: USER    NEWDPF move 2_3_BPG_opt.pdbqt
DOCKED: USER    NEWDPF about 0.015000 0.083000 0.031000
DOCKED: USER    NEWDPF tran0 -15.408923 -1.039059 1.080148
DOCKED: USER    NEWDPF quaternion0 0.209283 -0.928394 0.305727 -0.028555
DOCKED: USER    NEWDPF axisangle0 0.209369 -0.928773 0.305852 -176.727436
DOCKED: USER    NEWDPF quat0 0.209369 -0.928773 0.305852 -176.727436
DOCKED: USER    NEWDPF dihe0 4.61 -107.03 -120.96 8.62 28.63 -147.86 
DOCKED: USER  keepresnum = 1 
DOCKED: USER  
DOCKED: REMARK  6 active torsions:
DOCKED: REMARK  status: ('A' for Active; 'I' for Inactive)
DOCKED: REMARK    1  A    between atoms: P_1  and  O_3 
DOCKED: REMARK    2  A    between atoms: P_2  and  O_4 
DOCKED: REMARK    3  A    between atoms: O_3  and  C_13 
DOCKED: REMARK    4  A    between atoms: O_4  and  C_14 
DOCKED: REMARK    5  A    between atoms: C_13  and  C_14 
DOCKED: REMARK    6  A    between atoms: C_13  and  C_15 
DOCKED: USER                              x       y       z     vdW  Elec       q    Type
DOCKED: USER                           _______ _______ _______ _____ _____    ______ ____
DOCKED: ROOT
DOCKED: ATOM      1  C   UNL d   1     -14.742  -1.102   1.072 -0.18 +0.25    +0.193 C 
DOCKED: ENDROOT
DOCKED: BRANCH   1   2
DOCKED: ATOM      2  O   UNL d   1     -14.157   0.239   0.960 -0.05 -0.69    -0.356 OA
DOCKED: BRANCH   2   3
DOCKED: ATOM      3  P   UNL d   1     -13.120   0.675  -0.239 -0.07 -0.02    -0.014 P 
DOCKED: ATOM      4  O   UNL d   1     -13.985   0.687  -1.509 -0.01 -0.74    -0.577 OA
DOCKED: ATOM      5  O   UNL d   1     -12.034  -0.396  -0.309 -0.02 -0.47    -0.577 OA
DOCKED: ATOM      6  O   UNL d   1     -12.583   2.065   0.085 -0.48 -1.16    -0.638 OA
DOCKED: ENDBRANCH   2   3
DOCKED: ENDBRANCH   1   2
DOCKED: BRANCH   1   7
DOCKED: ATOM      7  C   UNL d   1     -16.277  -0.960   1.384 -0.11 +0.25    +0.201 C 
DOCKED: BRANCH   7   8
DOCKED: ATOM      8  O   UNL d   1     -16.830   0.367   1.236 -0.56 -0.71    -0.364 OA
DOCKED: BRANCH   8   9
DOCKED: ATOM      9  P   UNL d   1     -18.083   0.856   2.200 -0.20 -0.03    -0.015 P 
DOCKED: ATOM     10  O   UNL d   1     -17.534   0.791   3.631 -0.12 -0.88    -0.577 OA
DOCKED: ATOM     11  O   UNL d   1     -19.226  -0.135   1.982 -0.01 -0.72    -0.577 OA
DOCKED: ATOM     12  O   UNL d   1     -18.440   2.283   1.787 -0.62 -1.50    -0.638 OA
DOCKED: ENDBRANCH   8   9
DOCKED: ENDBRANCH   7   8
DOCKED: ENDBRANCH   1   7
DOCKED: BRANCH   1  13
DOCKED: ATOM     13  C   UNL d   1     -14.058  -1.892   2.250 -0.26 +0.07    +0.073 C 
DOCKED: ATOM     14  O   UNL d   1     -14.107  -1.393   3.429 -0.03 -0.39    -0.547 OA
DOCKED: ATOM     15  O   UNL d   1     -13.542  -3.032   1.965 -0.67 -0.80    -0.547 OA
DOCKED: ENDBRANCH   1  13
DOCKED: TORSDOF 6
DOCKED: TER
DOCKED: ENDMDL
________________________________________________________________________________


	BEGINNING GENETIC ALGORITHM DOCKING 21 of 100
Run: 21 Seed: 864120226 1437007402 [ Run 21 of 100 GA/GALS ]
Beginning LAMARCKIAN GENETIC ALGORITHM (LGA), with a maximum of 25000000 energy evaluations.

Final-Value: -8.259


	FINAL GENETIC ALGORITHM DOCKED STATE
	_______________________________________________


Detailed state:  trans -16.162 -0.816 1.604 quatxyzw -0.331195 0.193808 0.110964 0.916753 center 0.015 0.083 0.031 ntor 6 -15.3991 -118.2757 -67.7099 49.2310 -9.8143 138.4896
State:	-16.162  -0.816   1.604  -0.829  0.485  0.278 47.088    -15.40 -118.28  -67.71   49.23   -9.81  138.49

DOCKED: MODEL       21
DOCKED: USER    Run = 21
DOCKED: USER    DPF = D:/Protein_go_brrr/autodock/final/AncMH_nat/2_3_BPG/dock.dpf
DOCKED: USER  
DOCKED: USER    Estimated Free Energy of Binding    =   -8.62 kcal/mol  [=(1)+(2)+(3)-(4)]
DOCKED: USER    Estimated Inhibition Constant, Ki   =  481.96 nM (nanomolar)  [Temperature = 298.15 K]
DOCKED: USER    
DOCKED: USER    (1) Final Intermolecular Energy     =  -10.41 kcal/mol
DOCKED: USER        vdW + Hbond + desolv Energy     =   -2.74 kcal/mol
DOCKED: USER        Electrostatic Energy            =   -7.67 kcal/mol
DOCKED: USER    (2) Final Total Internal Energy     =   +2.15 kcal/mol
DOCKED: USER    (3) Torsional Free Energy           =   +1.79 kcal/mol
DOCKED: USER    (4) Unbound System's Energy  [=(2)] =   +2.15 kcal/mol
DOCKED: USER    
DOCKED: USER    
DOCKED: USER    NEWDPF move 2_3_BPG_opt.pdbqt
DOCKED: USER    NEWDPF about 0.015000 0.083000 0.031000
DOCKED: USER    NEWDPF tran0 -16.162252 -0.815584 1.603845
DOCKED: USER    NEWDPF quaternion0 -0.331195 0.193808 0.110964 0.916753
DOCKED: USER    NEWDPF axisangle0 -0.829116 0.485181 0.277788 47.088237
DOCKED: USER    NEWDPF quat0 -0.829116 0.485181 0.277788 47.088237
DOCKED: USER    NEWDPF dihe0 -15.40 -118.28 -67.71 49.23 -9.81 138.49 
DOCKED: USER  keepresnum = 1 
DOCKED: USER  
DOCKED: REMARK  6 active torsions:
DOCKED: REMARK  status: ('A' for Active; 'I' for Inactive)
DOCKED: REMARK    1  A    between atoms: P_1  and  O_3 
DOCKED: REMARK    2  A    between atoms: P_2  and  O_4 
DOCKED: REMARK    3  A    between atoms: O_3  and  C_13 
DOCKED: REMARK    4  A    between atoms: O_4  and  C_14 
DOCKED: REMARK    5  A    between atoms: C_13  and  C_14 
DOCKED: REMARK    6  A    between atoms: C_13  and  C_15 
DOCKED: USER                              x       y       z     vdW  Elec       q    Type
DOCKED: USER                           _______ _______ _______ _____ _____    ______ ____
DOCKED: ROOT
DOCKED: ATOM      1  C   UNL d   1     -16.753  -0.909   1.301 -0.09 +0.23    +0.193 C 
DOCKED: ENDROOT
DOCKED: BRANCH   1   2
DOCKED: ATOM      2  O   UNL d   1     -17.363   0.405   1.071 -0.51 -0.61    -0.356 OA
DOCKED: BRANCH   2   3
DOCKED: ATOM      3  P   UNL d   1     -18.220   1.216   2.216 -0.06 -0.03    -0.014 P 
DOCKED: ATOM      4  O   UNL d   1     -17.240   1.369   3.391 -0.14 -1.02    -0.577 OA
DOCKED: ATOM      5  O   UNL d   1     -19.415   0.342   2.591 -0.06 -1.00    -0.577 OA
DOCKED: ATOM      6  O   UNL d   1     -18.615   2.571   1.637 -0.59 -1.48    -0.638 OA
DOCKED: ENDBRANCH   2   3
DOCKED: ENDBRANCH   1   2
DOCKED: BRANCH   1   7
DOCKED: ATOM      7  C   UNL d   1     -15.256  -0.702   1.738 -0.15 +0.27    +0.201 C 
DOCKED: BRANCH   7   8
DOCKED: ATOM      8  O   UNL d   1     -14.400  -0.057   0.769 -0.18 -0.65    -0.364 OA
DOCKED: BRANCH   8   9
DOCKED: ATOM      9  P   UNL d   1     -12.854   0.365   1.178 -0.32 -0.02    -0.015 P 
DOCKED: ATOM     10  O   UNL d   1     -11.955  -0.512   0.298 -0.03 -0.46    -0.577 OA
DOCKED: ATOM     11  O   UNL d   1     -12.683   0.046   2.664 -0.03 -0.46    -0.577 OA
DOCKED: ATOM     12  O   UNL d   1     -12.692   1.851   0.863 -0.42 -1.27    -0.638 OA
DOCKED: ENDBRANCH   8   9
DOCKED: ENDBRANCH   7   8
DOCKED: ENDBRANCH   1   7
DOCKED: BRANCH   1  13
DOCKED: ATOM     13  C   UNL d   1     -16.779  -1.757  -0.025 -0.12 +0.08    +0.073 C 
DOCKED: ATOM     14  O   UNL d   1     -16.561  -1.158  -1.137 -0.04 -0.58    -0.547 OA
DOCKED: ATOM     15  O   UNL d   1     -16.956  -3.022   0.095 +0.02 -0.70    -0.547 OA
DOCKED: ENDBRANCH   1  13
DOCKED: TORSDOF 6
DOCKED: TER
DOCKED: ENDMDL
________________________________________________________________________________


	BEGINNING GENETIC ALGORITHM DOCKING 22 of 100
Run: 22 Seed: 188562819 1911301658 [ Run 22 of 100 GA/GALS ]
Beginning LAMARCKIAN GENETIC ALGORITHM (LGA), with a maximum of 25000000 energy evaluations.

Final-Value: -8.893


	FINAL GENETIC ALGORITHM DOCKED STATE
	_______________________________________________


Detailed state:  trans -15.253 -0.637 1.819 quatxyzw -0.202130 0.973813 -0.059527 -0.085370 center 0.015 0.083 0.031 ntor 6 174.4853 107.6165 -154.6027 -7.0654 32.9069 -96.6202
State:	-15.253  -0.637   1.819  -0.203  0.977 -0.060 -170.205    174.49  107.62 -154.60   -7.07   32.91  -96.62

DOCKED: MODEL       22
DOCKED: USER    Run = 22
DOCKED: USER    DPF = D:/Protein_go_brrr/autodock/final/AncMH_nat/2_3_BPG/dock.dpf
DOCKED: USER  
DOCKED: USER    Estimated Free Energy of Binding    =   -9.28 kcal/mol  [=(1)+(2)+(3)-(4)]
DOCKED: USER    Estimated Inhibition Constant, Ki   =  157.15 nM (nanomolar)  [Temperature = 298.15 K]
DOCKED: USER    
DOCKED: USER    (1) Final Intermolecular Energy     =  -11.07 kcal/mol
DOCKED: USER        vdW + Hbond + desolv Energy     =   -3.91 kcal/mol
DOCKED: USER        Electrostatic Energy            =   -7.16 kcal/mol
DOCKED: USER    (2) Final Total Internal Energy     =   +2.18 kcal/mol
DOCKED: USER    (3) Torsional Free Energy           =   +1.79 kcal/mol
DOCKED: USER    (4) Unbound System's Energy  [=(2)] =   +2.18 kcal/mol
DOCKED: USER    
DOCKED: USER    
DOCKED: USER    NEWDPF move 2_3_BPG_opt.pdbqt
DOCKED: USER    NEWDPF about 0.015000 0.083000 0.031000
DOCKED: USER    NEWDPF tran0 -15.253336 -0.637010 1.819117
DOCKED: USER    NEWDPF quaternion0 -0.202130 0.973813 -0.059527 -0.085370
DOCKED: USER    NEWDPF axisangle0 -0.202871 0.977381 -0.059745 -170.205409
DOCKED: USER    NEWDPF quat0 -0.202871 0.977381 -0.059745 -170.205409
DOCKED: USER    NEWDPF dihe0 174.49 107.62 -154.60 -7.07 32.91 -96.62 
DOCKED: USER  keepresnum = 1 
DOCKED: USER  
DOCKED: REMARK  6 active torsions:
DOCKED: REMARK  status: ('A' for Active; 'I' for Inactive)
DOCKED: REMARK    1  A    between atoms: P_1  and  O_3 
DOCKED: REMARK    2  A    between atoms: P_2  and  O_4 
DOCKED: REMARK    3  A    between atoms: O_3  and  C_13 
DOCKED: REMARK    4  A    between atoms: O_4  and  C_14 
DOCKED: REMARK    5  A    between atoms: C_13  and  C_14 
DOCKED: REMARK    6  A    between atoms: C_13  and  C_15 
DOCKED: USER                              x       y       z     vdW  Elec       q    Type
DOCKED: USER                           _______ _______ _______ _____ _____    ______ ____
DOCKED: ROOT
DOCKED: ATOM      1  C   UNL d   1     -14.586  -0.692   1.858 -0.19 +0.24    +0.193 C 
DOCKED: ENDROOT
DOCKED: BRANCH   1   2
DOCKED: ATOM      2  O   UNL d   1     -14.066   0.511   2.517 -0.20 -0.51    -0.356 OA
DOCKED: BRANCH   2   3
DOCKED: ATOM      3  P   UNL d   1     -12.694   1.281   2.037 -0.30 -0.02    -0.014 P 
DOCKED: ATOM      4  O   UNL d   1     -11.554   0.398   2.568 -0.01 -0.33    -0.577 OA
DOCKED: ATOM      5  O   UNL d   1     -12.693   2.658   2.698 -0.25 -0.69    -0.577 OA
DOCKED: ATOM      6  O   UNL d   1     -12.695   1.339   0.513 -0.43 -1.08    -0.638 OA
DOCKED: ENDBRANCH   2   3
DOCKED: ENDBRANCH   1   2
DOCKED: BRANCH   1   7
DOCKED: ATOM      7  C   UNL d   1     -16.151  -0.718   2.017 -0.12 +0.25    +0.201 C 
DOCKED: BRANCH   7   8
DOCKED: ATOM      8  O   UNL d   1     -16.866   0.371   1.392 -0.54 -0.70    -0.364 OA
DOCKED: BRANCH   8   9
DOCKED: ATOM      9  P   UNL d   1     -18.215   1.001   2.114 -0.15 -0.03    -0.015 P 
DOCKED: ATOM     10  O   UNL d   1     -18.019   0.749   3.614 -0.12 -0.97    -0.577 OA
DOCKED: ATOM     11  O   UNL d   1     -19.416   0.235   1.559 -0.03 -0.75    -0.577 OA
DOCKED: ATOM     12  O   UNL d   1     -18.251   2.491   1.782 -0.61 -1.49    -0.638 OA
DOCKED: ENDBRANCH   8   9
DOCKED: ENDBRANCH   7   8
DOCKED: ENDBRANCH   1   7
DOCKED: BRANCH   1  13
DOCKED: ATOM     13  C   UNL d   1     -13.989  -1.980   2.539 -0.26 +0.07    +0.073 C 
DOCKED: ATOM     14  O   UNL d   1     -13.501  -2.897   1.789 -0.67 -0.81    -0.547 OA
DOCKED: ATOM     15  O   UNL d   1     -13.972  -2.006   3.822 -0.03 -0.34    -0.547 OA
DOCKED: ENDBRANCH   1  13
DOCKED: TORSDOF 6
DOCKED: TER
DOCKED: ENDMDL
________________________________________________________________________________


	BEGINNING GENETIC ALGORITHM DOCKING 23 of 100
Run: 23 Seed: 1299173052 928028904 [ Run 23 of 100 GA/GALS ]
Beginning LAMARCKIAN GENETIC ALGORITHM (LGA), with a maximum of 25000000 energy evaluations.

Final-Value: -7.907


	FINAL GENETIC ALGORITHM DOCKED STATE
	_______________________________________________


Detailed state:  trans -18.264 -0.372 2.644 quatxyzw -0.133510 -0.147479 -0.979417 -0.034163 center 0.015 0.083 0.031 ntor 6 151.5927 -29.9159 -130.2031 -36.3194 38.7579 54.5335
State:	-18.264  -0.372   2.644  -0.134 -0.148 -0.980 -176.084    151.59  -29.92 -130.20  -36.32   38.76   54.53

DOCKED: MODEL       23
DOCKED: USER    Run = 23
DOCKED: USER    DPF = D:/Protein_go_brrr/autodock/final/AncMH_nat/2_3_BPG/dock.dpf
DOCKED: USER  
DOCKED: USER    Estimated Free Energy of Binding    =   -8.60 kcal/mol  [=(1)+(2)+(3)-(4)]
DOCKED: USER    Estimated Inhibition Constant, Ki   =  496.32 nM (nanomolar)  [Temperature = 298.15 K]
DOCKED: USER    
DOCKED: USER    (1) Final Intermolecular Energy     =  -10.39 kcal/mol
DOCKED: USER        vdW + Hbond + desolv Energy     =   -2.48 kcal/mol
DOCKED: USER        Electrostatic Energy            =   -7.91 kcal/mol
DOCKED: USER    (2) Final Total Internal Energy     =   +2.48 kcal/mol
DOCKED: USER    (3) Torsional Free Energy           =   +1.79 kcal/mol
DOCKED: USER    (4) Unbound System's Energy  [=(2)] =   +2.48 kcal/mol
DOCKED: USER    
DOCKED: USER    
DOCKED: USER    NEWDPF move 2_3_BPG_opt.pdbqt
DOCKED: USER    NEWDPF about 0.015000 0.083000 0.031000
DOCKED: USER    NEWDPF tran0 -18.263519 -0.371977 2.643912
DOCKED: USER    NEWDPF quaternion0 -0.133510 -0.147479 -0.979417 -0.034163
DOCKED: USER    NEWDPF axisangle0 -0.133588 -0.147565 -0.979989 -176.084428
DOCKED: USER    NEWDPF quat0 -0.133588 -0.147565 -0.979989 -176.084428
DOCKED: USER    NEWDPF dihe0 151.59 -29.92 -130.20 -36.32 38.76 54.53 
DOCKED: USER  keepresnum = 1 
DOCKED: USER  
DOCKED: REMARK  6 active torsions:
DOCKED: REMARK  status: ('A' for Active; 'I' for Inactive)
DOCKED: REMARK    1  A    between atoms: P_1  and  O_3 
DOCKED: REMARK    2  A    between atoms: P_2  and  O_4 
DOCKED: REMARK    3  A    between atoms: O_3  and  C_13 
DOCKED: REMARK    4  A    between atoms: O_4  and  C_14 
DOCKED: REMARK    5  A    between atoms: C_13  and  C_14 
DOCKED: REMARK    6  A    between atoms: C_13  and  C_15 
DOCKED: USER                              x       y       z     vdW  Elec       q    Type
DOCKED: USER                           _______ _______ _______ _____ _____    ______ ____
DOCKED: ROOT
DOCKED: ATOM      1  C   UNL d   1     -17.710  -0.030   2.483 -0.14 +0.25    +0.193 C 
DOCKED: ENDROOT
DOCKED: BRANCH   1   2
DOCKED: ATOM      2  O   UNL d   1     -16.776  -0.955   1.829 -0.07 -0.41    -0.356 OA
DOCKED: BRANCH   2   3
DOCKED: ATOM      3  P   UNL d   1     -15.204  -0.583   1.523 -0.24 -0.02    -0.014 P 
DOCKED: ATOM      4  O   UNL d   1     -14.457  -1.917   1.686 -0.08 -0.67    -0.577 OA
DOCKED: ATOM      5  O   UNL d   1     -14.767   0.437   2.573 -0.08 -0.91    -0.577 OA
DOCKED: ATOM      6  O   UNL d   1     -15.112  -0.062   0.093 -0.24 -1.22    -0.638 OA
DOCKED: ENDBRANCH   2   3
DOCKED: ENDBRANCH   1   2
DOCKED: BRANCH   1   7
DOCKED: ATOM      7  C   UNL d   1     -19.113  -0.731   2.603 -0.05 +0.21    +0.201 C 
DOCKED: BRANCH   7   8
DOCKED: ATOM      8  O   UNL d   1     -20.263   0.135   2.482 -0.09 -0.57    -0.364 OA
DOCKED: BRANCH   8   9
DOCKED: ATOM      9  P   UNL d   1     -21.560  -0.061   3.489 +0.19 -0.02    -0.015 P 
DOCKED: ATOM     10  O   UNL d   1     -20.970  -0.061   4.904 -0.31 -0.81    -0.577 OA
DOCKED: ATOM     11  O   UNL d   1     -22.198  -1.405   3.137 +0.00 -0.35    -0.577 OA
DOCKED: ATOM     12  O   UNL d   1     -22.495   1.125   3.257 -0.39 -1.07    -0.638 OA
DOCKED: ENDBRANCH   8   9
DOCKED: ENDBRANCH   7   8
DOCKED: ENDBRANCH   1   7
DOCKED: BRANCH   1  13
DOCKED: ATOM     13  C   UNL d   1     -17.870   1.276   1.619 -0.08 +0.14    +0.073 C 
DOCKED: ATOM     14  O   UNL d   1     -18.218   2.359   2.207 -0.61 -1.41    -0.547 OA
DOCKED: ATOM     15  O   UNL d   1     -17.579   1.188   0.372 -0.29 -1.07    -0.547 OA
DOCKED: ENDBRANCH   1  13
DOCKED: TORSDOF 6
DOCKED: TER
DOCKED: ENDMDL
________________________________________________________________________________


	BEGINNING GENETIC ALGORITHM DOCKING 24 of 100
Run: 24 Seed: 798351086 1052708642 [ Run 24 of 100 GA/GALS ]
Beginning LAMARCKIAN GENETIC ALGORITHM (LGA), with a maximum of 25000000 energy evaluations.

Final-Value: -8.259


	FINAL GENETIC ALGORITHM DOCKED STATE
	_______________________________________________


Detailed state:  trans -18.028 -0.408 1.895 quatxyzw -0.898692 0.147720 0.307213 0.275956 center 0.015 0.083 0.031 ntor 6 -47.4314 -3.6732 -117.0956 27.3375 44.5339 101.6690
State:	-18.028  -0.408   1.895  -0.935  0.154  0.320 147.962    -47.43   -3.67 -117.10   27.34   44.53  101.67

DOCKED: MODEL       24
DOCKED: USER    Run = 24
DOCKED: USER    DPF = D:/Protein_go_brrr/autodock/final/AncMH_nat/2_3_BPG/dock.dpf
DOCKED: USER  
DOCKED: USER    Estimated Free Energy of Binding    =   -8.74 kcal/mol  [=(1)+(2)+(3)-(4)]
DOCKED: USER    Estimated Inhibition Constant, Ki   =  395.29 nM (nanomolar)  [Temperature = 298.15 K]
DOCKED: USER    
DOCKED: USER    (1) Final Intermolecular Energy     =  -10.53 kcal/mol
DOCKED: USER        vdW + Hbond + desolv Energy     =   -2.58 kcal/mol
DOCKED: USER        Electrostatic Energy            =   -7.94 kcal/mol
DOCKED: USER    (2) Final Total Internal Energy     =   +2.27 kcal/mol
DOCKED: USER    (3) Torsional Free Energy           =   +1.79 kcal/mol
DOCKED: USER    (4) Unbound System's Energy  [=(2)] =   +2.27 kcal/mol
DOCKED: USER    
DOCKED: USER    
DOCKED: USER    NEWDPF move 2_3_BPG_opt.pdbqt
DOCKED: USER    NEWDPF about 0.015000 0.083000 0.031000
DOCKED: USER    NEWDPF tran0 -18.028060 -0.408171 1.894690
DOCKED: USER    NEWDPF quaternion0 -0.898692 0.147720 0.307213 0.275956
DOCKED: USER    NEWDPF axisangle0 -0.934998 0.153688 0.319624 147.962072
DOCKED: USER    NEWDPF quat0 -0.934998 0.153688 0.319624 147.962072
DOCKED: USER    NEWDPF dihe0 -47.43 -3.67 -117.10 27.34 44.53 101.67 
DOCKED: USER  keepresnum = 1 
DOCKED: USER  
DOCKED: REMARK  6 active torsions:
DOCKED: REMARK  status: ('A' for Active; 'I' for Inactive)
DOCKED: REMARK    1  A    between atoms: P_1  and  O_3 
DOCKED: REMARK    2  A    between atoms: P_2  and  O_4 
DOCKED: REMARK    3  A    between atoms: O_3  and  C_13 
DOCKED: REMARK    4  A    between atoms: O_4  and  C_14 
DOCKED: REMARK    5  A    between atoms: C_13  and  C_14 
DOCKED: REMARK    6  A    between atoms: C_13  and  C_15 
DOCKED: USER                              x       y       z     vdW  Elec       q    Type
DOCKED: USER                           _______ _______ _______ _____ _____    ______ ____
DOCKED: ROOT
DOCKED: ATOM      1  C   UNL d   1     -18.507   0.060   1.926 -0.09 +0.26    +0.193 C 
DOCKED: ENDROOT
DOCKED: BRANCH   1   2
DOCKED: ATOM      2  O   UNL d   1     -18.982   0.136   3.312 -0.08 -0.57    -0.356 OA
DOCKED: BRANCH   2   3
DOCKED: ATOM      3  P   UNL d   1     -20.422  -0.484   3.808 -0.04 -0.02    -0.014 P 
DOCKED: ATOM      4  O   UNL d   1     -20.392  -0.346   5.338 -0.06 -0.64    -0.577 OA
DOCKED: ATOM      5  O   UNL d   1     -20.458  -1.948   3.376 +0.03 -0.38    -0.577 OA
DOCKED: ATOM      6  O   UNL d   1     -21.535   0.359   3.192 -0.42 -1.15    -0.638 OA
DOCKED: ENDBRANCH   2   3
DOCKED: ENDBRANCH   1   2
DOCKED: BRANCH   1   7
DOCKED: ATOM      7  C   UNL d   1     -17.198  -0.812   1.888 -0.08 +0.23    +0.201 C 
DOCKED: BRANCH   7   8
DOCKED: ATOM      8  O   UNL d   1     -15.953  -0.079   1.860 -0.39 -0.60    -0.364 OA
DOCKED: BRANCH   8   9
DOCKED: ATOM      9  P   UNL d   1     -14.776  -0.485   0.771 -0.22 -0.02    -0.015 P 
DOCKED: ATOM     10  O   UNL d   1     -15.382  -0.177  -0.604 -0.21 -0.91    -0.577 OA
DOCKED: ATOM     11  O   UNL d   1     -14.497  -1.977   0.951 -0.04 -0.78    -0.577 OA
DOCKED: ATOM     12  O   UNL d   1     -13.561   0.392   1.072 -0.07 -1.08    -0.638 OA
DOCKED: ENDBRANCH   8   9
DOCKED: ENDBRANCH   7   8
DOCKED: ENDBRANCH   1   7
DOCKED: BRANCH   1  13
DOCKED: ATOM     13  C   UNL d   1     -18.168   1.502   1.392 -0.12 +0.14    +0.073 C 
DOCKED: ATOM     14  O   UNL d   1     -18.219   2.485   2.212 -0.60 -1.43    -0.547 OA
DOCKED: ATOM     15  O   UNL d   1     -17.796   1.597   0.167 -0.19 -1.00    -0.547 OA
DOCKED: ENDBRANCH   1  13
DOCKED: TORSDOF 6
DOCKED: TER
DOCKED: ENDMDL
________________________________________________________________________________


	BEGINNING GENETIC ALGORITHM DOCKING 25 of 100
Run: 25 Seed: 1853023798 1422160250 [ Run 25 of 100 GA/GALS ]
Beginning LAMARCKIAN GENETIC ALGORITHM (LGA), with a maximum of 25000000 energy evaluations.

Final-Value: -8.974


	FINAL GENETIC ALGORITHM DOCKED STATE
	_______________________________________________


Detailed state:  trans -15.067 -0.545 1.741 quatxyzw 0.031540 0.973888 -0.118132 0.191289 center 0.015 0.083 0.031 ntor 6 73.5735 -176.3256 -161.9522 31.2256 -5.7925 -51.9806
State:	-15.067  -0.545   1.741   0.032  0.992 -0.120 157.944     73.57 -176.33 -161.95   31.23   -5.79  -51.98

DOCKED: MODEL       25
DOCKED: USER    Run = 25
DOCKED: USER    DPF = D:/Protein_go_brrr/autodock/final/AncMH_nat/2_3_BPG/dock.dpf
DOCKED: USER  
DOCKED: USER    Estimated Free Energy of Binding    =   -9.21 kcal/mol  [=(1)+(2)+(3)-(4)]
DOCKED: USER    Estimated Inhibition Constant, Ki   =  178.16 nM (nanomolar)  [Temperature = 298.15 K]
DOCKED: USER    
DOCKED: USER    (1) Final Intermolecular Energy     =  -11.00 kcal/mol
DOCKED: USER        vdW + Hbond + desolv Energy     =   -3.40 kcal/mol
DOCKED: USER        Electrostatic Energy            =   -7.60 kcal/mol
DOCKED: USER    (2) Final Total Internal Energy     =   +2.02 kcal/mol
DOCKED: USER    (3) Torsional Free Energy           =   +1.79 kcal/mol
DOCKED: USER    (4) Unbound System's Energy  [=(2)] =   +2.02 kcal/mol
DOCKED: USER    
DOCKED: USER    
DOCKED: USER    NEWDPF move 2_3_BPG_opt.pdbqt
DOCKED: USER    NEWDPF about 0.015000 0.083000 0.031000
DOCKED: USER    NEWDPF tran0 -15.067237 -0.544645 1.740973
DOCKED: USER    NEWDPF quaternion0 0.031540 0.973888 -0.118132 0.191289
DOCKED: USER    NEWDPF axisangle0 0.032133 0.992211 -0.120355 157.943915
DOCKED: USER    NEWDPF quat0 0.032133 0.992211 -0.120355 157.943915
DOCKED: USER    NEWDPF dihe0 73.57 -176.33 -161.95 31.23 -5.79 -51.98 
DOCKED: USER  keepresnum = 1 
DOCKED: USER  
DOCKED: REMARK  6 active torsions:
DOCKED: REMARK  status: ('A' for Active; 'I' for Inactive)
DOCKED: REMARK    1  A    between atoms: P_1  and  O_3 
DOCKED: REMARK    2  A    between atoms: P_2  and  O_4 
DOCKED: REMARK    3  A    between atoms: O_3  and  C_13 
DOCKED: REMARK    4  A    between atoms: O_4  and  C_14 
DOCKED: REMARK    5  A    between atoms: C_13  and  C_14 
DOCKED: REMARK    6  A    between atoms: C_13  and  C_15 
DOCKED: USER                              x       y       z     vdW  Elec       q    Type
DOCKED: USER                           _______ _______ _______ _____ _____    ______ ____
DOCKED: ROOT
DOCKED: ATOM      1  C   UNL d   1     -14.566  -0.930   1.519 -0.19 +0.24    +0.193 C 
DOCKED: ENDROOT
DOCKED: BRANCH   1   2
DOCKED: ATOM      2  O   UNL d   1     -13.337  -0.128   1.520 -0.14 -0.43    -0.356 OA
DOCKED: BRANCH   2   3
DOCKED: ATOM      3  P   UNL d   1     -12.702   0.553   0.165 -0.27 -0.02    -0.014 P 
DOCKED: ATOM      4  O   UNL d   1     -13.662   0.134  -0.960 -0.04 -0.73    -0.577 OA
DOCKED: ATOM      5  O   UNL d   1     -11.310  -0.046  -0.032 -0.03 -0.36    -0.577 OA
DOCKED: ATOM      6  O   UNL d   1     -12.691   2.065   0.357 -0.39 -1.32    -0.638 OA
DOCKED: ENDBRANCH   2   3
DOCKED: ENDBRANCH   1   2
DOCKED: BRANCH   1   7
DOCKED: ATOM      7  C   UNL d   1     -15.682  -0.146   2.302 -0.12 +0.29    +0.201 C 
DOCKED: BRANCH   7   8
DOCKED: ATOM      8  O   UNL d   1     -16.737   0.423   1.496 -0.46 -0.73    -0.364 OA
DOCKED: BRANCH   8   9
DOCKED: ATOM      9  P   UNL d   1     -18.000   1.211   2.217 -0.11 -0.03    -0.015 P 
DOCKED: ATOM     10  O   UNL d   1     -17.487   1.593   3.611 -0.16 -1.09    -0.577 OA
DOCKED: ATOM     11  O   UNL d   1     -19.162   0.221   2.288 -0.07 -0.87    -0.577 OA
DOCKED: ATOM     12  O   UNL d   1     -18.312   2.440   1.364 -0.51 -1.33    -0.638 OA
DOCKED: ENDBRANCH   8   9
DOCKED: ENDBRANCH   7   8
DOCKED: ENDBRANCH   1   7
DOCKED: BRANCH   1  13
DOCKED: ATOM     13  C   UNL d   1     -14.313  -2.305   2.243 -0.19 +0.08    +0.073 C 
DOCKED: ATOM     14  O   UNL d   1     -15.103  -2.651   3.190 -0.00 -0.45    -0.547 OA
DOCKED: ATOM     15  O   UNL d   1     -13.357  -3.033   1.792 -0.71 -0.85    -0.547 OA
DOCKED: ENDBRANCH   1  13
DOCKED: TORSDOF 6
DOCKED: TER
DOCKED: ENDMDL
________________________________________________________________________________


	BEGINNING GENETIC ALGORITHM DOCKING 26 of 100
Run: 26 Seed: 230178561 755695240 [ Run 26 of 100 GA/GALS ]
Beginning LAMARCKIAN GENETIC ALGORITHM (LGA), with a maximum of 25000000 energy evaluations.

Final-Value: -8.101


	FINAL GENETIC ALGORITHM DOCKED STATE
	_______________________________________________


Detailed state:  trans -16.772 0.280 3.097 quatxyzw -0.530493 -0.044107 -0.293863 -0.793899 center 0.015 0.083 0.031 ntor 6 98.0091 -166.3056 -127.4581 7.0809 59.5414 -79.6889
State:	-16.772   0.280   3.097  -0.872 -0.073 -0.483 -74.897     98.01 -166.31 -127.46    7.08   59.54  -79.69

DOCKED: MODEL       26
DOCKED: USER    Run = 26
DOCKED: USER    DPF = D:/Protein_go_brrr/autodock/final/AncMH_nat/2_3_BPG/dock.dpf
DOCKED: USER  
DOCKED: USER    Estimated Free Energy of Binding    =   -8.84 kcal/mol  [=(1)+(2)+(3)-(4)]
DOCKED: USER    Estimated Inhibition Constant, Ki   =  332.67 nM (nanomolar)  [Temperature = 298.15 K]
DOCKED: USER    
DOCKED: USER    (1) Final Intermolecular Energy     =  -10.63 kcal/mol
DOCKED: USER        vdW + Hbond + desolv Energy     =   -2.31 kcal/mol
DOCKED: USER        Electrostatic Energy            =   -8.32 kcal/mol
DOCKED: USER    (2) Final Total Internal Energy     =   +2.53 kcal/mol
DOCKED: USER    (3) Torsional Free Energy           =   +1.79 kcal/mol
DOCKED: USER    (4) Unbound System's Energy  [=(2)] =   +2.53 kcal/mol
DOCKED: USER    
DOCKED: USER    
DOCKED: USER    NEWDPF move 2_3_BPG_opt.pdbqt
DOCKED: USER    NEWDPF about 0.015000 0.083000 0.031000
DOCKED: USER    NEWDPF tran0 -16.772321 0.279587 3.096954
DOCKED: USER    NEWDPF quaternion0 -0.530493 -0.044107 -0.293863 -0.793899
DOCKED: USER    NEWDPF axisangle0 -0.872451 -0.072539 -0.483288 -74.897181
DOCKED: USER    NEWDPF quat0 -0.872451 -0.072539 -0.483288 -74.897181
DOCKED: USER    NEWDPF dihe0 98.01 -166.31 -127.46 7.08 59.54 -79.69 
DOCKED: USER  keepresnum = 1 
DOCKED: USER  
DOCKED: REMARK  6 active torsions:
DOCKED: REMARK  status: ('A' for Active; 'I' for Inactive)
DOCKED: REMARK    1  A    between atoms: P_1  and  O_3 
DOCKED: REMARK    2  A    between atoms: P_2  and  O_4 
DOCKED: REMARK    3  A    between atoms: O_3  and  C_13 
DOCKED: REMARK    4  A    between atoms: O_4  and  C_14 
DOCKED: REMARK    5  A    between atoms: C_13  and  C_14 
DOCKED: REMARK    6  A    between atoms: C_13  and  C_15 
DOCKED: USER                              x       y       z     vdW  Elec       q    Type
DOCKED: USER                           _______ _______ _______ _____ _____    ______ ____
DOCKED: ROOT
DOCKED: ATOM      1  C   UNL d   1     -17.393   0.524   3.168 -0.18 +0.28    +0.193 C 
DOCKED: ENDROOT
DOCKED: BRANCH   1   2
DOCKED: ATOM      2  O   UNL d   1     -18.003   0.617   1.837 -0.21 -0.57    -0.356 OA
DOCKED: BRANCH   2   3
DOCKED: ATOM      3  P   UNL d   1     -18.645   2.006   1.234 -0.08 -0.03    -0.014 P 
DOCKED: ATOM      4  O   UNL d   1     -18.218   3.092   2.235 -0.43 -1.45    -0.577 OA
DOCKED: ATOM      5  O   UNL d   1     -20.161   1.830   1.208 -0.12 -0.99    -0.577 OA
DOCKED: ATOM      6  O   UNL d   1     -18.037   2.246  -0.144 -0.03 -1.04    -0.638 OA
DOCKED: ENDBRANCH   2   3
DOCKED: ENDBRANCH   1   2
DOCKED: BRANCH   1   7
DOCKED: ATOM      7  C   UNL d   1     -16.063  -0.310   3.057 -0.12 +0.23    +0.201 C 
DOCKED: BRANCH   7   8
DOCKED: ATOM      8  O   UNL d   1     -14.910   0.405   2.561 -0.18 -0.58    -0.364 OA
DOCKED: BRANCH   8   9
DOCKED: ATOM      9  P   UNL d   1     -14.191  -0.060   1.146 -0.11 -0.02    -0.015 P 
DOCKED: ATOM     10  O   UNL d   1     -15.317  -0.055   0.105 -0.31 -1.12    -0.577 OA
DOCKED: ATOM     11  O   UNL d   1     -13.628  -1.463   1.371 -0.10 -0.64    -0.577 OA
DOCKED: ATOM     12  O   UNL d   1     -13.111   0.973   0.827 -0.22 -1.20    -0.638 OA
DOCKED: ENDBRANCH   8   9
DOCKED: ENDBRANCH   7   8
DOCKED: ENDBRANCH   1   7
DOCKED: BRANCH   1  13
DOCKED: ATOM     13  C   UNL d   1     -18.369  -0.214   4.159 -0.15 +0.09    +0.073 C 
DOCKED: ATOM     14  O   UNL d   1     -17.866  -0.866   5.140 -0.02 -0.41    -0.547 OA
DOCKED: ATOM     15  O   UNL d   1     -19.628  -0.062   3.957 -0.05 -0.86    -0.547 OA
DOCKED: ENDBRANCH   1  13
DOCKED: TORSDOF 6
DOCKED: TER
DOCKED: ENDMDL
________________________________________________________________________________


	BEGINNING GENETIC ALGORITHM DOCKING 27 of 100
Run: 27 Seed: 1701836757 30727882 [ Run 27 of 100 GA/GALS ]
Beginning LAMARCKIAN GENETIC ALGORITHM (LGA), with a maximum of 25000000 energy evaluations.

Final-Value: -7.914


	FINAL GENETIC ALGORITHM DOCKED STATE
	_______________________________________________


Detailed state:  trans -18.326 -0.283 2.548 quatxyzw 0.173735 0.123292 0.976846 0.019678 center 0.015 0.083 0.031 ntor 6 149.7184 -155.2916 -6.2595 -31.4831 -32.3316 -0.6536
State:	-18.326  -0.283   2.548   0.174  0.123  0.977 177.745    149.72 -155.29   -6.26  -31.48  -32.33   -0.65

DOCKED: MODEL       27
DOCKED: USER    Run = 27
DOCKED: USER    DPF = D:/Protein_go_brrr/autodock/final/AncMH_nat/2_3_BPG/dock.dpf
DOCKED: USER  
DOCKED: USER    Estimated Free Energy of Binding    =   -8.47 kcal/mol  [=(1)+(2)+(3)-(4)]
DOCKED: USER    Estimated Inhibition Constant, Ki   =  617.20 nM (nanomolar)  [Temperature = 298.15 K]
DOCKED: USER    
DOCKED: USER    (1) Final Intermolecular Energy     =  -10.26 kcal/mol
DOCKED: USER        vdW + Hbond + desolv Energy     =   -2.46 kcal/mol
DOCKED: USER        Electrostatic Energy            =   -7.80 kcal/mol
DOCKED: USER    (2) Final Total Internal Energy     =   +2.35 kcal/mol
DOCKED: USER    (3) Torsional Free Energy           =   +1.79 kcal/mol
DOCKED: USER    (4) Unbound System's Energy  [=(2)] =   +2.35 kcal/mol
DOCKED: USER    
DOCKED: USER    
DOCKED: USER    NEWDPF move 2_3_BPG_opt.pdbqt
DOCKED: USER    NEWDPF about 0.015000 0.083000 0.031000
DOCKED: USER    NEWDPF tran0 -18.325771 -0.282834 2.548203
DOCKED: USER    NEWDPF quaternion0 0.173735 0.123292 0.976846 0.019678
DOCKED: USER    NEWDPF axisangle0 0.173769 0.123316 0.977035 177.744967
DOCKED: USER    NEWDPF quat0 0.173769 0.123316 0.977035 177.744967
DOCKED: USER    NEWDPF dihe0 149.72 -155.29 -6.26 -31.48 -32.33 -0.65 
DOCKED: USER  keepresnum = 1 
DOCKED: USER  
DOCKED: REMARK  6 active torsions:
DOCKED: REMARK  status: ('A' for Active; 'I' for Inactive)
DOCKED: REMARK    1  A    between atoms: P_1  and  O_3 
DOCKED: REMARK    2  A    between atoms: P_2  and  O_4 
DOCKED: REMARK    3  A    between atoms: O_3  and  C_13 
DOCKED: REMARK    4  A    between atoms: O_4  and  C_14 
DOCKED: REMARK    5  A    between atoms: C_13  and  C_14 
DOCKED: REMARK    6  A    between atoms: C_13  and  C_15 
DOCKED: USER                              x       y       z     vdW  Elec       q    Type
DOCKED: USER                           _______ _______ _______ _____ _____    ______ ____
DOCKED: ROOT
DOCKED: ATOM      1  C   UNL d   1     -17.770   0.040   2.358 -0.13 +0.26    +0.193 C 
DOCKED: ENDROOT
DOCKED: BRANCH   1   2
DOCKED: ATOM      2  O   UNL d   1     -16.934  -0.897   1.599 -0.07 -0.42    -0.356 OA
DOCKED: BRANCH   2   3
DOCKED: ATOM      3  P   UNL d   1     -15.341  -0.636   1.285 -0.22 -0.02    -0.014 P 
DOCKED: ATOM      4  O   UNL d   1     -14.905   0.387   2.345 -0.08 -0.98    -0.577 OA
DOCKED: ATOM      5  O   UNL d   1     -15.246  -0.058  -0.126 -0.29 -1.07    -0.577 OA
DOCKED: ATOM      6  O   UNL d   1     -14.605  -1.962   1.450 -0.04 -0.79    -0.638 OA
DOCKED: ENDBRANCH   2   3
DOCKED: ENDBRANCH   1   2
DOCKED: BRANCH   1   7
DOCKED: ATOM      7  C   UNL d   1     -19.192  -0.601   2.560 -0.06 +0.22    +0.201 C 
DOCKED: BRANCH   7   8
DOCKED: ATOM      8  O   UNL d   1     -19.974  -0.069   3.652 -0.14 -0.59    -0.364 OA
DOCKED: BRANCH   8   9
DOCKED: ATOM      9  P   UNL d   1     -21.627  -0.075   3.569 +0.17 -0.02    -0.015 P 
DOCKED: ATOM     10  O   UNL d   1     -22.096   0.461   4.927 -0.46 -0.80    -0.577 OA
DOCKED: ATOM     11  O   UNL d   1     -22.057  -1.525   3.347 +0.00 -0.35    -0.577 OA
DOCKED: ATOM     12  O   UNL d   1     -22.024   0.850   2.419 -0.25 -0.94    -0.638 OA
DOCKED: ENDBRANCH   8   9
DOCKED: ENDBRANCH   7   8
DOCKED: ENDBRANCH   1   7
DOCKED: BRANCH   1  13
DOCKED: ATOM     13  C   UNL d   1     -17.933   1.387   1.559 -0.05 +0.14    +0.073 C 
DOCKED: ATOM     14  O   UNL d   1     -18.218   2.453   2.210 -0.60 -1.42    -0.547 OA
DOCKED: ATOM     15  O   UNL d   1     -17.705   1.346   0.297 -0.24 -1.02    -0.547 OA
DOCKED: ENDBRANCH   1  13
DOCKED: TORSDOF 6
DOCKED: TER
DOCKED: ENDMDL
________________________________________________________________________________


	BEGINNING GENETIC ALGORITHM DOCKING 28 of 100
Run: 28 Seed: 231160822 1324936514 [ Run 28 of 100 GA/GALS ]
Beginning LAMARCKIAN GENETIC ALGORITHM (LGA), with a maximum of 25000000 energy evaluations.

Final-Value: -8.900


	FINAL GENETIC ALGORITHM DOCKED STATE
	_______________________________________________


Detailed state:  trans -15.023 -0.319 1.809 quatxyzw -0.020057 0.993676 0.028818 0.106654 center 0.015 0.083 0.031 ntor 6 -108.0649 -165.0179 -170.7682 19.3481 11.5739 -39.8394
State:	-15.023  -0.319   1.809  -0.020  0.999  0.029 167.755   -108.06 -165.02 -170.77   19.35   11.57  -39.84

DOCKED: MODEL       28
DOCKED: USER    Run = 28
DOCKED: USER    DPF = D:/Protein_go_brrr/autodock/final/AncMH_nat/2_3_BPG/dock.dpf
DOCKED: USER  
DOCKED: USER    Estimated Free Energy of Binding    =   -9.15 kcal/mol  [=(1)+(2)+(3)-(4)]
DOCKED: USER    Estimated Inhibition Constant, Ki   =  196.03 nM (nanomolar)  [Temperature = 298.15 K]
DOCKED: USER    
DOCKED: USER    (1) Final Intermolecular Energy     =  -10.94 kcal/mol
DOCKED: USER        vdW + Hbond + desolv Energy     =   -3.63 kcal/mol
DOCKED: USER        Electrostatic Energy            =   -7.31 kcal/mol
DOCKED: USER    (2) Final Total Internal Energy     =   +2.04 kcal/mol
DOCKED: USER    (3) Torsional Free Energy           =   +1.79 kcal/mol
DOCKED: USER    (4) Unbound System's Energy  [=(2)] =   +2.04 kcal/mol
DOCKED: USER    
DOCKED: USER    
DOCKED: USER    NEWDPF move 2_3_BPG_opt.pdbqt
DOCKED: USER    NEWDPF about 0.015000 0.083000 0.031000
DOCKED: USER    NEWDPF tran0 -15.023141 -0.319330 1.808799
DOCKED: USER    NEWDPF quaternion0 -0.020057 0.993676 0.028818 0.106654
DOCKED: USER    NEWDPF axisangle0 -0.020172 0.999376 0.028983 167.755015
DOCKED: USER    NEWDPF quat0 -0.020172 0.999376 0.028983 167.755015
DOCKED: USER    NEWDPF dihe0 -108.06 -165.02 -170.77 19.35 11.57 -39.84 
DOCKED: USER  keepresnum = 1 
DOCKED: USER  
DOCKED: REMARK  6 active torsions:
DOCKED: REMARK  status: ('A' for Active; 'I' for Inactive)
DOCKED: REMARK    1  A    between atoms: P_1  and  O_3 
DOCKED: REMARK    2  A    between atoms: P_2  and  O_4 
DOCKED: REMARK    3  A    between atoms: O_3  and  C_13 
DOCKED: REMARK    4  A    between atoms: O_4  and  C_14 
DOCKED: REMARK    5  A    between atoms: C_13  and  C_14 
DOCKED: REMARK    6  A    between atoms: C_13  and  C_15 
DOCKED: USER                              x       y       z     vdW  Elec       q    Type
DOCKED: USER                           _______ _______ _______ _____ _____    ______ ____
DOCKED: ROOT
DOCKED: ATOM      1  C   UNL d   1     -14.460  -0.599   1.575 -0.19 +0.26    +0.193 C 
DOCKED: ENDROOT
DOCKED: BRANCH   1   2
DOCKED: ATOM      2  O   UNL d   1     -13.325   0.212   2.030 -0.16 -0.43    -0.356 OA
DOCKED: BRANCH   2   3
DOCKED: ATOM      3  P   UNL d   1     -12.372   1.083   1.012 -0.22 -0.02    -0.014 P 
DOCKED: ATOM      4  O   UNL d   1     -13.118   1.052  -0.331 -0.25 -0.97    -0.577 OA
DOCKED: ATOM      5  O   UNL d   1     -11.027   0.364   0.925 -0.00 -0.33    -0.577 OA
DOCKED: ATOM      6  O   UNL d   1     -12.268   2.502   1.562 -0.47 -0.86    -0.638 OA
DOCKED: ENDBRANCH   2   3
DOCKED: ENDBRANCH   1   2
DOCKED: BRANCH   1   7
DOCKED: ATOM      7  C   UNL d   1     -15.752  -0.135   2.345 -0.13 +0.29    +0.201 C 
DOCKED: BRANCH   7   8
DOCKED: ATOM      8  O   UNL d   1     -16.829   0.366   1.524 -0.51 -0.69    -0.364 OA
DOCKED: BRANCH   8   9
DOCKED: ATOM      9  P   UNL d   1     -18.075   1.209   2.213 -0.10 -0.03    -0.015 P 
DOCKED: ATOM     10  O   UNL d   1     -17.611   1.508   3.644 -0.14 -1.10    -0.577 OA
DOCKED: ATOM     11  O   UNL d   1     -19.299   0.293   2.189 -0.08 -0.89    -0.577 OA
DOCKED: ATOM     12  O   UNL d   1     -18.266   2.484   1.393 -0.50 -1.35    -0.638 OA
DOCKED: ENDBRANCH   8   9
DOCKED: ENDBRANCH   7   8
DOCKED: ENDBRANCH   1   7
DOCKED: BRANCH   1  13
DOCKED: ATOM     13  C   UNL d   1     -14.201  -2.118   1.894 -0.20 +0.08    +0.073 C 
DOCKED: ATOM     14  O   UNL d   1     -13.120  -2.657   1.467 -0.64 -0.76    -0.547 OA
DOCKED: ATOM     15  O   UNL d   1     -15.070  -2.716   2.626 -0.03 -0.54    -0.547 OA
DOCKED: ENDBRANCH   1  13
DOCKED: TORSDOF 6
DOCKED: TER
DOCKED: ENDMDL
________________________________________________________________________________


	BEGINNING GENETIC ALGORITHM DOCKING 29 of 100
Run: 29 Seed: 1899402870 982412543 [ Run 29 of 100 GA/GALS ]
Beginning LAMARCKIAN GENETIC ALGORITHM (LGA), with a maximum of 25000000 energy evaluations.

Final-Value: -8.121


	FINAL GENETIC ALGORITHM DOCKED STATE
	_______________________________________________


Detailed state:  trans -16.189 -0.828 1.641 quatxyzw 0.532825 -0.416085 -0.117515 -0.727434 center 0.015 0.083 0.031 ntor 6 164.8107 -107.6242 -119.8143 45.3030 -40.8357 -9.5679
State:	-16.189  -0.828   1.641   0.777 -0.606 -0.171 -86.657    164.81 -107.62 -119.81   45.30  -40.84   -9.57

DOCKED: MODEL       29
DOCKED: USER    Run = 29
DOCKED: USER    DPF = D:/Protein_go_brrr/autodock/final/AncMH_nat/2_3_BPG/dock.dpf
DOCKED: USER  
DOCKED: USER    Estimated Free Energy of Binding    =   -8.26 kcal/mol  [=(1)+(2)+(3)-(4)]
DOCKED: USER    Estimated Inhibition Constant, Ki   =  887.75 nM (nanomolar)  [Temperature = 298.15 K]
DOCKED: USER    
DOCKED: USER    (1) Final Intermolecular Energy     =  -10.05 kcal/mol
DOCKED: USER        vdW + Hbond + desolv Energy     =   -2.85 kcal/mol
DOCKED: USER        Electrostatic Energy            =   -7.19 kcal/mol
DOCKED: USER    (2) Final Total Internal Energy     =   +1.93 kcal/mol
DOCKED: USER    (3) Torsional Free Energy           =   +1.79 kcal/mol
DOCKED: USER    (4) Unbound System's Energy  [=(2)] =   +1.93 kcal/mol
DOCKED: USER    
DOCKED: USER    
DOCKED: USER    NEWDPF move 2_3_BPG_opt.pdbqt
DOCKED: USER    NEWDPF about 0.015000 0.083000 0.031000
DOCKED: USER    NEWDPF tran0 -16.189162 -0.827981 1.641239
DOCKED: USER    NEWDPF quaternion0 0.532825 -0.416085 -0.117515 -0.727434
DOCKED: USER    NEWDPF axisangle0 0.776513 -0.606381 -0.171260 -86.656539
DOCKED: USER    NEWDPF quat0 0.776513 -0.606381 -0.171260 -86.656539
DOCKED: USER    NEWDPF dihe0 164.81 -107.62 -119.81 45.30 -40.84 -9.57 
DOCKED: USER  keepresnum = 1 
DOCKED: USER  
DOCKED: REMARK  6 active torsions:
DOCKED: REMARK  status: ('A' for Active; 'I' for Inactive)
DOCKED: REMARK    1  A    between atoms: P_1  and  O_3 
DOCKED: REMARK    2  A    between atoms: P_2  and  O_4 
DOCKED: REMARK    3  A    between atoms: O_3  and  C_13 
DOCKED: REMARK    4  A    between atoms: O_4  and  C_14 
DOCKED: REMARK    5  A    between atoms: C_13  and  C_14 
DOCKED: REMARK    6  A    between atoms: C_13  and  C_15 
DOCKED: USER                              x       y       z     vdW  Elec       q    Type
DOCKED: USER                           _______ _______ _______ _____ _____    ______ ____
DOCKED: ROOT
DOCKED: ATOM      1  C   UNL d   1     -16.539  -0.657   1.096 -0.09 +0.26    +0.193 C 
DOCKED: ENDROOT
DOCKED: BRANCH   1   2
DOCKED: ATOM      2  O   UNL d   1     -16.944   0.746   1.233 -0.44 -0.81    -0.356 OA
DOCKED: BRANCH   2   3
DOCKED: ATOM      3  P   UNL d   1     -18.320   1.218   2.000 -0.02 -0.03    -0.014 P 
DOCKED: ATOM      4  O   UNL d   1     -18.068   0.886   3.479 -0.14 -1.05    -0.577 OA
DOCKED: ATOM      5  O   UNL d   1     -19.466   0.387   1.425 -0.03 -0.75    -0.577 OA
DOCKED: ATOM      6  O   UNL d   1     -18.490   2.718   1.784 -0.57 -1.53    -0.638 OA
DOCKED: ENDBRANCH   2   3
DOCKED: ENDBRANCH   1   2
DOCKED: BRANCH   1   7
DOCKED: ATOM      7  C   UNL d   1     -15.482  -0.989   2.213 -0.15 +0.23    +0.201 C 
DOCKED: BRANCH   7   8
DOCKED: ATOM      8  O   UNL d   1     -15.468  -2.356   2.680 -0.07 -0.34    -0.364 OA
DOCKED: BRANCH   8   9
DOCKED: ATOM      9  P   UNL d   1     -14.033  -3.092   3.047 -0.23 -0.01    -0.015 P 
DOCKED: ATOM     10  O   UNL d   1     -13.448  -2.274   4.205 -0.01 -0.29    -0.577 OA
DOCKED: ATOM     11  O   UNL d   1     -13.159  -3.015   1.795 -0.73 -0.87    -0.577 OA
DOCKED: ATOM     12  O   UNL d   1     -14.355  -4.527   3.464 -0.02 -0.53    -0.638 OA
DOCKED: ENDBRANCH   8   9
DOCKED: ENDBRANCH   7   8
DOCKED: ENDBRANCH   1   7
DOCKED: BRANCH   1  13
DOCKED: ATOM     13  C   UNL d   1     -15.875  -0.892  -0.312 -0.16 +0.10    +0.073 C 
DOCKED: ATOM     14  O   UNL d   1     -16.122  -1.987  -0.930 -0.04 -0.69    -0.547 OA
DOCKED: ATOM     15  O   UNL d   1     -15.168   0.067  -0.790 -0.15 -0.90    -0.547 OA
DOCKED: ENDBRANCH   1  13
DOCKED: TORSDOF 6
DOCKED: TER
DOCKED: ENDMDL
________________________________________________________________________________


	BEGINNING GENETIC ALGORITHM DOCKING 30 of 100
Run: 30 Seed: 191327522 1628782593 [ Run 30 of 100 GA/GALS ]
Beginning LAMARCKIAN GENETIC ALGORITHM (LGA), with a maximum of 25000000 energy evaluations.

Final-Value: -9.017


	FINAL GENETIC ALGORITHM DOCKED STATE
	_______________________________________________


Detailed state:  trans -15.153 -0.620 1.823 quatxyzw 0.070890 -0.977634 0.116008 -0.160461 center 0.015 0.083 0.031 ntor 6 -122.1426 -141.4648 -142.7461 14.3462 9.6778 -70.2289
State:	-15.153  -0.620   1.823   0.072 -0.990  0.118 -161.533   -122.14 -141.46 -142.75   14.35    9.68  -70.23

DOCKED: MODEL       30
DOCKED: USER    Run = 30
DOCKED: USER    DPF = D:/Protein_go_brrr/autodock/final/AncMH_nat/2_3_BPG/dock.dpf
DOCKED: USER  
DOCKED: USER    Estimated Free Energy of Binding    =   -9.32 kcal/mol  [=(1)+(2)+(3)-(4)]
DOCKED: USER    Estimated Inhibition Constant, Ki   =  147.32 nM (nanomolar)  [Temperature = 298.15 K]
DOCKED: USER    
DOCKED: USER    (1) Final Intermolecular Energy     =  -11.11 kcal/mol
DOCKED: USER        vdW + Hbond + desolv Energy     =   -3.64 kcal/mol
DOCKED: USER        Electrostatic Energy            =   -7.47 kcal/mol
DOCKED: USER    (2) Final Total Internal Energy     =   +2.09 kcal/mol
DOCKED: USER    (3) Torsional Free Energy           =   +1.79 kcal/mol
DOCKED: USER    (4) Unbound System's Energy  [=(2)] =   +2.09 kcal/mol
DOCKED: USER    
DOCKED: USER    
DOCKED: USER    NEWDPF move 2_3_BPG_opt.pdbqt
DOCKED: USER    NEWDPF about 0.015000 0.083000 0.031000
DOCKED: USER    NEWDPF tran0 -15.152539 -0.619638 1.823362
DOCKED: USER    NEWDPF quaternion0 0.070890 -0.977634 0.116008 -0.160461
DOCKED: USER    NEWDPF axisangle0 0.071821 -0.990469 0.117531 -161.532656
DOCKED: USER    NEWDPF quat0 0.071821 -0.990469 0.117531 -161.532656
DOCKED: USER    NEWDPF dihe0 -122.14 -141.46 -142.75 14.35 9.68 -70.23 
DOCKED: USER  keepresnum = 1 
DOCKED: USER  
DOCKED: REMARK  6 active torsions:
DOCKED: REMARK  status: ('A' for Active; 'I' for Inactive)
DOCKED: REMARK    1  A    between atoms: P_1  and  O_3 
DOCKED: REMARK    2  A    between atoms: P_2  and  O_4 
DOCKED: REMARK    3  A    between atoms: O_3  and  C_13 
DOCKED: REMARK    4  A    between atoms: O_4  and  C_14 
DOCKED: REMARK    5  A    between atoms: C_13  and  C_14 
DOCKED: REMARK    6  A    between atoms: C_13  and  C_15 
DOCKED: USER                              x       y       z     vdW  Elec       q    Type
DOCKED: USER                           _______ _______ _______ _____ _____    ______ ____
DOCKED: ROOT
DOCKED: ATOM      1  C   UNL d   1     -14.575  -0.884   1.608 -0.19 +0.24    +0.193 C 
DOCKED: ENDROOT
DOCKED: BRANCH   1   2
DOCKED: ATOM      2  O   UNL d   1     -13.539   0.152   1.691 -0.16 -0.49    -0.356 OA
DOCKED: BRANCH   2   3
DOCKED: ATOM      3  P   UNL d   1     -12.728   0.724   0.380 -0.19 -0.02    -0.014 P 
DOCKED: ATOM      4  O   UNL d   1     -13.764   0.698  -0.754 -0.04 -0.95    -0.577 OA
DOCKED: ATOM      5  O   UNL d   1     -11.573  -0.238   0.108 -0.03 -0.41    -0.577 OA
DOCKED: ATOM      6  O   UNL d   1     -12.274   2.146   0.691 -0.57 -0.95    -0.638 OA
DOCKED: ENDBRANCH   2   3
DOCKED: ENDBRANCH   1   2
DOCKED: BRANCH   1   7
DOCKED: ATOM      7  C   UNL d   1     -15.854  -0.381   2.374 -0.13 +0.26    +0.201 C 
DOCKED: BRANCH   7   8
DOCKED: ATOM      8  O   UNL d   1     -16.805   0.370   1.587 -0.50 -0.68    -0.364 OA
DOCKED: BRANCH   8   9
DOCKED: ATOM      9  P   UNL d   1     -18.018   1.213   2.333 -0.05 -0.03    -0.015 P 
DOCKED: ATOM     10  O   UNL d   1     -17.369   1.824   3.581 -0.17 -1.10    -0.577 OA
DOCKED: ATOM     11  O   UNL d   1     -19.107   0.203   2.693 -0.07 -0.92    -0.577 OA
DOCKED: ATOM     12  O   UNL d   1     -18.494   2.283   1.352 -0.54 -1.30    -0.638 OA
DOCKED: ENDBRANCH   8   9
DOCKED: ENDBRANCH   7   8
DOCKED: ENDBRANCH   1   7
DOCKED: BRANCH   1  13
DOCKED: ATOM     13  C   UNL d   1     -14.069  -2.210   2.289 -0.24 +0.07    +0.073 C 
DOCKED: ATOM     14  O   UNL d   1     -13.120  -2.861   1.727 -0.72 -0.78    -0.547 OA
DOCKED: ATOM     15  O   UNL d   1     -14.602  -2.528   3.412 -0.02 -0.41    -0.547 OA
DOCKED: ENDBRANCH   1  13
DOCKED: TORSDOF 6
DOCKED: TER
DOCKED: ENDMDL
________________________________________________________________________________


	BEGINNING GENETIC ALGORITHM DOCKING 31 of 100
Run: 31 Seed: 68341335 1795069352 [ Run 31 of 100 GA/GALS ]
Beginning LAMARCKIAN GENETIC ALGORITHM (LGA), with a maximum of 25000000 energy evaluations.

Final-Value: -8.839


	FINAL GENETIC ALGORITHM DOCKED STATE
	_______________________________________________


Detailed state:  trans -15.660 -1.077 0.960 quatxyzw 0.153494 -0.952692 0.262098 -0.011051 center 0.015 0.083 0.031 ntor 6 -147.4175 -119.4578 -116.3810 7.8686 35.6353 -145.9569
State:	-15.660  -1.077   0.960   0.154 -0.953  0.262 -178.734   -147.42 -119.46 -116.38    7.87   35.64 -145.96

DOCKED: MODEL       31
DOCKED: USER    Run = 31
DOCKED: USER    DPF = D:/Protein_go_brrr/autodock/final/AncMH_nat/2_3_BPG/dock.dpf
DOCKED: USER  
DOCKED: USER    Estimated Free Energy of Binding    =   -9.32 kcal/mol  [=(1)+(2)+(3)-(4)]
DOCKED: USER    Estimated Inhibition Constant, Ki   =  147.01 nM (nanomolar)  [Temperature = 298.15 K]
DOCKED: USER    
DOCKED: USER    (1) Final Intermolecular Energy     =  -11.11 kcal/mol
DOCKED: USER        vdW + Hbond + desolv Energy     =   -3.34 kcal/mol
DOCKED: USER        Electrostatic Energy            =   -7.78 kcal/mol
DOCKED: USER    (2) Final Total Internal Energy     =   +2.27 kcal/mol
DOCKED: USER    (3) Torsional Free Energy           =   +1.79 kcal/mol
DOCKED: USER    (4) Unbound System's Energy  [=(2)] =   +2.27 kcal/mol
DOCKED: USER    
DOCKED: USER    
DOCKED: USER    NEWDPF move 2_3_BPG_opt.pdbqt
DOCKED: USER    NEWDPF about 0.015000 0.083000 0.031000
DOCKED: USER    NEWDPF tran0 -15.659897 -1.077363 0.959883
DOCKED: USER    NEWDPF quaternion0 0.153494 -0.952692 0.262098 -0.011051
DOCKED: USER    NEWDPF axisangle0 0.153504 -0.952750 0.262114 -178.733635
DOCKED: USER    NEWDPF quat0 0.153504 -0.952750 0.262114 -178.733635
DOCKED: USER    NEWDPF dihe0 -147.42 -119.46 -116.38 7.87 35.64 -145.96 
DOCKED: USER  keepresnum = 1 
DOCKED: USER  
DOCKED: REMARK  6 active torsions:
DOCKED: REMARK  status: ('A' for Active; 'I' for Inactive)
DOCKED: REMARK    1  A    between atoms: P_1  and  O_3 
DOCKED: REMARK    2  A    between atoms: P_2  and  O_4 
DOCKED: REMARK    3  A    between atoms: O_3  and  C_13 
DOCKED: REMARK    4  A    between atoms: O_4  and  C_14 
DOCKED: REMARK    5  A    between atoms: C_13  and  C_14 
DOCKED: REMARK    6  A    between atoms: C_13  and  C_15 
DOCKED: USER                              x       y       z     vdW  Elec       q    Type
DOCKED: USER                           _______ _______ _______ _____ _____    ______ ____
DOCKED: ROOT
DOCKED: ATOM      1  C   UNL d   1     -15.003  -1.211   0.975 -0.17 +0.25    +0.193 C 
DOCKED: ENDROOT
DOCKED: BRANCH   1   2
DOCKED: ATOM      2  O   UNL d   1     -14.279   0.064   1.027 -0.11 -0.65    -0.356 OA
DOCKED: BRANCH   2   3
DOCKED: ATOM      3  P   UNL d   1     -13.125   0.493  -0.064 -0.14 -0.02    -0.014 P 
DOCKED: ATOM      4  O   UNL d   1     -13.833   0.402  -1.425 -0.03 -0.69    -0.577 OA
DOCKED: ATOM      5  O   UNL d   1     -11.994  -0.527   0.050 -0.02 -0.47    -0.577 OA
DOCKED: ATOM      6  O   UNL d   1     -12.690   1.921   0.247 -0.43 -1.25    -0.638 OA
DOCKED: ENDBRANCH   2   3
DOCKED: ENDBRANCH   1   2
DOCKED: BRANCH   1   7
DOCKED: ATOM      7  C   UNL d   1     -16.530  -0.935   1.232 -0.10 +0.25    +0.201 C 
DOCKED: BRANCH   7   8
DOCKED: ATOM      8  O   UNL d   1     -16.943   0.447   1.154 -0.55 -0.72    -0.364 OA
DOCKED: BRANCH   8   9
DOCKED: ATOM      9  P   UNL d   1     -18.066   1.039   2.214 -0.15 -0.03    -0.015 P 
DOCKED: ATOM     10  O   UNL d   1     -17.387   0.981   3.588 -0.13 -0.91    -0.577 OA
DOCKED: ATOM     11  O   UNL d   1     -19.282   0.116   2.139 -0.05 -0.81    -0.577 OA
DOCKED: ATOM     12  O   UNL d   1     -18.377   2.474   1.789 -0.61 -1.52    -0.638 OA
DOCKED: ENDBRANCH   8   9
DOCKED: ENDBRANCH   7   8
DOCKED: ENDBRANCH   1   7
DOCKED: BRANCH   1  13
DOCKED: ATOM     13  C   UNL d   1     -14.470  -2.180   2.095 -0.20 +0.08    +0.073 C 
DOCKED: ATOM     14  O   UNL d   1     -13.545  -3.013   1.793 -0.66 -0.86    -0.547 OA
DOCKED: ATOM     15  O   UNL d   1     -14.957  -2.031   3.274 -0.01 -0.43    -0.547 OA
DOCKED: ENDBRANCH   1  13
DOCKED: TORSDOF 6
DOCKED: TER
DOCKED: ENDMDL
________________________________________________________________________________


	BEGINNING GENETIC ALGORITHM DOCKING 32 of 100
Run: 32 Seed: 1964007889 837554882 [ Run 32 of 100 GA/GALS ]
Beginning LAMARCKIAN GENETIC ALGORITHM (LGA), with a maximum of 25000000 energy evaluations.

Final-Value: -8.376


	FINAL GENETIC ALGORITHM DOCKED STATE
	_______________________________________________


Detailed state:  trans -15.500 -1.215 1.293 quatxyzw -0.255245 0.849349 -0.378494 0.264950 center 0.015 0.083 0.031 ntor 6 -174.6364 -107.6528 132.2686 53.6997 -12.8004 -166.4348
State:	-15.500  -1.215   1.293  -0.265  0.881 -0.393 149.272   -174.64 -107.65  132.27   53.70  -12.80 -166.43

DOCKED: MODEL       32
DOCKED: USER    Run = 32
DOCKED: USER    DPF = D:/Protein_go_brrr/autodock/final/AncMH_nat/2_3_BPG/dock.dpf
DOCKED: USER  
DOCKED: USER    Estimated Free Energy of Binding    =   -8.99 kcal/mol  [=(1)+(2)+(3)-(4)]
DOCKED: USER    Estimated Inhibition Constant, Ki   =  256.22 nM (nanomolar)  [Temperature = 298.15 K]
DOCKED: USER    
DOCKED: USER    (1) Final Intermolecular Energy     =  -10.78 kcal/mol
DOCKED: USER        vdW + Hbond + desolv Energy     =   -3.05 kcal/mol
DOCKED: USER        Electrostatic Energy            =   -7.74 kcal/mol
DOCKED: USER    (2) Final Total Internal Energy     =   +2.41 kcal/mol
DOCKED: USER    (3) Torsional Free Energy           =   +1.79 kcal/mol
DOCKED: USER    (4) Unbound System's Energy  [=(2)] =   +2.41 kcal/mol
DOCKED: USER    
DOCKED: USER    
DOCKED: USER    NEWDPF move 2_3_BPG_opt.pdbqt
DOCKED: USER    NEWDPF about 0.015000 0.083000 0.031000
DOCKED: USER    NEWDPF tran0 -15.500293 -1.215323 1.292800
DOCKED: USER    NEWDPF quaternion0 -0.255245 0.849349 -0.378494 0.264950
DOCKED: USER    NEWDPF axisangle0 -0.264705 0.880828 -0.392522 149.272071
DOCKED: USER    NEWDPF quat0 -0.264705 0.880828 -0.392522 149.272071
DOCKED: USER    NEWDPF dihe0 -174.64 -107.65 132.27 53.70 -12.80 -166.43 
DOCKED: USER  keepresnum = 1 
DOCKED: USER  
DOCKED: REMARK  6 active torsions:
DOCKED: REMARK  status: ('A' for Active; 'I' for Inactive)
DOCKED: REMARK    1  A    between atoms: P_1  and  O_3 
DOCKED: REMARK    2  A    between atoms: P_2  and  O_4 
DOCKED: REMARK    3  A    between atoms: O_3  and  C_13 
DOCKED: REMARK    4  A    between atoms: O_4  and  C_14 
DOCKED: REMARK    5  A    between atoms: C_13  and  C_14 
DOCKED: REMARK    6  A    between atoms: C_13  and  C_15 
DOCKED: USER                              x       y       z     vdW  Elec       q    Type
DOCKED: USER                           _______ _______ _______ _____ _____    ______ ____
DOCKED: ROOT
DOCKED: ATOM      1  C   UNL d   1     -14.899  -1.333   1.021 -0.17 +0.25    +0.193 C 
DOCKED: ENDROOT
DOCKED: BRANCH   1   2
DOCKED: ATOM      2  O   UNL d   1     -14.474  -0.123   0.309 -0.19 -0.62    -0.356 OA
DOCKED: BRANCH   2   3
DOCKED: ATOM      3  P   UNL d   1     -15.038   0.294  -1.179 -0.06 -0.02    -0.014 P 
DOCKED: ATOM      4  O   UNL d   1     -16.514   0.649  -0.943 -0.24 -0.98    -0.577 OA
DOCKED: ATOM      5  O   UNL d   1     -14.891  -0.931  -2.078 -0.05 -0.57    -0.577 OA
DOCKED: ATOM      6  O   UNL d   1     -14.242   1.503  -1.662 +0.04 -0.98    -0.638 OA
DOCKED: ENDBRANCH   2   3
DOCKED: ENDBRANCH   1   2
DOCKED: BRANCH   1   7
DOCKED: ATOM      7  C   UNL d   1     -16.156  -0.986   1.901 -0.12 +0.24    +0.201 C 
DOCKED: BRANCH   7   8
DOCKED: ATOM      8  O   UNL d   1     -16.521   0.411   1.956 -0.40 -0.68    -0.364 OA
DOCKED: BRANCH   8   9
DOCKED: ATOM      9  P   UNL d   1     -17.954   0.867   2.645 -0.17 -0.03    -0.015 P 
DOCKED: ATOM     10  O   UNL d   1     -18.996  -0.103   2.078 -0.02 -0.73    -0.577 OA
DOCKED: ATOM     11  O   UNL d   1     -18.218   2.308   2.210 -0.61 -1.48    -0.577 OA
DOCKED: ATOM     12  O   UNL d   1     -17.795   0.718   4.158 -0.05 -0.94    -0.638 OA
DOCKED: ENDBRANCH   8   9
DOCKED: ENDBRANCH   7   8
DOCKED: ENDBRANCH   1   7
DOCKED: BRANCH   1  13
DOCKED: ATOM     13  C   UNL d   1     -13.745  -1.836   1.967 -0.26 +0.08    +0.073 C 
DOCKED: ATOM     14  O   UNL d   1     -13.280  -3.016   1.789 -0.72 -0.84    -0.547 OA
DOCKED: ATOM     15  O   UNL d   1     -13.291  -0.999   2.828 -0.04 -0.42    -0.547 OA
DOCKED: ENDBRANCH   1  13
DOCKED: TORSDOF 6
DOCKED: TER
DOCKED: ENDMDL
________________________________________________________________________________


	BEGINNING GENETIC ALGORITHM DOCKING 33 of 100
Run: 33 Seed: 685103358 2145599113 [ Run 33 of 100 GA/GALS ]
Beginning LAMARCKIAN GENETIC ALGORITHM (LGA), with a maximum of 25000000 energy evaluations.

Final-Value: -8.976


	FINAL GENETIC ALGORITHM DOCKED STATE
	_______________________________________________


Detailed state:  trans -15.124 -0.434 1.742 quatxyzw 0.061269 -0.950804 0.208440 -0.220841 center 0.015 0.083 0.031 ntor 6 -149.7247 -146.3894 177.5396 26.7294 0.6817 -63.2500
State:	-15.124  -0.434   1.742   0.063 -0.975  0.214 -154.483   -149.72 -146.39  177.54   26.73    0.68  -63.25

DOCKED: MODEL       33
DOCKED: USER    Run = 33
DOCKED: USER    DPF = D:/Protein_go_brrr/autodock/final/AncMH_nat/2_3_BPG/dock.dpf
DOCKED: USER  
DOCKED: USER    Estimated Free Energy of Binding    =   -9.22 kcal/mol  [=(1)+(2)+(3)-(4)]
DOCKED: USER    Estimated Inhibition Constant, Ki   =  175.88 nM (nanomolar)  [Temperature = 298.15 K]
DOCKED: USER    
DOCKED: USER    (1) Final Intermolecular Energy     =  -11.00 kcal/mol
DOCKED: USER        vdW + Hbond + desolv Energy     =   -3.25 kcal/mol
DOCKED: USER        Electrostatic Energy            =   -7.76 kcal/mol
DOCKED: USER    (2) Final Total Internal Energy     =   +2.03 kcal/mol
DOCKED: USER    (3) Torsional Free Energy           =   +1.79 kcal/mol
DOCKED: USER    (4) Unbound System's Energy  [=(2)] =   +2.03 kcal/mol
DOCKED: USER    
DOCKED: USER    
DOCKED: USER    NEWDPF move 2_3_BPG_opt.pdbqt
DOCKED: USER    NEWDPF about 0.015000 0.083000 0.031000
DOCKED: USER    NEWDPF tran0 -15.124328 -0.434218 1.741832
DOCKED: USER    NEWDPF quaternion0 0.061269 -0.950804 0.208440 -0.220841
DOCKED: USER    NEWDPF axisangle0 0.062820 -0.974874 0.213717 -154.483122
DOCKED: USER    NEWDPF quat0 0.062820 -0.974874 0.213717 -154.483122
DOCKED: USER    NEWDPF dihe0 -149.72 -146.39 177.54 26.73 0.68 -63.25 
DOCKED: USER  keepresnum = 1 
DOCKED: USER  
DOCKED: REMARK  6 active torsions:
DOCKED: REMARK  status: ('A' for Active; 'I' for Inactive)
DOCKED: REMARK    1  A    between atoms: P_1  and  O_3 
DOCKED: REMARK    2  A    between atoms: P_2  and  O_4 
DOCKED: REMARK    3  A    between atoms: O_3  and  C_13 
DOCKED: REMARK    4  A    between atoms: O_4  and  C_14 
DOCKED: REMARK    5  A    between atoms: C_13  and  C_14 
DOCKED: REMARK    6  A    between atoms: C_13  and  C_15 
DOCKED: USER                              x       y       z     vdW  Elec       q    Type
DOCKED: USER                           _______ _______ _______ _____ _____    ______ ____
DOCKED: ROOT
DOCKED: ATOM      1  C   UNL d   1     -14.571  -0.742   1.520 -0.19 +0.25    +0.193 C 
DOCKED: ENDROOT
DOCKED: BRANCH   1   2
DOCKED: ATOM      2  O   UNL d   1     -13.545   0.279   1.282 -0.18 -0.55    -0.356 OA
DOCKED: BRANCH   2   3
DOCKED: ATOM      3  P   UNL d   1     -13.101   0.780  -0.220 -0.01 -0.02    -0.014 P 
DOCKED: ATOM      4  O   UNL d   1     -14.366   0.601  -1.073 +0.01 -0.95    -0.577 OA
DOCKED: ATOM      5  O   UNL d   1     -11.974  -0.138  -0.688 -0.02 -0.45    -0.577 OA
DOCKED: ATOM      6  O   UNL d   1     -12.691   2.246  -0.126 -0.41 -1.19    -0.638 OA
DOCKED: ENDBRANCH   2   3
DOCKED: ENDBRANCH   1   2
DOCKED: BRANCH   1   7
DOCKED: ATOM      7  C   UNL d   1     -15.764  -0.084   2.308 -0.12 +0.30    +0.201 C 
DOCKED: BRANCH   7   8
DOCKED: ATOM      8  O   UNL d   1     -16.878   0.366   1.506 -0.52 -0.68    -0.364 OA
DOCKED: BRANCH   8   9
DOCKED: ATOM      9  P   UNL d   1     -18.146   1.156   2.216 -0.10 -0.03    -0.015 P 
DOCKED: ATOM     10  O   UNL d   1     -17.793   1.216   3.708 -0.16 -1.06    -0.577 OA
DOCKED: ATOM     11  O   UNL d   1     -19.396   0.314   1.959 -0.06 -0.85    -0.577 OA
DOCKED: ATOM     12  O   UNL d   1     -18.221   2.546   1.587 -0.54 -1.41    -0.638 OA
DOCKED: ENDBRANCH   8   9
DOCKED: ENDBRANCH   7   8
DOCKED: ENDBRANCH   1   7
DOCKED: BRANCH   1  13
DOCKED: ATOM     13  C   UNL d   1     -13.977  -1.913   2.389 -0.26 +0.07    +0.073 C 
DOCKED: ATOM     14  O   UNL d   1     -13.538  -2.956   1.790 -0.66 -0.84    -0.547 OA
DOCKED: ATOM     15  O   UNL d   1     -13.911  -1.722   3.657 -0.03 -0.35    -0.547 OA
DOCKED: ENDBRANCH   1  13
DOCKED: TORSDOF 6
DOCKED: TER
DOCKED: ENDMDL
________________________________________________________________________________


	BEGINNING GENETIC ALGORITHM DOCKING 34 of 100
Run: 34 Seed: 2123061786 1531999536 [ Run 34 of 100 GA/GALS ]
Beginning LAMARCKIAN GENETIC ALGORITHM (LGA), with a maximum of 25000000 energy evaluations.

Final-Value: -8.614


	FINAL GENETIC ALGORITHM DOCKED STATE
	_______________________________________________


Detailed state:  trans -15.531 -0.945 1.420 quatxyzw 0.171280 -0.874166 0.351426 -0.288092 center 0.015 0.083 0.031 ntor 6 -159.7826 7.7638 -129.2122 44.7059 3.3463 -117.9371
State:	-15.531  -0.945   1.420   0.179 -0.913  0.367 -146.512   -159.78    7.76 -129.21   44.71    3.35 -117.94

DOCKED: MODEL       34
DOCKED: USER    Run = 34
DOCKED: USER    DPF = D:/Protein_go_brrr/autodock/final/AncMH_nat/2_3_BPG/dock.dpf
DOCKED: USER  
DOCKED: USER    Estimated Free Energy of Binding    =   -9.20 kcal/mol  [=(1)+(2)+(3)-(4)]
DOCKED: USER    Estimated Inhibition Constant, Ki   =  181.42 nM (nanomolar)  [Temperature = 298.15 K]
DOCKED: USER    
DOCKED: USER    (1) Final Intermolecular Energy     =  -10.99 kcal/mol
DOCKED: USER        vdW + Hbond + desolv Energy     =   -3.13 kcal/mol
DOCKED: USER        Electrostatic Energy            =   -7.86 kcal/mol
DOCKED: USER    (2) Final Total Internal Energy     =   +2.37 kcal/mol
DOCKED: USER    (3) Torsional Free Energy           =   +1.79 kcal/mol
DOCKED: USER    (4) Unbound System's Energy  [=(2)] =   +2.37 kcal/mol
DOCKED: USER    
DOCKED: USER    
DOCKED: USER    NEWDPF move 2_3_BPG_opt.pdbqt
DOCKED: USER    NEWDPF about 0.015000 0.083000 0.031000
DOCKED: USER    NEWDPF tran0 -15.531110 -0.945466 1.420398
DOCKED: USER    NEWDPF quaternion0 0.171280 -0.874166 0.351426 -0.288092
DOCKED: USER    NEWDPF axisangle0 0.178864 -0.912869 0.366985 -146.512470
DOCKED: USER    NEWDPF quat0 0.178864 -0.912869 0.366985 -146.512470
DOCKED: USER    NEWDPF dihe0 -159.78 7.76 -129.21 44.71 3.35 -117.94 
DOCKED: USER  keepresnum = 1 
DOCKED: USER  
DOCKED: REMARK  6 active torsions:
DOCKED: REMARK  status: ('A' for Active; 'I' for Inactive)
DOCKED: REMARK    1  A    between atoms: P_1  and  O_3 
DOCKED: REMARK    2  A    between atoms: P_2  and  O_4 
DOCKED: REMARK    3  A    between atoms: O_3  and  C_13 
DOCKED: REMARK    4  A    between atoms: O_4  and  C_14 
DOCKED: REMARK    5  A    between atoms: C_13  and  C_14 
DOCKED: REMARK    6  A    between atoms: C_13  and  C_15 
DOCKED: USER                              x       y       z     vdW  Elec       q    Type
DOCKED: USER                           _______ _______ _______ _____ _____    ______ ____
DOCKED: ROOT
DOCKED: ATOM      1  C   UNL d   1     -14.956  -1.172   1.161 -0.17 +0.25    +0.193 C 
DOCKED: ENDROOT
DOCKED: BRANCH   1   2
DOCKED: ATOM      2  O   UNL d   1     -14.296  -0.057   0.472 -0.17 -0.62    -0.356 OA
DOCKED: BRANCH   2   3
DOCKED: ATOM      3  P   UNL d   1     -14.586   0.331  -1.100 -0.06 -0.02    -0.014 P 
DOCKED: ATOM      4  O   UNL d   1     -13.611   1.482  -1.396 -0.02 -0.86    -0.577 OA
DOCKED: ATOM      5  O   UNL d   1     -16.040   0.790  -1.191 -0.14 -1.00    -0.577 OA
DOCKED: ATOM      6  O   UNL d   1     -14.281  -0.895  -1.953 +0.00 -0.64    -0.638 OA
DOCKED: ENDBRANCH   2   3
DOCKED: ENDBRANCH   1   2
DOCKED: BRANCH   1   7
DOCKED: ATOM      7  C   UNL d   1     -16.148  -0.602   2.015 -0.12 +0.26    +0.201 C 
DOCKED: BRANCH   7   8
DOCKED: ATOM      8  O   UNL d   1     -16.943   0.424   1.382 -0.53 -0.70    -0.364 OA
DOCKED: BRANCH   8   9
DOCKED: ATOM      9  P   UNL d   1     -18.121   1.208   2.240 -0.07 -0.03    -0.015 P 
DOCKED: ATOM     10  O   UNL d   1     -17.419   1.726   3.501 -0.21 -1.12    -0.577 OA
DOCKED: ATOM     11  O   UNL d   1     -19.196   0.173   2.570 -0.06 -0.90    -0.577 OA
DOCKED: ATOM     12  O   UNL d   1     -18.637   2.347   1.361 -0.60 -1.30    -0.638 OA
DOCKED: ENDBRANCH   8   9
DOCKED: ENDBRANCH   7   8
DOCKED: ENDBRANCH   1   7
DOCKED: BRANCH   1  13
DOCKED: ATOM     13  C   UNL d   1     -13.939  -1.887   2.127 -0.26 +0.07    +0.073 C 
DOCKED: ATOM     14  O   UNL d   1     -13.476  -3.032   1.788 -0.68 -0.86    -0.547 OA
DOCKED: ATOM     15  O   UNL d   1     -13.583  -1.242   3.179 -0.04 -0.40    -0.547 OA
DOCKED: ENDBRANCH   1  13
DOCKED: TORSDOF 6
DOCKED: TER
DOCKED: ENDMDL
________________________________________________________________________________


	BEGINNING GENETIC ALGORITHM DOCKING 35 of 100
Run: 35 Seed: 1956775802 417623490 [ Run 35 of 100 GA/GALS ]
Beginning LAMARCKIAN GENETIC ALGORITHM (LGA), with a maximum of 25000000 energy evaluations.

Final-Value: -8.366


	FINAL GENETIC ALGORITHM DOCKED STATE
	_______________________________________________


Detailed state:  trans -15.471 -0.933 1.529 quatxyzw 0.193046 -0.805944 0.410375 -0.380499 center 0.015 0.083 0.031 ntor 6 23.8793 -86.3529 -173.0860 44.4214 -12.1755 -117.0339
State:	-15.471  -0.933   1.529   0.209 -0.871  0.444 -135.271     23.88  -86.35 -173.09   44.42  -12.18 -117.03

DOCKED: MODEL       35
DOCKED: USER    Run = 35
DOCKED: USER    DPF = D:/Protein_go_brrr/autodock/final/AncMH_nat/2_3_BPG/dock.dpf
DOCKED: USER  
DOCKED: USER    Estimated Free Energy of Binding    =   -8.88 kcal/mol  [=(1)+(2)+(3)-(4)]
DOCKED: USER    Estimated Inhibition Constant, Ki   =  307.21 nM (nanomolar)  [Temperature = 298.15 K]
DOCKED: USER    
DOCKED: USER    (1) Final Intermolecular Energy     =  -10.67 kcal/mol
DOCKED: USER        vdW + Hbond + desolv Energy     =   -3.15 kcal/mol
DOCKED: USER        Electrostatic Energy            =   -7.53 kcal/mol
DOCKED: USER    (2) Final Total Internal Energy     =   +2.31 kcal/mol
DOCKED: USER    (3) Torsional Free Energy           =   +1.79 kcal/mol
DOCKED: USER    (4) Unbound System's Energy  [=(2)] =   +2.31 kcal/mol
DOCKED: USER    
DOCKED: USER    
DOCKED: USER    NEWDPF move 2_3_BPG_opt.pdbqt
DOCKED: USER    NEWDPF about 0.015000 0.083000 0.031000
DOCKED: USER    NEWDPF tran0 -15.470517 -0.932774 1.528609
DOCKED: USER    NEWDPF quaternion0 0.193046 -0.805944 0.410375 -0.380499
DOCKED: USER    NEWDPF axisangle0 0.208748 -0.871497 0.443754 -135.270813
DOCKED: USER    NEWDPF quat0 0.208748 -0.871497 0.443754 -135.270813
DOCKED: USER    NEWDPF dihe0 23.88 -86.35 -173.09 44.42 -12.18 -117.03 
DOCKED: USER  keepresnum = 1 
DOCKED: USER  
DOCKED: REMARK  6 active torsions:
DOCKED: REMARK  status: ('A' for Active; 'I' for Inactive)
DOCKED: REMARK    1  A    between atoms: P_1  and  O_3 
DOCKED: REMARK    2  A    between atoms: P_2  and  O_4 
DOCKED: REMARK    3  A    between atoms: O_3  and  C_13 
DOCKED: REMARK    4  A    between atoms: O_4  and  C_14 
DOCKED: REMARK    5  A    between atoms: C_13  and  C_14 
DOCKED: REMARK    6  A    between atoms: C_13  and  C_15 
DOCKED: USER                              x       y       z     vdW  Elec       q    Type
DOCKED: USER                           _______ _______ _______ _____ _____    ______ ____
DOCKED: ROOT
DOCKED: ATOM      1  C   UNL d   1     -14.946  -1.192   1.202 -0.17 +0.25    +0.193 C 
DOCKED: ENDROOT
DOCKED: BRANCH   1   2
DOCKED: ATOM      2  O   UNL d   1     -14.483  -0.204   0.221 -0.19 -0.60    -0.356 OA
DOCKED: BRANCH   2   3
DOCKED: ATOM      3  P   UNL d   1     -15.082  -0.099  -1.306 -0.19 -0.02    -0.014 P 
DOCKED: ATOM      4  O   UNL d   1     -16.267   0.873  -1.187 -0.14 -0.99    -0.577 OA
DOCKED: ATOM      5  O   UNL d   1     -15.542  -1.499  -1.709 -0.04 -0.65    -0.577 OA
DOCKED: ATOM      6  O   UNL d   1     -13.986   0.462  -2.205 +0.00 -0.60    -0.638 OA
DOCKED: ENDBRANCH   2   3
DOCKED: ENDBRANCH   1   2
DOCKED: BRANCH   1   7
DOCKED: ATOM      7  C   UNL d   1     -15.977  -0.501   2.168 -0.13 +0.26    +0.201 C 
DOCKED: BRANCH   7   8
DOCKED: ATOM      8  O   UNL d   1     -16.939   0.375   1.540 -0.51 -0.67    -0.364 OA
DOCKED: BRANCH   8   9
DOCKED: ATOM      9  P   UNL d   1     -18.207   0.978   2.416 -0.05 -0.03    -0.015 P 
DOCKED: ATOM     10  O   UNL d   1     -17.906   0.594   3.869 -0.09 -0.87    -0.577 OA
DOCKED: ATOM     11  O   UNL d   1     -19.472   0.297   1.895 -0.05 -0.83    -0.577 OA
DOCKED: ATOM     12  O   UNL d   1     -18.216   2.493   2.213 -0.57 -1.67    -0.638 OA
DOCKED: ENDBRANCH   8   9
DOCKED: ENDBRANCH   7   8
DOCKED: ENDBRANCH   1   7
DOCKED: BRANCH   1  13
DOCKED: ATOM     13  C   UNL d   1     -13.730  -1.717   2.054 -0.27 +0.07    +0.073 C 
DOCKED: ATOM     14  O   UNL d   1     -13.275  -0.973   2.992 -0.04 -0.40    -0.547 OA
DOCKED: ATOM     15  O   UNL d   1     -13.305  -2.900   1.795 -0.71 -0.80    -0.547 OA
DOCKED: ENDBRANCH   1  13
DOCKED: TORSDOF 6
DOCKED: TER
DOCKED: ENDMDL
________________________________________________________________________________


	BEGINNING GENETIC ALGORITHM DOCKING 36 of 100
Run: 36 Seed: 1821647502 340943918 [ Run 36 of 100 GA/GALS ]
Beginning LAMARCKIAN GENETIC ALGORITHM (LGA), with a maximum of 25000000 energy evaluations.

Final-Value: -8.023


	FINAL GENETIC ALGORITHM DOCKED STATE
	_______________________________________________


Detailed state:  trans -19.061 3.362 0.161 quatxyzw 0.682735 0.541595 -0.435044 -0.226461 center 0.015 0.083 0.031 ntor 6 164.1079 18.9787 -135.4053 22.5226 10.7557 -110.7760
State:	-19.061   3.362   0.161   0.701  0.556 -0.447 -153.822    164.11   18.98 -135.41   22.52   10.76 -110.78

DOCKED: MODEL       36
DOCKED: USER    Run = 36
DOCKED: USER    DPF = D:/Protein_go_brrr/autodock/final/AncMH_nat/2_3_BPG/dock.dpf
DOCKED: USER  
DOCKED: USER    Estimated Free Energy of Binding    =   -8.37 kcal/mol  [=(1)+(2)+(3)-(4)]
DOCKED: USER    Estimated Inhibition Constant, Ki   =  726.82 nM (nanomolar)  [Temperature = 298.15 K]
DOCKED: USER    
DOCKED: USER    (1) Final Intermolecular Energy     =  -10.16 kcal/mol
DOCKED: USER        vdW + Hbond + desolv Energy     =   -2.50 kcal/mol
DOCKED: USER        Electrostatic Energy            =   -7.66 kcal/mol
DOCKED: USER    (2) Final Total Internal Energy     =   +2.14 kcal/mol
DOCKED: USER    (3) Torsional Free Energy           =   +1.79 kcal/mol
DOCKED: USER    (4) Unbound System's Energy  [=(2)] =   +2.14 kcal/mol
DOCKED: USER    
DOCKED: USER    
DOCKED: USER    NEWDPF move 2_3_BPG_opt.pdbqt
DOCKED: USER    NEWDPF about 0.015000 0.083000 0.031000
DOCKED: USER    NEWDPF tran0 -19.060573 3.362007 0.160837
DOCKED: USER    NEWDPF quaternion0 0.682735 0.541595 -0.435044 -0.226461
DOCKED: USER    NEWDPF axisangle0 0.700945 0.556041 -0.446648 -153.822426
DOCKED: USER    NEWDPF quat0 0.700945 0.556041 -0.446648 -153.822426
DOCKED: USER    NEWDPF dihe0 164.11 18.98 -135.41 22.52 10.76 -110.78 
DOCKED: USER  keepresnum = 1 
DOCKED: USER  
DOCKED: REMARK  6 active torsions:
DOCKED: REMARK  status: ('A' for Active; 'I' for Inactive)
DOCKED: REMARK    1  A    between atoms: P_1  and  O_3 
DOCKED: REMARK    2  A    between atoms: P_2  and  O_4 
DOCKED: REMARK    3  A    between atoms: O_3  and  C_13 
DOCKED: REMARK    4  A    between atoms: O_4  and  C_14 
DOCKED: REMARK    5  A    between atoms: C_13  and  C_14 
DOCKED: REMARK    6  A    between atoms: C_13  and  C_15 
DOCKED: USER                              x       y       z     vdW  Elec       q    Type
DOCKED: USER                           _______ _______ _______ _____ _____    ______ ____
DOCKED: ROOT
DOCKED: ATOM      1  C   UNL d   1     -19.406   3.068   0.655 -0.11 +0.28    +0.193 C 
DOCKED: ENDROOT
DOCKED: BRANCH   1   2
DOCKED: ATOM      2  O   UNL d   1     -18.471   2.753   1.741 -0.64 -0.84    -0.356 OA
DOCKED: BRANCH   2   3
DOCKED: ATOM      3  P   UNL d   1     -18.020   1.219   2.127 -0.11 -0.03    -0.014 P 
DOCKED: ATOM      4  O   UNL d   1     -17.371   1.348   3.514 -0.18 -1.01    -0.577 OA
DOCKED: ATOM      5  O   UNL d   1     -17.011   0.765   1.074 -0.39 -1.31    -0.577 OA
DOCKED: ATOM      6  O   UNL d   1     -19.277   0.357   2.175 -0.08 -1.00    -0.638 OA
DOCKED: ENDBRANCH   2   3
DOCKED: ENDBRANCH   1   2
DOCKED: BRANCH   1   7
DOCKED: ATOM      7  C   UNL d   1     -18.682   4.009  -0.377 -0.09 +0.21    +0.201 C 
DOCKED: BRANCH   7   8
DOCKED: ATOM      8  O   UNL d   1     -17.370   3.583  -0.807 -0.23 -0.60    -0.364 OA
DOCKED: BRANCH   8   9
DOCKED: ATOM      9  P   UNL d   1     -16.377   4.635  -1.609 -0.05 -0.02    -0.015 P 
DOCKED: ATOM     10  O   UNL d   1     -16.434   5.935  -0.798 -0.07 -0.47    -0.577 OA
DOCKED: ATOM     11  O   UNL d   1     -16.955   4.812  -3.013 +0.00 -0.30    -0.577 OA
DOCKED: ATOM     12  O   UNL d   1     -14.977   4.021  -1.612 -0.40 -1.14    -0.638 OA
DOCKED: ENDBRANCH   8   9
DOCKED: ENDBRANCH   7   8
DOCKED: ENDBRANCH   1   7
DOCKED: BRANCH   1  13
DOCKED: ATOM     13  C   UNL d   1     -20.663   3.822   1.228 -0.01 +0.11    +0.073 C 
DOCKED: ATOM     14  O   UNL d   1     -21.814   3.559   0.730 -0.01 -0.51    -0.547 OA
DOCKED: ATOM     15  O   UNL d   1     -20.465   4.619   2.215 -0.14 -1.04    -0.547 OA
DOCKED: ENDBRANCH   1  13
DOCKED: TORSDOF 6
DOCKED: TER
DOCKED: ENDMDL
________________________________________________________________________________


	BEGINNING GENETIC ALGORITHM DOCKING 37 of 100
Run: 37 Seed: 866287953 1810815296 [ Run 37 of 100 GA/GALS ]
Beginning LAMARCKIAN GENETIC ALGORITHM (LGA), with a maximum of 25000000 energy evaluations.

Final-Value: -9.030


	FINAL GENETIC ALGORITHM DOCKED STATE
	_______________________________________________


Detailed state:  trans -15.418 -0.837 1.501 quatxyzw -0.178452 0.945093 -0.240870 0.130134 center 0.015 0.083 0.031 ntor 6 14.9648 -126.6315 -129.4343 -1.5955 22.1421 -110.2126
State:	-15.418  -0.837   1.501  -0.180  0.953 -0.243 165.045     14.96 -126.63 -129.43   -1.60   22.14 -110.21

DOCKED: MODEL       37
DOCKED: USER    Run = 37
DOCKED: USER    DPF = D:/Protein_go_brrr/autodock/final/AncMH_nat/2_3_BPG/dock.dpf
DOCKED: USER  
DOCKED: USER    Estimated Free Energy of Binding    =   -9.37 kcal/mol  [=(1)+(2)+(3)-(4)]
DOCKED: USER    Estimated Inhibition Constant, Ki   =  135.48 nM (nanomolar)  [Temperature = 298.15 K]
DOCKED: USER    
DOCKED: USER    (1) Final Intermolecular Energy     =  -11.16 kcal/mol
DOCKED: USER        vdW + Hbond + desolv Energy     =   -3.43 kcal/mol
DOCKED: USER        Electrostatic Energy            =   -7.73 kcal/mol
DOCKED: USER    (2) Final Total Internal Energy     =   +2.13 kcal/mol
DOCKED: USER    (3) Torsional Free Energy           =   +1.79 kcal/mol
DOCKED: USER    (4) Unbound System's Energy  [=(2)] =   +2.13 kcal/mol
DOCKED: USER    
DOCKED: USER    
DOCKED: USER    NEWDPF move 2_3_BPG_opt.pdbqt
DOCKED: USER    NEWDPF about 0.015000 0.083000 0.031000
DOCKED: USER    NEWDPF tran0 -15.417509 -0.836866 1.500581
DOCKED: USER    NEWDPF quaternion0 -0.178452 0.945093 -0.240870 0.130134
DOCKED: USER    NEWDPF axisangle0 -0.179983 0.953199 -0.242936 165.045322
DOCKED: USER    NEWDPF quat0 -0.179983 0.953199 -0.242936 165.045322
DOCKED: USER    NEWDPF dihe0 14.96 -126.63 -129.43 -1.60 22.14 -110.21 
DOCKED: USER  keepresnum = 1 
DOCKED: USER  
DOCKED: REMARK  6 active torsions:
DOCKED: REMARK  status: ('A' for Active; 'I' for Inactive)
DOCKED: REMARK    1  A    between atoms: P_1  and  O_3 
DOCKED: REMARK    2  A    between atoms: P_2  and  O_4 
DOCKED: REMARK    3  A    between atoms: O_3  and  C_13 
DOCKED: REMARK    4  A    between atoms: O_4  and  C_14 
DOCKED: REMARK    5  A    between atoms: C_13  and  C_14 
DOCKED: REMARK    6  A    between atoms: C_13  and  C_15 
DOCKED: USER                              x       y       z     vdW  Elec       q    Type
DOCKED: USER                           _______ _______ _______ _____ _____    ______ ____
DOCKED: ROOT
DOCKED: ATOM      1  C   UNL d   1     -14.779  -0.979   1.355 -0.18 +0.25    +0.193 C 
DOCKED: ENDROOT
DOCKED: BRANCH   1   2
DOCKED: ATOM      2  O   UNL d   1     -14.048   0.287   1.226 -0.09 -0.66    -0.356 OA
DOCKED: BRANCH   2   3
DOCKED: ATOM      3  P   UNL d   1     -13.012   0.610  -0.010 -0.09 -0.02    -0.014 P 
DOCKED: ATOM      4  O   UNL d   1     -13.800   0.241  -1.276 -0.03 -0.70    -0.577 OA
DOCKED: ATOM      5  O   UNL d   1     -11.792  -0.290   0.175 -0.03 -0.44    -0.577 OA
DOCKED: ATOM      6  O   UNL d   1     -12.681   2.098   0.030 -0.45 -1.23    -0.638 OA
DOCKED: ENDBRANCH   2   3
DOCKED: ENDBRANCH   1   2
DOCKED: BRANCH   1   7
DOCKED: ATOM      7  C   UNL d   1     -16.193  -0.684   1.977 -0.12 +0.26    +0.201 C 
DOCKED: BRANCH   7   8
DOCKED: ATOM      8  O   UNL d   1     -16.944   0.384   1.359 -0.54 -0.69    -0.364 OA
DOCKED: BRANCH   8   9
DOCKED: ATOM      9  P   UNL d   1     -18.090   1.203   2.226 -0.09 -0.03    -0.015 P 
DOCKED: ATOM     10  O   UNL d   1     -17.371   1.668   3.498 -0.22 -1.09    -0.577 OA
DOCKED: ATOM     11  O   UNL d   1     -19.211   0.210   2.534 -0.07 -0.91    -0.577 OA
DOCKED: ATOM     12  O   UNL d   1     -18.552   2.379   1.366 -0.57 -1.31    -0.638 OA
DOCKED: ENDBRANCH   8   9
DOCKED: ENDBRANCH   7   8
DOCKED: ENDBRANCH   1   7
DOCKED: BRANCH   1  13
DOCKED: ATOM     13  C   UNL d   1     -14.001  -1.957   2.311 -0.26 +0.07    +0.073 C 
DOCKED: ATOM     14  O   UNL d   1     -13.932  -1.667   3.557 -0.03 -0.37    -0.547 OA
DOCKED: ATOM     15  O   UNL d   1     -13.530  -3.031   1.789 -0.67 -0.86    -0.547 OA
DOCKED: ENDBRANCH   1  13
DOCKED: TORSDOF 6
DOCKED: TER
DOCKED: ENDMDL
________________________________________________________________________________


	BEGINNING GENETIC ALGORITHM DOCKING 38 of 100
Run: 38 Seed: 1062506353 373179056 [ Run 38 of 100 GA/GALS ]
Beginning LAMARCKIAN GENETIC ALGORITHM (LGA), with a maximum of 25000000 energy evaluations.

Final-Value: -8.256


	FINAL GENETIC ALGORITHM DOCKED STATE
	_______________________________________________


Detailed state:  trans -15.895 -0.782 1.869 quatxyzw -0.138441 0.080767 0.142906 0.976672 center 0.015 0.083 0.031 ntor 6 -22.1596 -118.2707 -46.8053 23.7110 -4.9522 160.0504
State:	-15.895  -0.782   1.869  -0.645  0.376  0.665 24.800    -22.16 -118.27  -46.81   23.71   -4.95  160.05

DOCKED: MODEL       38
DOCKED: USER    Run = 38
DOCKED: USER    DPF = D:/Protein_go_brrr/autodock/final/AncMH_nat/2_3_BPG/dock.dpf
DOCKED: USER  
DOCKED: USER    Estimated Free Energy of Binding    =   -8.54 kcal/mol  [=(1)+(2)+(3)-(4)]
DOCKED: USER    Estimated Inhibition Constant, Ki   =  548.46 nM (nanomolar)  [Temperature = 298.15 K]
DOCKED: USER    
DOCKED: USER    (1) Final Intermolecular Energy     =  -10.33 kcal/mol
DOCKED: USER        vdW + Hbond + desolv Energy     =   -2.82 kcal/mol
DOCKED: USER        Electrostatic Energy            =   -7.51 kcal/mol
DOCKED: USER    (2) Final Total Internal Energy     =   +2.08 kcal/mol
DOCKED: USER    (3) Torsional Free Energy           =   +1.79 kcal/mol
DOCKED: USER    (4) Unbound System's Energy  [=(2)] =   +2.08 kcal/mol
DOCKED: USER    
DOCKED: USER    
DOCKED: USER    NEWDPF move 2_3_BPG_opt.pdbqt
DOCKED: USER    NEWDPF about 0.015000 0.083000 0.031000
DOCKED: USER    NEWDPF tran0 -15.895090 -0.782120 1.868949
DOCKED: USER    NEWDPF quaternion0 -0.138441 0.080767 0.142906 0.976672
DOCKED: USER    NEWDPF axisangle0 -0.644706 0.376122 0.665497 24.800017
DOCKED: USER    NEWDPF quat0 -0.644706 0.376122 0.665497 24.800017
DOCKED: USER    NEWDPF dihe0 -22.16 -118.27 -46.81 23.71 -4.95 160.05 
DOCKED: USER  keepresnum = 1 
DOCKED: USER  
DOCKED: REMARK  6 active torsions:
DOCKED: REMARK  status: ('A' for Active; 'I' for Inactive)
DOCKED: REMARK    1  A    between atoms: P_1  and  O_3 
DOCKED: REMARK    2  A    between atoms: P_2  and  O_4 
DOCKED: REMARK    3  A    between atoms: O_3  and  C_13 
DOCKED: REMARK    4  A    between atoms: O_4  and  C_14 
DOCKED: REMARK    5  A    between atoms: C_13  and  C_14 
DOCKED: REMARK    6  A    between atoms: C_13  and  C_15 
DOCKED: USER                              x       y       z     vdW  Elec       q    Type
DOCKED: USER                           _______ _______ _______ _____ _____    ______ ____
DOCKED: ROOT
DOCKED: ATOM      1  C   UNL d   1     -16.548  -0.916   1.796 -0.10 +0.23    +0.193 C 
DOCKED: ENDROOT
DOCKED: BRANCH   1   2
DOCKED: ATOM      2  O   UNL d   1     -17.210   0.295   1.296 -0.47 -0.61    -0.356 OA
DOCKED: BRANCH   2   3
DOCKED: ATOM      3  P   UNL d   1     -18.218   1.216   2.212 -0.06 -0.03    -0.014 P 
DOCKED: ATOM      4  O   UNL d   1     -17.365   1.631   3.422 -0.22 -1.09    -0.577 OA
DOCKED: ATOM      5  O   UNL d   1     -19.389   0.329   2.629 -0.06 -1.00    -0.577 OA
DOCKED: ATOM      6  O   UNL d   1     -18.636   2.425   1.382 -0.60 -1.32    -0.638 OA
DOCKED: ENDBRANCH   2   3
DOCKED: ENDBRANCH   1   2
DOCKED: BRANCH   1   7
DOCKED: ATOM      7  C   UNL d   1     -14.991  -0.718   1.697 -0.17 +0.27    +0.201 C 
DOCKED: BRANCH   7   8
DOCKED: ATOM      8  O   UNL d   1     -14.514  -0.061   0.501 -0.20 -0.66    -0.364 OA
DOCKED: BRANCH   8   9
DOCKED: ATOM      9  P   UNL d   1     -12.899   0.244   0.310 -0.29 -0.02    -0.015 P 
DOCKED: ATOM     10  O   UNL d   1     -12.585  -0.166  -1.134 -0.01 -0.51    -0.577 OA
DOCKED: ATOM     11  O   UNL d   1     -12.158  -0.627   1.324 -0.03 -0.46    -0.577 OA
DOCKED: ATOM     12  O   UNL d   1     -12.691   1.740   0.540 -0.44 -1.24    -0.638 OA
DOCKED: ENDBRANCH   8   9
DOCKED: ENDBRANCH   7   8
DOCKED: ENDBRANCH   1   7
DOCKED: BRANCH   1  13
DOCKED: ATOM     13  C   UNL d   1     -16.956  -2.156   0.917 -0.11 +0.08    +0.073 C 
DOCKED: ATOM     14  O   UNL d   1     -17.209  -1.968  -0.325 -0.04 -0.56    -0.547 OA
DOCKED: ATOM     15  O   UNL d   1     -16.949  -3.304   1.491 -0.00 -0.59    -0.547 OA
DOCKED: ENDBRANCH   1  13
DOCKED: TORSDOF 6
DOCKED: TER
DOCKED: ENDMDL
________________________________________________________________________________


	BEGINNING GENETIC ALGORITHM DOCKING 39 of 100
Run: 39 Seed: 1866631809 961111612 [ Run 39 of 100 GA/GALS ]
Beginning LAMARCKIAN GENETIC ALGORITHM (LGA), with a maximum of 25000000 energy evaluations.

Final-Value: -8.752


	FINAL GENETIC ALGORITHM DOCKED STATE
	_______________________________________________


Detailed state:  trans -15.592 -0.760 2.178 quatxyzw 0.054086 -0.978702 0.003739 -0.197998 center 0.015 0.083 0.031 ntor 6 -93.5359 -158.0238 112.9059 -2.9036 -78.4848 -107.3104
State:	-15.592  -0.760   2.178   0.055 -0.998  0.004 -157.160    -93.54 -158.02  112.91   -2.90  -78.48 -107.31

DOCKED: MODEL       39
DOCKED: USER    Run = 39
DOCKED: USER    DPF = D:/Protein_go_brrr/autodock/final/AncMH_nat/2_3_BPG/dock.dpf
DOCKED: USER  
DOCKED: USER    Estimated Free Energy of Binding    =   -9.31 kcal/mol  [=(1)+(2)+(3)-(4)]
DOCKED: USER    Estimated Inhibition Constant, Ki   =  150.61 nM (nanomolar)  [Temperature = 298.15 K]
DOCKED: USER    
DOCKED: USER    (1) Final Intermolecular Energy     =  -11.10 kcal/mol
DOCKED: USER        vdW + Hbond + desolv Energy     =   -3.22 kcal/mol
DOCKED: USER        Electrostatic Energy            =   -7.88 kcal/mol
DOCKED: USER    (2) Final Total Internal Energy     =   +2.35 kcal/mol
DOCKED: USER    (3) Torsional Free Energy           =   +1.79 kcal/mol
DOCKED: USER    (4) Unbound System's Energy  [=(2)] =   +2.35 kcal/mol
DOCKED: USER    
DOCKED: USER    
DOCKED: USER    NEWDPF move 2_3_BPG_opt.pdbqt
DOCKED: USER    NEWDPF about 0.015000 0.083000 0.031000
DOCKED: USER    NEWDPF tran0 -15.592103 -0.760044 2.178005
DOCKED: USER    NEWDPF quaternion0 0.054086 -0.978702 0.003739 -0.197998
DOCKED: USER    NEWDPF axisangle0 0.055179 -0.998469 0.003815 -157.160149
DOCKED: USER    NEWDPF quat0 0.055179 -0.998469 0.003815 -157.160149
DOCKED: USER    NEWDPF dihe0 -93.54 -158.02 112.91 -2.90 -78.48 -107.31 
DOCKED: USER  keepresnum = 1 
DOCKED: USER  
DOCKED: REMARK  6 active torsions:
DOCKED: REMARK  status: ('A' for Active; 'I' for Inactive)
DOCKED: REMARK    1  A    between atoms: P_1  and  O_3 
DOCKED: REMARK    2  A    between atoms: P_2  and  O_4 
DOCKED: REMARK    3  A    between atoms: O_3  and  C_13 
DOCKED: REMARK    4  A    between atoms: O_4  and  C_14 
DOCKED: REMARK    5  A    between atoms: C_13  and  C_14 
DOCKED: REMARK    6  A    between atoms: C_13  and  C_15 
DOCKED: USER                              x       y       z     vdW  Elec       q    Type
DOCKED: USER                           _______ _______ _______ _____ _____    ______ ____
DOCKED: ROOT
DOCKED: ATOM      1  C   UNL d   1     -15.058  -1.012   1.861 -0.17 +0.23    +0.193 C 
DOCKED: ENDROOT
DOCKED: BRANCH   1   2
DOCKED: ATOM      2  O   UNL d   1     -13.933  -0.090   2.057 -0.14 -0.46    -0.356 OA
DOCKED: BRANCH   2   3
DOCKED: ATOM      3  P   UNL d   1     -12.920   0.368   0.846 -0.28 -0.02    -0.014 P 
DOCKED: ATOM      4  O   UNL d   1     -13.683   0.025  -0.443 -0.05 -0.80    -0.577 OA
DOCKED: ATOM      5  O   UNL d   1     -11.646  -0.463   0.983 -0.03 -0.40    -0.577 OA
DOCKED: ATOM      6  O   UNL d   1     -12.682   1.869   0.973 -0.42 -1.25    -0.638 OA
DOCKED: ENDBRANCH   2   3
DOCKED: ENDBRANCH   1   2
DOCKED: BRANCH   1   7
DOCKED: ATOM      7  C   UNL d   1     -16.227  -0.595   2.828 -0.13 +0.22    +0.201 C 
DOCKED: BRANCH   7   8
DOCKED: ATOM      8  O   UNL d   1     -16.631   0.790   2.769 -0.20 -0.62    -0.364 OA
DOCKED: BRANCH   8   9
DOCKED: ATOM      9  P   UNL d   1     -18.036   1.213   2.005 -0.12 -0.03    -0.015 P 
DOCKED: ATOM     10  O   UNL d   1     -17.810   0.858   0.530 -0.30 -0.95    -0.577 OA
DOCKED: ATOM     11  O   UNL d   1     -18.219   2.717   2.208 -0.54 -1.50    -0.577 OA
DOCKED: ATOM     12  O   UNL d   1     -19.156   0.384   2.630 -0.08 -1.10    -0.638 OA
DOCKED: ENDBRANCH   8   9
DOCKED: ENDBRANCH   7   8
DOCKED: ENDBRANCH   1   7
DOCKED: BRANCH   1  13
DOCKED: ATOM     13  C   UNL d   1     -14.617  -2.483   2.206 -0.09 +0.08    +0.073 C 
DOCKED: ATOM     14  O   UNL d   1     -13.450  -2.872   1.848 -0.67 -0.78    -0.547 OA
DOCKED: ATOM     15  O   UNL d   1     -15.440  -3.192   2.890 +0.01 -0.51    -0.547 OA
DOCKED: ENDBRANCH   1  13
DOCKED: TORSDOF 6
DOCKED: TER
DOCKED: ENDMDL
________________________________________________________________________________


	BEGINNING GENETIC ALGORITHM DOCKING 40 of 100
Run: 40 Seed: 2024338883 361230303 [ Run 40 of 100 GA/GALS ]
Beginning LAMARCKIAN GENETIC ALGORITHM (LGA), with a maximum of 25000000 energy evaluations.

Final-Value: -8.325


	FINAL GENETIC ALGORITHM DOCKED STATE
	_______________________________________________


Detailed state:  trans -16.239 -0.868 1.516 quatxyzw 0.420200 -0.269628 -0.144935 -0.854240 center 0.015 0.083 0.031 ntor 6 163.0636 -107.6109 -158.2065 48.8389 37.7872 180.0000
State:	-16.239  -0.868   1.516   0.808 -0.519 -0.279 -62.648    163.06 -107.61 -158.21   48.84   37.79  180.00

DOCKED: MODEL       40
DOCKED: USER    Run = 40
DOCKED: USER    DPF = D:/Protein_go_brrr/autodock/final/AncMH_nat/2_3_BPG/dock.dpf
DOCKED: USER  
DOCKED: USER    Estimated Free Energy of Binding    =   -8.77 kcal/mol  [=(1)+(2)+(3)-(4)]
DOCKED: USER    Estimated Inhibition Constant, Ki   =  371.00 nM (nanomolar)  [Temperature = 298.15 K]
DOCKED: USER    
DOCKED: USER    (1) Final Intermolecular Energy     =  -10.56 kcal/mol
DOCKED: USER        vdW + Hbond + desolv Energy     =   -2.83 kcal/mol
DOCKED: USER        Electrostatic Energy            =   -7.74 kcal/mol
DOCKED: USER    (2) Final Total Internal Energy     =   +2.24 kcal/mol
DOCKED: USER    (3) Torsional Free Energy           =   +1.79 kcal/mol
DOCKED: USER    (4) Unbound System's Energy  [=(2)] =   +2.24 kcal/mol
DOCKED: USER    
DOCKED: USER    
DOCKED: USER    NEWDPF move 2_3_BPG_opt.pdbqt
DOCKED: USER    NEWDPF about 0.015000 0.083000 0.031000
DOCKED: USER    NEWDPF tran0 -16.238904 -0.867803 1.516308
DOCKED: USER    NEWDPF quaternion0 0.420200 -0.269628 -0.144935 -0.854240
DOCKED: USER    NEWDPF axisangle0 0.808266 -0.518637 -0.278787 -62.648172
DOCKED: USER    NEWDPF quat0 0.808266 -0.518637 -0.278787 -62.648172
DOCKED: USER    NEWDPF dihe0 163.06 -107.61 -158.21 48.84 37.79 180.00 
DOCKED: USER  keepresnum = 1 
DOCKED: USER  
DOCKED: REMARK  6 active torsions:
DOCKED: REMARK  status: ('A' for Active; 'I' for Inactive)
DOCKED: REMARK    1  A    between atoms: P_1  and  O_3 
DOCKED: REMARK    2  A    between atoms: P_2  and  O_4 
DOCKED: REMARK    3  A    between atoms: O_3  and  C_13 
DOCKED: REMARK    4  A    between atoms: O_4  and  C_14 
DOCKED: REMARK    5  A    between atoms: C_13  and  C_14 
DOCKED: REMARK    6  A    between atoms: C_13  and  C_15 
DOCKED: USER                              x       y       z     vdW  Elec       q    Type
DOCKED: USER                           _______ _______ _______ _____ _____    ______ ____
DOCKED: ROOT
DOCKED: ATOM      1  C   UNL d   1     -16.776  -0.838   1.116 -0.09 +0.24    +0.193 C 
DOCKED: ENDROOT
DOCKED: BRANCH   1   2
DOCKED: ATOM      2  O   UNL d   1     -17.238   0.554   1.073 -0.50 -0.67    -0.356 OA
DOCKED: BRANCH   2   3
DOCKED: ATOM      3  P   UNL d   1     -18.219   1.215   2.215 -0.06 -0.03    -0.014 P 
DOCKED: ATOM      4  O   UNL d   1     -17.347   1.281   3.478 -0.17 -0.99    -0.577 OA
DOCKED: ATOM      5  O   UNL d   1     -19.403   0.267   2.398 -0.06 -0.92    -0.577 OA
DOCKED: ATOM      6  O   UNL d   1     -18.624   2.607   1.740 -0.59 -1.54    -0.638 OA
DOCKED: ENDBRANCH   2   3
DOCKED: ENDBRANCH   1   2
DOCKED: BRANCH   1   7
DOCKED: ATOM      7  C   UNL d   1     -15.362  -0.880   1.805 -0.15 +0.25    +0.201 C 
DOCKED: BRANCH   7   8
DOCKED: ATOM      8  O   UNL d   1     -14.630   0.365   1.818 -0.11 -0.70    -0.364 OA
DOCKED: BRANCH   8   9
DOCKED: ATOM      9  P   UNL d   1     -13.001   0.374   1.529 -0.33 -0.02    -0.015 P 
DOCKED: ATOM     10  O   UNL d   1     -12.734  -0.900   0.718 -0.04 -0.57    -0.577 OA
DOCKED: ATOM     11  O   UNL d   1     -12.306   0.341   2.889 -0.04 -0.40    -0.577 OA
DOCKED: ATOM     12  O   UNL d   1     -12.692   1.638   0.729 -0.46 -1.19    -0.638 OA
DOCKED: ENDBRANCH   8   9
DOCKED: ENDBRANCH   7   8
DOCKED: ENDBRANCH   1   7
DOCKED: BRANCH   1  13
DOCKED: ATOM     13  C   UNL d   1     -16.641  -1.407  -0.346 -0.13 +0.08    +0.073 C 
DOCKED: ATOM     14  O   UNL d   1     -16.954  -2.632  -0.556 -0.03 -0.66    -0.547 OA
DOCKED: ATOM     15  O   UNL d   1     -16.282  -0.583  -1.261 -0.05 -0.62    -0.547 OA
DOCKED: ENDBRANCH   1  13
DOCKED: TORSDOF 6
DOCKED: TER
DOCKED: ENDMDL
________________________________________________________________________________


	BEGINNING GENETIC ALGORITHM DOCKING 41 of 100
Run: 41 Seed: 2004321330 79055173 [ Run 41 of 100 GA/GALS ]
Beginning LAMARCKIAN GENETIC ALGORITHM (LGA), with a maximum of 25000000 energy evaluations.

Final-Value: -8.906


	FINAL GENETIC ALGORITHM DOCKED STATE
	_______________________________________________


Detailed state:  trans -15.610 -1.025 1.187 quatxyzw -0.184596 0.941381 -0.273013 0.072043 center 0.015 0.083 0.031 ntor 6 -161.0749 -116.4723 -125.0307 -1.3401 21.0892 -138.3314
State:	-15.610  -1.025   1.187  -0.185  0.944 -0.274 171.737   -161.07 -116.47 -125.03   -1.34   21.09 -138.33

DOCKED: MODEL       41
DOCKED: USER    Run = 41
DOCKED: USER    DPF = D:/Protein_go_brrr/autodock/final/AncMH_nat/2_3_BPG/dock.dpf
DOCKED: USER  
DOCKED: USER    Estimated Free Energy of Binding    =   -9.31 kcal/mol  [=(1)+(2)+(3)-(4)]
DOCKED: USER    Estimated Inhibition Constant, Ki   =  151.08 nM (nanomolar)  [Temperature = 298.15 K]
DOCKED: USER    
DOCKED: USER    (1) Final Intermolecular Energy     =  -11.09 kcal/mol
DOCKED: USER        vdW + Hbond + desolv Energy     =   -3.37 kcal/mol
DOCKED: USER        Electrostatic Energy            =   -7.73 kcal/mol
DOCKED: USER    (2) Final Total Internal Energy     =   +2.19 kcal/mol
DOCKED: USER    (3) Torsional Free Energy           =   +1.79 kcal/mol
DOCKED: USER    (4) Unbound System's Energy  [=(2)] =   +2.19 kcal/mol
DOCKED: USER    
DOCKED: USER    
DOCKED: USER    NEWDPF move 2_3_BPG_opt.pdbqt
DOCKED: USER    NEWDPF about 0.015000 0.083000 0.031000
DOCKED: USER    NEWDPF tran0 -15.609790 -1.024977 1.186514
DOCKED: USER    NEWDPF quaternion0 -0.184596 0.941381 -0.273013 0.072043
DOCKED: USER    NEWDPF axisangle0 -0.185077 0.943834 -0.273724 171.737378
DOCKED: USER    NEWDPF quat0 -0.185077 0.943834 -0.273724 171.737378
DOCKED: USER    NEWDPF dihe0 -161.07 -116.47 -125.03 -1.34 21.09 -138.33 
DOCKED: USER  keepresnum = 1 
DOCKED: USER  
DOCKED: REMARK  6 active torsions:
DOCKED: REMARK  status: ('A' for Active; 'I' for Inactive)
DOCKED: REMARK    1  A    between atoms: P_1  and  O_3 
DOCKED: REMARK    2  A    between atoms: P_2  and  O_4 
DOCKED: REMARK    3  A    between atoms: O_3  and  C_13 
DOCKED: REMARK    4  A    between atoms: O_4  and  C_14 
DOCKED: REMARK    5  A    between atoms: C_13  and  C_14 
DOCKED: REMARK    6  A    between atoms: C_13  and  C_15 
DOCKED: USER                              x       y       z     vdW  Elec       q    Type
DOCKED: USER                           _______ _______ _______ _____ _____    ______ ____
DOCKED: ROOT
DOCKED: ATOM      1  C   UNL d   1     -14.952  -1.139   1.122 -0.17 +0.25    +0.193 C 
DOCKED: ENDROOT
DOCKED: BRANCH   1   2
DOCKED: ATOM      2  O   UNL d   1     -14.271   0.157   1.025 -0.07 -0.68    -0.356 OA
DOCKED: BRANCH   2   3
DOCKED: ATOM      3  P   UNL d   1     -13.117   0.489  -0.099 -0.16 -0.02    -0.014 P 
DOCKED: ATOM      4  O   UNL d   1     -13.826   0.283  -1.447 -0.03 -0.67    -0.577 OA
DOCKED: ATOM      5  O   UNL d   1     -11.988  -0.519   0.101 -0.03 -0.47    -0.577 OA
DOCKED: ATOM      6  O   UNL d   1     -12.680   1.938   0.089 -0.46 -1.21    -0.638 OA
DOCKED: ENDBRANCH   2   3
DOCKED: ENDBRANCH   1   2
DOCKED: BRANCH   1   7
DOCKED: ATOM      7  C   UNL d   1     -16.442  -0.894   1.563 -0.10 +0.25    +0.201 C 
DOCKED: BRANCH   7   8
DOCKED: ATOM      8  O   UNL d   1     -16.962   0.432   1.320 -0.53 -0.70    -0.364 OA
DOCKED: BRANCH   8   9
DOCKED: ATOM      9  P   UNL d   1     -18.223   1.007   2.223 -0.12 -0.03    -0.015 P 
DOCKED: ATOM     10  O   UNL d   1     -17.744   0.922   3.678 -0.14 -0.95    -0.577 OA
DOCKED: ATOM     11  O   UNL d   1     -19.416   0.087   1.961 -0.03 -0.78    -0.577 OA
DOCKED: ATOM     12  O   UNL d   1     -18.472   2.449   1.784 -0.61 -1.53    -0.638 OA
DOCKED: ENDBRANCH   8   9
DOCKED: ENDBRANCH   7   8
DOCKED: ENDBRANCH   1   7
DOCKED: BRANCH   1  13
DOCKED: ATOM     13  C   UNL d   1     -14.248  -2.040   2.204 -0.24 +0.08    +0.073 C 
DOCKED: ATOM     14  O   UNL d   1     -13.544  -3.034   1.807 -0.66 -0.86    -0.547 OA
DOCKED: ATOM     15  O   UNL d   1     -14.371  -1.681   3.430 -0.02 -0.40    -0.547 OA
DOCKED: ENDBRANCH   1  13
DOCKED: TORSDOF 6
DOCKED: TER
DOCKED: ENDMDL
________________________________________________________________________________


	BEGINNING GENETIC ALGORITHM DOCKING 42 of 100
Run: 42 Seed: 753094208 1157627347 [ Run 42 of 100 GA/GALS ]
Beginning LAMARCKIAN GENETIC ALGORITHM (LGA), with a maximum of 25000000 energy evaluations.

Final-Value: -9.013


	FINAL GENETIC ALGORITHM DOCKED STATE
	_______________________________________________


Detailed state:  trans -14.989 -0.488 1.901 quatxyzw -0.001620 -0.983097 0.096182 -0.155777 center 0.015 0.083 0.031 ntor 6 -123.8183 -160.0585 180.0000 29.2948 -8.6870 -50.5664
State:	-14.989  -0.488   1.901  -0.002 -0.995  0.097 -162.076   -123.82 -160.06  180.00   29.29   -8.69  -50.57

DOCKED: MODEL       42
DOCKED: USER    Run = 42
DOCKED: USER    DPF = D:/Protein_go_brrr/autodock/final/AncMH_nat/2_3_BPG/dock.dpf
DOCKED: USER  
DOCKED: USER    Estimated Free Energy of Binding    =   -9.23 kcal/mol  [=(1)+(2)+(3)-(4)]
DOCKED: USER    Estimated Inhibition Constant, Ki   =  172.84 nM (nanomolar)  [Temperature = 298.15 K]
DOCKED: USER    
DOCKED: USER    (1) Final Intermolecular Energy     =  -11.02 kcal/mol
DOCKED: USER        vdW + Hbond + desolv Energy     =   -3.71 kcal/mol
DOCKED: USER        Electrostatic Energy            =   -7.31 kcal/mol
DOCKED: USER    (2) Final Total Internal Energy     =   +2.00 kcal/mol
DOCKED: USER    (3) Torsional Free Energy           =   +1.79 kcal/mol
DOCKED: USER    (4) Unbound System's Energy  [=(2)] =   +2.00 kcal/mol
DOCKED: USER    
DOCKED: USER    
DOCKED: USER    NEWDPF move 2_3_BPG_opt.pdbqt
DOCKED: USER    NEWDPF about 0.015000 0.083000 0.031000
DOCKED: USER    NEWDPF tran0 -14.988605 -0.487500 1.900705
DOCKED: USER    NEWDPF quaternion0 -0.001620 -0.983097 0.096182 -0.155777
DOCKED: USER    NEWDPF axisangle0 -0.001640 -0.995247 0.097370 -162.076233
DOCKED: USER    NEWDPF quat0 -0.001640 -0.995247 0.097370 -162.076233
DOCKED: USER    NEWDPF dihe0 -123.82 -160.06 180.00 29.29 -8.69 -50.57 
DOCKED: USER  keepresnum = 1 
DOCKED: USER  
DOCKED: REMARK  6 active torsions:
DOCKED: REMARK  status: ('A' for Active; 'I' for Inactive)
DOCKED: REMARK    1  A    between atoms: P_1  and  O_3 
DOCKED: REMARK    2  A    between atoms: P_2  and  O_4 
DOCKED: REMARK    3  A    between atoms: O_3  and  C_13 
DOCKED: REMARK    4  A    between atoms: O_4  and  C_14 
DOCKED: REMARK    5  A    between atoms: C_13  and  C_14 
DOCKED: REMARK    6  A    between atoms: C_13  and  C_15 
DOCKED: USER                              x       y       z     vdW  Elec       q    Type
DOCKED: USER                           _______ _______ _______ _____ _____    ______ ____
DOCKED: ROOT
DOCKED: ATOM      1  C   UNL d   1     -14.451  -0.831   1.694 -0.20 +0.24    +0.193 C 
DOCKED: ENDROOT
DOCKED: BRANCH   1   2
DOCKED: ATOM      2  O   UNL d   1     -13.276   0.039   1.821 -0.15 -0.42    -0.356 OA
DOCKED: BRANCH   2   3
DOCKED: ATOM      3  P   UNL d   1     -12.568   0.793   0.542 -0.24 -0.02    -0.014 P 
DOCKED: ATOM      4  O   UNL d   1     -13.614   0.706  -0.580 -0.07 -0.96    -0.577 OA
DOCKED: ATOM      5  O   UNL d   1     -11.306   0.006   0.196 -0.03 -0.37    -0.577 OA
DOCKED: ATOM      6  O   UNL d   1     -12.294   2.239   0.941 -0.55 -0.97    -0.638 OA
DOCKED: ENDBRANCH   2   3
DOCKED: ENDBRANCH   1   2
DOCKED: BRANCH   1   7
DOCKED: ATOM      7  C   UNL d   1     -15.662  -0.156   2.439 -0.13 +0.28    +0.201 C 
DOCKED: BRANCH   7   8
DOCKED: ATOM      8  O   UNL d   1     -16.709   0.368   1.593 -0.50 -0.70    -0.364 OA
DOCKED: BRANCH   8   9
DOCKED: ATOM      9  P   UNL d   1     -18.094   0.973   2.266 -0.14 -0.03    -0.015 P 
DOCKED: ATOM     10  O   UNL d   1     -17.882   0.863   3.781 -0.10 -0.96    -0.577 OA
DOCKED: ATOM     11  O   UNL d   1     -19.246   0.090   1.786 -0.03 -0.75    -0.577 OA
DOCKED: ATOM     12  O   UNL d   1     -18.221   2.425   1.808 -0.62 -1.49    -0.638 OA
DOCKED: ENDBRANCH   8   9
DOCKED: ENDBRANCH   7   8
DOCKED: ENDBRANCH   1   7
DOCKED: BRANCH   1  13
DOCKED: ATOM     13  C   UNL d   1     -14.163  -2.227   2.361 -0.23 +0.07    +0.073 C 
DOCKED: ATOM     14  O   UNL d   1     -13.330  -3.017   1.792 -0.71 -0.84    -0.547 OA
DOCKED: ATOM     15  O   UNL d   1     -14.741  -2.468   3.482 -0.01 -0.40    -0.547 OA
DOCKED: ENDBRANCH   1  13
DOCKED: TORSDOF 6
DOCKED: TER
DOCKED: ENDMDL
________________________________________________________________________________


	BEGINNING GENETIC ALGORITHM DOCKING 43 of 100
Run: 43 Seed: 99650656 1775848947 [ Run 43 of 100 GA/GALS ]
Beginning LAMARCKIAN GENETIC ALGORITHM (LGA), with a maximum of 25000000 energy evaluations.

Final-Value: -8.688


	FINAL GENETIC ALGORITHM DOCKED STATE
	_______________________________________________


Detailed state:  trans -15.329 -0.808 1.421 quatxyzw -0.142824 0.959550 -0.235215 0.059481 center 0.015 0.083 0.031 ntor 6 20.7722 -145.2386 -143.9588 3.1359 -27.2240 -145.9205
State:	-15.329  -0.808   1.421  -0.143  0.961 -0.236 173.180     20.77 -145.24 -143.96    3.14  -27.22 -145.92

DOCKED: MODEL       43
DOCKED: USER    Run = 43
DOCKED: USER    DPF = D:/Protein_go_brrr/autodock/final/AncMH_nat/2_3_BPG/dock.dpf
DOCKED: USER  
DOCKED: USER    Estimated Free Energy of Binding    =   -9.00 kcal/mol  [=(1)+(2)+(3)-(4)]
DOCKED: USER    Estimated Inhibition Constant, Ki   =  253.40 nM (nanomolar)  [Temperature = 298.15 K]
DOCKED: USER    
DOCKED: USER    (1) Final Intermolecular Energy     =  -10.79 kcal/mol
DOCKED: USER        vdW + Hbond + desolv Energy     =   -3.09 kcal/mol
DOCKED: USER        Electrostatic Energy            =   -7.70 kcal/mol
DOCKED: USER    (2) Final Total Internal Energy     =   +2.10 kcal/mol
DOCKED: USER    (3) Torsional Free Energy           =   +1.79 kcal/mol
DOCKED: USER    (4) Unbound System's Energy  [=(2)] =   +2.10 kcal/mol
DOCKED: USER    
DOCKED: USER    
DOCKED: USER    NEWDPF move 2_3_BPG_opt.pdbqt
DOCKED: USER    NEWDPF about 0.015000 0.083000 0.031000
DOCKED: USER    NEWDPF tran0 -15.329037 -0.807806 1.420884
DOCKED: USER    NEWDPF quaternion0 -0.142824 0.959550 -0.235215 0.059481
DOCKED: USER    NEWDPF axisangle0 -0.143078 0.961252 -0.235632 173.179902
DOCKED: USER    NEWDPF quat0 -0.143078 0.961252 -0.235632 173.179902
DOCKED: USER    NEWDPF dihe0 20.77 -145.24 -143.96 3.14 -27.22 -145.92 
DOCKED: USER  keepresnum = 1 
DOCKED: USER  
DOCKED: REMARK  6 active torsions:
DOCKED: REMARK  status: ('A' for Active; 'I' for Inactive)
DOCKED: REMARK    1  A    between atoms: P_1  and  O_3 
DOCKED: REMARK    2  A    between atoms: P_2  and  O_4 
DOCKED: REMARK    3  A    between atoms: O_3  and  C_13 
DOCKED: REMARK    4  A    between atoms: O_4  and  C_14 
DOCKED: REMARK    5  A    between atoms: C_13  and  C_14 
DOCKED: REMARK    6  A    between atoms: C_13  and  C_15 
DOCKED: USER                              x       y       z     vdW  Elec       q    Type
DOCKED: USER                           _______ _______ _______ _____ _____    ______ ____
DOCKED: ROOT
DOCKED: ATOM      1  C   UNL d   1     -14.681  -0.972   1.368 -0.19 +0.25    +0.193 C 
DOCKED: ENDROOT
DOCKED: BRANCH   1   2
DOCKED: ATOM      2  O   UNL d   1     -13.892   0.265   1.398 -0.13 -0.61    -0.356 OA
DOCKED: BRANCH   2   3
DOCKED: ATOM      3  P   UNL d   1     -12.745   0.632   0.279 -0.21 -0.02    -0.014 P 
DOCKED: ATOM      4  O   UNL d   1     -13.241  -0.040  -1.012 -0.04 -0.63    -0.577 OA
DOCKED: ATOM      5  O   UNL d   1     -11.431   0.021   0.761 -0.02 -0.38    -0.577 OA
DOCKED: ATOM      6  O   UNL d   1     -12.694   2.149   0.136 -0.42 -1.28    -0.638 OA
DOCKED: ENDBRANCH   2   3
DOCKED: ENDBRANCH   1   2
DOCKED: BRANCH   1   7
DOCKED: ATOM      7  C   UNL d   1     -16.162  -0.636   1.780 -0.12 +0.27    +0.201 C 
DOCKED: BRANCH   7   8
DOCKED: ATOM      8  O   UNL d   1     -16.511   0.765   1.792 -0.21 -0.85    -0.364 OA
DOCKED: BRANCH   8   9
DOCKED: ATOM      9  P   UNL d   1     -18.088   1.230   1.613 -0.14 -0.03    -0.015 P 
DOCKED: ATOM     10  O   UNL d   1     -18.901   0.190   2.393 -0.08 -0.86    -0.577 OA
DOCKED: ATOM     11  O   UNL d   1     -18.397   1.190   0.116 -0.06 -0.78    -0.577 OA
DOCKED: ATOM     12  O   UNL d   1     -18.218   2.628   2.214 -0.54 -1.66    -0.638 OA
DOCKED: ENDBRANCH   8   9
DOCKED: ENDBRANCH   7   8
DOCKED: ENDBRANCH   1   7
DOCKED: BRANCH   1  13
DOCKED: ATOM     13  C   UNL d   1     -14.095  -2.011   2.395 -0.25 +0.07    +0.073 C 
DOCKED: ATOM     14  O   UNL d   1     -14.305  -1.821   3.645 -0.02 -0.37    -0.547 OA
DOCKED: ATOM     15  O   UNL d   1     -13.489  -3.033   1.909 -0.67 -0.82    -0.547 OA
DOCKED: ENDBRANCH   1  13
DOCKED: TORSDOF 6
DOCKED: TER
DOCKED: ENDMDL
________________________________________________________________________________


	BEGINNING GENETIC ALGORITHM DOCKING 44 of 100
Run: 44 Seed: 165115752 1655290214 [ Run 44 of 100 GA/GALS ]
Beginning LAMARCKIAN GENETIC ALGORITHM (LGA), with a maximum of 25000000 energy evaluations.

Final-Value: -9.024


	FINAL GENETIC ALGORITHM DOCKED STATE
	_______________________________________________


Detailed state:  trans -15.162 -0.748 1.820 quatxyzw 0.082414 -0.973695 0.151813 -0.148591 center 0.015 0.083 0.031 ntor 6 49.0012 -138.8297 -164.8059 17.4935 -2.8472 -81.0132
State:	-15.162  -0.748   1.820   0.083 -0.985  0.154 -162.909     49.00 -138.83 -164.81   17.49   -2.85  -81.01

DOCKED: MODEL       44
DOCKED: USER    Run = 44
DOCKED: USER    DPF = D:/Protein_go_brrr/autodock/final/AncMH_nat/2_3_BPG/dock.dpf
DOCKED: USER  
DOCKED: USER    Estimated Free Energy of Binding    =   -9.30 kcal/mol  [=(1)+(2)+(3)-(4)]
DOCKED: USER    Estimated Inhibition Constant, Ki   =  152.61 nM (nanomolar)  [Temperature = 298.15 K]
DOCKED: USER    
DOCKED: USER    (1) Final Intermolecular Energy     =  -11.09 kcal/mol
DOCKED: USER        vdW + Hbond + desolv Energy     =   -3.64 kcal/mol
DOCKED: USER        Electrostatic Energy            =   -7.45 kcal/mol
DOCKED: USER    (2) Final Total Internal Energy     =   +2.06 kcal/mol
DOCKED: USER    (3) Torsional Free Energy           =   +1.79 kcal/mol
DOCKED: USER    (4) Unbound System's Energy  [=(2)] =   +2.06 kcal/mol
DOCKED: USER    
DOCKED: USER    
DOCKED: USER    NEWDPF move 2_3_BPG_opt.pdbqt
DOCKED: USER    NEWDPF about 0.015000 0.083000 0.031000
DOCKED: USER    NEWDPF tran0 -15.162225 -0.748099 1.819925
DOCKED: USER    NEWDPF quaternion0 0.082414 -0.973695 0.151813 -0.148591
DOCKED: USER    NEWDPF axisangle0 0.083339 -0.984625 0.153518 -162.909425
DOCKED: USER    NEWDPF quat0 0.083339 -0.984625 0.153518 -162.909425
DOCKED: USER    NEWDPF dihe0 49.00 -138.83 -164.81 17.49 -2.85 -81.01 
DOCKED: USER  keepresnum = 1 
DOCKED: USER  
DOCKED: REMARK  6 active torsions:
DOCKED: REMARK  status: ('A' for Active; 'I' for Inactive)
DOCKED: REMARK    1  A    between atoms: P_1  and  O_3 
DOCKED: REMARK    2  A    between atoms: P_2  and  O_4 
DOCKED: REMARK    3  A    between atoms: O_3  and  C_13 
DOCKED: REMARK    4  A    between atoms: O_4  and  C_14 
DOCKED: REMARK    5  A    between atoms: C_13  and  C_14 
DOCKED: REMARK    6  A    between atoms: C_13  and  C_15 
DOCKED: USER                              x       y       z     vdW  Elec       q    Type
DOCKED: USER                           _______ _______ _______ _____ _____    ______ ____
DOCKED: ROOT
DOCKED: ATOM      1  C   UNL d   1     -14.570  -1.004   1.636 -0.19 +0.23    +0.193 C 
DOCKED: ENDROOT
DOCKED: BRANCH   1   2
DOCKED: ATOM      2  O   UNL d   1     -13.575   0.074   1.674 -0.15 -0.48    -0.356 OA
DOCKED: BRANCH   2   3
DOCKED: ATOM      3  P   UNL d   1     -12.806   0.641   0.336 -0.15 -0.02    -0.014 P 
DOCKED: ATOM      4  O   UNL d   1     -13.878   0.606  -0.765 -0.03 -0.95    -0.577 OA
DOCKED: ATOM      5  O   UNL d   1     -11.658  -0.319   0.033 -0.03 -0.42    -0.577 OA
DOCKED: ATOM      6  O   UNL d   1     -12.347   2.066   0.624 -0.54 -1.02    -0.638 OA
DOCKED: ENDBRANCH   2   3
DOCKED: ENDBRANCH   1   2
DOCKED: BRANCH   1   7
DOCKED: ATOM      7  C   UNL d   1     -15.886  -0.501   2.337 -0.14 +0.25    +0.201 C 
DOCKED: BRANCH   7   8
DOCKED: ATOM      8  O   UNL d   1     -16.730   0.366   1.547 -0.51 -0.70    -0.364 OA
DOCKED: BRANCH   8   9
DOCKED: ATOM      9  P   UNL d   1     -18.136   0.960   2.184 -0.16 -0.03    -0.015 P 
DOCKED: ATOM     10  O   UNL d   1     -18.000   0.769   3.699 -0.11 -0.97    -0.577 OA
DOCKED: ATOM     11  O   UNL d   1     -19.276   0.123   1.603 -0.02 -0.73    -0.577 OA
DOCKED: ATOM     12  O   UNL d   1     -18.220   2.435   1.796 -0.62 -1.48    -0.638 OA
DOCKED: ENDBRANCH   8   9
DOCKED: ENDBRANCH   7   8
DOCKED: ENDBRANCH   1   7
DOCKED: BRANCH   1  13
DOCKED: ATOM     13  C   UNL d   1     -14.034  -2.262   2.414 -0.24 +0.07    +0.073 C 
DOCKED: ATOM     14  O   UNL d   1     -14.483  -2.491   3.591 -0.02 -0.38    -0.547 OA
DOCKED: ATOM     15  O   UNL d   1     -13.214  -3.028   1.789 -0.74 -0.84    -0.547 OA
DOCKED: ENDBRANCH   1  13
DOCKED: TORSDOF 6
DOCKED: TER
DOCKED: ENDMDL
________________________________________________________________________________


	BEGINNING GENETIC ALGORITHM DOCKING 45 of 100
Run: 45 Seed: 1675632858 1093483030 [ Run 45 of 100 GA/GALS ]
Beginning LAMARCKIAN GENETIC ALGORITHM (LGA), with a maximum of 25000000 energy evaluations.

Final-Value: -8.609


	FINAL GENETIC ALGORITHM DOCKED STATE
	_______________________________________________


Detailed state:  trans -14.933 -0.898 0.821 quatxyzw -0.130392 0.960674 -0.223609 -0.100512 center 0.015 0.083 0.031 ntor 6 -157.0974 -166.6694 -135.0432 13.7062 -19.2293 178.7735
State:	-14.933  -0.898   0.821  -0.131  0.966 -0.225 -168.463   -157.10 -166.67 -135.04   13.71  -19.23  178.77

DOCKED: MODEL       45
DOCKED: USER    Run = 45
DOCKED: USER    DPF = D:/Protein_go_brrr/autodock/final/AncMH_nat/2_3_BPG/dock.dpf
DOCKED: USER  
DOCKED: USER    Estimated Free Energy of Binding    =   -8.97 kcal/mol  [=(1)+(2)+(3)-(4)]
DOCKED: USER    Estimated Inhibition Constant, Ki   =  264.71 nM (nanomolar)  [Temperature = 298.15 K]
DOCKED: USER    
DOCKED: USER    (1) Final Intermolecular Energy     =  -10.76 kcal/mol
DOCKED: USER        vdW + Hbond + desolv Energy     =   -3.34 kcal/mol
DOCKED: USER        Electrostatic Energy            =   -7.42 kcal/mol
DOCKED: USER    (2) Final Total Internal Energy     =   +2.15 kcal/mol
DOCKED: USER    (3) Torsional Free Energy           =   +1.79 kcal/mol
DOCKED: USER    (4) Unbound System's Energy  [=(2)] =   +2.15 kcal/mol
DOCKED: USER    
DOCKED: USER    
DOCKED: USER    NEWDPF move 2_3_BPG_opt.pdbqt
DOCKED: USER    NEWDPF about 0.015000 0.083000 0.031000
DOCKED: USER    NEWDPF tran0 -14.933147 -0.897646 0.821247
DOCKED: USER    NEWDPF quaternion0 -0.130392 0.960674 -0.223609 -0.100512
DOCKED: USER    NEWDPF axisangle0 -0.131055 0.965564 -0.224747 -168.462713
DOCKED: USER    NEWDPF quat0 -0.131055 0.965564 -0.224747 -168.462713
DOCKED: USER    NEWDPF dihe0 -157.10 -166.67 -135.04 13.71 -19.23 178.77 
DOCKED: USER  keepresnum = 1 
DOCKED: USER  
DOCKED: REMARK  6 active torsions:
DOCKED: REMARK  status: ('A' for Active; 'I' for Inactive)
DOCKED: REMARK    1  A    between atoms: P_1  and  O_3 
DOCKED: REMARK    2  A    between atoms: P_2  and  O_4 
DOCKED: REMARK    3  A    between atoms: O_3  and  C_13 
DOCKED: REMARK    4  A    between atoms: O_4  and  C_14 
DOCKED: REMARK    5  A    between atoms: C_13  and  C_14 
DOCKED: REMARK    6  A    between atoms: C_13  and  C_15 
DOCKED: USER                              x       y       z     vdW  Elec       q    Type
DOCKED: USER                           _______ _______ _______ _____ _____    ______ ____
DOCKED: ROOT
DOCKED: ATOM      1  C   UNL d   1     -14.291  -1.032   0.961 -0.19 +0.25    +0.193 C 
DOCKED: ENDROOT
DOCKED: BRANCH   1   2
DOCKED: ATOM      2  O   UNL d   1     -13.624   0.229   1.304 -0.16 -0.56    -0.356 OA
DOCKED: BRANCH   2   3
DOCKED: ATOM      3  P   UNL d   1     -12.361   0.844   0.449 -0.29 -0.02    -0.014 P 
DOCKED: ATOM      4  O   UNL d   1     -12.279  -0.042  -0.804 -0.02 -0.49    -0.577 OA
DOCKED: ATOM      5  O   UNL d   1     -11.114   0.703   1.319 +0.01 -0.34    -0.577 OA
DOCKED: ATOM      6  O   UNL d   1     -12.694   2.289   0.092 -0.41 -1.29    -0.638 OA
DOCKED: ENDBRANCH   2   3
DOCKED: ENDBRANCH   1   2
DOCKED: BRANCH   1   7
DOCKED: ATOM      7  C   UNL d   1     -15.844  -0.786   0.916 -0.12 +0.29    +0.201 C 
DOCKED: BRANCH   7   8
DOCKED: ATOM      8  O   UNL d   1     -16.322   0.362   1.653 -0.43 -0.75    -0.364 OA
DOCKED: BRANCH   8   9
DOCKED: ATOM      9  P   UNL d   1     -17.839   0.958   1.369 -0.10 -0.03    -0.015 P 
DOCKED: ATOM     10  O   UNL d   1     -18.757  -0.270   1.370 +0.01 -0.64    -0.577 OA
DOCKED: ATOM     11  O   UNL d   1     -17.801   1.640   0.002 -0.16 -1.02    -0.577 OA
DOCKED: ATOM     12  O   UNL d   1     -18.166   1.921   2.509 -0.44 -1.63    -0.638 OA
DOCKED: ENDBRANCH   8   9
DOCKED: ENDBRANCH   7   8
DOCKED: ENDBRANCH   1   7
DOCKED: BRANCH   1  13
DOCKED: ATOM     13  C   UNL d   1     -13.985  -2.121   2.056 -0.24 +0.08    +0.073 C 
DOCKED: ATOM     14  O   UNL d   1     -13.125  -3.032   1.788 -0.76 -0.83    -0.547 OA
DOCKED: ATOM     15  O   UNL d   1     -14.576  -1.991   3.188 -0.02 -0.43    -0.547 OA
DOCKED: ENDBRANCH   1  13
DOCKED: TORSDOF 6
DOCKED: TER
DOCKED: ENDMDL
________________________________________________________________________________


	BEGINNING GENETIC ALGORITHM DOCKING 46 of 100
Run: 46 Seed: 902928989 1965251406 [ Run 46 of 100 GA/GALS ]
Beginning LAMARCKIAN GENETIC ALGORITHM (LGA), with a maximum of 25000000 energy evaluations.

Final-Value: -9.041


	FINAL GENETIC ALGORITHM DOCKED STATE
	_______________________________________________


Detailed state:  trans -15.387 -0.804 1.583 quatxyzw 0.163253 -0.945274 0.234249 -0.157901 center 0.015 0.083 0.031 ntor 6 -161.3190 -126.5119 -126.8261 4.6073 17.0336 -104.8571
State:	-15.387  -0.804   1.583   0.165 -0.957  0.237 -161.830   -161.32 -126.51 -126.83    4.61   17.03 -104.86

DOCKED: MODEL       46
DOCKED: USER    Run = 46
DOCKED: USER    DPF = D:/Protein_go_brrr/autodock/final/AncMH_nat/2_3_BPG/dock.dpf
DOCKED: USER  
DOCKED: USER    Estimated Free Energy of Binding    =   -9.37 kcal/mol  [=(1)+(2)+(3)-(4)]
DOCKED: USER    Estimated Inhibition Constant, Ki   =  136.06 nM (nanomolar)  [Temperature = 298.15 K]
DOCKED: USER    
DOCKED: USER    (1) Final Intermolecular Energy     =  -11.16 kcal/mol
DOCKED: USER        vdW + Hbond + desolv Energy     =   -3.39 kcal/mol
DOCKED: USER        Electrostatic Energy            =   -7.77 kcal/mol
DOCKED: USER    (2) Final Total Internal Energy     =   +2.12 kcal/mol
DOCKED: USER    (3) Torsional Free Energy           =   +1.79 kcal/mol
DOCKED: USER    (4) Unbound System's Energy  [=(2)] =   +2.12 kcal/mol
DOCKED: USER    
DOCKED: USER    
DOCKED: USER    NEWDPF move 2_3_BPG_opt.pdbqt
DOCKED: USER    NEWDPF about 0.015000 0.083000 0.031000
DOCKED: USER    NEWDPF tran0 -15.386501 -0.803646 1.582759
DOCKED: USER    NEWDPF quaternion0 0.163253 -0.945274 0.234249 -0.157901
DOCKED: USER    NEWDPF axisangle0 0.165327 -0.957283 0.237225 -161.829783
DOCKED: USER    NEWDPF quat0 0.165327 -0.957283 0.237225 -161.829783
DOCKED: USER    NEWDPF dihe0 -161.32 -126.51 -126.83 4.61 17.03 -104.86 
DOCKED: USER  keepresnum = 1 
DOCKED: USER  
DOCKED: REMARK  6 active torsions:
DOCKED: REMARK  status: ('A' for Active; 'I' for Inactive)
DOCKED: REMARK    1  A    between atoms: P_1  and  O_3 
DOCKED: REMARK    2  A    between atoms: P_2  and  O_4 
DOCKED: REMARK    3  A    between atoms: O_3  and  C_13 
DOCKED: REMARK    4  A    between atoms: O_4  and  C_14 
DOCKED: REMARK    5  A    between atoms: C_13  and  C_14 
DOCKED: REMARK    6  A    between atoms: C_13  and  C_15 
DOCKED: USER                              x       y       z     vdW  Elec       q    Type
DOCKED: USER                           _______ _______ _______ _____ _____    ______ ____
DOCKED: ROOT
DOCKED: ATOM      1  C   UNL d   1     -14.762  -0.973   1.407 -0.18 +0.25    +0.193 C 
DOCKED: ENDROOT
DOCKED: BRANCH   1   2
DOCKED: ATOM      2  O   UNL d   1     -13.983   0.259   1.241 -0.10 -0.64    -0.356 OA
DOCKED: BRANCH   2   3
DOCKED: ATOM      3  P   UNL d   1     -13.110   0.600  -0.110 -0.08 -0.02    -0.014 P 
DOCKED: ATOM      4  O   UNL d   1     -14.086   0.349  -1.270 -0.03 -0.76    -0.577 OA
DOCKED: ATOM      5  O   UNL d   1     -11.933  -0.372  -0.146 -0.02 -0.46    -0.577 OA
DOCKED: ATOM      6  O   UNL d   1     -12.688   2.064  -0.041 -0.44 -1.20    -0.638 OA
DOCKED: ENDBRANCH   2   3
DOCKED: ENDBRANCH   1   2
DOCKED: BRANCH   1   7
DOCKED: ATOM      7  C   UNL d   1     -16.131  -0.616   2.095 -0.12 +0.26    +0.201 C 
DOCKED: BRANCH   7   8
DOCKED: ATOM      8  O   UNL d   1     -16.920   0.402   1.441 -0.52 -0.69    -0.364 OA
DOCKED: BRANCH   8   9
DOCKED: ATOM      9  P   UNL d   1     -18.092   1.212   2.281 -0.05 -0.03    -0.015 P 
DOCKED: ATOM     10  O   UNL d   1     -17.372   1.803   3.499 -0.21 -1.12    -0.577 OA
DOCKED: ATOM     11  O   UNL d   1     -19.144   0.180   2.685 -0.06 -0.91    -0.577 OA
DOCKED: ATOM     12  O   UNL d   1     -18.641   2.297   1.356 -0.59 -1.30    -0.638 OA
DOCKED: ENDBRANCH   8   9
DOCKED: ENDBRANCH   7   8
DOCKED: ENDBRANCH   1   7
DOCKED: BRANCH   1  13
DOCKED: ATOM     13  C   UNL d   1     -13.983  -1.985   2.328 -0.26 +0.07    +0.073 C 
DOCKED: ATOM     14  O   UNL d   1     -13.456  -3.021   1.790 -0.68 -0.85    -0.547 OA
DOCKED: ATOM     15  O   UNL d   1     -13.868  -1.673   3.568 -0.03 -0.36    -0.547 OA
DOCKED: ENDBRANCH   1  13
DOCKED: TORSDOF 6
DOCKED: TER
DOCKED: ENDMDL
________________________________________________________________________________


	BEGINNING GENETIC ALGORITHM DOCKING 47 of 100
Run: 47 Seed: 1070600565 1315648989 [ Run 47 of 100 GA/GALS ]
Beginning LAMARCKIAN GENETIC ALGORITHM (LGA), with a maximum of 25000000 energy evaluations.

Final-Value: -9.046


	FINAL GENETIC ALGORITHM DOCKED STATE
	_______________________________________________


Detailed state:  trans -15.285 -0.712 1.720 quatxyzw 0.134780 -0.957272 0.203663 -0.154874 center 0.015 0.083 0.031 ntor 6 23.6408 -141.9076 -153.3437 3.8544 7.8663 -92.4926
State:	-15.285  -0.712   1.720   0.136 -0.969  0.206 -162.181     23.64 -141.91 -153.34    3.85    7.87  -92.49

DOCKED: MODEL       47
DOCKED: USER    Run = 47
DOCKED: USER    DPF = D:/Protein_go_brrr/autodock/final/AncMH_nat/2_3_BPG/dock.dpf
DOCKED: USER  
DOCKED: USER    Estimated Free Energy of Binding    =   -9.31 kcal/mol  [=(1)+(2)+(3)-(4)]
DOCKED: USER    Estimated Inhibition Constant, Ki   =  150.54 nM (nanomolar)  [Temperature = 298.15 K]
DOCKED: USER    
DOCKED: USER    (1) Final Intermolecular Energy     =  -11.10 kcal/mol
DOCKED: USER        vdW + Hbond + desolv Energy     =   -3.45 kcal/mol
DOCKED: USER        Electrostatic Energy            =   -7.64 kcal/mol
DOCKED: USER    (2) Final Total Internal Energy     =   +2.05 kcal/mol
DOCKED: USER    (3) Torsional Free Energy           =   +1.79 kcal/mol
DOCKED: USER    (4) Unbound System's Energy  [=(2)] =   +2.05 kcal/mol
DOCKED: USER    
DOCKED: USER    
DOCKED: USER    NEWDPF move 2_3_BPG_opt.pdbqt
DOCKED: USER    NEWDPF about 0.015000 0.083000 0.031000
DOCKED: USER    NEWDPF tran0 -15.284701 -0.711720 1.720156
DOCKED: USER    NEWDPF quaternion0 0.134780 -0.957272 0.203663 -0.154874
DOCKED: USER    NEWDPF axisangle0 0.136426 -0.968963 0.206150 -162.181030
DOCKED: USER    NEWDPF quat0 0.136426 -0.968963 0.206150 -162.181030
DOCKED: USER    NEWDPF dihe0 23.64 -141.91 -153.34 3.85 7.87 -92.49 
DOCKED: USER  keepresnum = 1 
DOCKED: USER  
DOCKED: REMARK  6 active torsions:
DOCKED: REMARK  status: ('A' for Active; 'I' for Inactive)
DOCKED: REMARK    1  A    between atoms: P_1  and  O_3 
DOCKED: REMARK    2  A    between atoms: P_2  and  O_4 
DOCKED: REMARK    3  A    between atoms: O_3  and  C_13 
DOCKED: REMARK    4  A    between atoms: O_4  and  C_14 
DOCKED: REMARK    5  A    between atoms: C_13  and  C_14 
DOCKED: REMARK    6  A    between atoms: C_13  and  C_15 
DOCKED: USER                              x       y       z     vdW  Elec       q    Type
DOCKED: USER                           _______ _______ _______ _____ _____    ______ ____
DOCKED: ROOT
DOCKED: ATOM      1  C   UNL d   1     -14.670  -0.912   1.542 -0.19 +0.24    +0.193 C 
DOCKED: ENDROOT
DOCKED: BRANCH   1   2
DOCKED: ATOM      2  O   UNL d   1     -13.810   0.273   1.454 -0.14 -0.59    -0.356 OA
DOCKED: BRANCH   2   3
DOCKED: ATOM      3  P   UNL d   1     -12.883   0.620   0.141 -0.13 -0.02    -0.014 P 
DOCKED: ATOM      4  O   UNL d   1     -13.706   0.113  -1.054 -0.04 -0.71    -0.577 OA
DOCKED: ATOM      5  O   UNL d   1     -11.576  -0.156   0.291 -0.03 -0.41    -0.577 OA
DOCKED: ATOM      6  O   UNL d   1     -12.690   2.132   0.087 -0.45 -1.26    -0.638 OA
DOCKED: ENDBRANCH   2   3
DOCKED: ENDBRANCH   1   2
DOCKED: BRANCH   1   7
DOCKED: ATOM      7  C   UNL d   1     -16.023  -0.504   2.234 -0.13 +0.26    +0.201 C 
DOCKED: BRANCH   7   8
DOCKED: ATOM      8  O   UNL d   1     -16.867   0.398   1.486 -0.50 -0.69    -0.364 OA
DOCKED: BRANCH   8   9
DOCKED: ATOM      9  P   UNL d   1     -18.173   1.108   2.212 -0.11 -0.03    -0.015 P 
DOCKED: ATOM     10  O   UNL d   1     -17.795   1.215   3.694 -0.16 -1.06    -0.577 OA
DOCKED: ATOM     11  O   UNL d   1     -19.365   0.178   1.992 -0.05 -0.81    -0.577 OA
DOCKED: ATOM     12  O   UNL d   1     -18.357   2.481   1.566 -0.56 -1.42    -0.638 OA
DOCKED: ENDBRANCH   8   9
DOCKED: ENDBRANCH   7   8
DOCKED: ENDBRANCH   1   7
DOCKED: BRANCH   1  13
DOCKED: ATOM     13  C   UNL d   1     -13.973  -2.022   2.414 -0.26 +0.07    +0.073 C 
DOCKED: ATOM     14  O   UNL d   1     -13.981  -1.894   3.688 -0.03 -0.35    -0.547 OA
DOCKED: ATOM     15  O   UNL d   1     -13.487  -3.033   1.789 -0.68 -0.86    -0.547 OA
DOCKED: ENDBRANCH   1  13
DOCKED: TORSDOF 6
DOCKED: TER
DOCKED: ENDMDL
________________________________________________________________________________


	BEGINNING GENETIC ALGORITHM DOCKING 48 of 100
Run: 48 Seed: 749080639 1969069245 [ Run 48 of 100 GA/GALS ]
Beginning LAMARCKIAN GENETIC ALGORITHM (LGA), with a maximum of 25000000 energy evaluations.

Final-Value: -8.520


	FINAL GENETIC ALGORITHM DOCKED STATE
	_______________________________________________


Detailed state:  trans -15.655 -1.016 1.289 quatxyzw 0.194490 -0.864735 0.375552 -0.270865 center 0.015 0.083 0.031 ntor 6 -164.3916 -177.3077 -122.3326 32.5561 5.1972 -132.0696
State:	-15.655  -1.016   1.289   0.202 -0.898  0.390 -148.569   -164.39 -177.31 -122.33   32.56    5.20 -132.07

DOCKED: MODEL       48
DOCKED: USER    Run = 48
DOCKED: USER    DPF = D:/Protein_go_brrr/autodock/final/AncMH_nat/2_3_BPG/dock.dpf
DOCKED: USER  
DOCKED: USER    Estimated Free Energy of Binding    =   -8.93 kcal/mol  [=(1)+(2)+(3)-(4)]
DOCKED: USER    Estimated Inhibition Constant, Ki   =  284.48 nM (nanomolar)  [Temperature = 298.15 K]
DOCKED: USER    
DOCKED: USER    (1) Final Intermolecular Energy     =  -10.72 kcal/mol
DOCKED: USER        vdW + Hbond + desolv Energy     =   -3.09 kcal/mol
DOCKED: USER        Electrostatic Energy            =   -7.63 kcal/mol
DOCKED: USER    (2) Final Total Internal Energy     =   +2.20 kcal/mol
DOCKED: USER    (3) Torsional Free Energy           =   +1.79 kcal/mol
DOCKED: USER    (4) Unbound System's Energy  [=(2)] =   +2.20 kcal/mol
DOCKED: USER    
DOCKED: USER    
DOCKED: USER    NEWDPF move 2_3_BPG_opt.pdbqt
DOCKED: USER    NEWDPF about 0.015000 0.083000 0.031000
DOCKED: USER    NEWDPF tran0 -15.655222 -1.015806 1.289357
DOCKED: USER    NEWDPF quaternion0 0.194490 -0.864735 0.375552 -0.270865
DOCKED: USER    NEWDPF axisangle0 0.202043 -0.898316 0.390136 -148.568504
DOCKED: USER    NEWDPF quat0 0.202043 -0.898316 0.390136 -148.568504
DOCKED: USER    NEWDPF dihe0 -164.39 -177.31 -122.33 32.56 5.20 -132.07 
DOCKED: USER  keepresnum = 1 
DOCKED: USER  
DOCKED: REMARK  6 active torsions:
DOCKED: REMARK  status: ('A' for Active; 'I' for Inactive)
DOCKED: REMARK    1  A    between atoms: P_1  and  O_3 
DOCKED: REMARK    2  A    between atoms: P_2  and  O_4 
DOCKED: REMARK    3  A    between atoms: O_3  and  C_13 
DOCKED: REMARK    4  A    between atoms: O_4  and  C_14 
DOCKED: REMARK    5  A    between atoms: C_13  and  C_14 
DOCKED: REMARK    6  A    between atoms: C_13  and  C_15 
DOCKED: USER                              x       y       z     vdW  Elec       q    Type
DOCKED: USER                           _______ _______ _______ _____ _____    ______ ____
DOCKED: ROOT
DOCKED: ATOM      1  C   UNL d   1     -15.061  -1.209   1.046 -0.16 +0.25    +0.193 C 
DOCKED: ENDROOT
DOCKED: BRANCH   1   2
DOCKED: ATOM      2  O   UNL d   1     -14.468  -0.071   0.334 -0.19 -0.63    -0.356 OA
DOCKED: BRANCH   2   3
DOCKED: ATOM      3  P   UNL d   1     -14.516   0.095  -1.302 -0.19 -0.02    -0.014 P 
DOCKED: ATOM      4  O   UNL d   1     -15.245  -1.166  -1.793 -0.05 -0.62    -0.577 OA
DOCKED: ATOM      5  O   UNL d   1     -13.072   0.136  -1.795 -0.03 -0.50    -0.577 OA
DOCKED: ATOM      6  O   UNL d   1     -15.306   1.359  -1.624 +0.07 -1.11    -0.638 OA
DOCKED: ENDBRANCH   2   3
DOCKED: ENDBRANCH   1   2
DOCKED: BRANCH   1   7
DOCKED: ATOM      7  C   UNL d   1     -16.304  -0.699   1.864 -0.11 +0.26    +0.201 C 
DOCKED: BRANCH   7   8
DOCKED: ATOM      8  O   UNL d   1     -16.973   0.466   1.334 -0.52 -0.71    -0.364 OA
DOCKED: BRANCH   8   9
DOCKED: ATOM      9  P   UNL d   1     -18.161   1.212   2.212 -0.08 -0.03    -0.015 P 
DOCKED: ATOM     10  O   UNL d   1     -17.480   1.646   3.516 -0.21 -1.12    -0.577 OA
DOCKED: ATOM     11  O   UNL d   1     -19.254   0.173   2.458 -0.06 -0.89    -0.577 OA
DOCKED: ATOM     12  O   UNL d   1     -18.645   2.407   1.392 -0.60 -1.33    -0.638 OA
DOCKED: ENDBRANCH   8   9
DOCKED: ENDBRANCH   7   8
DOCKED: ENDBRANCH   1   7
DOCKED: BRANCH   1  13
DOCKED: ATOM     13  C   UNL d   1     -14.014  -1.822   2.049 -0.26 +0.08    +0.073 C 
DOCKED: ATOM     14  O   UNL d   1     -13.534  -2.983   1.797 -0.67 -0.84    -0.547 OA
DOCKED: ATOM     15  O   UNL d   1     -13.654  -1.087   3.037 -0.04 -0.42    -0.547 OA
DOCKED: ENDBRANCH   1  13
DOCKED: TORSDOF 6
DOCKED: TER
DOCKED: ENDMDL
________________________________________________________________________________


	BEGINNING GENETIC ALGORITHM DOCKING 49 of 100
Run: 49 Seed: 1593361914 636546649 [ Run 49 of 100 GA/GALS ]
Beginning LAMARCKIAN GENETIC ALGORITHM (LGA), with a maximum of 25000000 energy evaluations.

Final-Value: -8.418


	FINAL GENETIC ALGORITHM DOCKED STATE
	_______________________________________________


Detailed state:  trans -15.656 -1.041 1.302 quatxyzw 0.198276 -0.831836 0.405604 -0.322832 center 0.015 0.083 0.031 ntor 6 -165.9984 -174.3788 -122.6292 43.0450 -0.9272 -133.6703
State:	-15.656  -1.041   1.302   0.209 -0.879  0.429 -142.331   -166.00 -174.38 -122.63   43.04   -0.93 -133.67

DOCKED: MODEL       49
DOCKED: USER    Run = 49
DOCKED: USER    DPF = D:/Protein_go_brrr/autodock/final/AncMH_nat/2_3_BPG/dock.dpf
DOCKED: USER  
DOCKED: USER    Estimated Free Energy of Binding    =   -8.91 kcal/mol  [=(1)+(2)+(3)-(4)]
DOCKED: USER    Estimated Inhibition Constant, Ki   =  296.47 nM (nanomolar)  [Temperature = 298.15 K]
DOCKED: USER    
DOCKED: USER    (1) Final Intermolecular Energy     =  -10.70 kcal/mol
DOCKED: USER        vdW + Hbond + desolv Energy     =   -3.14 kcal/mol
DOCKED: USER        Electrostatic Energy            =   -7.55 kcal/mol
DOCKED: USER    (2) Final Total Internal Energy     =   +2.28 kcal/mol
DOCKED: USER    (3) Torsional Free Energy           =   +1.79 kcal/mol
DOCKED: USER    (4) Unbound System's Energy  [=(2)] =   +2.28 kcal/mol
DOCKED: USER    
DOCKED: USER    
DOCKED: USER    NEWDPF move 2_3_BPG_opt.pdbqt
DOCKED: USER    NEWDPF about 0.015000 0.083000 0.031000
DOCKED: USER    NEWDPF tran0 -15.656463 -1.040989 1.302297
DOCKED: USER    NEWDPF quaternion0 0.198276 -0.831836 0.405604 -0.322832
DOCKED: USER    NEWDPF axisangle0 0.209493 -0.878896 0.428550 -142.331393
DOCKED: USER    NEWDPF quat0 0.209493 -0.878896 0.428550 -142.331393
DOCKED: USER    NEWDPF dihe0 -166.00 -174.38 -122.63 43.04 -0.93 -133.67 
DOCKED: USER  keepresnum = 1 
DOCKED: USER  
DOCKED: REMARK  6 active torsions:
DOCKED: REMARK  status: ('A' for Active; 'I' for Inactive)
DOCKED: REMARK    1  A    between atoms: P_1  and  O_3 
DOCKED: REMARK    2  A    between atoms: P_2  and  O_4 
DOCKED: REMARK    3  A    between atoms: O_3  and  C_13 
DOCKED: REMARK    4  A    between atoms: O_4  and  C_14 
DOCKED: REMARK    5  A    between atoms: C_13  and  C_14 
DOCKED: REMARK    6  A    between atoms: C_13  and  C_15 
DOCKED: USER                              x       y       z     vdW  Elec       q    Type
DOCKED: USER                           _______ _______ _______ _____ _____    ______ ____
DOCKED: ROOT
DOCKED: ATOM      1  C   UNL d   1     -15.089  -1.261   1.021 -0.16 +0.25    +0.193 C 
DOCKED: ENDROOT
DOCKED: BRANCH   1   2
DOCKED: ATOM      2  O   UNL d   1     -14.571  -0.200   0.149 -0.20 -0.60    -0.356 OA
DOCKED: BRANCH   2   3
DOCKED: ATOM      3  P   UNL d   1     -14.985  -0.051  -1.435 -0.19 -0.02    -0.014 P 
DOCKED: ATOM      4  O   UNL d   1     -15.988  -1.190  -1.678 -0.05 -0.60    -0.577 OA
DOCKED: ATOM      5  O   UNL d   1     -13.711  -0.240  -2.256 -0.03 -0.49    -0.577 OA
DOCKED: ATOM      6  O   UNL d   1     -15.634   1.316  -1.626 +0.03 -1.08    -0.638 OA
DOCKED: ENDBRANCH   2   3
DOCKED: ENDBRANCH   1   2
DOCKED: BRANCH   1   7
DOCKED: ATOM      7  C   UNL d   1     -16.246  -0.666   1.906 -0.12 +0.26    +0.201 C 
DOCKED: BRANCH   7   8
DOCKED: ATOM      8  O   UNL d   1     -16.942   0.472   1.352 -0.52 -0.72    -0.364 OA
DOCKED: BRANCH   8   9
DOCKED: ATOM      9  P   UNL d   1     -18.142   1.212   2.217 -0.08 -0.03    -0.015 P 
DOCKED: ATOM     10  O   UNL d   1     -17.468   1.684   3.511 -0.21 -1.12    -0.577 OA
DOCKED: ATOM     11  O   UNL d   1     -19.215   0.157   2.485 -0.06 -0.88    -0.577 OA
DOCKED: ATOM     12  O   UNL d   1     -18.650   2.382   1.375 -0.60 -1.31    -0.638 OA
DOCKED: ENDBRANCH   8   9
DOCKED: ENDBRANCH   7   8
DOCKED: ENDBRANCH   1   7
DOCKED: BRANCH   1  13
DOCKED: ATOM     13  C   UNL d   1     -13.948  -1.785   1.970 -0.26 +0.08    +0.073 C 
DOCKED: ATOM     14  O   UNL d   1     -13.515  -2.979   1.803 -0.67 -0.84    -0.547 OA
DOCKED: ATOM     15  O   UNL d   1     -13.470  -0.953   2.822 -0.04 -0.44    -0.547 OA
DOCKED: ENDBRANCH   1  13
DOCKED: TORSDOF 6
DOCKED: TER
DOCKED: ENDMDL
________________________________________________________________________________


	BEGINNING GENETIC ALGORITHM DOCKING 50 of 100
Run: 50 Seed: 981678162 603736382 [ Run 50 of 100 GA/GALS ]
Beginning LAMARCKIAN GENETIC ALGORITHM (LGA), with a maximum of 25000000 energy evaluations.

Final-Value: -8.662


	FINAL GENETIC ALGORITHM DOCKED STATE
	_______________________________________________


Detailed state:  trans -15.117 -0.263 1.847 quatxyzw -0.009345 0.998441 0.046299 0.029748 center 0.015 0.083 0.031 ntor 6 -103.7102 179.7162 25.3384 25.1087 -1.9891 -34.1646
State:	-15.117  -0.263   1.847  -0.009  0.999  0.046 176.591   -103.71  179.72   25.34   25.11   -1.99  -34.16

DOCKED: MODEL       50
DOCKED: USER    Run = 50
DOCKED: USER    DPF = D:/Protein_go_brrr/autodock/final/AncMH_nat/2_3_BPG/dock.dpf
DOCKED: USER  
DOCKED: USER    Estimated Free Energy of Binding    =   -8.88 kcal/mol  [=(1)+(2)+(3)-(4)]
DOCKED: USER    Estimated Inhibition Constant, Ki   =  307.96 nM (nanomolar)  [Temperature = 298.15 K]
DOCKED: USER    
DOCKED: USER    (1) Final Intermolecular Energy     =  -10.67 kcal/mol
DOCKED: USER        vdW + Hbond + desolv Energy     =   -3.65 kcal/mol
DOCKED: USER        Electrostatic Energy            =   -7.02 kcal/mol
DOCKED: USER    (2) Final Total Internal Energy     =   +2.01 kcal/mol
DOCKED: USER    (3) Torsional Free Energy           =   +1.79 kcal/mol
DOCKED: USER    (4) Unbound System's Energy  [=(2)] =   +2.01 kcal/mol
DOCKED: USER    
DOCKED: USER    
DOCKED: USER    NEWDPF move 2_3_BPG_opt.pdbqt
DOCKED: USER    NEWDPF about 0.015000 0.083000 0.031000
DOCKED: USER    NEWDPF tran0 -15.116825 -0.263145 1.846538
DOCKED: USER    NEWDPF quaternion0 -0.009345 0.998441 0.046299 0.029748
DOCKED: USER    NEWDPF axisangle0 -0.009349 0.998883 0.046319 176.590572
DOCKED: USER    NEWDPF quat0 -0.009349 0.998883 0.046319 176.590572
DOCKED: USER    NEWDPF dihe0 -103.71 179.72 25.34 25.11 -1.99 -34.16 
DOCKED: USER  keepresnum = 1 
DOCKED: USER  
DOCKED: REMARK  6 active torsions:
DOCKED: REMARK  status: ('A' for Active; 'I' for Inactive)
DOCKED: REMARK    1  A    between atoms: P_1  and  O_3 
DOCKED: REMARK    2  A    between atoms: P_2  and  O_4 
DOCKED: REMARK    3  A    between atoms: O_3  and  C_13 
DOCKED: REMARK    4  A    between atoms: O_4  and  C_14 
DOCKED: REMARK    5  A    between atoms: C_13  and  C_14 
DOCKED: REMARK    6  A    between atoms: C_13  and  C_15 
DOCKED: USER                              x       y       z     vdW  Elec       q    Type
DOCKED: USER                           _______ _______ _______ _____ _____    ______ ____
DOCKED: ROOT
DOCKED: ATOM      1  C   UNL d   1     -14.533  -0.553   1.691 -0.19 +0.26    +0.193 C 
DOCKED: ENDROOT
DOCKED: BRANCH   1   2
DOCKED: ATOM      2  O   UNL d   1     -13.459   0.205   2.343 -0.17 -0.41    -0.356 OA
DOCKED: BRANCH   2   3
DOCKED: ATOM      3  P   UNL d   1     -12.423   1.187   1.526 -0.28 -0.02    -0.014 P 
DOCKED: ATOM      4  O   UNL d   1     -12.797   0.995   0.048 -0.32 -0.87    -0.577 OA
DOCKED: ATOM      5  O   UNL d   1     -11.007   0.693   1.816 +0.00 -0.31    -0.577 OA
DOCKED: ATOM      6  O   UNL d   1     -12.672   2.620   1.984 -0.27 -1.00    -0.638 OA
DOCKED: ENDBRANCH   2   3
DOCKED: ENDBRANCH   1   2
DOCKED: BRANCH   1   7
DOCKED: ATOM      7  C   UNL d   1     -15.913  -0.074   2.273 -0.12 +0.30    +0.201 C 
DOCKED: BRANCH   7   8
DOCKED: ATOM      8  O   UNL d   1     -16.887   0.371   1.302 -0.55 -0.70    -0.364 OA
DOCKED: BRANCH   8   9
DOCKED: ATOM      9  P   UNL d   1     -18.365   0.922   1.800 -0.17 -0.03    -0.015 P 
DOCKED: ATOM     10  O   UNL d   1     -19.313   0.632   0.631 -0.01 -0.66    -0.577 OA
DOCKED: ATOM     11  O   UNL d   1     -18.218   2.421   2.059 -0.61 -1.44    -0.577 OA
DOCKED: ATOM     12  O   UNL d   1     -18.741   0.133   3.054 -0.05 -0.97    -0.638 OA
DOCKED: ENDBRANCH   8   9
DOCKED: ENDBRANCH   7   8
DOCKED: ENDBRANCH   1   7
DOCKED: BRANCH   1  13
DOCKED: ATOM     13  C   UNL d   1     -14.366  -2.090   1.988 -0.21 +0.08    +0.073 C 
DOCKED: ATOM     14  O   UNL d   1     -13.222  -2.630   1.789 -0.72 -0.69    -0.547 OA
DOCKED: ATOM     15  O   UNL d   1     -15.383  -2.702   2.478 -0.00 -0.55    -0.547 OA
DOCKED: ENDBRANCH   1  13
DOCKED: TORSDOF 6
DOCKED: TER
DOCKED: ENDMDL
________________________________________________________________________________


	BEGINNING GENETIC ALGORITHM DOCKING 51 of 100
Run: 51 Seed: 558830193 1356970807 [ Run 51 of 100 GA/GALS ]
Beginning LAMARCKIAN GENETIC ALGORITHM (LGA), with a maximum of 25000000 energy evaluations.

Final-Value: -8.265


	FINAL GENETIC ALGORITHM DOCKED STATE
	_______________________________________________


Detailed state:  trans -16.201 -0.974 1.415 quatxyzw -0.313851 0.154669 0.207721 0.913470 center 0.015 0.083 0.031 ntor 6 151.2834 -123.0551 -118.9129 31.3262 -35.6679 162.1093
State:	-16.201  -0.974   1.415  -0.771  0.380  0.510 48.021    151.28 -123.06 -118.91   31.33  -35.67  162.11

DOCKED: MODEL       51
DOCKED: USER    Run = 51
DOCKED: USER    DPF = D:/Protein_go_brrr/autodock/final/AncMH_nat/2_3_BPG/dock.dpf
DOCKED: USER  
DOCKED: USER    Estimated Free Energy of Binding    =   -8.70 kcal/mol  [=(1)+(2)+(3)-(4)]
DOCKED: USER    Estimated Inhibition Constant, Ki   =  416.55 nM (nanomolar)  [Temperature = 298.15 K]
DOCKED: USER    
DOCKED: USER    (1) Final Intermolecular Energy     =  -10.49 kcal/mol
DOCKED: USER        vdW + Hbond + desolv Energy     =   -2.80 kcal/mol
DOCKED: USER        Electrostatic Energy            =   -7.69 kcal/mol
DOCKED: USER    (2) Final Total Internal Energy     =   +2.23 kcal/mol
DOCKED: USER    (3) Torsional Free Energy           =   +1.79 kcal/mol
DOCKED: USER    (4) Unbound System's Energy  [=(2)] =   +2.23 kcal/mol
DOCKED: USER    
DOCKED: USER    
DOCKED: USER    NEWDPF move 2_3_BPG_opt.pdbqt
DOCKED: USER    NEWDPF about 0.015000 0.083000 0.031000
DOCKED: USER    NEWDPF tran0 -16.200922 -0.974012 1.414950
DOCKED: USER    NEWDPF quaternion0 -0.313851 0.154669 0.207721 0.913470
DOCKED: USER    NEWDPF axisangle0 -0.771310 0.380108 0.510489 48.021329
DOCKED: USER    NEWDPF quat0 -0.771310 0.380108 0.510489 48.021329
DOCKED: USER    NEWDPF dihe0 151.28 -123.06 -118.91 31.33 -35.67 162.11 
DOCKED: USER  keepresnum = 1 
DOCKED: USER  
DOCKED: REMARK  6 active torsions:
DOCKED: REMARK  status: ('A' for Active; 'I' for Inactive)
DOCKED: REMARK    1  A    between atoms: P_1  and  O_3 
DOCKED: REMARK    2  A    between atoms: P_2  and  O_4 
DOCKED: REMARK    3  A    between atoms: O_3  and  C_13 
DOCKED: REMARK    4  A    between atoms: O_4  and  C_14 
DOCKED: REMARK    5  A    between atoms: C_13  and  C_14 
DOCKED: REMARK    6  A    between atoms: C_13  and  C_15 
DOCKED: USER                              x       y       z     vdW  Elec       q    Type
DOCKED: USER                           _______ _______ _______ _____ _____    ______ ____
DOCKED: ROOT
DOCKED: ATOM      1  C   UNL d   1     -16.835  -0.966   1.197 -0.09 +0.23    +0.193 C 
DOCKED: ENDROOT
DOCKED: BRANCH   1   2
DOCKED: ATOM      2  O   UNL d   1     -17.253   0.434   1.061 -0.52 -0.64    -0.356 OA
DOCKED: BRANCH   2   3
DOCKED: ATOM      3  P   UNL d   1     -18.186   1.210   2.171 -0.08 -0.03    -0.014 P 
DOCKED: ATOM      4  O   UNL d   1     -17.455   0.992   3.505 -0.15 -0.94    -0.577 OA
DOCKED: ATOM      5  O   UNL d   1     -19.555   0.533   2.163 -0.09 -1.00    -0.577 OA
DOCKED: ATOM      6  O   UNL d   1     -18.236   2.687   1.794 -0.57 -1.48    -0.638 OA
DOCKED: ENDBRANCH   2   3
DOCKED: ENDBRANCH   1   2
DOCKED: BRANCH   1   7
DOCKED: ATOM      7  C   UNL d   1     -15.278  -1.008   1.422 -0.16 +0.26    +0.201 C 
DOCKED: BRANCH   7   8
DOCKED: ATOM      8  O   UNL d   1     -14.505  -0.052   0.664 -0.19 -0.66    -0.364 OA
DOCKED: BRANCH   8   9
DOCKED: ATOM      9  P   UNL d   1     -13.118   0.586   1.301 -0.10 -0.02    -0.015 P 
DOCKED: ATOM     10  O   UNL d   1     -12.173  -0.610   1.474 -0.03 -0.45    -0.577 OA
DOCKED: ATOM     11  O   UNL d   1     -13.492   1.216   2.642 -0.21 -0.85    -0.577 OA
DOCKED: ATOM     12  O   UNL d   1     -12.582   1.600   0.291 -0.47 -1.07    -0.638 OA
DOCKED: ENDBRANCH   8   9
DOCKED: ENDBRANCH   7   8
DOCKED: ENDBRANCH   1   7
DOCKED: BRANCH   1  13
DOCKED: ATOM     13  C   UNL d   1     -17.176  -1.761  -0.118 -0.11 +0.08    +0.073 C 
DOCKED: ATOM     14  O   UNL d   1     -17.345  -3.029  -0.039 -0.03 -0.62    -0.547 OA
DOCKED: ATOM     15  O   UNL d   1     -17.328  -1.074  -1.192 -0.00 -0.50    -0.547 OA
DOCKED: ENDBRANCH   1  13
DOCKED: TORSDOF 6
DOCKED: TER
DOCKED: ENDMDL
________________________________________________________________________________


	BEGINNING GENETIC ALGORITHM DOCKING 52 of 100
Run: 52 Seed: 1674568255 191630871 [ Run 52 of 100 GA/GALS ]
Beginning LAMARCKIAN GENETIC ALGORITHM (LGA), with a maximum of 25000000 energy evaluations.

Final-Value: -9.035


	FINAL GENETIC ALGORITHM DOCKED STATE
	_______________________________________________


Detailed state:  trans -15.305 -0.747 1.629 quatxyzw 0.154129 -0.946431 0.230162 -0.165945 center 0.015 0.083 0.031 ntor 6 18.3251 -127.7339 -143.6497 9.7202 16.5276 -97.1826
State:	-15.305  -0.747   1.629   0.156 -0.960  0.233 -160.896     18.33 -127.73 -143.65    9.72   16.53  -97.18

DOCKED: MODEL       52
DOCKED: USER    Run = 52
DOCKED: USER    DPF = D:/Protein_go_brrr/autodock/final/AncMH_nat/2_3_BPG/dock.dpf
DOCKED: USER  
DOCKED: USER    Estimated Free Energy of Binding    =   -9.35 kcal/mol  [=(1)+(2)+(3)-(4)]
DOCKED: USER    Estimated Inhibition Constant, Ki   =  141.06 nM (nanomolar)  [Temperature = 298.15 K]
DOCKED: USER    
DOCKED: USER    (1) Final Intermolecular Energy     =  -11.14 kcal/mol
DOCKED: USER        vdW + Hbond + desolv Energy     =   -3.33 kcal/mol
DOCKED: USER        Electrostatic Energy            =   -7.80 kcal/mol
DOCKED: USER    (2) Final Total Internal Energy     =   +2.10 kcal/mol
DOCKED: USER    (3) Torsional Free Energy           =   +1.79 kcal/mol
DOCKED: USER    (4) Unbound System's Energy  [=(2)] =   +2.10 kcal/mol
DOCKED: USER    
DOCKED: USER    
DOCKED: USER    NEWDPF move 2_3_BPG_opt.pdbqt
DOCKED: USER    NEWDPF about 0.015000 0.083000 0.031000
DOCKED: USER    NEWDPF tran0 -15.304636 -0.746866 1.628916
DOCKED: USER    NEWDPF quaternion0 0.154129 -0.946431 0.230162 -0.165945
DOCKED: USER    NEWDPF axisangle0 0.156296 -0.959738 0.233399 -160.895675
DOCKED: USER    NEWDPF quat0 0.156296 -0.959738 0.233399 -160.895675
DOCKED: USER    NEWDPF dihe0 18.33 -127.73 -143.65 9.72 16.53 -97.18 
DOCKED: USER  keepresnum = 1 
DOCKED: USER  
DOCKED: REMARK  6 active torsions:
DOCKED: REMARK  status: ('A' for Active; 'I' for Inactive)
DOCKED: REMARK    1  A    between atoms: P_1  and  O_3 
DOCKED: REMARK    2  A    between atoms: P_2  and  O_4 
DOCKED: REMARK    3  A    between atoms: O_3  and  C_13 
DOCKED: REMARK    4  A    between atoms: O_4  and  C_14 
DOCKED: REMARK    5  A    between atoms: C_13  and  C_14 
DOCKED: REMARK    6  A    between atoms: C_13  and  C_15 
DOCKED: USER                              x       y       z     vdW  Elec       q    Type
DOCKED: USER                           _______ _______ _______ _____ _____    ______ ____
DOCKED: ROOT
DOCKED: ATOM      1  C   UNL d   1     -14.687  -0.930   1.445 -0.19 +0.25    +0.193 C 
DOCKED: ENDROOT
DOCKED: BRANCH   1   2
DOCKED: ATOM      2  O   UNL d   1     -13.882   0.285   1.274 -0.12 -0.62    -0.356 OA
DOCKED: BRANCH   2   3
DOCKED: ATOM      3  P   UNL d   1     -13.116   0.669  -0.130 -0.03 -0.02    -0.014 P 
DOCKED: ATOM      4  O   UNL d   1     -14.187   0.479  -1.215 -0.02 -0.82    -0.577 OA
DOCKED: ATOM      5  O   UNL d   1     -11.962  -0.316  -0.300 -0.02 -0.46    -0.577 OA
DOCKED: ATOM      6  O   UNL d   1     -12.665   2.123  -0.038 -0.44 -1.19    -0.638 OA
DOCKED: ENDBRANCH   2   3
DOCKED: ENDBRANCH   1   2
DOCKED: BRANCH   1   7
DOCKED: ATOM      7  C   UNL d   1     -16.039  -0.544   2.151 -0.13 +0.26    +0.201 C 
DOCKED: BRANCH   7   8
DOCKED: ATOM      8  O   UNL d   1     -16.893   0.365   1.423 -0.54 -0.68    -0.364 OA
DOCKED: BRANCH   8   9
DOCKED: ATOM      9  P   UNL d   1     -18.068   1.216   2.217 -0.09 -0.03    -0.015 P 
DOCKED: ATOM     10  O   UNL d   1     -17.438   1.608   3.560 -0.19 -1.09    -0.577 OA
DOCKED: ATOM     11  O   UNL d   1     -19.256   0.272   2.399 -0.08 -0.92    -0.577 OA
DOCKED: ATOM     12  O   UNL d   1     -18.399   2.437   1.360 -0.53 -1.33    -0.638 OA
DOCKED: ENDBRANCH   8   9
DOCKED: ENDBRANCH   7   8
DOCKED: ENDBRANCH   1   7
DOCKED: BRANCH   1  13
DOCKED: ATOM     13  C   UNL d   1     -13.920  -1.962   2.354 -0.26 +0.07    +0.073 C 
DOCKED: ATOM     14  O   UNL d   1     -13.815  -1.713   3.607 -0.03 -0.35    -0.547 OA
DOCKED: ATOM     15  O   UNL d   1     -13.496  -3.033   1.789 -0.67 -0.86    -0.547 OA
DOCKED: ENDBRANCH   1  13
DOCKED: TORSDOF 6
DOCKED: TER
DOCKED: ENDMDL
________________________________________________________________________________


	BEGINNING GENETIC ALGORITHM DOCKING 53 of 100
Run: 53 Seed: 1753166530 1117849505 [ Run 53 of 100 GA/GALS ]
Beginning LAMARCKIAN GENETIC ALGORITHM (LGA), with a maximum of 25000000 energy evaluations.

Final-Value: -7.921


	FINAL GENETIC ALGORITHM DOCKED STATE
	_______________________________________________


Detailed state:  trans -18.934 3.656 0.358 quatxyzw 0.656433 -0.589724 -0.457520 -0.109529 center 0.015 0.083 0.031 ntor 6 -89.4566 159.1629 67.6141 23.0215 52.5487 -158.6621
State:	-18.934   3.656   0.358   0.660 -0.593 -0.460 -167.424    -89.46  159.16   67.61   23.02   52.55 -158.66

DOCKED: MODEL       53
DOCKED: USER    Run = 53
DOCKED: USER    DPF = D:/Protein_go_brrr/autodock/final/AncMH_nat/2_3_BPG/dock.dpf
DOCKED: USER  
DOCKED: USER    Estimated Free Energy of Binding    =   -8.48 kcal/mol  [=(1)+(2)+(3)-(4)]
DOCKED: USER    Estimated Inhibition Constant, Ki   =  606.07 nM (nanomolar)  [Temperature = 298.15 K]
DOCKED: USER    
DOCKED: USER    (1) Final Intermolecular Energy     =  -10.27 kcal/mol
DOCKED: USER        vdW + Hbond + desolv Energy     =   -2.77 kcal/mol
DOCKED: USER        Electrostatic Energy            =   -7.50 kcal/mol
DOCKED: USER    (2) Final Total Internal Energy     =   +2.35 kcal/mol
DOCKED: USER    (3) Torsional Free Energy           =   +1.79 kcal/mol
DOCKED: USER    (4) Unbound System's Energy  [=(2)] =   +2.35 kcal/mol
DOCKED: USER    
DOCKED: USER    
DOCKED: USER    NEWDPF move 2_3_BPG_opt.pdbqt
DOCKED: USER    NEWDPF about 0.015000 0.083000 0.031000
DOCKED: USER    NEWDPF tran0 -18.934120 3.656383 0.358276
DOCKED: USER    NEWDPF quaternion0 0.656433 -0.589724 -0.457520 -0.109529
DOCKED: USER    NEWDPF axisangle0 0.660406 -0.593294 -0.460289 -167.423667
DOCKED: USER    NEWDPF quat0 0.660406 -0.593294 -0.460289 -167.423667
DOCKED: USER    NEWDPF dihe0 -89.46 159.16 67.61 23.02 52.55 -158.66 
DOCKED: USER  keepresnum = 1 
DOCKED: USER  
DOCKED: REMARK  6 active torsions:
DOCKED: REMARK  status: ('A' for Active; 'I' for Inactive)
DOCKED: REMARK    1  A    between atoms: P_1  and  O_3 
DOCKED: REMARK    2  A    between atoms: P_2  and  O_4 
DOCKED: REMARK    3  A    between atoms: O_3  and  C_13 
DOCKED: REMARK    4  A    between atoms: O_4  and  C_14 
DOCKED: REMARK    5  A    between atoms: C_13  and  C_14 
DOCKED: REMARK    6  A    between atoms: C_13  and  C_15 
DOCKED: USER                              x       y       z     vdW  Elec       q    Type
DOCKED: USER                           _______ _______ _______ _____ _____    ______ ____
DOCKED: ROOT
DOCKED: ATOM      1  C   UNL d   1     -18.725   4.293   0.370 -0.13 +0.23    +0.193 C 
DOCKED: ENDROOT
DOCKED: BRANCH   1   2
DOCKED: ATOM      2  O   UNL d   1     -18.673   4.733   1.768 -0.19 -0.52    -0.356 OA
DOCKED: BRANCH   2   3
DOCKED: ATOM      3  P   UNL d   1     -19.727   5.819   2.412 -0.21 -0.01    -0.014 P 
DOCKED: ATOM      4  O   UNL d   1     -20.213   6.642   1.209 +0.01 -0.32    -0.577 OA
DOCKED: ATOM      5  O   UNL d   1     -18.942   6.680   3.400 -0.06 -0.44    -0.577 OA
DOCKED: ATOM      6  O   UNL d   1     -20.870   5.042   3.057 -0.34 -1.27    -0.638 OA
DOCKED: ENDBRANCH   2   3
DOCKED: ENDBRANCH   1   2
DOCKED: BRANCH   1   7
DOCKED: ATOM      7  C   UNL d   1     -18.928   2.734   0.338 -0.11 +0.28    +0.201 C 
DOCKED: BRANCH   7   8
DOCKED: ATOM      8  O   UNL d   1     -19.038   2.086   1.624 -0.51 -0.85    -0.364 OA
DOCKED: BRANCH   8   9
DOCKED: ATOM      9  P   UNL d   1     -18.016   0.845   2.018 -0.20 -0.03    -0.015 P 
DOCKED: ATOM     10  O   UNL d   1     -18.899  -0.409   2.033 +0.01 -0.66    -0.577 OA
DOCKED: ATOM     11  O   UNL d   1     -17.446   1.159   3.401 -0.18 -0.99    -0.577 OA
DOCKED: ATOM     12  O   UNL d   1     -16.945   0.780   0.930 -0.37 -1.52    -0.638 OA
DOCKED: ENDBRANCH   8   9
DOCKED: ENDBRANCH   7   8
DOCKED: ENDBRANCH   1   7
DOCKED: BRANCH   1  13
DOCKED: ATOM     13  C   UNL d   1     -17.371   4.640  -0.355 -0.06 +0.10    +0.073 C 
DOCKED: ATOM     14  O   UNL d   1     -16.768   5.725  -0.038 -0.05 -0.56    -0.547 OA
DOCKED: ATOM     15  O   UNL d   1     -16.915   3.772  -1.185 -0.38 -0.93    -0.547 OA
DOCKED: ENDBRANCH   1  13
DOCKED: TORSDOF 6
DOCKED: TER
DOCKED: ENDMDL
________________________________________________________________________________


	BEGINNING GENETIC ALGORITHM DOCKING 54 of 100
Run: 54 Seed: 1870426150 396804450 [ Run 54 of 100 GA/GALS ]
Beginning LAMARCKIAN GENETIC ALGORITHM (LGA), with a maximum of 25000000 energy evaluations.

Final-Value: -9.044


	FINAL GENETIC ALGORITHM DOCKED STATE
	_______________________________________________


Detailed state:  trans -15.626 -0.961 1.422 quatxyzw 0.136879 -0.955725 0.232444 -0.117572 center 0.015 0.083 0.031 ntor 6 -141.9866 -127.0891 -115.8424 3.4815 12.9536 -119.9280
State:	-15.626  -0.961   1.422   0.138 -0.962  0.234 -166.496   -141.99 -127.09 -115.84    3.48   12.95 -119.93

DOCKED: MODEL       54
DOCKED: USER    Run = 54
DOCKED: USER    DPF = D:/Protein_go_brrr/autodock/final/AncMH_nat/2_3_BPG/dock.dpf
DOCKED: USER  
DOCKED: USER    Estimated Free Energy of Binding    =   -9.42 kcal/mol  [=(1)+(2)+(3)-(4)]
DOCKED: USER    Estimated Inhibition Constant, Ki   =  123.83 nM (nanomolar)  [Temperature = 298.15 K]
DOCKED: USER    
DOCKED: USER    (1) Final Intermolecular Energy     =  -11.21 kcal/mol
DOCKED: USER        vdW + Hbond + desolv Energy     =   -3.46 kcal/mol
DOCKED: USER        Electrostatic Energy            =   -7.76 kcal/mol
DOCKED: USER    (2) Final Total Internal Energy     =   +2.17 kcal/mol
DOCKED: USER    (3) Torsional Free Energy           =   +1.79 kcal/mol
DOCKED: USER    (4) Unbound System's Energy  [=(2)] =   +2.17 kcal/mol
DOCKED: USER    
DOCKED: USER    
DOCKED: USER    NEWDPF move 2_3_BPG_opt.pdbqt
DOCKED: USER    NEWDPF about 0.015000 0.083000 0.031000
DOCKED: USER    NEWDPF tran0 -15.625728 -0.960900 1.422269
DOCKED: USER    NEWDPF quaternion0 0.136879 -0.955725 0.232444 -0.117572
DOCKED: USER    NEWDPF axisangle0 0.137835 -0.962400 0.234067 -166.496006
DOCKED: USER    NEWDPF quat0 0.137835 -0.962400 0.234067 -166.496006
DOCKED: USER    NEWDPF dihe0 -141.99 -127.09 -115.84 3.48 12.95 -119.93 
DOCKED: USER  keepresnum = 1 
DOCKED: USER  
DOCKED: REMARK  6 active torsions:
DOCKED: REMARK  status: ('A' for Active; 'I' for Inactive)
DOCKED: REMARK    1  A    between atoms: P_1  and  O_3 
DOCKED: REMARK    2  A    between atoms: P_2  and  O_4 
DOCKED: REMARK    3  A    between atoms: O_3  and  C_13 
DOCKED: REMARK    4  A    between atoms: O_4  and  C_14 
DOCKED: REMARK    5  A    between atoms: C_13  and  C_14 
DOCKED: REMARK    6  A    between atoms: C_13  and  C_15 
DOCKED: USER                              x       y       z     vdW  Elec       q    Type
DOCKED: USER                           _______ _______ _______ _____ _____    ______ ____
DOCKED: ROOT
DOCKED: ATOM      1  C   UNL d   1     -14.994  -1.151   1.301 -0.17 +0.25    +0.193 C 
DOCKED: ENDROOT
DOCKED: BRANCH   1   2
DOCKED: ATOM      2  O   UNL d   1     -14.161   0.055   1.226 -0.12 -0.61    -0.356 OA
DOCKED: BRANCH   2   3
DOCKED: ATOM      3  P   UNL d   1     -13.138   0.368  -0.023 -0.23 -0.02    -0.014 P 
DOCKED: ATOM      4  O   UNL d   1     -13.987   0.135  -1.282 -0.03 -0.71    -0.577 OA
DOCKED: ATOM      5  O   UNL d   1     -11.988  -0.633   0.073 -0.01 -0.47    -0.577 OA
DOCKED: ATOM      6  O   UNL d   1     -12.688   1.821   0.089 -0.45 -1.18    -0.638 OA
DOCKED: ENDBRANCH   2   3
DOCKED: ENDBRANCH   1   2
DOCKED: BRANCH   1   7
DOCKED: ATOM      7  C   UNL d   1     -16.407  -0.753   1.868 -0.11 +0.25    +0.201 C 
DOCKED: BRANCH   7   8
DOCKED: ATOM      8  O   UNL d   1     -16.948   0.499   1.392 -0.50 -0.72    -0.364 OA
DOCKED: BRANCH   8   9
DOCKED: ATOM      9  P   UNL d   1     -18.208   1.215   2.189 -0.07 -0.03    -0.015 P 
DOCKED: ATOM     10  O   UNL d   1     -17.640   1.617   3.555 -0.18 -1.16    -0.577 OA
DOCKED: ATOM     11  O   UNL d   1     -19.310   0.163   2.316 -0.06 -0.86    -0.577 OA
DOCKED: ATOM     12  O   UNL d   1     -18.633   2.429   1.363 -0.60 -1.31    -0.638 OA
DOCKED: ENDBRANCH   8   9
DOCKED: ENDBRANCH   7   8
DOCKED: ENDBRANCH   1   7
DOCKED: BRANCH   1  13
DOCKED: ATOM     13  C   UNL d   1     -14.338  -2.199   2.275 -0.23 +0.08    +0.073 C 
DOCKED: ATOM     14  O   UNL d   1     -13.490  -3.032   1.795 -0.68 -0.86    -0.547 OA
DOCKED: ATOM     15  O   UNL d   1     -14.648  -2.115   3.517 -0.01 -0.39    -0.547 OA
DOCKED: ENDBRANCH   1  13
DOCKED: TORSDOF 6
DOCKED: TER
DOCKED: ENDMDL
________________________________________________________________________________


	BEGINNING GENETIC ALGORITHM DOCKING 55 of 100
Run: 55 Seed: 520875528 267372695 [ Run 55 of 100 GA/GALS ]
Beginning LAMARCKIAN GENETIC ALGORITHM (LGA), with a maximum of 25000000 energy evaluations.

Final-Value: -8.005


	FINAL GENETIC ALGORITHM DOCKED STATE
	_______________________________________________


Detailed state:  trans -18.253 0.262 1.665 quatxyzw -0.235980 -0.045242 -0.964715 -0.107661 center 0.015 0.083 0.031 ntor 6 134.6791 176.5260 1.8566 23.5104 -37.0285 -0.7744
State:	-18.253   0.262   1.665  -0.237 -0.046 -0.970 -167.639    134.68  176.53    1.86   23.51  -37.03   -0.77

DOCKED: MODEL       55
DOCKED: USER    Run = 55
DOCKED: USER    DPF = D:/Protein_go_brrr/autodock/final/AncMH_nat/2_3_BPG/dock.dpf
DOCKED: USER  
DOCKED: USER    Estimated Free Energy of Binding    =   -8.26 kcal/mol  [=(1)+(2)+(3)-(4)]
DOCKED: USER    Estimated Inhibition Constant, Ki   =  885.09 nM (nanomolar)  [Temperature = 298.15 K]
DOCKED: USER    
DOCKED: USER    (1) Final Intermolecular Energy     =  -10.05 kcal/mol
DOCKED: USER        vdW + Hbond + desolv Energy     =   -2.21 kcal/mol
DOCKED: USER        Electrostatic Energy            =   -7.84 kcal/mol
DOCKED: USER    (2) Final Total Internal Energy     =   +2.04 kcal/mol
DOCKED: USER    (3) Torsional Free Energy           =   +1.79 kcal/mol
DOCKED: USER    (4) Unbound System's Energy  [=(2)] =   +2.04 kcal/mol
DOCKED: USER    
DOCKED: USER    
DOCKED: USER    NEWDPF move 2_3_BPG_opt.pdbqt
DOCKED: USER    NEWDPF about 0.015000 0.083000 0.031000
DOCKED: USER    NEWDPF tran0 -18.253129 0.261795 1.664630
DOCKED: USER    NEWDPF quaternion0 -0.235980 -0.045242 -0.964715 -0.107661
DOCKED: USER    NEWDPF axisangle0 -0.237360 -0.045506 -0.970355 -167.639020
DOCKED: USER    NEWDPF quat0 -0.237360 -0.045506 -0.970355 -167.639020
DOCKED: USER    NEWDPF dihe0 134.68 176.53 1.86 23.51 -37.03 -0.77 
DOCKED: USER  keepresnum = 1 
DOCKED: USER  
DOCKED: REMARK  6 active torsions:
DOCKED: REMARK  status: ('A' for Active; 'I' for Inactive)
DOCKED: REMARK    1  A    between atoms: P_1  and  O_3 
DOCKED: REMARK    2  A    between atoms: P_2  and  O_4 
DOCKED: REMARK    3  A    between atoms: O_3  and  C_13 
DOCKED: REMARK    4  A    between atoms: O_4  and  C_14 
DOCKED: REMARK    5  A    between atoms: C_13  and  C_14 
DOCKED: REMARK    6  A    between atoms: C_13  and  C_15 
DOCKED: USER                              x       y       z     vdW  Elec       q    Type
DOCKED: USER                           _______ _______ _______ _____ _____    ______ ____
DOCKED: ROOT
DOCKED: ATOM      1  C   UNL d   1     -17.776   0.687   1.463 -0.10 +0.32    +0.193 C 
DOCKED: ENDROOT
DOCKED: BRANCH   1   2
DOCKED: ATOM      2  O   UNL d   1     -16.971   0.018   0.435 -0.58 -0.58    -0.356 OA
DOCKED: BRANCH   2   3
DOCKED: ATOM      3  P   UNL d   1     -15.426  -0.488   0.685 -0.14 -0.02    -0.014 P 
DOCKED: ATOM      4  O   UNL d   1     -15.058   0.075   2.067 -0.11 -0.96    -0.577 OA
DOCKED: ATOM      5  O   UNL d   1     -14.565   0.125  -0.418 -0.06 -1.02    -0.577 OA
DOCKED: ATOM      6  O   UNL d   1     -15.424  -2.013   0.683 +0.01 -0.85    -0.638 OA
DOCKED: ENDBRANCH   2   3
DOCKED: ENDBRANCH   1   2
DOCKED: BRANCH   1   7
DOCKED: ATOM      7  C   UNL d   1     -19.064  -0.174   1.736 -0.06 +0.24    +0.201 C 
DOCKED: BRANCH   7   8
DOCKED: ATOM      8  O   UNL d   1     -19.715   0.050   3.006 -0.06 -0.60    -0.364 OA
DOCKED: BRANCH   8   9
DOCKED: ATOM      9  P   UNL d   1     -21.361  -0.062   3.126 +0.14 -0.02    -0.015 P 
DOCKED: ATOM     10  O   UNL d   1     -21.684   0.336   4.571 -0.50 -0.98    -0.577 OA
DOCKED: ATOM     11  O   UNL d   1     -21.730  -1.517   2.839 +0.01 -0.37    -0.577 OA
DOCKED: ATOM     12  O   UNL d   1     -21.955   0.917   2.115 -0.16 -0.87    -0.638 OA
DOCKED: ENDBRANCH   8   9
DOCKED: ENDBRANCH   7   8
DOCKED: ENDBRANCH   1   7
DOCKED: BRANCH   1  13
DOCKED: ATOM     13  C   UNL d   1     -18.220   2.111   0.959 -0.08 +0.14    +0.073 C 
DOCKED: ATOM     14  O   UNL d   1     -18.792   2.903   1.788 -0.47 -1.37    -0.547 OA
DOCKED: ATOM     15  O   UNL d   1     -17.920   2.420  -0.251 -0.03 -0.91    -0.547 OA
DOCKED: ENDBRANCH   1  13
DOCKED: TORSDOF 6
DOCKED: TER
DOCKED: ENDMDL
________________________________________________________________________________


	BEGINNING GENETIC ALGORITHM DOCKING 56 of 100
Run: 56 Seed: 1734956360 499022516 [ Run 56 of 100 GA/GALS ]
Beginning LAMARCKIAN GENETIC ALGORITHM (LGA), with a maximum of 25000000 energy evaluations.

Final-Value: -8.238


	FINAL GENETIC ALGORITHM DOCKED STATE
	_______________________________________________


Detailed state:  trans -16.082 -1.028 1.605 quatxyzw -0.308209 0.157040 0.243684 0.906070 center 0.015 0.083 0.031 ntor 6 -33.6616 -90.7913 -130.4407 17.5589 50.2676 -155.9515
State:	-16.082  -1.028   1.605  -0.728  0.371  0.576 50.064    -33.66  -90.79 -130.44   17.56   50.27 -155.95

DOCKED: MODEL       56
DOCKED: USER    Run = 56
DOCKED: USER    DPF = D:/Protein_go_brrr/autodock/final/AncMH_nat/2_3_BPG/dock.dpf
DOCKED: USER  
DOCKED: USER    Estimated Free Energy of Binding    =   -8.72 kcal/mol  [=(1)+(2)+(3)-(4)]
DOCKED: USER    Estimated Inhibition Constant, Ki   =  405.86 nM (nanomolar)  [Temperature = 298.15 K]
DOCKED: USER    
DOCKED: USER    (1) Final Intermolecular Energy     =  -10.51 kcal/mol
DOCKED: USER        vdW + Hbond + desolv Energy     =   -2.73 kcal/mol
DOCKED: USER        Electrostatic Energy            =   -7.78 kcal/mol
DOCKED: USER    (2) Final Total Internal Energy     =   +2.27 kcal/mol
DOCKED: USER    (3) Torsional Free Energy           =   +1.79 kcal/mol
DOCKED: USER    (4) Unbound System's Energy  [=(2)] =   +2.27 kcal/mol
DOCKED: USER    
DOCKED: USER    
DOCKED: USER    NEWDPF move 2_3_BPG_opt.pdbqt
DOCKED: USER    NEWDPF about 0.015000 0.083000 0.031000
DOCKED: USER    NEWDPF tran0 -16.082219 -1.027854 1.604844
DOCKED: USER    NEWDPF quaternion0 -0.308209 0.157040 0.243684 0.906070
DOCKED: USER    NEWDPF axisangle0 -0.728409 0.371142 0.575911 50.064312
DOCKED: USER    NEWDPF quat0 -0.728409 0.371142 0.575911 50.064312
DOCKED: USER    NEWDPF dihe0 -33.66 -90.79 -130.44 17.56 50.27 -155.95 
DOCKED: USER  keepresnum = 1 
DOCKED: USER  
DOCKED: REMARK  6 active torsions:
DOCKED: REMARK  status: ('A' for Active; 'I' for Inactive)
DOCKED: REMARK    1  A    between atoms: P_1  and  O_3 
DOCKED: REMARK    2  A    between atoms: P_2  and  O_4 
DOCKED: REMARK    3  A    between atoms: O_3  and  C_13 
DOCKED: REMARK    4  A    between atoms: O_4  and  C_14 
DOCKED: REMARK    5  A    between atoms: C_13  and  C_14 
DOCKED: REMARK    6  A    between atoms: C_13  and  C_15 
DOCKED: USER                              x       y       z     vdW  Elec       q    Type
DOCKED: USER                           _______ _______ _______ _____ _____    ______ ____
DOCKED: ROOT
DOCKED: ATOM      1  C   UNL d   1     -16.718  -0.973   1.399 -0.09 +0.23    +0.193 C 
DOCKED: ENDROOT
DOCKED: BRANCH   1   2
DOCKED: ATOM      2  O   UNL d   1     -17.037   0.454   1.275 -0.52 -0.68    -0.356 OA
DOCKED: BRANCH   2   3
DOCKED: ATOM      3  P   UNL d   1     -18.150   1.215   2.216 -0.08 -0.03    -0.014 P 
DOCKED: ATOM      4  O   UNL d   1     -17.377   1.606   3.485 -0.22 -1.08    -0.577 OA
DOCKED: ATOM      5  O   UNL d   1     -19.253   0.203   2.520 -0.06 -0.91    -0.577 OA
DOCKED: ATOM      6  O   UNL d   1     -18.644   2.444   1.460 -0.60 -1.37    -0.638 OA
DOCKED: ENDBRANCH   2   3
DOCKED: ENDBRANCH   1   2
DOCKED: BRANCH   1   7
DOCKED: ATOM      7  C   UNL d   1     -15.165  -1.128   1.595 -0.16 +0.25    +0.201 C 
DOCKED: BRANCH   7   8
DOCKED: ATOM      8  O   UNL d   1     -14.415   0.103   1.693 -0.13 -0.62    -0.364 OA
DOCKED: BRANCH   8   9
DOCKED: ATOM      9  P   UNL d   1     -13.118   0.366   0.701 -0.23 -0.02    -0.015 P 
DOCKED: ATOM     10  O   UNL d   1     -13.639   0.100  -0.716 -0.05 -0.76    -0.577 OA
DOCKED: ATOM     11  O   UNL d   1     -12.036  -0.634   1.108 -0.03 -0.45    -0.577 OA
DOCKED: ATOM     12  O   UNL d   1     -12.691   1.821   0.892 -0.43 -1.25    -0.638 OA
DOCKED: ENDBRANCH   8   9
DOCKED: ENDBRANCH   7   8
DOCKED: ENDBRANCH   1   7
DOCKED: BRANCH   1  13
DOCKED: ATOM     13  C   UNL d   1     -17.139  -1.735   0.087 -0.11 +0.08    +0.073 C 
DOCKED: ATOM     14  O   UNL d   1     -17.301  -1.058  -0.988 -0.01 -0.52    -0.547 OA
DOCKED: ATOM     15  O   UNL d   1     -17.234  -3.013   0.162 -0.02 -0.63    -0.547 OA
DOCKED: ENDBRANCH   1  13
DOCKED: TORSDOF 6
DOCKED: TER
DOCKED: ENDMDL
________________________________________________________________________________


	BEGINNING GENETIC ALGORITHM DOCKING 57 of 100
Run: 57 Seed: 2076378644 590601355 [ Run 57 of 100 GA/GALS ]
Beginning LAMARCKIAN GENETIC ALGORITHM (LGA), with a maximum of 25000000 energy evaluations.

Final-Value: -8.211


	FINAL GENETIC ALGORITHM DOCKED STATE
	_______________________________________________


Detailed state:  trans -16.156 -0.750 1.266 quatxyzw -0.416713 0.193853 0.169694 0.871765 center 0.015 0.083 0.031 ntor 6 152.3898 12.4489 -68.0862 40.4058 -23.2195 133.0369
State:	-16.156  -0.750   1.266  -0.851  0.396  0.346 58.671    152.39   12.45  -68.09   40.41  -23.22  133.04

DOCKED: MODEL       57
DOCKED: USER    Run = 57
DOCKED: USER    DPF = D:/Protein_go_brrr/autodock/final/AncMH_nat/2_3_BPG/dock.dpf
DOCKED: USER  
DOCKED: USER    Estimated Free Energy of Binding    =   -8.56 kcal/mol  [=(1)+(2)+(3)-(4)]
DOCKED: USER    Estimated Inhibition Constant, Ki   =  530.80 nM (nanomolar)  [Temperature = 298.15 K]
DOCKED: USER    
DOCKED: USER    (1) Final Intermolecular Energy     =  -10.35 kcal/mol
DOCKED: USER        vdW + Hbond + desolv Energy     =   -2.76 kcal/mol
DOCKED: USER        Electrostatic Energy            =   -7.59 kcal/mol
DOCKED: USER    (2) Final Total Internal Energy     =   +2.14 kcal/mol
DOCKED: USER    (3) Torsional Free Energy           =   +1.79 kcal/mol
DOCKED: USER    (4) Unbound System's Energy  [=(2)] =   +2.14 kcal/mol
DOCKED: USER    
DOCKED: USER    
DOCKED: USER    NEWDPF move 2_3_BPG_opt.pdbqt
DOCKED: USER    NEWDPF about 0.015000 0.083000 0.031000
DOCKED: USER    NEWDPF tran0 -16.156364 -0.750368 1.265846
DOCKED: USER    NEWDPF quaternion0 -0.416713 0.193853 0.169694 0.871765
DOCKED: USER    NEWDPF axisangle0 -0.850568 0.395680 0.346368 58.671107
DOCKED: USER    NEWDPF quat0 -0.850568 0.395680 0.346368 58.671107
DOCKED: USER    NEWDPF dihe0 152.39 12.45 -68.09 40.41 -23.22 133.04 
DOCKED: USER  keepresnum = 1 
DOCKED: USER  
DOCKED: REMARK  6 active torsions:
DOCKED: REMARK  status: ('A' for Active; 'I' for Inactive)
DOCKED: REMARK    1  A    between atoms: P_1  and  O_3 
DOCKED: REMARK    2  A    between atoms: P_2  and  O_4 
DOCKED: REMARK    3  A    between atoms: O_3  and  C_13 
DOCKED: REMARK    4  A    between atoms: O_4  and  C_14 
DOCKED: REMARK    5  A    between atoms: C_13  and  C_14 
DOCKED: REMARK    6  A    between atoms: C_13  and  C_15 
DOCKED: USER                              x       y       z     vdW  Elec       q    Type
DOCKED: USER                           _______ _______ _______ _____ _____    ______ ____
DOCKED: ROOT
DOCKED: ATOM      1  C   UNL d   1     -16.751  -0.729   0.957 -0.09 +0.25    +0.193 C 
DOCKED: ENDROOT
DOCKED: BRANCH   1   2
DOCKED: ATOM      2  O   UNL d   1     -17.246   0.651   1.012 -0.50 -0.70    -0.356 OA
DOCKED: BRANCH   2   3
DOCKED: ATOM      3  P   UNL d   1     -18.217   1.215   2.213 -0.06 -0.03    -0.014 P 
DOCKED: ATOM      4  O   UNL d   1     -18.642   2.613   1.738 -0.61 -1.39    -0.577 OA
DOCKED: ATOM      5  O   UNL d   1     -17.371   1.286   3.483 -0.18 -1.00    -0.577 OA
DOCKED: ATOM      6  O   UNL d   1     -19.413   0.276   2.332 -0.05 -1.01    -0.638 OA
DOCKED: ENDBRANCH   2   3
DOCKED: ENDBRANCH   1   2
DOCKED: BRANCH   1   7
DOCKED: ATOM      7  C   UNL d   1     -15.245  -0.744   1.410 -0.15 +0.28    +0.201 C 
DOCKED: BRANCH   7   8
DOCKED: ATOM      8  O   UNL d   1     -14.313  -0.088   0.522 -0.17 -0.63    -0.364 OA
DOCKED: BRANCH   8   9
DOCKED: ATOM      9  P   UNL d   1     -12.837   0.404   1.084 -0.29 -0.02    -0.015 P 
DOCKED: ATOM     10  O   UNL d   1     -11.816  -0.464   0.338 -0.03 -0.44    -0.577 OA
DOCKED: ATOM     11  O   UNL d   1     -12.821   0.137   2.589 -0.04 -0.50    -0.577 OA
DOCKED: ATOM     12  O   UNL d   1     -12.693   1.885   0.738 -0.41 -1.28    -0.638 OA
DOCKED: ENDBRANCH   8   9
DOCKED: ENDBRANCH   7   8
DOCKED: ENDBRANCH   1   7
DOCKED: BRANCH   1  13
DOCKED: ATOM     13  C   UNL d   1     -16.839  -1.277  -0.516 -0.12 +0.08    +0.073 C 
DOCKED: ATOM     14  O   UNL d   1     -16.947  -2.541  -0.694 -0.04 -0.65    -0.547 OA
DOCKED: ATOM     15  O   UNL d   1     -16.862  -0.407  -1.460 -0.01 -0.55    -0.547 OA
DOCKED: ENDBRANCH   1  13
DOCKED: TORSDOF 6
DOCKED: TER
DOCKED: ENDMDL
________________________________________________________________________________


	BEGINNING GENETIC ALGORITHM DOCKING 58 of 100
Run: 58 Seed: 584731723 760065035 [ Run 58 of 100 GA/GALS ]
Beginning LAMARCKIAN GENETIC ALGORITHM (LGA), with a maximum of 25000000 energy evaluations.

Final-Value: -9.026


	FINAL GENETIC ALGORITHM DOCKED STATE
	_______________________________________________


Detailed state:  trans -15.322 -0.714 1.739 quatxyzw 0.158020 -0.970523 0.160424 -0.085897 center 0.015 0.083 0.031 ntor 6 -167.9899 -124.2897 -151.5715 -5.1719 19.1675 -93.6907
State:	-15.322  -0.714   1.739   0.159 -0.974  0.161 -170.145   -167.99 -124.29 -151.57   -5.17   19.17  -93.69

DOCKED: MODEL       58
DOCKED: USER    Run = 58
DOCKED: USER    DPF = D:/Protein_go_brrr/autodock/final/AncMH_nat/2_3_BPG/dock.dpf
DOCKED: USER  
DOCKED: USER    Estimated Free Energy of Binding    =   -9.34 kcal/mol  [=(1)+(2)+(3)-(4)]
DOCKED: USER    Estimated Inhibition Constant, Ki   =  142.09 nM (nanomolar)  [Temperature = 298.15 K]
DOCKED: USER    
DOCKED: USER    (1) Final Intermolecular Energy     =  -11.13 kcal/mol
DOCKED: USER        vdW + Hbond + desolv Energy     =   -3.71 kcal/mol
DOCKED: USER        Electrostatic Energy            =   -7.43 kcal/mol
DOCKED: USER    (2) Final Total Internal Energy     =   +2.10 kcal/mol
DOCKED: USER    (3) Torsional Free Energy           =   +1.79 kcal/mol
DOCKED: USER    (4) Unbound System's Energy  [=(2)] =   +2.10 kcal/mol
DOCKED: USER    
DOCKED: USER    
DOCKED: USER    NEWDPF move 2_3_BPG_opt.pdbqt
DOCKED: USER    NEWDPF about 0.015000 0.083000 0.031000
DOCKED: USER    NEWDPF tran0 -15.322044 -0.714008 1.739289
DOCKED: USER    NEWDPF quaternion0 0.158020 -0.970523 0.160424 -0.085897
DOCKED: USER    NEWDPF axisangle0 0.158606 -0.974124 0.161019 -170.144785
DOCKED: USER    NEWDPF quat0 0.158606 -0.974124 0.161019 -170.144785
DOCKED: USER    NEWDPF dihe0 -167.99 -124.29 -151.57 -5.17 19.17 -93.69 
DOCKED: USER  keepresnum = 1 
DOCKED: USER  
DOCKED: REMARK  6 active torsions:
DOCKED: REMARK  status: ('A' for Active; 'I' for Inactive)
DOCKED: REMARK    1  A    between atoms: P_1  and  O_3 
DOCKED: REMARK    2  A    between atoms: P_2  and  O_4 
DOCKED: REMARK    3  A    between atoms: O_3  and  C_13 
DOCKED: REMARK    4  A    between atoms: O_4  and  C_14 
DOCKED: REMARK    5  A    between atoms: C_13  and  C_14 
DOCKED: REMARK    6  A    between atoms: C_13  and  C_15 
DOCKED: USER                              x       y       z     vdW  Elec       q    Type
DOCKED: USER                           _______ _______ _______ _____ _____    ______ ____
DOCKED: ROOT
DOCKED: ATOM      1  C   UNL d   1     -14.680  -0.862   1.614 -0.19 +0.24    +0.193 C 
DOCKED: ENDROOT
DOCKED: BRANCH   1   2
DOCKED: ATOM      2  O   UNL d   1     -13.891   0.366   1.759 -0.15 -0.58    -0.356 OA
DOCKED: BRANCH   2   3
DOCKED: ATOM      3  P   UNL d   1     -12.694   0.798   0.717 -0.21 -0.02    -0.014 P 
DOCKED: ATOM      4  O   UNL d   1     -13.346   0.711  -0.672 -0.11 -0.85    -0.577 OA
DOCKED: ATOM      5  O   UNL d   1     -11.567  -0.221   0.873 -0.02 -0.40    -0.577 OA
DOCKED: ATOM      6  O   UNL d   1     -12.273   2.226   1.049 -0.55 -0.93    -0.638 OA
DOCKED: ENDBRANCH   2   3
DOCKED: ENDBRANCH   1   2
DOCKED: BRANCH   1   7
DOCKED: ATOM      7  C   UNL d   1     -16.124  -0.604   2.183 -0.13 +0.25    +0.201 C 
DOCKED: BRANCH   7   8
DOCKED: ATOM      8  O   UNL d   1     -16.924   0.357   1.459 -0.53 -0.67    -0.364 OA
DOCKED: BRANCH   8   9
DOCKED: ATOM      9  P   UNL d   1     -18.185   1.120   2.211 -0.10 -0.03    -0.015 P 
DOCKED: ATOM     10  O   UNL d   1     -17.772   1.217   3.684 -0.16 -1.05    -0.577 OA
DOCKED: ATOM     11  O   UNL d   1     -19.418   0.237   2.020 -0.05 -0.84    -0.577 OA
DOCKED: ATOM     12  O   UNL d   1     -18.329   2.497   1.564 -0.56 -1.42    -0.638 OA
DOCKED: ENDBRANCH   8   9
DOCKED: ENDBRANCH   7   8
DOCKED: ENDBRANCH   1   7
DOCKED: BRANCH   1  13
DOCKED: ATOM     13  C   UNL d   1     -14.017  -2.031   2.434 -0.26 +0.07    +0.073 C 
DOCKED: ATOM     14  O   UNL d   1     -13.540  -3.033   1.793 -0.66 -0.86    -0.547 OA
DOCKED: ATOM     15  O   UNL d   1     -13.937  -1.878   3.706 -0.03 -0.35    -0.547 OA
DOCKED: ENDBRANCH   1  13
DOCKED: TORSDOF 6
DOCKED: TER
DOCKED: ENDMDL
________________________________________________________________________________


	BEGINNING GENETIC ALGORITHM DOCKING 59 of 100
Run: 59 Seed: 738400100 855062391 [ Run 59 of 100 GA/GALS ]
Beginning LAMARCKIAN GENETIC ALGORITHM (LGA), with a maximum of 25000000 energy evaluations.

Final-Value: -7.941


	FINAL GENETIC ALGORITHM DOCKED STATE
	_______________________________________________


Detailed state:  trans -18.358 0.760 1.296 quatxyzw -0.394261 -0.745976 0.533100 -0.062314 center 0.015 0.083 0.031 ntor 6 152.6244 -120.2492 -176.7305 59.2730 7.5054 113.2725
State:	-18.358   0.760   1.296  -0.395 -0.747  0.534 -172.855    152.62 -120.25 -176.73   59.27    7.51  113.27

DOCKED: MODEL       59
DOCKED: USER    Run = 59
DOCKED: USER    DPF = D:/Protein_go_brrr/autodock/final/AncMH_nat/2_3_BPG/dock.dpf
DOCKED: USER  
DOCKED: USER    Estimated Free Energy of Binding    =   -8.23 kcal/mol  [=(1)+(2)+(3)-(4)]
DOCKED: USER    Estimated Inhibition Constant, Ki   =  929.07 nM (nanomolar)  [Temperature = 298.15 K]
DOCKED: USER    
DOCKED: USER    (1) Final Intermolecular Energy     =  -10.02 kcal/mol
DOCKED: USER        vdW + Hbond + desolv Energy     =   -2.43 kcal/mol
DOCKED: USER        Electrostatic Energy            =   -7.59 kcal/mol
DOCKED: USER    (2) Final Total Internal Energy     =   +2.08 kcal/mol
DOCKED: USER    (3) Torsional Free Energy           =   +1.79 kcal/mol
DOCKED: USER    (4) Unbound System's Energy  [=(2)] =   +2.08 kcal/mol
DOCKED: USER    
DOCKED: USER    
DOCKED: USER    NEWDPF move 2_3_BPG_opt.pdbqt
DOCKED: USER    NEWDPF about 0.015000 0.083000 0.031000
DOCKED: USER    NEWDPF tran0 -18.357576 0.759940 1.295678
DOCKED: USER    NEWDPF quaternion0 -0.394261 -0.745976 0.533100 -0.062314
DOCKED: USER    NEWDPF axisangle0 -0.395028 -0.747428 0.534138 -172.854754
DOCKED: USER    NEWDPF quat0 -0.395028 -0.747428 0.534138 -172.854754
DOCKED: USER    NEWDPF dihe0 152.62 -120.25 -176.73 59.27 7.51 113.27 
DOCKED: USER  keepresnum = 1 
DOCKED: USER  
DOCKED: REMARK  6 active torsions:
DOCKED: REMARK  status: ('A' for Active; 'I' for Inactive)
DOCKED: REMARK    1  A    between atoms: P_1  and  O_3 
DOCKED: REMARK    2  A    between atoms: P_2  and  O_4 
DOCKED: REMARK    3  A    between atoms: O_3  and  C_13 
DOCKED: REMARK    4  A    between atoms: O_4  and  C_14 
DOCKED: REMARK    5  A    between atoms: C_13  and  C_14 
DOCKED: REMARK    6  A    between atoms: C_13  and  C_15 
DOCKED: USER                              x       y       z     vdW  Elec       q    Type
DOCKED: USER                           _______ _______ _______ _____ _____    ______ ____
DOCKED: ROOT
DOCKED: ATOM      1  C   UNL d   1     -18.169   0.269   1.712 -0.11 +0.27    +0.193 C 
DOCKED: ENDROOT
DOCKED: BRANCH   1   2
DOCKED: ATOM      2  O   UNL d   1     -16.707   0.158   1.654 -0.45 -0.62    -0.356 OA
DOCKED: BRANCH   2   3
DOCKED: ATOM      3  P   UNL d   1     -15.900  -0.483   0.372 -0.13 -0.02    -0.014 P 
DOCKED: ATOM      4  O   UNL d   1     -16.377   0.343  -0.833 -0.31 -0.94    -0.577 OA
DOCKED: ATOM      5  O   UNL d   1     -16.326  -1.945   0.255 -0.04 -0.70    -0.577 OA
DOCKED: ATOM      6  O   UNL d   1     -14.406  -0.303   0.618 -0.07 -1.03    -0.638 OA
DOCKED: ENDBRANCH   2   3
DOCKED: ENDBRANCH   1   2
DOCKED: BRANCH   1   7
DOCKED: ATOM      7  C   UNL d   1     -18.604   1.590   0.977 -0.11 +0.34    +0.201 C 
DOCKED: BRANCH   7   8
DOCKED: ATOM      8  O   UNL d   1     -18.625   2.786   1.788 -0.65 -0.89    -0.364 OA
DOCKED: BRANCH   8   9
DOCKED: ATOM      9  P   UNL d   1     -19.310   4.173   1.204 -0.19 -0.02    -0.015 P 
DOCKED: ATOM     10  O   UNL d   1     -19.928   3.777  -0.142 +0.00 -0.52    -0.577 OA
DOCKED: ATOM     11  O   UNL d   1     -18.181   5.191   1.035 -0.06 -0.65    -0.577 OA
DOCKED: ATOM     12  O   UNL d   1     -20.368   4.615   2.214 -0.09 -1.23    -0.638 OA
DOCKED: ENDBRANCH   8   9
DOCKED: ENDBRANCH   7   8
DOCKED: ENDBRANCH   1   7
DOCKED: BRANCH   1  13
DOCKED: ATOM     13  C   UNL d   1     -18.646   0.345   3.210 -0.07 +0.12    +0.073 C 
DOCKED: ATOM     14  O   UNL d   1     -19.827  -0.059   3.497 -0.08 -0.88    -0.547 OA
DOCKED: ATOM     15  O   UNL d   1     -17.789   0.754   4.074 -0.09 -0.82    -0.547 OA
DOCKED: ENDBRANCH   1  13
DOCKED: TORSDOF 6
DOCKED: TER
DOCKED: ENDMDL
________________________________________________________________________________


	BEGINNING GENETIC ALGORITHM DOCKING 60 of 100
Run: 60 Seed: 11597521 1315851549 [ Run 60 of 100 GA/GALS ]
Beginning LAMARCKIAN GENETIC ALGORITHM (LGA), with a maximum of 25000000 energy evaluations.

Final-Value: -9.017


	FINAL GENETIC ALGORITHM DOCKED STATE
	_______________________________________________


Detailed state:  trans -15.032 -0.509 1.846 quatxyzw 0.105708 -0.960516 0.180833 -0.183124 center 0.015 0.083 0.031 ntor 6 16.6004 -153.1306 -174.4146 10.8782 1.1858 -73.0941
State:	-15.032  -0.509   1.846   0.108 -0.977  0.184 -158.896     16.60 -153.13 -174.41   10.88    1.19  -73.09

DOCKED: MODEL       60
DOCKED: USER    Run = 60
DOCKED: USER    DPF = D:/Protein_go_brrr/autodock/final/AncMH_nat/2_3_BPG/dock.dpf
DOCKED: USER  
DOCKED: USER    Estimated Free Energy of Binding    =   -9.22 kcal/mol  [=(1)+(2)+(3)-(4)]
DOCKED: USER    Estimated Inhibition Constant, Ki   =  175.85 nM (nanomolar)  [Temperature = 298.15 K]
DOCKED: USER    
DOCKED: USER    (1) Final Intermolecular Energy     =  -11.01 kcal/mol
DOCKED: USER        vdW + Hbond + desolv Energy     =   -3.52 kcal/mol
DOCKED: USER        Electrostatic Energy            =   -7.49 kcal/mol
DOCKED: USER    (2) Final Total Internal Energy     =   +1.99 kcal/mol
DOCKED: USER    (3) Torsional Free Energy           =   +1.79 kcal/mol
DOCKED: USER    (4) Unbound System's Energy  [=(2)] =   +1.99 kcal/mol
DOCKED: USER    
DOCKED: USER    
DOCKED: USER    NEWDPF move 2_3_BPG_opt.pdbqt
DOCKED: USER    NEWDPF about 0.015000 0.083000 0.031000
DOCKED: USER    NEWDPF tran0 -15.032326 -0.509473 1.846132
DOCKED: USER    NEWDPF quaternion0 0.105708 -0.960516 0.180833 -0.183124
DOCKED: USER    NEWDPF axisangle0 0.107526 -0.977038 0.183943 -158.896415
DOCKED: USER    NEWDPF quat0 0.107526 -0.977038 0.183943 -158.896415
DOCKED: USER    NEWDPF dihe0 16.60 -153.13 -174.41 10.88 1.19 -73.09 
DOCKED: USER  keepresnum = 1 
DOCKED: USER  
DOCKED: REMARK  6 active torsions:
DOCKED: REMARK  status: ('A' for Active; 'I' for Inactive)
DOCKED: REMARK    1  A    between atoms: P_1  and  O_3 
DOCKED: REMARK    2  A    between atoms: P_2  and  O_4 
DOCKED: REMARK    3  A    between atoms: O_3  and  C_13 
DOCKED: REMARK    4  A    between atoms: O_4  and  C_14 
DOCKED: REMARK    5  A    between atoms: C_13  and  C_14 
DOCKED: REMARK    6  A    between atoms: C_13  and  C_15 
DOCKED: USER                              x       y       z     vdW  Elec       q    Type
DOCKED: USER                           _______ _______ _______ _____ _____    ______ ____
DOCKED: ROOT
DOCKED: ATOM      1  C   UNL d   1     -14.444  -0.750   1.633 -0.19 +0.24    +0.193 C 
DOCKED: ENDROOT
DOCKED: BRANCH   1   2
DOCKED: ATOM      2  O   UNL d   1     -13.501   0.370   1.535 -0.19 -0.54    -0.356 OA
DOCKED: BRANCH   2   3
DOCKED: ATOM      3  P   UNL d   1     -12.738   0.788   0.140 -0.18 -0.02    -0.014 P 
DOCKED: ATOM      4  O   UNL d   1     -13.632   0.217  -0.972 -0.04 -0.73    -0.577 OA
DOCKED: ATOM      5  O   UNL d   1     -11.365   0.118   0.156 -0.02 -0.38    -0.577 OA
DOCKED: ATOM      6  O   UNL d   1     -12.670   2.311   0.078 -0.42 -1.27    -0.638 OA
DOCKED: ENDBRANCH   2   3
DOCKED: ENDBRANCH   1   2
DOCKED: BRANCH   1   7
DOCKED: ATOM      7  C   UNL d   1     -15.728  -0.263   2.401 -0.13 +0.27    +0.201 C 
DOCKED: BRANCH   7   8
DOCKED: ATOM      8  O   UNL d   1     -16.748   0.361   1.590 -0.50 -0.69    -0.364 OA
DOCKED: BRANCH   8   9
DOCKED: ATOM      9  P   UNL d   1     -18.095   1.006   2.302 -0.12 -0.03    -0.015 P 
DOCKED: ATOM     10  O   UNL d   1     -17.821   0.936   3.810 -0.11 -0.96    -0.577 OA
DOCKED: ATOM     11  O   UNL d   1     -19.278   0.128   1.896 -0.04 -0.78    -0.577 OA
DOCKED: ATOM     12  O   UNL d   1     -18.221   2.446   1.808 -0.62 -1.49    -0.638 OA
DOCKED: ENDBRANCH   8   9
DOCKED: ENDBRANCH   7   8
DOCKED: ENDBRANCH   1   7
DOCKED: BRANCH   1  13
DOCKED: ATOM     13  C   UNL d   1     -13.793  -1.934   2.440 -0.26 +0.07    +0.073 C 
DOCKED: ATOM     14  O   UNL d   1     -13.608  -1.787   3.699 -0.04 -0.33    -0.547 OA
DOCKED: ATOM     15  O   UNL d   1     -13.542  -3.013   1.791 -0.66 -0.86    -0.547 OA
DOCKED: ENDBRANCH   1  13
DOCKED: TORSDOF 6
DOCKED: TER
DOCKED: ENDMDL
________________________________________________________________________________


	BEGINNING GENETIC ALGORITHM DOCKING 61 of 100
Run: 61 Seed: 1357764257 111674828 [ Run 61 of 100 GA/GALS ]
Beginning LAMARCKIAN GENETIC ALGORITHM (LGA), with a maximum of 25000000 energy evaluations.

Final-Value: -8.701


	FINAL GENETIC ALGORITHM DOCKED STATE
	_______________________________________________


Detailed state:  trans -14.879 -0.806 1.319 quatxyzw 0.101508 -0.953422 0.170527 0.227164 center 0.015 0.083 0.031 ntor 6 -175.0665 -137.9323 -112.0205 29.7244 -16.6384 -179.7058
State:	-14.879  -0.806   1.319   0.104 -0.979  0.175 153.740   -175.07 -137.93 -112.02   29.72  -16.64 -179.71

DOCKED: MODEL       61
DOCKED: USER    Run = 61
DOCKED: USER    DPF = D:/Protein_go_brrr/autodock/final/AncMH_nat/2_3_BPG/dock.dpf
DOCKED: USER  
DOCKED: USER    Estimated Free Energy of Binding    =   -9.07 kcal/mol  [=(1)+(2)+(3)-(4)]
DOCKED: USER    Estimated Inhibition Constant, Ki   =  226.02 nM (nanomolar)  [Temperature = 298.15 K]
DOCKED: USER    
DOCKED: USER    (1) Final Intermolecular Energy     =  -10.86 kcal/mol
DOCKED: USER        vdW + Hbond + desolv Energy     =   -3.59 kcal/mol
DOCKED: USER        Electrostatic Energy            =   -7.26 kcal/mol
DOCKED: USER    (2) Final Total Internal Energy     =   +2.16 kcal/mol
DOCKED: USER    (3) Torsional Free Energy           =   +1.79 kcal/mol
DOCKED: USER    (4) Unbound System's Energy  [=(2)] =   +2.16 kcal/mol
DOCKED: USER    
DOCKED: USER    
DOCKED: USER    NEWDPF move 2_3_BPG_opt.pdbqt
DOCKED: USER    NEWDPF about 0.015000 0.083000 0.031000
DOCKED: USER    NEWDPF tran0 -14.878895 -0.806430 1.319179
DOCKED: USER    NEWDPF quaternion0 0.101508 -0.953422 0.170527 0.227164
DOCKED: USER    NEWDPF axisangle0 0.104233 -0.979017 0.175105 153.739649
DOCKED: USER    NEWDPF quat0 0.104233 -0.979017 0.175105 153.739649
DOCKED: USER    NEWDPF dihe0 -175.07 -137.93 -112.02 29.72 -16.64 -179.71 
DOCKED: USER  keepresnum = 1 
DOCKED: USER  
DOCKED: REMARK  6 active torsions:
DOCKED: REMARK  status: ('A' for Active; 'I' for Inactive)
DOCKED: REMARK    1  A    between atoms: P_1  and  O_3 
DOCKED: REMARK    2  A    between atoms: P_2  and  O_4 
DOCKED: REMARK    3  A    between atoms: O_3  and  C_13 
DOCKED: REMARK    4  A    between atoms: O_4  and  C_14 
DOCKED: REMARK    5  A    between atoms: C_13  and  C_14 
DOCKED: REMARK    6  A    between atoms: C_13  and  C_15 
DOCKED: USER                              x       y       z     vdW  Elec       q    Type
DOCKED: USER                           _______ _______ _______ _____ _____    ______ ____
DOCKED: ROOT
DOCKED: ATOM      1  C   UNL d   1     -14.286  -0.961   1.591 -0.21 +0.23    +0.193 C 
DOCKED: ENDROOT
DOCKED: BRANCH   1   2
DOCKED: ATOM      2  O   UNL d   1     -13.759   0.238   2.252 -0.16 -0.47    -0.356 OA
DOCKED: BRANCH   2   3
DOCKED: ATOM      3  P   UNL d   1     -12.577   1.181   1.605 -0.23 -0.02    -0.014 P 
DOCKED: ATOM      4  O   UNL d   1     -12.887   1.205   0.100 -0.35 -1.01    -0.577 OA
DOCKED: ATOM      5  O   UNL d   1     -11.243   0.494   1.892 +0.00 -0.34    -0.577 OA
DOCKED: ATOM      6  O   UNL d   1     -12.691   2.570   2.223 -0.29 -0.92    -0.638 OA
DOCKED: ENDBRANCH   2   3
DOCKED: ENDBRANCH   1   2
DOCKED: BRANCH   1   7
DOCKED: ATOM      7  C   UNL d   1     -15.789  -0.706   1.205 -0.12 +0.29    +0.201 C 
DOCKED: BRANCH   7   8
DOCKED: ATOM      8  O   UNL d   1     -16.455   0.354   1.927 -0.42 -0.68    -0.364 OA
DOCKED: BRANCH   8   9
DOCKED: ATOM      9  P   UNL d   1     -17.906   0.939   1.392 -0.13 -0.03    -0.015 P 
DOCKED: ATOM     10  O   UNL d   1     -18.912  -0.189   1.652 +0.00 -0.68    -0.577 OA
DOCKED: ATOM     11  O   UNL d   1     -17.747   1.229  -0.100 -0.22 -0.95    -0.577 OA
DOCKED: ATOM     12  O   UNL d   1     -18.220   2.188   2.214 -0.59 -1.62    -0.638 OA
DOCKED: ENDBRANCH   8   9
DOCKED: ENDBRANCH   7   8
DOCKED: ENDBRANCH   1   7
DOCKED: BRANCH   1  13
DOCKED: ATOM     13  C   UNL d   1     -14.218  -2.191   2.570 -0.25 +0.07    +0.073 C 
DOCKED: ATOM     14  O   UNL d   1     -13.544  -3.221   2.214 -0.64 -0.77    -0.547 OA
DOCKED: ATOM     15  O   UNL d   1     -14.798  -2.062   3.709 -0.00 -0.38    -0.547 OA
DOCKED: ENDBRANCH   1  13
DOCKED: TORSDOF 6
DOCKED: TER
DOCKED: ENDMDL
________________________________________________________________________________


	BEGINNING GENETIC ALGORITHM DOCKING 62 of 100
Run: 62 Seed: 581123364 848227620 [ Run 62 of 100 GA/GALS ]
Beginning LAMARCKIAN GENETIC ALGORITHM (LGA), with a maximum of 25000000 energy evaluations.

Final-Value: -8.027


	FINAL GENETIC ALGORITHM DOCKED STATE
	_______________________________________________


Detailed state:  trans -17.341 0.620 2.201 quatxyzw 0.460461 -0.229577 0.292694 0.805978 center 0.015 0.083 0.031 ntor 6 143.7367 33.9761 -176.8934 27.8056 38.3587 -13.2956
State:	-17.341   0.620   2.201   0.778 -0.388  0.494 72.590    143.74   33.98 -176.89   27.81   38.36  -13.30

DOCKED: MODEL       62
DOCKED: USER    Run = 62
DOCKED: USER    DPF = D:/Protein_go_brrr/autodock/final/AncMH_nat/2_3_BPG/dock.dpf
DOCKED: USER  
DOCKED: USER    Estimated Free Energy of Binding    =   -8.30 kcal/mol  [=(1)+(2)+(3)-(4)]
DOCKED: USER    Estimated Inhibition Constant, Ki   =  824.50 nM (nanomolar)  [Temperature = 298.15 K]
DOCKED: USER    
DOCKED: USER    (1) Final Intermolecular Energy     =  -10.09 kcal/mol
DOCKED: USER        vdW + Hbond + desolv Energy     =   -1.99 kcal/mol
DOCKED: USER        Electrostatic Energy            =   -8.10 kcal/mol
DOCKED: USER    (2) Final Total Internal Energy     =   +2.06 kcal/mol
DOCKED: USER    (3) Torsional Free Energy           =   +1.79 kcal/mol
DOCKED: USER    (4) Unbound System's Energy  [=(2)] =   +2.06 kcal/mol
DOCKED: USER    
DOCKED: USER    
DOCKED: USER    NEWDPF move 2_3_BPG_opt.pdbqt
DOCKED: USER    NEWDPF about 0.015000 0.083000 0.031000
DOCKED: USER    NEWDPF tran0 -17.341008 0.620107 2.201074
DOCKED: USER    NEWDPF quaternion0 0.460461 -0.229577 0.292694 0.805978
DOCKED: USER    NEWDPF axisangle0 0.777877 -0.387835 0.494461 72.590421
DOCKED: USER    NEWDPF quat0 0.777877 -0.387835 0.494461 72.590421
DOCKED: USER    NEWDPF dihe0 143.74 33.98 -176.89 27.81 38.36 -13.30 
DOCKED: USER  keepresnum = 1 
DOCKED: USER  
DOCKED: REMARK  6 active torsions:
DOCKED: REMARK  status: ('A' for Active; 'I' for Inactive)
DOCKED: REMARK    1  A    between atoms: P_1  and  O_3 
DOCKED: REMARK    2  A    between atoms: P_2  and  O_4 
DOCKED: REMARK    3  A    between atoms: O_3  and  C_13 
DOCKED: REMARK    4  A    between atoms: O_4  and  C_14 
DOCKED: REMARK    5  A    between atoms: C_13  and  C_14 
DOCKED: REMARK    6  A    between atoms: C_13  and  C_15 
DOCKED: USER                              x       y       z     vdW  Elec       q    Type
DOCKED: USER                           _______ _______ _______ _____ _____    ______ ____
DOCKED: ROOT
DOCKED: ATOM      1  C   UNL d   1     -17.787   0.951   2.577 -0.16 +0.35    +0.193 C 
DOCKED: ENDROOT
DOCKED: BRANCH   1   2
DOCKED: ATOM      2  O   UNL d   1     -18.749   1.600   1.681 -0.57 -0.74    -0.356 OA
DOCKED: BRANCH   2   3
DOCKED: ATOM      3  P   UNL d   1     -18.739   3.213   1.361 +0.03 -0.03    -0.014 P 
DOCKED: ATOM      4  O   UNL d   1     -20.211   3.558   1.082 -0.07 -0.89    -0.577 OA
DOCKED: ATOM      5  O   UNL d   1     -17.869   3.424   0.123 +0.00 -0.99    -0.577 OA
DOCKED: ATOM      6  O   UNL d   1     -18.220   3.936   2.599 -0.11 -1.38    -0.638 OA
DOCKED: ENDBRANCH   2   3
DOCKED: ENDBRANCH   1   2
DOCKED: BRANCH   1   7
DOCKED: ATOM      7  C   UNL d   1     -16.917  -0.058   1.739 -0.10 +0.30    +0.201 C 
DOCKED: BRANCH   7   8
DOCKED: ATOM      8  O   UNL d   1     -15.543  -0.207   2.161 -0.22 -0.53    -0.364 OA
DOCKED: BRANCH   8   9
DOCKED: ATOM      9  P   UNL d   1     -14.335  -0.301   1.035 -0.17 -0.02    -0.015 P 
DOCKED: ATOM     10  O   UNL d   1     -15.027  -0.060  -0.313 -0.22 -1.01    -0.577 OA
DOCKED: ATOM     11  O   UNL d   1     -13.745  -1.708   1.130 -0.09 -0.69    -0.577 OA
DOCKED: ATOM     12  O   UNL d   1     -13.324   0.796   1.365 -0.12 -1.13    -0.638 OA
DOCKED: ENDBRANCH   8   9
DOCKED: ENDBRANCH   7   8
DOCKED: ENDBRANCH   1   7
DOCKED: BRANCH   1  13
DOCKED: ATOM     13  C   UNL d   1     -18.548   0.149   3.698 -0.07 +0.11    +0.073 C 
DOCKED: ATOM     14  O   UNL d   1     -17.903  -0.195   4.750 -0.06 -0.55    -0.547 OA
DOCKED: ATOM     15  O   UNL d   1     -19.802  -0.058   3.516 -0.08 -0.88    -0.547 OA
DOCKED: ENDBRANCH   1  13
DOCKED: TORSDOF 6
DOCKED: TER
DOCKED: ENDMDL
________________________________________________________________________________


	BEGINNING GENETIC ALGORITHM DOCKING 63 of 100
Run: 63 Seed: 1610572255 1053377426 [ Run 63 of 100 GA/GALS ]
Beginning LAMARCKIAN GENETIC ALGORITHM (LGA), with a maximum of 25000000 energy evaluations.

Final-Value: -8.212


	FINAL GENETIC ALGORITHM DOCKED STATE
	_______________________________________________


Detailed state:  trans -17.385 -0.423 2.497 quatxyzw 0.869061 -0.073768 -0.186478 -0.452235 center 0.015 0.083 0.031 ntor 6 126.4004 -23.1497 -100.3436 16.1712 54.8684 89.6365
State:	-17.385  -0.423   2.497   0.974 -0.083 -0.209 -126.226    126.40  -23.15 -100.34   16.17   54.87   89.64

DOCKED: MODEL       63
DOCKED: USER    Run = 63
DOCKED: USER    DPF = D:/Protein_go_brrr/autodock/final/AncMH_nat/2_3_BPG/dock.dpf
DOCKED: USER  
DOCKED: USER    Estimated Free Energy of Binding    =   -8.88 kcal/mol  [=(1)+(2)+(3)-(4)]
DOCKED: USER    Estimated Inhibition Constant, Ki   =  307.45 nM (nanomolar)  [Temperature = 298.15 K]
DOCKED: USER    
DOCKED: USER    (1) Final Intermolecular Energy     =  -10.67 kcal/mol
DOCKED: USER        vdW + Hbond + desolv Energy     =   -2.60 kcal/mol
DOCKED: USER        Electrostatic Energy            =   -8.08 kcal/mol
DOCKED: USER    (2) Final Total Internal Energy     =   +2.46 kcal/mol
DOCKED: USER    (3) Torsional Free Energy           =   +1.79 kcal/mol
DOCKED: USER    (4) Unbound System's Energy  [=(2)] =   +2.46 kcal/mol
DOCKED: USER    
DOCKED: USER    
DOCKED: USER    NEWDPF move 2_3_BPG_opt.pdbqt
DOCKED: USER    NEWDPF about 0.015000 0.083000 0.031000
DOCKED: USER    NEWDPF tran0 -17.384763 -0.422546 2.497065
DOCKED: USER    NEWDPF quaternion0 0.869061 -0.073768 -0.186478 -0.452235
DOCKED: USER    NEWDPF axisangle0 0.974395 -0.082709 -0.209080 -126.225662
DOCKED: USER    NEWDPF quat0 0.974395 -0.082709 -0.209080 -126.225662
DOCKED: USER    NEWDPF dihe0 126.40 -23.15 -100.34 16.17 54.87 89.64 
DOCKED: USER  keepresnum = 1 
DOCKED: USER  
DOCKED: REMARK  6 active torsions:
DOCKED: REMARK  status: ('A' for Active; 'I' for Inactive)
DOCKED: REMARK    1  A    between atoms: P_1  and  O_3 
DOCKED: REMARK    2  A    between atoms: P_2  and  O_4 
DOCKED: REMARK    3  A    between atoms: O_3  and  C_13 
DOCKED: REMARK    4  A    between atoms: O_4  and  C_14 
DOCKED: REMARK    5  A    between atoms: C_13  and  C_14 
DOCKED: REMARK    6  A    between atoms: C_13  and  C_15 
DOCKED: USER                              x       y       z     vdW  Elec       q    Type
DOCKED: USER                           _______ _______ _______ _____ _____    ______ ____
DOCKED: ROOT
DOCKED: ATOM      1  C   UNL d   1     -17.973  -0.138   2.346 -0.11 +0.25    +0.193 C 
DOCKED: ENDROOT
DOCKED: BRANCH   1   2
DOCKED: ATOM      2  O   UNL d   1     -18.655   0.198   3.600 -0.10 -0.55    -0.356 OA
DOCKED: BRANCH   2   3
DOCKED: ATOM      3  P   UNL d   1     -20.080  -0.479   4.063 -0.06 -0.02    -0.014 P 
DOCKED: ATOM      4  O   UNL d   1     -20.055  -0.412   5.598 -0.02 -0.57    -0.577 OA
DOCKED: ATOM      5  O   UNL d   1     -20.078  -1.923   3.564 +0.03 -0.40    -0.577 OA
DOCKED: ATOM      6  O   UNL d   1     -21.212   0.363   3.484 -0.28 -1.37    -0.638 OA
DOCKED: ENDBRANCH   2   3
DOCKED: ENDBRANCH   1   2
DOCKED: BRANCH   1   7
DOCKED: ATOM      7  C   UNL d   1     -16.485  -0.533   2.670 -0.13 +0.23    +0.201 C 
DOCKED: BRANCH   7   8
DOCKED: ATOM      8  O   UNL d   1     -15.474   0.396   2.220 -0.21 -0.68    -0.364 OA
DOCKED: BRANCH   8   9
DOCKED: ATOM      9  P   UNL d   1     -14.279  -0.110   1.195 -0.11 -0.02    -0.015 P 
DOCKED: ATOM     10  O   UNL d   1     -14.909  -0.071  -0.203 -0.20 -1.02    -0.577 OA
DOCKED: ATOM     11  O   UNL d   1     -13.905  -1.532   1.613 -0.09 -0.64    -0.577 OA
DOCKED: ATOM     12  O   UNL d   1     -13.120   0.877   1.329 -0.21 -1.07    -0.638 OA
DOCKED: ENDBRANCH   8   9
DOCKED: ENDBRANCH   7   8
DOCKED: ENDBRANCH   1   7
DOCKED: BRANCH   1  13
DOCKED: ATOM     13  C   UNL d   1     -17.965   1.108   1.384 -0.11 +0.13    +0.073 C 
DOCKED: ATOM     14  O   UNL d   1     -17.409   0.992   0.236 -0.35 -1.06    -0.547 OA
DOCKED: ATOM     15  O   UNL d   1     -18.581   2.160   1.789 -0.64 -1.30    -0.547 OA
DOCKED: ENDBRANCH   1  13
DOCKED: TORSDOF 6
DOCKED: TER
DOCKED: ENDMDL
________________________________________________________________________________


	BEGINNING GENETIC ALGORITHM DOCKING 64 of 100
Run: 64 Seed: 20139477 1496288257 [ Run 64 of 100 GA/GALS ]
Beginning LAMARCKIAN GENETIC ALGORITHM (LGA), with a maximum of 25000000 energy evaluations.

Final-Value: -8.137


	FINAL GENETIC ALGORITHM DOCKED STATE
	_______________________________________________


Detailed state:  trans -15.337 -0.869 1.553 quatxyzw 0.024900 -0.716339 0.465779 -0.518930 center 0.015 0.083 0.031 ntor 6 -117.0665 142.1368 175.8471 68.2723 -40.6888 -85.8344
State:	-15.337  -0.869   1.553   0.029 -0.838  0.545 -117.479   -117.07  142.14  175.85   68.27  -40.69  -85.83

DOCKED: MODEL       64
DOCKED: USER    Run = 64
DOCKED: USER    DPF = D:/Protein_go_brrr/autodock/final/AncMH_nat/2_3_BPG/dock.dpf
DOCKED: USER  
DOCKED: USER    Estimated Free Energy of Binding    =   -8.75 kcal/mol  [=(1)+(2)+(3)-(4)]
DOCKED: USER    Estimated Inhibition Constant, Ki   =  388.06 nM (nanomolar)  [Temperature = 298.15 K]
DOCKED: USER    
DOCKED: USER    (1) Final Intermolecular Energy     =  -10.54 kcal/mol
DOCKED: USER        vdW + Hbond + desolv Energy     =   -3.14 kcal/mol
DOCKED: USER        Electrostatic Energy            =   -7.40 kcal/mol
DOCKED: USER    (2) Final Total Internal Energy     =   +2.40 kcal/mol
DOCKED: USER    (3) Torsional Free Energy           =   +1.79 kcal/mol
DOCKED: USER    (4) Unbound System's Energy  [=(2)] =   +2.40 kcal/mol
DOCKED: USER    
DOCKED: USER    
DOCKED: USER    NEWDPF move 2_3_BPG_opt.pdbqt
DOCKED: USER    NEWDPF about 0.015000 0.083000 0.031000
DOCKED: USER    NEWDPF tran0 -15.336689 -0.869232 1.552971
DOCKED: USER    NEWDPF quaternion0 0.024900 -0.716339 0.465779 -0.518930
DOCKED: USER    NEWDPF axisangle0 0.029129 -0.838003 0.544887 -117.478926
DOCKED: USER    NEWDPF quat0 0.029129 -0.838003 0.544887 -117.478926
DOCKED: USER    NEWDPF dihe0 -117.07 142.14 175.85 68.27 -40.69 -85.83 
DOCKED: USER  keepresnum = 1 
DOCKED: USER  
DOCKED: REMARK  6 active torsions:
DOCKED: REMARK  status: ('A' for Active; 'I' for Inactive)
DOCKED: REMARK    1  A    between atoms: P_1  and  O_3 
DOCKED: REMARK    2  A    between atoms: P_2  and  O_4 
DOCKED: REMARK    3  A    between atoms: O_3  and  C_13 
DOCKED: REMARK    4  A    between atoms: O_4  and  C_14 
DOCKED: REMARK    5  A    between atoms: C_13  and  C_14 
DOCKED: REMARK    6  A    between atoms: C_13  and  C_15 
DOCKED: USER                              x       y       z     vdW  Elec       q    Type
DOCKED: USER                           _______ _______ _______ _____ _____    ______ ____
DOCKED: ROOT
DOCKED: ATOM      1  C   UNL d   1     -14.972  -1.372   1.301 -0.17 +0.24    +0.193 C 
DOCKED: ENDROOT
DOCKED: BRANCH   1   2
DOCKED: ATOM      2  O   UNL d   1     -14.440  -0.946   0.002 -0.14 -0.48    -0.356 OA
DOCKED: BRANCH   2   3
DOCKED: ATOM      3  P   UNL d   1     -15.392  -0.601  -1.294 -0.20 -0.02    -0.014 P 
DOCKED: ATOM      4  O   UNL d   1     -16.463  -1.703  -1.286 -0.05 -0.62    -0.577 OA
DOCKED: ATOM      5  O   UNL d   1     -14.509  -0.684  -2.538 -0.04 -0.50    -0.577 OA
DOCKED: ATOM      6  O   UNL d   1     -16.005   0.778  -1.075 -0.10 -1.19    -0.638 OA
DOCKED: ENDBRANCH   2   3
DOCKED: ENDBRANCH   1   2
DOCKED: BRANCH   1   7
DOCKED: ATOM      7  C   UNL d   1     -15.579  -0.120   2.034 -0.08 +0.32    +0.201 C 
DOCKED: BRANCH   7   8
DOCKED: ATOM      8  O   UNL d   1     -16.837   0.366   1.515 -0.52 -0.69    -0.364 OA
DOCKED: BRANCH   8   9
DOCKED: ATOM      9  P   UNL d   1     -17.997   0.934   2.548 -0.13 -0.03    -0.015 P 
DOCKED: ATOM     10  O   UNL d   1     -17.408   0.745   3.952 -0.05 -0.81    -0.577 OA
DOCKED: ATOM     11  O   UNL d   1     -19.245   0.078   2.333 -0.05 -0.83    -0.577 OA
DOCKED: ATOM     12  O   UNL d   1     -18.218   2.408   2.212 -0.58 -1.65    -0.638 OA
DOCKED: ENDBRANCH   8   9
DOCKED: ENDBRANCH   7   8
DOCKED: ENDBRANCH   1   7
DOCKED: BRANCH   1  13
DOCKED: ATOM     13  C   UNL d   1     -13.815  -1.965   2.190 -0.26 +0.07    +0.073 C 
DOCKED: ATOM     14  O   UNL d   1     -13.217  -3.024   1.789 -0.74 -0.83    -0.547 OA
DOCKED: ATOM     15  O   UNL d   1     -13.496  -1.306   3.245 -0.04 -0.38    -0.547 OA
DOCKED: ENDBRANCH   1  13
DOCKED: TORSDOF 6
DOCKED: TER
DOCKED: ENDMDL
________________________________________________________________________________


	BEGINNING GENETIC ALGORITHM DOCKING 65 of 100
Run: 65 Seed: 1463145807 875177585 [ Run 65 of 100 GA/GALS ]
Beginning LAMARCKIAN GENETIC ALGORITHM (LGA), with a maximum of 25000000 energy evaluations.

Final-Value: -8.329


	FINAL GENETIC ALGORITHM DOCKED STATE
	_______________________________________________


Detailed state:  trans -15.867 -0.707 2.109 quatxyzw -0.343912 0.287046 0.067412 0.891507 center 0.015 0.083 0.031 ntor 6 -167.7751 -105.1204 -173.9003 42.7618 46.0802 -180.0000
State:	-15.867  -0.707   2.109  -0.759  0.634  0.149 53.873   -167.78 -105.12 -173.90   42.76   46.08 -180.00

DOCKED: MODEL       65
DOCKED: USER    Run = 65
DOCKED: USER    DPF = D:/Protein_go_brrr/autodock/final/AncMH_nat/2_3_BPG/dock.dpf
DOCKED: USER  
DOCKED: USER    Estimated Free Energy of Binding    =   -8.86 kcal/mol  [=(1)+(2)+(3)-(4)]
DOCKED: USER    Estimated Inhibition Constant, Ki   =  318.59 nM (nanomolar)  [Temperature = 298.15 K]
DOCKED: USER    
DOCKED: USER    (1) Final Intermolecular Energy     =  -10.65 kcal/mol
DOCKED: USER        vdW + Hbond + desolv Energy     =   -2.97 kcal/mol
DOCKED: USER        Electrostatic Energy            =   -7.68 kcal/mol
DOCKED: USER    (2) Final Total Internal Energy     =   +2.32 kcal/mol
DOCKED: USER    (3) Torsional Free Energy           =   +1.79 kcal/mol
DOCKED: USER    (4) Unbound System's Energy  [=(2)] =   +2.32 kcal/mol
DOCKED: USER    
DOCKED: USER    
DOCKED: USER    NEWDPF move 2_3_BPG_opt.pdbqt
DOCKED: USER    NEWDPF about 0.015000 0.083000 0.031000
DOCKED: USER    NEWDPF tran0 -15.867300 -0.707168 2.109318
DOCKED: USER    NEWDPF quaternion0 -0.343912 0.287046 0.067412 0.891507
DOCKED: USER    NEWDPF axisangle0 -0.759176 0.633646 0.148810 53.873496
DOCKED: USER    NEWDPF quat0 -0.759176 0.633646 0.148810 53.873496
DOCKED: USER    NEWDPF dihe0 -167.78 -105.12 -173.90 42.76 46.08 -180.00 
DOCKED: USER  keepresnum = 1 
DOCKED: USER  
DOCKED: REMARK  6 active torsions:
DOCKED: REMARK  status: ('A' for Active; 'I' for Inactive)
DOCKED: REMARK    1  A    between atoms: P_1  and  O_3 
DOCKED: REMARK    2  A    between atoms: P_2  and  O_4 
DOCKED: REMARK    3  A    between atoms: O_3  and  C_13 
DOCKED: REMARK    4  A    between atoms: O_4  and  C_14 
DOCKED: REMARK    5  A    between atoms: C_13  and  C_14 
DOCKED: REMARK    6  A    between atoms: C_13  and  C_15 
DOCKED: USER                              x       y       z     vdW  Elec       q    Type
DOCKED: USER                           _______ _______ _______ _____ _____    ______ ____
DOCKED: ROOT
DOCKED: ATOM      1  C   UNL d   1     -16.379  -0.810   1.689 -0.11 +0.24    +0.193 C 
DOCKED: ENDROOT
DOCKED: BRANCH   1   2
DOCKED: ATOM      2  O   UNL d   1     -16.949   0.495   1.335 -0.51 -0.71    -0.356 OA
DOCKED: BRANCH   2   3
DOCKED: ATOM      3  P   UNL d   1     -18.154   1.216   2.192 -0.08 -0.03    -0.014 P 
DOCKED: ATOM      4  O   UNL d   1     -17.485   1.642   3.509 -0.21 -1.12    -0.577 OA
DOCKED: ATOM      5  O   UNL d   1     -19.235   0.163   2.426 -0.06 -0.88    -0.577 OA
DOCKED: ATOM      6  O   UNL d   1     -18.642   2.422   1.396 -0.60 -1.33    -0.638 OA
DOCKED: ENDBRANCH   2   3
DOCKED: ENDBRANCH   1   2
DOCKED: BRANCH   1   7
DOCKED: ATOM      7  C   UNL d   1     -15.012  -0.579   2.432 -0.17 +0.24    +0.201 C 
DOCKED: BRANCH   7   8
DOCKED: ATOM      8  O   UNL d   1     -14.386   0.705   2.216 -0.08 -0.68    -0.364 OA
DOCKED: BRANCH   8   9
DOCKED: ATOM      9  P   UNL d   1     -12.787   0.789   1.799 -0.33 -0.02    -0.015 P 
DOCKED: ATOM     10  O   UNL d   1     -12.368  -0.662   1.531 -0.03 -0.48    -0.577 OA
DOCKED: ATOM     11  O   UNL d   1     -12.045   1.386   2.994 -0.10 -0.40    -0.577 OA
DOCKED: ATOM     12  O   UNL d   1     -12.693   1.655   0.543 -0.47 -1.21    -0.638 OA
DOCKED: ENDBRANCH   8   9
DOCKED: ENDBRANCH   7   8
DOCKED: ENDBRANCH   1   7
DOCKED: BRANCH   1  13
DOCKED: ATOM     13  C   UNL d   1     -16.109  -1.651   0.386 -0.15 +0.09    +0.073 C 
DOCKED: ATOM     14  O   UNL d   1     -16.789  -2.721   0.197 +0.01 -0.68    -0.547 OA
DOCKED: ATOM     15  O   UNL d   1     -15.258  -1.176  -0.449 -0.08 -0.72    -0.547 OA
DOCKED: ENDBRANCH   1  13
DOCKED: TORSDOF 6
DOCKED: TER
DOCKED: ENDMDL
________________________________________________________________________________


	BEGINNING GENETIC ALGORITHM DOCKING 66 of 100
Run: 66 Seed: 561431692 555137620 [ Run 66 of 100 GA/GALS ]
Beginning LAMARCKIAN GENETIC ALGORITHM (LGA), with a maximum of 25000000 energy evaluations.

Final-Value: -8.947


	FINAL GENETIC ALGORITHM DOCKED STATE
	_______________________________________________


Detailed state:  trans -15.265 -0.733 1.696 quatxyzw -0.164491 0.979211 -0.088774 -0.078789 center 0.015 0.083 0.031 ntor 6 9.4285 -131.4555 -114.5424 3.0966 -42.3848 -148.7860
State:	-15.265  -0.733   1.696  -0.165  0.982 -0.089 -170.962      9.43 -131.46 -114.54    3.10  -42.38 -148.79

DOCKED: MODEL       66
DOCKED: USER    Run = 66
DOCKED: USER    DPF = D:/Protein_go_brrr/autodock/final/AncMH_nat/2_3_BPG/dock.dpf
DOCKED: USER  
DOCKED: USER    Estimated Free Energy of Binding    =   -9.31 kcal/mol  [=(1)+(2)+(3)-(4)]
DOCKED: USER    Estimated Inhibition Constant, Ki   =  150.75 nM (nanomolar)  [Temperature = 298.15 K]
DOCKED: USER    
DOCKED: USER    (1) Final Intermolecular Energy     =  -11.10 kcal/mol
DOCKED: USER        vdW + Hbond + desolv Energy     =   -3.50 kcal/mol
DOCKED: USER        Electrostatic Energy            =   -7.60 kcal/mol
DOCKED: USER    (2) Final Total Internal Energy     =   +2.15 kcal/mol
DOCKED: USER    (3) Torsional Free Energy           =   +1.79 kcal/mol
DOCKED: USER    (4) Unbound System's Energy  [=(2)] =   +2.15 kcal/mol
DOCKED: USER    
DOCKED: USER    
DOCKED: USER    NEWDPF move 2_3_BPG_opt.pdbqt
DOCKED: USER    NEWDPF about 0.015000 0.083000 0.031000
DOCKED: USER    NEWDPF tran0 -15.265290 -0.732722 1.695737
DOCKED: USER    NEWDPF quaternion0 -0.164491 0.979211 -0.088774 -0.078789
DOCKED: USER    NEWDPF axisangle0 -0.165004 0.982265 -0.089051 -170.962073
DOCKED: USER    NEWDPF quat0 -0.165004 0.982265 -0.089051 -170.962073
DOCKED: USER    NEWDPF dihe0 9.43 -131.46 -114.54 3.10 -42.38 -148.79 
DOCKED: USER  keepresnum = 1 
DOCKED: USER  
DOCKED: REMARK  6 active torsions:
DOCKED: REMARK  status: ('A' for Active; 'I' for Inactive)
DOCKED: REMARK    1  A    between atoms: P_1  and  O_3 
DOCKED: REMARK    2  A    between atoms: P_2  and  O_4 
DOCKED: REMARK    3  A    between atoms: O_3  and  C_13 
DOCKED: REMARK    4  A    between atoms: O_4  and  C_14 
DOCKED: REMARK    5  A    between atoms: C_13  and  C_14 
DOCKED: REMARK    6  A    between atoms: C_13  and  C_15 
DOCKED: USER                              x       y       z     vdW  Elec       q    Type
DOCKED: USER                           _______ _______ _______ _____ _____    ______ ____
DOCKED: ROOT
DOCKED: ATOM      1  C   UNL d   1     -14.605  -0.840   1.741 -0.19 +0.24    +0.193 C 
DOCKED: ENDROOT
DOCKED: BRANCH   1   2
DOCKED: ATOM      2  O   UNL d   1     -13.989   0.351   2.338 -0.17 -0.50    -0.356 OA
DOCKED: BRANCH   2   3
DOCKED: ATOM      3  P   UNL d   1     -12.694   1.123   1.681 -0.23 -0.02    -0.014 P 
DOCKED: ATOM      4  O   UNL d   1     -13.020   1.208   0.181 -0.29 -1.11    -0.577 OA
DOCKED: ATOM      5  O   UNL d   1     -11.468   0.250   1.940 +0.00 -0.36    -0.577 OA
DOCKED: ATOM      6  O   UNL d   1     -12.600   2.507   2.313 -0.29 -0.85    -0.638 OA
DOCKED: ENDBRANCH   2   3
DOCKED: ENDBRANCH   1   2
DOCKED: BRANCH   1   7
DOCKED: ATOM      7  C   UNL d   1     -16.167  -0.730   1.893 -0.12 +0.26    +0.201 C 
DOCKED: BRANCH   7   8
DOCKED: ATOM      8  O   UNL d   1     -16.669   0.552   2.332 -0.28 -0.64    -0.364 OA
DOCKED: BRANCH   8   9
DOCKED: ATOM      9  P   UNL d   1     -18.058   1.167   1.677 -0.15 -0.03    -0.015 P 
DOCKED: ATOM     10  O   UNL d   1     -19.175   0.238   2.166 -0.07 -0.86    -0.577 OA
DOCKED: ATOM     11  O   UNL d   1     -17.895   1.115   0.158 -0.22 -0.92    -0.577 OA
DOCKED: ATOM     12  O   UNL d   1     -18.218   2.589   2.213 -0.55 -1.66    -0.638 OA
DOCKED: ENDBRANCH   8   9
DOCKED: ENDBRANCH   7   8
DOCKED: ENDBRANCH   1   7
DOCKED: BRANCH   1  13
DOCKED: ATOM     13  C   UNL d   1     -14.115  -2.134   2.491 -0.25 +0.07    +0.073 C 
DOCKED: ATOM     14  O   UNL d   1     -14.410  -2.272   3.730 -0.02 -0.36    -0.547 OA
DOCKED: ATOM     15  O   UNL d   1     -13.496  -3.014   1.790 -0.67 -0.85    -0.547 OA
DOCKED: ENDBRANCH   1  13
DOCKED: TORSDOF 6
DOCKED: TER
DOCKED: ENDMDL
________________________________________________________________________________


	BEGINNING GENETIC ALGORITHM DOCKING 67 of 100
Run: 67 Seed: 1125045414 2109171321 [ Run 67 of 100 GA/GALS ]
Beginning LAMARCKIAN GENETIC ALGORITHM (LGA), with a maximum of 25000000 energy evaluations.

Final-Value: -8.009


	FINAL GENETIC ALGORITHM DOCKED STATE
	_______________________________________________


Detailed state:  trans -17.130 0.460 2.638 quatxyzw -0.314513 -0.126912 -0.347498 -0.874197 center 0.015 0.083 0.031 ntor 6 -150.7604 -145.7602 -92.4045 5.2064 -33.4536 -162.5647
State:	-17.130   0.460   2.638  -0.648 -0.261 -0.716 -58.100   -150.76 -145.76  -92.40    5.21  -33.45 -162.56

DOCKED: MODEL       67
DOCKED: USER    Run = 67
DOCKED: USER    DPF = D:/Protein_go_brrr/autodock/final/AncMH_nat/2_3_BPG/dock.dpf
DOCKED: USER  
DOCKED: USER    Estimated Free Energy of Binding    =   -8.40 kcal/mol  [=(1)+(2)+(3)-(4)]
DOCKED: USER    Estimated Inhibition Constant, Ki   =  697.62 nM (nanomolar)  [Temperature = 298.15 K]
DOCKED: USER    
DOCKED: USER    (1) Final Intermolecular Energy     =  -10.19 kcal/mol
DOCKED: USER        vdW + Hbond + desolv Energy     =   -2.33 kcal/mol
DOCKED: USER        Electrostatic Energy            =   -7.86 kcal/mol
DOCKED: USER    (2) Final Total Internal Energy     =   +2.18 kcal/mol
DOCKED: USER    (3) Torsional Free Energy           =   +1.79 kcal/mol
DOCKED: USER    (4) Unbound System's Energy  [=(2)] =   +2.18 kcal/mol
DOCKED: USER    
DOCKED: USER    
DOCKED: USER    NEWDPF move 2_3_BPG_opt.pdbqt
DOCKED: USER    NEWDPF about 0.015000 0.083000 0.031000
DOCKED: USER    NEWDPF tran0 -17.130437 0.460427 2.637505
DOCKED: USER    NEWDPF quaternion0 -0.314513 -0.126912 -0.347498 -0.874197
DOCKED: USER    NEWDPF axisangle0 -0.647716 -0.261367 -0.715647 -58.099941
DOCKED: USER    NEWDPF quat0 -0.647716 -0.261367 -0.715647 -58.099941
DOCKED: USER    NEWDPF dihe0 -150.76 -145.76 -92.40 5.21 -33.45 -162.56 
DOCKED: USER  keepresnum = 1 
DOCKED: USER  
DOCKED: REMARK  6 active torsions:
DOCKED: REMARK  status: ('A' for Active; 'I' for Inactive)
DOCKED: REMARK    1  A    between atoms: P_1  and  O_3 
DOCKED: REMARK    2  A    between atoms: P_2  and  O_4 
DOCKED: REMARK    3  A    between atoms: O_3  and  C_13 
DOCKED: REMARK    4  A    between atoms: O_4  and  C_14 
DOCKED: REMARK    5  A    between atoms: C_13  and  C_14 
DOCKED: REMARK    6  A    between atoms: C_13  and  C_15 
DOCKED: USER                              x       y       z     vdW  Elec       q    Type
DOCKED: USER                           _______ _______ _______ _____ _____    ______ ____
DOCKED: ROOT
DOCKED: ATOM      1  C   UNL d   1     -17.771   0.654   2.595 -0.17 +0.32    +0.193 C 
DOCKED: ENDROOT
DOCKED: BRANCH   1   2
DOCKED: ATOM      2  O   UNL d   1     -17.983   1.245   1.269 -0.31 -0.66    -0.356 OA
DOCKED: BRANCH   2   3
DOCKED: ATOM      3  P   UNL d   1     -18.637   2.737   1.040 -0.12 -0.03    -0.014 P 
DOCKED: ATOM      4  O   UNL d   1     -18.219   3.534   2.285 -0.32 -1.34    -0.577 OA
DOCKED: ATOM      5  O   UNL d   1     -20.152   2.560   0.968 -0.14 -0.92    -0.577 OA
DOCKED: ATOM      6  O   UNL d   1     -18.032   3.326  -0.231 -0.03 -0.96    -0.638 OA
DOCKED: ENDBRANCH   2   3
DOCKED: ENDBRANCH   1   2
DOCKED: BRANCH   1   7
DOCKED: ATOM      7  C   UNL d   1     -16.371  -0.064   2.610 -0.14 +0.27    +0.201 C 
DOCKED: BRANCH   7   8
DOCKED: ATOM      8  O   UNL d   1     -15.647  -0.059   1.360 -0.43 -0.69    -0.364 OA
DOCKED: BRANCH   8   9
DOCKED: ATOM      9  P   UNL d   1     -13.992  -0.060   1.360 -0.23 -0.02    -0.015 P 
DOCKED: ATOM     10  O   UNL d   1     -13.595  -1.541   1.359 -0.11 -0.64    -0.577 OA
DOCKED: ATOM     11  O   UNL d   1     -13.545   0.650   2.637 -0.12 -0.72    -0.577 OA
DOCKED: ATOM     12  O   UNL d   1     -13.541   0.656   0.088 -0.05 -1.21    -0.638 OA
DOCKED: ENDBRANCH   8   9
DOCKED: ENDBRANCH   7   8
DOCKED: ENDBRANCH   1   7
DOCKED: BRANCH   1  13
DOCKED: ATOM     13  C   UNL d   1     -18.888  -0.414   2.895 -0.10 +0.09    +0.073 C 
DOCKED: ATOM     14  O   UNL d   1     -19.903  -0.058   3.591 -0.09 -0.89    -0.547 OA
DOCKED: ATOM     15  O   UNL d   1     -18.743  -1.573   2.363 +0.04 -0.45    -0.547 OA
DOCKED: ENDBRANCH   1  13
DOCKED: TORSDOF 6
DOCKED: TER
DOCKED: ENDMDL
________________________________________________________________________________


	BEGINNING GENETIC ALGORITHM DOCKING 68 of 100
Run: 68 Seed: 266823458 647299325 [ Run 68 of 100 GA/GALS ]
Beginning LAMARCKIAN GENETIC ALGORITHM (LGA), with a maximum of 25000000 energy evaluations.

Final-Value: -8.197


	FINAL GENETIC ALGORITHM DOCKED STATE
	_______________________________________________


Detailed state:  trans -17.078 0.432 2.809 quatxyzw -0.541546 0.164749 -0.211197 -0.796857 center 0.015 0.083 0.031 ntor 6 113.4384 144.2259 -140.4760 49.6894 25.8297 -39.7703
State:	-17.078   0.432   2.809  -0.896  0.273 -0.350 -74.338    113.44  144.23 -140.48   49.69   25.83  -39.77

DOCKED: MODEL       68
DOCKED: USER    Run = 68
DOCKED: USER    DPF = D:/Protein_go_brrr/autodock/final/AncMH_nat/2_3_BPG/dock.dpf
DOCKED: USER  
DOCKED: USER    Estimated Free Energy of Binding    =   -8.67 kcal/mol  [=(1)+(2)+(3)-(4)]
DOCKED: USER    Estimated Inhibition Constant, Ki   =  443.13 nM (nanomolar)  [Temperature = 298.15 K]
DOCKED: USER    
DOCKED: USER    (1) Final Intermolecular Energy     =  -10.46 kcal/mol
DOCKED: USER        vdW + Hbond + desolv Energy     =   -2.22 kcal/mol
DOCKED: USER        Electrostatic Energy            =   -8.23 kcal/mol
DOCKED: USER    (2) Final Total Internal Energy     =   +2.26 kcal/mol
DOCKED: USER    (3) Torsional Free Energy           =   +1.79 kcal/mol
DOCKED: USER    (4) Unbound System's Energy  [=(2)] =   +2.26 kcal/mol
DOCKED: USER    
DOCKED: USER    
DOCKED: USER    NEWDPF move 2_3_BPG_opt.pdbqt
DOCKED: USER    NEWDPF about 0.015000 0.083000 0.031000
DOCKED: USER    NEWDPF tran0 -17.077984 0.432391 2.808693
DOCKED: USER    NEWDPF quaternion0 -0.541546 0.164749 -0.211197 -0.796857
DOCKED: USER    NEWDPF axisangle0 -0.896351 0.272688 -0.349566 -74.337958
DOCKED: USER    NEWDPF quat0 -0.896351 0.272688 -0.349566 -74.337958
DOCKED: USER    NEWDPF dihe0 113.44 144.23 -140.48 49.69 25.83 -39.77 
DOCKED: USER  keepresnum = 1 
DOCKED: USER  
DOCKED: REMARK  6 active torsions:
DOCKED: REMARK  status: ('A' for Active; 'I' for Inactive)
DOCKED: REMARK    1  A    between atoms: P_1  and  O_3 
DOCKED: REMARK    2  A    between atoms: P_2  and  O_4 
DOCKED: REMARK    3  A    between atoms: O_3  and  C_13 
DOCKED: REMARK    4  A    between atoms: O_4  and  C_14 
DOCKED: REMARK    5  A    between atoms: C_13  and  C_14 
DOCKED: REMARK    6  A    between atoms: C_13  and  C_15 
DOCKED: USER                              x       y       z     vdW  Elec       q    Type
DOCKED: USER                           _______ _______ _______ _____ _____    ______ ____
DOCKED: ROOT
DOCKED: ATOM      1  C   UNL d   1     -17.584   0.707   3.153 -0.18 +0.31    +0.193 C 
DOCKED: ENDROOT
DOCKED: BRANCH   1   2
DOCKED: ATOM      2  O   UNL d   1     -18.673   0.996   2.213 -0.42 -0.70    -0.356 OA
DOCKED: BRANCH   2   3
DOCKED: ATOM      3  P   UNL d   1     -18.725   2.350   1.281 +0.06 -0.03    -0.014 P 
DOCKED: ATOM      4  O   UNL d   1     -18.219   3.470   2.203 -0.36 -1.34    -0.577 OA
DOCKED: ATOM      5  O   UNL d   1     -20.182   2.567   0.880 -0.12 -0.87    -0.577 OA
DOCKED: ATOM      6  O   UNL d   1     -17.792   2.139   0.092 -0.04 -1.21    -0.638 OA
DOCKED: ENDBRANCH   2   3
DOCKED: ENDBRANCH   1   2
DOCKED: BRANCH   1   7
DOCKED: ATOM      7  C   UNL d   1     -16.517  -0.194   2.428 -0.13 +0.27    +0.201 C 
DOCKED: BRANCH   7   8
DOCKED: ATOM      8  O   UNL d   1     -15.187   0.362   2.326 -0.20 -0.63    -0.364 OA
DOCKED: BRANCH   8   9
DOCKED: ATOM      9  P   UNL d   1     -14.205  -0.061   1.064 -0.09 -0.02    -0.015 P 
DOCKED: ATOM     10  O   UNL d   1     -15.119  -0.065  -0.168 -0.25 -1.04    -0.577 OA
DOCKED: ATOM     11  O   UNL d   1     -13.657  -1.454   1.372 -0.10 -0.64    -0.577 OA
DOCKED: ATOM     12  O   UNL d   1     -13.114   1.004   0.965 -0.21 -1.21    -0.638 OA
DOCKED: ENDBRANCH   8   9
DOCKED: ENDBRANCH   7   8
DOCKED: ENDBRANCH   1   7
DOCKED: BRANCH   1  13
DOCKED: ATOM     13  C   UNL d   1     -18.141  -0.076   4.400 -0.17 +0.08    +0.073 C 
DOCKED: ATOM     14  O   UNL d   1     -17.305  -0.629   5.198 +0.01 -0.41    -0.547 OA
DOCKED: ATOM     15  O   UNL d   1     -19.412  -0.059   4.578 -0.02 -0.77    -0.547 OA
DOCKED: ENDBRANCH   1  13
DOCKED: TORSDOF 6
DOCKED: TER
DOCKED: ENDMDL
________________________________________________________________________________


	BEGINNING GENETIC ALGORITHM DOCKING 69 of 100
Run: 69 Seed: 1680457701 912501826 [ Run 69 of 100 GA/GALS ]
Beginning LAMARCKIAN GENETIC ALGORITHM (LGA), with a maximum of 25000000 energy evaluations.

Final-Value: -8.346


	FINAL GENETIC ALGORITHM DOCKED STATE
	_______________________________________________


Detailed state:  trans -17.586 0.056 2.029 quatxyzw 0.909949 -0.039664 -0.150170 -0.384536 center 0.015 0.083 0.031 ntor 6 -39.6120 -50.5135 25.9463 22.7413 -17.6753 23.3835
State:	-17.586   0.056   2.029   0.986 -0.043 -0.163 -134.770    -39.61  -50.51   25.95   22.74  -17.68   23.38

DOCKED: MODEL       69
DOCKED: USER    Run = 69
DOCKED: USER    DPF = D:/Protein_go_brrr/autodock/final/AncMH_nat/2_3_BPG/dock.dpf
DOCKED: USER  
DOCKED: USER    Estimated Free Energy of Binding    =   -8.59 kcal/mol  [=(1)+(2)+(3)-(4)]
DOCKED: USER    Estimated Inhibition Constant, Ki   =  508.45 nM (nanomolar)  [Temperature = 298.15 K]
DOCKED: USER    
DOCKED: USER    (1) Final Intermolecular Energy     =  -10.38 kcal/mol
DOCKED: USER        vdW + Hbond + desolv Energy     =   -2.63 kcal/mol
DOCKED: USER        Electrostatic Energy            =   -7.74 kcal/mol
DOCKED: USER    (2) Final Total Internal Energy     =   +2.03 kcal/mol
DOCKED: USER    (3) Torsional Free Energy           =   +1.79 kcal/mol
DOCKED: USER    (4) Unbound System's Energy  [=(2)] =   +2.03 kcal/mol
DOCKED: USER    
DOCKED: USER    
DOCKED: USER    NEWDPF move 2_3_BPG_opt.pdbqt
DOCKED: USER    NEWDPF about 0.015000 0.083000 0.031000
DOCKED: USER    NEWDPF tran0 -17.585506 0.056375 2.028633
DOCKED: USER    NEWDPF quaternion0 0.909949 -0.039664 -0.150170 -0.384536
DOCKED: USER    NEWDPF axisangle0 0.985743 -0.042967 -0.162678 -134.770083
DOCKED: USER    NEWDPF quat0 0.985743 -0.042967 -0.162678 -134.770083
DOCKED: USER    NEWDPF dihe0 -39.61 -50.51 25.95 22.74 -17.68 23.38 
DOCKED: USER  keepresnum = 1 
DOCKED: USER  
DOCKED: REMARK  6 active torsions:
DOCKED: REMARK  status: ('A' for Active; 'I' for Inactive)
DOCKED: REMARK    1  A    between atoms: P_1  and  O_3 
DOCKED: REMARK    2  A    between atoms: P_2  and  O_4 
DOCKED: REMARK    3  A    between atoms: O_3  and  C_13 
DOCKED: REMARK    4  A    between atoms: O_4  and  C_14 
DOCKED: REMARK    5  A    between atoms: C_13  and  C_14 
DOCKED: REMARK    6  A    between atoms: C_13  and  C_15 
DOCKED: USER                              x       y       z     vdW  Elec       q    Type
DOCKED: USER                           _______ _______ _______ _____ _____    ______ ____
DOCKED: ROOT
DOCKED: ATOM      1  C   UNL d   1     -18.185   0.321   1.888 -0.12 +0.28    +0.193 C 
DOCKED: ENDROOT
DOCKED: BRANCH   1   2
DOCKED: ATOM      2  O   UNL d   1     -18.954   0.401   3.134 -0.10 -0.64    -0.356 OA
DOCKED: BRANCH   2   3
DOCKED: ATOM      3  P   UNL d   1     -20.256  -0.552   3.455 -0.06 -0.02    -0.014 P 
DOCKED: ATOM      4  O   UNL d   1     -19.922  -1.216   4.800 -0.00 -0.47    -0.577 OA
DOCKED: ATOM      5  O   UNL d   1     -20.352  -1.580   2.329 +0.03 -0.42    -0.577 OA
DOCKED: ATOM      6  O   UNL d   1     -21.483   0.347   3.564 -0.42 -1.25    -0.638 OA
DOCKED: ENDBRANCH   2   3
DOCKED: ENDBRANCH   1   2
DOCKED: BRANCH   1   7
DOCKED: ATOM      7  C   UNL d   1     -16.690  -0.019   2.238 -0.13 +0.29    +0.201 C 
DOCKED: BRANCH   7   8
DOCKED: ATOM      8  O   UNL d   1     -15.776  -0.072   1.120 -0.48 -0.70    -0.364 OA
DOCKED: BRANCH   8   9
DOCKED: ATOM      9  P   UNL d   1     -14.143  -0.059   1.382 -0.18 -0.02    -0.015 P 
DOCKED: ATOM     10  O   UNL d   1     -13.543   0.581   0.124 -0.08 -1.06    -0.577 OA
DOCKED: ATOM     11  O   UNL d   1     -13.706  -1.514   1.546 -0.10 -0.63    -0.577 OA
DOCKED: ATOM     12  O   UNL d   1     -13.893   0.785   2.630 -0.13 -0.93    -0.638 OA
DOCKED: ENDBRANCH   8   9
DOCKED: ENDBRANCH   7   8
DOCKED: ENDBRANCH   1   7
DOCKED: BRANCH   1  13
DOCKED: ATOM     13  C   UNL d   1     -18.225   1.706   1.139 -0.12 +0.14    +0.073 C 
DOCKED: ATOM     14  O   UNL d   1     -18.634   2.736   1.781 -0.60 -1.33    -0.547 OA
DOCKED: ATOM     15  O   UNL d   1     -17.779   1.730  -0.065 -0.14 -0.97    -0.547 OA
DOCKED: ENDBRANCH   1  13
DOCKED: TORSDOF 6
DOCKED: TER
DOCKED: ENDMDL
________________________________________________________________________________


	BEGINNING GENETIC ALGORITHM DOCKING 70 of 100
Run: 70 Seed: 231430390 630224134 [ Run 70 of 100 GA/GALS ]
Beginning LAMARCKIAN GENETIC ALGORITHM (LGA), with a maximum of 25000000 energy evaluations.

Final-Value: -8.554


	FINAL GENETIC ALGORITHM DOCKED STATE
	_______________________________________________


Detailed state:  trans -15.179 -1.119 0.972 quatxyzw 0.151624 -0.932641 0.323462 0.050622 center 0.015 0.083 0.031 ntor 6 -173.6701 -125.6896 -112.0570 32.4153 28.8481 -170.4142
State:	-15.179  -1.119   0.972   0.152 -0.934  0.324 174.197   -173.67 -125.69 -112.06   32.42   28.85 -170.41

DOCKED: MODEL       70
DOCKED: USER    Run = 70
DOCKED: USER    DPF = D:/Protein_go_brrr/autodock/final/AncMH_nat/2_3_BPG/dock.dpf
DOCKED: USER  
DOCKED: USER    Estimated Free Energy of Binding    =   -8.95 kcal/mol  [=(1)+(2)+(3)-(4)]
DOCKED: USER    Estimated Inhibition Constant, Ki   =  272.89 nM (nanomolar)  [Temperature = 298.15 K]
DOCKED: USER    
DOCKED: USER    (1) Final Intermolecular Energy     =  -10.74 kcal/mol
DOCKED: USER        vdW + Hbond + desolv Energy     =   -3.37 kcal/mol
DOCKED: USER        Electrostatic Energy            =   -7.38 kcal/mol
DOCKED: USER    (2) Final Total Internal Energy     =   +2.19 kcal/mol
DOCKED: USER    (3) Torsional Free Energy           =   +1.79 kcal/mol
DOCKED: USER    (4) Unbound System's Energy  [=(2)] =   +2.19 kcal/mol
DOCKED: USER    
DOCKED: USER    
DOCKED: USER    NEWDPF move 2_3_BPG_opt.pdbqt
DOCKED: USER    NEWDPF about 0.015000 0.083000 0.031000
DOCKED: USER    NEWDPF tran0 -15.178585 -1.119292 0.971764
DOCKED: USER    NEWDPF quaternion0 0.151624 -0.932641 0.323462 0.050622
DOCKED: USER    NEWDPF axisangle0 0.151818 -0.933839 0.323877 174.196664
DOCKED: USER    NEWDPF quat0 0.151818 -0.933839 0.323877 174.196664
DOCKED: USER    NEWDPF dihe0 -173.67 -125.69 -112.06 32.42 28.85 -170.41 
DOCKED: USER  keepresnum = 1 
DOCKED: USER  
DOCKED: REMARK  6 active torsions:
DOCKED: REMARK  status: ('A' for Active; 'I' for Inactive)
DOCKED: REMARK    1  A    between atoms: P_1  and  O_3 
DOCKED: REMARK    2  A    between atoms: P_2  and  O_4 
DOCKED: REMARK    3  A    between atoms: O_3  and  C_13 
DOCKED: REMARK    4  A    between atoms: O_4  and  C_14 
DOCKED: REMARK    5  A    between atoms: C_13  and  C_14 
DOCKED: REMARK    6  A    between atoms: C_13  and  C_15 
DOCKED: USER                              x       y       z     vdW  Elec       q    Type
DOCKED: USER                           _______ _______ _______ _____ _____    ______ ____
DOCKED: ROOT
DOCKED: ATOM      1  C   UNL d   1     -14.527  -1.221   1.090 -0.18 +0.24    +0.193 C 
DOCKED: ENDROOT
DOCKED: BRANCH   1   2
DOCKED: ATOM      2  O   UNL d   1     -13.854   0.082   1.097 -0.13 -0.58    -0.356 OA
DOCKED: BRANCH   2   3
DOCKED: ATOM      3  P   UNL d   1     -13.009   0.670  -0.186 -0.11 -0.02    -0.014 P 
DOCKED: ATOM      4  O   UNL d   1     -13.965   0.512  -1.378 -0.02 -0.75    -0.577 OA
DOCKED: ATOM      5  O   UNL d   1     -11.764  -0.201  -0.344 -0.02 -0.43    -0.577 OA
DOCKED: ATOM      6  O   UNL d   1     -12.694   2.136   0.089 -0.44 -1.27    -0.638 OA
DOCKED: ENDBRANCH   2   3
DOCKED: ENDBRANCH   1   2
DOCKED: BRANCH   1   7
DOCKED: ATOM      7  C   UNL d   1     -16.082  -0.987   1.107 -0.12 +0.26    +0.201 C 
DOCKED: BRANCH   7   8
DOCKED: ATOM      8  O   UNL d   1     -16.513   0.367   1.372 -0.52 -0.77    -0.364 OA
DOCKED: BRANCH   8   9
DOCKED: ATOM      9  P   UNL d   1     -17.934   0.643   2.172 -0.22 -0.02    -0.015 P 
DOCKED: ATOM     10  O   UNL d   1     -17.674   0.192   3.615 -0.07 -0.75    -0.577 OA
DOCKED: ATOM     11  O   UNL d   1     -19.003  -0.211   1.491 +0.01 -0.65    -0.577 OA
DOCKED: ATOM     12  O   UNL d   1     -18.218   2.142   2.082 -0.61 -1.56    -0.638 OA
DOCKED: ENDBRANCH   8   9
DOCKED: ENDBRANCH   7   8
DOCKED: ENDBRANCH   1   7
DOCKED: BRANCH   1  13
DOCKED: ATOM     13  C   UNL d   1     -14.126  -2.043   2.371 -0.25 +0.07    +0.073 C 
DOCKED: ATOM     14  O   UNL d   1     -13.544  -3.173   2.216 -0.65 -0.76    -0.547 OA
DOCKED: ATOM     15  O   UNL d   1     -14.354  -1.494   3.510 -0.02 -0.39    -0.547 OA
DOCKED: ENDBRANCH   1  13
DOCKED: TORSDOF 6
DOCKED: TER
DOCKED: ENDMDL
________________________________________________________________________________


	BEGINNING GENETIC ALGORITHM DOCKING 71 of 100
Run: 71 Seed: 225927958 534029926 [ Run 71 of 100 GA/GALS ]
Beginning LAMARCKIAN GENETIC ALGORITHM (LGA), with a maximum of 25000000 energy evaluations.

Final-Value: -8.143


	FINAL GENETIC ALGORITHM DOCKED STATE
	_______________________________________________


Detailed state:  trans -17.186 0.623 2.783 quatxyzw -0.422340 0.017021 -0.312617 -0.850653 center 0.015 0.083 0.031 ntor 6 117.0524 -179.9782 8.4119 21.7880 -23.7083 -159.5701
State:	-17.186   0.623   2.783  -0.803  0.032 -0.595 -63.435    117.05 -179.98    8.41   21.79  -23.71 -159.57

DOCKED: MODEL       71
DOCKED: USER    Run = 71
DOCKED: USER    DPF = D:/Protein_go_brrr/autodock/final/AncMH_nat/2_3_BPG/dock.dpf
DOCKED: USER  
DOCKED: USER    Estimated Free Energy of Binding    =   -8.54 kcal/mol  [=(1)+(2)+(3)-(4)]
DOCKED: USER    Estimated Inhibition Constant, Ki   =  550.62 nM (nanomolar)  [Temperature = 298.15 K]
DOCKED: USER    
DOCKED: USER    (1) Final Intermolecular Energy     =  -10.33 kcal/mol
DOCKED: USER        vdW + Hbond + desolv Energy     =   -2.06 kcal/mol
DOCKED: USER        Electrostatic Energy            =   -8.27 kcal/mol
DOCKED: USER    (2) Final Total Internal Energy     =   +2.19 kcal/mol
DOCKED: USER    (3) Torsional Free Energy           =   +1.79 kcal/mol
DOCKED: USER    (4) Unbound System's Energy  [=(2)] =   +2.19 kcal/mol
DOCKED: USER    
DOCKED: USER    
DOCKED: USER    NEWDPF move 2_3_BPG_opt.pdbqt
DOCKED: USER    NEWDPF about 0.015000 0.083000 0.031000
DOCKED: USER    NEWDPF tran0 -17.186232 0.622926 2.782563
DOCKED: USER    NEWDPF quaternion0 -0.422340 0.017021 -0.312617 -0.850653
DOCKED: USER    NEWDPF axisangle0 -0.803343 0.032376 -0.594636 -63.434541
DOCKED: USER    NEWDPF quat0 -0.803343 0.032376 -0.594636 -63.434541
DOCKED: USER    NEWDPF dihe0 117.05 -179.98 8.41 21.79 -23.71 -159.57 
DOCKED: USER  keepresnum = 1 
DOCKED: USER  
DOCKED: REMARK  6 active torsions:
DOCKED: REMARK  status: ('A' for Active; 'I' for Inactive)
DOCKED: REMARK    1  A    between atoms: P_1  and  O_3 
DOCKED: REMARK    2  A    between atoms: P_2  and  O_4 
DOCKED: REMARK    3  A    between atoms: O_3  and  C_13 
DOCKED: REMARK    4  A    between atoms: O_4  and  C_14 
DOCKED: REMARK    5  A    between atoms: C_13  and  C_14 
DOCKED: REMARK    6  A    between atoms: C_13  and  C_15 
DOCKED: USER                              x       y       z     vdW  Elec       q    Type
DOCKED: USER                           _______ _______ _______ _____ _____    ______ ____
DOCKED: ROOT
DOCKED: ATOM      1  C   UNL d   1     -17.792   0.869   2.932 -0.17 +0.34    +0.193 C 
DOCKED: ENDROOT
DOCKED: BRANCH   1   2
DOCKED: ATOM      2  O   UNL d   1     -18.411   1.345   1.690 -0.49 -0.68    -0.356 OA
DOCKED: BRANCH   2   3
DOCKED: ATOM      3  P   UNL d   1     -18.665   2.936   1.360 +0.06 -0.03    -0.014 P 
DOCKED: ATOM      4  O   UNL d   1     -18.219   3.668   2.635 -0.15 -1.38    -0.577 OA
DOCKED: ATOM      5  O   UNL d   1     -20.161   3.112   1.105 -0.10 -0.97    -0.577 OA
DOCKED: ATOM      6  O   UNL d   1     -17.796   3.313   0.164 +0.05 -1.15    -0.638 OA
DOCKED: ENDBRANCH   2   3
DOCKED: ENDBRANCH   1   2
DOCKED: BRANCH   1   7
DOCKED: ATOM      7  C   UNL d   1     -16.510   0.032   2.569 -0.14 +0.28    +0.201 C 
DOCKED: BRANCH   7   8
DOCKED: ATOM      8  O   UNL d   1     -16.219  -0.095   1.159 -0.55 -0.66    -0.364 OA
DOCKED: BRANCH   8   9
DOCKED: ATOM      9  P   UNL d   1     -14.690  -0.484   0.660 -0.23 -0.02    -0.015 P 
DOCKED: ATOM     10  O   UNL d   1     -14.698  -0.262  -0.858 -0.07 -0.81    -0.577 OA
DOCKED: ATOM     11  O   UNL d   1     -14.463  -1.951   1.021 -0.05 -0.77    -0.577 OA
DOCKED: ATOM     12  O   UNL d   1     -13.728   0.465   1.373 +0.02 -1.14    -0.638 OA
DOCKED: ENDBRANCH   8   9
DOCKED: ENDBRANCH   7   8
DOCKED: ENDBRANCH   1   7
DOCKED: BRANCH   1  13
DOCKED: ATOM     13  C   UNL d   1     -18.795  -0.058   3.715 -0.11 +0.10    +0.073 C 
DOCKED: ATOM     14  O   UNL d   1     -18.361  -0.707   4.731 -0.02 -0.50    -0.547 OA
DOCKED: ATOM     15  O   UNL d   1     -20.016  -0.058   3.321 -0.10 -0.88    -0.547 OA
DOCKED: ENDBRANCH   1  13
DOCKED: TORSDOF 6
DOCKED: TER
DOCKED: ENDMDL
________________________________________________________________________________


	BEGINNING GENETIC ALGORITHM DOCKING 72 of 100
Run: 72 Seed: 341415245 510421541 [ Run 72 of 100 GA/GALS ]
Beginning LAMARCKIAN GENETIC ALGORITHM (LGA), with a maximum of 25000000 energy evaluations.

Final-Value: -8.525


	FINAL GENETIC ALGORITHM DOCKED STATE
	_______________________________________________


Detailed state:  trans -15.273 -0.985 0.988 quatxyzw -0.206350 0.925113 -0.307956 0.082150 center 0.015 0.083 0.031 ntor 6 -179.9611 -106.1450 -97.6105 27.6218 -0.8752 -174.2923
State:	-15.273  -0.985   0.988  -0.207  0.928 -0.309 170.576   -179.96 -106.14  -97.61   27.62   -0.88 -174.29

DOCKED: MODEL       72
DOCKED: USER    Run = 72
DOCKED: USER    DPF = D:/Protein_go_brrr/autodock/final/AncMH_nat/2_3_BPG/dock.dpf
DOCKED: USER  
DOCKED: USER    Estimated Free Energy of Binding    =   -8.85 kcal/mol  [=(1)+(2)+(3)-(4)]
DOCKED: USER    Estimated Inhibition Constant, Ki   =  324.13 nM (nanomolar)  [Temperature = 298.15 K]
DOCKED: USER    
DOCKED: USER    (1) Final Intermolecular Energy     =  -10.64 kcal/mol
DOCKED: USER        vdW + Hbond + desolv Energy     =   -3.00 kcal/mol
DOCKED: USER        Electrostatic Energy            =   -7.64 kcal/mol
DOCKED: USER    (2) Final Total Internal Energy     =   +2.12 kcal/mol
DOCKED: USER    (3) Torsional Free Energy           =   +1.79 kcal/mol
DOCKED: USER    (4) Unbound System's Energy  [=(2)] =   +2.12 kcal/mol
DOCKED: USER    
DOCKED: USER    
DOCKED: USER    NEWDPF move 2_3_BPG_opt.pdbqt
DOCKED: USER    NEWDPF about 0.015000 0.083000 0.031000
DOCKED: USER    NEWDPF tran0 -15.272709 -0.985321 0.987619
DOCKED: USER    NEWDPF quaternion0 -0.206350 0.925113 -0.307956 0.082150
DOCKED: USER    NEWDPF axisangle0 -0.207050 0.928251 -0.309000 170.575679
DOCKED: USER    NEWDPF quat0 -0.207050 0.928251 -0.309000 170.575679
DOCKED: USER    NEWDPF dihe0 -179.96 -106.14 -97.61 27.62 -0.88 -174.29 
DOCKED: USER  keepresnum = 1 
DOCKED: USER  
DOCKED: REMARK  6 active torsions:
DOCKED: REMARK  status: ('A' for Active; 'I' for Inactive)
DOCKED: REMARK    1  A    between atoms: P_1  and  O_3 
DOCKED: REMARK    2  A    between atoms: P_2  and  O_4 
DOCKED: REMARK    3  A    between atoms: O_3  and  C_13 
DOCKED: REMARK    4  A    between atoms: O_4  and  C_14 
DOCKED: REMARK    5  A    between atoms: C_13  and  C_14 
DOCKED: REMARK    6  A    between atoms: C_13  and  C_15 
DOCKED: USER                              x       y       z     vdW  Elec       q    Type
DOCKED: USER                           _______ _______ _______ _____ _____    ______ ____
DOCKED: ROOT
DOCKED: ATOM      1  C   UNL d   1     -14.612  -1.074   0.917 -0.18 +0.25    +0.193 C 
DOCKED: ENDROOT
DOCKED: BRANCH   1   2
DOCKED: ATOM      2  O   UNL d   1     -13.995   0.241   0.709 -0.09 -0.67    -0.356 OA
DOCKED: BRANCH   2   3
DOCKED: ATOM      3  P   UNL d   1     -13.458   0.765  -0.755 -0.04 -0.02    -0.014 P 
DOCKED: ATOM      4  O   UNL d   1     -14.739   0.992  -1.573 +0.02 -0.89    -0.577 OA
DOCKED: ATOM      5  O   UNL d   1     -12.603  -0.352  -1.349 +0.01 -0.50    -0.577 OA
DOCKED: ATOM      6  O   UNL d   1     -12.694   2.067  -0.538 -0.37 -1.01    -0.638 OA
DOCKED: ENDBRANCH   2   3
DOCKED: ENDBRANCH   1   2
DOCKED: BRANCH   1   7
DOCKED: ATOM      7  C   UNL d   1     -16.103  -0.865   1.371 -0.12 +0.26    +0.201 C 
DOCKED: BRANCH   7   8
DOCKED: ATOM      8  O   UNL d   1     -16.449   0.469   1.806 -0.37 -0.74    -0.364 OA
DOCKED: BRANCH   8   9
DOCKED: ATOM      9  P   UNL d   1     -17.975   0.793   2.357 -0.22 -0.03    -0.015 P 
DOCKED: ATOM     10  O   UNL d   1     -17.956   0.401   3.839 -0.08 -0.82    -0.577 OA
DOCKED: ATOM     11  O   UNL d   1     -18.936  -0.079   1.548 -0.00 -0.69    -0.577 OA
DOCKED: ATOM     12  O   UNL d   1     -18.217   2.289   2.162 -0.59 -1.61    -0.638 OA
DOCKED: ENDBRANCH   8   9
DOCKED: ENDBRANCH   7   8
DOCKED: ENDBRANCH   1   7
DOCKED: BRANCH   1  13
DOCKED: ATOM     13  C   UNL d   1     -13.845  -1.857   2.047 -0.26 +0.08    +0.073 C 
DOCKED: ATOM     14  O   UNL d   1     -13.411  -3.034   1.789 -0.69 -0.85    -0.547 OA
DOCKED: ATOM     15  O   UNL d   1     -13.645  -1.236   3.153 -0.04 -0.40    -0.547 OA
DOCKED: ENDBRANCH   1  13
DOCKED: TORSDOF 6
DOCKED: TER
DOCKED: ENDMDL
________________________________________________________________________________


	BEGINNING GENETIC ALGORITHM DOCKING 73 of 100
Run: 73 Seed: 794712051 2121940104 [ Run 73 of 100 GA/GALS ]
Beginning LAMARCKIAN GENETIC ALGORITHM (LGA), with a maximum of 25000000 energy evaluations.

Final-Value: -9.012


	FINAL GENETIC ALGORITHM DOCKED STATE
	_______________________________________________


Detailed state:  trans -15.287 -0.904 1.663 quatxyzw 0.148280 -0.981155 0.123066 -0.014239 center 0.015 0.083 0.031 ntor 6 34.2655 -139.8878 -141.4052 4.3585 18.5158 -105.7330
State:	-15.287  -0.904   1.663   0.148 -0.981  0.123 -178.368     34.27 -139.89 -141.41    4.36   18.52 -105.73

DOCKED: MODEL       73
DOCKED: USER    Run = 73
DOCKED: USER    DPF = D:/Protein_go_brrr/autodock/final/AncMH_nat/2_3_BPG/dock.dpf
DOCKED: USER  
DOCKED: USER    Estimated Free Energy of Binding    =   -9.36 kcal/mol  [=(1)+(2)+(3)-(4)]
DOCKED: USER    Estimated Inhibition Constant, Ki   =  137.94 nM (nanomolar)  [Temperature = 298.15 K]
DOCKED: USER    
DOCKED: USER    (1) Final Intermolecular Energy     =  -11.15 kcal/mol
DOCKED: USER        vdW + Hbond + desolv Energy     =   -3.69 kcal/mol
DOCKED: USER        Electrostatic Energy            =   -7.46 kcal/mol
DOCKED: USER    (2) Final Total Internal Energy     =   +2.14 kcal/mol
DOCKED: USER    (3) Torsional Free Energy           =   +1.79 kcal/mol
DOCKED: USER    (4) Unbound System's Energy  [=(2)] =   +2.14 kcal/mol
DOCKED: USER    
DOCKED: USER    
DOCKED: USER    NEWDPF move 2_3_BPG_opt.pdbqt
DOCKED: USER    NEWDPF about 0.015000 0.083000 0.031000
DOCKED: USER    NEWDPF tran0 -15.286751 -0.904242 1.662842
DOCKED: USER    NEWDPF quaternion0 0.148280 -0.981155 0.123066 -0.014239
DOCKED: USER    NEWDPF axisangle0 0.148295 -0.981255 0.123078 -178.368253
DOCKED: USER    NEWDPF quat0 0.148295 -0.981255 0.123078 -178.368253
DOCKED: USER    NEWDPF dihe0 34.27 -139.89 -141.41 4.36 18.52 -105.73 
DOCKED: USER  keepresnum = 1 
DOCKED: USER  
DOCKED: REMARK  6 active torsions:
DOCKED: REMARK  status: ('A' for Active; 'I' for Inactive)
DOCKED: REMARK    1  A    between atoms: P_1  and  O_3 
DOCKED: REMARK    2  A    between atoms: P_2  and  O_4 
DOCKED: REMARK    3  A    between atoms: O_3  and  C_13 
DOCKED: REMARK    4  A    between atoms: O_4  and  C_14 
DOCKED: REMARK    5  A    between atoms: C_13  and  C_14 
DOCKED: REMARK    6  A    between atoms: C_13  and  C_15 
DOCKED: USER                              x       y       z     vdW  Elec       q    Type
DOCKED: USER                           _______ _______ _______ _____ _____    ______ ____
DOCKED: ROOT
DOCKED: ATOM      1  C   UNL d   1     -14.634  -1.047   1.609 -0.19 +0.23    +0.193 C 
DOCKED: ENDROOT
DOCKED: BRANCH   1   2
DOCKED: ATOM      2  O   UNL d   1     -13.871   0.151   1.975 -0.15 -0.50    -0.356 OA
DOCKED: BRANCH   2   3
DOCKED: ATOM      3  P   UNL d   1     -12.693   0.796   1.026 -0.24 -0.02    -0.014 P 
DOCKED: ATOM      4  O   UNL d   1     -13.198   0.583  -0.409 -0.14 -0.83    -0.577 OA
DOCKED: ATOM      5  O   UNL d   1     -11.413   0.008   1.295 -0.01 -0.37    -0.577 OA
DOCKED: ATOM      6  O   UNL d   1     -12.576   2.279   1.364 -0.42 -1.15    -0.638 OA
DOCKED: ENDBRANCH   2   3
DOCKED: ENDBRANCH   1   2
DOCKED: BRANCH   1   7
DOCKED: ATOM      7  C   UNL d   1     -16.141  -0.828   2.005 -0.12 +0.24    +0.201 C 
DOCKED: BRANCH   7   8
DOCKED: ATOM      8  O   UNL d   1     -16.761   0.369   1.486 -0.51 -0.71    -0.364 OA
DOCKED: BRANCH   8   9
DOCKED: ATOM      9  P   UNL d   1     -18.105   0.993   2.221 -0.15 -0.03    -0.015 P 
DOCKED: ATOM     10  O   UNL d   1     -17.838   0.855   3.725 -0.12 -0.95    -0.577 OA
DOCKED: ATOM     11  O   UNL d   1     -19.294   0.143   1.772 -0.03 -0.76    -0.577 OA
DOCKED: ATOM     12  O   UNL d   1     -18.218   2.455   1.790 -0.62 -1.48    -0.638 OA
DOCKED: ENDBRANCH   8   9
DOCKED: ENDBRANCH   7   8
DOCKED: ENDBRANCH   1   7
DOCKED: BRANCH   1  13
DOCKED: ATOM     13  C   UNL d   1     -14.084  -2.298   2.392 -0.22 +0.07    +0.073 C 
DOCKED: ATOM     14  O   UNL d   1     -14.567  -2.555   3.550 -0.02 -0.39    -0.547 OA
DOCKED: ATOM     15  O   UNL d   1     -13.219  -3.029   1.788 -0.74 -0.84    -0.547 OA
DOCKED: ENDBRANCH   1  13
DOCKED: TORSDOF 6
DOCKED: TER
DOCKED: ENDMDL
________________________________________________________________________________


	BEGINNING GENETIC ALGORITHM DOCKING 74 of 100
Run: 74 Seed: 1157452970 1569120293 [ Run 74 of 100 GA/GALS ]
Beginning LAMARCKIAN GENETIC ALGORITHM (LGA), with a maximum of 25000000 energy evaluations.

Final-Value: -8.197


	FINAL GENETIC ALGORITHM DOCKED STATE
	_______________________________________________


Detailed state:  trans -16.976 0.353 3.039 quatxyzw -0.480986 -0.012572 -0.330091 -0.812117 center 0.015 0.083 0.031 ntor 6 110.1853 -170.5797 -123.3609 8.7688 50.7237 -81.9581
State:	-16.976   0.353   3.039  -0.824 -0.022 -0.566 -71.393    110.19 -170.58 -123.36    8.77   50.72  -81.96

DOCKED: MODEL       74
DOCKED: USER    Run = 74
DOCKED: USER    DPF = D:/Protein_go_brrr/autodock/final/AncMH_nat/2_3_BPG/dock.dpf
DOCKED: USER  
DOCKED: USER    Estimated Free Energy of Binding    =   -8.80 kcal/mol  [=(1)+(2)+(3)-(4)]
DOCKED: USER    Estimated Inhibition Constant, Ki   =  352.41 nM (nanomolar)  [Temperature = 298.15 K]
DOCKED: USER    
DOCKED: USER    (1) Final Intermolecular Energy     =  -10.59 kcal/mol
DOCKED: USER        vdW + Hbond + desolv Energy     =   -2.05 kcal/mol
DOCKED: USER        Electrostatic Energy            =   -8.54 kcal/mol
DOCKED: USER    (2) Final Total Internal Energy     =   +2.40 kcal/mol
DOCKED: USER    (3) Torsional Free Energy           =   +1.79 kcal/mol
DOCKED: USER    (4) Unbound System's Energy  [=(2)] =   +2.40 kcal/mol
DOCKED: USER    
DOCKED: USER    
DOCKED: USER    NEWDPF move 2_3_BPG_opt.pdbqt
DOCKED: USER    NEWDPF about 0.015000 0.083000 0.031000
DOCKED: USER    NEWDPF tran0 -16.976376 0.352592 3.039206
DOCKED: USER    NEWDPF quaternion0 -0.480986 -0.012572 -0.330091 -0.812117
DOCKED: USER    NEWDPF axisangle0 -0.824320 -0.021546 -0.565714 -71.393373
DOCKED: USER    NEWDPF quat0 -0.824320 -0.021546 -0.565714 -71.393373
DOCKED: USER    NEWDPF dihe0 110.19 -170.58 -123.36 8.77 50.72 -81.96 
DOCKED: USER  keepresnum = 1 
DOCKED: USER  
DOCKED: REMARK  6 active torsions:
DOCKED: REMARK  status: ('A' for Active; 'I' for Inactive)
DOCKED: REMARK    1  A    between atoms: P_1  and  O_3 
DOCKED: REMARK    2  A    between atoms: P_2  and  O_4 
DOCKED: REMARK    3  A    between atoms: O_3  and  C_13 
DOCKED: REMARK    4  A    between atoms: O_4  and  C_14 
DOCKED: REMARK    5  A    between atoms: C_13  and  C_14 
DOCKED: REMARK    6  A    between atoms: C_13  and  C_15 
DOCKED: USER                              x       y       z     vdW  Elec       q    Type
DOCKED: USER                           _______ _______ _______ _____ _____    ______ ____
DOCKED: ROOT
DOCKED: ATOM      1  C   UNL d   1     -17.578   0.633   3.132 -0.18 +0.30    +0.193 C 
DOCKED: ENDROOT
DOCKED: BRANCH   1   2
DOCKED: ATOM      2  O   UNL d   1     -18.152   0.931   1.815 -0.30 -0.62    -0.356 OA
DOCKED: BRANCH   2   3
DOCKED: ATOM      3  P   UNL d   1     -18.639   2.435   1.361 +0.05 -0.03    -0.014 P 
DOCKED: ATOM      4  O   UNL d   1     -18.219   3.342   2.528 -0.24 -1.49    -0.577 OA
DOCKED: ATOM      5  O   UNL d   1     -20.157   2.390   1.203 -0.11 -1.06    -0.577 OA
DOCKED: ATOM      6  O   UNL d   1     -17.904   2.800   0.076 +0.02 -1.15    -0.638 OA
DOCKED: ENDBRANCH   2   3
DOCKED: ENDBRANCH   1   2
DOCKED: BRANCH   1   7
DOCKED: ATOM      7  C   UNL d   1     -16.313  -0.281   2.936 -0.13 +0.24    +0.201 C 
DOCKED: BRANCH   7   8
DOCKED: ATOM      8  O   UNL d   1     -15.112   0.390   2.494 -0.18 -0.60    -0.364 OA
DOCKED: BRANCH   8   9
DOCKED: ATOM      9  P   UNL d   1     -14.311  -0.145   1.149 -0.11 -0.02    -0.015 P 
DOCKED: ATOM     10  O   UNL d   1     -15.336  -0.057   0.012 -0.32 -1.10    -0.577 OA
DOCKED: ATOM     11  O   UNL d   1     -13.887  -1.587   1.427 -0.10 -0.66    -0.577 OA
DOCKED: ATOM     12  O   UNL d   1     -13.126   0.795   0.927 -0.22 -1.10    -0.638 OA
DOCKED: ENDBRANCH   8   9
DOCKED: ENDBRANCH   7   8
DOCKED: ENDBRANCH   1   7
DOCKED: BRANCH   1  13
DOCKED: ATOM     13  C   UNL d   1     -18.627  -0.139   4.016 -0.13 +0.09    +0.073 C 
DOCKED: ATOM     14  O   UNL d   1     -18.211  -0.751   5.062 -0.02 -0.45    -0.547 OA
DOCKED: ATOM     15  O   UNL d   1     -19.859  -0.056   3.665 -0.08 -0.89    -0.547 OA
DOCKED: ENDBRANCH   1  13
DOCKED: TORSDOF 6
DOCKED: TER
DOCKED: ENDMDL
________________________________________________________________________________


	BEGINNING GENETIC ALGORITHM DOCKING 75 of 100
Run: 75 Seed: 911805379 1600459687 [ Run 75 of 100 GA/GALS ]
Beginning LAMARCKIAN GENETIC ALGORITHM (LGA), with a maximum of 25000000 energy evaluations.

Final-Value: -8.277


	FINAL GENETIC ALGORITHM DOCKED STATE
	_______________________________________________


Detailed state:  trans -16.319 -0.838 1.365 quatxyzw -0.458432 0.284015 0.143802 0.829757 center 0.015 0.083 0.031 ntor 6 163.3131 11.4876 -161.0581 55.2381 34.5967 179.3785
State:	-16.319  -0.838   1.365  -0.821  0.509  0.258 67.852    163.31   11.49 -161.06   55.24   34.60  179.38

DOCKED: MODEL       75
DOCKED: USER    Run = 75
DOCKED: USER    DPF = D:/Protein_go_brrr/autodock/final/AncMH_nat/2_3_BPG/dock.dpf
DOCKED: USER  
DOCKED: USER    Estimated Free Energy of Binding    =   -8.75 kcal/mol  [=(1)+(2)+(3)-(4)]
DOCKED: USER    Estimated Inhibition Constant, Ki   =  387.39 nM (nanomolar)  [Temperature = 298.15 K]
DOCKED: USER    
DOCKED: USER    (1) Final Intermolecular Energy     =  -10.54 kcal/mol
DOCKED: USER        vdW + Hbond + desolv Energy     =   -2.86 kcal/mol
DOCKED: USER        Electrostatic Energy            =   -7.67 kcal/mol
DOCKED: USER    (2) Final Total Internal Energy     =   +2.26 kcal/mol
DOCKED: USER    (3) Torsional Free Energy           =   +1.79 kcal/mol
DOCKED: USER    (4) Unbound System's Energy  [=(2)] =   +2.26 kcal/mol
DOCKED: USER    
DOCKED: USER    
DOCKED: USER    NEWDPF move 2_3_BPG_opt.pdbqt
DOCKED: USER    NEWDPF about 0.015000 0.083000 0.031000
DOCKED: USER    NEWDPF tran0 -16.318588 -0.838453 1.364743
DOCKED: USER    NEWDPF quaternion0 -0.458432 0.284015 0.143802 0.829757
DOCKED: USER    NEWDPF axisangle0 -0.821378 0.508874 0.257652 67.852460
DOCKED: USER    NEWDPF quat0 -0.821378 0.508874 0.257652 67.852460
DOCKED: USER    NEWDPF dihe0 163.31 11.49 -161.06 55.24 34.60 179.38 
DOCKED: USER  keepresnum = 1 
DOCKED: USER  
DOCKED: REMARK  6 active torsions:
DOCKED: REMARK  status: ('A' for Active; 'I' for Inactive)
DOCKED: REMARK    1  A    between atoms: P_1  and  O_3 
DOCKED: REMARK    2  A    between atoms: P_2  and  O_4 
DOCKED: REMARK    3  A    between atoms: O_3  and  C_13 
DOCKED: REMARK    4  A    between atoms: O_4  and  C_14 
DOCKED: REMARK    5  A    between atoms: C_13  and  C_14 
DOCKED: REMARK    6  A    between atoms: C_13  and  C_15 
DOCKED: USER                              x       y       z     vdW  Elec       q    Type
DOCKED: USER                           _______ _______ _______ _____ _____    ______ ____
DOCKED: ROOT
DOCKED: ATOM      1  C   UNL d   1     -16.835  -0.777   0.942 -0.09 +0.25    +0.193 C 
DOCKED: ENDROOT
DOCKED: BRANCH   1   2
DOCKED: ATOM      2  O   UNL d   1     -17.302   0.613   0.989 -0.51 -0.67    -0.356 OA
DOCKED: BRANCH   2   3
DOCKED: ATOM      3  P   UNL d   1     -18.219   1.217   2.213 -0.06 -0.03    -0.014 P 
DOCKED: ATOM      4  O   UNL d   1     -18.614   2.624   1.738 -0.60 -1.39    -0.577 OA
DOCKED: ATOM      5  O   UNL d   1     -17.335   1.271   3.457 -0.17 -0.99    -0.577 OA
DOCKED: ATOM      6  O   UNL d   1     -19.441   0.317   2.374 -0.06 -1.04    -0.638 OA
DOCKED: ENDBRANCH   2   3
DOCKED: ENDBRANCH   1   2
DOCKED: BRANCH   1   7
DOCKED: ATOM      7  C   UNL d   1     -15.457  -0.873   1.695 -0.15 +0.26    +0.201 C 
DOCKED: BRANCH   7   8
DOCKED: ATOM      8  O   UNL d   1     -14.727   0.366   1.833 -0.11 -0.71    -0.364 OA
DOCKED: BRANCH   8   9
DOCKED: ATOM      9  P   UNL d   1     -13.078   0.376   1.703 -0.34 -0.02    -0.015 P 
DOCKED: ATOM     10  O   UNL d   1     -12.731  -0.903   0.931 -0.05 -0.56    -0.577 OA
DOCKED: ATOM     11  O   UNL d   1     -12.518   0.353   3.126 -0.05 -0.40    -0.577 OA
DOCKED: ATOM     12  O   UNL d   1     -12.694   1.636   0.930 -0.46 -1.19    -0.638 OA
DOCKED: ENDBRANCH   8   9
DOCKED: ENDBRANCH   7   8
DOCKED: ENDBRANCH   1   7
DOCKED: BRANCH   1  13
DOCKED: ATOM     13  C   UNL d   1     -16.625  -1.226  -0.552 -0.13 +0.08    +0.073 C 
DOCKED: ATOM     14  O   UNL d   1     -16.925  -2.428  -0.878 -0.04 -0.63    -0.547 OA
DOCKED: ATOM     15  O   UNL d   1     -16.221  -0.330  -1.378 -0.05 -0.63    -0.547 OA
DOCKED: ENDBRANCH   1  13
DOCKED: TORSDOF 6
DOCKED: TER
DOCKED: ENDMDL
________________________________________________________________________________


	BEGINNING GENETIC ALGORITHM DOCKING 76 of 100
Run: 76 Seed: 997564424 1148424427 [ Run 76 of 100 GA/GALS ]
Beginning LAMARCKIAN GENETIC ALGORITHM (LGA), with a maximum of 25000000 energy evaluations.

Final-Value: -9.011


	FINAL GENETIC ALGORITHM DOCKED STATE
	_______________________________________________


Detailed state:  trans -15.501 -0.884 1.404 quatxyzw 0.177532 -0.948953 0.240096 -0.101612 center 0.015 0.083 0.031 ntor 6 -164.6773 -131.0659 -123.0452 -8.9706 24.6220 -117.3804
State:	-15.501  -0.884   1.404   0.178 -0.954  0.241 -168.336   -164.68 -131.07 -123.05   -8.97   24.62 -117.38

DOCKED: MODEL       76
DOCKED: USER    Run = 76
DOCKED: USER    DPF = D:/Protein_go_brrr/autodock/final/AncMH_nat/2_3_BPG/dock.dpf
DOCKED: USER  
DOCKED: USER    Estimated Free Energy of Binding    =   -9.39 kcal/mol  [=(1)+(2)+(3)-(4)]
DOCKED: USER    Estimated Inhibition Constant, Ki   =  130.10 nM (nanomolar)  [Temperature = 298.15 K]
DOCKED: USER    
DOCKED: USER    (1) Final Intermolecular Energy     =  -11.18 kcal/mol
DOCKED: USER        vdW + Hbond + desolv Energy     =   -3.49 kcal/mol
DOCKED: USER        Electrostatic Energy            =   -7.70 kcal/mol
DOCKED: USER    (2) Final Total Internal Energy     =   +2.17 kcal/mol
DOCKED: USER    (3) Torsional Free Energy           =   +1.79 kcal/mol
DOCKED: USER    (4) Unbound System's Energy  [=(2)] =   +2.17 kcal/mol
DOCKED: USER    
DOCKED: USER    
DOCKED: USER    NEWDPF move 2_3_BPG_opt.pdbqt
DOCKED: USER    NEWDPF about 0.015000 0.083000 0.031000
DOCKED: USER    NEWDPF tran0 -15.500776 -0.883762 1.403511
DOCKED: USER    NEWDPF quaternion0 0.177532 -0.948953 0.240096 -0.101612
DOCKED: USER    NEWDPF axisangle0 0.178456 -0.953890 0.241345 -168.336007
DOCKED: USER    NEWDPF quat0 0.178456 -0.953890 0.241345 -168.336007
DOCKED: USER    NEWDPF dihe0 -164.68 -131.07 -123.05 -8.97 24.62 -117.38 
DOCKED: USER  keepresnum = 1 
DOCKED: USER  
DOCKED: REMARK  6 active torsions:
DOCKED: REMARK  status: ('A' for Active; 'I' for Inactive)
DOCKED: REMARK    1  A    between atoms: P_1  and  O_3 
DOCKED: REMARK    2  A    between atoms: P_2  and  O_4 
DOCKED: REMARK    3  A    between atoms: O_3  and  C_13 
DOCKED: REMARK    4  A    between atoms: O_4  and  C_14 
DOCKED: REMARK    5  A    between atoms: C_13  and  C_14 
DOCKED: REMARK    6  A    between atoms: C_13  and  C_15 
DOCKED: USER                              x       y       z     vdW  Elec       q    Type
DOCKED: USER                           _______ _______ _______ _____ _____    ______ ____
DOCKED: ROOT
DOCKED: ATOM      1  C   UNL d   1     -14.853  -1.017   1.291 -0.18 +0.25    +0.193 C 
DOCKED: ENDROOT
DOCKED: BRANCH   1   2
DOCKED: ATOM      2  O   UNL d   1     -14.130   0.257   1.220 -0.07 -0.67    -0.356 OA
DOCKED: BRANCH   2   3
DOCKED: ATOM      3  P   UNL d   1     -12.908   0.544   0.157 -0.16 -0.02    -0.014 P 
DOCKED: ATOM      4  O   UNL d   1     -13.426  -0.009  -1.180 -0.04 -0.63    -0.577 OA
DOCKED: ATOM      5  O   UNL d   1     -11.688  -0.231   0.650 -0.03 -0.42    -0.577 OA
DOCKED: ATOM      6  O   UNL d   1     -12.685   2.051   0.090 -0.46 -1.25    -0.638 OA
DOCKED: ENDBRANCH   2   3
DOCKED: ENDBRANCH   1   2
DOCKED: BRANCH   1   7
DOCKED: ATOM      7  C   UNL d   1     -16.303  -0.745   1.839 -0.11 +0.25    +0.201 C 
DOCKED: BRANCH   7   8
DOCKED: ATOM      8  O   UNL d   1     -16.969   0.422   1.307 -0.53 -0.70    -0.364 OA
DOCKED: BRANCH   8   9
DOCKED: ATOM      9  P   UNL d   1     -18.111   1.208   2.209 -0.09 -0.03    -0.015 P 
DOCKED: ATOM     10  O   UNL d   1     -17.382   1.640   3.487 -0.22 -1.09    -0.577 OA
DOCKED: ATOM     11  O   UNL d   1     -19.222   0.200   2.499 -0.07 -0.90    -0.577 OA
DOCKED: ATOM     12  O   UNL d   1     -18.589   2.405   1.389 -0.59 -1.33    -0.638 OA
DOCKED: ENDBRANCH   8   9
DOCKED: ENDBRANCH   7   8
DOCKED: ENDBRANCH   1   7
DOCKED: BRANCH   1  13
DOCKED: ATOM     13  C   UNL d   1     -14.119  -2.000   2.277 -0.25 +0.07    +0.073 C 
DOCKED: ATOM     14  O   UNL d   1     -13.539  -3.034   1.790 -0.66 -0.86    -0.547 OA
DOCKED: ATOM     15  O   UNL d   1     -14.091  -1.669   3.517 -0.03 -0.38    -0.547 OA
DOCKED: ENDBRANCH   1  13
DOCKED: TORSDOF 6
DOCKED: TER
DOCKED: ENDMDL
________________________________________________________________________________


	BEGINNING GENETIC ALGORITHM DOCKING 77 of 100
Run: 77 Seed: 1995006782 1050289230 [ Run 77 of 100 GA/GALS ]
Beginning LAMARCKIAN GENETIC ALGORITHM (LGA), with a maximum of 25000000 energy evaluations.

Final-Value: -8.037


	FINAL GENETIC ALGORITHM DOCKED STATE
	_______________________________________________


Detailed state:  trans -17.688 -0.477 2.556 quatxyzw 0.892301 -0.144848 -0.205663 -0.374860 center 0.015 0.083 0.031 ntor 6 -47.0171 -21.3073 -58.8557 26.8717 -45.6837 20.3175
State:	-17.688  -0.477   2.556   0.962 -0.156 -0.222 -135.969    -47.02  -21.31  -58.86   26.87  -45.68   20.32

DOCKED: MODEL       77
DOCKED: USER    Run = 77
DOCKED: USER    DPF = D:/Protein_go_brrr/autodock/final/AncMH_nat/2_3_BPG/dock.dpf
DOCKED: USER  
DOCKED: USER    Estimated Free Energy of Binding    =   -8.43 kcal/mol  [=(1)+(2)+(3)-(4)]
DOCKED: USER    Estimated Inhibition Constant, Ki   =  661.44 nM (nanomolar)  [Temperature = 298.15 K]
DOCKED: USER    
DOCKED: USER    (1) Final Intermolecular Energy     =  -10.22 kcal/mol
DOCKED: USER        vdW + Hbond + desolv Energy     =   -2.49 kcal/mol
DOCKED: USER        Electrostatic Energy            =   -7.73 kcal/mol
DOCKED: USER    (2) Final Total Internal Energy     =   +2.18 kcal/mol
DOCKED: USER    (3) Torsional Free Energy           =   +1.79 kcal/mol
DOCKED: USER    (4) Unbound System's Energy  [=(2)] =   +2.18 kcal/mol
DOCKED: USER    
DOCKED: USER    
DOCKED: USER    NEWDPF move 2_3_BPG_opt.pdbqt
DOCKED: USER    NEWDPF about 0.015000 0.083000 0.031000
DOCKED: USER    NEWDPF tran0 -17.687894 -0.476976 2.555787
DOCKED: USER    NEWDPF quaternion0 0.892301 -0.144848 -0.205663 -0.374860
DOCKED: USER    NEWDPF axisangle0 0.962484 -0.156241 -0.221840 -135.968681
DOCKED: USER    NEWDPF quat0 0.962484 -0.156241 -0.221840 -135.968681
DOCKED: USER    NEWDPF dihe0 -47.02 -21.31 -58.86 26.87 -45.68 20.32 
DOCKED: USER  keepresnum = 1 
DOCKED: USER  
DOCKED: REMARK  6 active torsions:
DOCKED: REMARK  status: ('A' for Active; 'I' for Inactive)
DOCKED: REMARK    1  A    between atoms: P_1  and  O_3 
DOCKED: REMARK    2  A    between atoms: P_2  and  O_4 
DOCKED: REMARK    3  A    between atoms: O_3  and  C_13 
DOCKED: REMARK    4  A    between atoms: O_4  and  C_14 
DOCKED: REMARK    5  A    between atoms: C_13  and  C_14 
DOCKED: REMARK    6  A    between atoms: C_13  and  C_15 
DOCKED: USER                              x       y       z     vdW  Elec       q    Type
DOCKED: USER                           _______ _______ _______ _____ _____    ______ ____
DOCKED: ROOT
DOCKED: ATOM      1  C   UNL d   1     -18.211  -0.081   2.421 -0.11 +0.25    +0.193 C 
DOCKED: ENDROOT
DOCKED: BRANCH   1   2
DOCKED: ATOM      2  O   UNL d   1     -18.906   0.204   3.682 -0.06 -0.58    -0.356 OA
DOCKED: BRANCH   2   3
DOCKED: ATOM      3  P   UNL d   1     -20.341  -0.484   4.097 -0.04 -0.02    -0.014 P 
DOCKED: ATOM      4  O   UNL d   1     -20.354  -0.442   5.634 -0.03 -0.56    -0.577 OA
DOCKED: ATOM      5  O   UNL d   1     -20.323  -1.918   3.574 +0.02 -0.39    -0.577 OA
DOCKED: ATOM      6  O   UNL d   1     -21.460   0.366   3.504 -0.41 -1.27    -0.638 OA
DOCKED: ENDBRANCH   2   3
DOCKED: ENDBRANCH   1   2
DOCKED: BRANCH   1   7
DOCKED: ATOM      7  C   UNL d   1     -16.830  -0.759   2.748 -0.11 +0.21    +0.201 C 
DOCKED: BRANCH   7   8
DOCKED: ATOM      8  O   UNL d   1     -16.015  -1.111   1.608 -0.11 -0.44    -0.364 OA
DOCKED: BRANCH   8   9
DOCKED: ATOM      9  P   UNL d   1     -14.387  -0.821   1.630 -0.33 -0.02    -0.015 P 
DOCKED: ATOM     10  O   UNL d   1     -13.735  -2.185   1.372 -0.30 -0.73    -0.577 OA
DOCKED: ATOM     11  O   UNL d   1     -14.049  -0.281   3.019 -0.04 -0.55    -0.577 OA
DOCKED: ATOM     12  O   UNL d   1     -14.091   0.178   0.512 +0.03 -1.20    -0.638 OA
DOCKED: ENDBRANCH   8   9
DOCKED: ENDBRANCH   7   8
DOCKED: ENDBRANCH   1   7
DOCKED: BRANCH   1  13
DOCKED: ATOM     13  C   UNL d   1     -17.943   1.259   1.638 -0.11 +0.14    +0.073 C 
DOCKED: ATOM     14  O   UNL d   1     -18.218   2.369   2.214 -0.61 -1.41    -0.547 OA
DOCKED: ATOM     15  O   UNL d   1     -17.400   1.157   0.479 -0.30 -1.17    -0.547 OA
DOCKED: ENDBRANCH   1  13
DOCKED: TORSDOF 6
DOCKED: TER
DOCKED: ENDMDL
________________________________________________________________________________


	BEGINNING GENETIC ALGORITHM DOCKING 78 of 100
Run: 78 Seed: 1973517534 2011845558 [ Run 78 of 100 GA/GALS ]
Beginning LAMARCKIAN GENETIC ALGORITHM (LGA), with a maximum of 25000000 energy evaluations.

Final-Value: -8.712


	FINAL GENETIC ALGORITHM DOCKED STATE
	_______________________________________________


Detailed state:  trans -15.004 -0.971 0.935 quatxyzw 0.185913 -0.945679 0.266105 0.017748 center 0.015 0.083 0.031 ntor 6 -171.0411 -131.7575 -135.4366 15.1639 -31.1288 180.0000
State:	-15.004  -0.971   0.935   0.186 -0.946  0.266 177.966   -171.04 -131.76 -135.44   15.16  -31.13  180.00

DOCKED: MODEL       78
DOCKED: USER    Run = 78
DOCKED: USER    DPF = D:/Protein_go_brrr/autodock/final/AncMH_nat/2_3_BPG/dock.dpf
DOCKED: USER  
DOCKED: USER    Estimated Free Energy of Binding    =   -9.10 kcal/mol  [=(1)+(2)+(3)-(4)]
DOCKED: USER    Estimated Inhibition Constant, Ki   =  212.16 nM (nanomolar)  [Temperature = 298.15 K]
DOCKED: USER    
DOCKED: USER    (1) Final Intermolecular Energy     =  -10.89 kcal/mol
DOCKED: USER        vdW + Hbond + desolv Energy     =   -3.34 kcal/mol
DOCKED: USER        Electrostatic Energy            =   -7.55 kcal/mol
DOCKED: USER    (2) Final Total Internal Energy     =   +2.18 kcal/mol
DOCKED: USER    (3) Torsional Free Energy           =   +1.79 kcal/mol
DOCKED: USER    (4) Unbound System's Energy  [=(2)] =   +2.18 kcal/mol
DOCKED: USER    
DOCKED: USER    
DOCKED: USER    NEWDPF move 2_3_BPG_opt.pdbqt
DOCKED: USER    NEWDPF about 0.015000 0.083000 0.031000
DOCKED: USER    NEWDPF tran0 -15.004472 -0.971048 0.934610
DOCKED: USER    NEWDPF quaternion0 0.185913 -0.945679 0.266105 0.017748
DOCKED: USER    NEWDPF axisangle0 0.185942 -0.945828 0.266147 177.966133
DOCKED: USER    NEWDPF quat0 0.185942 -0.945828 0.266147 177.966133
DOCKED: USER    NEWDPF dihe0 -171.04 -131.76 -135.44 15.16 -31.13 180.00 
DOCKED: USER  keepresnum = 1 
DOCKED: USER  
DOCKED: REMARK  6 active torsions:
DOCKED: REMARK  status: ('A' for Active; 'I' for Inactive)
DOCKED: REMARK    1  A    between atoms: P_1  and  O_3 
DOCKED: REMARK    2  A    between atoms: P_2  and  O_4 
DOCKED: REMARK    3  A    between atoms: O_3  and  C_13 
DOCKED: REMARK    4  A    between atoms: O_4  and  C_14 
DOCKED: REMARK    5  A    between atoms: C_13  and  C_14 
DOCKED: REMARK    6  A    between atoms: C_13  and  C_15 
DOCKED: USER                              x       y       z     vdW  Elec       q    Type
DOCKED: USER                           _______ _______ _______ _____ _____    ______ ____
DOCKED: ROOT
DOCKED: ATOM      1  C   UNL d   1     -14.340  -1.052   0.976 -0.19 +0.25    +0.193 C 
DOCKED: ENDROOT
DOCKED: BRANCH   1   2
DOCKED: ATOM      2  O   UNL d   1     -13.722   0.276   1.052 -0.15 -0.61    -0.356 OA
DOCKED: BRANCH   2   3
DOCKED: ATOM      3  P   UNL d   1     -12.694   0.860  -0.092 -0.20 -0.02    -0.014 P 
DOCKED: ATOM      4  O   UNL d   1     -13.359   0.494  -1.428 -0.03 -0.63    -0.577 OA
DOCKED: ATOM      5  O   UNL d   1     -11.360   0.139   0.089 -0.02 -0.38    -0.577 OA
DOCKED: ATOM      6  O   UNL d   1     -12.597   2.372   0.089 -0.43 -1.21    -0.638 OA
DOCKED: ENDBRANCH   2   3
DOCKED: ENDBRANCH   1   2
DOCKED: BRANCH   1   7
DOCKED: ATOM      7  C   UNL d   1     -15.893  -0.898   1.172 -0.13 +0.27    +0.201 C 
DOCKED: BRANCH   7   8
DOCKED: ATOM      8  O   UNL d   1     -16.329   0.318   1.819 -0.42 -0.70    -0.364 OA
DOCKED: BRANCH   8   9
DOCKED: ATOM      9  P   UNL d   1     -17.827   0.942   1.491 -0.12 -0.03    -0.015 P 
DOCKED: ATOM     10  O   UNL d   1     -18.784  -0.253   1.579 +0.01 -0.66    -0.577 OA
DOCKED: ATOM     11  O   UNL d   1     -17.768   1.524   0.079 -0.19 -1.04    -0.577 OA
DOCKED: ATOM     12  O   UNL d   1     -18.121   1.993   2.560 -0.41 -1.66    -0.638 OA
DOCKED: ENDBRANCH   8   9
DOCKED: ENDBRANCH   7   8
DOCKED: ENDBRANCH   1   7
DOCKED: BRANCH   1  13
DOCKED: ATOM     13  C   UNL d   1     -13.777  -1.976   2.119 -0.25 +0.07    +0.073 C 
DOCKED: ATOM     14  O   UNL d   1     -13.125  -3.028   1.789 -0.76 -0.83    -0.547 OA
DOCKED: ATOM     15  O   UNL d   1     -13.952  -1.580   3.327 -0.03 -0.40    -0.547 OA
DOCKED: ENDBRANCH   1  13
DOCKED: TORSDOF 6
DOCKED: TER
DOCKED: ENDMDL
________________________________________________________________________________


	BEGINNING GENETIC ALGORITHM DOCKING 79 of 100
Run: 79 Seed: 599592694 1558902701 [ Run 79 of 100 GA/GALS ]
Beginning LAMARCKIAN GENETIC ALGORITHM (LGA), with a maximum of 25000000 energy evaluations.

Final-Value: -8.249


	FINAL GENETIC ALGORITHM DOCKED STATE
	_______________________________________________


Detailed state:  trans -16.850 0.375 3.034 quatxyzw -0.499480 -0.003129 -0.333608 -0.799510 center 0.015 0.083 0.031 ntor 6 117.6989 -170.9248 -133.0105 4.3778 55.1978 -77.0047
State:	-16.850   0.375   3.034  -0.832 -0.005 -0.555 -73.833    117.70 -170.92 -133.01    4.38   55.20  -77.00

DOCKED: MODEL       79
DOCKED: USER    Run = 79
DOCKED: USER    DPF = D:/Protein_go_brrr/autodock/final/AncMH_nat/2_3_BPG/dock.dpf
DOCKED: USER  
DOCKED: USER    Estimated Free Energy of Binding    =   -8.88 kcal/mol  [=(1)+(2)+(3)-(4)]
DOCKED: USER    Estimated Inhibition Constant, Ki   =  309.74 nM (nanomolar)  [Temperature = 298.15 K]
DOCKED: USER    
DOCKED: USER    (1) Final Intermolecular Energy     =  -10.67 kcal/mol
DOCKED: USER        vdW + Hbond + desolv Energy     =   -2.06 kcal/mol
DOCKED: USER        Electrostatic Energy            =   -8.61 kcal/mol
DOCKED: USER    (2) Final Total Internal Energy     =   +2.42 kcal/mol
DOCKED: USER    (3) Torsional Free Energy           =   +1.79 kcal/mol
DOCKED: USER    (4) Unbound System's Energy  [=(2)] =   +2.42 kcal/mol
DOCKED: USER    
DOCKED: USER    
DOCKED: USER    NEWDPF move 2_3_BPG_opt.pdbqt
DOCKED: USER    NEWDPF about 0.015000 0.083000 0.031000
DOCKED: USER    NEWDPF tran0 -16.849703 0.375264 3.034090
DOCKED: USER    NEWDPF quaternion0 -0.499480 -0.003129 -0.333608 -0.799510
DOCKED: USER    NEWDPF axisangle0 -0.831561 -0.005210 -0.555409 -73.833400
DOCKED: USER    NEWDPF quat0 -0.831561 -0.005210 -0.555409 -73.833400
DOCKED: USER    NEWDPF dihe0 117.70 -170.92 -133.01 4.38 55.20 -77.00 
DOCKED: USER  keepresnum = 1 
DOCKED: USER  
DOCKED: REMARK  6 active torsions:
DOCKED: REMARK  status: ('A' for Active; 'I' for Inactive)
DOCKED: REMARK    1  A    between atoms: P_1  and  O_3 
DOCKED: REMARK    2  A    between atoms: P_2  and  O_4 
DOCKED: REMARK    3  A    between atoms: O_3  and  C_13 
DOCKED: REMARK    4  A    between atoms: O_4  and  C_14 
DOCKED: REMARK    5  A    between atoms: C_13  and  C_14 
DOCKED: REMARK    6  A    between atoms: C_13  and  C_15 
DOCKED: USER                              x       y       z     vdW  Elec       q    Type
DOCKED: USER                           _______ _______ _______ _____ _____    ______ ____
DOCKED: ROOT
DOCKED: ATOM      1  C   UNL d   1     -17.442   0.674   3.131 -0.18 +0.30    +0.193 C 
DOCKED: ENDROOT
DOCKED: BRANCH   1   2
DOCKED: ATOM      2  O   UNL d   1     -18.041   0.938   1.818 -0.30 -0.63    -0.356 OA
DOCKED: BRANCH   2   3
DOCKED: ATOM      3  P   UNL d   1     -18.599   2.416   1.361 +0.06 -0.03    -0.014 P 
DOCKED: ATOM      4  O   UNL d   1     -18.218   3.345   2.524 -0.24 -1.48    -0.577 OA
DOCKED: ATOM      5  O   UNL d   1     -20.115   2.300   1.209 -0.13 -1.06    -0.577 OA
DOCKED: ATOM      6  O   UNL d   1     -17.887   2.810   0.072 +0.02 -1.16    -0.638 OA
DOCKED: ENDBRANCH   2   3
DOCKED: ENDBRANCH   1   2
DOCKED: BRANCH   1   7
DOCKED: ATOM      7  C   UNL d   1     -16.204  -0.277   2.939 -0.13 +0.24    +0.201 C 
DOCKED: BRANCH   7   8
DOCKED: ATOM      8  O   UNL d   1     -14.969   0.366   2.551 -0.19 -0.57    -0.364 OA
DOCKED: BRANCH   8   9
DOCKED: ATOM      9  P   UNL d   1     -14.206  -0.078   1.152 -0.12 -0.02    -0.015 P 
DOCKED: ATOM     10  O   UNL d   1     -15.301  -0.057   0.077 -0.31 -1.11    -0.577 OA
DOCKED: ATOM     11  O   UNL d   1     -13.650  -1.484   1.374 -0.10 -0.64    -0.577 OA
DOCKED: ATOM     12  O   UNL d   1     -13.118   0.961   0.882 -0.22 -1.20    -0.638 OA
DOCKED: ENDBRANCH   8   9
DOCKED: ENDBRANCH   7   8
DOCKED: ENDBRANCH   1   7
DOCKED: BRANCH   1  13
DOCKED: ATOM     13  C   UNL d   1     -18.487  -0.042   4.067 -0.13 +0.09    +0.073 C 
DOCKED: ATOM     14  O   UNL d   1     -18.085  -0.498   5.194 -0.04 -0.47    -0.547 OA
DOCKED: ATOM     15  O   UNL d   1     -19.706  -0.069   3.665 -0.06 -0.87    -0.547 OA
DOCKED: ENDBRANCH   1  13
DOCKED: TORSDOF 6
DOCKED: TER
DOCKED: ENDMDL
________________________________________________________________________________


	BEGINNING GENETIC ALGORITHM DOCKING 80 of 100
Run: 80 Seed: 1740755586 1183836928 [ Run 80 of 100 GA/GALS ]
Beginning LAMARCKIAN GENETIC ALGORITHM (LGA), with a maximum of 25000000 energy evaluations.

Final-Value: -8.559


	FINAL GENETIC ALGORITHM DOCKED STATE
	_______________________________________________


Detailed state:  trans -15.082 -0.789 0.636 quatxyzw -0.058567 0.959833 -0.244912 -0.123729 center 0.015 0.083 0.031 ntor 6 33.1924 -126.9661 -118.2721 39.6786 -15.8794 157.8985
State:	-15.082  -0.789   0.636  -0.059  0.967 -0.247 -165.785     33.19 -126.97 -118.27   39.68  -15.88  157.90

DOCKED: MODEL       80
DOCKED: USER    Run = 80
DOCKED: USER    DPF = D:/Protein_go_brrr/autodock/final/AncMH_nat/2_3_BPG/dock.dpf
DOCKED: USER  
DOCKED: USER    Estimated Free Energy of Binding    =   -9.00 kcal/mol  [=(1)+(2)+(3)-(4)]
DOCKED: USER    Estimated Inhibition Constant, Ki   =  252.74 nM (nanomolar)  [Temperature = 298.15 K]
DOCKED: USER    
DOCKED: USER    (1) Final Intermolecular Energy     =  -10.79 kcal/mol
DOCKED: USER        vdW + Hbond + desolv Energy     =   -3.07 kcal/mol
DOCKED: USER        Electrostatic Energy            =   -7.72 kcal/mol
DOCKED: USER    (2) Final Total Internal Energy     =   +2.23 kcal/mol
DOCKED: USER    (3) Torsional Free Energy           =   +1.79 kcal/mol
DOCKED: USER    (4) Unbound System's Energy  [=(2)] =   +2.23 kcal/mol
DOCKED: USER    
DOCKED: USER    
DOCKED: USER    NEWDPF move 2_3_BPG_opt.pdbqt
DOCKED: USER    NEWDPF about 0.015000 0.083000 0.031000
DOCKED: USER    NEWDPF tran0 -15.082132 -0.788956 0.636072
DOCKED: USER    NEWDPF quaternion0 -0.058567 0.959833 -0.244912 -0.123729
DOCKED: USER    NEWDPF axisangle0 -0.059021 0.967265 -0.246809 -165.785265
DOCKED: USER    NEWDPF quat0 -0.059021 0.967265 -0.246809 -165.785265
DOCKED: USER    NEWDPF dihe0 33.19 -126.97 -118.27 39.68 -15.88 157.90 
DOCKED: USER  keepresnum = 1 
DOCKED: USER  
DOCKED: REMARK  6 active torsions:
DOCKED: REMARK  status: ('A' for Active; 'I' for Inactive)
DOCKED: REMARK    1  A    between atoms: P_1  and  O_3 
DOCKED: REMARK    2  A    between atoms: P_2  and  O_4 
DOCKED: REMARK    3  A    between atoms: O_3  and  C_13 
DOCKED: REMARK    4  A    between atoms: O_4  and  C_14 
DOCKED: REMARK    5  A    between atoms: C_13  and  C_14 
DOCKED: REMARK    6  A    between atoms: C_13  and  C_15 
DOCKED: USER                              x       y       z     vdW  Elec       q    Type
DOCKED: USER                           _______ _______ _______ _____ _____    ______ ____
DOCKED: ROOT
DOCKED: ATOM      1  C   UNL d   1     -14.477  -1.002   0.831 -0.18 +0.26    +0.193 C 
DOCKED: ENDROOT
DOCKED: BRANCH   1   2
DOCKED: ATOM      2  O   UNL d   1     -13.679   0.169   1.209 -0.15 -0.56    -0.356 OA
DOCKED: BRANCH   2   3
DOCKED: ATOM      3  P   UNL d   1     -12.685   0.960   0.165 -0.08 -0.02    -0.014 P 
DOCKED: ATOM      4  O   UNL d   1     -13.549   1.194  -1.084 -0.07 -0.91    -0.577 OA
DOCKED: ATOM      5  O   UNL d   1     -11.509   0.032  -0.131 -0.03 -0.39    -0.577 OA
DOCKED: ATOM      6  O   UNL d   1     -12.271   2.277   0.814 -0.56 -0.95    -0.638 OA
DOCKED: ENDBRANCH   2   3
DOCKED: ENDBRANCH   1   2
DOCKED: BRANCH   1   7
DOCKED: ATOM      7  C   UNL d   1     -15.975  -0.557   0.653 -0.09 +0.31    +0.201 C 
DOCKED: BRANCH   7   8
DOCKED: ATOM      8  O   UNL d   1     -16.487   0.349   1.656 -0.47 -0.72    -0.364 OA
DOCKED: BRANCH   8   9
DOCKED: ATOM      9  P   UNL d   1     -17.924   1.132   1.411 -0.09 -0.03    -0.015 P 
DOCKED: ATOM     10  O   UNL d   1     -18.979   0.020   1.354 -0.00 -0.68    -0.577 OA
DOCKED: ATOM     11  O   UNL d   1     -17.805   1.876   0.082 -0.11 -1.06    -0.577 OA
DOCKED: ATOM     12  O   UNL d   1     -18.137   2.065   2.602 -0.38 -1.71    -0.638 OA
DOCKED: ENDBRANCH   8   9
DOCKED: ENDBRANCH   7   8
DOCKED: ENDBRANCH   1   7
DOCKED: BRANCH   1  13
DOCKED: ATOM     13  C   UNL d   1     -14.407  -2.093   1.964 -0.20 +0.08    +0.073 C 
DOCKED: ATOM     14  O   UNL d   1     -15.244  -2.025   2.931 -0.00 -0.47    -0.547 OA
DOCKED: ATOM     15  O   UNL d   1     -13.544  -3.032   1.816 -0.66 -0.85    -0.547 OA
DOCKED: ENDBRANCH   1  13
DOCKED: TORSDOF 6
DOCKED: TER
DOCKED: ENDMDL
________________________________________________________________________________


	BEGINNING GENETIC ALGORITHM DOCKING 81 of 100
Run: 81 Seed: 1968465567 1388276323 [ Run 81 of 100 GA/GALS ]
Beginning LAMARCKIAN GENETIC ALGORITHM (LGA), with a maximum of 25000000 energy evaluations.

Final-Value: -8.969


	FINAL GENETIC ALGORITHM DOCKED STATE
	_______________________________________________


Detailed state:  trans -15.026 -0.424 1.931 quatxyzw -0.009298 0.994106 -0.023017 0.105530 center 0.015 0.083 0.031 ntor 6 72.7915 -178.5117 179.6569 27.5759 -4.3323 -45.6046
State:	-15.026  -0.424   1.931  -0.009  1.000 -0.023 167.885     72.79 -178.51  179.66   27.58   -4.33  -45.60

DOCKED: MODEL       81
DOCKED: USER    Run = 81
DOCKED: USER    DPF = D:/Protein_go_brrr/autodock/final/AncMH_nat/2_3_BPG/dock.dpf
DOCKED: USER  
DOCKED: USER    Estimated Free Energy of Binding    =   -9.19 kcal/mol  [=(1)+(2)+(3)-(4)]
DOCKED: USER    Estimated Inhibition Constant, Ki   =  183.12 nM (nanomolar)  [Temperature = 298.15 K]
DOCKED: USER    
DOCKED: USER    (1) Final Intermolecular Energy     =  -10.98 kcal/mol
DOCKED: USER        vdW + Hbond + desolv Energy     =   -3.59 kcal/mol
DOCKED: USER        Electrostatic Energy            =   -7.39 kcal/mol
DOCKED: USER    (2) Final Total Internal Energy     =   +2.01 kcal/mol
DOCKED: USER    (3) Torsional Free Energy           =   +1.79 kcal/mol
DOCKED: USER    (4) Unbound System's Energy  [=(2)] =   +2.01 kcal/mol
DOCKED: USER    
DOCKED: USER    
DOCKED: USER    NEWDPF move 2_3_BPG_opt.pdbqt
DOCKED: USER    NEWDPF about 0.015000 0.083000 0.031000
DOCKED: USER    NEWDPF tran0 -15.025625 -0.424475 1.931139
DOCKED: USER    NEWDPF quaternion0 -0.009298 0.994106 -0.023017 0.105530
DOCKED: USER    NEWDPF axisangle0 -0.009350 0.999688 -0.023146 167.884649
DOCKED: USER    NEWDPF quat0 -0.009350 0.999688 -0.023146 167.884649
DOCKED: USER    NEWDPF dihe0 72.79 -178.51 179.66 27.58 -4.33 -45.60 
DOCKED: USER  keepresnum = 1 
DOCKED: USER  
DOCKED: REMARK  6 active torsions:
DOCKED: REMARK  status: ('A' for Active; 'I' for Inactive)
DOCKED: REMARK    1  A    between atoms: P_1  and  O_3 
DOCKED: REMARK    2  A    between atoms: P_2  and  O_4 
DOCKED: REMARK    3  A    between atoms: O_3  and  C_13 
DOCKED: REMARK    4  A    between atoms: O_4  and  C_14 
DOCKED: REMARK    5  A    between atoms: C_13  and  C_14 
DOCKED: REMARK    6  A    between atoms: C_13  and  C_15 
DOCKED: USER                              x       y       z     vdW  Elec       q    Type
DOCKED: USER                           _______ _______ _______ _____ _____    ______ ____
DOCKED: ROOT
DOCKED: ATOM      1  C   UNL d   1     -14.465  -0.733   1.731 -0.19 +0.24    +0.193 C 
DOCKED: ENDROOT
DOCKED: BRANCH   1   2
DOCKED: ATOM      2  O   UNL d   1     -13.323   0.109   2.103 -0.16 -0.41    -0.356 OA
DOCKED: BRANCH   2   3
DOCKED: ATOM      3  P   UNL d   1     -12.477   1.014   1.021 -0.17 -0.02    -0.014 P 
DOCKED: ATOM      4  O   UNL d   1     -13.123   0.691  -0.336 -0.20 -0.84    -0.577 OA
DOCKED: ATOM      5  O   UNL d   1     -11.024   0.547   1.077 +0.00 -0.33    -0.577 OA
DOCKED: ATOM      6  O   UNL d   1     -12.659   2.483   1.391 -0.37 -1.23    -0.638 OA
DOCKED: ENDBRANCH   2   3
DOCKED: ENDBRANCH   1   2
DOCKED: BRANCH   1   7
DOCKED: ATOM      7  C   UNL d   1     -15.754  -0.178   2.442 -0.13 +0.28    +0.201 C 
DOCKED: BRANCH   7   8
DOCKED: ATOM      8  O   UNL d   1     -16.770   0.365   1.570 -0.50 -0.69    -0.364 OA
DOCKED: BRANCH   8   9
DOCKED: ATOM      9  P   UNL d   1     -18.182   0.948   2.205 -0.16 -0.03    -0.015 P 
DOCKED: ATOM     10  O   UNL d   1     -18.032   0.791   3.723 -0.10 -0.98    -0.577 OA
DOCKED: ATOM     11  O   UNL d   1     -19.312   0.081   1.651 -0.02 -0.73    -0.577 OA
DOCKED: ATOM     12  O   UNL d   1     -18.293   2.414   1.788 -0.62 -1.49    -0.638 OA
DOCKED: ENDBRANCH   8   9
DOCKED: ENDBRANCH   7   8
DOCKED: ENDBRANCH   1   7
DOCKED: BRANCH   1  13
DOCKED: ATOM     13  C   UNL d   1     -14.223  -2.213   2.209 -0.22 +0.08    +0.073 C 
DOCKED: ATOM     14  O   UNL d   1     -15.119  -2.777   2.930 -0.01 -0.49    -0.547 OA
DOCKED: ATOM     15  O   UNL d   1     -13.158  -2.794   1.789 -0.74 -0.75    -0.547 OA
DOCKED: ENDBRANCH   1  13
DOCKED: TORSDOF 6
DOCKED: TER
DOCKED: ENDMDL
________________________________________________________________________________


	BEGINNING GENETIC ALGORITHM DOCKING 82 of 100
Run: 82 Seed: 667746205 812083051 [ Run 82 of 100 GA/GALS ]
Beginning LAMARCKIAN GENETIC ALGORITHM (LGA), with a maximum of 25000000 energy evaluations.

Final-Value: -9.023


	FINAL GENETIC ALGORITHM DOCKED STATE
	_______________________________________________


Detailed state:  trans -15.143 -0.496 1.908 quatxyzw 0.034974 -0.984485 0.104198 -0.136781 center 0.015 0.083 0.031 ntor 6 -131.2610 -149.7509 174.5604 19.6377 -1.5274 -56.2375
State:	-15.143  -0.496   1.908   0.035 -0.994  0.105 -164.277   -131.26 -149.75  174.56   19.64   -1.53  -56.24

DOCKED: MODEL       82
DOCKED: USER    Run = 82
DOCKED: USER    DPF = D:/Protein_go_brrr/autodock/final/AncMH_nat/2_3_BPG/dock.dpf
DOCKED: USER  
DOCKED: USER    Estimated Free Energy of Binding    =   -9.25 kcal/mol  [=(1)+(2)+(3)-(4)]
DOCKED: USER    Estimated Inhibition Constant, Ki   =  167.06 nM (nanomolar)  [Temperature = 298.15 K]
DOCKED: USER    
DOCKED: USER    (1) Final Intermolecular Energy     =  -11.04 kcal/mol
DOCKED: USER        vdW + Hbond + desolv Energy     =   -3.68 kcal/mol
DOCKED: USER        Electrostatic Energy            =   -7.36 kcal/mol
DOCKED: USER    (2) Final Total Internal Energy     =   +2.01 kcal/mol
DOCKED: USER    (3) Torsional Free Energy           =   +1.79 kcal/mol
DOCKED: USER    (4) Unbound System's Energy  [=(2)] =   +2.01 kcal/mol
DOCKED: USER    
DOCKED: USER    
DOCKED: USER    NEWDPF move 2_3_BPG_opt.pdbqt
DOCKED: USER    NEWDPF about 0.015000 0.083000 0.031000
DOCKED: USER    NEWDPF tran0 -15.143313 -0.495589 1.908150
DOCKED: USER    NEWDPF quaternion0 0.034974 -0.984485 0.104198 -0.136781
DOCKED: USER    NEWDPF axisangle0 0.035306 -0.993826 0.105187 -164.276718
DOCKED: USER    NEWDPF quat0 0.035306 -0.993826 0.105187 -164.276718
DOCKED: USER    NEWDPF dihe0 -131.26 -149.75 174.56 19.64 -1.53 -56.24 
DOCKED: USER  keepresnum = 1 
DOCKED: USER  
DOCKED: REMARK  6 active torsions:
DOCKED: REMARK  status: ('A' for Active; 'I' for Inactive)
DOCKED: REMARK    1  A    between atoms: P_1  and  O_3 
DOCKED: REMARK    2  A    between atoms: P_2  and  O_4 
DOCKED: REMARK    3  A    between atoms: O_3  and  C_13 
DOCKED: REMARK    4  A    between atoms: O_4  and  C_14 
DOCKED: REMARK    5  A    between atoms: C_13  and  C_14 
DOCKED: REMARK    6  A    between atoms: C_13  and  C_15 
DOCKED: USER                              x       y       z     vdW  Elec       q    Type
DOCKED: USER                           _______ _______ _______ _____ _____    ______ ____
DOCKED: ROOT
DOCKED: ATOM      1  C   UNL d   1     -14.575  -0.796   1.720 -0.19 +0.24    +0.193 C 
DOCKED: ENDROOT
DOCKED: BRANCH   1   2
DOCKED: ATOM      2  O   UNL d   1     -13.476   0.163   1.878 -0.16 -0.46    -0.356 OA
DOCKED: BRANCH   2   3
DOCKED: ATOM      3  P   UNL d   1     -12.637   0.792   0.611 -0.22 -0.02    -0.014 P 
DOCKED: ATOM      4  O   UNL d   1     -13.619   0.727  -0.569 -0.07 -0.97    -0.577 OA
DOCKED: ATOM      5  O   UNL d   1     -11.423  -0.106   0.382 -0.03 -0.38    -0.577 OA
DOCKED: ATOM      6  O   UNL d   1     -12.272   2.232   0.957 -0.56 -0.94    -0.638 OA
DOCKED: ENDBRANCH   2   3
DOCKED: ENDBRANCH   1   2
DOCKED: BRANCH   1   7
DOCKED: ATOM      7  C   UNL d   1     -15.856  -0.216   2.424 -0.13 +0.27    +0.201 C 
DOCKED: BRANCH   7   8
DOCKED: ATOM      8  O   UNL d   1     -16.861   0.338   1.546 -0.50 -0.67    -0.364 OA
DOCKED: BRANCH   8   9
DOCKED: ATOM      9  P   UNL d   1     -18.234   1.011   2.178 -0.12 -0.03    -0.015 P 
DOCKED: ATOM     10  O   UNL d   1     -18.127   0.790   3.691 -0.10 -1.01    -0.577 OA
DOCKED: ATOM     11  O   UNL d   1     -19.419   0.257   1.574 -0.03 -0.75    -0.577 OA
DOCKED: ATOM     12  O   UNL d   1     -18.220   2.494   1.811 -0.61 -1.50    -0.638 OA
DOCKED: ENDBRANCH   8   9
DOCKED: ENDBRANCH   7   8
DOCKED: ENDBRANCH   1   7
DOCKED: BRANCH   1  13
DOCKED: ATOM     13  C   UNL d   1     -14.200  -2.164   2.402 -0.24 +0.07    +0.073 C 
DOCKED: ATOM     14  O   UNL d   1     -13.398  -2.954   1.790 -0.70 -0.82    -0.547 OA
DOCKED: ATOM     15  O   UNL d   1     -14.676  -2.380   3.575 -0.01 -0.39    -0.547 OA
DOCKED: ENDBRANCH   1  13
DOCKED: TORSDOF 6
DOCKED: TER
DOCKED: ENDMDL
________________________________________________________________________________


	BEGINNING GENETIC ALGORITHM DOCKING 83 of 100
Run: 83 Seed: 1446573243 1065299050 [ Run 83 of 100 GA/GALS ]
Beginning LAMARCKIAN GENETIC ALGORITHM (LGA), with a maximum of 25000000 energy evaluations.

Final-Value: -7.997


	FINAL GENETIC ALGORITHM DOCKED STATE
	_______________________________________________


Detailed state:  trans -19.522 4.047 0.829 quatxyzw -0.130213 -0.277807 -0.867501 0.391548 center 0.015 0.083 0.031 ntor 6 -107.6397 -40.1154 -110.5650 13.9531 -76.2023 -87.9656
State:	-19.522   4.047   0.829  -0.142 -0.302 -0.943 133.898   -107.64  -40.12 -110.56   13.95  -76.20  -87.97

DOCKED: MODEL       83
DOCKED: USER    Run = 83
DOCKED: USER    DPF = D:/Protein_go_brrr/autodock/final/AncMH_nat/2_3_BPG/dock.dpf
DOCKED: USER  
DOCKED: USER    Estimated Free Energy of Binding    =   -8.39 kcal/mol  [=(1)+(2)+(3)-(4)]
DOCKED: USER    Estimated Inhibition Constant, Ki   =  706.30 nM (nanomolar)  [Temperature = 298.15 K]
DOCKED: USER    
DOCKED: USER    (1) Final Intermolecular Energy     =  -10.18 kcal/mol
DOCKED: USER        vdW + Hbond + desolv Energy     =   -2.48 kcal/mol
DOCKED: USER        Electrostatic Energy            =   -7.70 kcal/mol
DOCKED: USER    (2) Final Total Internal Energy     =   +2.18 kcal/mol
DOCKED: USER    (3) Torsional Free Energy           =   +1.79 kcal/mol
DOCKED: USER    (4) Unbound System's Energy  [=(2)] =   +2.18 kcal/mol
DOCKED: USER    
DOCKED: USER    
DOCKED: USER    NEWDPF move 2_3_BPG_opt.pdbqt
DOCKED: USER    NEWDPF about 0.015000 0.083000 0.031000
DOCKED: USER    NEWDPF tran0 -19.521729 4.047491 0.829415
DOCKED: USER    NEWDPF quaternion0 -0.130213 -0.277807 -0.867501 0.391548
DOCKED: USER    NEWDPF axisangle0 -0.141512 -0.301913 -0.942774 133.898308
DOCKED: USER    NEWDPF quat0 -0.141512 -0.301913 -0.942774 133.898308
DOCKED: USER    NEWDPF dihe0 -107.64 -40.12 -110.56 13.95 -76.20 -87.97 
DOCKED: USER  keepresnum = 1 
DOCKED: USER  
DOCKED: REMARK  6 active torsions:
DOCKED: REMARK  status: ('A' for Active; 'I' for Inactive)
DOCKED: REMARK    1  A    between atoms: P_1  and  O_3 
DOCKED: REMARK    2  A    between atoms: P_2  and  O_4 
DOCKED: REMARK    3  A    between atoms: O_3  and  C_13 
DOCKED: REMARK    4  A    between atoms: O_4  and  C_14 
DOCKED: REMARK    5  A    between atoms: C_13  and  C_14 
DOCKED: REMARK    6  A    between atoms: C_13  and  C_15 
DOCKED: USER                              x       y       z     vdW  Elec       q    Type
DOCKED: USER                           _______ _______ _______ _____ _____    ______ ____
DOCKED: ROOT
DOCKED: ATOM      1  C   UNL d   1     -18.905   3.811   0.718 -0.14 +0.27    +0.193 C 
DOCKED: ENDROOT
DOCKED: BRANCH   1   2
DOCKED: ATOM      2  O   UNL d   1     -18.982   2.347   0.653 -0.23 -0.55    -0.356 OA
DOCKED: BRANCH   2   3
DOCKED: ATOM      3  P   UNL d   1     -18.193   1.354   1.700 -0.13 -0.03    -0.014 P 
DOCKED: ATOM      4  O   UNL d   1     -19.234   0.287   2.074 -0.07 -0.86    -0.577 OA
DOCKED: ATOM      5  O   UNL d   1     -17.794   2.197   2.910 -0.35 -1.40    -0.577 OA
DOCKED: ATOM      6  O   UNL d   1     -17.004   0.743   0.966 -0.39 -1.46    -0.638 OA
DOCKED: ENDBRANCH   2   3
DOCKED: ENDBRANCH   1   2
DOCKED: BRANCH   1   7
DOCKED: ATOM      7  C   UNL d   1     -20.365   4.395   0.686 -0.07 +0.21    +0.201 C 
DOCKED: BRANCH   7   8
DOCKED: ATOM      8  O   UNL d   1     -21.150   4.195   1.883 -0.19 -0.64    -0.364 OA
DOCKED: BRANCH   8   9
DOCKED: ATOM      9  P   UNL d   1     -21.455   5.466   2.897 -0.02 -0.02    -0.015 P 
DOCKED: ATOM     10  O   UNL d   1     -22.457   6.347   2.141 -0.00 -0.31    -0.577 OA
DOCKED: ATOM     11  O   UNL d   1     -20.125   6.182   3.127 -0.08 -0.57    -0.577 OA
DOCKED: ATOM     12  O   UNL d   1     -22.053   4.887   4.178 -0.48 -1.03    -0.638 OA
DOCKED: ENDBRANCH   8   9
DOCKED: ENDBRANCH   7   8
DOCKED: ENDBRANCH   1   7
DOCKED: BRANCH   1  13
DOCKED: ATOM     13  C   UNL d   1     -18.113   4.365  -0.525 -0.11 +0.08    +0.073 C 
DOCKED: ATOM     14  O   UNL d   1     -16.943   3.900  -0.761 -0.21 -1.07    -0.547 OA
DOCKED: ATOM     15  O   UNL d   1     -18.721   5.214  -1.272 +0.01 -0.33    -0.547 OA
DOCKED: ENDBRANCH   1  13
DOCKED: TORSDOF 6
DOCKED: TER
DOCKED: ENDMDL
________________________________________________________________________________


	BEGINNING GENETIC ALGORITHM DOCKING 84 of 100
Run: 84 Seed: 405477680 788146974 [ Run 84 of 100 GA/GALS ]
Beginning LAMARCKIAN GENETIC ALGORITHM (LGA), with a maximum of 25000000 energy evaluations.

Final-Value: -8.183


	FINAL GENETIC ALGORITHM DOCKED STATE
	_______________________________________________


Detailed state:  trans -16.218 -0.778 1.482 quatxyzw 0.426925 -0.322887 -0.154089 -0.830503 center 0.015 0.083 0.031 ntor 6 158.7447 -129.0835 -161.4848 34.3319 45.2938 -175.1477
State:	-16.218  -0.778   1.482   0.766 -0.580 -0.277 -67.699    158.74 -129.08 -161.48   34.33   45.29 -175.15

DOCKED: MODEL       84
DOCKED: USER    Run = 84
DOCKED: USER    DPF = D:/Protein_go_brrr/autodock/final/AncMH_nat/2_3_BPG/dock.dpf
DOCKED: USER  
DOCKED: USER    Estimated Free Energy of Binding    =   -8.61 kcal/mol  [=(1)+(2)+(3)-(4)]
DOCKED: USER    Estimated Inhibition Constant, Ki   =  491.87 nM (nanomolar)  [Temperature = 298.15 K]
DOCKED: USER    
DOCKED: USER    (1) Final Intermolecular Energy     =  -10.40 kcal/mol
DOCKED: USER        vdW + Hbond + desolv Energy     =   -2.78 kcal/mol
DOCKED: USER        Electrostatic Energy            =   -7.62 kcal/mol
DOCKED: USER    (2) Final Total Internal Energy     =   +2.21 kcal/mol
DOCKED: USER    (3) Torsional Free Energy           =   +1.79 kcal/mol
DOCKED: USER    (4) Unbound System's Energy  [=(2)] =   +2.21 kcal/mol
DOCKED: USER    
DOCKED: USER    
DOCKED: USER    NEWDPF move 2_3_BPG_opt.pdbqt
DOCKED: USER    NEWDPF about 0.015000 0.083000 0.031000
DOCKED: USER    NEWDPF tran0 -16.217807 -0.777559 1.481731
DOCKED: USER    NEWDPF quaternion0 0.426925 -0.322887 -0.154089 -0.830503
DOCKED: USER    NEWDPF axisangle0 0.766453 -0.579675 -0.276635 -67.699064
DOCKED: USER    NEWDPF quat0 0.766453 -0.579675 -0.276635 -67.699064
DOCKED: USER    NEWDPF dihe0 158.74 -129.08 -161.48 34.33 45.29 -175.15 
DOCKED: USER  keepresnum = 1 
DOCKED: USER  
DOCKED: REMARK  6 active torsions:
DOCKED: REMARK  status: ('A' for Active; 'I' for Inactive)
DOCKED: REMARK    1  A    between atoms: P_1  and  O_3 
DOCKED: REMARK    2  A    between atoms: P_2  and  O_4 
DOCKED: REMARK    3  A    between atoms: O_3  and  C_13 
DOCKED: REMARK    4  A    between atoms: O_4  and  C_14 
DOCKED: REMARK    5  A    between atoms: C_13  and  C_14 
DOCKED: REMARK    6  A    between atoms: C_13  and  C_15 
DOCKED: USER                              x       y       z     vdW  Elec       q    Type
DOCKED: USER                           _______ _______ _______ _____ _____    ______ ____
DOCKED: ROOT
DOCKED: ATOM      1  C   UNL d   1     -16.710  -0.706   1.032 -0.09 +0.25    +0.193 C 
DOCKED: ENDROOT
DOCKED: BRANCH   1   2
DOCKED: ATOM      2  O   UNL d   1     -17.077   0.713   0.978 -0.48 -0.78    -0.356 OA
DOCKED: BRANCH   2   3
DOCKED: ATOM      3  P   UNL d   1     -18.360   1.345   1.790 -0.05 -0.03    -0.014 P 
DOCKED: ATOM      4  O   UNL d   1     -18.235   0.770   3.210 -0.20 -1.05    -0.577 OA
DOCKED: ATOM      5  O   UNL d   1     -19.625   0.851   1.093 -0.06 -0.78    -0.577 OA
DOCKED: ATOM      6  O   UNL d   1     -18.218   2.864   1.787 -0.53 -1.47    -0.638 OA
DOCKED: ENDBRANCH   2   3
DOCKED: ENDBRANCH   1   2
DOCKED: BRANCH   1   7
DOCKED: ATOM      7  C   UNL d   1     -15.376  -0.851   1.854 -0.15 +0.25    +0.201 C 
DOCKED: BRANCH   7   8
DOCKED: ATOM      8  O   UNL d   1     -14.627   0.367   2.061 -0.14 -0.65    -0.364 OA
DOCKED: BRANCH   8   9
DOCKED: ATOM      9  P   UNL d   1     -13.001   0.402   1.760 -0.35 -0.02    -0.015 P 
DOCKED: ATOM     10  O   UNL d   1     -12.744  -0.780   0.817 -0.04 -0.57    -0.577 OA
DOCKED: ATOM     11  O   UNL d   1     -12.295   0.224   3.104 -0.04 -0.37    -0.577 OA
DOCKED: ATOM     12  O   UNL d   1     -12.694   1.743   1.096 -0.43 -1.19    -0.638 OA
DOCKED: ENDBRANCH   8   9
DOCKED: ENDBRANCH   7   8
DOCKED: ENDBRANCH   1   7
DOCKED: BRANCH   1  13
DOCKED: ATOM     13  C   UNL d   1     -16.468  -1.257  -0.423 -0.14 +0.09    +0.073 C 
DOCKED: ATOM     14  O   UNL d   1     -16.757  -2.480  -0.669 -0.01 -0.67    -0.547 OA
DOCKED: ATOM     15  O   UNL d   1     -16.050  -0.419  -1.301 -0.06 -0.64    -0.547 OA
DOCKED: ENDBRANCH   1  13
DOCKED: TORSDOF 6
DOCKED: TER
DOCKED: ENDMDL
________________________________________________________________________________


	BEGINNING GENETIC ALGORITHM DOCKING 85 of 100
Run: 85 Seed: 1720736218 248272487 [ Run 85 of 100 GA/GALS ]
Beginning LAMARCKIAN GENETIC ALGORITHM (LGA), with a maximum of 25000000 energy evaluations.

Final-Value: -8.058


	FINAL GENETIC ALGORITHM DOCKED STATE
	_______________________________________________


Detailed state:  trans -16.767 -0.900 2.142 quatxyzw -0.515845 0.493912 0.205846 0.669016 center 0.015 0.083 0.031 ntor 6 146.2353 -12.4395 -56.5570 -7.3225 -38.7473 43.3400
State:	-16.767  -0.900   2.142  -0.694  0.665  0.277 96.018    146.24  -12.44  -56.56   -7.32  -38.75   43.34

DOCKED: MODEL       85
DOCKED: USER    Run = 85
DOCKED: USER    DPF = D:/Protein_go_brrr/autodock/final/AncMH_nat/2_3_BPG/dock.dpf
DOCKED: USER  
DOCKED: USER    Estimated Free Energy of Binding    =   -8.57 kcal/mol  [=(1)+(2)+(3)-(4)]
DOCKED: USER    Estimated Inhibition Constant, Ki   =  520.53 nM (nanomolar)  [Temperature = 298.15 K]
DOCKED: USER    
DOCKED: USER    (1) Final Intermolecular Energy     =  -10.36 kcal/mol
DOCKED: USER        vdW + Hbond + desolv Energy     =   -2.87 kcal/mol
DOCKED: USER        Electrostatic Energy            =   -7.49 kcal/mol
DOCKED: USER    (2) Final Total Internal Energy     =   +2.30 kcal/mol
DOCKED: USER    (3) Torsional Free Energy           =   +1.79 kcal/mol
DOCKED: USER    (4) Unbound System's Energy  [=(2)] =   +2.30 kcal/mol
DOCKED: USER    
DOCKED: USER    
DOCKED: USER    NEWDPF move 2_3_BPG_opt.pdbqt
DOCKED: USER    NEWDPF about 0.015000 0.083000 0.031000
DOCKED: USER    NEWDPF tran0 -16.767325 -0.900377 2.141963
DOCKED: USER    NEWDPF quaternion0 -0.515845 0.493912 0.205846 0.669016
DOCKED: USER    NEWDPF axisangle0 -0.694041 0.664532 0.276955 96.017700
DOCKED: USER    NEWDPF quat0 -0.694041 0.664532 0.276955 96.017700
DOCKED: USER    NEWDPF dihe0 146.24 -12.44 -56.56 -7.32 -38.75 43.34 
DOCKED: USER  keepresnum = 1 
DOCKED: USER  
DOCKED: REMARK  6 active torsions:
DOCKED: REMARK  status: ('A' for Active; 'I' for Inactive)
DOCKED: REMARK    1  A    between atoms: P_1  and  O_3 
DOCKED: REMARK    2  A    between atoms: P_2  and  O_4 
DOCKED: REMARK    3  A    between atoms: O_3  and  C_13 
DOCKED: REMARK    4  A    between atoms: O_4  and  C_14 
DOCKED: REMARK    5  A    between atoms: C_13  and  C_14 
DOCKED: REMARK    6  A    between atoms: C_13  and  C_15 
DOCKED: USER                              x       y       z     vdW  Elec       q    Type
DOCKED: USER                           _______ _______ _______ _____ _____    ______ ____
DOCKED: ROOT
DOCKED: ATOM      1  C   UNL d   1     -17.026  -0.605   1.598 -0.09 +0.24    +0.193 C 
DOCKED: ENDROOT
DOCKED: BRANCH   1   2
DOCKED: ATOM      2  O   UNL d   1     -17.100   0.838   1.854 -0.35 -0.71    -0.356 OA
DOCKED: BRANCH   2   3
DOCKED: ATOM      3  P   UNL d   1     -18.372   1.772   1.391 -0.07 -0.03    -0.014 P 
DOCKED: ATOM      4  O   UNL d   1     -18.219   3.061   2.213 -0.45 -1.45    -0.577 OA
DOCKED: ATOM      5  O   UNL d   1     -19.646   1.017   1.762 -0.17 -1.06    -0.577 OA
DOCKED: ATOM      6  O   UNL d   1     -18.238   2.043  -0.104 -0.03 -0.95    -0.638 OA
DOCKED: ENDBRANCH   2   3
DOCKED: ENDBRANCH   1   2
DOCKED: BRANCH   1   7
DOCKED: ATOM      7  C   UNL d   1     -16.162  -1.274   2.730 -0.11 +0.19    +0.201 C 
DOCKED: BRANCH   7   8
DOCKED: ATOM      8  O   UNL d   1     -15.559  -2.544   2.396 -0.07 -0.36    -0.364 OA
DOCKED: BRANCH   8   9
DOCKED: ATOM      9  P   UNL d   1     -14.061  -2.930   2.981 -0.23 -0.01    -0.015 P 
DOCKED: ATOM     10  O   UNL d   1     -14.244  -4.280   3.686 -0.06 -0.42    -0.577 OA
DOCKED: ATOM     11  O   UNL d   1     -13.665  -1.824   3.959 -0.02 -0.32    -0.577 OA
DOCKED: ATOM     12  O   UNL d   1     -13.120  -3.032   1.781 -0.70 -0.97    -0.638 OA
DOCKED: ENDBRANCH   8   9
DOCKED: ENDBRANCH   7   8
DOCKED: ENDBRANCH   1   7
DOCKED: BRANCH   1  13
DOCKED: ATOM     13  C   UNL d   1     -16.333  -0.873   0.211 -0.14 +0.10    +0.073 C 
DOCKED: ATOM     14  O   UNL d   1     -16.519  -2.006  -0.357 -0.06 -0.66    -0.547 OA
DOCKED: ATOM     15  O   UNL d   1     -15.666   0.096  -0.304 -0.32 -1.07    -0.547 OA
DOCKED: ENDBRANCH   1  13
DOCKED: TORSDOF 6
DOCKED: TER
DOCKED: ENDMDL
________________________________________________________________________________


	BEGINNING GENETIC ALGORITHM DOCKING 86 of 100
Run: 86 Seed: 1692656260 2096728063 [ Run 86 of 100 GA/GALS ]
Beginning LAMARCKIAN GENETIC ALGORITHM (LGA), with a maximum of 25000000 energy evaluations.

Final-Value: -8.632


	FINAL GENETIC ALGORITHM DOCKED STATE
	_______________________________________________


Detailed state:  trans -15.352 -0.923 0.912 quatxyzw -0.161241 0.947501 -0.275986 -0.008689 center 0.015 0.083 0.031 ntor 6 -168.4934 -125.4240 -103.4064 17.7139 -11.2727 178.0351
State:	-15.352  -0.923   0.912  -0.161  0.948 -0.276 -179.004   -168.49 -125.42 -103.41   17.71  -11.27  178.04

DOCKED: MODEL       86
DOCKED: USER    Run = 86
DOCKED: USER    DPF = D:/Protein_go_brrr/autodock/final/AncMH_nat/2_3_BPG/dock.dpf
DOCKED: USER  
DOCKED: USER    Estimated Free Energy of Binding    =   -8.97 kcal/mol  [=(1)+(2)+(3)-(4)]
DOCKED: USER    Estimated Inhibition Constant, Ki   =  266.92 nM (nanomolar)  [Temperature = 298.15 K]
DOCKED: USER    
DOCKED: USER    (1) Final Intermolecular Energy     =  -10.76 kcal/mol
DOCKED: USER        vdW + Hbond + desolv Energy     =   -3.07 kcal/mol
DOCKED: USER        Electrostatic Energy            =   -7.69 kcal/mol
DOCKED: USER    (2) Final Total Internal Energy     =   +2.13 kcal/mol
DOCKED: USER    (3) Torsional Free Energy           =   +1.79 kcal/mol
DOCKED: USER    (4) Unbound System's Energy  [=(2)] =   +2.13 kcal/mol
DOCKED: USER    
DOCKED: USER    
DOCKED: USER    NEWDPF move 2_3_BPG_opt.pdbqt
DOCKED: USER    NEWDPF about 0.015000 0.083000 0.031000
DOCKED: USER    NEWDPF tran0 -15.351712 -0.922864 0.911609
DOCKED: USER    NEWDPF quaternion0 -0.161241 0.947501 -0.275986 -0.008689
DOCKED: USER    NEWDPF axisangle0 -0.161247 0.947537 -0.275996 -179.004269
DOCKED: USER    NEWDPF quat0 -0.161247 0.947537 -0.275996 -179.004269
DOCKED: USER    NEWDPF dihe0 -168.49 -125.42 -103.41 17.71 -11.27 178.04 
DOCKED: USER  keepresnum = 1 
DOCKED: USER  
DOCKED: REMARK  6 active torsions:
DOCKED: REMARK  status: ('A' for Active; 'I' for Inactive)
DOCKED: REMARK    1  A    between atoms: P_1  and  O_3 
DOCKED: REMARK    2  A    between atoms: P_2  and  O_4 
DOCKED: REMARK    3  A    between atoms: O_3  and  C_13 
DOCKED: REMARK    4  A    between atoms: O_4  and  C_14 
DOCKED: REMARK    5  A    between atoms: C_13  and  C_14 
DOCKED: REMARK    6  A    between atoms: C_13  and  C_15 
DOCKED: USER                              x       y       z     vdW  Elec       q    Type
DOCKED: USER                           _______ _______ _______ _____ _____    ______ ____
DOCKED: ROOT
DOCKED: ATOM      1  C   UNL d   1     -14.693  -1.038   0.954 -0.18 +0.26    +0.193 C 
DOCKED: ENDROOT
DOCKED: BRANCH   1   2
DOCKED: ATOM      2  O   UNL d   1     -14.005   0.258   1.004 -0.09 -0.66    -0.356 OA
DOCKED: BRANCH   2   3
DOCKED: ATOM      3  P   UNL d   1     -12.996   0.790  -0.181 -0.05 -0.02    -0.014 P 
DOCKED: ATOM      4  O   UNL d   1     -13.799   0.608  -1.479 -0.02 -0.71    -0.577 OA
DOCKED: ATOM      5  O   UNL d   1     -11.758  -0.104  -0.156 -0.03 -0.43    -0.577 OA
DOCKED: ATOM      6  O   UNL d   1     -12.690   2.260   0.086 -0.42 -1.28    -0.638 OA
DOCKED: ENDBRANCH   2   3
DOCKED: ENDBRANCH   1   2
DOCKED: BRANCH   1   7
DOCKED: ATOM      7  C   UNL d   1     -16.235  -0.798   1.147 -0.11 +0.27    +0.201 C 
DOCKED: BRANCH   7   8
DOCKED: ATOM      8  O   UNL d   1     -16.604   0.432   1.809 -0.42 -0.71    -0.364 OA
DOCKED: BRANCH   8   9
DOCKED: ATOM      9  P   UNL d   1     -18.193   0.888   1.887 -0.19 -0.03    -0.015 P 
DOCKED: ATOM     10  O   UNL d   1     -18.796   0.043   3.015 -0.05 -0.85    -0.577 OA
DOCKED: ATOM     11  O   UNL d   1     -18.818   0.560   0.531 -0.01 -0.69    -0.577 OA
DOCKED: ATOM     12  O   UNL d   1     -18.218   2.381   2.212 -0.58 -1.65    -0.638 OA
DOCKED: ENDBRANCH   8   9
DOCKED: ENDBRANCH   7   8
DOCKED: ENDBRANCH   1   7
DOCKED: BRANCH   1  13
DOCKED: ATOM     13  C   UNL d   1     -14.177  -1.967   2.116 -0.24 +0.08    +0.073 C 
DOCKED: ATOM     14  O   UNL d   1     -13.539  -3.034   1.808 -0.66 -0.86    -0.547 OA
DOCKED: ATOM     15  O   UNL d   1     -14.376  -1.561   3.318 -0.03 -0.42    -0.547 OA
DOCKED: ENDBRANCH   1  13
DOCKED: TORSDOF 6
DOCKED: TER
DOCKED: ENDMDL
________________________________________________________________________________


	BEGINNING GENETIC ALGORITHM DOCKING 87 of 100
Run: 87 Seed: 1228848092 1984639863 [ Run 87 of 100 GA/GALS ]
Beginning LAMARCKIAN GENETIC ALGORITHM (LGA), with a maximum of 25000000 energy evaluations.

Final-Value: -8.530


	FINAL GENETIC ALGORITHM DOCKED STATE
	_______________________________________________


Detailed state:  trans -15.906 -0.565 1.814 quatxyzw -0.481150 0.331783 0.049935 0.809890 center 0.015 0.083 0.031 ntor 6 170.3987 -111.7958 178.7070 51.3780 53.7222 171.7661
State:	-15.906  -0.565   1.814  -0.820  0.566  0.085 71.830    170.40 -111.80  178.71   51.38   53.72  171.77

DOCKED: MODEL       87
DOCKED: USER    Run = 87
DOCKED: USER    DPF = D:/Protein_go_brrr/autodock/final/AncMH_nat/2_3_BPG/dock.dpf
DOCKED: USER  
DOCKED: USER    Estimated Free Energy of Binding    =   -9.07 kcal/mol  [=(1)+(2)+(3)-(4)]
DOCKED: USER    Estimated Inhibition Constant, Ki   =  224.19 nM (nanomolar)  [Temperature = 298.15 K]
DOCKED: USER    
DOCKED: USER    (1) Final Intermolecular Energy     =  -10.86 kcal/mol
DOCKED: USER        vdW + Hbond + desolv Energy     =   -2.86 kcal/mol
DOCKED: USER        Electrostatic Energy            =   -8.00 kcal/mol
DOCKED: USER    (2) Final Total Internal Energy     =   +2.33 kcal/mol
DOCKED: USER    (3) Torsional Free Energy           =   +1.79 kcal/mol
DOCKED: USER    (4) Unbound System's Energy  [=(2)] =   +2.33 kcal/mol
DOCKED: USER    
DOCKED: USER    
DOCKED: USER    NEWDPF move 2_3_BPG_opt.pdbqt
DOCKED: USER    NEWDPF about 0.015000 0.083000 0.031000
DOCKED: USER    NEWDPF tran0 -15.905589 -0.564991 1.813726
DOCKED: USER    NEWDPF quaternion0 -0.481150 0.331783 0.049935 0.809890
DOCKED: USER    NEWDPF axisangle0 -0.820259 0.565621 0.085128 71.829681
DOCKED: USER    NEWDPF quat0 -0.820259 0.565621 0.085128 71.829681
DOCKED: USER    NEWDPF dihe0 170.40 -111.80 178.71 51.38 53.72 171.77 
DOCKED: USER  keepresnum = 1 
DOCKED: USER  
DOCKED: REMARK  6 active torsions:
DOCKED: REMARK  status: ('A' for Active; 'I' for Inactive)
DOCKED: REMARK    1  A    between atoms: P_1  and  O_3 
DOCKED: REMARK    2  A    between atoms: P_2  and  O_4 
DOCKED: REMARK    3  A    between atoms: O_3  and  C_13 
DOCKED: REMARK    4  A    between atoms: O_4  and  C_14 
DOCKED: REMARK    5  A    between atoms: C_13  and  C_14 
DOCKED: REMARK    6  A    between atoms: C_13  and  C_15 
DOCKED: USER                              x       y       z     vdW  Elec       q    Type
DOCKED: USER                           _______ _______ _______ _____ _____    ______ ____
DOCKED: ROOT
DOCKED: ATOM      1  C   UNL d   1     -16.340  -0.566   1.303 -0.10 +0.28    +0.193 C 
DOCKED: ENDROOT
DOCKED: BRANCH   1   2
DOCKED: ATOM      2  O   UNL d   1     -16.967   0.759   1.234 -0.44 -0.80    -0.356 OA
DOCKED: BRANCH   2   3
DOCKED: ATOM      3  P   UNL d   1     -18.219   1.216   2.197 -0.07 -0.03    -0.014 P 
DOCKED: ATOM      4  O   UNL d   1     -17.635   1.199   3.618 -0.17 -1.02    -0.577 OA
DOCKED: ATOM      5  O   UNL d   1     -19.322   0.173   2.031 -0.05 -0.82    -0.577 OA
DOCKED: ATOM      6  O   UNL d   1     -18.644   2.621   1.782 -0.59 -1.57    -0.638 OA
DOCKED: ENDBRANCH   2   3
DOCKED: ENDBRANCH   1   2
DOCKED: BRANCH   1   7
DOCKED: ATOM      7  C   UNL d   1     -15.121  -0.496   2.295 -0.16 +0.25    +0.201 C 
DOCKED: BRANCH   7   8
DOCKED: ATOM      8  O   UNL d   1     -14.471   0.789   2.406 -0.12 -0.67    -0.364 OA
DOCKED: BRANCH   8   9
DOCKED: ATOM      9  P   UNL d   1     -12.851   0.929   2.100 -0.31 -0.02    -0.015 P 
DOCKED: ATOM     10  O   UNL d   1     -12.395  -0.484   1.714 -0.02 -0.47    -0.577 OA
DOCKED: ATOM     11  O   UNL d   1     -12.192   1.408   3.393 -0.10 -0.36    -0.577 OA
DOCKED: ATOM     12  O   UNL d   1     -12.693   1.918   0.946 -0.41 -1.29    -0.638 OA
DOCKED: ENDBRANCH   8   9
DOCKED: ENDBRANCH   7   8
DOCKED: ENDBRANCH   1   7
DOCKED: BRANCH   1  13
DOCKED: ATOM     13  C   UNL d   1     -15.809  -0.987  -0.118 -0.17 +0.10    +0.073 C 
DOCKED: ATOM     14  O   UNL d   1     -16.025  -2.183  -0.522 +0.00 -0.74    -0.547 OA
DOCKED: ATOM     15  O   UNL d   1     -15.241  -0.075  -0.821 -0.17 -0.84    -0.547 OA
DOCKED: ENDBRANCH   1  13
DOCKED: TORSDOF 6
DOCKED: TER
DOCKED: ENDMDL
________________________________________________________________________________


	BEGINNING GENETIC ALGORITHM DOCKING 88 of 100
Run: 88 Seed: 1788874536 1134262691 [ Run 88 of 100 GA/GALS ]
Beginning LAMARCKIAN GENETIC ALGORITHM (LGA), with a maximum of 25000000 energy evaluations.

Final-Value: -8.810


	FINAL GENETIC ALGORITHM DOCKED STATE
	_______________________________________________


Detailed state:  trans -15.159 -0.495 1.772 quatxyzw 0.175041 -0.982324 0.051682 -0.041584 center 0.015 0.083 0.031 ntor 6 25.2687 -133.2165 -161.6717 -8.4200 24.7319 -79.6583
State:	-15.159  -0.495   1.772   0.175 -0.983  0.052 -175.233     25.27 -133.22 -161.67   -8.42   24.73  -79.66

DOCKED: MODEL       88
DOCKED: USER    Run = 88
DOCKED: USER    DPF = D:/Protein_go_brrr/autodock/final/AncMH_nat/2_3_BPG/dock.dpf
DOCKED: USER  
DOCKED: USER    Estimated Free Energy of Binding    =   -9.14 kcal/mol  [=(1)+(2)+(3)-(4)]
DOCKED: USER    Estimated Inhibition Constant, Ki   =  200.78 nM (nanomolar)  [Temperature = 298.15 K]
DOCKED: USER    
DOCKED: USER    (1) Final Intermolecular Energy     =  -10.93 kcal/mol
DOCKED: USER        vdW + Hbond + desolv Energy     =   -3.71 kcal/mol
DOCKED: USER        Electrostatic Energy            =   -7.22 kcal/mol
DOCKED: USER    (2) Final Total Internal Energy     =   +2.12 kcal/mol
DOCKED: USER    (3) Torsional Free Energy           =   +1.79 kcal/mol
DOCKED: USER    (4) Unbound System's Energy  [=(2)] =   +2.12 kcal/mol
DOCKED: USER    
DOCKED: USER    
DOCKED: USER    NEWDPF move 2_3_BPG_opt.pdbqt
DOCKED: USER    NEWDPF about 0.015000 0.083000 0.031000
DOCKED: USER    NEWDPF tran0 -15.158545 -0.495435 1.771896
DOCKED: USER    NEWDPF quaternion0 0.175041 -0.982324 0.051682 -0.041584
DOCKED: USER    NEWDPF axisangle0 0.175193 -0.983174 0.051727 -175.233420
DOCKED: USER    NEWDPF quat0 0.175193 -0.983174 0.051727 -175.233420
DOCKED: USER    NEWDPF dihe0 25.27 -133.22 -161.67 -8.42 24.73 -79.66 
DOCKED: USER  keepresnum = 1 
DOCKED: USER  
DOCKED: REMARK  6 active torsions:
DOCKED: REMARK  status: ('A' for Active; 'I' for Inactive)
DOCKED: REMARK    1  A    between atoms: P_1  and  O_3 
DOCKED: REMARK    2  A    between atoms: P_2  and  O_4 
DOCKED: REMARK    3  A    between atoms: O_3  and  C_13 
DOCKED: REMARK    4  A    between atoms: O_4  and  C_14 
DOCKED: REMARK    5  A    between atoms: C_13  and  C_14 
DOCKED: REMARK    6  A    between atoms: C_13  and  C_15 
DOCKED: USER                              x       y       z     vdW  Elec       q    Type
DOCKED: USER                           _______ _______ _______ _____ _____    ______ ____
DOCKED: ROOT
DOCKED: ATOM      1  C   UNL d   1     -14.508  -0.598   1.648 -0.19 +0.26    +0.193 C 
DOCKED: ENDROOT
DOCKED: BRANCH   1   2
DOCKED: ATOM      2  O   UNL d   1     -13.763   0.578   2.112 -0.18 -0.55    -0.356 OA
DOCKED: BRANCH   2   3
DOCKED: ATOM      3  P   UNL d   1     -12.485   1.215   1.297 -0.16 -0.02    -0.014 P 
DOCKED: ATOM      4  O   UNL d   1     -12.921   1.194  -0.177 -0.31 -0.96    -0.577 OA
DOCKED: ATOM      5  O   UNL d   1     -11.289   0.297   1.541 +0.00 -0.35    -0.577 OA
DOCKED: ATOM      6  O   UNL d   1     -12.270   2.640   1.797 -0.40 -0.80    -0.638 OA
DOCKED: ENDBRANCH   2   3
DOCKED: ENDBRANCH   1   2
DOCKED: BRANCH   1   7
DOCKED: ATOM      7  C   UNL d   1     -15.983  -0.506   2.187 -0.13 +0.26    +0.201 C 
DOCKED: BRANCH   7   8
DOCKED: ATOM      8  O   UNL d   1     -16.870   0.365   1.451 -0.53 -0.69    -0.364 OA
DOCKED: BRANCH   8   9
DOCKED: ATOM      9  P   UNL d   1     -18.146   1.088   2.215 -0.12 -0.03    -0.015 P 
DOCKED: ATOM     10  O   UNL d   1     -17.790   1.053   3.706 -0.15 -1.00    -0.577 OA
DOCKED: ATOM     11  O   UNL d   1     -19.385   0.248   1.905 -0.05 -0.82    -0.577 OA
DOCKED: ATOM     12  O   UNL d   1     -18.242   2.516   1.681 -0.58 -1.45    -0.638 OA
DOCKED: ENDBRANCH   8   9
DOCKED: ENDBRANCH   7   8
DOCKED: ENDBRANCH   1   7
DOCKED: BRANCH   1  13
DOCKED: ATOM     13  C   UNL d   1     -13.847  -1.912   2.211 -0.26 +0.07    +0.073 C 
DOCKED: ATOM     14  O   UNL d   1     -14.087  -2.246   3.424 -0.04 -0.39    -0.547 OA
DOCKED: ATOM     15  O   UNL d   1     -13.149  -2.610   1.390 -0.62 -0.75    -0.547 OA
DOCKED: ENDBRANCH   1  13
DOCKED: TORSDOF 6
DOCKED: TER
DOCKED: ENDMDL
________________________________________________________________________________


	BEGINNING GENETIC ALGORITHM DOCKING 89 of 100
Run: 89 Seed: 931174119 672711827 [ Run 89 of 100 GA/GALS ]
Beginning LAMARCKIAN GENETIC ALGORITHM (LGA), with a maximum of 25000000 energy evaluations.

Final-Value: -8.213


	FINAL GENETIC ALGORITHM DOCKED STATE
	_______________________________________________


Detailed state:  trans -18.982 3.892 0.312 quatxyzw -0.699389 -0.434668 0.565138 0.050362 center 0.015 0.083 0.031 ntor 6 -159.0068 44.4737 -27.1657 26.8109 -27.4441 179.5911
State:	-18.982   3.892   0.312  -0.700 -0.435  0.566 174.227   -159.01   44.47  -27.17   26.81  -27.44  179.59

DOCKED: MODEL       89
DOCKED: USER    Run = 89
DOCKED: USER    DPF = D:/Protein_go_brrr/autodock/final/AncMH_nat/2_3_BPG/dock.dpf
DOCKED: USER  
DOCKED: USER    Estimated Free Energy of Binding    =   -8.66 kcal/mol  [=(1)+(2)+(3)-(4)]
DOCKED: USER    Estimated Inhibition Constant, Ki   =  445.49 nM (nanomolar)  [Temperature = 298.15 K]
DOCKED: USER    
DOCKED: USER    (1) Final Intermolecular Energy     =  -10.45 kcal/mol
DOCKED: USER        vdW + Hbond + desolv Energy     =   -2.97 kcal/mol
DOCKED: USER        Electrostatic Energy            =   -7.48 kcal/mol
DOCKED: USER    (2) Final Total Internal Energy     =   +2.24 kcal/mol
DOCKED: USER    (3) Torsional Free Energy           =   +1.79 kcal/mol
DOCKED: USER    (4) Unbound System's Energy  [=(2)] =   +2.24 kcal/mol
DOCKED: USER    
DOCKED: USER    
DOCKED: USER    NEWDPF move 2_3_BPG_opt.pdbqt
DOCKED: USER    NEWDPF about 0.015000 0.083000 0.031000
DOCKED: USER    NEWDPF tran0 -18.982232 3.892060 0.311615
DOCKED: USER    NEWDPF quaternion0 -0.699389 -0.434668 0.565138 0.050362
DOCKED: USER    NEWDPF axisangle0 -0.700278 -0.435221 0.565857 174.226496
DOCKED: USER    NEWDPF quat0 -0.700278 -0.435221 0.565857 174.226496
DOCKED: USER    NEWDPF dihe0 -159.01 44.47 -27.17 26.81 -27.44 179.59 
DOCKED: USER  keepresnum = 1 
DOCKED: USER  
DOCKED: REMARK  6 active torsions:
DOCKED: REMARK  status: ('A' for Active; 'I' for Inactive)
DOCKED: REMARK    1  A    between atoms: P_1  and  O_3 
DOCKED: REMARK    2  A    between atoms: P_2  and  O_4 
DOCKED: REMARK    3  A    between atoms: O_3  and  C_13 
DOCKED: REMARK    4  A    between atoms: O_4  and  C_14 
DOCKED: REMARK    5  A    between atoms: C_13  and  C_14 
DOCKED: REMARK    6  A    between atoms: C_13  and  C_15 
DOCKED: USER                              x       y       z     vdW  Elec       q    Type
DOCKED: USER                           _______ _______ _______ _____ _____    ______ ____
DOCKED: ROOT
DOCKED: ATOM      1  C   UNL d   1     -19.249   3.709   0.899 -0.14 +0.28    +0.193 C 
DOCKED: ENDROOT
DOCKED: BRANCH   1   2
DOCKED: ATOM      2  O   UNL d   1     -18.221   3.000   1.668 -0.55 -0.79    -0.356 OA
DOCKED: BRANCH   2   3
DOCKED: ATOM      3  P   UNL d   1     -18.219   1.369   1.882 -0.07 -0.03    -0.014 P 
DOCKED: ATOM      4  O   UNL d   1     -17.797   1.176   3.347 -0.26 -1.08    -0.577 OA
DOCKED: ATOM      5  O   UNL d   1     -17.186   0.787   0.919 -0.41 -1.24    -0.577 OA
DOCKED: ATOM      6  O   UNL d   1     -19.635   0.860   1.636 -0.13 -1.05    -0.638 OA
DOCKED: ENDBRANCH   2   3
DOCKED: ENDBRANCH   1   2
DOCKED: BRANCH   1   7
DOCKED: ATOM      7  C   UNL d   1     -18.568   4.394  -0.343 -0.09 +0.20    +0.201 C 
DOCKED: BRANCH   7   8
DOCKED: ATOM      8  O   UNL d   1     -17.143   4.610  -0.241 -0.19 -0.56    -0.364 OA
DOCKED: BRANCH   8   9
DOCKED: ATOM      9  P   UNL d   1     -16.224   4.738  -1.610 -0.04 -0.02    -0.015 P 
DOCKED: ATOM     10  O   UNL d   1     -14.998   5.559  -1.192 -0.17 -0.54    -0.577 OA
DOCKED: ATOM     11  O   UNL d   1     -17.072   5.470  -2.650 +0.01 -0.28    -0.577 OA
DOCKED: ATOM     12  O   UNL d   1     -15.847   3.320  -2.036 -0.44 -0.98    -0.638 OA
DOCKED: ENDBRANCH   8   9
DOCKED: ENDBRANCH   7   8
DOCKED: ENDBRANCH   1   7
DOCKED: BRANCH   1  13
DOCKED: ATOM     13  C   UNL d   1     -19.914   4.825   1.788 -0.11 +0.11    +0.073 C 
DOCKED: ATOM     14  O   UNL d   1     -21.094   4.621   2.244 -0.31 -0.98    -0.547 OA
DOCKED: ATOM     15  O   UNL d   1     -19.200   5.858   2.058 -0.06 -0.53    -0.547 OA
DOCKED: ENDBRANCH   1  13
DOCKED: TORSDOF 6
DOCKED: TER
DOCKED: ENDMDL
________________________________________________________________________________


	BEGINNING GENETIC ALGORITHM DOCKING 90 of 100
Run: 90 Seed: 1736282529 658863081 [ Run 90 of 100 GA/GALS ]
Beginning LAMARCKIAN GENETIC ALGORITHM (LGA), with a maximum of 25000000 energy evaluations.

Final-Value: -8.919


	FINAL GENETIC ALGORITHM DOCKED STATE
	_______________________________________________


Detailed state:  trans -15.167 -0.698 1.971 quatxyzw -0.055296 -0.948979 0.193389 -0.242861 center 0.015 0.083 0.031 ntor 6 71.5994 73.2500 -137.9909 46.8102 -13.8272 -59.4545
State:	-15.167  -0.698   1.971  -0.057 -0.978  0.199 -151.889     71.60   73.25 -137.99   46.81  -13.83  -59.45

DOCKED: MODEL       90
DOCKED: USER    Run = 90
DOCKED: USER    DPF = D:/Protein_go_brrr/autodock/final/AncMH_nat/2_3_BPG/dock.dpf
DOCKED: USER  
DOCKED: USER    Estimated Free Energy of Binding    =   -9.22 kcal/mol  [=(1)+(2)+(3)-(4)]
DOCKED: USER    Estimated Inhibition Constant, Ki   =  175.03 nM (nanomolar)  [Temperature = 298.15 K]
DOCKED: USER    
DOCKED: USER    (1) Final Intermolecular Energy     =  -11.01 kcal/mol
DOCKED: USER        vdW + Hbond + desolv Energy     =   -3.29 kcal/mol
DOCKED: USER        Electrostatic Energy            =   -7.72 kcal/mol
DOCKED: USER    (2) Final Total Internal Energy     =   +2.09 kcal/mol
DOCKED: USER    (3) Torsional Free Energy           =   +1.79 kcal/mol
DOCKED: USER    (4) Unbound System's Energy  [=(2)] =   +2.09 kcal/mol
DOCKED: USER    
DOCKED: USER    
DOCKED: USER    NEWDPF move 2_3_BPG_opt.pdbqt
DOCKED: USER    NEWDPF about 0.015000 0.083000 0.031000
DOCKED: USER    NEWDPF tran0 -15.167181 -0.698153 1.971334
DOCKED: USER    NEWDPF quaternion0 -0.055296 -0.948979 0.193389 -0.242861
DOCKED: USER    NEWDPF axisangle0 -0.057003 -0.978268 0.199357 -151.889137
DOCKED: USER    NEWDPF quat0 -0.057003 -0.978268 0.199357 -151.889137
DOCKED: USER    NEWDPF dihe0 71.60 73.25 -137.99 46.81 -13.83 -59.45 
DOCKED: USER  keepresnum = 1 
DOCKED: USER  
DOCKED: REMARK  6 active torsions:
DOCKED: REMARK  status: ('A' for Active; 'I' for Inactive)
DOCKED: REMARK    1  A    between atoms: P_1  and  O_3 
DOCKED: REMARK    2  A    between atoms: P_2  and  O_4 
DOCKED: REMARK    3  A    between atoms: O_3  and  C_13 
DOCKED: REMARK    4  A    between atoms: O_4  and  C_14 
DOCKED: REMARK    5  A    between atoms: C_13  and  C_14 
DOCKED: REMARK    6  A    between atoms: C_13  and  C_15 
DOCKED: USER                              x       y       z     vdW  Elec       q    Type
DOCKED: USER                           _______ _______ _______ _____ _____    ______ ____
DOCKED: ROOT
DOCKED: ATOM      1  C   UNL d   1     -14.702  -1.133   1.762 -0.19 +0.23    +0.193 C 
DOCKED: ENDROOT
DOCKED: BRANCH   1   2
DOCKED: ATOM      2  O   UNL d   1     -13.464  -0.390   1.505 -0.13 -0.42    -0.356 OA
DOCKED: BRANCH   2   3
DOCKED: ATOM      3  P   UNL d   1     -13.142   0.364   0.079 -0.23 -0.02    -0.014 P 
DOCKED: ATOM      4  O   UNL d   1     -12.004  -0.460  -0.542 +0.00 -0.46    -0.577 OA
DOCKED: ATOM      5  O   UNL d   1     -12.690   1.785   0.410 -0.46 -1.12    -0.577 OA
DOCKED: ATOM      6  O   UNL d   1     -14.404   0.311  -0.777 -0.02 -1.05    -0.638 OA
DOCKED: ENDBRANCH   2   3
DOCKED: ENDBRANCH   1   2
DOCKED: BRANCH   1   7
DOCKED: ATOM      7  C   UNL d   1     -15.707  -0.193   2.524 -0.14 +0.27    +0.201 C 
DOCKED: BRANCH   7   8
DOCKED: ATOM      8  O   UNL d   1     -16.735   0.419   1.715 -0.45 -0.70    -0.364 OA
DOCKED: BRANCH   8   9
DOCKED: ATOM      9  P   UNL d   1     -17.999   1.207   2.436 -0.02 -0.03    -0.015 P 
DOCKED: ATOM     10  O   UNL d   1     -17.361   2.051   3.546 -0.16 -1.15    -0.577 OA
DOCKED: ATOM     11  O   UNL d   1     -18.931   0.134   2.998 -0.05 -0.90    -0.577 OA
DOCKED: ATOM     12  O   UNL d   1     -18.660   2.073   1.365 -0.60 -1.28    -0.638 OA
DOCKED: ENDBRANCH   8   9
DOCKED: ENDBRANCH   7   8
DOCKED: ENDBRANCH   1   7
DOCKED: BRANCH   1  13
DOCKED: ATOM     13  C   UNL d   1     -14.402  -2.387   2.664 -0.23 +0.07    +0.073 C 
DOCKED: ATOM     14  O   UNL d   1     -15.062  -2.530   3.752 +0.01 -0.37    -0.547 OA
DOCKED: ATOM     15  O   UNL d   1     -13.546  -3.235   2.218 -0.64 -0.78    -0.547 OA
DOCKED: ENDBRANCH   1  13
DOCKED: TORSDOF 6
DOCKED: TER
DOCKED: ENDMDL
________________________________________________________________________________


	BEGINNING GENETIC ALGORITHM DOCKING 91 of 100
Run: 91 Seed: 196967220 1684022902 [ Run 91 of 100 GA/GALS ]
Beginning LAMARCKIAN GENETIC ALGORITHM (LGA), with a maximum of 25000000 energy evaluations.

Final-Value: -8.492


	FINAL GENETIC ALGORITHM DOCKED STATE
	_______________________________________________


Detailed state:  trans -14.808 -0.848 0.716 quatxyzw 0.170260 -0.934099 0.292086 0.114698 center 0.015 0.083 0.031 ntor 6 -12.9317 -113.5568 -116.5959 32.0634 -29.4531 161.9871
State:	-14.808  -0.848   0.716   0.171 -0.940  0.294 166.828    -12.93 -113.56 -116.60   32.06  -29.45  161.99

DOCKED: MODEL       91
DOCKED: USER    Run = 91
DOCKED: USER    DPF = D:/Protein_go_brrr/autodock/final/AncMH_nat/2_3_BPG/dock.dpf
DOCKED: USER  
DOCKED: USER    Estimated Free Energy of Binding    =   -8.91 kcal/mol  [=(1)+(2)+(3)-(4)]
DOCKED: USER    Estimated Inhibition Constant, Ki   =  294.76 nM (nanomolar)  [Temperature = 298.15 K]
DOCKED: USER    
DOCKED: USER    (1) Final Intermolecular Energy     =  -10.70 kcal/mol
DOCKED: USER        vdW + Hbond + desolv Energy     =   -3.32 kcal/mol
DOCKED: USER        Electrostatic Energy            =   -7.38 kcal/mol
DOCKED: USER    (2) Final Total Internal Energy     =   +2.21 kcal/mol
DOCKED: USER    (3) Torsional Free Energy           =   +1.79 kcal/mol
DOCKED: USER    (4) Unbound System's Energy  [=(2)] =   +2.21 kcal/mol
DOCKED: USER    
DOCKED: USER    
DOCKED: USER    NEWDPF move 2_3_BPG_opt.pdbqt
DOCKED: USER    NEWDPF about 0.015000 0.083000 0.031000
DOCKED: USER    NEWDPF tran0 -14.808110 -0.847879 0.715801
DOCKED: USER    NEWDPF quaternion0 0.170260 -0.934099 0.292086 0.114698
DOCKED: USER    NEWDPF axisangle0 0.171392 -0.940305 0.294027 166.827589
DOCKED: USER    NEWDPF quat0 0.171392 -0.940305 0.294027 166.827589
DOCKED: USER    NEWDPF dihe0 -12.93 -113.56 -116.60 32.06 -29.45 161.99 
DOCKED: USER  keepresnum = 1 
DOCKED: USER  
DOCKED: REMARK  6 active torsions:
DOCKED: REMARK  status: ('A' for Active; 'I' for Inactive)
DOCKED: REMARK    1  A    between atoms: P_1  and  O_3 
DOCKED: REMARK    2  A    between atoms: P_2  and  O_4 
DOCKED: REMARK    3  A    between atoms: O_3  and  C_13 
DOCKED: REMARK    4  A    between atoms: O_4  and  C_14 
DOCKED: REMARK    5  A    between atoms: C_13  and  C_14 
DOCKED: REMARK    6  A    between atoms: C_13  and  C_15 
DOCKED: USER                              x       y       z     vdW  Elec       q    Type
DOCKED: USER                           _______ _______ _______ _____ _____    ______ ____
DOCKED: ROOT
DOCKED: ATOM      1  C   UNL d   1     -14.164  -0.910   0.891 -0.19 +0.25    +0.193 C 
DOCKED: ENDROOT
DOCKED: BRANCH   1   2
DOCKED: ATOM      2  O   UNL d   1     -13.605   0.436   1.061 -0.16 -0.63    -0.356 OA
DOCKED: BRANCH   2   3
DOCKED: ATOM      3  P   UNL d   1     -12.687   1.183  -0.081 +0.01 -0.02    -0.014 P 
DOCKED: ATOM      4  O   UNL d   1     -13.623   1.326  -1.291 -0.03 -0.87    -0.577 OA
DOCKED: ATOM      5  O   UNL d   1     -11.508   0.262  -0.388 -0.03 -0.39    -0.577 OA
DOCKED: ATOM      6  O   UNL d   1     -12.268   2.543   0.468 -0.55 -0.95    -0.638 OA
DOCKED: ENDBRANCH   2   3
DOCKED: ENDBRANCH   1   2
DOCKED: BRANCH   1   7
DOCKED: ATOM      7  C   UNL d   1     -15.728  -0.795   0.769 -0.12 +0.29    +0.201 C 
DOCKED: BRANCH   7   8
DOCKED: ATOM      8  O   UNL d   1     -16.356   0.188   1.621 -0.46 -0.69    -0.364 OA
DOCKED: BRANCH   8   9
DOCKED: ATOM      9  P   UNL d   1     -17.796   0.873   1.177 -0.10 -0.03    -0.015 P 
DOCKED: ATOM     10  O   UNL d   1     -18.808  -0.279   1.200 +0.02 -0.63    -0.577 OA
DOCKED: ATOM     11  O   UNL d   1     -17.605   1.438  -0.230 -0.16 -1.03    -0.577 OA
DOCKED: ATOM     12  O   UNL d   1     -18.123   1.946   2.214 -0.57 -1.53    -0.638 OA
DOCKED: ENDBRANCH   8   9
DOCKED: ENDBRANCH   7   8
DOCKED: ENDBRANCH   1   7
DOCKED: BRANCH   1  13
DOCKED: ATOM     13  C   UNL d   1     -13.820  -1.800   2.143 -0.26 +0.07    +0.073 C 
DOCKED: ATOM     14  O   UNL d   1     -13.895  -1.271   3.308 -0.04 -0.40    -0.547 OA
DOCKED: ATOM     15  O   UNL d   1     -13.544  -3.034   1.923 -0.67 -0.82    -0.547 OA
DOCKED: ENDBRANCH   1  13
DOCKED: TORSDOF 6
DOCKED: TER
DOCKED: ENDMDL
________________________________________________________________________________


	BEGINNING GENETIC ALGORITHM DOCKING 92 of 100
Run: 92 Seed: 707027928 429468924 [ Run 92 of 100 GA/GALS ]
Beginning LAMARCKIAN GENETIC ALGORITHM (LGA), with a maximum of 25000000 energy evaluations.

Final-Value: -9.042


	FINAL GENETIC ALGORITHM DOCKED STATE
	_______________________________________________


Detailed state:  trans -14.901 -0.546 1.914 quatxyzw -0.033684 0.971058 -0.145255 0.186582 center 0.015 0.083 0.031 ntor 6 48.1611 -151.0286 -168.2875 29.4135 -12.7569 -61.3242
State:	-14.901  -0.546   1.914  -0.034  0.988 -0.148 158.493     48.16 -151.03 -168.29   29.41  -12.76  -61.32

DOCKED: MODEL       92
DOCKED: USER    Run = 92
DOCKED: USER    DPF = D:/Protein_go_brrr/autodock/final/AncMH_nat/2_3_BPG/dock.dpf
DOCKED: USER  
DOCKED: USER    Estimated Free Energy of Binding    =   -9.27 kcal/mol  [=(1)+(2)+(3)-(4)]
DOCKED: USER    Estimated Inhibition Constant, Ki   =  161.61 nM (nanomolar)  [Temperature = 298.15 K]
DOCKED: USER    
DOCKED: USER    (1) Final Intermolecular Energy     =  -11.06 kcal/mol
DOCKED: USER        vdW + Hbond + desolv Energy     =   -3.73 kcal/mol
DOCKED: USER        Electrostatic Energy            =   -7.32 kcal/mol
DOCKED: USER    (2) Final Total Internal Energy     =   +2.01 kcal/mol
DOCKED: USER    (3) Torsional Free Energy           =   +1.79 kcal/mol
DOCKED: USER    (4) Unbound System's Energy  [=(2)] =   +2.01 kcal/mol
DOCKED: USER    
DOCKED: USER    
DOCKED: USER    NEWDPF move 2_3_BPG_opt.pdbqt
DOCKED: USER    NEWDPF about 0.015000 0.083000 0.031000
DOCKED: USER    NEWDPF tran0 -14.901280 -0.545905 1.914273
DOCKED: USER    NEWDPF quaternion0 -0.033684 0.971058 -0.145255 0.186582
DOCKED: USER    NEWDPF axisangle0 -0.034286 0.988415 -0.147852 158.493236
DOCKED: USER    NEWDPF quat0 -0.034286 0.988415 -0.147852 158.493236
DOCKED: USER    NEWDPF dihe0 48.16 -151.03 -168.29 29.41 -12.76 -61.32 
DOCKED: USER  keepresnum = 1 
DOCKED: USER  
DOCKED: REMARK  6 active torsions:
DOCKED: REMARK  status: ('A' for Active; 'I' for Inactive)
DOCKED: REMARK    1  A    between atoms: P_1  and  O_3 
DOCKED: REMARK    2  A    between atoms: P_2  and  O_4 
DOCKED: REMARK    3  A    between atoms: O_3  and  C_13 
DOCKED: REMARK    4  A    between atoms: O_4  and  C_14 
DOCKED: REMARK    5  A    between atoms: C_13  and  C_14 
DOCKED: REMARK    6  A    between atoms: C_13  and  C_15 
DOCKED: USER                              x       y       z     vdW  Elec       q    Type
DOCKED: USER                           _______ _______ _______ _____ _____    ______ ____
DOCKED: ROOT
DOCKED: ATOM      1  C   UNL d   1     -14.353  -0.865   1.698 -0.20 +0.23    +0.193 C 
DOCKED: ENDROOT
DOCKED: BRANCH   1   2
DOCKED: ATOM      2  O   UNL d   1     -13.247   0.099   1.663 -0.16 -0.44    -0.356 OA
DOCKED: BRANCH   2   3
DOCKED: ATOM      3  P   UNL d   1     -12.693   0.788   0.276 -0.22 -0.02    -0.014 P 
DOCKED: ATOM      4  O   UNL d   1     -13.890   0.729  -0.685 +0.00 -1.02    -0.577 OA
DOCKED: ATOM      5  O   UNL d   1     -11.531  -0.069  -0.221 -0.03 -0.39    -0.577 OA
DOCKED: ATOM      6  O   UNL d   1     -12.297   2.226   0.590 -0.55 -0.98    -0.638 OA
DOCKED: ENDBRANCH   2   3
DOCKED: ENDBRANCH   1   2
DOCKED: BRANCH   1   7
DOCKED: ATOM      7  C   UNL d   1     -15.561  -0.219   2.471 -0.14 +0.27    +0.201 C 
DOCKED: BRANCH   7   8
DOCKED: ATOM      8  O   UNL d   1     -16.596   0.364   1.649 -0.48 -0.71    -0.364 OA
DOCKED: BRANCH   8   9
DOCKED: ATOM      9  P   UNL d   1     -18.021   0.855   2.333 -0.19 -0.03    -0.015 P 
DOCKED: ATOM     10  O   UNL d   1     -17.753   0.872   3.842 -0.11 -0.92    -0.577 OA
DOCKED: ATOM     11  O   UNL d   1     -19.078  -0.181   1.952 -0.01 -0.70    -0.577 OA
DOCKED: ATOM     12  O   UNL d   1     -18.326   2.250   1.788 -0.63 -1.48    -0.638 OA
DOCKED: ENDBRANCH   8   9
DOCKED: ENDBRANCH   7   8
DOCKED: ENDBRANCH   1   7
DOCKED: BRANCH   1  13
DOCKED: ATOM     13  C   UNL d   1     -13.908  -2.170   2.457 -0.25 +0.07    +0.073 C 
DOCKED: ATOM     14  O   UNL d   1     -14.293  -2.334   3.668 -0.03 -0.37    -0.547 OA
DOCKED: ATOM     15  O   UNL d   1     -13.230  -3.031   1.788 -0.74 -0.84    -0.547 OA
DOCKED: ENDBRANCH   1  13
DOCKED: TORSDOF 6
DOCKED: TER
DOCKED: ENDMDL
________________________________________________________________________________


	BEGINNING GENETIC ALGORITHM DOCKING 93 of 100
Run: 93 Seed: 1684811252 946259005 [ Run 93 of 100 GA/GALS ]
Beginning LAMARCKIAN GENETIC ALGORITHM (LGA), with a maximum of 25000000 energy evaluations.

Final-Value: -8.285


	FINAL GENETIC ALGORITHM DOCKED STATE
	_______________________________________________


Detailed state:  trans -16.036 -0.838 1.675 quatxyzw -0.411158 0.266342 0.161300 0.856734 center 0.015 0.083 0.031 ntor 6 163.8544 -98.1140 119.9904 33.3652 50.6288 -161.0189
State:	-16.036  -0.838   1.675  -0.797  0.516  0.313 62.096    163.85  -98.11  119.99   33.37   50.63 -161.02

DOCKED: MODEL       93
DOCKED: USER    Run = 93
DOCKED: USER    DPF = D:/Protein_go_brrr/autodock/final/AncMH_nat/2_3_BPG/dock.dpf
DOCKED: USER  
DOCKED: USER    Estimated Free Energy of Binding    =   -8.83 kcal/mol  [=(1)+(2)+(3)-(4)]
DOCKED: USER    Estimated Inhibition Constant, Ki   =  338.70 nM (nanomolar)  [Temperature = 298.15 K]
DOCKED: USER    
DOCKED: USER    (1) Final Intermolecular Energy     =  -10.62 kcal/mol
DOCKED: USER        vdW + Hbond + desolv Energy     =   -2.86 kcal/mol
DOCKED: USER        Electrostatic Energy            =   -7.76 kcal/mol
DOCKED: USER    (2) Final Total Internal Energy     =   +2.33 kcal/mol
DOCKED: USER    (3) Torsional Free Energy           =   +1.79 kcal/mol
DOCKED: USER    (4) Unbound System's Energy  [=(2)] =   +2.33 kcal/mol
DOCKED: USER    
DOCKED: USER    
DOCKED: USER    NEWDPF move 2_3_BPG_opt.pdbqt
DOCKED: USER    NEWDPF about 0.015000 0.083000 0.031000
DOCKED: USER    NEWDPF tran0 -16.036143 -0.838498 1.674945
DOCKED: USER    NEWDPF quaternion0 -0.411158 0.266342 0.161300 0.856734
DOCKED: USER    NEWDPF axisangle0 -0.797191 0.516409 0.312743 62.096311
DOCKED: USER    NEWDPF quat0 -0.797191 0.516409 0.312743 62.096311
DOCKED: USER    NEWDPF dihe0 163.85 -98.11 119.99 33.37 50.63 -161.02 
DOCKED: USER  keepresnum = 1 
DOCKED: USER  
DOCKED: REMARK  6 active torsions:
DOCKED: REMARK  status: ('A' for Active; 'I' for Inactive)
DOCKED: REMARK    1  A    between atoms: P_1  and  O_3 
DOCKED: REMARK    2  A    between atoms: P_2  and  O_4 
DOCKED: REMARK    3  A    between atoms: O_3  and  C_13 
DOCKED: REMARK    4  A    between atoms: O_4  and  C_14 
DOCKED: REMARK    5  A    between atoms: C_13  and  C_14 
DOCKED: REMARK    6  A    between atoms: C_13  and  C_15 
DOCKED: USER                              x       y       z     vdW  Elec       q    Type
DOCKED: USER                           _______ _______ _______ _____ _____    ______ ____
DOCKED: ROOT
DOCKED: ATOM      1  C   UNL d   1     -16.581  -0.796   1.287 -0.10 +0.25    +0.193 C 
DOCKED: ENDROOT
DOCKED: BRANCH   1   2
DOCKED: ATOM      2  O   UNL d   1     -17.003   0.609   1.243 -0.48 -0.74    -0.356 OA
DOCKED: BRANCH   2   3
DOCKED: ATOM      3  P   UNL d   1     -18.215   1.216   2.174 -0.08 -0.03    -0.014 P 
DOCKED: ATOM      4  O   UNL d   1     -17.579   1.397   3.561 -0.18 -1.07    -0.577 OA
DOCKED: ATOM      5  O   UNL d   1     -19.332   0.175   2.199 -0.06 -0.85    -0.577 OA
DOCKED: ATOM      6  O   UNL d   1     -18.643   2.553   1.577 -0.60 -1.44    -0.638 OA
DOCKED: ENDBRANCH   2   3
DOCKED: ENDBRANCH   1   2
DOCKED: BRANCH   1   7
DOCKED: ATOM      7  C   UNL d   1     -15.154  -0.874   1.943 -0.17 +0.25    +0.201 C 
DOCKED: BRANCH   7   8
DOCKED: ATOM      8  O   UNL d   1     -14.562   0.389   2.318 -0.16 -0.59    -0.364 OA
DOCKED: BRANCH   8   9
DOCKED: ATOM      9  P   UNL d   1     -13.051   0.791   1.777 -0.22 -0.02    -0.015 P 
DOCKED: ATOM     10  O   UNL d   1     -12.137  -0.336   2.273 -0.01 -0.40    -0.577 OA
DOCKED: ATOM     11  O   UNL d   1     -12.694   2.136   2.409 -0.34 -0.76    -0.577 OA
DOCKED: ATOM     12  O   UNL d   1     -13.119   0.846   0.251 -0.24 -1.10    -0.638 OA
DOCKED: ENDBRANCH   8   9
DOCKED: ENDBRANCH   7   8
DOCKED: ENDBRANCH   1   7
DOCKED: BRANCH   1  13
DOCKED: ATOM     13  C   UNL d   1     -16.498  -1.380  -0.173 -0.14 +0.09    +0.073 C 
DOCKED: ATOM     14  O   UNL d   1     -16.866  -2.591  -0.368 -0.02 -0.67    -0.547 OA
DOCKED: ATOM     15  O   UNL d   1     -16.121  -0.577  -1.101 -0.07 -0.65    -0.547 OA
DOCKED: ENDBRANCH   1  13
DOCKED: TORSDOF 6
DOCKED: TER
DOCKED: ENDMDL
________________________________________________________________________________


	BEGINNING GENETIC ALGORITHM DOCKING 94 of 100
Run: 94 Seed: 846382745 534003820 [ Run 94 of 100 GA/GALS ]
Beginning LAMARCKIAN GENETIC ALGORITHM (LGA), with a maximum of 25000000 energy evaluations.

Final-Value: -8.493


	FINAL GENETIC ALGORITHM DOCKED STATE
	_______________________________________________


Detailed state:  trans -15.869 -0.550 1.827 quatxyzw 0.495410 -0.322924 -0.057420 -0.804358 center 0.015 0.083 0.031 ntor 6 151.4593 10.7492 172.4825 49.0311 60.0128 165.1228
State:	-15.869  -0.550   1.827   0.834 -0.544 -0.097 -72.903    151.46   10.75  172.48   49.03   60.01  165.12

DOCKED: MODEL       94
DOCKED: USER    Run = 94
DOCKED: USER    DPF = D:/Protein_go_brrr/autodock/final/AncMH_nat/2_3_BPG/dock.dpf
DOCKED: USER  
DOCKED: USER    Estimated Free Energy of Binding    =   -9.00 kcal/mol  [=(1)+(2)+(3)-(4)]
DOCKED: USER    Estimated Inhibition Constant, Ki   =  254.94 nM (nanomolar)  [Temperature = 298.15 K]
DOCKED: USER    
DOCKED: USER    (1) Final Intermolecular Energy     =  -10.78 kcal/mol
DOCKED: USER        vdW + Hbond + desolv Energy     =   -2.85 kcal/mol
DOCKED: USER        Electrostatic Energy            =   -7.93 kcal/mol
DOCKED: USER    (2) Final Total Internal Energy     =   +2.29 kcal/mol
DOCKED: USER    (3) Torsional Free Energy           =   +1.79 kcal/mol
DOCKED: USER    (4) Unbound System's Energy  [=(2)] =   +2.29 kcal/mol
DOCKED: USER    
DOCKED: USER    
DOCKED: USER    NEWDPF move 2_3_BPG_opt.pdbqt
DOCKED: USER    NEWDPF about 0.015000 0.083000 0.031000
DOCKED: USER    NEWDPF tran0 -15.868529 -0.549789 1.827023
DOCKED: USER    NEWDPF quaternion0 0.495410 -0.322924 -0.057420 -0.804358
DOCKED: USER    NEWDPF axisangle0 0.833821 -0.543510 -0.096643 -72.903358
DOCKED: USER    NEWDPF quat0 0.833821 -0.543510 -0.096643 -72.903358
DOCKED: USER    NEWDPF dihe0 151.46 10.75 172.48 49.03 60.01 165.12 
DOCKED: USER  keepresnum = 1 
DOCKED: USER  
DOCKED: REMARK  6 active torsions:
DOCKED: REMARK  status: ('A' for Active; 'I' for Inactive)
DOCKED: REMARK    1  A    between atoms: P_1  and  O_3 
DOCKED: REMARK    2  A    between atoms: P_2  and  O_4 
DOCKED: REMARK    3  A    between atoms: O_3  and  C_13 
DOCKED: REMARK    4  A    between atoms: O_4  and  C_14 
DOCKED: REMARK    5  A    between atoms: C_13  and  C_14 
DOCKED: REMARK    6  A    between atoms: C_13  and  C_15 
DOCKED: USER                              x       y       z     vdW  Elec       q    Type
DOCKED: USER                           _______ _______ _______ _____ _____    ______ ____
DOCKED: ROOT
DOCKED: ATOM      1  C   UNL d   1     -16.311  -0.536   1.324 -0.10 +0.28    +0.193 C 
DOCKED: ENDROOT
DOCKED: BRANCH   1   2
DOCKED: ATOM      2  O   UNL d   1     -16.946   0.787   1.310 -0.42 -0.81    -0.356 OA
DOCKED: BRANCH   2   3
DOCKED: ATOM      3  P   UNL d   1     -18.221   1.186   2.270 -0.02 -0.03    -0.014 P 
DOCKED: ATOM      4  O   UNL d   1     -18.640   2.584   1.787 -0.61 -1.42    -0.577 OA
DOCKED: ATOM      5  O   UNL d   1     -17.711   1.218   3.709 -0.15 -1.03    -0.577 OA
DOCKED: ATOM      6  O   UNL d   1     -19.324   0.159   2.038 -0.04 -0.90    -0.638 OA
DOCKED: ENDBRANCH   2   3
DOCKED: ENDBRANCH   1   2
DOCKED: BRANCH   1   7
DOCKED: ATOM      7  C   UNL d   1     -15.077  -0.493   2.298 -0.16 +0.25    +0.201 C 
DOCKED: BRANCH   7   8
DOCKED: ATOM      8  O   UNL d   1     -14.340   0.750   2.329 -0.12 -0.66    -0.364 OA
DOCKED: BRANCH   8   9
DOCKED: ATOM      9  P   UNL d   1     -12.758   0.789   1.849 -0.35 -0.02    -0.015 P 
DOCKED: ATOM     10  O   UNL d   1     -12.387  -0.674   1.577 -0.03 -0.48    -0.577 OA
DOCKED: ATOM     11  O   UNL d   1     -11.954   1.375   3.009 -0.09 -0.38    -0.577 OA
DOCKED: ATOM     12  O   UNL d   1     -12.692   1.642   0.583 -0.47 -1.20    -0.638 OA
DOCKED: ENDBRANCH   8   9
DOCKED: ENDBRANCH   7   8
DOCKED: ENDBRANCH   1   7
DOCKED: BRANCH   1  13
DOCKED: ATOM     13  C   UNL d   1     -15.802  -0.904  -0.120 -0.16 +0.10    +0.073 C 
DOCKED: ATOM     14  O   UNL d   1     -15.677  -2.142  -0.426 +0.07 -0.78    -0.547 OA
DOCKED: ATOM     15  O   UNL d   1     -15.601   0.069  -0.933 -0.19 -0.85    -0.547 OA
DOCKED: ENDBRANCH   1  13
DOCKED: TORSDOF 6
DOCKED: TER
DOCKED: ENDMDL
________________________________________________________________________________


	BEGINNING GENETIC ALGORITHM DOCKING 95 of 100
Run: 95 Seed: 1366607178 390511245 [ Run 95 of 100 GA/GALS ]
Beginning LAMARCKIAN GENETIC ALGORITHM (LGA), with a maximum of 25000000 energy evaluations.

Final-Value: -8.272


	FINAL GENETIC ALGORITHM DOCKED STATE
	_______________________________________________


Detailed state:  trans -17.968 -0.342 2.080 quatxyzw -0.882014 0.133543 0.259895 0.369691 center 0.015 0.083 0.031 ntor 6 -56.9969 -34.8031 -111.4409 36.4943 40.9741 93.5884
State:	-17.968  -0.342   2.080  -0.949  0.144  0.280 136.607    -57.00  -34.80 -111.44   36.49   40.97   93.59

DOCKED: MODEL       95
DOCKED: USER    Run = 95
DOCKED: USER    DPF = D:/Protein_go_brrr/autodock/final/AncMH_nat/2_3_BPG/dock.dpf
DOCKED: USER  
DOCKED: USER    Estimated Free Energy of Binding    =   -8.75 kcal/mol  [=(1)+(2)+(3)-(4)]
DOCKED: USER    Estimated Inhibition Constant, Ki   =  384.22 nM (nanomolar)  [Temperature = 298.15 K]
DOCKED: USER    
DOCKED: USER    (1) Final Intermolecular Energy     =  -10.54 kcal/mol
DOCKED: USER        vdW + Hbond + desolv Energy     =   -2.63 kcal/mol
DOCKED: USER        Electrostatic Energy            =   -7.91 kcal/mol
DOCKED: USER    (2) Final Total Internal Energy     =   +2.27 kcal/mol
DOCKED: USER    (3) Torsional Free Energy           =   +1.79 kcal/mol
DOCKED: USER    (4) Unbound System's Energy  [=(2)] =   +2.27 kcal/mol
DOCKED: USER    
DOCKED: USER    
DOCKED: USER    NEWDPF move 2_3_BPG_opt.pdbqt
DOCKED: USER    NEWDPF about 0.015000 0.083000 0.031000
DOCKED: USER    NEWDPF tran0 -17.967756 -0.342026 2.080117
DOCKED: USER    NEWDPF quaternion0 -0.882014 0.133543 0.259895 0.369691
DOCKED: USER    NEWDPF axisangle0 -0.949265 0.143726 0.279711 136.606874
DOCKED: USER    NEWDPF quat0 -0.949265 0.143726 0.279711 136.606874
DOCKED: USER    NEWDPF dihe0 -57.00 -34.80 -111.44 36.49 40.97 93.59 
DOCKED: USER  keepresnum = 1 
DOCKED: USER  
DOCKED: REMARK  6 active torsions:
DOCKED: REMARK  status: ('A' for Active; 'I' for Inactive)
DOCKED: REMARK    1  A    between atoms: P_1  and  O_3 
DOCKED: REMARK    2  A    between atoms: P_2  and  O_4 
DOCKED: REMARK    3  A    between atoms: O_3  and  C_13 
DOCKED: REMARK    4  A    between atoms: O_4  and  C_14 
DOCKED: REMARK    5  A    between atoms: C_13  and  C_14 
DOCKED: REMARK    6  A    between atoms: C_13  and  C_15 
DOCKED: USER                              x       y       z     vdW  Elec       q    Type
DOCKED: USER                           _______ _______ _______ _____ _____    ______ ____
DOCKED: ROOT
DOCKED: ATOM      1  C   UNL d   1     -18.492   0.070   2.011 -0.10 +0.26    +0.193 C 
DOCKED: ENDROOT
DOCKED: BRANCH   1   2
DOCKED: ATOM      2  O   UNL d   1     -19.039   0.342   3.345 -0.07 -0.64    -0.356 OA
DOCKED: BRANCH   2   3
DOCKED: ATOM      3  P   UNL d   1     -20.306  -0.486   3.987 -0.05 -0.02    -0.014 P 
DOCKED: ATOM      4  O   UNL d   1     -19.939  -0.657   5.470 -0.02 -0.53    -0.577 OA
DOCKED: ATOM      5  O   UNL d   1     -20.378  -1.831   3.268 +0.02 -0.40    -0.577 OA
DOCKED: ATOM      6  O   UNL d   1     -21.560   0.364   3.816 -0.47 -1.26    -0.638 OA
DOCKED: ENDBRANCH   2   3
DOCKED: ENDBRANCH   1   2
DOCKED: BRANCH   1   7
DOCKED: ATOM      7  C   UNL d   1     -17.102  -0.649   2.172 -0.10 +0.23    +0.201 C 
DOCKED: BRANCH   7   8
DOCKED: ATOM      8  O   UNL d   1     -15.939   0.152   1.869 -0.36 -0.67    -0.364 OA
DOCKED: BRANCH   8   9
DOCKED: ATOM      9  P   UNL d   1     -14.705  -0.484   0.968 -0.24 -0.02    -0.015 P 
DOCKED: ATOM     10  O   UNL d   1     -15.269  -0.603  -0.452 -0.14 -0.82    -0.577 OA
DOCKED: ATOM     11  O   UNL d   1     -14.374  -1.850   1.568 -0.08 -0.68    -0.577 OA
DOCKED: ATOM     12  O   UNL d   1     -13.539   0.501   1.042 -0.05 -1.14    -0.638 OA
DOCKED: ENDBRANCH   8   9
DOCKED: ENDBRANCH   7   8
DOCKED: ENDBRANCH   1   7
DOCKED: BRANCH   1  13
DOCKED: ATOM     13  C   UNL d   1     -18.274   1.420   1.231 -0.14 +0.13    +0.073 C 
DOCKED: ATOM     14  O   UNL d   1     -18.638   2.514   1.789 -0.63 -1.35    -0.547 OA
DOCKED: ATOM     15  O   UNL d   1     -17.679   1.347   0.096 -0.23 -1.00    -0.547 OA
DOCKED: ENDBRANCH   1  13
DOCKED: TORSDOF 6
DOCKED: TER
DOCKED: ENDMDL
________________________________________________________________________________


	BEGINNING GENETIC ALGORITHM DOCKING 96 of 100
Run: 96 Seed: 1165757828 751693227 [ Run 96 of 100 GA/GALS ]
Beginning LAMARCKIAN GENETIC ALGORITHM (LGA), with a maximum of 25000000 energy evaluations.

Final-Value: -8.682


	FINAL GENETIC ALGORITHM DOCKED STATE
	_______________________________________________


Detailed state:  trans -15.491 -0.934 1.595 quatxyzw -0.083169 0.851731 -0.366182 0.365442 center 0.015 0.083 0.031 ntor 6 56.8844 18.6373 -149.7388 -140.8675 -9.2212 -98.5763
State:	-15.491  -0.934   1.595  -0.089  0.915 -0.393 137.130     56.88   18.64 -149.74 -140.87   -9.22  -98.58

DOCKED: MODEL       96
DOCKED: USER    Run = 96
DOCKED: USER    DPF = D:/Protein_go_brrr/autodock/final/AncMH_nat/2_3_BPG/dock.dpf
DOCKED: USER  
DOCKED: USER    Estimated Free Energy of Binding    =   -9.47 kcal/mol  [=(1)+(2)+(3)-(4)]
DOCKED: USER    Estimated Inhibition Constant, Ki   =  115.05 nM (nanomolar)  [Temperature = 298.15 K]
DOCKED: USER    
DOCKED: USER    (1) Final Intermolecular Energy     =  -11.26 kcal/mol
DOCKED: USER        vdW + Hbond + desolv Energy     =   -3.64 kcal/mol
DOCKED: USER        Electrostatic Energy            =   -7.62 kcal/mol
DOCKED: USER    (2) Final Total Internal Energy     =   +2.57 kcal/mol
DOCKED: USER    (3) Torsional Free Energy           =   +1.79 kcal/mol
DOCKED: USER    (4) Unbound System's Energy  [=(2)] =   +2.57 kcal/mol
DOCKED: USER    
DOCKED: USER    
DOCKED: USER    NEWDPF move 2_3_BPG_opt.pdbqt
DOCKED: USER    NEWDPF about 0.015000 0.083000 0.031000
DOCKED: USER    NEWDPF tran0 -15.491219 -0.934034 1.594582
DOCKED: USER    NEWDPF quaternion0 -0.083169 0.851731 -0.366182 0.365442
DOCKED: USER    NEWDPF axisangle0 -0.089349 0.915019 -0.393391 137.130450
DOCKED: USER    NEWDPF quat0 -0.089349 0.915019 -0.393391 137.130450
DOCKED: USER    NEWDPF dihe0 56.88 18.64 -149.74 -140.87 -9.22 -98.58 
DOCKED: USER  keepresnum = 1 
DOCKED: USER  
DOCKED: REMARK  6 active torsions:
DOCKED: REMARK  status: ('A' for Active; 'I' for Inactive)
DOCKED: REMARK    1  A    between atoms: P_1  and  O_3 
DOCKED: REMARK    2  A    between atoms: P_2  and  O_4 
DOCKED: REMARK    3  A    between atoms: O_3  and  C_13 
DOCKED: REMARK    4  A    between atoms: O_4  and  C_14 
DOCKED: REMARK    5  A    between atoms: C_13  and  C_14 
DOCKED: REMARK    6  A    between atoms: C_13  and  C_15 
DOCKED: USER                              x       y       z     vdW  Elec       q    Type
DOCKED: USER                           _______ _______ _______ _____ _____    ______ ____
DOCKED: ROOT
DOCKED: ATOM      1  C   UNL d   1     -14.994  -1.296   1.327 -0.17 +0.24    +0.193 C 
DOCKED: ENDROOT
DOCKED: BRANCH   1   2
DOCKED: ATOM      2  O   UNL d   1     -14.205  -0.415   0.458 -0.15 -0.53    -0.356 OA
DOCKED: BRANCH   2   3
DOCKED: ATOM      3  P   UNL d   1     -12.958   0.509   1.004 -0.16 -0.02    -0.014 P 
DOCKED: ATOM      4  O   UNL d   1     -12.696   1.508  -0.134 -0.43 -0.93    -0.577 OA
DOCKED: ATOM      5  O   UNL d   1     -11.766  -0.422   1.219 -0.03 -0.41    -0.577 OA
DOCKED: ATOM      6  O   UNL d   1     -13.416   1.215   2.275 -0.17 -1.05    -0.638 OA
DOCKED: ENDBRANCH   2   3
DOCKED: ENDBRANCH   1   2
DOCKED: BRANCH   1   7
DOCKED: ATOM      7  C   UNL d   1     -15.976  -0.413   2.183 -0.13 +0.27    +0.201 C 
DOCKED: BRANCH   7   8
DOCKED: ATOM      8  O   UNL d   1     -16.933   0.370   1.437 -0.53 -0.68    -0.364 OA
DOCKED: BRANCH   8   9
DOCKED: ATOM      9  P   UNL d   1     -18.112   1.216   2.231 -0.07 -0.03    -0.015 P 
DOCKED: ATOM     10  O   UNL d   1     -17.473   1.638   3.560 -0.19 -1.11    -0.577 OA
DOCKED: ATOM     11  O   UNL d   1     -19.285   0.258   2.440 -0.07 -0.92    -0.577 OA
DOCKED: ATOM     12  O   UNL d   1     -18.470   2.419   1.359 -0.55 -1.32    -0.638 OA
DOCKED: ENDBRANCH   8   9
DOCKED: ENDBRANCH   7   8
DOCKED: ENDBRANCH   1   7
DOCKED: BRANCH   1  13
DOCKED: ATOM     13  C   UNL d   1     -14.044  -2.085   2.302 -0.25 +0.07    +0.073 C 
DOCKED: ATOM     14  O   UNL d   1     -14.073  -1.797   3.550 -0.03 -0.37    -0.547 OA
DOCKED: ATOM     15  O   UNL d   1     -13.334  -3.024   1.791 -0.71 -0.84    -0.547 OA
DOCKED: ENDBRANCH   1  13
DOCKED: TORSDOF 6
DOCKED: TER
DOCKED: ENDMDL
________________________________________________________________________________


	BEGINNING GENETIC ALGORITHM DOCKING 97 of 100
Run: 97 Seed: 1486593513 1957282366 [ Run 97 of 100 GA/GALS ]
Beginning LAMARCKIAN GENETIC ALGORITHM (LGA), with a maximum of 25000000 energy evaluations.

Final-Value: -8.061


	FINAL GENETIC ALGORITHM DOCKED STATE
	_______________________________________________


Detailed state:  trans -18.246 0.682 1.563 quatxyzw 0.403537 0.800858 -0.442281 0.013057 center 0.015 0.083 0.031 ntor 6 -50.2232 -130.4568 126.2101 48.9694 2.1452 138.1942
State:	-18.246   0.682   1.563   0.404  0.801 -0.442 178.504    -50.22 -130.46  126.21   48.97    2.15  138.19

DOCKED: MODEL       97
DOCKED: USER    Run = 97
DOCKED: USER    DPF = D:/Protein_go_brrr/autodock/final/AncMH_nat/2_3_BPG/dock.dpf
DOCKED: USER  
DOCKED: USER    Estimated Free Energy of Binding    =   -8.37 kcal/mol  [=(1)+(2)+(3)-(4)]
DOCKED: USER    Estimated Inhibition Constant, Ki   =  737.03 nM (nanomolar)  [Temperature = 298.15 K]
DOCKED: USER    
DOCKED: USER    (1) Final Intermolecular Energy     =  -10.16 kcal/mol
DOCKED: USER        vdW + Hbond + desolv Energy     =   -2.33 kcal/mol
DOCKED: USER        Electrostatic Energy            =   -7.83 kcal/mol
DOCKED: USER    (2) Final Total Internal Energy     =   +2.10 kcal/mol
DOCKED: USER    (3) Torsional Free Energy           =   +1.79 kcal/mol
DOCKED: USER    (4) Unbound System's Energy  [=(2)] =   +2.10 kcal/mol
DOCKED: USER    
DOCKED: USER    
DOCKED: USER    NEWDPF move 2_3_BPG_opt.pdbqt
DOCKED: USER    NEWDPF about 0.015000 0.083000 0.031000
DOCKED: USER    NEWDPF tran0 -18.245842 0.681869 1.562604
DOCKED: USER    NEWDPF quaternion0 0.403537 0.800858 -0.442281 0.013057
DOCKED: USER    NEWDPF axisangle0 0.403572 0.800927 -0.442319 178.503697
DOCKED: USER    NEWDPF quat0 0.403572 0.800927 -0.442319 178.503697
DOCKED: USER    NEWDPF dihe0 -50.22 -130.46 126.21 48.97 2.15 138.19 
DOCKED: USER  keepresnum = 1 
DOCKED: USER  
DOCKED: REMARK  6 active torsions:
DOCKED: REMARK  status: ('A' for Active; 'I' for Inactive)
DOCKED: REMARK    1  A    between atoms: P_1  and  O_3 
DOCKED: REMARK    2  A    between atoms: P_2  and  O_4 
DOCKED: REMARK    3  A    between atoms: O_3  and  C_13 
DOCKED: REMARK    4  A    between atoms: O_4  and  C_14 
DOCKED: REMARK    5  A    between atoms: C_13  and  C_14 
DOCKED: REMARK    6  A    between atoms: C_13  and  C_15 
DOCKED: USER                              x       y       z     vdW  Elec       q    Type
DOCKED: USER                           _______ _______ _______ _____ _____    ______ ____
DOCKED: ROOT
DOCKED: ATOM      1  C   UNL d   1     -18.084   0.143   1.927 -0.11 +0.27    +0.193 C 
DOCKED: ENDROOT
DOCKED: BRANCH   1   2
DOCKED: ATOM      2  O   UNL d   1     -16.627   0.127   2.098 -0.31 -0.57    -0.356 OA
DOCKED: BRANCH   2   3
DOCKED: ATOM      3  P   UNL d   1     -15.593  -0.486   0.975 -0.14 -0.02    -0.014 P 
DOCKED: ATOM      4  O   UNL d   1     -16.097   0.084  -0.361 -0.42 -1.05    -0.577 OA
DOCKED: ATOM      5  O   UNL d   1     -15.724  -2.007   1.021 -0.03 -0.72    -0.577 OA
DOCKED: ATOM      6  O   UNL d   1     -14.190   0.014   1.303 -0.02 -1.06    -0.638 OA
DOCKED: ENDBRANCH   2   3
DOCKED: ENDBRANCH   1   2
DOCKED: BRANCH   1   7
DOCKED: ATOM      7  C   UNL d   1     -18.508   1.537   1.333 -0.10 +0.37    +0.201 C 
DOCKED: BRANCH   7   8
DOCKED: ATOM      8  O   UNL d   1     -18.219   2.688   2.157 -0.62 -0.93    -0.364 OA
DOCKED: BRANCH   8   9
DOCKED: ATOM      9  P   UNL d   1     -18.734   4.190   1.694 -0.13 -0.03    -0.015 P 
DOCKED: ATOM     10  O   UNL d   1     -18.242   4.353   0.251 -0.05 -0.72    -0.577 OA
DOCKED: ATOM     11  O   UNL d   1     -18.077   5.197   2.638 -0.08 -0.77    -0.577 OA
DOCKED: ATOM     12  O   UNL d   1     -20.259   4.192   1.785 -0.03 -1.19    -0.638 OA
DOCKED: ENDBRANCH   8   9
DOCKED: ENDBRANCH   7   8
DOCKED: ENDBRANCH   1   7
DOCKED: BRANCH   1  13
DOCKED: ATOM     13  C   UNL d   1     -18.792  -0.047   3.320 -0.11 +0.10    +0.073 C 
DOCKED: ATOM     14  O   UNL d   1     -18.064  -0.116   4.372 -0.05 -0.62    -0.547 OA
DOCKED: ATOM     15  O   UNL d   1     -20.076  -0.059   3.324 -0.12 -0.89    -0.547 OA
DOCKED: ENDBRANCH   1  13
DOCKED: TORSDOF 6
DOCKED: TER
DOCKED: ENDMDL
________________________________________________________________________________


	BEGINNING GENETIC ALGORITHM DOCKING 98 of 100
Run: 98 Seed: 2012463851 441885565 [ Run 98 of 100 GA/GALS ]
Beginning LAMARCKIAN GENETIC ALGORITHM (LGA), with a maximum of 25000000 energy evaluations.

Final-Value: -8.972


	FINAL GENETIC ALGORITHM DOCKED STATE
	_______________________________________________


Detailed state:  trans -15.156 -0.743 1.679 quatxyzw 0.157033 -0.946911 0.222936 -0.170290 center 0.015 0.083 0.031 ntor 6 17.8610 -131.9718 -121.8729 12.8816 8.9391 -100.4574
State:	-15.156  -0.743   1.679   0.159 -0.961  0.226 -160.391     17.86 -131.97 -121.87   12.88    8.94 -100.46

DOCKED: MODEL       98
DOCKED: USER    Run = 98
DOCKED: USER    DPF = D:/Protein_go_brrr/autodock/final/AncMH_nat/2_3_BPG/dock.dpf
DOCKED: USER  
DOCKED: USER    Estimated Free Energy of Binding    =   -9.26 kcal/mol  [=(1)+(2)+(3)-(4)]
DOCKED: USER    Estimated Inhibition Constant, Ki   =  163.18 nM (nanomolar)  [Temperature = 298.15 K]
DOCKED: USER    
DOCKED: USER    (1) Final Intermolecular Energy     =  -11.05 kcal/mol
DOCKED: USER        vdW + Hbond + desolv Energy     =   -3.32 kcal/mol
DOCKED: USER        Electrostatic Energy            =   -7.72 kcal/mol
DOCKED: USER    (2) Final Total Internal Energy     =   +2.08 kcal/mol
DOCKED: USER    (3) Torsional Free Energy           =   +1.79 kcal/mol
DOCKED: USER    (4) Unbound System's Energy  [=(2)] =   +2.08 kcal/mol
DOCKED: USER    
DOCKED: USER    
DOCKED: USER    NEWDPF move 2_3_BPG_opt.pdbqt
DOCKED: USER    NEWDPF about 0.015000 0.083000 0.031000
DOCKED: USER    NEWDPF tran0 -15.156265 -0.742688 1.679362
DOCKED: USER    NEWDPF quaternion0 0.157033 -0.946911 0.222936 -0.170290
DOCKED: USER    NEWDPF axisangle0 0.159361 -0.960947 0.226241 -160.390602
DOCKED: USER    NEWDPF quat0 0.159361 -0.960947 0.226241 -160.390602
DOCKED: USER    NEWDPF dihe0 17.86 -131.97 -121.87 12.88 8.94 -100.46 
DOCKED: USER  keepresnum = 1 
DOCKED: USER  
DOCKED: REMARK  6 active torsions:
DOCKED: REMARK  status: ('A' for Active; 'I' for Inactive)
DOCKED: REMARK    1  A    between atoms: P_1  and  O_3 
DOCKED: REMARK    2  A    between atoms: P_2  and  O_4 
DOCKED: REMARK    3  A    between atoms: O_3  and  C_13 
DOCKED: REMARK    4  A    between atoms: O_4  and  C_14 
DOCKED: REMARK    5  A    between atoms: C_13  and  C_14 
DOCKED: REMARK    6  A    between atoms: C_13  and  C_15 
DOCKED: USER                              x       y       z     vdW  Elec       q    Type
DOCKED: USER                           _______ _______ _______ _____ _____    ______ ____
DOCKED: ROOT
DOCKED: ATOM      1  C   UNL d   1     -14.540  -0.923   1.486 -0.19 +0.24    +0.193 C 
DOCKED: ENDROOT
DOCKED: BRANCH   1   2
DOCKED: ATOM      2  O   UNL d   1     -13.738   0.295   1.321 -0.15 -0.59    -0.356 OA
DOCKED: BRANCH   2   3
DOCKED: ATOM      3  P   UNL d   1     -13.052   0.738  -0.106 -0.01 -0.02    -0.014 P 
DOCKED: ATOM      4  O   UNL d   1     -14.151   0.495  -1.151 -0.02 -0.84    -0.577 OA
DOCKED: ATOM      5  O   UNL d   1     -11.850  -0.177  -0.332 -0.02 -0.44    -0.577 OA
DOCKED: ATOM      6  O   UNL d   1     -12.683   2.215  -0.013 -0.42 -1.23    -0.638 OA
DOCKED: ENDBRANCH   2   3
DOCKED: ENDBRANCH   1   2
DOCKED: BRANCH   1   7
DOCKED: ATOM      7  C   UNL d   1     -15.884  -0.548   2.212 -0.13 +0.26    +0.201 C 
DOCKED: BRANCH   7   8
DOCKED: ATOM      8  O   UNL d   1     -16.713   0.427   1.541 -0.45 -0.73    -0.364 OA
DOCKED: BRANCH   8   9
DOCKED: ATOM      9  P   UNL d   1     -17.989   1.118   2.335 -0.10 -0.03    -0.015 P 
DOCKED: ATOM     10  O   UNL d   1     -17.369   1.832   3.542 -0.19 -1.11    -0.577 OA
DOCKED: ATOM     11  O   UNL d   1     -18.918  -0.019   2.761 -0.04 -0.82    -0.577 OA
DOCKED: ATOM     12  O   UNL d   1     -18.648   2.097   1.364 -0.60 -1.28    -0.638 OA
DOCKED: ENDBRANCH   8   9
DOCKED: ENDBRANCH   7   8
DOCKED: ENDBRANCH   1   7
DOCKED: BRANCH   1  13
DOCKED: ATOM     13  C   UNL d   1     -13.762  -1.966   2.372 -0.26 +0.07    +0.073 C 
DOCKED: ATOM     14  O   UNL d   1     -13.635  -1.729   3.625 -0.04 -0.34    -0.547 OA
DOCKED: ATOM     15  O   UNL d   1     -13.351  -3.034   1.790 -0.71 -0.85    -0.547 OA
DOCKED: ENDBRANCH   1  13
DOCKED: TORSDOF 6
DOCKED: TER
DOCKED: ENDMDL
________________________________________________________________________________


	BEGINNING GENETIC ALGORITHM DOCKING 99 of 100
Run: 99 Seed: 251632694 258546978 [ Run 99 of 100 GA/GALS ]
Beginning LAMARCKIAN GENETIC ALGORITHM (LGA), with a maximum of 25000000 energy evaluations.

Final-Value: -8.993


	FINAL GENETIC ALGORITHM DOCKED STATE
	_______________________________________________


Detailed state:  trans -15.404 -0.831 1.617 quatxyzw -0.113553 0.962518 -0.176961 0.171319 center 0.015 0.083 0.031 ntor 6 -119.3961 -138.0916 -135.6458 8.7114 14.4257 -90.6094
State:	-15.404  -0.831   1.617  -0.115  0.977 -0.180 160.271   -119.40 -138.09 -135.65    8.71   14.43  -90.61

DOCKED: MODEL       99
DOCKED: USER    Run = 99
DOCKED: USER    DPF = D:/Protein_go_brrr/autodock/final/AncMH_nat/2_3_BPG/dock.dpf
DOCKED: USER  
DOCKED: USER    Estimated Free Energy of Binding    =   -9.37 kcal/mol  [=(1)+(2)+(3)-(4)]
DOCKED: USER    Estimated Inhibition Constant, Ki   =  135.76 nM (nanomolar)  [Temperature = 298.15 K]
DOCKED: USER    
DOCKED: USER    (1) Final Intermolecular Energy     =  -11.16 kcal/mol
DOCKED: USER        vdW + Hbond + desolv Energy     =   -3.47 kcal/mol
DOCKED: USER        Electrostatic Energy            =   -7.69 kcal/mol
DOCKED: USER    (2) Final Total Internal Energy     =   +2.17 kcal/mol
DOCKED: USER    (3) Torsional Free Energy           =   +1.79 kcal/mol
DOCKED: USER    (4) Unbound System's Energy  [=(2)] =   +2.17 kcal/mol
DOCKED: USER    
DOCKED: USER    
DOCKED: USER    NEWDPF move 2_3_BPG_opt.pdbqt
DOCKED: USER    NEWDPF about 0.015000 0.083000 0.031000
DOCKED: USER    NEWDPF tran0 -15.404013 -0.831293 1.616740
DOCKED: USER    NEWDPF quaternion0 -0.113553 0.962518 -0.176961 0.171319
DOCKED: USER    NEWDPF axisangle0 -0.115257 0.976962 -0.179616 160.270993
DOCKED: USER    NEWDPF quat0 -0.115257 0.976962 -0.179616 160.270993
DOCKED: USER    NEWDPF dihe0 -119.40 -138.09 -135.65 8.71 14.43 -90.61 
DOCKED: USER  keepresnum = 1 
DOCKED: USER  
DOCKED: REMARK  6 active torsions:
DOCKED: REMARK  status: ('A' for Active; 'I' for Inactive)
DOCKED: REMARK    1  A    between atoms: P_1  and  O_3 
DOCKED: REMARK    2  A    between atoms: P_2  and  O_4 
DOCKED: REMARK    3  A    between atoms: O_3  and  C_13 
DOCKED: REMARK    4  A    between atoms: O_4  and  C_14 
DOCKED: REMARK    5  A    between atoms: C_13  and  C_14 
DOCKED: REMARK    6  A    between atoms: C_13  and  C_15 
DOCKED: USER                              x       y       z     vdW  Elec       q    Type
DOCKED: USER                           _______ _______ _______ _____ _____    ______ ____
DOCKED: ROOT
DOCKED: ATOM      1  C   UNL d   1     -14.807  -1.058   1.412 -0.18 +0.24    +0.193 C 
DOCKED: ENDROOT
DOCKED: BRANCH   1   2
DOCKED: ATOM      2  O   UNL d   1     -13.883   0.079   1.348 -0.13 -0.56    -0.356 OA
DOCKED: BRANCH   2   3
DOCKED: ATOM      3  P   UNL d   1     -13.060   0.498  -0.013 -0.15 -0.02    -0.014 P 
DOCKED: ATOM      4  O   UNL d   1     -14.058   0.249  -1.155 -0.03 -0.77    -0.577 OA
DOCKED: ATOM      5  O   UNL d   1     -11.849  -0.427  -0.113 -0.02 -0.45    -0.577 OA
DOCKED: ATOM      6  O   UNL d   1     -12.691   1.974   0.095 -0.45 -1.23    -0.638 OA
DOCKED: ENDBRANCH   2   3
DOCKED: ENDBRANCH   1   2
DOCKED: BRANCH   1   7
DOCKED: ATOM      7  C   UNL d   1     -16.115  -0.605   2.160 -0.12 +0.25    +0.201 C 
DOCKED: BRANCH   7   8
DOCKED: ATOM      8  O   UNL d   1     -16.947   0.344   1.457 -0.52 -0.66    -0.364 OA
DOCKED: BRANCH   8   9
DOCKED: ATOM      9  P   UNL d   1     -18.088   1.216   2.278 -0.05 -0.03    -0.015 P 
DOCKED: ATOM     10  O   UNL d   1     -17.369   1.737   3.527 -0.20 -1.10    -0.577 OA
DOCKED: ATOM     11  O   UNL d   1     -19.218   0.249   2.631 -0.07 -0.94    -0.577 OA
DOCKED: ATOM     12  O   UNL d   1     -18.537   2.350   1.358 -0.56 -1.31    -0.638 OA
DOCKED: ENDBRANCH   8   9
DOCKED: ENDBRANCH   7   8
DOCKED: ENDBRANCH   1   7
DOCKED: BRANCH   1  13
DOCKED: ATOM     13  C   UNL d   1     -14.151  -2.242   2.216 -0.22 +0.08    +0.073 C 
DOCKED: ATOM     14  O   UNL d   1     -13.119  -2.818   1.723 -0.72 -0.77    -0.547 OA
DOCKED: ATOM     15  O   UNL d   1     -14.660  -2.520   3.362 -0.02 -0.42    -0.547 OA
DOCKED: ENDBRANCH   1  13
DOCKED: TORSDOF 6
DOCKED: TER
DOCKED: ENDMDL
________________________________________________________________________________


	BEGINNING GENETIC ALGORITHM DOCKING 100 of 100
Run: 100 Seed: 979959403 273300664 [ Run 100 of 100 GA/GALS ]
Beginning LAMARCKIAN GENETIC ALGORITHM (LGA), with a maximum of 25000000 energy evaluations.

Final-Value: -9.044


	FINAL GENETIC ALGORITHM DOCKED STATE
	_______________________________________________


Detailed state:  trans -15.274 -0.584 1.645 quatxyzw -0.021452 0.963873 -0.152968 0.217003 center 0.015 0.083 0.031 ntor 6 -103.1103 -151.1801 -172.5171 28.7222 -3.3084 -62.6883
State:	-15.274  -0.584   1.645  -0.022  0.987 -0.157 154.934   -103.11 -151.18 -172.52   28.72   -3.31  -62.69

DOCKED: MODEL      100
DOCKED: USER    Run = 100
DOCKED: USER    DPF = D:/Protein_go_brrr/autodock/final/AncMH_nat/2_3_BPG/dock.dpf
DOCKED: USER  
DOCKED: USER    Estimated Free Energy of Binding    =   -9.32 kcal/mol  [=(1)+(2)+(3)-(4)]
DOCKED: USER    Estimated Inhibition Constant, Ki   =  146.77 nM (nanomolar)  [Temperature = 298.15 K]
DOCKED: USER    
DOCKED: USER    (1) Final Intermolecular Energy     =  -11.11 kcal/mol
DOCKED: USER        vdW + Hbond + desolv Energy     =   -3.30 kcal/mol
DOCKED: USER        Electrostatic Energy            =   -7.81 kcal/mol
DOCKED: USER    (2) Final Total Internal Energy     =   +2.07 kcal/mol
DOCKED: USER    (3) Torsional Free Energy           =   +1.79 kcal/mol
DOCKED: USER    (4) Unbound System's Energy  [=(2)] =   +2.07 kcal/mol
DOCKED: USER    
DOCKED: USER    
DOCKED: USER    NEWDPF move 2_3_BPG_opt.pdbqt
DOCKED: USER    NEWDPF about 0.015000 0.083000 0.031000
DOCKED: USER    NEWDPF tran0 -15.274328 -0.583789 1.645228
DOCKED: USER    NEWDPF quaternion0 -0.021452 0.963873 -0.152968 0.217003
DOCKED: USER    NEWDPF axisangle0 -0.021976 0.987401 -0.156702 154.933885
DOCKED: USER    NEWDPF quat0 -0.021976 0.987401 -0.156702 154.933885
DOCKED: USER    NEWDPF dihe0 -103.11 -151.18 -172.52 28.72 -3.31 -62.69 
DOCKED: USER  keepresnum = 1 
DOCKED: USER  
DOCKED: REMARK  6 active torsions:
DOCKED: REMARK  status: ('A' for Active; 'I' for Inactive)
DOCKED: REMARK    1  A    between atoms: P_1  and  O_3 
DOCKED: REMARK    2  A    between atoms: P_2  and  O_4 
DOCKED: REMARK    3  A    between atoms: O_3  and  C_13 
DOCKED: REMARK    4  A    between atoms: O_4  and  C_14 
DOCKED: REMARK    5  A    between atoms: C_13  and  C_14 
DOCKED: REMARK    6  A    between atoms: C_13  and  C_15 
DOCKED: USER                              x       y       z     vdW  Elec       q    Type
DOCKED: USER                           _______ _______ _______ _____ _____    ______ ____
DOCKED: ROOT
DOCKED: ATOM      1  C   UNL d   1     -14.749  -0.924   1.405 -0.18 +0.25    +0.193 C 
DOCKED: ENDROOT
DOCKED: BRANCH   1   2
DOCKED: ATOM      2  O   UNL d   1     -13.620   0.005   1.284 -0.15 -0.51    -0.356 OA
DOCKED: BRANCH   2   3
DOCKED: ATOM      3  P   UNL d   1     -13.117   0.632  -0.151 -0.06 -0.02    -0.014 P 
DOCKED: ATOM      4  O   UNL d   1     -14.362   0.575  -1.051 +0.01 -0.94    -0.577 OA
DOCKED: ATOM      5  O   UNL d   1     -12.003  -0.272  -0.675 -0.01 -0.46    -0.577 OA
DOCKED: ATOM      6  O   UNL d   1     -12.669   2.070   0.094 -0.46 -1.24    -0.638 OA
DOCKED: ENDBRANCH   2   3
DOCKED: ENDBRANCH   1   2
DOCKED: BRANCH   1   7
DOCKED: ATOM      7  C   UNL d   1     -15.891  -0.225   2.231 -0.13 +0.29    +0.201 C 
DOCKED: BRANCH   7   8
DOCKED: ATOM      8  O   UNL d   1     -16.939   0.397   1.455 -0.52 -0.68    -0.364 OA
DOCKED: BRANCH   8   9
DOCKED: ATOM      9  P   UNL d   1     -18.196   1.157   2.216 -0.09 -0.03    -0.015 P 
DOCKED: ATOM     10  O   UNL d   1     -17.790   1.215   3.694 -0.16 -1.06    -0.577 OA
DOCKED: ATOM     11  O   UNL d   1     -19.437   0.292   1.999 -0.06 -0.85    -0.577 OA
DOCKED: ATOM     12  O   UNL d   1     -18.322   2.549   1.600 -0.56 -1.43    -0.638 OA
DOCKED: ENDBRANCH   8   9
DOCKED: ENDBRANCH   7   8
DOCKED: ENDBRANCH   1   7
DOCKED: BRANCH   1  13
DOCKED: ATOM     13  C   UNL d   1     -14.298  -2.224   2.170 -0.21 +0.08    +0.073 C 
DOCKED: ATOM     14  O   UNL d   1     -13.228  -2.817   1.788 -0.73 -0.76    -0.547 OA
DOCKED: ATOM     15  O   UNL d   1     -15.003  -2.579   3.182 -0.01 -0.45    -0.547 OA
DOCKED: ENDBRANCH   1  13
DOCKED: TORSDOF 6
DOCKED: TER
DOCKED: ENDMDL
________________________________________________________________________________

DPF> analysis                             # perform a ranked cluster analysis


		CLUSTER ANALYSIS OF CONFORMATIONS
		_________________________________

Number of conformations = 100

RMSD cluster analysis will be performed using the ligand atoms only (15 / 15 total atoms).

Outputting structurally similar clusters, ranked in order of increasing energy.


________________________________________________________________________________

Number of distinct conformational clusters found = 4,  out of 100 runs,
Using an rmsd-tolerance of 2.0 A


	CLUSTERING HISTOGRAM
	____________________

________________________________________________________________________________
     |           |     |           |     |                                    
Clus | Lowest    | Run | Mean      | Num | Histogram                          
-ter | Binding   |     | Binding   | in  |                                    
Rank | Energy    |     | Energy    | Clus|    5    10   15   20   25   30   35
_____|___________|_____|___________|_____|____:____|____:____|____:____|____:___
   1 |     -9.47 |  96 |     -8.99 |  84 |####################################################################################
   2 |     -8.75 |  95 |     -8.54 |   8 |########
   3 |     -8.70 |   2 |     -8.52 |   5 |#####
   4 |     -8.37 |  97 |     -8.27 |   3 |###
_____|___________|_____|___________|_____|______________________________________


Number of multi-member conformational clusters found = 4, out of 100 runs.

	RMSD TABLE
	__________

_____________________________________________________________________
     |      |      |           |         |                 |
Rank | Sub- | Run  | Binding   | Cluster | Reference       | Grep
     | Rank |      | Energy    | RMSD    | RMSD            | Pattern
_____|______|______|___________|_________|_________________|___________
   1      1     96       -9.47      0.00     12.57           RANKING
   1      2     54       -9.42      0.73     12.74           RANKING
   1      3     76       -9.39      0.66     12.58           RANKING
   1      4     37       -9.37      0.72     12.57           RANKING
   1      5     99       -9.37      0.76     12.61           RANKING
   1      6     46       -9.37      0.76     12.58           RANKING
   1      7     73       -9.36      0.76     12.53           RANKING
   1      8     52       -9.35      0.79     12.56           RANKING
   1      9     58       -9.34      0.64     12.53           RANKING
   1     10    100       -9.32      0.91     12.67           RANKING
   1     11     31       -9.32      0.87     12.71           RANKING
   1     12     30       -9.32      0.75     12.47           RANKING
   1     13     47       -9.31      0.71     12.55           RANKING
   1     14     39       -9.31      1.01     12.70           RANKING
   1     15     66       -9.31      0.90     12.54           RANKING
   1     16     41       -9.31      0.81     12.71           RANKING
   1     17     44       -9.30      0.84     12.52           RANKING
   1     18     22       -9.28      0.89     12.58           RANKING
   1     19     92       -9.27      0.87     12.40           RANKING
   1     20     98       -9.26      0.84     12.47           RANKING
   1     21     11       -9.25      0.93     12.56           RANKING
   1     22     82       -9.25      0.81     12.55           RANKING
   1     23     19       -9.24      1.23     13.03           RANKING
   1     24      7       -9.23      0.76     12.51           RANKING
   1     25     42       -9.23      0.84     12.46           RANKING
   1     26     90       -9.22      0.89     12.65           RANKING
   1     27     60       -9.22      0.81     12.42           RANKING
   1     28     33       -9.22      0.90     12.56           RANKING
   1     29     25       -9.21      0.84     12.48           RANKING
   1     30     34       -9.20      1.27     12.97           RANKING
   1     31     81       -9.19      0.92     12.49           RANKING
   1     32     18       -9.17      0.79     12.57           RANKING
   1     33     28       -9.15      0.87     12.42           RANKING
   1     34     88       -9.14      0.75     12.43           RANKING
   1     35     20       -9.14      0.90     12.59           RANKING
   1     36     15       -9.12      0.85     12.41           RANKING
   1     37     78       -9.10      1.06     12.24           RANKING
   1     38      9       -9.09      0.91     12.48           RANKING
   1     39     87       -9.07      1.24     12.97           RANKING
   1     40     61       -9.07      1.02     12.40           RANKING
   1     41     16       -9.06      1.13     12.15           RANKING
   1     42     10       -9.02      1.06     12.32           RANKING
   1     43     80       -9.00      1.11     12.43           RANKING
   1     44     43       -9.00      0.88     12.50           RANKING
   1     45     94       -9.00      1.19     12.94           RANKING
   1     46     32       -8.99      1.48     13.00           RANKING
   1     47     45       -8.97      1.08     12.20           RANKING
   1     48     86       -8.97      1.05     12.60           RANKING
   1     49      6       -8.96      0.94     12.57           RANKING
   1     50     70       -8.95      1.03     12.49           RANKING
   1     51     48       -8.93      1.41     13.00           RANKING
   1     52     91       -8.91      1.21     12.21           RANKING
   1     53     49       -8.91      1.60     13.11           RANKING
   1     54     35       -8.88      1.58     13.10           RANKING
   1     55     63       -8.88      1.96     14.80           RANKING
   1     56     50       -8.88      1.07     12.59           RANKING
   1     57     79       -8.88      1.75     14.36           RANKING
   1     58     14       -8.88      1.05     12.60           RANKING
   1     59     65       -8.86      1.24     12.99           RANKING
   1     60     72       -8.85      1.21     12.56           RANKING
   1     61     26       -8.84      1.75     14.32           RANKING
   1     62     93       -8.83      1.44     13.18           RANKING
   1     63      5       -8.81      1.67     14.26           RANKING
   1     64     74       -8.80      1.82     14.45           RANKING
   1     65     40       -8.77      1.55     13.22           RANKING
   1     66     75       -8.75      1.60     13.25           RANKING
   1     67     64       -8.75      1.67     13.12           RANKING
   1     68     56       -8.72      1.52     13.31           RANKING
   1     69     51       -8.70      1.52     13.36           RANKING
   1     70     68       -8.67      1.81     14.36           RANKING
   1     71     21       -8.62      1.52     13.20           RANKING
   1     72     84       -8.61      1.63     13.22           RANKING
   1     73     69       -8.59      1.95     14.87           RANKING
   1     74     85       -8.57      1.84     13.68           RANKING
   1     75     57       -8.56      1.54     13.21           RANKING
   1     76     38       -8.54      1.49     13.23           RANKING
   1     77     71       -8.54      1.84     14.62           RANKING
   1     78      4       -8.49      1.37     13.22           RANKING
   1     79     13       -8.47      1.17     12.51           RANKING
   1     80     17       -8.45      1.97     14.85           RANKING
   1     81     12       -8.44      1.67     13.28           RANKING
   1     82     67       -8.40      1.66     14.39           RANKING
   1     83     62       -8.30      1.82     14.53           RANKING
   1     84     29       -8.26      1.78     13.49           RANKING
   2      1     95       -8.75      0.00     15.11           RANKING
   2      2     24       -8.74      0.38     15.13           RANKING
   2      3      1       -8.63      1.20     15.47           RANKING
   2      4     23       -8.60      1.14     15.71           RANKING
   2      5     27       -8.47      1.07     15.80           RANKING
   2      6      8       -8.45      1.00     14.81           RANKING
   2      7     77       -8.43      0.84     14.98           RANKING
   2      8     55       -8.26      1.12     15.73           RANKING
   3      1      2       -8.70      0.00     15.68           RANKING
   3      2     89       -8.66      0.64     15.59           RANKING
   3      3     53       -8.48      1.63     16.04           RANKING
   3      4     83       -8.39      1.86     16.99           RANKING
   3      5     36       -8.37      0.71     15.72           RANKING
   4      1     97       -8.37      0.00     15.08           RANKING
   4      2     59       -8.23      0.81     15.29           RANKING
   4      3      3       -8.21      0.85     15.32           RANKING
_______________________________________________________________________



	INFORMATION ENTROPY ANALYSIS FOR THIS CLUSTERING
	________________________________________________


Information entropy for this clustering = 0.13  (rmstol = 2.00 Angstrom)

_______________________________________________________________________


	STATISTICAL MECHANICAL ANALYSIS
	_______________________________


Partition function, Q =   101.52            at Temperature, T = 298.15 K
Free energy,        A ~ -2737.39 kcal/mol   at Temperature, T = 298.15 K
Internal energy,    U =    -8.91 kcal/mol   at Temperature, T = 298.15 K
Entropy,            S =     9.15 kcal/mol/K at Temperature, T = 298.15 K

_______________________________________________________________________


	LOWEST ENERGY DOCKED CONFORMATION from EACH CLUSTER
	___________________________________________________



Keeping original residue number (specified in the input PDBQ file) for outputting.

MODEL       96
USER    Run = 96
USER    Cluster Rank = 1
USER    Number of conformations in this cluster = 84
USER  
USER    RMSD from reference structure       = 12.571 A
USER  
USER    Estimated Free Energy of Binding    =   -9.47 kcal/mol  [=(1)+(2)+(3)-(4)]
USER    Estimated Inhibition Constant, Ki   =  115.05 nM (nanomolar)  [Temperature = 298.15 K]
USER    
USER    (1) Final Intermolecular Energy     =  -11.26 kcal/mol
USER        vdW + Hbond + desolv Energy     =   -3.64 kcal/mol
USER        Electrostatic Energy            =   -7.62 kcal/mol
USER    (2) Final Total Internal Energy     =   +2.57 kcal/mol
USER    (3) Torsional Free Energy           =   +1.79 kcal/mol
USER    (4) Unbound System's Energy  [=(2)] =   +2.57 kcal/mol
USER    
USER    
USER  
USER    DPF = D:/Protein_go_brrr/autodock/final/AncMH_nat/2_3_BPG/dock.dpf
USER    NEWDPF move	2_3_BPG_opt.pdbqt
USER    NEWDPF about	0.015000 0.083000 0.031000
USER    NEWDPF tran0	-15.491219 -0.934034 1.594582
USER    NEWDPF axisangle0	-0.089349 0.915019 -0.393391 137.130450
USER    NEWDPF quaternion0	-0.083169 0.851731 -0.366182 0.365442
USER    NEWDPF dihe0	56.88 18.64 -149.74 -140.87 -9.22 -98.58 
USER  
USER                              x       y       z    vdW   Elec        q     RMS 
ATOM      1  C   UNL d   1     -14.994  -1.296   1.327 -0.17 +0.24    +0.193    12.571
ATOM      2  O   UNL d   1     -14.205  -0.415   0.458 -0.15 -0.53    -0.356    12.571
ATOM      3  P   UNL d   1     -12.958   0.509   1.004 -0.16 -0.02    -0.014    12.571
ATOM      4  O   UNL d   1     -12.696   1.508  -0.134 -0.43 -0.93    -0.577    12.571
ATOM      5  O   UNL d   1     -11.766  -0.422   1.219 -0.03 -0.41    -0.577    12.571
ATOM      6  O   UNL d   1     -13.416   1.215   2.275 -0.17 -1.05    -0.638    12.571
ATOM      7  C   UNL d   1     -15.976  -0.413   2.183 -0.13 +0.27    +0.201    12.571
ATOM      8  O   UNL d   1     -16.933   0.370   1.437 -0.53 -0.68    -0.364    12.571
ATOM      9  P   UNL d   1     -18.112   1.216   2.231 -0.07 -0.03    -0.015    12.571
ATOM     10  O   UNL d   1     -17.473   1.638   3.560 -0.19 -1.11    -0.577    12.571
ATOM     11  O   UNL d   1     -19.285   0.258   2.440 -0.07 -0.92    -0.577    12.571
ATOM     12  O   UNL d   1     -18.470   2.419   1.359 -0.55 -1.32    -0.638    12.571
ATOM     13  C   UNL d   1     -14.044  -2.085   2.302 -0.25 +0.07    +0.073    12.571
ATOM     14  O   UNL d   1     -14.073  -1.797   3.550 -0.03 -0.37    -0.547    12.571
ATOM     15  O   UNL d   1     -13.334  -3.024   1.791 -0.71 -0.84    -0.547    12.571
TER
ENDMDL
MODEL       95
USER    Run = 95
USER    Cluster Rank = 2
USER    Number of conformations in this cluster = 8
USER  
USER    RMSD from reference structure       = 15.109 A
USER  
USER    Estimated Free Energy of Binding    =   -8.75 kcal/mol  [=(1)+(2)+(3)-(4)]
USER    Estimated Inhibition Constant, Ki   =  384.22 nM (nanomolar)  [Temperature = 298.15 K]
USER    
USER    (1) Final Intermolecular Energy     =  -10.54 kcal/mol
USER        vdW + Hbond + desolv Energy     =   -2.63 kcal/mol
USER        Electrostatic Energy            =   -7.91 kcal/mol
USER    (2) Final Total Internal Energy     =   +2.27 kcal/mol
USER    (3) Torsional Free Energy           =   +1.79 kcal/mol
USER    (4) Unbound System's Energy  [=(2)] =   +2.27 kcal/mol
USER    
USER    
USER  
USER    DPF = D:/Protein_go_brrr/autodock/final/AncMH_nat/2_3_BPG/dock.dpf
USER    NEWDPF move	2_3_BPG_opt.pdbqt
USER    NEWDPF about	0.015000 0.083000 0.031000
USER    NEWDPF tran0	-17.967756 -0.342026 2.080117
USER    NEWDPF axisangle0	-0.949265 0.143726 0.279711 136.606874
USER    NEWDPF quaternion0	-0.882014 0.133543 0.259895 0.369691
USER    NEWDPF dihe0	-57.00 -34.80 -111.44 36.49 40.97 93.59 
USER  
USER                              x       y       z    vdW   Elec        q     RMS 
ATOM      1  C   UNL d   1     -18.492   0.070   2.011 -0.10 +0.26    +0.193    15.109
ATOM      2  O   UNL d   1     -19.039   0.342   3.345 -0.07 -0.64    -0.356    15.109
ATOM      3  P   UNL d   1     -20.306  -0.486   3.987 -0.05 -0.02    -0.014    15.109
ATOM      4  O   UNL d   1     -19.939  -0.657   5.470 -0.02 -0.53    -0.577    15.109
ATOM      5  O   UNL d   1     -20.378  -1.831   3.268 +0.02 -0.40    -0.577    15.109
ATOM      6  O   UNL d   1     -21.560   0.364   3.816 -0.47 -1.26    -0.638    15.109
ATOM      7  C   UNL d   1     -17.102  -0.649   2.172 -0.10 +0.23    +0.201    15.109
ATOM      8  O   UNL d   1     -15.939   0.152   1.869 -0.36 -0.67    -0.364    15.109
ATOM      9  P   UNL d   1     -14.705  -0.484   0.968 -0.24 -0.02    -0.015    15.109
ATOM     10  O   UNL d   1     -15.269  -0.603  -0.452 -0.14 -0.82    -0.577    15.109
ATOM     11  O   UNL d   1     -14.374  -1.850   1.568 -0.08 -0.68    -0.577    15.109
ATOM     12  O   UNL d   1     -13.539   0.501   1.042 -0.05 -1.14    -0.638    15.109
ATOM     13  C   UNL d   1     -18.274   1.420   1.231 -0.14 +0.13    +0.073    15.109
ATOM     14  O   UNL d   1     -18.638   2.514   1.789 -0.63 -1.35    -0.547    15.109
ATOM     15  O   UNL d   1     -17.679   1.347   0.096 -0.23 -1.00    -0.547    15.109
TER
ENDMDL
MODEL        2
USER    Run = 2
USER    Cluster Rank = 3
USER    Number of conformations in this cluster = 5
USER  
USER    RMSD from reference structure       = 15.678 A
USER  
USER    Estimated Free Energy of Binding    =   -8.70 kcal/mol  [=(1)+(2)+(3)-(4)]
USER    Estimated Inhibition Constant, Ki   =  419.59 nM (nanomolar)  [Temperature = 298.15 K]
USER    
USER    (1) Final Intermolecular Energy     =  -10.49 kcal/mol
USER        vdW + Hbond + desolv Energy     =   -2.79 kcal/mol
USER        Electrostatic Energy            =   -7.69 kcal/mol
USER    (2) Final Total Internal Energy     =   +2.31 kcal/mol
USER    (3) Torsional Free Energy           =   +1.79 kcal/mol
USER    (4) Unbound System's Energy  [=(2)] =   +2.31 kcal/mol
USER    
USER    
USER  
USER    DPF = D:/Protein_go_brrr/autodock/final/AncMH_nat/2_3_BPG/dock.dpf
USER    NEWDPF move	2_3_BPG_opt.pdbqt
USER    NEWDPF about	0.015000 0.083000 0.031000
USER    NEWDPF tran0	-19.214860 3.639302 0.296671
USER    NEWDPF axisangle0	-0.654425 -0.411636 0.634259 173.511565
USER    NEWDPF quaternion0	-0.653376 -0.410976 0.633242 0.056592
USER    NEWDPF dihe0	-167.78 53.14 -135.55 27.97 41.50 -143.84 
USER  
USER                              x       y       z    vdW   Elec        q     RMS 
ATOM      1  C   UNL d   1     -19.395   3.516   0.930 -0.12 +0.29    +0.193    15.678
ATOM      2  O   UNL d   1     -18.261   2.886   1.615 -0.57 -0.79    -0.356    15.678
ATOM      3  P   UNL d   1     -18.194   1.280   1.962 -0.08 -0.03    -0.014    15.678
ATOM      4  O   UNL d   1     -17.794   1.225   3.445 -0.25 -1.09    -0.577    15.678
ATOM      5  O   UNL d   1     -17.119   0.668   1.067 -0.43 -1.20    -0.577    15.678
ATOM      6  O   UNL d   1     -19.582   0.691   1.734 -0.12 -1.02    -0.638    15.678
ATOM      7  C   UNL d   1     -18.903   4.074  -0.456 -0.08 +0.19    +0.201    15.678
ATOM      8  O   UNL d   1     -17.629   3.574  -0.919 -0.17 -0.51    -0.364    15.678
ATOM      9  P   UNL d   1     -16.511   4.615  -1.556 -0.04 -0.02    -0.015    15.678
ATOM     10  O   UNL d   1     -16.463   5.795  -0.578 -0.09 -0.53    -0.577    15.678
ATOM     11  O   UNL d   1     -17.026   5.035  -2.932 +0.00 -0.29    -0.577    15.678
ATOM     12  O   UNL d   1     -15.181   3.866  -1.617 -0.39 -1.25    -0.638    15.678
ATOM     13  C   UNL d   1     -19.946   4.715   1.789 -0.08 +0.11    +0.073    15.678
ATOM     14  O   UNL d   1     -21.125   4.622   2.283 -0.31 -1.00    -0.547    15.678
ATOM     15  O   UNL d   1     -19.147   5.697   1.998 -0.07 -0.56    -0.547    15.678
TER
ENDMDL
MODEL       97
USER    Run = 97
USER    Cluster Rank = 4
USER    Number of conformations in this cluster = 3
USER  
USER    RMSD from reference structure       = 15.075 A
USER  
USER    Estimated Free Energy of Binding    =   -8.37 kcal/mol  [=(1)+(2)+(3)-(4)]
USER    Estimated Inhibition Constant, Ki   =  737.03 nM (nanomolar)  [Temperature = 298.15 K]
USER    
USER    (1) Final Intermolecular Energy     =  -10.16 kcal/mol
USER        vdW + Hbond + desolv Energy     =   -2.33 kcal/mol
USER        Electrostatic Energy            =   -7.83 kcal/mol
USER    (2) Final Total Internal Energy     =   +2.10 kcal/mol
USER    (3) Torsional Free Energy           =   +1.79 kcal/mol
USER    (4) Unbound System's Energy  [=(2)] =   +2.10 kcal/mol
USER    
USER    
USER  
USER    DPF = D:/Protein_go_brrr/autodock/final/AncMH_nat/2_3_BPG/dock.dpf
USER    NEWDPF move	2_3_BPG_opt.pdbqt
USER    NEWDPF about	0.015000 0.083000 0.031000
USER    NEWDPF tran0	-18.245842 0.681869 1.562604
USER    NEWDPF axisangle0	0.403572 0.800927 -0.442319 178.503697
USER    NEWDPF quaternion0	0.403537 0.800858 -0.442281 0.013057
USER    NEWDPF dihe0	-50.22 -130.46 126.21 48.97 2.15 138.19 
USER  
USER                              x       y       z    vdW   Elec        q     RMS 
ATOM      1  C   UNL d   1     -18.084   0.143   1.927 -0.11 +0.27    +0.193    15.075
ATOM      2  O   UNL d   1     -16.627   0.127   2.098 -0.31 -0.57    -0.356    15.075
ATOM      3  P   UNL d   1     -15.593  -0.486   0.975 -0.14 -0.02    -0.014    15.075
ATOM      4  O   UNL d   1     -16.097   0.084  -0.361 -0.42 -1.05    -0.577    15.075
ATOM      5  O   UNL d   1     -15.724  -2.007   1.021 -0.03 -0.72    -0.577    15.075
ATOM      6  O   UNL d   1     -14.190   0.014   1.303 -0.02 -1.06    -0.638    15.075
ATOM      7  C   UNL d   1     -18.508   1.537   1.333 -0.10 +0.37    +0.201    15.075
ATOM      8  O   UNL d   1     -18.219   2.688   2.157 -0.62 -0.93    -0.364    15.075
ATOM      9  P   UNL d   1     -18.734   4.190   1.694 -0.13 -0.03    -0.015    15.075
ATOM     10  O   UNL d   1     -18.242   4.353   0.251 -0.05 -0.72    -0.577    15.075
ATOM     11  O   UNL d   1     -18.077   5.197   2.638 -0.08 -0.77    -0.577    15.075
ATOM     12  O   UNL d   1     -20.259   4.192   1.785 -0.03 -1.19    -0.638    15.075
ATOM     13  C   UNL d   1     -18.792  -0.047   3.320 -0.11 +0.10    +0.073    15.075
ATOM     14  O   UNL d   1     -18.064  -0.116   4.372 -0.05 -0.62    -0.547    15.075
ATOM     15  O   UNL d   1     -20.076  -0.059   3.324 -0.12 -0.89    -0.547    15.075
TER
ENDMDL


AVSFLD: # AVS field file
AVSFLD: #
AVSFLD: # Created by AutoDock
AVSFLD: #
AVSFLD: ndim=2           # number of dimensions in the field
AVSFLD: nspace=1         # number of physical coordinates
AVSFLD: veclen=7         # vector size
AVSFLD: dim1=15          # atoms
AVSFLD: dim2=4           # conformations
AVSFLD: data=Real       # data type (byte,integer,Real,double)
AVSFLD: field=uniform    # field coordinate layout
AVSFLD: label= x y z vdW Elec q RMS
AVSFLD: variable 1 file = D:/Protein_go_brrr/autodock/final/AncMH_nat/2_3_BPG/dock.dlg.pdb filetype = ascii offset = 5 stride = 12
AVSFLD: variable 2 file = D:/Protein_go_brrr/autodock/final/AncMH_nat/2_3_BPG/dock.dlg.pdb filetype = ascii offset = 6 stride = 12
AVSFLD: variable 3 file = D:/Protein_go_brrr/autodock/final/AncMH_nat/2_3_BPG/dock.dlg.pdb filetype = ascii offset = 7 stride = 12
AVSFLD: variable 4 file = D:/Protein_go_brrr/autodock/final/AncMH_nat/2_3_BPG/dock.dlg.pdb filetype = ascii offset = 8 stride = 12
AVSFLD: variable 5 file = D:/Protein_go_brrr/autodock/final/AncMH_nat/2_3_BPG/dock.dlg.pdb filetype = ascii offset = 9 stride = 12
AVSFLD: variable 6 file = D:/Protein_go_brrr/autodock/final/AncMH_nat/2_3_BPG/dock.dlg.pdb filetype = ascii offset = 10 stride = 12
AVSFLD: variable 7 file = D:/Protein_go_brrr/autodock/final/AncMH_nat/2_3_BPG/dock.dlg.pdb filetype = ascii offset = 11 stride = 12
AVSFLD: # end of file

>>> Closing the docking parameter file (DPF)...
This docking finished at:			2:01 56" a.m., 10/02/2025


________________________________________________________________________________

D:/autodockScripts/autodock4.exe: Successful Completion on "ACER"

Real= 7h 24m 26.71s,  CPU= 5m 50.41s,  System= 44.00s
________________________________________________________________________________

