REMARK  6 active torsions:
REMARK  status: ('A' for Active; 'I' for Inactive)
REMARK    1  A    between atoms: P_1  and  O_3 
REMARK    2  A    between atoms: P_2  and  O_4 
REMARK    3  A    between atoms: O_3  and  C_13 
REMARK    4  A    between atoms: O_4  and  C_14 
REMARK    5  A    between atoms: C_13  and  C_14 
REMARK    6  A    between atoms: C_13  and  C_15 
ROOT
ATOM      1  C   UNL d   1      -6.505 -17.915   6.285  0.00  0.00     0.193 C 
ENDROOT
BRANCH   1   2
ATOM      2  O   UNL d   1      -5.968 -17.301   5.065  0.00  0.00    -0.356 OA
BRANCH   2   3
ATOM      3  P   UNL d   1      -5.531 -18.166   3.737  0.00  0.00    -0.014 P 
ATOM      4  O   UNL d   1      -5.796 -19.628   4.127  0.00  0.00    -0.577 OA
ATOM      5  O   UNL d   1      -4.044 -17.909   3.499  0.00  0.00    -0.577 OA
ATOM      6  O   UNL d   1      -6.417 -17.727   2.576  0.00  0.00    -0.638 OA
ENDBRANCH   2   3
ENDBRANCH   1   2
BRANCH   1   7
ATOM      7  C   UNL d   1      -7.825 -18.689   5.922  0.00  0.00     0.201 C 
BRANCH   7   8
ATOM      8  O   UNL d   1      -8.591 -18.149   4.822  0.00  0.00    -0.364 OA
BRANCH   8   9
ATOM      9  P   UNL d   1     -10.117 -17.567   5.081  0.00  0.00    -0.015 P 
ATOM     10  O   UNL d   1     -10.937 -18.050   3.879  0.00  0.00    -0.577 OA
ATOM     11  O   UNL d   1     -10.012 -16.042   5.125  0.00  0.00    -0.577 OA
ATOM     12  O   UNL d   1     -10.614 -18.170   6.394  0.00  0.00    -0.638 OA
ENDBRANCH   8   9
ENDBRANCH   7   8
ENDBRANCH   1   7
BRANCH   1  13
ATOM     13  C   UNL d   1      -6.848 -16.801   7.344  0.00  0.00     0.073 C 
ATOM     14  O   UNL d   1      -6.867 -15.579   6.961  0.00  0.00    -0.547 OA
ATOM     15  O   UNL d   1      -7.153 -17.196   8.527  0.00  0.00    -0.547 OA
ENDBRANCH   1  13
TORSDOF 6
