REMARK  6 active torsions:
REMARK  status: ('A' for Active; 'I' for Inactive)
REMARK    1  A    between atoms: P_1  and  O_3 
REMARK    2  A    between atoms: P_2  and  O_4 
REMARK    3  A    between atoms: O_3  and  C_13 
REMARK    4  A    between atoms: O_4  and  C_14 
REMARK    5  A    between atoms: C_13  and  C_14 
REMARK    6  A    between atoms: C_13  and  C_15 
ROOT
ATOM      1  C   UNL d   1      -8.377 -18.868   4.609  0.00  0.00     0.193 C 
ENDROOT
BRANCH   1   2
ATOM      2  O   UNL d   1      -9.301 -17.839   4.121  0.00  0.00    -0.356 OA
BRANCH   2   3
ATOM      3  P   UNL d   1     -10.671 -17.403   4.920  0.00  0.00    -0.014 P 
ATOM      4  O   UNL d   1     -10.528 -15.886   5.126  0.00  0.00    -0.577 OA
ATOM      5  O   UNL d   1     -10.677 -18.152   6.250  0.00  0.00    -0.577 OA
ATOM      6  O   UNL d   1     -11.863 -17.736   4.028  0.00  0.00    -0.638 OA
ENDBRANCH   2   3
ENDBRANCH   1   2
BRANCH   1   7
ATOM      7  C   UNL d   1      -7.669 -18.336   5.909  0.00  0.00     0.201 C 
BRANCH   7   8
ATOM      8  O   UNL d   1      -8.039 -17.003   6.327  0.00  0.00    -0.364 OA
BRANCH   8   9
ATOM      9  P   UNL d   1      -6.886 -15.964   6.900  0.00  0.00    -0.015 P 
ATOM     10  O   UNL d   1      -7.366 -14.568   6.485  0.00  0.00    -0.577 OA
ATOM     11  O   UNL d   1      -5.570 -16.339   6.220  0.00  0.00    -0.577 OA
ATOM     12  O   UNL d   1      -6.844 -16.128   8.418  0.00  0.00    -0.638 OA
ENDBRANCH   8   9
ENDBRANCH   7   8
ENDBRANCH   1   7
BRANCH   1  13
ATOM     13  C   UNL d   1      -7.278 -19.167   3.523  0.00  0.00     0.073 C 
ATOM     14  O   UNL d   1      -7.077 -20.383   3.174  0.00  0.00    -0.547 OA
ATOM     15  O   UNL d   1      -6.686 -18.154   3.000  0.00  0.00    -0.547 OA
ENDBRANCH   1  13
TORSDOF 6
