REMARK  6 active torsions:
REMARK  status: ('A' for Active; 'I' for Inactive)
REMARK    1  A    between atoms: P_1  and  O_3 
REMARK    2  A    between atoms: P_2  and  O_4 
REMARK    3  A    between atoms: O_3  and  C_13 
REMARK    4  A    between atoms: O_4  and  C_14 
REMARK    5  A    between atoms: C_13  and  C_14 
REMARK    6  A    between atoms: C_13  and  C_15 
ROOT
ATOM      1  C   UNL d   1      -8.447 -18.917   4.470  0.00  0.00     0.193 C 
ENDROOT
BRANCH   1   2
ATOM      2  O   UNL d   1      -9.295 -17.784   4.085  0.00  0.00    -0.356 OA
BRANCH   2   3
ATOM      3  P   UNL d   1     -10.678 -17.381   4.879  0.00  0.00    -0.014 P 
ATOM      4  O   UNL d   1     -10.561 -15.866   5.109  0.00  0.00    -0.577 OA
ATOM      5  O   UNL d   1     -10.683 -18.150   6.199  0.00  0.00    -0.577 OA
ATOM      6  O   UNL d   1     -11.857 -17.720   3.974  0.00  0.00    -0.638 OA
ENDBRANCH   2   3
ENDBRANCH   1   2
BRANCH   1   7
ATOM      7  C   UNL d   1      -7.733 -18.575   5.829  0.00  0.00     0.201 C 
BRANCH   7   8
ATOM      8  O   UNL d   1      -8.053 -17.289   6.403  0.00  0.00    -0.364 OA
BRANCH   8   9
ATOM      9  P   UNL d   1      -6.843 -16.298   6.945  0.00  0.00    -0.015 P 
ATOM     10  O   UNL d   1      -7.269 -14.885   6.528  0.00  0.00    -0.577 OA
ATOM     11  O   UNL d   1      -5.559 -16.738   6.244  0.00  0.00    -0.577 OA
ATOM     12  O   UNL d   1      -6.779 -16.454   8.464  0.00  0.00    -0.638 OA
ENDBRANCH   8   9
ENDBRANCH   7   8
ENDBRANCH   1   7
BRANCH   1  13
ATOM     13  C   UNL d   1      -7.347 -19.165   3.371  0.00  0.00     0.073 C 
ATOM     14  O   UNL d   1      -7.241 -20.337   2.865  0.00  0.00    -0.547 OA
ATOM     15  O   UNL d   1      -6.656 -18.149   2.999  0.00  0.00    -0.547 OA
ENDBRANCH   1  13
TORSDOF 6
