REMARK  6 active torsions:
REMARK  status: ('A' for Active; 'I' for Inactive)
REMARK    1  A    between atoms: P_1  and  O_3 
REMARK    2  A    between atoms: P_2  and  O_4 
REMARK    3  A    between atoms: O_3  and  C_13 
REMARK    4  A    between atoms: O_4  and  C_14 
REMARK    5  A    between atoms: C_13  and  C_14 
REMARK    6  A    between atoms: C_13  and  C_15 
ROOT
ATOM      1  C   UNL d   1      -7.380 -17.985   5.676  0.00  0.00     0.193 C 
ENDROOT
BRANCH   1   2
ATOM      2  O   UNL d   1      -8.569 -18.770   6.026  0.00  0.00    -0.356 OA
BRANCH   2   3
ATOM      3  P   UNL d   1     -10.091 -18.364   5.553  0.00  0.00    -0.014 P 
ATOM      4  O   UNL d   1     -10.951 -18.573   6.810  0.00  0.00    -0.577 OA
ATOM      5  O   UNL d   1     -10.489 -19.324   4.434  0.00  0.00    -0.577 OA
ATOM      6  O   UNL d   1     -10.076 -16.901   5.123  0.00  0.00    -0.638 OA
ENDBRANCH   2   3
ENDBRANCH   1   2
BRANCH   1   7
ATOM      7  C   UNL d   1      -6.172 -18.968   5.458  0.00  0.00     0.201 C 
BRANCH   7   8
ATOM      8  O   UNL d   1      -5.200 -18.564   4.469  0.00  0.00    -0.364 OA
BRANCH   8   9
ATOM      9  P   UNL d   1      -5.688 -18.172   2.938  0.00  0.00    -0.015 P 
ATOM     10  O   UNL d   1      -7.220 -18.182   2.993  0.00  0.00    -0.577 OA
ATOM     11  O   UNL d   1      -5.143 -19.254   2.006  0.00  0.00    -0.577 OA
ATOM     12  O   UNL d   1      -5.134 -16.782   2.629  0.00  0.00    -0.638 OA
ENDBRANCH   8   9
ENDBRANCH   7   8
ENDBRANCH   1   7
BRANCH   1  13
ATOM     13  C   UNL d   1      -7.022 -16.996   6.847  0.00  0.00     0.073 C 
ATOM     14  O   UNL d   1      -7.267 -17.360   8.051  0.00  0.00    -0.547 OA
ATOM     15  O   UNL d   1      -6.440 -15.898   6.525  0.00  0.00    -0.547 OA
ENDBRANCH   1  13
TORSDOF 6
