REMARK  6 active torsions:
REMARK  status: ('A' for Active; 'I' for Inactive)
REMARK    1  A    between atoms: P_1  and  O_3 
REMARK    2  A    between atoms: P_2  and  O_4 
REMARK    3  A    between atoms: O_3  and  C_13 
REMARK    4  A    between atoms: O_4  and  C_14 
REMARK    5  A    between atoms: C_13  and  C_14 
REMARK    6  A    between atoms: C_13  and  C_15 
ROOT
ATOM      1  C   UNL d   1      -8.233 -18.856   4.902  0.00  0.00     0.193 C 
ENDROOT
BRANCH   1   2
ATOM      2  O   UNL d   1      -9.238 -17.992   4.273  0.00  0.00    -0.356 OA
BRANCH   2   3
ATOM      3  P   UNL d   1     -10.609 -17.498   5.035  0.00  0.00    -0.014 P 
ATOM      4  O   UNL d   1     -11.748 -17.969   4.118  0.00  0.00    -0.577 OA
ATOM      5  O   UNL d   1     -10.553 -15.974   5.124  0.00  0.00    -0.577 OA
ATOM      6  O   UNL d   1     -10.665 -18.184   6.396  0.00  0.00    -0.638 OA
ENDBRANCH   2   3
ENDBRANCH   1   2
BRANCH   1   7
ATOM      7  C   UNL d   1      -7.777 -18.197   6.256  0.00  0.00     0.201 C 
BRANCH   7   8
ATOM      8  O   UNL d   1      -8.024 -16.779   6.381  0.00  0.00    -0.364 OA
BRANCH   8   9
ATOM      9  P   UNL d   1      -6.886 -15.796   7.071  0.00  0.00    -0.015 P 
ATOM     10  O   UNL d   1      -7.387 -14.369   6.819  0.00  0.00    -0.577 OA
ATOM     11  O   UNL d   1      -5.565 -16.072   6.355  0.00  0.00    -0.577 OA
ATOM     12  O   UNL d   1      -6.841 -16.134   8.561  0.00  0.00    -0.638 OA
ENDBRANCH   8   9
ENDBRANCH   7   8
ENDBRANCH   1   7
BRANCH   1  13
ATOM     13  C   UNL d   1      -6.979 -18.998   3.962  0.00  0.00     0.073 C 
ATOM     14  O   UNL d   1      -6.175 -19.976   4.160  0.00  0.00    -0.547 OA
ATOM     15  O   UNL d   1      -6.870 -18.152   3.003  0.00  0.00    -0.547 OA
ENDBRANCH   1  13
TORSDOF 6
