REMARK  6 active torsions:
REMARK  status: ('A' for Active; 'I' for Inactive)
REMARK    1  A    between atoms: P_1  and  O_3 
REMARK    2  A    between atoms: P_2  and  O_4 
REMARK    3  A    between atoms: O_3  and  C_13 
REMARK    4  A    between atoms: O_4  and  C_14 
REMARK    5  A    between atoms: C_13  and  C_14 
REMARK    6  A    between atoms: C_13  and  C_15 
ROOT
ATOM      1  C   UNL d   1      -7.187 -18.029   5.677  0.00  0.00     0.193 C 
ENDROOT
BRANCH   1   2
ATOM      2  O   UNL d   1      -8.389 -18.820   5.965  0.00  0.00    -0.356 OA
BRANCH   2   3
ATOM      3  P   UNL d   1      -9.905 -18.344   5.541  0.00  0.00    -0.014 P 
ATOM      4  O   UNL d   1     -10.746 -18.575   6.806  0.00  0.00    -0.577 OA
ATOM      5  O   UNL d   1     -10.357 -19.245   4.394  0.00  0.00    -0.577 OA
ATOM      6  O   UNL d   1      -9.848 -16.867   5.168  0.00  0.00    -0.638 OA
ENDBRANCH   2   3
ENDBRANCH   1   2
BRANCH   1   7
ATOM      7  C   UNL d   1      -5.981 -19.012   5.438  0.00  0.00     0.201 C 
BRANCH   7   8
ATOM      8  O   UNL d   1      -5.034 -18.613   4.422  0.00  0.00    -0.364 OA
BRANCH   8   9
ATOM      9  P   UNL d   1      -5.569 -18.137   2.931  0.00  0.00    -0.015 P 
ATOM     10  O   UNL d   1      -7.096 -18.262   2.995  0.00  0.00    -0.577 OA
ATOM     11  O   UNL d   1      -4.960 -19.100   1.911  0.00  0.00    -0.577 OA
ATOM     12  O   UNL d   1      -5.119 -16.691   2.730  0.00  0.00    -0.638 OA
ENDBRANCH   8   9
ENDBRANCH   7   8
ENDBRANCH   1   7
BRANCH   1  13
ATOM     13  C   UNL d   1      -6.845 -17.100   6.901  0.00  0.00     0.073 C 
ATOM     14  O   UNL d   1      -7.205 -17.476   8.072  0.00  0.00    -0.547 OA
ATOM     15  O   UNL d   1      -6.164 -16.040   6.656  0.00  0.00    -0.547 OA
ENDBRANCH   1  13
TORSDOF 6
