REMARK  6 active torsions:
REMARK  status: ('A' for Active; 'I' for Inactive)
REMARK    1  A    between atoms: P_1  and  O_3 
REMARK    2  A    between atoms: P_2  and  O_4 
REMARK    3  A    between atoms: O_3  and  C_13 
REMARK    4  A    between atoms: O_4  and  C_14 
REMARK    5  A    between atoms: C_13  and  C_14 
REMARK    6  A    between atoms: C_13  and  C_15 
ROOT
ATOM      1  C   UNL d   1      -8.314 -18.807   4.758  0.00  0.00     0.193 C 
ENDROOT
BRANCH   1   2
ATOM      2  O   UNL d   1      -9.286 -17.832   4.252  0.00  0.00    -0.356 OA
BRANCH   2   3
ATOM      3  P   UNL d   1     -10.686 -17.463   5.032  0.00  0.00    -0.014 P 
ATOM      4  O   UNL d   1     -11.790 -18.032   4.128  0.00  0.00    -0.577 OA
ATOM      5  O   UNL d   1     -10.765 -15.941   5.125  0.00  0.00    -0.577 OA
ATOM      6  O   UNL d   1     -10.664 -18.155   6.392  0.00  0.00    -0.638 OA
ENDBRANCH   2   3
ENDBRANCH   1   2
BRANCH   1   7
ATOM      7  C   UNL d   1      -7.564 -18.180   5.990  0.00  0.00     0.201 C 
BRANCH   7   8
ATOM      8  O   UNL d   1      -8.011 -16.868   6.399  0.00  0.00    -0.364 OA
BRANCH   8   9
ATOM      9  P   UNL d   1      -6.923 -15.762   6.973  0.00  0.00    -0.015 P 
ATOM     10  O   UNL d   1      -6.845 -16.025   8.481  0.00  0.00    -0.577 OA
ATOM     11  O   UNL d   1      -7.489 -14.377   6.663  0.00  0.00    -0.577 OA
ATOM     12  O   UNL d   1      -5.592 -16.034   6.273  0.00  0.00    -0.638 OA
ENDBRANCH   8   9
ENDBRANCH   7   8
ENDBRANCH   1   7
BRANCH   1  13
ATOM     13  C   UNL d   1      -7.257 -19.145   3.642  0.00  0.00     0.073 C 
ATOM     14  O   UNL d   1      -7.005 -20.375   3.391  0.00  0.00    -0.547 OA
ATOM     15  O   UNL d   1      -6.752 -18.155   3.000  0.00  0.00    -0.547 OA
ENDBRANCH   1  13
TORSDOF 6
