          AutoDock 4.2 Release 4.2.6   
         (C) 1989-2012 The Scripps Research Institute
        AutoDock comes with ABSOLUTELY NO WARRANTY.
        AutoDock is free software, and you are welcome
        to redistribute it under certain conditions;
        for details type 'autodock4 -C'

                     main.cc  $Revision: 1.213 $

                   Compiled on Jul 18 2014 at 15:34:58


This file was created at:			12:54 49" p.m., 09/30/2025
                   on host:		"ACER"
Current Working Directory = "D:\Protein_go_brrr\autodock\final\AncB\2_3_BPG"

      ________________________________________________________________

                   SETTING UP DEFAULT PARAMETER LIBRARY
      ________________________________________________________________


Random number generator was seeded with values 15652, 1759229689.
Docking parameter file (DPF) used for this docking:		D:/Protein_go_brrr/autodock/final/AncB/2_3_BPG/dock.dpf
DPF> autodock_parameter_version 4.2       # used by autodock to validate parameter set

	Autodock parameter version 4.2.
DPF> outlev 1                             # diagnostic output level

Output Level = 1  ADT-COMPATIBLE OUTPUT DURING DOCKING.
DPF> intelec                              # calculate internal electrostatics

Electrostatic energies will be calculated for all non-bonds between moving atoms.
DPF> seed pid time                        # seeds for random generator

Random number generator was seeded with values 15652, 1759229689.
DPF> ligand_types P C OA                  # atoms types in ligand

DPF> fld opt_AncB.maps.fld                # grid_data_file

Opening Grid Map Dimensions file:		opt_AncB.maps.fld
Grid Point Spacing =				0.425 Angstroms

Even Number of User-specified Grid Points =	126 x-points
						126 y-points
						126 z-points

Coordinates of Central Grid Point of Maps =	(-0.470, 0.127, 0.025)
Macromolecule file used to create Grid Maps =	opt_AncB.pdbqt
Grid Parameter file used to create Grid Maps =	D:/Protein_go_brrr/autodock/final/AncB/2_3_BPG/grid.gpf
Minimum coordinates in grid = (-27.245, -26.648, -26.750)
Maximum coordinates in grid = (26.305, 26.902, 26.800)

DPF> map opt_AncB.P.map                   # atom-specific affinity map

DPF> map opt_AncB.C.map                   # atom-specific affinity map

DPF> map opt_AncB.OA.map                  # atom-specific affinity map

DPF> elecmap opt_AncB.e.map               # electrostatics map

DPF> desolvmap opt_AncB.d.map             # desolvation map

DPF> move 2_3_BPG_opt.pdbqt               # small molecule

1,4-interactions will be _ignored_ in the non-bonded internal energy calculation.

Ligand PDBQT file = "2_3_BPG_opt.pdbqt"

INPUT LIGAND PDBQT FILE:
________________________

INPUT-LIGAND-PDBQT: REMARK  6 active torsions:
INPUT-LIGAND-PDBQT: REMARK  status: ('A' for Active; 'I' for Inactive)
INPUT-LIGAND-PDBQT: REMARK    1  A    between atoms: P_1  and  O_3 
INPUT-LIGAND-PDBQT: REMARK    2  A    between atoms: P_2  and  O_4 
INPUT-LIGAND-PDBQT: REMARK    3  A    between atoms: O_3  and  C_13 
INPUT-LIGAND-PDBQT: REMARK    4  A    between atoms: O_4  and  C_14 
INPUT-LIGAND-PDBQT: REMARK    5  A    between atoms: C_13  and  C_14 
INPUT-LIGAND-PDBQT: REMARK    6  A    between atoms: C_13  and  C_15 
INPUT-LIGAND-PDBQT: ROOT
INPUT-LIGAND-PDBQT: ATOM      1  C   UNL d   1      -0.571  -0.229   0.124  0.00  0.00     0.193 C 
INPUT-LIGAND-PDBQT: ENDROOT
INPUT-LIGAND-PDBQT: BRANCH   1   2
INPUT-LIGAND-PDBQT: ATOM      2  O   UNL d   1      -1.621   0.569  -0.519  0.00  0.00    -0.356 OA
INPUT-LIGAND-PDBQT: BRANCH   2   3
INPUT-LIGAND-PDBQT: ATOM      3  P   UNL d   1      -3.039   0.957   0.218  0.00  0.00    -0.014 P 
INPUT-LIGAND-PDBQT: ATOM      4  O   UNL d   1      -3.756   1.871  -0.788  0.00  0.00    -0.577 OA
INPUT-LIGAND-PDBQT: ATOM      5  O   UNL d   1      -2.691   1.702   1.505  0.00  0.00    -0.577 OA
INPUT-LIGAND-PDBQT: ATOM      6  O   UNL d   1      -3.816  -0.334   0.454  0.00  0.00    -0.638 OA
INPUT-LIGAND-PDBQT: ENDBRANCH   2   3
INPUT-LIGAND-PDBQT: ENDBRANCH   1   2
INPUT-LIGAND-PDBQT: BRANCH   1   7
INPUT-LIGAND-PDBQT: ATOM      7  C   UNL d   1       0.831   0.324  -0.327  0.00  0.00     0.201 C 
INPUT-LIGAND-PDBQT: BRANCH   7   8
INPUT-LIGAND-PDBQT: ATOM      8  O   UNL d   1       1.946  -0.012   0.528  0.00  0.00    -0.364 OA
INPUT-LIGAND-PDBQT: BRANCH   8   9
INPUT-LIGAND-PDBQT: ATOM      9  P   UNL d   1       3.455   0.578   0.194  0.00  0.00    -0.015 P 
INPUT-LIGAND-PDBQT: ATOM     10  O   UNL d   1       4.367  -0.029   1.267  0.00  0.00    -0.577 OA
INPUT-LIGAND-PDBQT: ATOM     11  O   UNL d   1       3.374   2.100   0.308  0.00  0.00    -0.577 OA
INPUT-LIGAND-PDBQT: ATOM     12  O   UNL d   1       3.825   0.102  -1.210  0.00  0.00    -0.638 OA
INPUT-LIGAND-PDBQT: ENDBRANCH   8   9
INPUT-LIGAND-PDBQT: ENDBRANCH   7   8
INPUT-LIGAND-PDBQT: ENDBRANCH   1   7
INPUT-LIGAND-PDBQT: BRANCH   1  13
INPUT-LIGAND-PDBQT: ATOM     13  C   UNL d   1      -0.687  -1.734  -0.323  0.00  0.00     0.073 C 
INPUT-LIGAND-PDBQT: ATOM     14  O   UNL d   1      -0.704  -2.000  -1.576  0.00  0.00    -0.547 OA
INPUT-LIGAND-PDBQT: ATOM     15  O   UNL d   1      -0.694  -2.619   0.607  0.00  0.00    -0.547 OA
INPUT-LIGAND-PDBQT: ENDBRANCH   1  13
INPUT-LIGAND-PDBQT: TORSDOF 6
________________________________________________________________________________

Total charge on ligand                               =	-4.960 e
REMARK  6 active torsions:
REMARK  status: ('A' for Active; 'I' for Inactive)
REMARK    1  A    between atoms: P_1  and  O_3 
REMARK    2  A    between atoms: P_2  and  O_4 
REMARK    3  A    between atoms: O_3  and  C_13 
REMARK    4  A    between atoms: O_4  and  C_14 
REMARK    5  A    between atoms: C_13  and  C_14 
REMARK    6  A    between atoms: C_13  and  C_15 


Number of Rotatable Bonds in Small Molecule =	6 torsions
Number of atoms in ligand:  15

Number of non-hydrogen atoms in ligand:  15

Number of vibrational degrees of freedom of ligand:  39


Number of torsional degrees of freedom = 6
Estimated loss of torsional free energy upon binding = +1.7898 kcal/mol


DPF> about 0.015 0.083 0.031            # small molecule center

Small molecule center of rotation =	(+0.015, +0.083, +0.031)

DPF> tran0 random                         # initial coordinates/A or random

Initial translation =			(-16.999, -11.530, 20.175) Angstroms
DPF> quaternion0 random                   # initial orientation

Each run will begin with a new, random initial orientation.
Initial quaternion,  (x,y,z,w) =	( -0.383, 0.207, -0.880, -0.188 ),
DPF> dihe0 random                         # initial dihedrals (relative) or random

DPF> torsdof 6                            # torsional degrees of freedom

Number of torsional degrees of freedom = 6
Free energy coefficient for torsional degrees of freedom = 0.2983, the factory default value.

Estimated loss of torsional free energy upon binding = +1.7898 kcal/mol

DPF> rmstol 2.0                           # cluster_tolerance/A

Maximum RMS tolerance for conformational cluster analysis = 2.00 Angstroms
DPF> extnrg 1000.0                        # external grid energy

External grid energy (beyond grid map walls) = 1000.00

DPF> e0max 0.0 10000                      # max initial energy; max number of retries

Using user-specified maximum number of retries for simanneal initialization, 10000 retries.
If the simanneal initial energy is greater than e0max, 0.000,
then a new, random initial state will be created.

DPF> ga_pop_size 150                      # number of individuals in population

A population of 150 individuals will be used
DPF> ga_num_evals 25000000                # maximum number of energy evaluations

There will be at most 25000000 function evaluations used.
DPF> ga_num_generations 27000             # maximum number of generations

The GA will run for at most 27000 generations.
DPF> ga_elitism 1                         # number of top individuals to survive to next generation

The 1 best will be preserved each GA generation.
DPF> ga_mutation_rate 0.02                # rate of gene mutation

The mutation rate is 0.020000.
DPF> ga_crossover_rate 0.8                # rate of crossover

The crossover rate is 0.800000.
DPF> ga_window_size 10                    # 

The GA's selection window is 10 generations.
DPF> ga_cauchy_alpha 0.0                  # Alpha parameter of Cauchy distribution

The alpha parameter (for the Cauchy distribution) is being set to 0.000000.
DPF> ga_cauchy_beta 1.0                   # Beta parameter Cauchy distribution

The beta parameter (for the Cauchy distribution) is being set to 1.000000.
DPF> set_ga                               # set the above parameters for GA or LGA

DPF> sw_max_its 300                       # iterations of Solis & Wets local search

Solis & Wets algorithms will perform at most 300 iterations.
DPF> sw_max_succ 4                        # consecutive successes before changing rho

Solis & Wets algorithms expand rho every 4 in a row successes.
DPF> sw_max_fail 4                        # consecutive failures before changing rho

Solis & Wets algorithms contract rho every 4 in a row failures.
DPF> sw_rho 1.0                           # size of local search space to sample

rho is set to 1.000000.
DPF> sw_lb_rho 0.01                       # lower bound on rho

rho will never get smaller than 0.010000.
DPF> ls_search_freq 0.06                  # probability of performing local search on individual

Local search will be performed with frequency 0.060000.
DPF> set_psw1                             # set the above pseudo-Solis & Wets parameters

Creating a new Local Search object using the pseudo-Solis-Wets algorithm (pSW1) with the current settings.

DPF> unbound_model bound                  # state of unbound ligand

DPF> ga_run 100                           # do this many hybrid GA-LS runs

centering ligand on specified point: 0.015 0.083 0.031
Furthest true ligand atom from "about" center is 4.525 Angstroms (maxrad).
Number of requested GA dockings = 100 runs
Unbound model to be used is 'same as bound' [AutoDock 4.2 default].

	BEGINNING GENETIC ALGORITHM DOCKING 1 of 100
Run: 1 Seed: 1154964373 2138125717 [ Run 1 of 100 GA/GALS ]
Beginning LAMARCKIAN GENETIC ALGORITHM (LGA), with a maximum of 25000000 energy evaluations.

Final-Value: -10.212


	FINAL GENETIC ALGORITHM DOCKED STATE
	_______________________________________________


Detailed state:  trans -9.406 -18.822 2.579 quatxyzw 0.509073 -0.619844 -0.461819 0.378630 center 0.015 0.083 0.031 ntor 6 21.3076 -19.8723 16.3855 6.0487 -39.0322 -28.6606
State:	 -9.406 -18.822   2.579   0.550 -0.670 -0.499 135.502     21.31  -19.87   16.39    6.05  -39.03  -28.66

DOCKED: MODEL        1
DOCKED: USER    Run = 1
DOCKED: USER    DPF = D:/Protein_go_brrr/autodock/final/AncB/2_3_BPG/dock.dpf
DOCKED: USER  
DOCKED: USER    Estimated Free Energy of Binding    =  -10.40 kcal/mol  [=(1)+(2)+(3)-(4)]
DOCKED: USER    Estimated Inhibition Constant, Ki   =   23.94 nM (nanomolar)  [Temperature = 298.15 K]
DOCKED: USER    
DOCKED: USER    (1) Final Intermolecular Energy     =  -12.19 kcal/mol
DOCKED: USER        vdW + Hbond + desolv Energy     =   -3.05 kcal/mol
DOCKED: USER        Electrostatic Energy            =   -9.14 kcal/mol
DOCKED: USER    (2) Final Total Internal Energy     =   +1.97 kcal/mol
DOCKED: USER    (3) Torsional Free Energy           =   +1.79 kcal/mol
DOCKED: USER    (4) Unbound System's Energy  [=(2)] =   +1.97 kcal/mol
DOCKED: USER    
DOCKED: USER    
DOCKED: USER    NEWDPF move 2_3_BPG_opt.pdbqt
DOCKED: USER    NEWDPF about 0.015000 0.083000 0.031000
DOCKED: USER    NEWDPF tran0 -9.405639 -18.822106 2.579477
DOCKED: USER    NEWDPF quaternion0 0.509073 -0.619844 -0.461819 0.378630
DOCKED: USER    NEWDPF axisangle0 0.550023 -0.669705 -0.498969 135.502285
DOCKED: USER    NEWDPF quat0 0.550023 -0.669705 -0.498969 135.502285
DOCKED: USER    NEWDPF dihe0 21.31 -19.87 16.39 6.05 -39.03 -28.66 
DOCKED: USER  keepresnum = 1 
DOCKED: USER  
DOCKED: REMARK  6 active torsions:
DOCKED: REMARK  status: ('A' for Active; 'I' for Inactive)
DOCKED: REMARK    1  A    between atoms: P_1  and  O_3 
DOCKED: REMARK    2  A    between atoms: P_2  and  O_4 
DOCKED: REMARK    3  A    between atoms: O_3  and  C_13 
DOCKED: REMARK    4  A    between atoms: O_4  and  C_14 
DOCKED: REMARK    5  A    between atoms: C_13  and  C_14 
DOCKED: REMARK    6  A    between atoms: C_13  and  C_15 
DOCKED: USER                              x       y       z     vdW  Elec       q    Type
DOCKED: USER                           _______ _______ _______ _____ _____    ______ ____
DOCKED: ROOT
DOCKED: ATOM      1  C   UNL d   1      -8.985 -18.585   3.045 -0.12 +0.36    +0.193 C 
DOCKED: ENDROOT
DOCKED: BRANCH   1   2
DOCKED: ATOM      2  O   UNL d   1      -9.563 -18.862   4.365 -0.08 -0.55    -0.356 OA
DOCKED: BRANCH   2   3
DOCKED: ATOM      3  P   UNL d   1      -9.799 -17.703   5.508 -0.02 -0.03    -0.014 P 
DOCKED: ATOM      4  O   UNL d   1     -10.919 -18.266   6.398 -0.49 -1.29    -0.577 OA
DOCKED: ATOM      5  O   UNL d   1     -10.243 -16.435   4.781 -0.67 -1.47    -0.577 OA
DOCKED: ATOM      6  O   UNL d   1      -8.498 -17.535   6.285 +0.08 -1.91    -0.638 OA
DOCKED: ENDBRANCH   2   3
DOCKED: ENDBRANCH   1   2
DOCKED: BRANCH   1   7
DOCKED: ATOM      7  C   UNL d   1      -9.801 -19.381   1.960 -0.05 +0.26    +0.201 C 
DOCKED: BRANCH   7   8
DOCKED: ATOM      8  O   UNL d   1     -10.233 -18.619   0.812 -0.40 -0.54    -0.364 OA
DOCKED: BRANCH   8   9
DOCKED: ATOM      9  P   UNL d   1     -10.265 -19.322  -0.686 -0.02 -0.02    -0.015 P 
DOCKED: ATOM     10  O   UNL d   1     -10.298 -18.151  -1.675 -0.50 -0.82    -0.577 OA
DOCKED: ATOM     11  O   UNL d   1     -11.538 -20.165  -0.756 +0.01 -0.36    -0.577 OA
DOCKED: ATOM     12  O   UNL d   1      -8.989 -20.152  -0.822 -0.36 -0.85    -0.638 OA
DOCKED: ENDBRANCH   8   9
DOCKED: ENDBRANCH   7   8
DOCKED: ENDBRANCH   1   7
DOCKED: BRANCH   1  13
DOCKED: ATOM     13  C   UNL d   1      -7.486 -19.064   3.001 -0.02 +0.13    +0.073 C 
DOCKED: ATOM     14  O   UNL d   1      -7.248 -20.319   2.913 -0.01 -0.62    -0.547 OA
DOCKED: ATOM     15  O   UNL d   1      -6.584 -18.151   2.991 -0.39 -1.42    -0.547 OA
DOCKED: ENDBRANCH   1  13
DOCKED: TORSDOF 6
DOCKED: TER
DOCKED: ENDMDL
________________________________________________________________________________


	BEGINNING GENETIC ALGORITHM DOCKING 2 of 100
Run: 2 Seed: 410900005 606249348 [ Run 2 of 100 GA/GALS ]
Beginning LAMARCKIAN GENETIC ALGORITHM (LGA), with a maximum of 25000000 energy evaluations.

Final-Value: -10.559


	FINAL GENETIC ALGORITHM DOCKED STATE
	_______________________________________________


Detailed state:  trans -6.413 -18.177 5.650 quatxyzw 0.962065 -0.026305 -0.103917 0.250880 center 0.015 0.083 0.031 ntor 6 150.1186 -64.7927 111.1161 -10.9245 -136.6320 -73.6467
State:	 -6.413 -18.177   5.650   0.994 -0.027 -0.107 150.941    150.12  -64.79  111.12  -10.92 -136.63  -73.65

DOCKED: MODEL        2
DOCKED: USER    Run = 2
DOCKED: USER    DPF = D:/Protein_go_brrr/autodock/final/AncB/2_3_BPG/dock.dpf
DOCKED: USER  
DOCKED: USER    Estimated Free Energy of Binding    =  -11.44 kcal/mol  [=(1)+(2)+(3)-(4)]
DOCKED: USER    Estimated Inhibition Constant, Ki   =    4.14 nM (nanomolar)  [Temperature = 298.15 K]
DOCKED: USER    
DOCKED: USER    (1) Final Intermolecular Energy     =  -13.23 kcal/mol
DOCKED: USER        vdW + Hbond + desolv Energy     =   -2.98 kcal/mol
DOCKED: USER        Electrostatic Energy            =  -10.25 kcal/mol
DOCKED: USER    (2) Final Total Internal Energy     =   +2.67 kcal/mol
DOCKED: USER    (3) Torsional Free Energy           =   +1.79 kcal/mol
DOCKED: USER    (4) Unbound System's Energy  [=(2)] =   +2.67 kcal/mol
DOCKED: USER    
DOCKED: USER    
DOCKED: USER    NEWDPF move 2_3_BPG_opt.pdbqt
DOCKED: USER    NEWDPF about 0.015000 0.083000 0.031000
DOCKED: USER    NEWDPF tran0 -6.412605 -18.177317 5.649525
DOCKED: USER    NEWDPF quaternion0 0.962065 -0.026305 -0.103917 0.250880
DOCKED: USER    NEWDPF axisangle0 0.993850 -0.027174 -0.107351 150.940851
DOCKED: USER    NEWDPF quat0 0.993850 -0.027174 -0.107351 150.940851
DOCKED: USER    NEWDPF dihe0 150.12 -64.79 111.12 -10.92 -136.63 -73.65 
DOCKED: USER  keepresnum = 1 
DOCKED: USER  
DOCKED: REMARK  6 active torsions:
DOCKED: REMARK  status: ('A' for Active; 'I' for Inactive)
DOCKED: REMARK    1  A    between atoms: P_1  and  O_3 
DOCKED: REMARK    2  A    between atoms: P_2  and  O_4 
DOCKED: REMARK    3  A    between atoms: O_3  and  C_13 
DOCKED: REMARK    4  A    between atoms: O_4  and  C_14 
DOCKED: REMARK    5  A    between atoms: C_13  and  C_14 
DOCKED: REMARK    6  A    between atoms: C_13  and  C_15 
DOCKED: USER                              x       y       z     vdW  Elec       q    Type
DOCKED: USER                           _______ _______ _______ _____ _____    ______ ____
DOCKED: ROOT
DOCKED: ATOM      1  C   UNL d   1      -6.970 -17.861   5.844 +0.13 +0.42    +0.193 C 
DOCKED: ENDROOT
DOCKED: BRANCH   1   2
DOCKED: ATOM      2  O   UNL d   1      -7.958 -18.872   6.235 -0.06 -0.60    -0.356 OA
DOCKED: BRANCH   2   3
DOCKED: ATOM      3  P   UNL d   1      -9.570 -18.721   5.944 -0.06 -0.03    -0.014 P 
DOCKED: ATOM      4  O   UNL d   1      -9.870 -19.793   4.885 +0.02 -0.63    -0.577 OA
DOCKED: ATOM      5  O   UNL d   1      -9.801 -17.313   5.400 -0.55 -1.54    -0.577 OA
DOCKED: ATOM      6  O   UNL d   1     -10.312 -18.998   7.248 -0.46 -1.48    -0.638 OA
DOCKED: ENDBRANCH   2   3
DOCKED: ENDBRANCH   1   2
DOCKED: BRANCH   1   7
DOCKED: ATOM      7  C   UNL d   1      -5.573 -18.561   5.666 -0.03 +0.24    +0.201 C 
DOCKED: BRANCH   7   8
DOCKED: ATOM      8  O   UNL d   1      -5.321 -19.145   4.368 -0.01 -0.41    -0.364 OA
DOCKED: BRANCH   8   9
DOCKED: ATOM      9  P   UNL d   1      -5.659 -18.288   2.994 -0.10 -0.03    -0.015 P 
DOCKED: ATOM     10  O   UNL d   1      -7.186 -18.148   2.976 -0.22 -1.62    -0.577 OA
DOCKED: ATOM     11  O   UNL d   1      -5.148 -19.117   1.815 -0.45 -0.93    -0.577 OA
DOCKED: ATOM     12  O   UNL d   1      -4.960 -16.935   3.122 -0.16 -1.25    -0.638 OA
DOCKED: ENDBRANCH   8   9
DOCKED: ENDBRANCH   7   8
DOCKED: ENDBRANCH   1   7
DOCKED: BRANCH   1  13
DOCKED: ATOM     13  C   UNL d   1      -6.846 -16.765   6.968 -0.11 +0.16    +0.073 C 
DOCKED: ATOM     14  O   UNL d   1      -6.417 -15.603   6.644 -0.52 -1.21    -0.547 OA
DOCKED: ATOM     15  O   UNL d   1      -7.246 -17.090   8.144 -0.39 -1.35    -0.547 OA
DOCKED: ENDBRANCH   1  13
DOCKED: TORSDOF 6
DOCKED: TER
DOCKED: ENDMDL
________________________________________________________________________________


	BEGINNING GENETIC ALGORITHM DOCKING 3 of 100
Run: 3 Seed: 1881804272 1780109290 [ Run 3 of 100 GA/GALS ]
Beginning LAMARCKIAN GENETIC ALGORITHM (LGA), with a maximum of 25000000 energy evaluations.

Final-Value: -9.603


	FINAL GENETIC ALGORITHM DOCKED STATE
	_______________________________________________


Detailed state:  trans -8.550 -18.963 4.985 quatxyzw 0.076739 -0.482159 0.416906 0.766696 center 0.015 0.083 0.031 ntor 6 85.7005 -0.1356 -101.3449 -152.5534 -91.8560 -120.1526
State:	 -8.550 -18.963   4.985   0.120 -0.751  0.649 79.884     85.70   -0.14 -101.34 -152.55  -91.86 -120.15

DOCKED: MODEL        3
DOCKED: USER    Run = 3
DOCKED: USER    DPF = D:/Protein_go_brrr/autodock/final/AncB/2_3_BPG/dock.dpf
DOCKED: USER  
DOCKED: USER    Estimated Free Energy of Binding    =  -10.62 kcal/mol  [=(1)+(2)+(3)-(4)]
DOCKED: USER    Estimated Inhibition Constant, Ki   =   16.34 nM (nanomolar)  [Temperature = 298.15 K]
DOCKED: USER    
DOCKED: USER    (1) Final Intermolecular Energy     =  -12.41 kcal/mol
DOCKED: USER        vdW + Hbond + desolv Energy     =   -2.62 kcal/mol
DOCKED: USER        Electrostatic Energy            =   -9.79 kcal/mol
DOCKED: USER    (2) Final Total Internal Energy     =   +2.81 kcal/mol
DOCKED: USER    (3) Torsional Free Energy           =   +1.79 kcal/mol
DOCKED: USER    (4) Unbound System's Energy  [=(2)] =   +2.81 kcal/mol
DOCKED: USER    
DOCKED: USER    
DOCKED: USER    NEWDPF move 2_3_BPG_opt.pdbqt
DOCKED: USER    NEWDPF about 0.015000 0.083000 0.031000
DOCKED: USER    NEWDPF tran0 -8.550385 -18.963220 4.984897
DOCKED: USER    NEWDPF quaternion0 0.076739 -0.482159 0.416906 0.766696
DOCKED: USER    NEWDPF axisangle0 0.119529 -0.751015 0.649376 79.883812
DOCKED: USER    NEWDPF quat0 0.119529 -0.751015 0.649376 79.883812
DOCKED: USER    NEWDPF dihe0 85.70 -0.14 -101.34 -152.55 -91.86 -120.15 
DOCKED: USER  keepresnum = 1 
DOCKED: USER  
DOCKED: REMARK  6 active torsions:
DOCKED: REMARK  status: ('A' for Active; 'I' for Inactive)
DOCKED: REMARK    1  A    between atoms: P_1  and  O_3 
DOCKED: REMARK    2  A    between atoms: P_2  and  O_4 
DOCKED: REMARK    3  A    between atoms: O_3  and  C_13 
DOCKED: REMARK    4  A    between atoms: O_4  and  C_14 
DOCKED: REMARK    5  A    between atoms: C_13  and  C_14 
DOCKED: REMARK    6  A    between atoms: C_13  and  C_15 
DOCKED: USER                              x       y       z     vdW  Elec       q    Type
DOCKED: USER                           _______ _______ _______ _____ _____    ______ ____
DOCKED: ROOT
DOCKED: ATOM      1  C   UNL d   1      -8.762 -18.772   5.591 -0.10 +0.35    +0.193 C 
DOCKED: ENDROOT
DOCKED: BRANCH   1   2
DOCKED: ATOM      2  O   UNL d   1      -9.024 -17.329   5.549 -0.35 -1.10    -0.356 OA
DOCKED: BRANCH   2   3
DOCKED: ATOM      3  P   UNL d   1     -10.344 -16.672   4.821 +0.21 -0.03    -0.014 P 
DOCKED: ATOM      4  O   UNL d   1     -10.242 -15.169   5.126 -0.35 -1.36    -0.577 OA
DOCKED: ATOM      5  O   UNL d   1     -11.577 -17.294   5.473 -0.12 -0.94    -0.577 OA
DOCKED: ATOM      6  O   UNL d   1     -10.243 -16.948   3.325 -0.32 -1.30    -0.638 OA
DOCKED: ENDBRANCH   2   3
DOCKED: ENDBRANCH   1   2
DOCKED: BRANCH   1   7
DOCKED: ATOM      7  C   UNL d   1      -8.549 -19.289   4.121 -0.08 +0.30    +0.201 C 
DOCKED: BRANCH   7   8
DOCKED: ATOM      8  O   UNL d   1      -7.799 -18.416   3.248 -0.16 -0.88    -0.364 OA
DOCKED: BRANCH   8   9
DOCKED: ATOM      9  P   UNL d   1      -6.157 -18.575   3.126 -0.05 -0.03    -0.015 P 
DOCKED: ATOM     10  O   UNL d   1      -5.941 -19.740   2.153 -0.29 -0.85    -0.577 OA
DOCKED: ATOM     11  O   UNL d   1      -5.635 -18.896   4.526 +0.01 -0.75    -0.577 OA
DOCKED: ATOM     12  O   UNL d   1      -5.616 -17.257   2.573 -0.42 -1.65    -0.638 OA
DOCKED: ENDBRANCH   8   9
DOCKED: ENDBRANCH   7   8
DOCKED: ENDBRANCH   1   7
DOCKED: BRANCH   1  13
DOCKED: ATOM     13  C   UNL d   1      -9.993 -19.526   6.218 -0.09 +0.10    +0.073 C 
DOCKED: ATOM     14  O   UNL d   1     -10.360 -20.637   5.696 +0.02 -0.45    -0.547 OA
DOCKED: ATOM     15  O   UNL d   1     -10.523 -19.006   7.266 -0.52 -1.22    -0.547 OA
DOCKED: ENDBRANCH   1  13
DOCKED: TORSDOF 6
DOCKED: TER
DOCKED: ENDMDL
________________________________________________________________________________


	BEGINNING GENETIC ALGORITHM DOCKING 4 of 100
Run: 4 Seed: 1739438585 1538827800 [ Run 4 of 100 GA/GALS ]
Beginning LAMARCKIAN GENETIC ALGORITHM (LGA), with a maximum of 25000000 energy evaluations.

Final-Value: -10.895


	FINAL GENETIC ALGORITHM DOCKED STATE
	_______________________________________________


Detailed state:  trans -8.198 -18.708 5.143 quatxyzw 0.495081 -0.378833 0.157112 -0.765961 center 0.015 0.083 0.031 ntor 6 -172.7543 -44.6658 -29.2157 70.3680 30.2410 -158.0064
State:	 -8.198 -18.708   5.143   0.770 -0.589  0.244 -80.015   -172.75  -44.67  -29.22   70.37   30.24 -158.01

DOCKED: MODEL        4
DOCKED: USER    Run = 4
DOCKED: USER    DPF = D:/Protein_go_brrr/autodock/final/AncB/2_3_BPG/dock.dpf
DOCKED: USER  
DOCKED: USER    Estimated Free Energy of Binding    =  -11.72 kcal/mol  [=(1)+(2)+(3)-(4)]
DOCKED: USER    Estimated Inhibition Constant, Ki   =    2.58 nM (nanomolar)  [Temperature = 298.15 K]
DOCKED: USER    
DOCKED: USER    (1) Final Intermolecular Energy     =  -13.51 kcal/mol
DOCKED: USER        vdW + Hbond + desolv Energy     =   -3.53 kcal/mol
DOCKED: USER        Electrostatic Energy            =   -9.97 kcal/mol
DOCKED: USER    (2) Final Total Internal Energy     =   +2.61 kcal/mol
DOCKED: USER    (3) Torsional Free Energy           =   +1.79 kcal/mol
DOCKED: USER    (4) Unbound System's Energy  [=(2)] =   +2.61 kcal/mol
DOCKED: USER    
DOCKED: USER    
DOCKED: USER    NEWDPF move 2_3_BPG_opt.pdbqt
DOCKED: USER    NEWDPF about 0.015000 0.083000 0.031000
DOCKED: USER    NEWDPF tran0 -8.197740 -18.707897 5.143232
DOCKED: USER    NEWDPF quaternion0 0.495081 -0.378833 0.157112 -0.765961
DOCKED: USER    NEWDPF axisangle0 0.770090 -0.589268 0.244384 -80.014923
DOCKED: USER    NEWDPF quat0 0.770090 -0.589268 0.244384 -80.014923
DOCKED: USER    NEWDPF dihe0 -172.75 -44.67 -29.22 70.37 30.24 -158.01 
DOCKED: USER  keepresnum = 1 
DOCKED: USER  
DOCKED: REMARK  6 active torsions:
DOCKED: REMARK  status: ('A' for Active; 'I' for Inactive)
DOCKED: REMARK    1  A    between atoms: P_1  and  O_3 
DOCKED: REMARK    2  A    between atoms: P_2  and  O_4 
DOCKED: REMARK    3  A    between atoms: O_3  and  C_13 
DOCKED: REMARK    4  A    between atoms: O_4  and  C_14 
DOCKED: REMARK    5  A    between atoms: C_13  and  C_14 
DOCKED: REMARK    6  A    between atoms: C_13  and  C_15 
DOCKED: USER                              x       y       z     vdW  Elec       q    Type
DOCKED: USER                           _______ _______ _______ _____ _____    ______ ____
DOCKED: ROOT
DOCKED: ATOM      1  C   UNL d   1      -8.434 -18.854   4.533 -0.07 +0.34    +0.193 C 
DOCKED: ENDROOT
DOCKED: BRANCH   1   2
DOCKED: ATOM      2  O   UNL d   1      -9.349 -17.782   4.128 -0.31 -0.89    -0.356 OA
DOCKED: BRANCH   2   3
DOCKED: ATOM      3  P   UNL d   1     -10.731 -17.418   4.941 -0.27 -0.03    -0.014 P 
DOCKED: ATOM      4  O   UNL d   1     -10.679 -15.894   5.124 -0.39 -1.26    -0.577 OA
DOCKED: ATOM      5  O   UNL d   1     -10.673 -18.148   6.281 -0.42 -1.40    -0.577 OA
DOCKED: ATOM      6  O   UNL d   1     -11.913 -17.837   4.072 -0.01 -0.67    -0.638 OA
DOCKED: ENDBRANCH   2   3
DOCKED: ENDBRANCH   1   2
DOCKED: BRANCH   1   7
DOCKED: ATOM      7  C   UNL d   1      -7.653 -18.392   5.818 -0.07 +0.40    +0.201 C 
DOCKED: BRANCH   7   8
DOCKED: ATOM      8  O   UNL d   1      -8.000 -17.088   6.333 -0.12 -1.14    -0.364 OA
DOCKED: BRANCH   8   9
DOCKED: ATOM      9  P   UNL d   1      -6.847 -16.146   7.054 -0.06 -0.03    -0.015 P 
DOCKED: ATOM     10  O   UNL d   1      -7.321 -14.703   6.842 -0.23 -1.21    -0.577 OA
DOCKED: ATOM     11  O   UNL d   1      -5.529 -16.426   6.334 -0.51 -1.00    -0.577 OA
DOCKED: ATOM     12  O   UNL d   1      -6.814 -16.528   8.533 -0.58 -1.16    -0.638 OA
DOCKED: ENDBRANCH   8   9
DOCKED: ENDBRANCH   7   8
DOCKED: ENDBRANCH   1   7
DOCKED: BRANCH   1  13
DOCKED: ATOM     13  C   UNL d   1      -7.394 -19.139   3.386 -0.11 +0.12    +0.073 C 
DOCKED: ATOM     14  O   UNL d   1      -7.370 -20.307   2.859 -0.01 -0.63    -0.547 OA
DOCKED: ATOM     15  O   UNL d   1      -6.668 -18.154   3.000 -0.38 -1.44    -0.547 OA
DOCKED: ENDBRANCH   1  13
DOCKED: TORSDOF 6
DOCKED: TER
DOCKED: ENDMDL
________________________________________________________________________________


	BEGINNING GENETIC ALGORITHM DOCKING 5 of 100
Run: 5 Seed: 2097390608 1701079876 [ Run 5 of 100 GA/GALS ]
Beginning LAMARCKIAN GENETIC ALGORITHM (LGA), with a maximum of 25000000 energy evaluations.

Final-Value: -10.324


	FINAL GENETIC ALGORITHM DOCKED STATE
	_______________________________________________


Detailed state:  trans -8.125 -18.739 5.895 quatxyzw -0.198708 -0.091210 0.661299 0.717552 center 0.015 0.083 0.031 ntor 6 168.9039 -22.4022 -153.2696 52.7150 72.0961 -161.3818
State:	 -8.125 -18.739   5.895  -0.285 -0.131  0.949 88.295    168.90  -22.40 -153.27   52.71   72.10 -161.38

DOCKED: MODEL        5
DOCKED: USER    Run = 5
DOCKED: USER    DPF = D:/Protein_go_brrr/autodock/final/AncB/2_3_BPG/dock.dpf
DOCKED: USER  
DOCKED: USER    Estimated Free Energy of Binding    =  -11.28 kcal/mol  [=(1)+(2)+(3)-(4)]
DOCKED: USER    Estimated Inhibition Constant, Ki   =    5.40 nM (nanomolar)  [Temperature = 298.15 K]
DOCKED: USER    
DOCKED: USER    (1) Final Intermolecular Energy     =  -13.07 kcal/mol
DOCKED: USER        vdW + Hbond + desolv Energy     =   -2.90 kcal/mol
DOCKED: USER        Electrostatic Energy            =  -10.17 kcal/mol
DOCKED: USER    (2) Final Total Internal Energy     =   +2.74 kcal/mol
DOCKED: USER    (3) Torsional Free Energy           =   +1.79 kcal/mol
DOCKED: USER    (4) Unbound System's Energy  [=(2)] =   +2.74 kcal/mol
DOCKED: USER    
DOCKED: USER    
DOCKED: USER    NEWDPF move 2_3_BPG_opt.pdbqt
DOCKED: USER    NEWDPF about 0.015000 0.083000 0.031000
DOCKED: USER    NEWDPF tran0 -8.124512 -18.739499 5.894795
DOCKED: USER    NEWDPF quaternion0 -0.198708 -0.091210 0.661299 0.717552
DOCKED: USER    NEWDPF axisangle0 -0.285293 -0.130953 0.949452 88.294595
DOCKED: USER    NEWDPF quat0 -0.285293 -0.130953 0.949452 88.294595
DOCKED: USER    NEWDPF dihe0 168.90 -22.40 -153.27 52.71 72.10 -161.38 
DOCKED: USER  keepresnum = 1 
DOCKED: USER  
DOCKED: REMARK  6 active torsions:
DOCKED: REMARK  status: ('A' for Active; 'I' for Inactive)
DOCKED: REMARK    1  A    between atoms: P_1  and  O_3 
DOCKED: REMARK    2  A    between atoms: P_2  and  O_4 
DOCKED: REMARK    3  A    between atoms: O_3  and  C_13 
DOCKED: REMARK    4  A    between atoms: O_4  and  C_14 
DOCKED: REMARK    5  A    between atoms: C_13  and  C_14 
DOCKED: REMARK    6  A    between atoms: C_13  and  C_15 
DOCKED: USER                              x       y       z     vdW  Elec       q    Type
DOCKED: USER                           _______ _______ _______ _____ _____    ______ ____
DOCKED: ROOT
DOCKED: ATOM      1  C   UNL d   1      -8.508 -18.257   6.158 -0.00 +0.44    +0.193 C 
DOCKED: ENDROOT
DOCKED: BRANCH   1   2
DOCKED: ATOM      2  O   UNL d   1      -7.751 -17.000   6.121 +0.08 -1.13    -0.356 OA
DOCKED: BRANCH   2   3
DOCKED: ATOM      3  P   UNL d   1      -6.590 -16.613   7.220 -0.15 -0.03    -0.014 P 
DOCKED: ATOM      4  O   UNL d   1      -5.657 -15.651   6.468 -0.54 -1.01    -0.577 OA
DOCKED: ATOM      5  O   UNL d   1      -5.875 -17.909   7.598 -0.01 -0.67    -0.577 OA
DOCKED: ATOM      6  O   UNL d   1      -7.268 -15.927   8.401 -0.50 -1.48    -0.638 OA
DOCKED: ENDBRANCH   2   3
DOCKED: ENDBRANCH   1   2
DOCKED: BRANCH   1   7
DOCKED: ATOM      7  C   UNL d   1      -7.751 -19.328   5.289 -0.05 +0.28    +0.201 C 
DOCKED: BRANCH   7   8
DOCKED: ATOM      8  O   UNL d   1      -6.551 -18.870   4.629 -0.03 -0.58    -0.364 OA
DOCKED: BRANCH   8   9
DOCKED: ATOM      9  P   UNL d   1      -6.561 -18.573   3.001 +0.17 -0.03    -0.015 P 
DOCKED: ATOM     10  O   UNL d   1      -8.003 -18.163   2.680 +0.01 -1.51    -0.577 OA
DOCKED: ATOM     11  O   UNL d   1      -6.170 -19.878   2.308 -0.20 -0.80    -0.577 OA
DOCKED: ATOM     12  O   UNL d   1      -5.570 -17.439   2.743 -0.41 -1.55    -0.638 OA
DOCKED: ENDBRANCH   8   9
DOCKED: ENDBRANCH   7   8
DOCKED: ENDBRANCH   1   7
DOCKED: BRANCH   1  13
DOCKED: ATOM     13  C   UNL d   1      -9.944 -18.039   5.552 -0.13 +0.16    +0.073 C 
DOCKED: ATOM     14  O   UNL d   1     -10.946 -18.572   6.147 -0.53 -0.98    -0.547 OA
DOCKED: ATOM     15  O   UNL d   1     -10.033 -17.279   4.521 -0.59 -1.29    -0.547 OA
DOCKED: ENDBRANCH   1  13
DOCKED: TORSDOF 6
DOCKED: TER
DOCKED: ENDMDL
________________________________________________________________________________


	BEGINNING GENETIC ALGORITHM DOCKING 6 of 100
Run: 6 Seed: 1672737700 757345375 [ Run 6 of 100 GA/GALS ]
Beginning LAMARCKIAN GENETIC ALGORITHM (LGA), with a maximum of 25000000 energy evaluations.

Final-Value: -10.591


	FINAL GENETIC ALGORITHM DOCKED STATE
	_______________________________________________


Detailed state:  trans -7.276 -18.617 5.736 quatxyzw -0.207330 -0.193091 0.623336 0.728823 center 0.015 0.083 0.031 ntor 6 175.2418 54.6461 -77.1858 9.7299 -56.3999 139.5173
State:	 -7.276 -18.617   5.736  -0.303 -0.282  0.910 86.424    175.24   54.65  -77.19    9.73  -56.40  139.52

DOCKED: MODEL        6
DOCKED: USER    Run = 6
DOCKED: USER    DPF = D:/Protein_go_brrr/autodock/final/AncB/2_3_BPG/dock.dpf
DOCKED: USER  
DOCKED: USER    Estimated Free Energy of Binding    =  -11.18 kcal/mol  [=(1)+(2)+(3)-(4)]
DOCKED: USER    Estimated Inhibition Constant, Ki   =    6.36 nM (nanomolar)  [Temperature = 298.15 K]
DOCKED: USER    
DOCKED: USER    (1) Final Intermolecular Energy     =  -12.97 kcal/mol
DOCKED: USER        vdW + Hbond + desolv Energy     =   -2.68 kcal/mol
DOCKED: USER        Electrostatic Energy            =  -10.30 kcal/mol
DOCKED: USER    (2) Final Total Internal Energy     =   +2.38 kcal/mol
DOCKED: USER    (3) Torsional Free Energy           =   +1.79 kcal/mol
DOCKED: USER    (4) Unbound System's Energy  [=(2)] =   +2.38 kcal/mol
DOCKED: USER    
DOCKED: USER    
DOCKED: USER    NEWDPF move 2_3_BPG_opt.pdbqt
DOCKED: USER    NEWDPF about 0.015000 0.083000 0.031000
DOCKED: USER    NEWDPF tran0 -7.276438 -18.616696 5.735832
DOCKED: USER    NEWDPF quaternion0 -0.207330 -0.193091 0.623336 0.728823
DOCKED: USER    NEWDPF axisangle0 -0.302804 -0.282007 0.910375 86.424400
DOCKED: USER    NEWDPF quat0 -0.302804 -0.282007 0.910375 86.424400
DOCKED: USER    NEWDPF dihe0 175.24 54.65 -77.19 9.73 -56.40 139.52 
DOCKED: USER  keepresnum = 1 
DOCKED: USER  
DOCKED: REMARK  6 active torsions:
DOCKED: REMARK  status: ('A' for Active; 'I' for Inactive)
DOCKED: REMARK    1  A    between atoms: P_1  and  O_3 
DOCKED: REMARK    2  A    between atoms: P_2  and  O_4 
DOCKED: REMARK    3  A    between atoms: O_3  and  C_13 
DOCKED: REMARK    4  A    between atoms: O_4  and  C_14 
DOCKED: REMARK    5  A    between atoms: C_13  and  C_14 
DOCKED: REMARK    6  A    between atoms: C_13  and  C_15 
DOCKED: USER                              x       y       z     vdW  Elec       q    Type
DOCKED: USER                           _______ _______ _______ _____ _____    ______ ____
DOCKED: ROOT
DOCKED: ATOM      1  C   UNL d   1      -7.670 -18.224   6.111 -0.09 +0.40    +0.193 C 
DOCKED: ENDROOT
DOCKED: BRANCH   1   2
DOCKED: ATOM      2  O   UNL d   1      -7.051 -16.896   6.187 -0.12 -1.02    -0.356 OA
DOCKED: BRANCH   2   3
DOCKED: ATOM      3  P   UNL d   1      -6.650 -16.167   7.606 -0.10 -0.03    -0.014 P 
DOCKED: ATOM      4  O   UNL d   1      -7.274 -14.766   7.507 -0.27 -1.07    -0.577 OA
DOCKED: ATOM      5  O   UNL d   1      -5.126 -16.100   7.665 +0.01 -0.59    -0.577 OA
DOCKED: ATOM      6  O   UNL d   1      -7.267 -16.976   8.742 -0.36 -1.45    -0.638 OA
DOCKED: ENDBRANCH   2   3
DOCKED: ENDBRANCH   1   2
DOCKED: BRANCH   1   7
DOCKED: ATOM      7  C   UNL d   1      -6.925 -19.065   5.010 -0.05 +0.30    +0.201 C 
DOCKED: BRANCH   7   8
DOCKED: ATOM      8  O   UNL d   1      -6.973 -18.530   3.668 -0.20 -0.80    -0.364 OA
DOCKED: BRANCH   8   9
DOCKED: ATOM      9  P   UNL d   1      -5.573 -18.294   2.819 -0.07 -0.03    -0.015 P 
DOCKED: ATOM     10  O   UNL d   1      -5.534 -19.431   1.791 -0.39 -0.97    -0.577 OA
DOCKED: ATOM     11  O   UNL d   1      -4.423 -18.389   3.820 +0.01 -0.64    -0.577 OA
DOCKED: ATOM     12  O   UNL d   1      -5.675 -16.922   2.154 -0.16 -1.77    -0.638 OA
DOCKED: ENDBRANCH   8   9
DOCKED: ENDBRANCH   7   8
DOCKED: ENDBRANCH   1   7
DOCKED: BRANCH   1  13
DOCKED: ATOM     13  C   UNL d   1      -9.185 -18.092   5.706 -0.05 +0.17    +0.073 C 
DOCKED: ATOM     14  O   UNL d   1     -10.060 -18.723   6.397 -0.49 -1.18    -0.547 OA
DOCKED: ATOM     15  O   UNL d   1      -9.461 -17.299   4.735 -0.34 -1.64    -0.547 OA
DOCKED: ENDBRANCH   1  13
DOCKED: TORSDOF 6
DOCKED: TER
DOCKED: ENDMDL
________________________________________________________________________________


	BEGINNING GENETIC ALGORITHM DOCKING 7 of 100
Run: 7 Seed: 106084776 1164322218 [ Run 7 of 100 GA/GALS ]
Beginning LAMARCKIAN GENETIC ALGORITHM (LGA), with a maximum of 25000000 energy evaluations.

Final-Value: -10.511


	FINAL GENETIC ALGORITHM DOCKED STATE
	_______________________________________________


Detailed state:  trans -7.149 -18.248 5.479 quatxyzw 0.780287 -0.222709 -0.145450 0.566037 center 0.015 0.083 0.031 ntor 6 27.0048 46.4406 -66.5725 35.3810 -60.2133 -72.5800
State:	 -7.149 -18.248   5.479   0.947 -0.270 -0.176 111.051     27.00   46.44  -66.57   35.38  -60.21  -72.58

DOCKED: MODEL        7
DOCKED: USER    Run = 7
DOCKED: USER    DPF = D:/Protein_go_brrr/autodock/final/AncB/2_3_BPG/dock.dpf
DOCKED: USER  
DOCKED: USER    Estimated Free Energy of Binding    =  -10.77 kcal/mol  [=(1)+(2)+(3)-(4)]
DOCKED: USER    Estimated Inhibition Constant, Ki   =   12.85 nM (nanomolar)  [Temperature = 298.15 K]
DOCKED: USER    
DOCKED: USER    (1) Final Intermolecular Energy     =  -12.56 kcal/mol
DOCKED: USER        vdW + Hbond + desolv Energy     =   -3.06 kcal/mol
DOCKED: USER        Electrostatic Energy            =   -9.50 kcal/mol
DOCKED: USER    (2) Final Total Internal Energy     =   +2.04 kcal/mol
DOCKED: USER    (3) Torsional Free Energy           =   +1.79 kcal/mol
DOCKED: USER    (4) Unbound System's Energy  [=(2)] =   +2.04 kcal/mol
DOCKED: USER    
DOCKED: USER    
DOCKED: USER    NEWDPF move 2_3_BPG_opt.pdbqt
DOCKED: USER    NEWDPF about 0.015000 0.083000 0.031000
DOCKED: USER    NEWDPF tran0 -7.149299 -18.248451 5.478855
DOCKED: USER    NEWDPF quaternion0 0.780287 -0.222709 -0.145450 0.566037
DOCKED: USER    NEWDPF axisangle0 0.946514 -0.270153 -0.176436 111.051377
DOCKED: USER    NEWDPF quat0 0.946514 -0.270153 -0.176436 111.051377
DOCKED: USER    NEWDPF dihe0 27.00 46.44 -66.57 35.38 -60.21 -72.58 
DOCKED: USER  keepresnum = 1 
DOCKED: USER  
DOCKED: REMARK  6 active torsions:
DOCKED: REMARK  status: ('A' for Active; 'I' for Inactive)
DOCKED: REMARK    1  A    between atoms: P_1  and  O_3 
DOCKED: REMARK    2  A    between atoms: P_2  and  O_4 
DOCKED: REMARK    3  A    between atoms: O_3  and  C_13 
DOCKED: REMARK    4  A    between atoms: O_4  and  C_14 
DOCKED: REMARK    5  A    between atoms: C_13  and  C_14 
DOCKED: REMARK    6  A    between atoms: C_13  and  C_15 
DOCKED: USER                              x       y       z     vdW  Elec       q    Type
DOCKED: USER                           _______ _______ _______ _____ _____    ______ ____
DOCKED: ROOT
DOCKED: ATOM      1  C   UNL d   1      -7.490 -17.972   5.986 -0.03 +0.43    +0.193 C 
DOCKED: ENDROOT
DOCKED: BRANCH   1   2
DOCKED: ATOM      2  O   UNL d   1      -8.817 -18.597   6.039 -0.17 -0.72    -0.356 OA
DOCKED: BRANCH   2   3
DOCKED: ATOM      3  P   UNL d   1     -10.156 -17.932   5.356 -0.16 -0.03    -0.014 P 
DOCKED: ATOM      4  O   UNL d   1     -11.264 -18.143   6.401 -0.48 -1.19    -0.577 OA
DOCKED: ATOM      5  O   UNL d   1     -10.442 -18.706   4.071 -0.01 -0.76    -0.577 OA
DOCKED: ATOM      6  O   UNL d   1      -9.881 -16.450   5.124 -0.57 -1.93    -0.638 OA
DOCKED: ENDBRANCH   2   3
DOCKED: ENDBRANCH   1   2
DOCKED: BRANCH   1   7
DOCKED: ATOM      7  C   UNL d   1      -6.581 -18.800   5.004 -0.05 +0.31    +0.201 C 
DOCKED: BRANCH   7   8
DOCKED: ATOM      8  O   UNL d   1      -6.661 -18.432   3.609 -0.22 -0.81    -0.364 OA
DOCKED: BRANCH   8   9
DOCKED: ATOM      9  P   UNL d   1      -5.296 -17.979   2.792 -0.12 -0.03    -0.015 P 
DOCKED: ATOM     10  O   UNL d   1      -5.100 -19.054   1.716 -0.45 -0.95    -0.577 OA
DOCKED: ATOM     11  O   UNL d   1      -4.151 -17.970   3.805 +0.01 -0.63    -0.577 OA
DOCKED: ATOM     12  O   UNL d   1      -5.569 -16.603   2.185 -0.12 -1.70    -0.638 OA
DOCKED: ENDBRANCH   8   9
DOCKED: ENDBRANCH   7   8
DOCKED: ENDBRANCH   1   7
DOCKED: BRANCH   1  13
DOCKED: ATOM     13  C   UNL d   1      -6.830 -17.983   7.415 -0.10 +0.12    +0.073 C 
DOCKED: ATOM     14  O   UNL d   1      -6.264 -19.059   7.818 +0.01 -0.53    -0.547 OA
DOCKED: ATOM     15  O   UNL d   1      -6.844 -16.880   8.072 -0.61 -1.08    -0.547 OA
DOCKED: ENDBRANCH   1  13
DOCKED: TORSDOF 6
DOCKED: TER
DOCKED: ENDMDL
________________________________________________________________________________


	BEGINNING GENETIC ALGORITHM DOCKING 8 of 100
Run: 8 Seed: 1576379946 1656919409 [ Run 8 of 100 GA/GALS ]
Beginning LAMARCKIAN GENETIC ALGORITHM (LGA), with a maximum of 25000000 energy evaluations.

Final-Value: -10.344


	FINAL GENETIC ALGORITHM DOCKED STATE
	_______________________________________________


Detailed state:  trans -7.539 -18.773 5.528 quatxyzw 0.513589 -0.309187 0.064413 -0.797798 center 0.015 0.083 0.031 ntor 6 175.9215 -8.2172 72.7801 21.6730 -71.8302 159.9807
State:	 -7.539 -18.773   5.528   0.852 -0.513  0.107 -74.159    175.92   -8.22   72.78   21.67  -71.83  159.98

DOCKED: MODEL        8
DOCKED: USER    Run = 8
DOCKED: USER    DPF = D:/Protein_go_brrr/autodock/final/AncB/2_3_BPG/dock.dpf
DOCKED: USER  
DOCKED: USER    Estimated Free Energy of Binding    =  -11.16 kcal/mol  [=(1)+(2)+(3)-(4)]
DOCKED: USER    Estimated Inhibition Constant, Ki   =    6.64 nM (nanomolar)  [Temperature = 298.15 K]
DOCKED: USER    
DOCKED: USER    (1) Final Intermolecular Energy     =  -12.95 kcal/mol
DOCKED: USER        vdW + Hbond + desolv Energy     =   -2.89 kcal/mol
DOCKED: USER        Electrostatic Energy            =  -10.06 kcal/mol
DOCKED: USER    (2) Final Total Internal Energy     =   +2.60 kcal/mol
DOCKED: USER    (3) Torsional Free Energy           =   +1.79 kcal/mol
DOCKED: USER    (4) Unbound System's Energy  [=(2)] =   +2.60 kcal/mol
DOCKED: USER    
DOCKED: USER    
DOCKED: USER    NEWDPF move 2_3_BPG_opt.pdbqt
DOCKED: USER    NEWDPF about 0.015000 0.083000 0.031000
DOCKED: USER    NEWDPF tran0 -7.539398 -18.772827 5.527691
DOCKED: USER    NEWDPF quaternion0 0.513589 -0.309187 0.064413 -0.797798
DOCKED: USER    NEWDPF axisangle0 0.851829 -0.512811 0.106833 -74.159395
DOCKED: USER    NEWDPF quat0 0.851829 -0.512811 0.106833 -74.159395
DOCKED: USER    NEWDPF dihe0 175.92 -8.22 72.78 21.67 -71.83 159.98 
DOCKED: USER  keepresnum = 1 
DOCKED: USER  
DOCKED: REMARK  6 active torsions:
DOCKED: REMARK  status: ('A' for Active; 'I' for Inactive)
DOCKED: REMARK    1  A    between atoms: P_1  and  O_3 
DOCKED: REMARK    2  A    between atoms: P_2  and  O_4 
DOCKED: REMARK    3  A    between atoms: O_3  and  C_13 
DOCKED: REMARK    4  A    between atoms: O_4  and  C_14 
DOCKED: REMARK    5  A    between atoms: C_13  and  C_14 
DOCKED: REMARK    6  A    between atoms: C_13  and  C_15 
DOCKED: USER                              x       y       z     vdW  Elec       q    Type
DOCKED: USER                           _______ _______ _______ _____ _____    ______ ____
DOCKED: ROOT
DOCKED: ATOM      1  C   UNL d   1      -7.917 -18.872   4.983 -0.07 +0.34    +0.193 C 
DOCKED: ENDROOT
DOCKED: BRANCH   1   2
DOCKED: ATOM      2  O   UNL d   1      -8.818 -17.723   4.837 -0.07 -1.03    -0.356 OA
DOCKED: BRANCH   2   3
DOCKED: ATOM      3  P   UNL d   1     -10.444 -17.816   5.067 -0.25 -0.03    -0.014 P 
DOCKED: ATOM      4  O   UNL d   1     -10.908 -16.352   5.119 -0.31 -1.17    -0.577 OA
DOCKED: ATOM      5  O   UNL d   1     -10.672 -18.526   6.400 -0.56 -1.25    -0.577 OA
DOCKED: ATOM      6  O   UNL d   1     -11.047 -18.552   3.875 +0.02 -0.74    -0.638 OA
DOCKED: ENDBRANCH   2   3
DOCKED: ENDBRANCH   1   2
DOCKED: BRANCH   1   7
DOCKED: ATOM      7  C   UNL d   1      -6.835 -18.529   6.071 -0.07 +0.32    +0.201 C 
DOCKED: BRANCH   7   8
DOCKED: ATOM      8  O   UNL d   1      -6.309 -17.184   6.036 -0.33 -0.82    -0.364 OA
DOCKED: BRANCH   8   9
DOCKED: ATOM      9  P   UNL d   1      -6.665 -16.121   7.252 -0.18 -0.03    -0.015 P 
DOCKED: ATOM     10  O   UNL d   1      -7.699 -15.160   6.652 -0.20 -1.56    -0.577 OA
DOCKED: ATOM     11  O   UNL d   1      -5.364 -15.405   7.614 -0.02 -0.62    -0.577 OA
DOCKED: ATOM     12  O   UNL d   1      -7.242 -16.935   8.409 -0.37 -1.56    -0.638 OA
DOCKED: ENDBRANCH   8   9
DOCKED: ENDBRANCH   7   8
DOCKED: ENDBRANCH   1   7
DOCKED: BRANCH   1  13
DOCKED: ATOM     13  C   UNL d   1      -7.186 -19.161   3.619 -0.11 +0.12    +0.073 C 
DOCKED: ATOM     14  O   UNL d   1      -7.185 -20.360   3.168 -0.00 -0.59    -0.547 OA
DOCKED: ATOM     15  O   UNL d   1      -6.684 -18.154   3.002 -0.37 -1.45    -0.547 OA
DOCKED: ENDBRANCH   1  13
DOCKED: TORSDOF 6
DOCKED: TER
DOCKED: ENDMDL
________________________________________________________________________________


	BEGINNING GENETIC ALGORITHM DOCKING 9 of 100
Run: 9 Seed: 1963747704 598334707 [ Run 9 of 100 GA/GALS ]
Beginning LAMARCKIAN GENETIC ALGORITHM (LGA), with a maximum of 25000000 energy evaluations.

Final-Value: -10.737


	FINAL GENETIC ALGORITHM DOCKED STATE
	_______________________________________________


Detailed state:  trans -8.197 -18.632 5.143 quatxyzw -0.499139 0.346651 -0.154158 0.779056 center 0.015 0.083 0.031 ntor 6 13.5121 82.1268 -23.0955 66.3821 21.3907 -158.1545
State:	 -8.197 -18.632   5.143  -0.796  0.553 -0.246 77.652     13.51   82.13  -23.10   66.38   21.39 -158.15

DOCKED: MODEL        9
DOCKED: USER    Run = 9
DOCKED: USER    DPF = D:/Protein_go_brrr/autodock/final/AncB/2_3_BPG/dock.dpf
DOCKED: USER  
DOCKED: USER    Estimated Free Energy of Binding    =  -11.45 kcal/mol  [=(1)+(2)+(3)-(4)]
DOCKED: USER    Estimated Inhibition Constant, Ki   =    4.04 nM (nanomolar)  [Temperature = 298.15 K]
DOCKED: USER    
DOCKED: USER    (1) Final Intermolecular Energy     =  -13.24 kcal/mol
DOCKED: USER        vdW + Hbond + desolv Energy     =   -3.35 kcal/mol
DOCKED: USER        Electrostatic Energy            =   -9.89 kcal/mol
DOCKED: USER    (2) Final Total Internal Energy     =   +2.50 kcal/mol
DOCKED: USER    (3) Torsional Free Energy           =   +1.79 kcal/mol
DOCKED: USER    (4) Unbound System's Energy  [=(2)] =   +2.50 kcal/mol
DOCKED: USER    
DOCKED: USER    
DOCKED: USER    NEWDPF move 2_3_BPG_opt.pdbqt
DOCKED: USER    NEWDPF about 0.015000 0.083000 0.031000
DOCKED: USER    NEWDPF tran0 -8.196858 -18.632348 5.143238
DOCKED: USER    NEWDPF quaternion0 -0.499139 0.346651 -0.154158 0.779056
DOCKED: USER    NEWDPF axisangle0 -0.796133 0.552913 -0.245885 77.651593
DOCKED: USER    NEWDPF quat0 -0.796133 0.552913 -0.245885 77.651593
DOCKED: USER    NEWDPF dihe0 13.51 82.13 -23.10 66.38 21.39 -158.15 
DOCKED: USER  keepresnum = 1 
DOCKED: USER  
DOCKED: REMARK  6 active torsions:
DOCKED: REMARK  status: ('A' for Active; 'I' for Inactive)
DOCKED: REMARK    1  A    between atoms: P_1  and  O_3 
DOCKED: REMARK    2  A    between atoms: P_2  and  O_4 
DOCKED: REMARK    3  A    between atoms: O_3  and  C_13 
DOCKED: REMARK    4  A    between atoms: O_4  and  C_14 
DOCKED: REMARK    5  A    between atoms: C_13  and  C_14 
DOCKED: REMARK    6  A    between atoms: C_13  and  C_15 
DOCKED: USER                              x       y       z     vdW  Elec       q    Type
DOCKED: USER                           _______ _______ _______ _____ _____    ______ ____
DOCKED: ROOT
DOCKED: ATOM      1  C   UNL d   1      -8.467 -18.794   4.552 -0.07 +0.35    +0.193 C 
DOCKED: ENDROOT
DOCKED: BRANCH   1   2
DOCKED: ATOM      2  O   UNL d   1      -9.434 -17.752   4.190 -0.37 -0.87    -0.356 OA
DOCKED: BRANCH   2   3
DOCKED: ATOM      3  P   UNL d   1     -10.820 -17.475   5.031 -0.26 -0.03    -0.014 P 
DOCKED: ATOM      4  O   UNL d   1     -11.921 -18.133   4.184 -0.01 -0.59    -0.577 OA
DOCKED: ATOM      5  O   UNL d   1     -11.004 -15.961   5.115 -0.23 -1.12    -0.577 OA
DOCKED: ATOM      6  O   UNL d   1     -10.686 -18.147   6.394 -0.39 -1.62    -0.638 OA
DOCKED: ENDBRANCH   2   3
DOCKED: ENDBRANCH   1   2
DOCKED: BRANCH   1   7
DOCKED: ATOM      7  C   UNL d   1      -7.619 -18.293   5.778 -0.05 +0.41    +0.201 C 
DOCKED: BRANCH   7   8
DOCKED: ATOM      8  O   UNL d   1      -7.966 -16.988   6.293 -0.07 -1.16    -0.364 OA
DOCKED: BRANCH   8   9
DOCKED: ATOM      9  P   UNL d   1      -6.844 -16.098   7.121 -0.09 -0.03    -0.015 P 
DOCKED: ATOM     10  O   UNL d   1      -7.343 -14.650   7.037 -0.22 -1.15    -0.577 OA
DOCKED: ATOM     11  O   UNL d   1      -5.508 -16.284   6.403 -0.52 -0.97    -0.577 OA
DOCKED: ATOM     12  O   UNL d   1      -6.828 -16.617   8.559 -0.57 -1.16    -0.638 OA
DOCKED: ENDBRANCH   8   9
DOCKED: ENDBRANCH   7   8
DOCKED: ENDBRANCH   1   7
DOCKED: BRANCH   1  13
DOCKED: ATOM     13  C   UNL d   1      -7.495 -19.070   3.345 -0.10 +0.13    +0.073 C 
DOCKED: ATOM     14  O   UNL d   1      -6.676 -18.149   2.997 -0.37 -1.45    -0.547 OA
DOCKED: ATOM     15  O   UNL d   1      -7.539 -20.239   2.816 -0.01 -0.64    -0.547 OA
DOCKED: ENDBRANCH   1  13
DOCKED: TORSDOF 6
DOCKED: TER
DOCKED: ENDMDL
________________________________________________________________________________


	BEGINNING GENETIC ALGORITHM DOCKING 10 of 100
Run: 10 Seed: 167038934 863666618 [ Run 10 of 100 GA/GALS ]
Beginning LAMARCKIAN GENETIC ALGORITHM (LGA), with a maximum of 25000000 energy evaluations.

Final-Value: -9.290


	FINAL GENETIC ALGORITHM DOCKED STATE
	_______________________________________________


Detailed state:  trans -1.780 1.038 -13.302 quatxyzw 0.333369 0.309087 -0.272857 0.847867 center 0.015 0.083 0.031 ntor 6 -131.7292 -21.4872 -48.7981 39.7747 -5.8531 -81.9558
State:	 -1.780   1.038 -13.302   0.629  0.583 -0.515 64.039   -131.73  -21.49  -48.80   39.77   -5.85  -81.96

DOCKED: MODEL       10
DOCKED: USER    Run = 10
DOCKED: USER    DPF = D:/Protein_go_brrr/autodock/final/AncB/2_3_BPG/dock.dpf
DOCKED: USER  
DOCKED: USER    Estimated Free Energy of Binding    =   -9.66 kcal/mol  [=(1)+(2)+(3)-(4)]
DOCKED: USER    Estimated Inhibition Constant, Ki   =   82.45 nM (nanomolar)  [Temperature = 298.15 K]
DOCKED: USER    
DOCKED: USER    (1) Final Intermolecular Energy     =  -11.45 kcal/mol
DOCKED: USER        vdW + Hbond + desolv Energy     =   -3.85 kcal/mol
DOCKED: USER        Electrostatic Energy            =   -7.60 kcal/mol
DOCKED: USER    (2) Final Total Internal Energy     =   +2.16 kcal/mol
DOCKED: USER    (3) Torsional Free Energy           =   +1.79 kcal/mol
DOCKED: USER    (4) Unbound System's Energy  [=(2)] =   +2.16 kcal/mol
DOCKED: USER    
DOCKED: USER    
DOCKED: USER    NEWDPF move 2_3_BPG_opt.pdbqt
DOCKED: USER    NEWDPF about 0.015000 0.083000 0.031000
DOCKED: USER    NEWDPF tran0 -1.780331 1.037888 -13.301793
DOCKED: USER    NEWDPF quaternion0 0.333369 0.309087 -0.272857 0.847867
DOCKED: USER    NEWDPF axisangle0 0.628751 0.582954 -0.514622 64.039092
DOCKED: USER    NEWDPF quat0 0.628751 0.582954 -0.514622 64.039092
DOCKED: USER    NEWDPF dihe0 -131.73 -21.49 -48.80 39.77 -5.85 -81.96 
DOCKED: USER  keepresnum = 1 
DOCKED: USER  
DOCKED: REMARK  6 active torsions:
DOCKED: REMARK  status: ('A' for Active; 'I' for Inactive)
DOCKED: REMARK    1  A    between atoms: P_1  and  O_3 
DOCKED: REMARK    2  A    between atoms: P_2  and  O_4 
DOCKED: REMARK    3  A    between atoms: O_3  and  C_13 
DOCKED: REMARK    4  A    between atoms: O_4  and  C_14 
DOCKED: REMARK    5  A    between atoms: C_13  and  C_14 
DOCKED: REMARK    6  A    between atoms: C_13  and  C_15 
DOCKED: USER                              x       y       z     vdW  Elec       q    Type
DOCKED: USER                           _______ _______ _______ _____ _____    ______ ____
DOCKED: ROOT
DOCKED: ATOM      1  C   UNL d   1      -2.153   0.487 -13.219 -0.17 +0.28    +0.193 C 
DOCKED: ENDROOT
DOCKED: BRANCH   1   2
DOCKED: ATOM      2  O   UNL d   1      -2.597   0.031 -14.541 -0.37 -0.71    -0.356 OA
DOCKED: BRANCH   2   3
DOCKED: ATOM      3  P   UNL d   1      -4.026   0.481 -15.218 -0.12 -0.02    -0.014 P 
DOCKED: ATOM      4  O   UNL d   1      -3.791   0.352 -16.731 -0.01 -0.64    -0.577 OA
DOCKED: ATOM      5  O   UNL d   1      -4.282   1.931 -14.812 -0.60 -1.08    -0.577 OA
DOCKED: ATOM      6  O   UNL d   1      -5.102  -0.485 -14.734 +0.02 -1.14    -0.638 OA
DOCKED: ENDBRANCH   2   3
DOCKED: ENDBRANCH   1   2
DOCKED: BRANCH   1   7
DOCKED: ATOM      7  C   UNL d   1      -1.051   1.593 -13.409 -0.15 +0.23    +0.201 C 
DOCKED: BRANCH   7   8
DOCKED: ATOM      8  O   UNL d   1      -1.532   2.907 -13.771 -0.19 -0.66    -0.364 OA
DOCKED: BRANCH   8   9
DOCKED: ATOM      9  P   UNL d   1      -0.470   4.165 -13.930 -0.27 -0.02    -0.015 P 
DOCKED: ATOM     10  O   UNL d   1      -0.856   4.849 -15.247 -0.34 -0.95    -0.577 OA
DOCKED: ATOM     11  O   UNL d   1       0.932   3.560 -13.991 -0.46 -0.49    -0.577 OA
DOCKED: ATOM     12  O   UNL d   1      -0.674   5.082 -12.725 -0.65 -0.91    -0.638 OA
DOCKED: ENDBRANCH   8   9
DOCKED: ENDBRANCH   7   8
DOCKED: ENDBRANCH   1   7
DOCKED: BRANCH   1  13
DOCKED: ATOM     13  C   UNL d   1      -1.527  -0.715 -12.416 -0.22 +0.10    +0.073 C 
DOCKED: ATOM     14  O   UNL d   1      -2.318  -1.562 -11.870 -0.26 -1.08    -0.547 OA
DOCKED: ATOM     15  O   UNL d   1      -0.247  -0.808 -12.411 -0.06 -0.49    -0.547 OA
DOCKED: ENDBRANCH   1  13
DOCKED: TORSDOF 6
DOCKED: TER
DOCKED: ENDMDL
________________________________________________________________________________


	BEGINNING GENETIC ALGORITHM DOCKING 11 of 100
Run: 11 Seed: 1128331507 535360129 [ Run 11 of 100 GA/GALS ]
Beginning LAMARCKIAN GENETIC ALGORITHM (LGA), with a maximum of 25000000 energy evaluations.

Final-Value: -9.996


	FINAL GENETIC ALGORITHM DOCKED STATE
	_______________________________________________


Detailed state:  trans -1.199 1.076 -13.505 quatxyzw -0.690755 -0.405216 -0.017453 0.598626 center 0.015 0.083 0.031 ntor 6 14.4604 -23.4089 -101.1423 -3.1188 16.7543 145.1339
State:	 -1.199   1.076 -13.505  -0.862 -0.506 -0.022 106.457     14.46  -23.41 -101.14   -3.12   16.75  145.13

DOCKED: MODEL       11
DOCKED: USER    Run = 11
DOCKED: USER    DPF = D:/Protein_go_brrr/autodock/final/AncB/2_3_BPG/dock.dpf
DOCKED: USER  
DOCKED: USER    Estimated Free Energy of Binding    =  -10.45 kcal/mol  [=(1)+(2)+(3)-(4)]
DOCKED: USER    Estimated Inhibition Constant, Ki   =   21.89 nM (nanomolar)  [Temperature = 298.15 K]
DOCKED: USER    
DOCKED: USER    (1) Final Intermolecular Energy     =  -12.24 kcal/mol
DOCKED: USER        vdW + Hbond + desolv Energy     =   -4.53 kcal/mol
DOCKED: USER        Electrostatic Energy            =   -7.71 kcal/mol
DOCKED: USER    (2) Final Total Internal Energy     =   +2.24 kcal/mol
DOCKED: USER    (3) Torsional Free Energy           =   +1.79 kcal/mol
DOCKED: USER    (4) Unbound System's Energy  [=(2)] =   +2.24 kcal/mol
DOCKED: USER    
DOCKED: USER    
DOCKED: USER    NEWDPF move 2_3_BPG_opt.pdbqt
DOCKED: USER    NEWDPF about 0.015000 0.083000 0.031000
DOCKED: USER    NEWDPF tran0 -1.199276 1.076475 -13.505494
DOCKED: USER    NEWDPF quaternion0 -0.690755 -0.405216 -0.017453 0.598626
DOCKED: USER    NEWDPF axisangle0 -0.862335 -0.505870 -0.021788 106.456887
DOCKED: USER    NEWDPF quat0 -0.862335 -0.505870 -0.021788 106.456887
DOCKED: USER    NEWDPF dihe0 14.46 -23.41 -101.14 -3.12 16.75 145.13 
DOCKED: USER  keepresnum = 1 
DOCKED: USER  
DOCKED: REMARK  6 active torsions:
DOCKED: REMARK  status: ('A' for Active; 'I' for Inactive)
DOCKED: REMARK    1  A    between atoms: P_1  and  O_3 
DOCKED: REMARK    2  A    between atoms: P_2  and  O_4 
DOCKED: REMARK    3  A    between atoms: O_3  and  C_13 
DOCKED: REMARK    4  A    between atoms: O_4  and  C_14 
DOCKED: REMARK    5  A    between atoms: C_13  and  C_14 
DOCKED: REMARK    6  A    between atoms: C_13  and  C_15 
DOCKED: USER                              x       y       z     vdW  Elec       q    Type
DOCKED: USER                           _______ _______ _______ _____ _____    ______ ____
DOCKED: ROOT
DOCKED: ATOM      1  C   UNL d   1      -1.713   0.647 -13.524 -0.17 +0.26    +0.193 C 
DOCKED: ENDROOT
DOCKED: BRANCH   1   2
DOCKED: ATOM      2  O   UNL d   1      -2.315   0.595 -12.187 -0.14 -0.43    -0.356 OA
DOCKED: BRANCH   2   3
DOCKED: ATOM      3  P   UNL d   1      -2.750  -0.807 -11.446 -0.26 -0.02    -0.014 P 
DOCKED: ATOM      4  O   UNL d   1      -2.646  -0.495  -9.945 -0.03 -0.41    -0.577 OA
DOCKED: ATOM      5  O   UNL d   1      -1.744  -1.874 -11.870 -0.20 -0.93    -0.577 OA
DOCKED: ATOM      6  O   UNL d   1      -4.185  -1.129 -11.852 -0.40 -1.27    -0.638 OA
DOCKED: ENDBRANCH   2   3
DOCKED: ENDBRANCH   1   2
DOCKED: BRANCH   1   7
DOCKED: ATOM      7  C   UNL d   1      -0.704   1.852 -13.578 -0.15 +0.22    +0.201 C 
DOCKED: BRANCH   7   8
DOCKED: ATOM      8  O   UNL d   1      -1.247   3.144 -13.227 -0.47 -0.60    -0.364 OA
DOCKED: BRANCH   8   9
DOCKED: ATOM      9  P   UNL d   1      -0.470   4.526 -13.700 -0.28 -0.02    -0.015 P 
DOCKED: ATOM     10  O   UNL d   1      -0.895   4.744 -15.157 -0.36 -0.99    -0.577 OA
DOCKED: ATOM     11  O   UNL d   1       1.030   4.259 -13.576 -0.50 -0.50    -0.577 OA
DOCKED: ATOM     12  O   UNL d   1      -0.955   5.651 -12.786 -0.52 -0.95    -0.638 OA
DOCKED: ENDBRANCH   8   9
DOCKED: ENDBRANCH   7   8
DOCKED: ENDBRANCH   1   7
DOCKED: BRANCH   1  13
DOCKED: ATOM     13  C   UNL d   1      -2.830   0.875 -14.610 -0.14 +0.12    +0.073 C 
DOCKED: ATOM     14  O   UNL d   1      -3.435   2.004 -14.637 -0.53 -1.16    -0.547 OA
DOCKED: ATOM     15  O   UNL d   1      -3.025  -0.074 -15.453 -0.39 -1.01    -0.547 OA
DOCKED: ENDBRANCH   1  13
DOCKED: TORSDOF 6
DOCKED: TER
DOCKED: ENDMDL
________________________________________________________________________________


	BEGINNING GENETIC ALGORITHM DOCKING 12 of 100
Run: 12 Seed: 297659554 137497588 [ Run 12 of 100 GA/GALS ]
Beginning LAMARCKIAN GENETIC ALGORITHM (LGA), with a maximum of 25000000 energy evaluations.

Final-Value: -10.887


	FINAL GENETIC ALGORITHM DOCKED STATE
	_______________________________________________


Detailed state:  trans -8.245 -18.822 5.102 quatxyzw -0.508902 0.417107 -0.144848 0.738959 center 0.015 0.083 0.031 ntor 6 -179.8931 -43.9733 -41.7644 73.2566 44.4340 -158.8055
State:	 -8.245 -18.822   5.102  -0.755  0.619 -0.215 84.714   -179.89  -43.97  -41.76   73.26   44.43 -158.81

DOCKED: MODEL       12
DOCKED: USER    Run = 12
DOCKED: USER    DPF = D:/Protein_go_brrr/autodock/final/AncB/2_3_BPG/dock.dpf
DOCKED: USER  
DOCKED: USER    Estimated Free Energy of Binding    =  -11.84 kcal/mol  [=(1)+(2)+(3)-(4)]
DOCKED: USER    Estimated Inhibition Constant, Ki   =    2.09 nM (nanomolar)  [Temperature = 298.15 K]
DOCKED: USER    
DOCKED: USER    (1) Final Intermolecular Energy     =  -13.63 kcal/mol
DOCKED: USER        vdW + Hbond + desolv Energy     =   -3.46 kcal/mol
DOCKED: USER        Electrostatic Energy            =  -10.17 kcal/mol
DOCKED: USER    (2) Final Total Internal Energy     =   +2.74 kcal/mol
DOCKED: USER    (3) Torsional Free Energy           =   +1.79 kcal/mol
DOCKED: USER    (4) Unbound System's Energy  [=(2)] =   +2.74 kcal/mol
DOCKED: USER    
DOCKED: USER    
DOCKED: USER    NEWDPF move 2_3_BPG_opt.pdbqt
DOCKED: USER    NEWDPF about 0.015000 0.083000 0.031000
DOCKED: USER    NEWDPF tran0 -8.244838 -18.822213 5.102028
DOCKED: USER    NEWDPF quaternion0 -0.508902 0.417107 -0.144848 0.738959
DOCKED: USER    NEWDPF axisangle0 -0.755326 0.619082 -0.214988 84.714455
DOCKED: USER    NEWDPF quat0 -0.755326 0.619082 -0.214988 84.714455
DOCKED: USER    NEWDPF dihe0 -179.89 -43.97 -41.76 73.26 44.43 -158.81 
DOCKED: USER  keepresnum = 1 
DOCKED: USER  
DOCKED: REMARK  6 active torsions:
DOCKED: REMARK  status: ('A' for Active; 'I' for Inactive)
DOCKED: REMARK    1  A    between atoms: P_1  and  O_3 
DOCKED: REMARK    2  A    between atoms: P_2  and  O_4 
DOCKED: REMARK    3  A    between atoms: O_3  and  C_13 
DOCKED: REMARK    4  A    between atoms: O_4  and  C_14 
DOCKED: REMARK    5  A    between atoms: C_13  and  C_14 
DOCKED: REMARK    6  A    between atoms: C_13  and  C_15 
DOCKED: USER                              x       y       z     vdW  Elec       q    Type
DOCKED: USER                           _______ _______ _______ _____ _____    ______ ____
DOCKED: ROOT
DOCKED: ATOM      1  C   UNL d   1      -8.447 -18.917   4.470 -0.08 +0.33    +0.193 C 
DOCKED: ENDROOT
DOCKED: BRANCH   1   2
DOCKED: ATOM      2  O   UNL d   1      -9.295 -17.784   4.085 -0.27 -0.90    -0.356 OA
DOCKED: BRANCH   2   3
DOCKED: ATOM      3  P   UNL d   1     -10.678 -17.381   4.879 -0.28 -0.03    -0.014 P 
DOCKED: ATOM      4  O   UNL d   1     -10.561 -15.866   5.109 -0.43 -1.31    -0.577 OA
DOCKED: ATOM      5  O   UNL d   1     -10.683 -18.150   6.199 -0.44 -1.35    -0.577 OA
DOCKED: ATOM      6  O   UNL d   1     -11.857 -17.720   3.974 -0.01 -0.69    -0.638 OA
DOCKED: ENDBRANCH   2   3
DOCKED: ENDBRANCH   1   2
DOCKED: BRANCH   1   7
DOCKED: ATOM      7  C   UNL d   1      -7.733 -18.575   5.829 -0.09 +0.37    +0.201 C 
DOCKED: BRANCH   7   8
DOCKED: ATOM      8  O   UNL d   1      -8.053 -17.289   6.403 -0.15 -1.09    -0.364 OA
DOCKED: BRANCH   8   9
DOCKED: ATOM      9  P   UNL d   1      -6.843 -16.298   6.945 -0.03 -0.03    -0.015 P 
DOCKED: ATOM     10  O   UNL d   1      -7.269 -14.885   6.528 -0.20 -1.40    -0.577 OA
DOCKED: ATOM     11  O   UNL d   1      -5.559 -16.738   6.244 -0.42 -1.00    -0.577 OA
DOCKED: ATOM     12  O   UNL d   1      -6.779 -16.454   8.464 -0.57 -1.16    -0.638 OA
DOCKED: ENDBRANCH   8   9
DOCKED: ENDBRANCH   7   8
DOCKED: ENDBRANCH   1   7
DOCKED: BRANCH   1  13
DOCKED: ATOM     13  C   UNL d   1      -7.347 -19.165   3.371 -0.10 +0.12    +0.073 C 
DOCKED: ATOM     14  O   UNL d   1      -7.241 -20.337   2.865 -0.01 -0.62    -0.547 OA
DOCKED: ATOM     15  O   UNL d   1      -6.656 -18.149   2.999 -0.38 -1.44    -0.547 OA
DOCKED: ENDBRANCH   1  13
DOCKED: TORSDOF 6
DOCKED: TER
DOCKED: ENDMDL
________________________________________________________________________________


	BEGINNING GENETIC ALGORITHM DOCKING 13 of 100
Run: 13 Seed: 361914835 1074888227 [ Run 13 of 100 GA/GALS ]
Beginning LAMARCKIAN GENETIC ALGORITHM (LGA), with a maximum of 25000000 energy evaluations.

Final-Value: -10.291


	FINAL GENETIC ALGORITHM DOCKED STATE
	_______________________________________________


Detailed state:  trans -8.136 -18.563 5.228 quatxyzw -0.549686 0.296392 -0.009525 0.780965 center 0.015 0.083 0.031 ntor 6 32.6626 -119.4649 113.4722 20.0074 39.0411 -136.4635
State:	 -8.136 -18.563   5.228  -0.880  0.475 -0.015 77.302     32.66 -119.46  113.47   20.01   39.04 -136.46

DOCKED: MODEL       13
DOCKED: USER    Run = 13
DOCKED: USER    DPF = D:/Protein_go_brrr/autodock/final/AncB/2_3_BPG/dock.dpf
DOCKED: USER  
DOCKED: USER    Estimated Free Energy of Binding    =  -10.80 kcal/mol  [=(1)+(2)+(3)-(4)]
DOCKED: USER    Estimated Inhibition Constant, Ki   =   12.18 nM (nanomolar)  [Temperature = 298.15 K]
DOCKED: USER    
DOCKED: USER    (1) Final Intermolecular Energy     =  -12.59 kcal/mol
DOCKED: USER        vdW + Hbond + desolv Energy     =   -3.03 kcal/mol
DOCKED: USER        Electrostatic Energy            =   -9.56 kcal/mol
DOCKED: USER    (2) Final Total Internal Energy     =   +2.30 kcal/mol
DOCKED: USER    (3) Torsional Free Energy           =   +1.79 kcal/mol
DOCKED: USER    (4) Unbound System's Energy  [=(2)] =   +2.30 kcal/mol
DOCKED: USER    
DOCKED: USER    
DOCKED: USER    NEWDPF move 2_3_BPG_opt.pdbqt
DOCKED: USER    NEWDPF about 0.015000 0.083000 0.031000
DOCKED: USER    NEWDPF tran0 -8.136113 -18.563303 5.228459
DOCKED: USER    NEWDPF quaternion0 -0.549686 0.296392 -0.009525 0.780965
DOCKED: USER    NEWDPF axisangle0 -0.880096 0.474550 -0.015250 77.302055
DOCKED: USER    NEWDPF quat0 -0.880096 0.474550 -0.015250 77.302055
DOCKED: USER    NEWDPF dihe0 32.66 -119.46 113.47 20.01 39.04 -136.46 
DOCKED: USER  keepresnum = 1 
DOCKED: USER  
DOCKED: REMARK  6 active torsions:
DOCKED: REMARK  status: ('A' for Active; 'I' for Inactive)
DOCKED: REMARK    1  A    between atoms: P_1  and  O_3 
DOCKED: REMARK    2  A    between atoms: P_2  and  O_4 
DOCKED: REMARK    3  A    between atoms: O_3  and  C_13 
DOCKED: REMARK    4  A    between atoms: O_4  and  C_14 
DOCKED: REMARK    5  A    between atoms: C_13  and  C_14 
DOCKED: REMARK    6  A    between atoms: C_13  and  C_15 
DOCKED: USER                              x       y       z     vdW  Elec       q    Type
DOCKED: USER                           _______ _______ _______ _____ _____    ______ ____
DOCKED: ROOT
DOCKED: ATOM      1  C   UNL d   1      -8.555 -18.585   4.705 -0.08 +0.38    +0.193 C 
DOCKED: ENDROOT
DOCKED: BRANCH   1   2
DOCKED: ATOM      2  O   UNL d   1      -9.401 -17.387   4.747 -0.39 -1.05    -0.356 OA
DOCKED: BRANCH   2   3
DOCKED: ATOM      3  P   UNL d   1     -11.018 -17.434   5.046 -0.26 -0.02    -0.014 P 
DOCKED: ATOM      4  O   UNL d   1     -11.136 -18.149   6.402 -0.48 -1.25    -0.577 OA
DOCKED: ATOM      5  O   UNL d   1     -11.662 -18.246   3.925 -0.00 -0.60    -0.577 OA
DOCKED: ATOM      6  O   UNL d   1     -11.524 -15.997   5.125 -0.06 -1.04    -0.638 OA
DOCKED: ENDBRANCH   2   3
DOCKED: ENDBRANCH   1   2
DOCKED: BRANCH   1   7
DOCKED: ATOM      7  C   UNL d   1      -7.384 -18.412   5.742 -0.06 +0.38    +0.201 C 
DOCKED: BRANCH   7   8
DOCKED: ATOM      8  O   UNL d   1      -7.628 -17.483   6.820 -0.26 -0.94    -0.364 OA
DOCKED: BRANCH   8   9
DOCKED: ATOM      9  P   UNL d   1      -6.438 -16.440   7.302 -0.21 -0.03    -0.015 P 
DOCKED: ATOM     10  O   UNL d   1      -5.321 -17.335   7.852 +0.01 -0.57    -0.577 OA
DOCKED: ATOM     11  O   UNL d   1      -7.040 -15.547   8.387 -0.52 -1.07    -0.577 OA
DOCKED: ATOM     12  O   UNL d   1      -5.993 -15.661   6.065 -0.34 -1.59    -0.638 OA
DOCKED: ENDBRANCH   8   9
DOCKED: ENDBRANCH   7   8
DOCKED: ENDBRANCH   1   7
DOCKED: BRANCH   1  13
DOCKED: ATOM     13  C   UNL d   1      -7.935 -18.758   3.268 -0.03 +0.15    +0.073 C 
DOCKED: ATOM     14  O   UNL d   1      -6.841 -18.149   2.997 -0.34 -1.49    -0.547 OA
DOCKED: ATOM     15  O   UNL d   1      -8.539 -19.558   2.466 -0.01 -0.81    -0.547 OA
DOCKED: ENDBRANCH   1  13
DOCKED: TORSDOF 6
DOCKED: TER
DOCKED: ENDMDL
________________________________________________________________________________


	BEGINNING GENETIC ALGORITHM DOCKING 14 of 100
Run: 14 Seed: 1161236079 1300831692 [ Run 14 of 100 GA/GALS ]
Beginning LAMARCKIAN GENETIC ALGORITHM (LGA), with a maximum of 25000000 energy evaluations.

Final-Value: -10.444


	FINAL GENETIC ALGORITHM DOCKED STATE
	_______________________________________________


Detailed state:  trans -8.931 -19.260 3.436 quatxyzw 0.516966 -0.122948 -0.201283 -0.822870 center 0.015 0.083 0.031 ntor 6 -49.6335 -11.6928 5.3749 82.5071 9.3224 148.8597
State:	 -8.931 -19.260   3.436   0.910 -0.216 -0.354 -69.254    -49.63  -11.69    5.37   82.51    9.32  148.86

DOCKED: MODEL       14
DOCKED: USER    Run = 14
DOCKED: USER    DPF = D:/Protein_go_brrr/autodock/final/AncB/2_3_BPG/dock.dpf
DOCKED: USER  
DOCKED: USER    Estimated Free Energy of Binding    =  -11.09 kcal/mol  [=(1)+(2)+(3)-(4)]
DOCKED: USER    Estimated Inhibition Constant, Ki   =    7.37 nM (nanomolar)  [Temperature = 298.15 K]
DOCKED: USER    
DOCKED: USER    (1) Final Intermolecular Energy     =  -12.88 kcal/mol
DOCKED: USER        vdW + Hbond + desolv Energy     =   -3.21 kcal/mol
DOCKED: USER        Electrostatic Energy            =   -9.68 kcal/mol
DOCKED: USER    (2) Final Total Internal Energy     =   +2.44 kcal/mol
DOCKED: USER    (3) Torsional Free Energy           =   +1.79 kcal/mol
DOCKED: USER    (4) Unbound System's Energy  [=(2)] =   +2.44 kcal/mol
DOCKED: USER    
DOCKED: USER    
DOCKED: USER    NEWDPF move 2_3_BPG_opt.pdbqt
DOCKED: USER    NEWDPF about 0.015000 0.083000 0.031000
DOCKED: USER    NEWDPF tran0 -8.930926 -19.260135 3.436395
DOCKED: USER    NEWDPF quaternion0 0.516966 -0.122948 -0.201283 -0.822870
DOCKED: USER    NEWDPF axisangle0 0.909784 -0.216370 -0.354228 -69.253772
DOCKED: USER    NEWDPF quat0 0.909784 -0.216370 -0.354228 -69.253772
DOCKED: USER    NEWDPF dihe0 -49.63 -11.69 5.37 82.51 9.32 148.86 
DOCKED: USER  keepresnum = 1 
DOCKED: USER  
DOCKED: REMARK  6 active torsions:
DOCKED: REMARK  status: ('A' for Active; 'I' for Inactive)
DOCKED: REMARK    1  A    between atoms: P_1  and  O_3 
DOCKED: REMARK    2  A    between atoms: P_2  and  O_4 
DOCKED: REMARK    3  A    between atoms: O_3  and  C_13 
DOCKED: REMARK    4  A    between atoms: O_4  and  C_14 
DOCKED: REMARK    5  A    between atoms: C_13  and  C_14 
DOCKED: REMARK    6  A    between atoms: C_13  and  C_15 
DOCKED: USER                              x       y       z     vdW  Elec       q    Type
DOCKED: USER                           _______ _______ _______ _____ _____    ______ ____
DOCKED: ROOT
DOCKED: ATOM      1  C   UNL d   1      -9.554 -19.186   3.199 -0.09 +0.26    +0.193 C 
DOCKED: ENDROOT
DOCKED: BRANCH   1   2
DOCKED: ATOM      2  O   UNL d   1     -10.060 -17.883   3.644 -0.26 -0.64    -0.356 OA
DOCKED: BRANCH   2   3
DOCKED: ATOM      3  P   UNL d   1      -9.990 -17.372   5.206 +0.04 -0.03    -0.014 P 
DOCKED: ATOM      4  O   UNL d   1     -10.243 -15.858   5.125 -0.54 -1.48    -0.577 OA
DOCKED: ATOM      5  O   UNL d   1      -8.585 -17.680   5.720 -0.12 -1.62    -0.577 OA
DOCKED: ATOM      6  O   UNL d   1     -11.091 -18.083   5.984 -0.45 -1.22    -0.638 OA
DOCKED: ENDBRANCH   2   3
DOCKED: ENDBRANCH   1   2
DOCKED: BRANCH   1   7
DOCKED: ATOM      7  C   UNL d   1      -8.010 -19.255   3.493 -0.09 +0.32    +0.201 C 
DOCKED: BRANCH   7   8
DOCKED: ATOM      8  O   UNL d   1      -7.224 -18.148   2.997 -0.29 -1.03    -0.364 OA
DOCKED: BRANCH   8   9
DOCKED: ATOM      9  P   UNL d   1      -5.573 -18.249   2.971 -0.14 -0.03    -0.015 P 
DOCKED: ATOM     10  O   UNL d   1      -5.094 -16.847   2.576 -0.34 -1.23    -0.577 OA
DOCKED: ATOM     11  O   UNL d   1      -5.207 -19.295   1.918 -0.44 -0.87    -0.577 OA
DOCKED: ATOM     12  O   UNL d   1      -5.122 -18.634   4.379 +0.02 -0.79    -0.638 OA
DOCKED: ENDBRANCH   8   9
DOCKED: ENDBRANCH   7   8
DOCKED: ENDBRANCH   1   7
DOCKED: BRANCH   1  13
DOCKED: ATOM     13  C   UNL d   1      -9.780 -19.353   1.651 +0.01 +0.10    +0.073 C 
DOCKED: ATOM     14  O   UNL d   1     -10.269 -18.367   0.994 -0.26 -0.82    -0.547 OA
DOCKED: ATOM     15  O   UNL d   1      -9.399 -20.459   1.122 -0.26 -0.60    -0.547 OA
DOCKED: ENDBRANCH   1  13
DOCKED: TORSDOF 6
DOCKED: TER
DOCKED: ENDMDL
________________________________________________________________________________


	BEGINNING GENETIC ALGORITHM DOCKING 15 of 100
Run: 15 Seed: 1969654137 741144423 [ Run 15 of 100 GA/GALS ]
Beginning LAMARCKIAN GENETIC ALGORITHM (LGA), with a maximum of 25000000 energy evaluations.

Final-Value: -10.030


	FINAL GENETIC ALGORITHM DOCKED STATE
	_______________________________________________


Detailed state:  trans -7.021 -18.940 4.352 quatxyzw -0.321402 0.429682 -0.142590 0.831711 center 0.015 0.083 0.031 ntor 6 169.7521 -76.6318 162.6867 26.0832 41.0485 -78.6709
State:	 -7.021 -18.940   4.352  -0.579  0.774 -0.257 67.450    169.75  -76.63  162.69   26.08   41.05  -78.67

DOCKED: MODEL       15
DOCKED: USER    Run = 15
DOCKED: USER    DPF = D:/Protein_go_brrr/autodock/final/AncB/2_3_BPG/dock.dpf
DOCKED: USER  
DOCKED: USER    Estimated Free Energy of Binding    =  -10.60 kcal/mol  [=(1)+(2)+(3)-(4)]
DOCKED: USER    Estimated Inhibition Constant, Ki   =   16.93 nM (nanomolar)  [Temperature = 298.15 K]
DOCKED: USER    
DOCKED: USER    (1) Final Intermolecular Energy     =  -12.39 kcal/mol
DOCKED: USER        vdW + Hbond + desolv Energy     =   -2.39 kcal/mol
DOCKED: USER        Electrostatic Energy            =  -10.01 kcal/mol
DOCKED: USER    (2) Final Total Internal Energy     =   +2.36 kcal/mol
DOCKED: USER    (3) Torsional Free Energy           =   +1.79 kcal/mol
DOCKED: USER    (4) Unbound System's Energy  [=(2)] =   +2.36 kcal/mol
DOCKED: USER    
DOCKED: USER    
DOCKED: USER    NEWDPF move 2_3_BPG_opt.pdbqt
DOCKED: USER    NEWDPF about 0.015000 0.083000 0.031000
DOCKED: USER    NEWDPF tran0 -7.020640 -18.940311 4.352291
DOCKED: USER    NEWDPF quaternion0 -0.321402 0.429682 -0.142590 0.831711
DOCKED: USER    NEWDPF axisangle0 -0.578883 0.773910 -0.256822 67.450289
DOCKED: USER    NEWDPF quat0 -0.578883 0.773910 -0.256822 67.450289
DOCKED: USER    NEWDPF dihe0 169.75 -76.63 162.69 26.08 41.05 -78.67 
DOCKED: USER  keepresnum = 1 
DOCKED: USER  
DOCKED: REMARK  6 active torsions:
DOCKED: REMARK  status: ('A' for Active; 'I' for Inactive)
DOCKED: REMARK    1  A    between atoms: P_1  and  O_3 
DOCKED: REMARK    2  A    between atoms: P_2  and  O_4 
DOCKED: REMARK    3  A    between atoms: O_3  and  C_13 
DOCKED: REMARK    4  A    between atoms: O_4  and  C_14 
DOCKED: REMARK    5  A    between atoms: C_13  and  C_14 
DOCKED: REMARK    6  A    between atoms: C_13  and  C_15 
DOCKED: USER                              x       y       z     vdW  Elec       q    Type
DOCKED: USER                           _______ _______ _______ _____ _____    ______ ____
DOCKED: ROOT
DOCKED: ATOM      1  C   UNL d   1      -7.264 -19.213   3.791 -0.08 +0.31    +0.193 C 
DOCKED: ENDROOT
DOCKED: BRANCH   1   2
DOCKED: ATOM      2  O   UNL d   1      -7.893 -18.149   3.000 -0.18 -0.97    -0.356 OA
DOCKED: BRANCH   2   3
DOCKED: ATOM      3  P   UNL d   1      -9.522 -17.978   2.850 -0.13 -0.03    -0.014 P 
DOCKED: ATOM      4  O   UNL d   1      -9.885 -16.876   3.858 -0.34 -1.58    -0.577 OA
DOCKED: ATOM      5  O   UNL d   1     -10.154 -19.315   3.228 +0.02 -0.66    -0.577 OA
DOCKED: ATOM      6  O   UNL d   1      -9.820 -17.547   1.418 -0.06 -1.21    -0.638 OA
DOCKED: ENDBRANCH   2   3
DOCKED: ENDBRANCH   1   2
DOCKED: BRANCH   1   7
DOCKED: ATOM      7  C   UNL d   1      -6.440 -18.555   4.958 -0.04 +0.34    +0.201 C 
DOCKED: BRANCH   7   8
DOCKED: ATOM      8  O   UNL d   1      -7.201 -18.152   6.117 -0.07 -0.71    -0.364 OA
DOCKED: BRANCH   8   9
DOCKED: ATOM      9  P   UNL d   1      -6.919 -16.683   6.825 -0.01 -0.04    -0.015 P 
DOCKED: ATOM     10  O   UNL d   1      -5.574 -16.217   6.253 -0.56 -1.06    -0.577 OA
DOCKED: ATOM     11  O   UNL d   1      -6.847 -16.921   8.333 -0.58 -1.09    -0.577 OA
DOCKED: ATOM     12  O   UNL d   1      -8.066 -15.759   6.419 +0.08 -2.13    -0.638 OA
DOCKED: ENDBRANCH   8   9
DOCKED: ENDBRANCH   7   8
DOCKED: ENDBRANCH   1   7
DOCKED: BRANCH   1  13
DOCKED: ATOM     13  C   UNL d   1      -6.281 -20.048   2.887 -0.07 +0.09    +0.073 C 
DOCKED: ATOM     14  O   UNL d   1      -6.292 -21.325   2.990 +0.01 -0.40    -0.547 OA
DOCKED: ATOM     15  O   UNL d   1      -5.565 -19.394   2.046 -0.37 -0.87    -0.547 OA
DOCKED: ENDBRANCH   1  13
DOCKED: TORSDOF 6
DOCKED: TER
DOCKED: ENDMDL
________________________________________________________________________________


	BEGINNING GENETIC ALGORITHM DOCKING 16 of 100
Run: 16 Seed: 1376353014 1662407218 [ Run 16 of 100 GA/GALS ]
Beginning LAMARCKIAN GENETIC ALGORITHM (LGA), with a maximum of 25000000 energy evaluations.

Final-Value: -10.675


	FINAL GENETIC ALGORITHM DOCKED STATE
	_______________________________________________


Detailed state:  trans -7.016 -18.215 6.252 quatxyzw 0.264681 -0.420401 0.853416 0.157762 center 0.015 0.083 0.031 ntor 6 -48.8239 -36.8318 152.4957 79.3015 54.3601 175.3039
State:	 -7.016 -18.215   6.252   0.268 -0.426  0.864 161.846    -48.82  -36.83  152.50   79.30   54.36  175.30

DOCKED: MODEL       16
DOCKED: USER    Run = 16
DOCKED: USER    DPF = D:/Protein_go_brrr/autodock/final/AncB/2_3_BPG/dock.dpf
DOCKED: USER  
DOCKED: USER    Estimated Free Energy of Binding    =  -11.46 kcal/mol  [=(1)+(2)+(3)-(4)]
DOCKED: USER    Estimated Inhibition Constant, Ki   =    3.96 nM (nanomolar)  [Temperature = 298.15 K]
DOCKED: USER    
DOCKED: USER    (1) Final Intermolecular Energy     =  -13.25 kcal/mol
DOCKED: USER        vdW + Hbond + desolv Energy     =   -3.03 kcal/mol
DOCKED: USER        Electrostatic Energy            =  -10.22 kcal/mol
DOCKED: USER    (2) Final Total Internal Energy     =   +2.58 kcal/mol
DOCKED: USER    (3) Torsional Free Energy           =   +1.79 kcal/mol
DOCKED: USER    (4) Unbound System's Energy  [=(2)] =   +2.58 kcal/mol
DOCKED: USER    
DOCKED: USER    
DOCKED: USER    NEWDPF move 2_3_BPG_opt.pdbqt
DOCKED: USER    NEWDPF about 0.015000 0.083000 0.031000
DOCKED: USER    NEWDPF tran0 -7.015914 -18.214717 6.252373
DOCKED: USER    NEWDPF quaternion0 0.264681 -0.420401 0.853416 0.157762
DOCKED: USER    NEWDPF axisangle0 0.268038 -0.425732 0.864238 161.845950
DOCKED: USER    NEWDPF quat0 0.268038 -0.425732 0.864238 161.845950
DOCKED: USER    NEWDPF dihe0 -48.82 -36.83 152.50 79.30 54.36 175.30 
DOCKED: USER  keepresnum = 1 
DOCKED: USER  
DOCKED: REMARK  6 active torsions:
DOCKED: REMARK  status: ('A' for Active; 'I' for Inactive)
DOCKED: REMARK    1  A    between atoms: P_1  and  O_3 
DOCKED: REMARK    2  A    between atoms: P_2  and  O_4 
DOCKED: REMARK    3  A    between atoms: O_3  and  C_13 
DOCKED: REMARK    4  A    between atoms: O_4  and  C_14 
DOCKED: REMARK    5  A    between atoms: C_13  and  C_14 
DOCKED: REMARK    6  A    between atoms: C_13  and  C_15 
DOCKED: USER                              x       y       z     vdW  Elec       q    Type
DOCKED: USER                           _______ _______ _______ _____ _____    ______ ____
DOCKED: ROOT
DOCKED: ATOM      1  C   UNL d   1      -6.501 -17.799   6.362 -0.08 +0.34    +0.193 C 
DOCKED: ENDROOT
DOCKED: BRANCH   1   2
DOCKED: ATOM      2  O   UNL d   1      -5.989 -17.351   5.062 +0.03 -0.90    -0.356 OA
DOCKED: BRANCH   2   3
DOCKED: ATOM      3  P   UNL d   1      -5.554 -18.384   3.859 -0.13 -0.02    -0.014 P 
DOCKED: ATOM      4  O   UNL d   1      -6.087 -17.725   2.577 -0.48 -1.58    -0.577 OA
DOCKED: ATOM      5  O   UNL d   1      -6.247 -19.717   4.135 +0.01 -0.65    -0.577 OA
DOCKED: ATOM      6  O   UNL d   1      -4.032 -18.480   3.848 +0.03 -0.60    -0.638 OA
DOCKED: ENDBRANCH   2   3
DOCKED: ENDBRANCH   1   2
DOCKED: BRANCH   1   7
DOCKED: ATOM      7  C   UNL d   1      -7.875 -18.533   6.138 -0.09 +0.38    +0.201 C 
DOCKED: BRANCH   7   8
DOCKED: ATOM      8  O   UNL d   1      -8.607 -18.152   4.952 -0.17 -0.87    -0.364 OA
DOCKED: BRANCH   8   9
DOCKED: ATOM      9  P   UNL d   1     -10.149 -17.568   5.081 -0.18 -0.03    -0.015 P 
DOCKED: ATOM     10  O   UNL d   1     -10.688 -18.149   6.394 -0.41 -1.46    -0.577 OA
DOCKED: ATOM     11  O   UNL d   1     -10.924 -18.083   3.868 -0.03 -0.77    -0.577 OA
DOCKED: ATOM     12  O   UNL d   1     -10.052 -16.044   5.125 -0.50 -1.82    -0.638 OA
DOCKED: ENDBRANCH   8   9
DOCKED: ENDBRANCH   7   8
DOCKED: ENDBRANCH   1   7
DOCKED: BRANCH   1  13
DOCKED: ATOM     13  C   UNL d   1      -6.739 -16.561   7.305 -0.12 +0.15    +0.073 C 
DOCKED: ATOM     14  O   UNL d   1      -6.566 -15.386   6.825 -0.49 -1.12    -0.547 OA
DOCKED: ATOM     15  O   UNL d   1      -7.158 -16.805   8.493 -0.44 -1.27    -0.547 OA
DOCKED: ENDBRANCH   1  13
DOCKED: TORSDOF 6
DOCKED: TER
DOCKED: ENDMDL
________________________________________________________________________________


	BEGINNING GENETIC ALGORITHM DOCKING 17 of 100
Run: 17 Seed: 1700309343 1090308742 [ Run 17 of 100 GA/GALS ]
Beginning LAMARCKIAN GENETIC ALGORITHM (LGA), with a maximum of 25000000 energy evaluations.

Final-Value: -10.074


	FINAL GENETIC ALGORITHM DOCKED STATE
	_______________________________________________


Detailed state:  trans -8.757 -19.131 3.278 quatxyzw 0.822970 0.091550 -0.046282 -0.558746 center 0.015 0.083 0.031 ntor 6 13.3213 9.1425 28.4402 177.4516 -30.2953 -7.5133
State:	 -8.757 -19.131   3.278   0.992  0.110 -0.056 -112.062     13.32    9.14   28.44  177.45  -30.30   -7.51

DOCKED: MODEL       17
DOCKED: USER    Run = 17
DOCKED: USER    DPF = D:/Protein_go_brrr/autodock/final/AncB/2_3_BPG/dock.dpf
DOCKED: USER  
DOCKED: USER    Estimated Free Energy of Binding    =  -10.96 kcal/mol  [=(1)+(2)+(3)-(4)]
DOCKED: USER    Estimated Inhibition Constant, Ki   =    9.32 nM (nanomolar)  [Temperature = 298.15 K]
DOCKED: USER    
DOCKED: USER    (1) Final Intermolecular Energy     =  -12.75 kcal/mol
DOCKED: USER        vdW + Hbond + desolv Energy     =   -3.10 kcal/mol
DOCKED: USER        Electrostatic Energy            =   -9.65 kcal/mol
DOCKED: USER    (2) Final Total Internal Energy     =   +2.67 kcal/mol
DOCKED: USER    (3) Torsional Free Energy           =   +1.79 kcal/mol
DOCKED: USER    (4) Unbound System's Energy  [=(2)] =   +2.67 kcal/mol
DOCKED: USER    
DOCKED: USER    
DOCKED: USER    NEWDPF move 2_3_BPG_opt.pdbqt
DOCKED: USER    NEWDPF about 0.015000 0.083000 0.031000
DOCKED: USER    NEWDPF tran0 -8.757004 -19.130804 3.278185
DOCKED: USER    NEWDPF quaternion0 0.822970 0.091550 -0.046282 -0.558746
DOCKED: USER    NEWDPF axisangle0 0.992321 0.110389 -0.055805 -112.061721
DOCKED: USER    NEWDPF quat0 0.992321 0.110389 -0.055805 -112.061721
DOCKED: USER    NEWDPF dihe0 13.32 9.14 28.44 177.45 -30.30 -7.51 
DOCKED: USER  keepresnum = 1 
DOCKED: USER  
DOCKED: REMARK  6 active torsions:
DOCKED: REMARK  status: ('A' for Active; 'I' for Inactive)
DOCKED: REMARK    1  A    between atoms: P_1  and  O_3 
DOCKED: REMARK    2  A    between atoms: P_2  and  O_4 
DOCKED: REMARK    3  A    between atoms: O_3  and  C_13 
DOCKED: REMARK    4  A    between atoms: O_4  and  C_14 
DOCKED: REMARK    5  A    between atoms: C_13  and  C_14 
DOCKED: REMARK    6  A    between atoms: C_13  and  C_15 
DOCKED: USER                              x       y       z     vdW  Elec       q    Type
DOCKED: USER                           _______ _______ _______ _____ _____    ______ ____
DOCKED: ROOT
DOCKED: ATOM      1  C   UNL d   1      -9.391 -19.163   3.064 -0.10 +0.27    +0.193 C 
DOCKED: ENDROOT
DOCKED: BRANCH   1   2
DOCKED: ATOM      2  O   UNL d   1     -10.275 -18.957   4.217 -0.04 -0.46    -0.356 OA
DOCKED: BRANCH   2   3
DOCKED: ATOM      3  P   UNL d   1     -10.036 -17.776   5.337 -0.13 -0.03    -0.014 P 
DOCKED: ATOM      4  O   UNL d   1     -11.115 -18.033   6.401 -0.39 -1.31    -0.577 OA
DOCKED: ATOM      5  O   UNL d   1     -10.248 -16.437   4.635 -0.67 -1.45    -0.577 OA
DOCKED: ATOM      6  O   UNL d   1      -8.633 -17.947   5.910 -0.10 -1.62    -0.638 OA
DOCKED: ENDBRANCH   2   3
DOCKED: ENDBRANCH   1   2
DOCKED: BRANCH   1   7
DOCKED: ATOM      7  C   UNL d   1      -7.919 -18.804   3.485 -0.04 +0.39    +0.201 C 
DOCKED: BRANCH   7   8
DOCKED: ATOM      8  O   UNL d   1      -6.872 -19.498   2.771 -0.07 -0.57    -0.364 OA
DOCKED: BRANCH   8   9
DOCKED: ATOM      9  P   UNL d   1      -5.383 -18.799   2.597 -0.06 -0.02    -0.015 P 
DOCKED: ATOM     10  O   UNL d   1      -4.848 -19.329   1.261 -0.55 -0.86    -0.577 OA
DOCKED: ATOM     11  O   UNL d   1      -4.531 -19.265   3.777 +0.02 -0.53    -0.577 OA
DOCKED: ATOM     12  O   UNL d   1      -5.594 -17.286   2.571 -0.44 -1.62    -0.638 OA
DOCKED: ENDBRANCH   8   9
DOCKED: ENDBRANCH   7   8
DOCKED: ENDBRANCH   1   7
DOCKED: BRANCH   1  13
DOCKED: ATOM     13  C   UNL d   1      -9.821 -18.220   1.879 -0.08 +0.12    +0.073 C 
DOCKED: ATOM     14  O   UNL d   1      -9.677 -16.955   2.022 -0.04 -1.17    -0.547 OA
DOCKED: ATOM     15  O   UNL d   1     -10.236 -18.786   0.805 -0.40 -0.79    -0.547 OA
DOCKED: ENDBRANCH   1  13
DOCKED: TORSDOF 6
DOCKED: TER
DOCKED: ENDMDL
________________________________________________________________________________


	BEGINNING GENETIC ALGORITHM DOCKING 18 of 100
Run: 18 Seed: 648132280 2123616542 [ Run 18 of 100 GA/GALS ]
Beginning LAMARCKIAN GENETIC ALGORITHM (LGA), with a maximum of 25000000 energy evaluations.

Final-Value: -10.260


	FINAL GENETIC ALGORITHM DOCKED STATE
	_______________________________________________


Detailed state:  trans -9.382 -18.913 3.064 quatxyzw -0.516477 0.175309 0.311908 0.777966 center 0.015 0.083 0.031 ntor 6 -67.9979 -121.0535 -109.5850 67.8631 0.9439 159.7493
State:	 -9.382 -18.913   3.064  -0.822  0.279  0.496 77.851    -68.00 -121.05 -109.58   67.86    0.94  159.75

DOCKED: MODEL       18
DOCKED: USER    Run = 18
DOCKED: USER    DPF = D:/Protein_go_brrr/autodock/final/AncB/2_3_BPG/dock.dpf
DOCKED: USER  
DOCKED: USER    Estimated Free Energy of Binding    =  -10.80 kcal/mol  [=(1)+(2)+(3)-(4)]
DOCKED: USER    Estimated Inhibition Constant, Ki   =   12.10 nM (nanomolar)  [Temperature = 298.15 K]
DOCKED: USER    
DOCKED: USER    (1) Final Intermolecular Energy     =  -12.59 kcal/mol
DOCKED: USER        vdW + Hbond + desolv Energy     =   -3.04 kcal/mol
DOCKED: USER        Electrostatic Energy            =   -9.55 kcal/mol
DOCKED: USER    (2) Final Total Internal Energy     =   +2.33 kcal/mol
DOCKED: USER    (3) Torsional Free Energy           =   +1.79 kcal/mol
DOCKED: USER    (4) Unbound System's Energy  [=(2)] =   +2.33 kcal/mol
DOCKED: USER    
DOCKED: USER    
DOCKED: USER    NEWDPF move 2_3_BPG_opt.pdbqt
DOCKED: USER    NEWDPF about 0.015000 0.083000 0.031000
DOCKED: USER    NEWDPF tran0 -9.381698 -18.912802 3.064324
DOCKED: USER    NEWDPF quaternion0 -0.516477 0.175309 0.311908 0.777966
DOCKED: USER    NEWDPF axisangle0 -0.822015 0.279019 0.496427 77.850580
DOCKED: USER    NEWDPF quat0 -0.822015 0.279019 0.496427 77.850580
DOCKED: USER    NEWDPF dihe0 -68.00 -121.05 -109.58 67.86 0.94 159.75 
DOCKED: USER  keepresnum = 1 
DOCKED: USER  
DOCKED: REMARK  6 active torsions:
DOCKED: REMARK  status: ('A' for Active; 'I' for Inactive)
DOCKED: REMARK    1  A    between atoms: P_1  and  O_3 
DOCKED: REMARK    2  A    between atoms: P_2  and  O_4 
DOCKED: REMARK    3  A    between atoms: O_3  and  C_13 
DOCKED: REMARK    4  A    between atoms: O_4  and  C_14 
DOCKED: REMARK    5  A    between atoms: C_13  and  C_14 
DOCKED: REMARK    6  A    between atoms: C_13  and  C_15 
DOCKED: USER                              x       y       z     vdW  Elec       q    Type
DOCKED: USER                           _______ _______ _______ _____ _____    ______ ____
DOCKED: ROOT
DOCKED: ATOM      1  C   UNL d   1      -9.968 -18.672   2.846 -0.12 +0.27    +0.193 C 
DOCKED: ENDROOT
DOCKED: BRANCH   1   2
DOCKED: ATOM      2  O   UNL d   1     -10.124 -17.309   3.366 -0.37 -0.72    -0.356 OA
DOCKED: BRANCH   2   3
DOCKED: ATOM      3  P   UNL d   1     -10.257 -16.963   4.968 +0.01 -0.03    -0.014 P 
DOCKED: ATOM      4  O   UNL d   1      -9.014 -17.607   5.603 -0.27 -1.63    -0.577 OA
DOCKED: ATOM      5  O   UNL d   1     -11.544 -17.616   5.467 -0.15 -0.90    -0.577 OA
DOCKED: ATOM      6  O   UNL d   1     -10.244 -15.446   5.126 -0.39 -1.57    -0.638 OA
DOCKED: ENDBRANCH   2   3
DOCKED: ENDBRANCH   1   2
DOCKED: BRANCH   1   7
DOCKED: ATOM      7  C   UNL d   1      -8.488 -19.143   3.099 -0.09 +0.33    +0.201 C 
DOCKED: BRANCH   7   8
DOCKED: ATOM      8  O   UNL d   1      -7.463 -18.151   2.868 -0.14 -1.02    -0.364 OA
DOCKED: BRANCH   8   9
DOCKED: ATOM      9  P   UNL d   1      -5.866 -18.561   3.006 -0.12 -0.03    -0.015 P 
DOCKED: ATOM     10  O   UNL d   1      -5.568 -19.424   1.774 -0.38 -0.99    -0.577 OA
DOCKED: ATOM     11  O   UNL d   1      -5.720 -19.352   4.305 +0.01 -0.66    -0.577 OA
DOCKED: ATOM     12  O   UNL d   1      -5.065 -17.261   3.004 -0.25 -1.26    -0.638 OA
DOCKED: ENDBRANCH   8   9
DOCKED: ENDBRANCH   7   8
DOCKED: ENDBRANCH   1   7
DOCKED: BRANCH   1  13
DOCKED: ATOM     13  C   UNL d   1     -10.246 -18.693   1.297 -0.09 +0.10    +0.073 C 
DOCKED: ATOM     14  O   UNL d   1     -10.817 -17.678   0.764 -0.18 -0.73    -0.547 OA
DOCKED: ATOM     15  O   UNL d   1      -9.822 -19.713   0.643 -0.53 -0.73    -0.547 OA
DOCKED: ENDBRANCH   1  13
DOCKED: TORSDOF 6
DOCKED: TER
DOCKED: ENDMDL
________________________________________________________________________________


	BEGINNING GENETIC ALGORITHM DOCKING 19 of 100
Run: 19 Seed: 259436476 519635856 [ Run 19 of 100 GA/GALS ]
Beginning LAMARCKIAN GENETIC ALGORITHM (LGA), with a maximum of 25000000 energy evaluations.

Final-Value: -10.190


	FINAL GENETIC ALGORITHM DOCKED STATE
	_______________________________________________


Detailed state:  trans -6.586 -17.823 5.808 quatxyzw 0.741108 -0.092557 -0.110884 0.655666 center 0.015 0.083 0.031 ntor 6 39.9199 50.9242 -148.1923 23.7822 58.4952 -32.9799
State:	 -6.586 -17.823   5.808   0.982 -0.123 -0.147 98.060     39.92   50.92 -148.19   23.78   58.50  -32.98

DOCKED: MODEL       19
DOCKED: USER    Run = 19
DOCKED: USER    DPF = D:/Protein_go_brrr/autodock/final/AncB/2_3_BPG/dock.dpf
DOCKED: USER  
DOCKED: USER    Estimated Free Energy of Binding    =  -10.69 kcal/mol  [=(1)+(2)+(3)-(4)]
DOCKED: USER    Estimated Inhibition Constant, Ki   =   14.54 nM (nanomolar)  [Temperature = 298.15 K]
DOCKED: USER    
DOCKED: USER    (1) Final Intermolecular Energy     =  -12.48 kcal/mol
DOCKED: USER        vdW + Hbond + desolv Energy     =   -2.22 kcal/mol
DOCKED: USER        Electrostatic Energy            =  -10.26 kcal/mol
DOCKED: USER    (2) Final Total Internal Energy     =   +2.29 kcal/mol
DOCKED: USER    (3) Torsional Free Energy           =   +1.79 kcal/mol
DOCKED: USER    (4) Unbound System's Energy  [=(2)] =   +2.29 kcal/mol
DOCKED: USER    
DOCKED: USER    
DOCKED: USER    NEWDPF move 2_3_BPG_opt.pdbqt
DOCKED: USER    NEWDPF about 0.015000 0.083000 0.031000
DOCKED: USER    NEWDPF tran0 -6.586379 -17.823452 5.808124
DOCKED: USER    NEWDPF quaternion0 0.741108 -0.092557 -0.110884 0.655666
DOCKED: USER    NEWDPF axisangle0 0.981533 -0.122583 -0.146856 98.059681
DOCKED: USER    NEWDPF quat0 0.981533 -0.122583 -0.146856 98.059681
DOCKED: USER    NEWDPF dihe0 39.92 50.92 -148.19 23.78 58.50 -32.98 
DOCKED: USER  keepresnum = 1 
DOCKED: USER  
DOCKED: REMARK  6 active torsions:
DOCKED: REMARK  status: ('A' for Active; 'I' for Inactive)
DOCKED: REMARK    1  A    between atoms: P_1  and  O_3 
DOCKED: REMARK    2  A    between atoms: P_2  and  O_4 
DOCKED: REMARK    3  A    between atoms: O_3  and  C_13 
DOCKED: REMARK    4  A    between atoms: O_4  and  C_14 
DOCKED: REMARK    5  A    between atoms: C_13  and  C_14 
DOCKED: REMARK    6  A    between atoms: C_13  and  C_15 
DOCKED: USER                              x       y       z     vdW  Elec       q    Type
DOCKED: USER                           _______ _______ _______ _____ _____    ______ ____
DOCKED: ROOT
DOCKED: ATOM      1  C   UNL d   1      -7.064 -17.698   6.262 -0.03 +0.42    +0.193 C 
DOCKED: ENDROOT
DOCKED: BRANCH   1   2
DOCKED: ATOM      2  O   UNL d   1      -8.268 -18.443   5.877 -0.09 -0.73    -0.356 OA
DOCKED: BRANCH   2   3
DOCKED: ATOM      3  P   UNL d   1      -9.622 -17.724   5.282 -0.01 -0.03    -0.014 P 
DOCKED: ATOM      4  O   UNL d   1     -10.774 -18.362   6.076 -0.49 -1.15    -0.577 OA
DOCKED: ATOM      5  O   UNL d   1      -9.704 -18.071   3.797 -0.20 -1.12    -0.577 OA
DOCKED: ATOM      6  O   UNL d   1      -9.519 -16.227   5.552 -0.15 -2.16    -0.638 OA
DOCKED: ENDBRANCH   2   3
DOCKED: ENDBRANCH   1   2
DOCKED: BRANCH   1   7
DOCKED: ATOM      7  C   UNL d   1      -5.857 -18.202   5.387 -0.04 +0.31    +0.201 C 
DOCKED: BRANCH   7   8
DOCKED: ATOM      8  O   UNL d   1      -5.123 -17.180   4.677 -0.17 -0.67    -0.364 OA
DOCKED: BRANCH   8   9
DOCKED: ATOM      9  P   UNL d   1      -5.059 -17.202   3.024 -0.07 -0.03    -0.015 P 
DOCKED: ATOM     10  O   UNL d   1      -6.419 -17.754   2.579 -0.37 -1.74    -0.577 OA
DOCKED: ATOM     11  O   UNL d   1      -3.911 -18.133   2.635 -0.04 -0.63    -0.577 OA
DOCKED: ATOM     12  O   UNL d   1      -4.844 -15.762   2.561 -0.11 -1.14    -0.638 OA
DOCKED: ENDBRANCH   8   9
DOCKED: ENDBRANCH   7   8
DOCKED: ENDBRANCH   1   7
DOCKED: BRANCH   1  13
DOCKED: ATOM     13  C   UNL d   1      -6.730 -17.957   7.778 -0.09 +0.11    +0.073 C 
DOCKED: ATOM     14  O   UNL d   1      -5.908 -18.894   8.072 +0.01 -0.48    -0.547 OA
DOCKED: ATOM     15  O   UNL d   1      -7.261 -17.162   8.635 -0.38 -1.23    -0.547 OA
DOCKED: ENDBRANCH   1  13
DOCKED: TORSDOF 6
DOCKED: TER
DOCKED: ENDMDL
________________________________________________________________________________


	BEGINNING GENETIC ALGORITHM DOCKING 20 of 100
Run: 20 Seed: 288144446 2051588817 [ Run 20 of 100 GA/GALS ]
Beginning LAMARCKIAN GENETIC ALGORITHM (LGA), with a maximum of 25000000 energy evaluations.

Final-Value: -10.087


	FINAL GENETIC ALGORITHM DOCKED STATE
	_______________________________________________


Detailed state:  trans -6.266 -17.957 6.319 quatxyzw 0.362209 -0.516268 0.767176 0.117104 center 0.015 0.083 0.031 ntor 6 -126.2502 -164.3591 -91.4424 58.4021 -45.1608 133.9848
State:	 -6.266 -17.957   6.319   0.365 -0.520  0.772 166.550   -126.25 -164.36  -91.44   58.40  -45.16  133.98

DOCKED: MODEL       20
DOCKED: USER    Run = 20
DOCKED: USER    DPF = D:/Protein_go_brrr/autodock/final/AncB/2_3_BPG/dock.dpf
DOCKED: USER  
DOCKED: USER    Estimated Free Energy of Binding    =  -10.91 kcal/mol  [=(1)+(2)+(3)-(4)]
DOCKED: USER    Estimated Inhibition Constant, Ki   =   10.08 nM (nanomolar)  [Temperature = 298.15 K]
DOCKED: USER    
DOCKED: USER    (1) Final Intermolecular Energy     =  -12.70 kcal/mol
DOCKED: USER        vdW + Hbond + desolv Energy     =   -2.81 kcal/mol
DOCKED: USER        Electrostatic Energy            =   -9.89 kcal/mol
DOCKED: USER    (2) Final Total Internal Energy     =   +2.61 kcal/mol
DOCKED: USER    (3) Torsional Free Energy           =   +1.79 kcal/mol
DOCKED: USER    (4) Unbound System's Energy  [=(2)] =   +2.61 kcal/mol
DOCKED: USER    
DOCKED: USER    
DOCKED: USER    NEWDPF move 2_3_BPG_opt.pdbqt
DOCKED: USER    NEWDPF about 0.015000 0.083000 0.031000
DOCKED: USER    NEWDPF tran0 -6.265637 -17.956684 6.319009
DOCKED: USER    NEWDPF quaternion0 0.362209 -0.516268 0.767176 0.117104
DOCKED: USER    NEWDPF axisangle0 0.364718 -0.519845 0.772491 166.549975
DOCKED: USER    NEWDPF quat0 0.364718 -0.519845 0.772491 166.549975
DOCKED: USER    NEWDPF dihe0 -126.25 -164.36 -91.44 58.40 -45.16 133.98 
DOCKED: USER  keepresnum = 1 
DOCKED: USER  
DOCKED: REMARK  6 active torsions:
DOCKED: REMARK  status: ('A' for Active; 'I' for Inactive)
DOCKED: REMARK    1  A    between atoms: P_1  and  O_3 
DOCKED: REMARK    2  A    between atoms: P_2  and  O_4 
DOCKED: REMARK    3  A    between atoms: O_3  and  C_13 
DOCKED: REMARK    4  A    between atoms: O_4  and  C_14 
DOCKED: REMARK    5  A    between atoms: C_13  and  C_14 
DOCKED: REMARK    6  A    between atoms: C_13  and  C_15 
DOCKED: USER                              x       y       z     vdW  Elec       q    Type
DOCKED: USER                           _______ _______ _______ _____ _____    ______ ____
DOCKED: ROOT
DOCKED: ATOM      1  C   UNL d   1      -5.726 -17.561   6.357 -0.05 +0.29    +0.193 C 
DOCKED: ENDROOT
DOCKED: BRANCH   1   2
DOCKED: ATOM      2  O   UNL d   1      -5.570 -16.875   5.069 -0.16 -0.87    -0.356 OA
DOCKED: BRANCH   2   3
DOCKED: ATOM      3  P   UNL d   1      -5.026 -17.622   3.709 -0.12 -0.02    -0.014 P 
DOCKED: ATOM      4  O   UNL d   1      -5.049 -19.119   4.058 +0.01 -0.62    -0.577 OA
DOCKED: ATOM      5  O   UNL d   1      -3.604 -17.126   3.457 -0.00 -0.57    -0.577 OA
DOCKED: ATOM      6  O   UNL d   1      -5.993 -17.298   2.574 -0.39 -1.95    -0.638 OA
DOCKED: ENDBRANCH   2   3
DOCKED: ENDBRANCH   1   2
DOCKED: BRANCH   1   7
DOCKED: ATOM      7  C   UNL d   1      -7.134 -18.261   6.389 -0.09 +0.36    +0.201 C 
DOCKED: BRANCH   7   8
DOCKED: ATOM      8  O   UNL d   1      -8.278 -17.378   6.393 -0.03 -1.11    -0.364 OA
DOCKED: BRANCH   8   9
DOCKED: ATOM      9  P   UNL d   1      -9.598 -17.726   5.459 -0.00 -0.04    -0.015 P 
DOCKED: ATOM     10  O   UNL d   1     -10.515 -18.562   6.360 -0.54 -1.25    -0.577 OA
DOCKED: ATOM     11  O   UNL d   1      -9.095 -18.525   4.257 -0.09 -1.10    -0.577 OA
DOCKED: ATOM     12  O   UNL d   1     -10.237 -16.394   5.068 -0.63 -1.65    -0.638 OA
DOCKED: ENDBRANCH   8   9
DOCKED: ENDBRANCH   7   8
DOCKED: ENDBRANCH   1   7
DOCKED: BRANCH   1  13
DOCKED: ATOM     13  C   UNL d   1      -5.654 -16.519   7.535 -0.12 +0.09    +0.073 C 
DOCKED: ATOM     14  O   UNL d   1      -4.518 -16.002   7.825 +0.02 -0.43    -0.547 OA
DOCKED: ATOM     15  O   UNL d   1      -6.762 -16.200   8.099 -0.62 -1.03    -0.547 OA
DOCKED: ENDBRANCH   1  13
DOCKED: TORSDOF 6
DOCKED: TER
DOCKED: ENDMDL
________________________________________________________________________________


	BEGINNING GENETIC ALGORITHM DOCKING 21 of 100
Run: 21 Seed: 1910040365 703771059 [ Run 21 of 100 GA/GALS ]
Beginning LAMARCKIAN GENETIC ALGORITHM (LGA), with a maximum of 25000000 energy evaluations.

Final-Value: -9.167


	FINAL GENETIC ALGORITHM DOCKED STATE
	_______________________________________________


Detailed state:  trans -1.664 1.688 -14.319 quatxyzw 0.277186 0.123189 0.182853 -0.935178 center 0.015 0.083 0.031 ntor 6 -163.8244 77.4446 85.2174 -14.1677 19.8168 -88.1045
State:	 -1.664   1.688 -14.319   0.783  0.348  0.516 -41.486   -163.82   77.44   85.22  -14.17   19.82  -88.10

DOCKED: MODEL       21
DOCKED: USER    Run = 21
DOCKED: USER    DPF = D:/Protein_go_brrr/autodock/final/AncB/2_3_BPG/dock.dpf
DOCKED: USER  
DOCKED: USER    Estimated Free Energy of Binding    =   -9.50 kcal/mol  [=(1)+(2)+(3)-(4)]
DOCKED: USER    Estimated Inhibition Constant, Ki   =  107.89 nM (nanomolar)  [Temperature = 298.15 K]
DOCKED: USER    
DOCKED: USER    (1) Final Intermolecular Energy     =  -11.29 kcal/mol
DOCKED: USER        vdW + Hbond + desolv Energy     =   -3.82 kcal/mol
DOCKED: USER        Electrostatic Energy            =   -7.47 kcal/mol
DOCKED: USER    (2) Final Total Internal Energy     =   +2.13 kcal/mol
DOCKED: USER    (3) Torsional Free Energy           =   +1.79 kcal/mol
DOCKED: USER    (4) Unbound System's Energy  [=(2)] =   +2.13 kcal/mol
DOCKED: USER    
DOCKED: USER    
DOCKED: USER    NEWDPF move 2_3_BPG_opt.pdbqt
DOCKED: USER    NEWDPF about 0.015000 0.083000 0.031000
DOCKED: USER    NEWDPF tran0 -1.663783 1.687506 -14.319116
DOCKED: USER    NEWDPF quaternion0 0.277186 0.123189 0.182853 -0.935178
DOCKED: USER    NEWDPF axisangle0 0.782614 0.347816 0.516274 -41.486299
DOCKED: USER    NEWDPF quat0 0.782614 0.347816 0.516274 -41.486299
DOCKED: USER    NEWDPF dihe0 -163.82 77.44 85.22 -14.17 19.82 -88.10 
DOCKED: USER  keepresnum = 1 
DOCKED: USER  
DOCKED: REMARK  6 active torsions:
DOCKED: REMARK  status: ('A' for Active; 'I' for Inactive)
DOCKED: REMARK    1  A    between atoms: P_1  and  O_3 
DOCKED: REMARK    2  A    between atoms: P_2  and  O_4 
DOCKED: REMARK    3  A    between atoms: O_3  and  C_13 
DOCKED: REMARK    4  A    between atoms: O_4  and  C_14 
DOCKED: REMARK    5  A    between atoms: C_13  and  C_14 
DOCKED: REMARK    6  A    between atoms: C_13  and  C_15 
DOCKED: USER                              x       y       z     vdW  Elec       q    Type
DOCKED: USER                           _______ _______ _______ _____ _____    ______ ____
DOCKED: ROOT
DOCKED: ATOM      1  C   UNL d   1      -2.077   1.160 -14.343 -0.14 +0.28    +0.193 C 
DOCKED: ENDROOT
DOCKED: BRANCH   1   2
DOCKED: ATOM      2  O   UNL d   1      -3.456   1.655 -14.283 -0.53 -0.66    -0.356 OA
DOCKED: BRANCH   2   3
DOCKED: ATOM      3  P   UNL d   1      -4.678   0.836 -13.548 -0.19 -0.02    -0.014 P 
DOCKED: ATOM      4  O   UNL d   1      -5.526   0.292 -14.709 -0.00 -0.74    -0.577 OA
DOCKED: ATOM      5  O   UNL d   1      -5.458   1.845 -12.708 -0.06 -0.69    -0.577 OA
DOCKED: ATOM      6  O   UNL d   1      -4.063  -0.292 -12.727 -0.08 -1.23    -0.638 OA
DOCKED: ENDBRANCH   2   3
DOCKED: ENDBRANCH   1   2
DOCKED: BRANCH   1   7
DOCKED: ATOM      7  C   UNL d   1      -1.112   2.380 -14.581 -0.14 +0.27    +0.201 C 
DOCKED: BRANCH   7   8
DOCKED: ATOM      8  O   UNL d   1      -0.943   3.277 -13.461 -0.62 -0.57    -0.364 OA
DOCKED: BRANCH   8   9
DOCKED: ATOM      9  P   UNL d   1      -0.452   4.836 -13.715 -0.31 -0.02    -0.015 P 
DOCKED: ATOM     10  O   UNL d   1       1.076   4.799 -13.582 -0.37 -0.47    -0.577 OA
DOCKED: ATOM     11  O   UNL d   1      -1.099   5.690 -12.625 -0.45 -0.86    -0.577 OA
DOCKED: ATOM     12  O   UNL d   1      -0.896   5.226 -15.123 -0.39 -1.09    -0.638 OA
DOCKED: ENDBRANCH   8   9
DOCKED: ENDBRANCH   7   8
DOCKED: ENDBRANCH   1   7
DOCKED: BRANCH   1  13
DOCKED: ATOM     13  C   UNL d   1      -1.918   0.151 -15.541 -0.09 +0.10    +0.073 C 
DOCKED: ATOM     14  O   UNL d   1      -1.742  -1.090 -15.276 -0.44 -1.21    -0.547 OA
DOCKED: ATOM     15  O   UNL d   1      -2.039   0.630 -16.726 +0.00 -0.54    -0.547 OA
DOCKED: ENDBRANCH   1  13
DOCKED: TORSDOF 6
DOCKED: TER
DOCKED: ENDMDL
________________________________________________________________________________


	BEGINNING GENETIC ALGORITHM DOCKING 22 of 100
Run: 22 Seed: 1280567309 138721773 [ Run 22 of 100 GA/GALS ]
Beginning LAMARCKIAN GENETIC ALGORITHM (LGA), with a maximum of 25000000 energy evaluations.

Final-Value: -10.922


	FINAL GENETIC ALGORITHM DOCKED STATE
	_______________________________________________


Detailed state:  trans -8.089 -18.589 5.350 quatxyzw 0.467382 -0.357011 0.196764 -0.784463 center 0.015 0.083 0.031 ntor 6 175.6362 72.5969 89.3712 70.6680 32.5272 -156.3174
State:	 -8.089 -18.589   5.350   0.754 -0.576  0.317 -76.658    175.64   72.60   89.37   70.67   32.53 -156.32

DOCKED: MODEL       22
DOCKED: USER    Run = 22
DOCKED: USER    DPF = D:/Protein_go_brrr/autodock/final/AncB/2_3_BPG/dock.dpf
DOCKED: USER  
DOCKED: USER    Estimated Free Energy of Binding    =  -11.75 kcal/mol  [=(1)+(2)+(3)-(4)]
DOCKED: USER    Estimated Inhibition Constant, Ki   =    2.43 nM (nanomolar)  [Temperature = 298.15 K]
DOCKED: USER    
DOCKED: USER    (1) Final Intermolecular Energy     =  -13.54 kcal/mol
DOCKED: USER        vdW + Hbond + desolv Energy     =   -3.40 kcal/mol
DOCKED: USER        Electrostatic Energy            =  -10.14 kcal/mol
DOCKED: USER    (2) Final Total Internal Energy     =   +2.62 kcal/mol
DOCKED: USER    (3) Torsional Free Energy           =   +1.79 kcal/mol
DOCKED: USER    (4) Unbound System's Energy  [=(2)] =   +2.62 kcal/mol
DOCKED: USER    
DOCKED: USER    
DOCKED: USER    NEWDPF move 2_3_BPG_opt.pdbqt
DOCKED: USER    NEWDPF about 0.015000 0.083000 0.031000
DOCKED: USER    NEWDPF tran0 -8.088668 -18.589130 5.350419
DOCKED: USER    NEWDPF quaternion0 0.467382 -0.357011 0.196764 -0.784463
DOCKED: USER    NEWDPF axisangle0 0.753627 -0.575660 0.317271 -76.657960
DOCKED: USER    NEWDPF quat0 0.753627 -0.575660 0.317271 -76.657960
DOCKED: USER    NEWDPF dihe0 175.64 72.60 89.37 70.67 32.53 -156.32 
DOCKED: USER  keepresnum = 1 
DOCKED: USER  
DOCKED: REMARK  6 active torsions:
DOCKED: REMARK  status: ('A' for Active; 'I' for Inactive)
DOCKED: REMARK    1  A    between atoms: P_1  and  O_3 
DOCKED: REMARK    2  A    between atoms: P_2  and  O_4 
DOCKED: REMARK    3  A    between atoms: O_3  and  C_13 
DOCKED: REMARK    4  A    between atoms: O_4  and  C_14 
DOCKED: REMARK    5  A    between atoms: C_13  and  C_14 
DOCKED: REMARK    6  A    between atoms: C_13  and  C_15 
DOCKED: USER                              x       y       z     vdW  Elec       q    Type
DOCKED: USER                           _______ _______ _______ _____ _____    ______ ____
DOCKED: ROOT
DOCKED: ATOM      1  C   UNL d   1      -8.314 -18.807   4.758 -0.07 +0.35    +0.193 C 
DOCKED: ENDROOT
DOCKED: BRANCH   1   2
DOCKED: ATOM      2  O   UNL d   1      -9.286 -17.832   4.252 -0.29 -0.89    -0.356 OA
DOCKED: BRANCH   2   3
DOCKED: ATOM      3  P   UNL d   1     -10.686 -17.463   5.032 -0.26 -0.03    -0.014 P 
DOCKED: ATOM      4  O   UNL d   1     -11.790 -18.032   4.128 -0.02 -0.62    -0.577 OA
DOCKED: ATOM      5  O   UNL d   1     -10.765 -15.941   5.125 -0.35 -1.22    -0.577 OA
DOCKED: ATOM      6  O   UNL d   1     -10.664 -18.155   6.392 -0.39 -1.62    -0.638 OA
DOCKED: ENDBRANCH   2   3
DOCKED: ENDBRANCH   1   2
DOCKED: BRANCH   1   7
DOCKED: ATOM      7  C   UNL d   1      -7.564 -18.180   5.990 -0.09 +0.42    +0.201 C 
DOCKED: BRANCH   7   8
DOCKED: ATOM      8  O   UNL d   1      -8.011 -16.868   6.399 -0.13 -1.19    -0.364 OA
DOCKED: BRANCH   8   9
DOCKED: ATOM      9  P   UNL d   1      -6.923 -15.762   6.973 +0.00 -0.03    -0.015 P 
DOCKED: ATOM     10  O   UNL d   1      -6.845 -16.025   8.481 -0.62 -1.03    -0.577 OA
DOCKED: ATOM     11  O   UNL d   1      -7.489 -14.377   6.663 -0.16 -1.17    -0.577 OA
DOCKED: ATOM     12  O   UNL d   1      -5.592 -16.034   6.273 -0.56 -1.19    -0.638 OA
DOCKED: ENDBRANCH   8   9
DOCKED: ENDBRANCH   7   8
DOCKED: ENDBRANCH   1   7
DOCKED: BRANCH   1  13
DOCKED: ATOM     13  C   UNL d   1      -7.257 -19.145   3.642 -0.11 +0.12    +0.073 C 
DOCKED: ATOM     14  O   UNL d   1      -7.005 -20.375   3.391 +0.00 -0.57    -0.547 OA
DOCKED: ATOM     15  O   UNL d   1      -6.752 -18.155   3.000 -0.36 -1.46    -0.547 OA
DOCKED: ENDBRANCH   1  13
DOCKED: TORSDOF 6
DOCKED: TER
DOCKED: ENDMDL
________________________________________________________________________________


	BEGINNING GENETIC ALGORITHM DOCKING 23 of 100
Run: 23 Seed: 2063322969 2143685815 [ Run 23 of 100 GA/GALS ]
Beginning LAMARCKIAN GENETIC ALGORITHM (LGA), with a maximum of 25000000 energy evaluations.

Final-Value: -10.162


	FINAL GENETIC ALGORITHM DOCKED STATE
	_______________________________________________


Detailed state:  trans -7.214 -18.800 5.951 quatxyzw 0.635414 -0.321808 0.043128 -0.700592 center 0.015 0.083 0.031 ntor 6 -93.6318 -82.0283 88.0456 -1.9623 79.3906 -146.4314
State:	 -7.214 -18.800   5.951   0.890 -0.451  0.060 -91.051    -93.63  -82.03   88.05   -1.96   79.39 -146.43

DOCKED: MODEL       23
DOCKED: USER    Run = 23
DOCKED: USER    DPF = D:/Protein_go_brrr/autodock/final/AncB/2_3_BPG/dock.dpf
DOCKED: USER  
DOCKED: USER    Estimated Free Energy of Binding    =  -11.16 kcal/mol  [=(1)+(2)+(3)-(4)]
DOCKED: USER    Estimated Inhibition Constant, Ki   =    6.64 nM (nanomolar)  [Temperature = 298.15 K]
DOCKED: USER    
DOCKED: USER    (1) Final Intermolecular Energy     =  -12.95 kcal/mol
DOCKED: USER        vdW + Hbond + desolv Energy     =   -3.19 kcal/mol
DOCKED: USER        Electrostatic Energy            =   -9.76 kcal/mol
DOCKED: USER    (2) Final Total Internal Energy     =   +2.78 kcal/mol
DOCKED: USER    (3) Torsional Free Energy           =   +1.79 kcal/mol
DOCKED: USER    (4) Unbound System's Energy  [=(2)] =   +2.78 kcal/mol
DOCKED: USER    
DOCKED: USER    
DOCKED: USER    NEWDPF move 2_3_BPG_opt.pdbqt
DOCKED: USER    NEWDPF about 0.015000 0.083000 0.031000
DOCKED: USER    NEWDPF tran0 -7.214440 -18.800208 5.951093
DOCKED: USER    NEWDPF quaternion0 0.635414 -0.321808 0.043128 -0.700592
DOCKED: USER    NEWDPF axisangle0 0.890481 -0.450987 0.060441 -91.050996
DOCKED: USER    NEWDPF quat0 0.890481 -0.450987 0.060441 -91.050996
DOCKED: USER    NEWDPF dihe0 -93.63 -82.03 88.05 -1.96 79.39 -146.43 
DOCKED: USER  keepresnum = 1 
DOCKED: USER  
DOCKED: REMARK  6 active torsions:
DOCKED: REMARK  status: ('A' for Active; 'I' for Inactive)
DOCKED: REMARK    1  A    between atoms: P_1  and  O_3 
DOCKED: REMARK    2  A    between atoms: P_2  and  O_4 
DOCKED: REMARK    3  A    between atoms: O_3  and  C_13 
DOCKED: REMARK    4  A    between atoms: O_4  and  C_14 
DOCKED: REMARK    5  A    between atoms: C_13  and  C_14 
DOCKED: REMARK    6  A    between atoms: C_13  and  C_15 
DOCKED: USER                              x       y       z     vdW  Elec       q    Type
DOCKED: USER                           _______ _______ _______ _____ _____    ______ ____
DOCKED: ROOT
DOCKED: ATOM      1  C   UNL d   1      -7.567 -18.740   5.384 -0.07 +0.34    +0.193 C 
DOCKED: ENDROOT
DOCKED: BRANCH   1   2
DOCKED: ATOM      2  O   UNL d   1      -8.516 -17.633   5.551 -0.13 -1.02    -0.356 OA
DOCKED: BRANCH   2   3
DOCKED: ATOM      3  P   UNL d   1     -10.099 -17.727   5.114 -0.23 -0.03    -0.014 P 
DOCKED: ATOM      4  O   UNL d   1     -10.826 -18.152   6.400 -0.44 -1.40    -0.577 OA
DOCKED: ATOM      5  O   UNL d   1     -10.206 -18.796   4.029 -0.01 -0.78    -0.577 OA
DOCKED: ATOM      6  O   UNL d   1     -10.542 -16.343   4.652 -0.59 -1.41    -0.638 OA
DOCKED: ENDBRANCH   2   3
DOCKED: ENDBRANCH   1   2
DOCKED: BRANCH   1   7
DOCKED: ATOM      7  C   UNL d   1      -6.542 -18.710   6.577 -0.05 +0.26    +0.201 C 
DOCKED: BRANCH   7   8
DOCKED: ATOM      8  O   UNL d   1      -6.892 -17.857   7.688 -0.29 -0.63    -0.364 OA
DOCKED: BRANCH   8   9
DOCKED: ATOM      9  P   UNL d   1      -6.251 -16.336   7.800 -0.21 -0.02    -0.015 P 
DOCKED: ATOM     10  O   UNL d   1      -4.951 -16.508   8.596 +0.02 -0.45    -0.577 OA
DOCKED: ATOM     11  O   UNL d   1      -7.269 -15.477   8.550 -0.44 -1.13    -0.577 OA
DOCKED: ATOM     12  O   UNL d   1      -5.992 -15.849   6.375 -0.54 -1.36    -0.638 OA
DOCKED: ENDBRANCH   8   9
DOCKED: ENDBRANCH   7   8
DOCKED: ENDBRANCH   1   7
DOCKED: BRANCH   1  13
DOCKED: ATOM     13  C   UNL d   1      -6.775 -18.574   4.034 -0.01 +0.15    +0.073 C 
DOCKED: ATOM     14  O   UNL d   1      -7.410 -18.165   2.999 -0.20 -1.53    -0.547 OA
DOCKED: ATOM     15  O   UNL d   1      -5.512 -18.800   4.068 -0.02 -0.75    -0.547 OA
DOCKED: ENDBRANCH   1  13
DOCKED: TORSDOF 6
DOCKED: TER
DOCKED: ENDMDL
________________________________________________________________________________


	BEGINNING GENETIC ALGORITHM DOCKING 24 of 100
Run: 24 Seed: 750351980 1927715731 [ Run 24 of 100 GA/GALS ]
Beginning LAMARCKIAN GENETIC ALGORITHM (LGA), with a maximum of 25000000 energy evaluations.

Final-Value: -9.361


	FINAL GENETIC ALGORITHM DOCKED STATE
	_______________________________________________


Detailed state:  trans -1.229 1.014 -14.236 quatxyzw 0.005182 -0.021905 0.399040 -0.916657 center 0.015 0.083 0.031 ntor 6 118.1086 141.9527 107.3169 51.4113 -4.1234 -55.3369
State:	 -1.229   1.014 -14.236   0.013 -0.055  0.998 -47.116    118.11  141.95  107.32   51.41   -4.12  -55.34

DOCKED: MODEL       24
DOCKED: USER    Run = 24
DOCKED: USER    DPF = D:/Protein_go_brrr/autodock/final/AncB/2_3_BPG/dock.dpf
DOCKED: USER  
DOCKED: USER    Estimated Free Energy of Binding    =   -9.70 kcal/mol  [=(1)+(2)+(3)-(4)]
DOCKED: USER    Estimated Inhibition Constant, Ki   =   77.23 nM (nanomolar)  [Temperature = 298.15 K]
DOCKED: USER    
DOCKED: USER    (1) Final Intermolecular Energy     =  -11.49 kcal/mol
DOCKED: USER        vdW + Hbond + desolv Energy     =   -4.04 kcal/mol
DOCKED: USER        Electrostatic Energy            =   -7.46 kcal/mol
DOCKED: USER    (2) Final Total Internal Energy     =   +2.13 kcal/mol
DOCKED: USER    (3) Torsional Free Energy           =   +1.79 kcal/mol
DOCKED: USER    (4) Unbound System's Energy  [=(2)] =   +2.13 kcal/mol
DOCKED: USER    
DOCKED: USER    
DOCKED: USER    NEWDPF move 2_3_BPG_opt.pdbqt
DOCKED: USER    NEWDPF about 0.015000 0.083000 0.031000
DOCKED: USER    NEWDPF tran0 -1.228698 1.013598 -14.236455
DOCKED: USER    NEWDPF quaternion0 0.005182 -0.021905 0.399040 -0.916657
DOCKED: USER    NEWDPF axisangle0 0.012964 -0.054807 0.998413 -47.115676
DOCKED: USER    NEWDPF quat0 0.012964 -0.054807 0.998413 -47.115676
DOCKED: USER    NEWDPF dihe0 118.11 141.95 107.32 51.41 -4.12 -55.34 
DOCKED: USER  keepresnum = 1 
DOCKED: USER  
DOCKED: REMARK  6 active torsions:
DOCKED: REMARK  status: ('A' for Active; 'I' for Inactive)
DOCKED: REMARK    1  A    between atoms: P_1  and  O_3 
DOCKED: REMARK    2  A    between atoms: P_2  and  O_4 
DOCKED: REMARK    3  A    between atoms: O_3  and  C_13 
DOCKED: REMARK    4  A    between atoms: O_4  and  C_14 
DOCKED: REMARK    5  A    between atoms: C_13  and  C_14 
DOCKED: REMARK    6  A    between atoms: C_13  and  C_15 
DOCKED: USER                              x       y       z     vdW  Elec       q    Type
DOCKED: USER                           _______ _______ _______ _____ _____    ______ ____
DOCKED: ROOT
DOCKED: ATOM      1  C   UNL d   1      -1.403   0.370 -14.167 -0.13 +0.26    +0.193 C 
DOCKED: ENDROOT
DOCKED: BRANCH   1   2
DOCKED: ATOM      2  O   UNL d   1      -2.678   0.163 -14.862 -0.43 -0.65    -0.356 OA
DOCKED: BRANCH   2   3
DOCKED: ATOM      3  P   UNL d   1      -4.136   0.549 -14.207 -0.16 -0.02    -0.014 P 
DOCKED: ATOM      4  O   UNL d   1      -4.036   0.080 -12.747 -0.07 -0.97    -0.577 OA
DOCKED: ATOM      5  O   UNL d   1      -5.199  -0.233 -14.976 -0.01 -0.88    -0.577 OA
DOCKED: ATOM      6  O   UNL d   1      -4.309   2.061 -14.299 -0.53 -1.33    -0.638 OA
DOCKED: ENDBRANCH   2   3
DOCKED: ENDBRANCH   1   2
DOCKED: BRANCH   1   7
DOCKED: ATOM      7  C   UNL d   1      -0.837   1.784 -14.560 -0.13 +0.22    +0.201 C 
DOCKED: BRANCH   7   8
DOCKED: ATOM      8  O   UNL d   1      -0.971   2.817 -13.559 -0.43 -0.52    -0.364 OA
DOCKED: BRANCH   8   9
DOCKED: ATOM      9  P   UNL d   1      -0.388   4.337 -13.852 -0.27 -0.02    -0.015 P 
DOCKED: ATOM     10  O   UNL d   1       1.138   4.191 -13.825 -0.38 -0.47    -0.577 OA
DOCKED: ATOM     11  O   UNL d   1      -0.895   5.235 -12.723 -0.70 -0.88    -0.577 OA
DOCKED: ATOM     12  O   UNL d   1      -0.900   4.760 -15.228 -0.32 -1.08    -0.638 OA
DOCKED: ENDBRANCH   8   9
DOCKED: ENDBRANCH   7   8
DOCKED: ENDBRANCH   1   7
DOCKED: BRANCH   1  13
DOCKED: ATOM     13  C   UNL d   1      -0.364  -0.728 -14.607 -0.18 +0.08    +0.073 C 
DOCKED: ATOM     14  O   UNL d   1       0.852  -0.609 -14.221 -0.02 -0.38    -0.547 OA
DOCKED: ATOM     15  O   UNL d   1      -0.818  -1.723 -15.280 -0.27 -0.81    -0.547 OA
DOCKED: ENDBRANCH   1  13
DOCKED: TORSDOF 6
DOCKED: TER
DOCKED: ENDMDL
________________________________________________________________________________


	BEGINNING GENETIC ALGORITHM DOCKING 25 of 100
Run: 25 Seed: 215615184 1321336170 [ Run 25 of 100 GA/GALS ]
Beginning LAMARCKIAN GENETIC ALGORITHM (LGA), with a maximum of 25000000 energy evaluations.

Final-Value: -10.911


	FINAL GENETIC ALGORITHM DOCKED STATE
	_______________________________________________


Detailed state:  trans -8.174 -18.692 5.223 quatxyzw 0.481755 -0.386247 0.186498 -0.764162 center 0.015 0.083 0.031 ntor 6 178.0751 -52.0065 -33.8385 75.3688 37.2897 -160.2711
State:	 -8.174 -18.692   5.223   0.747 -0.599  0.289 -80.335    178.08  -52.01  -33.84   75.37   37.29 -160.27

DOCKED: MODEL       25
DOCKED: USER    Run = 25
DOCKED: USER    DPF = D:/Protein_go_brrr/autodock/final/AncB/2_3_BPG/dock.dpf
DOCKED: USER  
DOCKED: USER    Estimated Free Energy of Binding    =  -11.84 kcal/mol  [=(1)+(2)+(3)-(4)]
DOCKED: USER    Estimated Inhibition Constant, Ki   =    2.08 nM (nanomolar)  [Temperature = 298.15 K]
DOCKED: USER    
DOCKED: USER    (1) Final Intermolecular Energy     =  -13.63 kcal/mol
DOCKED: USER        vdW + Hbond + desolv Energy     =   -3.44 kcal/mol
DOCKED: USER        Electrostatic Energy            =  -10.19 kcal/mol
DOCKED: USER    (2) Final Total Internal Energy     =   +2.72 kcal/mol
DOCKED: USER    (3) Torsional Free Energy           =   +1.79 kcal/mol
DOCKED: USER    (4) Unbound System's Energy  [=(2)] =   +2.72 kcal/mol
DOCKED: USER    
DOCKED: USER    
DOCKED: USER    NEWDPF move 2_3_BPG_opt.pdbqt
DOCKED: USER    NEWDPF about 0.015000 0.083000 0.031000
DOCKED: USER    NEWDPF tran0 -8.173629 -18.692122 5.223383
DOCKED: USER    NEWDPF quaternion0 0.481755 -0.386247 0.186498 -0.764162
DOCKED: USER    NEWDPF axisangle0 0.746879 -0.598810 0.289134 -80.334952
DOCKED: USER    NEWDPF quat0 0.746879 -0.598810 0.289134 -80.334952
DOCKED: USER    NEWDPF dihe0 178.08 -52.01 -33.84 75.37 37.29 -160.27 
DOCKED: USER  keepresnum = 1 
DOCKED: USER  
DOCKED: REMARK  6 active torsions:
DOCKED: REMARK  status: ('A' for Active; 'I' for Inactive)
DOCKED: REMARK    1  A    between atoms: P_1  and  O_3 
DOCKED: REMARK    2  A    between atoms: P_2  and  O_4 
DOCKED: REMARK    3  A    between atoms: O_3  and  C_13 
DOCKED: REMARK    4  A    between atoms: O_4  and  C_14 
DOCKED: REMARK    5  A    between atoms: C_13  and  C_14 
DOCKED: REMARK    6  A    between atoms: C_13  and  C_15 
DOCKED: USER                              x       y       z     vdW  Elec       q    Type
DOCKED: USER                           _______ _______ _______ _____ _____    ______ ____
DOCKED: ROOT
DOCKED: ATOM      1  C   UNL d   1      -8.377 -18.868   4.609 -0.07 +0.34    +0.193 C 
DOCKED: ENDROOT
DOCKED: BRANCH   1   2
DOCKED: ATOM      2  O   UNL d   1      -9.301 -17.839   4.121 -0.28 -0.88    -0.356 OA
DOCKED: BRANCH   2   3
DOCKED: ATOM      3  P   UNL d   1     -10.671 -17.403   4.920 -0.27 -0.03    -0.014 P 
DOCKED: ATOM      4  O   UNL d   1     -10.528 -15.886   5.126 -0.44 -1.33    -0.577 OA
DOCKED: ATOM      5  O   UNL d   1     -10.677 -18.152   6.250 -0.43 -1.38    -0.577 OA
DOCKED: ATOM      6  O   UNL d   1     -11.863 -17.736   4.028 -0.01 -0.69    -0.638 OA
DOCKED: ENDBRANCH   2   3
DOCKED: ENDBRANCH   1   2
DOCKED: BRANCH   1   7
DOCKED: ATOM      7  C   UNL d   1      -7.669 -18.336   5.909 -0.08 +0.40    +0.201 C 
DOCKED: BRANCH   7   8
DOCKED: ATOM      8  O   UNL d   1      -8.039 -17.003   6.327 -0.09 -1.17    -0.364 OA
DOCKED: BRANCH   8   9
DOCKED: ATOM      9  P   UNL d   1      -6.886 -15.964   6.900 +0.04 -0.04    -0.015 P 
DOCKED: ATOM     10  O   UNL d   1      -7.366 -14.568   6.485 -0.17 -1.29    -0.577 OA
DOCKED: ATOM     11  O   UNL d   1      -5.570 -16.339   6.220 -0.55 -1.07    -0.577 OA
DOCKED: ATOM     12  O   UNL d   1      -6.844 -16.128   8.418 -0.61 -1.17    -0.638 OA
DOCKED: ENDBRANCH   8   9
DOCKED: ENDBRANCH   7   8
DOCKED: ENDBRANCH   1   7
DOCKED: BRANCH   1  13
DOCKED: ATOM     13  C   UNL d   1      -7.278 -19.167   3.523 -0.11 +0.12    +0.073 C 
DOCKED: ATOM     14  O   UNL d   1      -7.077 -20.383   3.174 -0.00 -0.58    -0.547 OA
DOCKED: ATOM     15  O   UNL d   1      -6.686 -18.154   3.000 -0.37 -1.45    -0.547 OA
DOCKED: ENDBRANCH   1  13
DOCKED: TORSDOF 6
DOCKED: TER
DOCKED: ENDMDL
________________________________________________________________________________


	BEGINNING GENETIC ALGORITHM DOCKING 26 of 100
Run: 26 Seed: 2002857470 1991065642 [ Run 26 of 100 GA/GALS ]
Beginning LAMARCKIAN GENETIC ALGORITHM (LGA), with a maximum of 25000000 energy evaluations.

Final-Value: -10.199


	FINAL GENETIC ALGORITHM DOCKED STATE
	_______________________________________________


Detailed state:  trans -7.530 -18.054 6.057 quatxyzw 0.218444 0.134282 -0.449135 -0.855879 center 0.015 0.083 0.031 ntor 6 -170.9063 6.4218 -64.9555 79.3091 -21.2641 124.3749
State:	 -7.530 -18.054   6.057   0.422  0.260 -0.868 -62.286   -170.91    6.42  -64.96   79.31  -21.26  124.37

DOCKED: MODEL       26
DOCKED: USER    Run = 26
DOCKED: USER    DPF = D:/Protein_go_brrr/autodock/final/AncB/2_3_BPG/dock.dpf
DOCKED: USER  
DOCKED: USER    Estimated Free Energy of Binding    =  -10.91 kcal/mol  [=(1)+(2)+(3)-(4)]
DOCKED: USER    Estimated Inhibition Constant, Ki   =   10.03 nM (nanomolar)  [Temperature = 298.15 K]
DOCKED: USER    
DOCKED: USER    (1) Final Intermolecular Energy     =  -12.70 kcal/mol
DOCKED: USER        vdW + Hbond + desolv Energy     =   -3.02 kcal/mol
DOCKED: USER        Electrostatic Energy            =   -9.68 kcal/mol
DOCKED: USER    (2) Final Total Internal Energy     =   +2.50 kcal/mol
DOCKED: USER    (3) Torsional Free Energy           =   +1.79 kcal/mol
DOCKED: USER    (4) Unbound System's Energy  [=(2)] =   +2.50 kcal/mol
DOCKED: USER    
DOCKED: USER    
DOCKED: USER    NEWDPF move 2_3_BPG_opt.pdbqt
DOCKED: USER    NEWDPF about 0.015000 0.083000 0.031000
DOCKED: USER    NEWDPF tran0 -7.529673 -18.053571 6.056934
DOCKED: USER    NEWDPF quaternion0 0.218444 0.134282 -0.449135 -0.855879
DOCKED: USER    NEWDPF axisangle0 0.422378 0.259645 -0.868436 -62.286132
DOCKED: USER    NEWDPF quat0 0.422378 0.259645 -0.868436 -62.286132
DOCKED: USER    NEWDPF dihe0 -170.91 6.42 -64.96 79.31 -21.26 124.37 
DOCKED: USER  keepresnum = 1 
DOCKED: USER  
DOCKED: REMARK  6 active torsions:
DOCKED: REMARK  status: ('A' for Active; 'I' for Inactive)
DOCKED: REMARK    1  A    between atoms: P_1  and  O_3 
DOCKED: REMARK    2  A    between atoms: P_2  and  O_4 
DOCKED: REMARK    3  A    between atoms: O_3  and  C_13 
DOCKED: REMARK    4  A    between atoms: O_4  and  C_14 
DOCKED: REMARK    5  A    between atoms: C_13  and  C_14 
DOCKED: REMARK    6  A    between atoms: C_13  and  C_15 
DOCKED: USER                              x       y       z     vdW  Elec       q    Type
DOCKED: USER                           _______ _______ _______ _____ _____    ______ ____
DOCKED: ROOT
DOCKED: ATOM      1  C   UNL d   1      -8.113 -17.840   6.308 +0.06 +0.49    +0.193 C 
DOCKED: ENDROOT
DOCKED: BRANCH   1   2
DOCKED: ATOM      2  O   UNL d   1      -8.063 -16.376   6.399 -0.08 -1.23    -0.356 OA
DOCKED: BRANCH   2   3
DOCKED: ATOM      3  P   UNL d   1      -6.856 -15.560   7.162 -0.20 -0.03    -0.014 P 
DOCKED: ATOM      4  O   UNL d   1      -7.263 -14.082   7.050 -0.16 -0.93    -0.577 OA
DOCKED: ATOM      5  O   UNL d   1      -5.564 -15.846   6.400 -0.59 -1.00    -0.577 OA
DOCKED: ATOM      6  O   UNL d   1      -6.820 -16.022   8.615 -0.56 -1.09    -0.638 OA
DOCKED: ENDBRANCH   2   3
DOCKED: ENDBRANCH   1   2
DOCKED: BRANCH   1   7
DOCKED: ATOM      7  C   UNL d   1      -6.885 -18.335   5.459 +0.00 +0.38    +0.201 C 
DOCKED: BRANCH   7   8
DOCKED: ATOM      8  O   UNL d   1      -6.990 -18.150   4.030 +0.10 -0.95    -0.364 OA
DOCKED: BRANCH   8   9
DOCKED: ATOM      9  P   UNL d   1      -5.634 -18.200   3.085 -0.11 -0.03    -0.015 P 
DOCKED: ATOM     10  O   UNL d   1      -5.844 -19.398   2.150 -0.26 -0.95    -0.577 OA
DOCKED: ATOM     11  O   UNL d   1      -4.445 -18.409   4.022 +0.01 -0.63    -0.577 OA
DOCKED: ATOM     12  O   UNL d   1      -5.568 -16.880   2.320 -0.26 -1.70    -0.638 OA
DOCKED: ENDBRANCH   8   9
DOCKED: ENDBRANCH   7   8
DOCKED: ENDBRANCH   1   7
DOCKED: BRANCH   1  13
DOCKED: ATOM     13  C   UNL d   1      -9.439 -18.291   5.588 -0.13 +0.16    +0.073 C 
DOCKED: ATOM     14  O   UNL d   1     -10.281 -18.997   6.245 -0.50 -0.96    -0.547 OA
DOCKED: ATOM     15  O   UNL d   1      -9.626 -17.864   4.392 -0.36 -1.22    -0.547 OA
DOCKED: ENDBRANCH   1  13
DOCKED: TORSDOF 6
DOCKED: TER
DOCKED: ENDMDL
________________________________________________________________________________


	BEGINNING GENETIC ALGORITHM DOCKING 27 of 100
Run: 27 Seed: 307577486 995528586 [ Run 27 of 100 GA/GALS ]
Beginning LAMARCKIAN GENETIC ALGORITHM (LGA), with a maximum of 25000000 energy evaluations.

Final-Value: -9.422


	FINAL GENETIC ALGORITHM DOCKED STATE
	_______________________________________________


Detailed state:  trans -1.694 1.213 -13.493 quatxyzw 0.354655 0.304117 -0.299599 0.831849 center 0.015 0.083 0.031 ntor 6 -132.8274 -36.8517 133.6744 44.8540 9.9103 -39.2974
State:	 -1.694   1.213 -13.493   0.639  0.548 -0.540 67.422   -132.83  -36.85  133.67   44.85    9.91  -39.30

DOCKED: MODEL       27
DOCKED: USER    Run = 27
DOCKED: USER    DPF = D:/Protein_go_brrr/autodock/final/AncB/2_3_BPG/dock.dpf
DOCKED: USER  
DOCKED: USER    Estimated Free Energy of Binding    =   -9.71 kcal/mol  [=(1)+(2)+(3)-(4)]
DOCKED: USER    Estimated Inhibition Constant, Ki   =   76.12 nM (nanomolar)  [Temperature = 298.15 K]
DOCKED: USER    
DOCKED: USER    (1) Final Intermolecular Energy     =  -11.50 kcal/mol
DOCKED: USER        vdW + Hbond + desolv Energy     =   -4.16 kcal/mol
DOCKED: USER        Electrostatic Energy            =   -7.34 kcal/mol
DOCKED: USER    (2) Final Total Internal Energy     =   +2.08 kcal/mol
DOCKED: USER    (3) Torsional Free Energy           =   +1.79 kcal/mol
DOCKED: USER    (4) Unbound System's Energy  [=(2)] =   +2.08 kcal/mol
DOCKED: USER    
DOCKED: USER    
DOCKED: USER    NEWDPF move 2_3_BPG_opt.pdbqt
DOCKED: USER    NEWDPF about 0.015000 0.083000 0.031000
DOCKED: USER    NEWDPF tran0 -1.693640 1.213226 -13.493065
DOCKED: USER    NEWDPF quaternion0 0.354655 0.304117 -0.299599 0.831849
DOCKED: USER    NEWDPF axisangle0 0.639016 0.547957 -0.539817 67.421681
DOCKED: USER    NEWDPF quat0 0.639016 0.547957 -0.539817 67.421681
DOCKED: USER    NEWDPF dihe0 -132.83 -36.85 133.67 44.85 9.91 -39.30 
DOCKED: USER  keepresnum = 1 
DOCKED: USER  
DOCKED: REMARK  6 active torsions:
DOCKED: REMARK  status: ('A' for Active; 'I' for Inactive)
DOCKED: REMARK    1  A    between atoms: P_1  and  O_3 
DOCKED: REMARK    2  A    between atoms: P_2  and  O_4 
DOCKED: REMARK    3  A    between atoms: O_3  and  C_13 
DOCKED: REMARK    4  A    between atoms: O_4  and  C_14 
DOCKED: REMARK    5  A    between atoms: C_13  and  C_14 
DOCKED: REMARK    6  A    between atoms: C_13  and  C_15 
DOCKED: USER                              x       y       z     vdW  Elec       q    Type
DOCKED: USER                           _______ _______ _______ _____ _____    ______ ____
DOCKED: ROOT
DOCKED: ATOM      1  C   UNL d   1      -2.045   0.655 -13.372 -0.18 +0.27    +0.193 C 
DOCKED: ENDROOT
DOCKED: BRANCH   1   2
DOCKED: ATOM      2  O   UNL d   1      -2.476   0.097 -14.658 -0.43 -0.66    -0.356 OA
DOCKED: BRANCH   2   3
DOCKED: ATOM      3  P   UNL d   1      -3.868   0.539 -15.413 -0.12 -0.02    -0.014 P 
DOCKED: ATOM      4  O   UNL d   1      -3.484   0.640 -16.898 +0.01 -0.60    -0.577 OA
DOCKED: ATOM      5  O   UNL d   1      -4.279   1.896 -14.846 -0.61 -1.06    -0.577 OA
DOCKED: ATOM      6  O   UNL d   1      -4.901  -0.557 -15.176 +0.02 -1.16    -0.638 OA
DOCKED: ENDBRANCH   2   3
DOCKED: ENDBRANCH   1   2
DOCKED: BRANCH   1   7
DOCKED: ATOM      7  C   UNL d   1      -0.986   1.787 -13.641 -0.17 +0.23    +0.201 C 
DOCKED: BRANCH   7   8
DOCKED: ATOM      8  O   UNL d   1      -1.334   3.104 -13.159 -0.45 -0.60    -0.364 OA
DOCKED: BRANCH   8   9
DOCKED: ATOM      9  P   UNL d   1      -0.469   4.424 -13.655 -0.26 -0.02    -0.015 P 
DOCKED: ATOM     10  O   UNL d   1       1.000   3.993 -13.571 -0.51 -0.52    -0.577 OA
DOCKED: ATOM     11  O   UNL d   1      -0.788   5.557 -12.679 -0.56 -0.78    -0.577 OA
DOCKED: ATOM     12  O   UNL d   1      -0.897   4.731 -15.089 -0.35 -1.12    -0.638 OA
DOCKED: ENDBRANCH   8   9
DOCKED: ENDBRANCH   7   8
DOCKED: ENDBRANCH   1   7
DOCKED: BRANCH   1  13
DOCKED: ATOM     13  C   UNL d   1      -1.372  -0.466 -12.495 -0.24 +0.09    +0.073 C 
DOCKED: ATOM     14  O   UNL d   1      -2.128  -1.292 -11.872 -0.28 -0.93    -0.547 OA
DOCKED: ATOM     15  O   UNL d   1      -0.089  -0.525 -12.509 -0.03 -0.46    -0.547 OA
DOCKED: ENDBRANCH   1  13
DOCKED: TORSDOF 6
DOCKED: TER
DOCKED: ENDMDL
________________________________________________________________________________


	BEGINNING GENETIC ALGORITHM DOCKING 28 of 100
Run: 28 Seed: 1261604587 665789950 [ Run 28 of 100 GA/GALS ]
Beginning LAMARCKIAN GENETIC ALGORITHM (LGA), with a maximum of 25000000 energy evaluations.

Final-Value: -9.711


	FINAL GENETIC ALGORITHM DOCKED STATE
	_______________________________________________


Detailed state:  trans -11.653 -14.559 4.171 quatxyzw 0.167780 -0.246239 -0.724710 -0.621298 center 0.015 0.083 0.031 ntor 6 139.6830 179.4578 -133.1829 31.3523 -9.2963 -110.1626
State:	-11.653 -14.559   4.171   0.214 -0.314 -0.925 -103.178    139.68  179.46 -133.18   31.35   -9.30 -110.16

DOCKED: MODEL       28
DOCKED: USER    Run = 28
DOCKED: USER    DPF = D:/Protein_go_brrr/autodock/final/AncB/2_3_BPG/dock.dpf
DOCKED: USER  
DOCKED: USER    Estimated Free Energy of Binding    =  -10.06 kcal/mol  [=(1)+(2)+(3)-(4)]
DOCKED: USER    Estimated Inhibition Constant, Ki   =   42.15 nM (nanomolar)  [Temperature = 298.15 K]
DOCKED: USER    
DOCKED: USER    (1) Final Intermolecular Energy     =  -11.85 kcal/mol
DOCKED: USER        vdW + Hbond + desolv Energy     =   -4.47 kcal/mol
DOCKED: USER        Electrostatic Energy            =   -7.38 kcal/mol
DOCKED: USER    (2) Final Total Internal Energy     =   +2.14 kcal/mol
DOCKED: USER    (3) Torsional Free Energy           =   +1.79 kcal/mol
DOCKED: USER    (4) Unbound System's Energy  [=(2)] =   +2.14 kcal/mol
DOCKED: USER    
DOCKED: USER    
DOCKED: USER    NEWDPF move 2_3_BPG_opt.pdbqt
DOCKED: USER    NEWDPF about 0.015000 0.083000 0.031000
DOCKED: USER    NEWDPF tran0 -11.653138 -14.559440 4.171105
DOCKED: USER    NEWDPF quaternion0 0.167780 -0.246239 -0.724710 -0.621298
DOCKED: USER    NEWDPF axisangle0 0.214121 -0.314251 -0.924877 -103.178087
DOCKED: USER    NEWDPF quat0 0.214121 -0.314251 -0.924877 -103.178087
DOCKED: USER    NEWDPF dihe0 139.68 179.46 -133.18 31.35 -9.30 -110.16 
DOCKED: USER  keepresnum = 1 
DOCKED: USER  
DOCKED: REMARK  6 active torsions:
DOCKED: REMARK  status: ('A' for Active; 'I' for Inactive)
DOCKED: REMARK    1  A    between atoms: P_1  and  O_3 
DOCKED: REMARK    2  A    between atoms: P_2  and  O_4 
DOCKED: REMARK    3  A    between atoms: O_3  and  C_13 
DOCKED: REMARK    4  A    between atoms: O_4  and  C_14 
DOCKED: REMARK    5  A    between atoms: C_13  and  C_14 
DOCKED: REMARK    6  A    between atoms: C_13  and  C_15 
DOCKED: USER                              x       y       z     vdW  Elec       q    Type
DOCKED: USER                           _______ _______ _______ _____ _____    ______ ____
DOCKED: ROOT
DOCKED: ATOM      1  C   UNL d   1     -11.859 -13.936   4.034 -0.32 +0.18    +0.193 C 
DOCKED: ENDROOT
DOCKED: BRANCH   1   2
DOCKED: ATOM      2  O   UNL d   1     -10.673 -13.085   3.891 -0.21 -0.40    -0.356 OA
DOCKED: BRANCH   2   3
DOCKED: ATOM      3  P   UNL d   1     -10.136 -12.077   5.075 -0.72 -0.01    -0.014 P 
DOCKED: ATOM      4  O   UNL d   1     -11.196 -12.188   6.182 -0.72 -0.52    -0.577 OA
DOCKED: ATOM      5  O   UNL d   1     -10.087 -10.670   4.483 -0.27 -0.34    -0.577 OA
DOCKED: ATOM      6  O   UNL d   1      -8.778 -12.586   5.546 -0.14 -0.84    -0.638 OA
DOCKED: ENDBRANCH   2   3
DOCKED: ENDBRANCH   1   2
DOCKED: BRANCH   1   7
DOCKED: ATOM      7  C   UNL d   1     -11.400 -15.441   4.064 -0.23 +0.28    +0.201 C 
DOCKED: BRANCH   7   8
DOCKED: ATOM      8  O   UNL d   1     -10.323 -15.753   4.975 -0.60 -0.90    -0.364 OA
DOCKED: BRANCH   8   9
DOCKED: ATOM      9  P   UNL d   1      -9.860 -17.325   5.205 +0.18 -0.04    -0.015 P 
DOCKED: ATOM     10  O   UNL d   1      -9.694 -17.902   3.795 -0.26 -1.19    -0.577 OA
DOCKED: ATOM     11  O   UNL d   1     -10.988 -18.013   5.975 -0.44 -1.15    -0.577 OA
DOCKED: ATOM     12  O   UNL d   1      -8.540 -17.299   5.975 -0.09 -2.00    -0.638 OA
DOCKED: ENDBRANCH   8   9
DOCKED: ENDBRANCH   7   8
DOCKED: ENDBRANCH   1   7
DOCKED: BRANCH   1  13
DOCKED: ATOM     13  C   UNL d   1     -12.824 -13.728   2.809 -0.39 +0.04    +0.073 C 
DOCKED: ATOM     14  O   UNL d   1     -14.018 -14.186   2.886 -0.06 -0.20    -0.547 OA
DOCKED: ATOM     15  O   UNL d   1     -12.370 -13.048   1.818 -0.21 -0.28    -0.547 OA
DOCKED: ENDBRANCH   1  13
DOCKED: TORSDOF 6
DOCKED: TER
DOCKED: ENDMDL
________________________________________________________________________________


	BEGINNING GENETIC ALGORITHM DOCKING 29 of 100
Run: 29 Seed: 721601924 316725008 [ Run 29 of 100 GA/GALS ]
Beginning LAMARCKIAN GENETIC ALGORITHM (LGA), with a maximum of 25000000 energy evaluations.

Final-Value: -10.465


	FINAL GENETIC ALGORITHM DOCKED STATE
	_______________________________________________


Detailed state:  trans -7.415 -18.919 5.862 quatxyzw -0.568467 0.381411 -0.068993 0.725680 center 0.015 0.083 0.031 ntor 6 122.6415 141.4190 175.2601 17.5596 90.9941 -149.8386
State:	 -7.415 -18.919   5.862  -0.826  0.554 -0.100 86.949    122.64  141.42  175.26   17.56   90.99 -149.84

DOCKED: MODEL       29
DOCKED: USER    Run = 29
DOCKED: USER    DPF = D:/Protein_go_brrr/autodock/final/AncB/2_3_BPG/dock.dpf
DOCKED: USER  
DOCKED: USER    Estimated Free Energy of Binding    =  -11.51 kcal/mol  [=(1)+(2)+(3)-(4)]
DOCKED: USER    Estimated Inhibition Constant, Ki   =    3.64 nM (nanomolar)  [Temperature = 298.15 K]
DOCKED: USER    
DOCKED: USER    (1) Final Intermolecular Energy     =  -13.30 kcal/mol
DOCKED: USER        vdW + Hbond + desolv Energy     =   -3.18 kcal/mol
DOCKED: USER        Electrostatic Energy            =  -10.12 kcal/mol
DOCKED: USER    (2) Final Total Internal Energy     =   +2.84 kcal/mol
DOCKED: USER    (3) Torsional Free Energy           =   +1.79 kcal/mol
DOCKED: USER    (4) Unbound System's Energy  [=(2)] =   +2.84 kcal/mol
DOCKED: USER    
DOCKED: USER    
DOCKED: USER    NEWDPF move 2_3_BPG_opt.pdbqt
DOCKED: USER    NEWDPF about 0.015000 0.083000 0.031000
DOCKED: USER    NEWDPF tran0 -7.415362 -18.918741 5.862332
DOCKED: USER    NEWDPF quaternion0 -0.568467 0.381411 -0.068993 0.725680
DOCKED: USER    NEWDPF axisangle0 -0.826221 0.554350 -0.100276 86.949098
DOCKED: USER    NEWDPF quat0 -0.826221 0.554350 -0.100276 86.949098
DOCKED: USER    NEWDPF dihe0 122.64 141.42 175.26 17.56 90.99 -149.84 
DOCKED: USER  keepresnum = 1 
DOCKED: USER  
DOCKED: REMARK  6 active torsions:
DOCKED: REMARK  status: ('A' for Active; 'I' for Inactive)
DOCKED: REMARK    1  A    between atoms: P_1  and  O_3 
DOCKED: REMARK    2  A    between atoms: P_2  and  O_4 
DOCKED: REMARK    3  A    between atoms: O_3  and  C_13 
DOCKED: REMARK    4  A    between atoms: O_4  and  C_14 
DOCKED: REMARK    5  A    between atoms: C_13  and  C_14 
DOCKED: REMARK    6  A    between atoms: C_13  and  C_15 
DOCKED: USER                              x       y       z     vdW  Elec       q    Type
DOCKED: USER                           _______ _______ _______ _____ _____    ______ ____
DOCKED: ROOT
DOCKED: ATOM      1  C   UNL d   1      -7.703 -18.912   5.257 -0.07 +0.32    +0.193 C 
DOCKED: ENDROOT
DOCKED: BRANCH   1   2
DOCKED: ATOM      2  O   UNL d   1      -8.558 -17.723   5.169 -0.06 -1.03    -0.356 OA
DOCKED: BRANCH   2   3
DOCKED: ATOM      3  P   UNL d   1     -10.195 -17.796   5.028 -0.24 -0.03    -0.014 P 
DOCKED: ATOM      4  O   UNL d   1     -10.441 -18.919   4.008 +0.01 -0.71    -0.577 OA
DOCKED: ATOM      5  O   UNL d   1     -10.664 -16.443   4.499 -0.59 -1.18    -0.577 OA
DOCKED: ATOM      6  O   UNL d   1     -10.770 -18.147   6.396 -0.41 -1.58    -0.638 OA
DOCKED: ENDBRANCH   2   3
DOCKED: ENDBRANCH   1   2
DOCKED: BRANCH   1   7
DOCKED: ATOM      7  C   UNL d   1      -6.803 -18.794   6.542 -0.06 +0.27    +0.201 C 
DOCKED: BRANCH   7   8
DOCKED: ATOM      8  O   UNL d   1      -7.136 -17.718   7.447 -0.35 -0.74    -0.364 OA
DOCKED: BRANCH   8   9
DOCKED: ATOM      9  P   UNL d   1      -6.513 -16.205   7.203 -0.19 -0.03    -0.015 P 
DOCKED: ATOM     10  O   UNL d   1      -5.594 -16.344   5.984 -0.53 -1.18    -0.577 OA
DOCKED: ATOM     11  O   UNL d   1      -5.734 -15.835   8.466 -0.04 -0.61    -0.577 OA
DOCKED: ATOM     12  O   UNL d   1      -7.691 -15.271   6.931 -0.28 -1.69    -0.638 OA
DOCKED: ENDBRANCH   8   9
DOCKED: ENDBRANCH   7   8
DOCKED: ENDBRANCH   1   7
DOCKED: BRANCH   1  13
DOCKED: ATOM     13  C   UNL d   1      -6.768 -18.999   3.993 -0.11 +0.12    +0.073 C 
DOCKED: ATOM     14  O   UNL d   1      -5.902 -19.941   3.937 +0.01 -0.55    -0.547 OA
DOCKED: ATOM     15  O   UNL d   1      -6.977 -18.148   3.055 -0.28 -1.51    -0.547 OA
DOCKED: ENDBRANCH   1  13
DOCKED: TORSDOF 6
DOCKED: TER
DOCKED: ENDMDL
________________________________________________________________________________


	BEGINNING GENETIC ALGORITHM DOCKING 30 of 100
Run: 30 Seed: 488213197 2012785337 [ Run 30 of 100 GA/GALS ]
Beginning LAMARCKIAN GENETIC ALGORITHM (LGA), with a maximum of 25000000 energy evaluations.

Final-Value: -10.382


	FINAL GENETIC ALGORITHM DOCKED STATE
	_______________________________________________


Detailed state:  trans -7.391 -18.392 5.357 quatxyzw 0.782726 -0.196753 -0.117777 0.578581 center 0.015 0.083 0.031 ntor 6 -158.8952 -60.2075 -65.9578 19.0918 -57.5235 -74.1362
State:	 -7.391 -18.392   5.357   0.960 -0.241 -0.144 109.298   -158.90  -60.21  -65.96   19.09  -57.52  -74.14

DOCKED: MODEL       30
DOCKED: USER    Run = 30
DOCKED: USER    DPF = D:/Protein_go_brrr/autodock/final/AncB/2_3_BPG/dock.dpf
DOCKED: USER  
DOCKED: USER    Estimated Free Energy of Binding    =  -10.58 kcal/mol  [=(1)+(2)+(3)-(4)]
DOCKED: USER    Estimated Inhibition Constant, Ki   =   17.52 nM (nanomolar)  [Temperature = 298.15 K]
DOCKED: USER    
DOCKED: USER    (1) Final Intermolecular Energy     =  -12.37 kcal/mol
DOCKED: USER        vdW + Hbond + desolv Energy     =   -3.06 kcal/mol
DOCKED: USER        Electrostatic Energy            =   -9.31 kcal/mol
DOCKED: USER    (2) Final Total Internal Energy     =   +1.99 kcal/mol
DOCKED: USER    (3) Torsional Free Energy           =   +1.79 kcal/mol
DOCKED: USER    (4) Unbound System's Energy  [=(2)] =   +1.99 kcal/mol
DOCKED: USER    
DOCKED: USER    
DOCKED: USER    NEWDPF move 2_3_BPG_opt.pdbqt
DOCKED: USER    NEWDPF about 0.015000 0.083000 0.031000
DOCKED: USER    NEWDPF tran0 -7.391098 -18.391818 5.356869
DOCKED: USER    NEWDPF quaternion0 0.782726 -0.196753 -0.117777 0.578581
DOCKED: USER    NEWDPF axisangle0 0.959665 -0.241230 -0.144401 109.298371
DOCKED: USER    NEWDPF quat0 0.959665 -0.241230 -0.144401 109.298371
DOCKED: USER    NEWDPF dihe0 -158.90 -60.21 -65.96 19.09 -57.52 -74.14 
DOCKED: USER  keepresnum = 1 
DOCKED: USER  
DOCKED: REMARK  6 active torsions:
DOCKED: REMARK  status: ('A' for Active; 'I' for Inactive)
DOCKED: REMARK    1  A    between atoms: P_1  and  O_3 
DOCKED: REMARK    2  A    between atoms: P_2  and  O_4 
DOCKED: REMARK    3  A    between atoms: O_3  and  C_13 
DOCKED: REMARK    4  A    between atoms: O_4  and  C_14 
DOCKED: REMARK    5  A    between atoms: C_13  and  C_14 
DOCKED: REMARK    6  A    between atoms: C_13  and  C_15 
DOCKED: USER                              x       y       z     vdW  Elec       q    Type
DOCKED: USER                           _______ _______ _______ _____ _____    ______ ____
DOCKED: ROOT
DOCKED: ATOM      1  C   UNL d   1      -7.773 -18.124   5.838 -0.04 +0.43    +0.193 C 
DOCKED: ENDROOT
DOCKED: BRANCH   1   2
DOCKED: ATOM      2  O   UNL d   1      -9.095 -18.758   5.780 -0.17 -0.66    -0.356 OA
DOCKED: BRANCH   2   3
DOCKED: ATOM      3  P   UNL d   1     -10.464 -17.952   5.355 -0.18 -0.03    -0.014 P 
DOCKED: ATOM      4  O   UNL d   1     -10.916 -18.626   4.051 +0.00 -0.69    -0.577 OA
DOCKED: ATOM      5  O   UNL d   1     -10.078 -16.492   5.129 -0.64 -1.60    -0.577 OA
DOCKED: ATOM      6  O   UNL d   1     -11.488 -18.144   6.469 -0.44 -1.23    -0.638 OA
DOCKED: ENDBRANCH   2   3
DOCKED: ENDBRANCH   1   2
DOCKED: BRANCH   1   7
DOCKED: ATOM      7  C   UNL d   1      -6.783 -18.934   4.922 -0.05 +0.31    +0.201 C 
DOCKED: BRANCH   7   8
DOCKED: ATOM      8  O   UNL d   1      -6.781 -18.573   3.523 -0.28 -0.77    -0.364 OA
DOCKED: BRANCH   8   9
DOCKED: ATOM      9  P   UNL d   1      -5.365 -18.155   2.776 -0.12 -0.03    -0.015 P 
DOCKED: ATOM     10  O   UNL d   1      -5.145 -19.232   1.707 -0.49 -0.91    -0.577 OA
DOCKED: ATOM     11  O   UNL d   1      -4.273 -18.180   3.845 +0.01 -0.63    -0.577 OA
DOCKED: ATOM     12  O   UNL d   1      -5.570 -16.771   2.163 -0.18 -1.70    -0.638 OA
DOCKED: ENDBRANCH   8   9
DOCKED: ENDBRANCH   7   8
DOCKED: ENDBRANCH   1   7
DOCKED: BRANCH   1  13
DOCKED: ATOM     13  C   UNL d   1      -7.227 -18.148   7.315 -0.08 +0.13    +0.073 C 
DOCKED: ATOM     14  O   UNL d   1      -7.239 -17.059   7.989 -0.41 -1.36    -0.547 OA
DOCKED: ATOM     15  O   UNL d   1      -6.858 -19.286   7.780 +0.00 -0.58    -0.547 OA
DOCKED: ENDBRANCH   1  13
DOCKED: TORSDOF 6
DOCKED: TER
DOCKED: ENDMDL
________________________________________________________________________________


	BEGINNING GENETIC ALGORITHM DOCKING 31 of 100
Run: 31 Seed: 1699717484 1471512040 [ Run 31 of 100 GA/GALS ]
Beginning LAMARCKIAN GENETIC ALGORITHM (LGA), with a maximum of 25000000 energy evaluations.

Final-Value: -10.533


	FINAL GENETIC ALGORITHM DOCKED STATE
	_______________________________________________


Detailed state:  trans -8.379 -18.862 5.253 quatxyzw 0.495360 -0.413862 0.275333 -0.712410 center 0.015 0.083 0.031 ntor 6 158.9263 38.1456 -33.3359 106.4519 26.7543 145.6114
State:	 -8.379 -18.862   5.253   0.706 -0.590  0.392 -89.137    158.93   38.15  -33.34  106.45   26.75  145.61

DOCKED: MODEL       31
DOCKED: USER    Run = 31
DOCKED: USER    DPF = D:/Protein_go_brrr/autodock/final/AncB/2_3_BPG/dock.dpf
DOCKED: USER  
DOCKED: USER    Estimated Free Energy of Binding    =  -11.34 kcal/mol  [=(1)+(2)+(3)-(4)]
DOCKED: USER    Estimated Inhibition Constant, Ki   =    4.90 nM (nanomolar)  [Temperature = 298.15 K]
DOCKED: USER    
DOCKED: USER    (1) Final Intermolecular Energy     =  -13.13 kcal/mol
DOCKED: USER        vdW + Hbond + desolv Energy     =   -3.28 kcal/mol
DOCKED: USER        Electrostatic Energy            =   -9.85 kcal/mol
DOCKED: USER    (2) Final Total Internal Energy     =   +2.59 kcal/mol
DOCKED: USER    (3) Torsional Free Energy           =   +1.79 kcal/mol
DOCKED: USER    (4) Unbound System's Energy  [=(2)] =   +2.59 kcal/mol
DOCKED: USER    
DOCKED: USER    
DOCKED: USER    NEWDPF move 2_3_BPG_opt.pdbqt
DOCKED: USER    NEWDPF about 0.015000 0.083000 0.031000
DOCKED: USER    NEWDPF tran0 -8.379040 -18.862300 5.253252
DOCKED: USER    NEWDPF quaternion0 0.495360 -0.413862 0.275333 -0.712410
DOCKED: USER    NEWDPF axisangle0 0.705879 -0.589746 0.392345 -89.137317
DOCKED: USER    NEWDPF quat0 0.705879 -0.589746 0.392345 -89.137317
DOCKED: USER    NEWDPF dihe0 158.93 38.15 -33.34 106.45 26.75 145.61 
DOCKED: USER  keepresnum = 1 
DOCKED: USER  
DOCKED: REMARK  6 active torsions:
DOCKED: REMARK  status: ('A' for Active; 'I' for Inactive)
DOCKED: REMARK    1  A    between atoms: P_1  and  O_3 
DOCKED: REMARK    2  A    between atoms: P_2  and  O_4 
DOCKED: REMARK    3  A    between atoms: O_3  and  C_13 
DOCKED: REMARK    4  A    between atoms: O_4  and  C_14 
DOCKED: REMARK    5  A    between atoms: C_13  and  C_14 
DOCKED: REMARK    6  A    between atoms: C_13  and  C_15 
DOCKED: USER                              x       y       z     vdW  Elec       q    Type
DOCKED: USER                           _______ _______ _______ _____ _____    ______ ____
DOCKED: ROOT
DOCKED: ATOM      1  C   UNL d   1      -8.455 -19.050   4.614 -0.08 +0.31    +0.193 C 
DOCKED: ENDROOT
DOCKED: BRANCH   1   2
DOCKED: ATOM      2  O   UNL d   1      -9.422 -18.146   3.983 -0.28 -0.73    -0.356 OA
DOCKED: BRANCH   2   3
DOCKED: ATOM      3  P   UNL d   1     -10.586 -17.341   4.821 -0.26 -0.03    -0.014 P 
DOCKED: ATOM      4  O   UNL d   1     -11.780 -17.281   3.856 -0.04 -0.66    -0.577 OA
DOCKED: ATOM      5  O   UNL d   1     -10.040 -15.948   5.128 -0.49 -1.64    -0.577 OA
DOCKED: ATOM      6  O   UNL d   1     -10.915 -18.154   6.069 -0.45 -1.31    -0.638 OA
DOCKED: ENDBRANCH   2   3
DOCKED: ENDBRANCH   1   2
DOCKED: BRANCH   1   7
DOCKED: ATOM      7  C   UNL d   1      -8.046 -18.456   6.013 -0.10 +0.40    +0.201 C 
DOCKED: BRANCH   7   8
DOCKED: ATOM      8  O   UNL d   1      -7.540 -17.103   5.999 +0.11 -1.12    -0.364 OA
DOCKED: BRANCH   8   9
DOCKED: ATOM      9  P   UNL d   1      -6.441 -16.618   7.136 -0.18 -0.03    -0.015 P 
DOCKED: ATOM     10  O   UNL d   1      -5.578 -15.563   6.432 -0.55 -0.98    -0.577 OA
DOCKED: ATOM     11  O   UNL d   1      -5.628 -17.852   7.527 +0.01 -0.63    -0.577 OA
DOCKED: ATOM     12  O   UNL d   1      -7.230 -16.027   8.303 -0.52 -1.52    -0.638 OA
DOCKED: ENDBRANCH   8   9
DOCKED: ENDBRANCH   7   8
DOCKED: ENDBRANCH   1   7
DOCKED: BRANCH   1  13
DOCKED: ATOM     13  C   UNL d   1      -7.164 -19.169   3.720 -0.11 +0.12    +0.073 C 
DOCKED: ATOM     14  O   UNL d   1      -6.528 -20.281   3.710 +0.01 -0.55    -0.547 OA
DOCKED: ATOM     15  O   UNL d   1      -6.860 -18.152   2.999 -0.34 -1.50    -0.547 OA
DOCKED: ENDBRANCH   1  13
DOCKED: TORSDOF 6
DOCKED: TER
DOCKED: ENDMDL
________________________________________________________________________________


	BEGINNING GENETIC ALGORITHM DOCKING 32 of 100
Run: 32 Seed: 1562363231 1737573342 [ Run 32 of 100 GA/GALS ]
Beginning LAMARCKIAN GENETIC ALGORITHM (LGA), with a maximum of 25000000 energy evaluations.

Final-Value: -10.039


	FINAL GENETIC ALGORITHM DOCKED STATE
	_______________________________________________


Detailed state:  trans -7.600 -18.459 5.289 quatxyzw -0.893580 0.128835 0.296419 -0.311531 center 0.015 0.083 0.031 ntor 6 143.9210 60.2395 -62.6232 10.5521 -55.3748 -35.7697
State:	 -7.600 -18.459   5.289  -0.940  0.136  0.312 -143.697    143.92   60.24  -62.62   10.55  -55.37  -35.77

DOCKED: MODEL       32
DOCKED: USER    Run = 32
DOCKED: USER    DPF = D:/Protein_go_brrr/autodock/final/AncB/2_3_BPG/dock.dpf
DOCKED: USER  
DOCKED: USER    Estimated Free Energy of Binding    =  -10.28 kcal/mol  [=(1)+(2)+(3)-(4)]
DOCKED: USER    Estimated Inhibition Constant, Ki   =   29.19 nM (nanomolar)  [Temperature = 298.15 K]
DOCKED: USER    
DOCKED: USER    (1) Final Intermolecular Energy     =  -12.07 kcal/mol
DOCKED: USER        vdW + Hbond + desolv Energy     =   -2.62 kcal/mol
DOCKED: USER        Electrostatic Energy            =   -9.45 kcal/mol
DOCKED: USER    (2) Final Total Internal Energy     =   +2.03 kcal/mol
DOCKED: USER    (3) Torsional Free Energy           =   +1.79 kcal/mol
DOCKED: USER    (4) Unbound System's Energy  [=(2)] =   +2.03 kcal/mol
DOCKED: USER    
DOCKED: USER    
DOCKED: USER    NEWDPF move 2_3_BPG_opt.pdbqt
DOCKED: USER    NEWDPF about 0.015000 0.083000 0.031000
DOCKED: USER    NEWDPF tran0 -7.599624 -18.459004 5.289196
DOCKED: USER    NEWDPF quaternion0 -0.893580 0.128835 0.296419 -0.311531
DOCKED: USER    NEWDPF axisangle0 -0.940377 0.135582 0.311943 -143.697020
DOCKED: USER    NEWDPF quat0 -0.940377 0.135582 0.311943 -143.697020
DOCKED: USER    NEWDPF dihe0 143.92 60.24 -62.62 10.55 -55.37 -35.77 
DOCKED: USER  keepresnum = 1 
DOCKED: USER  
DOCKED: REMARK  6 active torsions:
DOCKED: REMARK  status: ('A' for Active; 'I' for Inactive)
DOCKED: REMARK    1  A    between atoms: P_1  and  O_3 
DOCKED: REMARK    2  A    between atoms: P_2  and  O_4 
DOCKED: REMARK    3  A    between atoms: O_3  and  C_13 
DOCKED: REMARK    4  A    between atoms: O_4  and  C_14 
DOCKED: REMARK    5  A    between atoms: C_13  and  C_14 
DOCKED: REMARK    6  A    between atoms: C_13  and  C_15 
DOCKED: USER                              x       y       z     vdW  Elec       q    Type
DOCKED: USER                           _______ _______ _______ _____ _____    ______ ____
DOCKED: ROOT
DOCKED: ATOM      1  C   UNL d   1      -7.976 -18.132   5.738 -0.03 +0.44    +0.193 C 
DOCKED: ENDROOT
DOCKED: BRANCH   1   2
DOCKED: ATOM      2  O   UNL d   1      -8.848 -19.108   6.400 -0.16 -0.61    -0.356 OA
DOCKED: BRANCH   2   3
DOCKED: ATOM      3  P   UNL d   1     -10.489 -19.001   6.396 +0.08 -0.02    -0.014 P 
DOCKED: ATOM      4  O   UNL d   1     -10.877 -19.001   7.883 -0.34 -1.24    -0.577 OA
DOCKED: ATOM      5  O   UNL d   1     -11.022 -20.238   5.676 +0.01 -0.50    -0.577 OA
DOCKED: ATOM      6  O   UNL d   1     -10.874 -17.690   5.718 -0.27 -1.31    -0.638 OA
DOCKED: ENDBRANCH   2   3
DOCKED: ENDBRANCH   1   2
DOCKED: BRANCH   1   7
DOCKED: ATOM      7  C   UNL d   1      -6.893 -18.909   4.901 -0.05 +0.32    +0.201 C 
DOCKED: BRANCH   7   8
DOCKED: ATOM      8  O   UNL d   1      -6.833 -18.586   3.494 -0.28 -0.77    -0.364 OA
DOCKED: BRANCH   8   9
DOCKED: ATOM      9  P   UNL d   1      -5.392 -18.160   2.802 -0.12 -0.03    -0.015 P 
DOCKED: ATOM     10  O   UNL d   1      -5.144 -19.215   1.716 -0.48 -0.92    -0.577 OA
DOCKED: ATOM     11  O   UNL d   1      -4.334 -18.216   3.904 +0.01 -0.63    -0.577 OA
DOCKED: ATOM     12  O   UNL d   1      -5.570 -16.761   2.213 -0.19 -1.70    -0.638 OA
DOCKED: ENDBRANCH   8   9
DOCKED: ENDBRANCH   7   8
DOCKED: ENDBRANCH   1   7
DOCKED: BRANCH   1  13
DOCKED: ATOM     13  C   UNL d   1      -7.242 -17.247   6.813 -0.04 +0.18    +0.073 C 
DOCKED: ATOM     14  O   UNL d   1      -6.717 -16.140   6.439 -0.41 -1.47    -0.547 OA
DOCKED: ATOM     15  O   UNL d   1      -7.269 -17.663   8.028 -0.34 -1.17    -0.547 OA
DOCKED: ENDBRANCH   1  13
DOCKED: TORSDOF 6
DOCKED: TER
DOCKED: ENDMDL
________________________________________________________________________________


	BEGINNING GENETIC ALGORITHM DOCKING 33 of 100
Run: 33 Seed: 1372974778 1347048910 [ Run 33 of 100 GA/GALS ]
Beginning LAMARCKIAN GENETIC ALGORITHM (LGA), with a maximum of 25000000 energy evaluations.

Final-Value: -10.855


	FINAL GENETIC ALGORITHM DOCKED STATE
	_______________________________________________


Detailed state:  trans -8.148 -18.666 5.361 quatxyzw 0.474656 -0.389434 0.227165 -0.755936 center 0.015 0.083 0.031 ntor 6 164.6998 61.8455 -6.1563 82.8504 26.9820 -172.1010
State:	 -8.148 -18.666   5.361   0.725 -0.595  0.347 -81.786    164.70   61.85   -6.16   82.85   26.98 -172.10

DOCKED: MODEL       33
DOCKED: USER    Run = 33
DOCKED: USER    DPF = D:/Protein_go_brrr/autodock/final/AncB/2_3_BPG/dock.dpf
DOCKED: USER  
DOCKED: USER    Estimated Free Energy of Binding    =  -11.74 kcal/mol  [=(1)+(2)+(3)-(4)]
DOCKED: USER    Estimated Inhibition Constant, Ki   =    2.49 nM (nanomolar)  [Temperature = 298.15 K]
DOCKED: USER    
DOCKED: USER    (1) Final Intermolecular Energy     =  -13.53 kcal/mol
DOCKED: USER        vdW + Hbond + desolv Energy     =   -3.46 kcal/mol
DOCKED: USER        Electrostatic Energy            =  -10.07 kcal/mol
DOCKED: USER    (2) Final Total Internal Energy     =   +2.67 kcal/mol
DOCKED: USER    (3) Torsional Free Energy           =   +1.79 kcal/mol
DOCKED: USER    (4) Unbound System's Energy  [=(2)] =   +2.67 kcal/mol
DOCKED: USER    
DOCKED: USER    
DOCKED: USER    NEWDPF move 2_3_BPG_opt.pdbqt
DOCKED: USER    NEWDPF about 0.015000 0.083000 0.031000
DOCKED: USER    NEWDPF tran0 -8.147723 -18.665735 5.360677
DOCKED: USER    NEWDPF quaternion0 0.474656 -0.389434 0.227165 -0.755936
DOCKED: USER    NEWDPF axisangle0 0.725058 -0.594878 0.347004 -81.785623
DOCKED: USER    NEWDPF quat0 0.725058 -0.594878 0.347004 -81.785623
DOCKED: USER    NEWDPF dihe0 164.70 61.85 -6.16 82.85 26.98 -172.10 
DOCKED: USER  keepresnum = 1 
DOCKED: USER  
DOCKED: REMARK  6 active torsions:
DOCKED: REMARK  status: ('A' for Active; 'I' for Inactive)
DOCKED: REMARK    1  A    between atoms: P_1  and  O_3 
DOCKED: REMARK    2  A    between atoms: P_2  and  O_4 
DOCKED: REMARK    3  A    between atoms: O_3  and  C_13 
DOCKED: REMARK    4  A    between atoms: O_4  and  C_14 
DOCKED: REMARK    5  A    between atoms: C_13  and  C_14 
DOCKED: REMARK    6  A    between atoms: C_13  and  C_15 
DOCKED: USER                              x       y       z     vdW  Elec       q    Type
DOCKED: USER                           _______ _______ _______ _____ _____    ______ ____
DOCKED: ROOT
DOCKED: ATOM      1  C   UNL d   1      -8.308 -18.873   4.743 -0.07 +0.34    +0.193 C 
DOCKED: ENDROOT
DOCKED: BRANCH   1   2
DOCKED: ATOM      2  O   UNL d   1      -9.260 -17.914   4.172 -0.26 -0.86    -0.356 OA
DOCKED: BRANCH   2   3
DOCKED: ATOM      3  P   UNL d   1     -10.606 -17.398   4.963 -0.26 -0.03    -0.014 P 
DOCKED: ATOM      4  O   UNL d   1     -11.767 -17.772   4.029 -0.02 -0.64    -0.577 OA
DOCKED: ATOM      5  O   UNL d   1     -10.482 -15.884   5.127 -0.45 -1.36    -0.577 OA
DOCKED: ATOM      6  O   UNL d   1     -10.690 -18.148   6.289 -0.41 -1.55    -0.638 OA
DOCKED: ENDBRANCH   2   3
DOCKED: ENDBRANCH   1   2
DOCKED: BRANCH   1   7
DOCKED: ATOM      7  C   UNL d   1      -7.702 -18.259   6.059 -0.09 +0.41    +0.201 C 
DOCKED: BRANCH   7   8
DOCKED: ATOM      8  O   UNL d   1      -7.953 -16.853   6.273 -0.02 -1.20    -0.364 OA
DOCKED: BRANCH   8   9
DOCKED: ATOM      9  P   UNL d   1      -6.860 -15.932   7.106 -0.08 -0.03    -0.015 P 
DOCKED: ATOM     10  O   UNL d   1      -7.412 -14.502   7.041 -0.18 -1.10    -0.577 OA
DOCKED: ATOM     11  O   UNL d   1      -5.522 -16.061   6.379 -0.56 -1.00    -0.577 OA
DOCKED: ATOM     12  O   UNL d   1      -6.818 -16.466   8.537 -0.58 -1.16    -0.638 OA
DOCKED: ENDBRANCH   8   9
DOCKED: ENDBRANCH   7   8
DOCKED: ENDBRANCH   1   7
DOCKED: BRANCH   1  13
DOCKED: ATOM     13  C   UNL d   1      -7.136 -19.141   3.726 -0.11 +0.12    +0.073 C 
DOCKED: ATOM     14  O   UNL d   1      -6.675 -20.332   3.626 +0.01 -0.55    -0.547 OA
DOCKED: ATOM     15  O   UNL d   1      -6.753 -18.151   3.005 -0.36 -1.47    -0.547 OA
DOCKED: ENDBRANCH   1  13
DOCKED: TORSDOF 6
DOCKED: TER
DOCKED: ENDMDL
________________________________________________________________________________


	BEGINNING GENETIC ALGORITHM DOCKING 34 of 100
Run: 34 Seed: 261924431 2076817595 [ Run 34 of 100 GA/GALS ]
Beginning LAMARCKIAN GENETIC ALGORITHM (LGA), with a maximum of 25000000 energy evaluations.

Final-Value: -9.791


	FINAL GENETIC ALGORITHM DOCKED STATE
	_______________________________________________


Detailed state:  trans -1.856 1.399 -12.913 quatxyzw 0.048094 0.474274 0.631652 0.611365 center 0.015 0.083 0.031 ntor 6 30.7963 -24.7538 -34.0539 13.5604 -48.7282 -6.6186
State:	 -1.856   1.399 -12.913   0.061  0.599  0.798 104.623     30.80  -24.75  -34.05   13.56  -48.73   -6.62

DOCKED: MODEL       34
DOCKED: USER    Run = 34
DOCKED: USER    DPF = D:/Protein_go_brrr/autodock/final/AncB/2_3_BPG/dock.dpf
DOCKED: USER  
DOCKED: USER    Estimated Free Energy of Binding    =  -10.05 kcal/mol  [=(1)+(2)+(3)-(4)]
DOCKED: USER    Estimated Inhibition Constant, Ki   =   42.94 nM (nanomolar)  [Temperature = 298.15 K]
DOCKED: USER    
DOCKED: USER    (1) Final Intermolecular Energy     =  -11.84 kcal/mol
DOCKED: USER        vdW + Hbond + desolv Energy     =   -4.51 kcal/mol
DOCKED: USER        Electrostatic Energy            =   -7.33 kcal/mol
DOCKED: USER    (2) Final Total Internal Energy     =   +2.05 kcal/mol
DOCKED: USER    (3) Torsional Free Energy           =   +1.79 kcal/mol
DOCKED: USER    (4) Unbound System's Energy  [=(2)] =   +2.05 kcal/mol
DOCKED: USER    
DOCKED: USER    
DOCKED: USER    NEWDPF move 2_3_BPG_opt.pdbqt
DOCKED: USER    NEWDPF about 0.015000 0.083000 0.031000
DOCKED: USER    NEWDPF tran0 -1.856307 1.399116 -12.913051
DOCKED: USER    NEWDPF quaternion0 0.048094 0.474274 0.631652 0.611365
DOCKED: USER    NEWDPF axisangle0 0.060774 0.599323 0.798197 104.623426
DOCKED: USER    NEWDPF quat0 0.060774 0.599323 0.798197 104.623426
DOCKED: USER    NEWDPF dihe0 30.80 -24.75 -34.05 13.56 -48.73 -6.62 
DOCKED: USER  keepresnum = 1 
DOCKED: USER  
DOCKED: REMARK  6 active torsions:
DOCKED: REMARK  status: ('A' for Active; 'I' for Inactive)
DOCKED: REMARK    1  A    between atoms: P_1  and  O_3 
DOCKED: REMARK    2  A    between atoms: P_2  and  O_4 
DOCKED: REMARK    3  A    between atoms: O_3  and  C_13 
DOCKED: REMARK    4  A    between atoms: O_4  and  C_14 
DOCKED: REMARK    5  A    between atoms: C_13  and  C_14 
DOCKED: REMARK    6  A    between atoms: C_13  and  C_15 
DOCKED: USER                              x       y       z     vdW  Elec       q    Type
DOCKED: USER                           _______ _______ _______ _____ _____    ______ ____
DOCKED: ROOT
DOCKED: ATOM      1  C   UNL d   1      -2.015   1.825 -13.406 -0.18 +0.28    +0.193 C 
DOCKED: ENDROOT
DOCKED: BRANCH   1   2
DOCKED: ATOM      2  O   UNL d   1      -0.768   2.322 -13.999 -0.20 -0.43    -0.356 OA
DOCKED: BRANCH   2   3
DOCKED: ATOM      3  P   UNL d   1      -0.341   3.910 -14.003 -0.33 -0.02    -0.014 P 
DOCKED: ATOM      4  O   UNL d   1       1.196   3.894 -14.003 -0.35 -0.45    -0.577 OA
DOCKED: ATOM      5  O   UNL d   1      -0.896   4.531 -12.723 -0.71 -0.94    -0.577 OA
DOCKED: ATOM      6  O   UNL d   1      -0.894   4.543 -15.275 -0.28 -1.05    -0.638 OA
DOCKED: ENDBRANCH   2   3
DOCKED: ENDBRANCH   1   2
DOCKED: BRANCH   1   7
DOCKED: ATOM      7  C   UNL d   1      -1.676   0.618 -12.455 -0.15 +0.23    +0.201 C 
DOCKED: BRANCH   7   8
DOCKED: ATOM      8  O   UNL d   1      -2.597   0.397 -11.365 -0.15 -0.38    -0.364 OA
DOCKED: BRANCH   8   9
DOCKED: ATOM      9  P   UNL d   1      -3.131  -1.132 -11.026 -0.33 -0.02    -0.015 P 
DOCKED: ATOM     10  O   UNL d   1      -3.349  -1.151  -9.508 -0.03 -0.39    -0.577 OA
DOCKED: ATOM     11  O   UNL d   1      -2.025  -2.096 -11.457 -0.32 -0.87    -0.577 OA
DOCKED: ATOM     12  O   UNL d   1      -4.435  -1.335 -11.796 -0.36 -1.24    -0.638 OA
DOCKED: ENDBRANCH   8   9
DOCKED: ENDBRANCH   7   8
DOCKED: ENDBRANCH   1   7
DOCKED: BRANCH   1  13
DOCKED: ATOM     13  C   UNL d   1      -2.985   1.318 -14.538 -0.15 +0.12    +0.073 C 
DOCKED: ATOM     14  O   UNL d   1      -2.842   0.122 -14.975 -0.40 -1.01    -0.547 OA
DOCKED: ATOM     15  O   UNL d   1      -3.912   2.122 -14.914 -0.58 -1.17    -0.547 OA
DOCKED: ENDBRANCH   1  13
DOCKED: TORSDOF 6
DOCKED: TER
DOCKED: ENDMDL
________________________________________________________________________________


	BEGINNING GENETIC ALGORITHM DOCKING 35 of 100
Run: 35 Seed: 1668470063 1878456882 [ Run 35 of 100 GA/GALS ]
Beginning LAMARCKIAN GENETIC ALGORITHM (LGA), with a maximum of 25000000 energy evaluations.

Final-Value: -10.009


	FINAL GENETIC ALGORITHM DOCKED STATE
	_______________________________________________


Detailed state:  trans -7.702 -18.283 6.046 quatxyzw 0.652586 0.456202 0.368462 0.479840 center 0.015 0.083 0.031 ntor 6 32.5965 136.8350 131.5800 17.7334 120.9420 2.8602
State:	 -7.702 -18.283   6.046   0.744  0.520  0.420 122.650     32.60  136.84  131.58   17.73  120.94    2.86

DOCKED: MODEL       35
DOCKED: USER    Run = 35
DOCKED: USER    DPF = D:/Protein_go_brrr/autodock/final/AncB/2_3_BPG/dock.dpf
DOCKED: USER  
DOCKED: USER    Estimated Free Energy of Binding    =  -10.71 kcal/mol  [=(1)+(2)+(3)-(4)]
DOCKED: USER    Estimated Inhibition Constant, Ki   =   14.14 nM (nanomolar)  [Temperature = 298.15 K]
DOCKED: USER    
DOCKED: USER    (1) Final Intermolecular Energy     =  -12.50 kcal/mol
DOCKED: USER        vdW + Hbond + desolv Energy     =   -2.47 kcal/mol
DOCKED: USER        Electrostatic Energy            =  -10.02 kcal/mol
DOCKED: USER    (2) Final Total Internal Energy     =   +2.49 kcal/mol
DOCKED: USER    (3) Torsional Free Energy           =   +1.79 kcal/mol
DOCKED: USER    (4) Unbound System's Energy  [=(2)] =   +2.49 kcal/mol
DOCKED: USER    
DOCKED: USER    
DOCKED: USER    NEWDPF move 2_3_BPG_opt.pdbqt
DOCKED: USER    NEWDPF about 0.015000 0.083000 0.031000
DOCKED: USER    NEWDPF tran0 -7.702009 -18.283141 6.045817
DOCKED: USER    NEWDPF quaternion0 0.652586 0.456202 0.368462 0.479840
DOCKED: USER    NEWDPF axisangle0 0.743810 0.519974 0.419969 122.650041
DOCKED: USER    NEWDPF quat0 0.743810 0.519974 0.419969 122.650041
DOCKED: USER    NEWDPF dihe0 32.60 136.84 131.58 17.73 120.94 2.86 
DOCKED: USER  keepresnum = 1 
DOCKED: USER  
DOCKED: REMARK  6 active torsions:
DOCKED: REMARK  status: ('A' for Active; 'I' for Inactive)
DOCKED: REMARK    1  A    between atoms: P_1  and  O_3 
DOCKED: REMARK    2  A    between atoms: P_2  and  O_4 
DOCKED: REMARK    3  A    between atoms: O_3  and  C_13 
DOCKED: REMARK    4  A    between atoms: O_4  and  C_14 
DOCKED: REMARK    5  A    between atoms: C_13  and  C_14 
DOCKED: REMARK    6  A    between atoms: C_13  and  C_15 
DOCKED: USER                              x       y       z     vdW  Elec       q    Type
DOCKED: USER                           _______ _______ _______ _____ _____    ______ ____
DOCKED: ROOT
DOCKED: ATOM      1  C   UNL d   1      -8.177 -18.297   5.573 -0.06 +0.42    +0.193 C 
DOCKED: ENDROOT
DOCKED: BRANCH   1   2
DOCKED: ATOM      2  O   UNL d   1      -7.775 -19.268   4.549 -0.03 -0.54    -0.356 OA
DOCKED: BRANCH   2   3
DOCKED: ATOM      3  P   UNL d   1      -7.411 -18.849   3.001 +0.20 -0.03    -0.014 P 
DOCKED: ATOM      4  O   UNL d   1      -8.557 -17.917   2.577 -0.05 -1.49    -0.577 OA
DOCKED: ATOM      5  O   UNL d   1      -7.398 -20.134   2.176 +0.04 -0.79    -0.577 OA
DOCKED: ATOM      6  O   UNL d   1      -6.072 -18.120   3.013 -0.41 -1.47    -0.638 OA
DOCKED: ENDBRANCH   2   3
DOCKED: ENDBRANCH   1   2
DOCKED: BRANCH   1   7
DOCKED: ATOM      7  C   UNL d   1      -7.234 -18.460   6.822 -0.08 +0.34    +0.201 C 
DOCKED: BRANCH   7   8
DOCKED: ATOM      8  O   UNL d   1      -7.217 -17.352   7.748 -0.46 -0.85    -0.364 OA
DOCKED: BRANCH   8   9
DOCKED: ATOM      9  P   UNL d   1      -6.845 -15.830   7.215 -0.19 -0.03    -0.015 P 
DOCKED: ATOM     10  O   UNL d   1      -5.602 -16.009   6.336 -0.59 -1.06    -0.577 OA
DOCKED: ATOM     11  O   UNL d   1      -6.552 -14.983   8.453 -0.19 -0.73    -0.577 OA
DOCKED: ATOM     12  O   UNL d   1      -8.046 -15.326   6.416 +0.05 -1.95    -0.638 OA
DOCKED: ENDBRANCH   8   9
DOCKED: ENDBRANCH   7   8
DOCKED: ENDBRANCH   1   7
DOCKED: BRANCH   1  13
DOCKED: ATOM     13  C   UNL d   1      -9.661 -18.570   6.023 +0.04 +0.15    +0.073 C 
DOCKED: ATOM     14  O   UNL d   1      -9.870 -19.424   6.954 -0.46 -0.92    -0.547 OA
DOCKED: ATOM     15  O   UNL d   1     -10.577 -17.864   5.466 -0.29 -1.08    -0.547 OA
DOCKED: ENDBRANCH   1  13
DOCKED: TORSDOF 6
DOCKED: TER
DOCKED: ENDMDL
________________________________________________________________________________


	BEGINNING GENETIC ALGORITHM DOCKING 36 of 100
Run: 36 Seed: 505491007 1465047722 [ Run 36 of 100 GA/GALS ]
Beginning LAMARCKIAN GENETIC ALGORITHM (LGA), with a maximum of 25000000 energy evaluations.

Final-Value: -9.110


	FINAL GENETIC ALGORITHM DOCKED STATE
	_______________________________________________


Detailed state:  trans -0.540 2.381 -14.304 quatxyzw -0.660725 0.665473 0.294004 0.184798 center 0.015 0.083 0.031 ntor 6 15.1767 -144.3141 89.3220 -29.6379 -82.8263 -110.2479
State:	 -0.540   2.381 -14.304  -0.672  0.677  0.299 158.701     15.18 -144.31   89.32  -29.64  -82.83 -110.25

DOCKED: MODEL       36
DOCKED: USER    Run = 36
DOCKED: USER    DPF = D:/Protein_go_brrr/autodock/final/AncB/2_3_BPG/dock.dpf
DOCKED: USER  
DOCKED: USER    Estimated Free Energy of Binding    =   -9.57 kcal/mol  [=(1)+(2)+(3)-(4)]
DOCKED: USER    Estimated Inhibition Constant, Ki   =   96.54 nM (nanomolar)  [Temperature = 298.15 K]
DOCKED: USER    
DOCKED: USER    (1) Final Intermolecular Energy     =  -11.36 kcal/mol
DOCKED: USER        vdW + Hbond + desolv Energy     =   -4.23 kcal/mol
DOCKED: USER        Electrostatic Energy            =   -7.13 kcal/mol
DOCKED: USER    (2) Final Total Internal Energy     =   +2.25 kcal/mol
DOCKED: USER    (3) Torsional Free Energy           =   +1.79 kcal/mol
DOCKED: USER    (4) Unbound System's Energy  [=(2)] =   +2.25 kcal/mol
DOCKED: USER    
DOCKED: USER    
DOCKED: USER    NEWDPF move 2_3_BPG_opt.pdbqt
DOCKED: USER    NEWDPF about 0.015000 0.083000 0.031000
DOCKED: USER    NEWDPF tran0 -0.539741 2.380515 -14.303646
DOCKED: USER    NEWDPF quaternion0 -0.660725 0.665473 0.294004 0.184798
DOCKED: USER    NEWDPF axisangle0 -0.672304 0.677136 0.299156 158.701309
DOCKED: USER    NEWDPF quat0 -0.672304 0.677136 0.299156 158.701309
DOCKED: USER    NEWDPF dihe0 15.18 -144.31 89.32 -29.64 -82.83 -110.25 
DOCKED: USER  keepresnum = 1 
DOCKED: USER  
DOCKED: REMARK  6 active torsions:
DOCKED: REMARK  status: ('A' for Active; 'I' for Inactive)
DOCKED: REMARK    1  A    between atoms: P_1  and  O_3 
DOCKED: REMARK    2  A    between atoms: P_2  and  O_4 
DOCKED: REMARK    3  A    between atoms: O_3  and  C_13 
DOCKED: REMARK    4  A    between atoms: O_4  and  C_14 
DOCKED: REMARK    5  A    between atoms: C_13  and  C_14 
DOCKED: REMARK    6  A    between atoms: C_13  and  C_15 
DOCKED: USER                              x       y       z     vdW  Elec       q    Type
DOCKED: USER                           _______ _______ _______ _____ _____    ______ ____
DOCKED: ROOT
DOCKED: ATOM      1  C   UNL d   1      -0.324   2.988 -14.489 -0.19 +0.22    +0.193 C 
DOCKED: ENDROOT
DOCKED: BRANCH   1   2
DOCKED: ATOM      2  O   UNL d   1      -0.470   3.894 -13.344 -0.88 -0.53    -0.356 OA
DOCKED: BRANCH   2   3
DOCKED: ATOM      3  P   UNL d   1      -0.466   5.532 -13.484 -0.50 -0.02    -0.014 P 
DOCKED: ATOM      4  O   UNL d   1      -1.088   5.801 -14.863 -0.39 -1.07    -0.577 OA
DOCKED: ATOM      5  O   UNL d   1       0.990   5.988 -13.426 -0.20 -0.41    -0.577 OA
DOCKED: ATOM      6  O   UNL d   1      -1.327   6.103 -12.361 -0.25 -0.83    -0.638 OA
DOCKED: ENDBRANCH   2   3
DOCKED: ENDBRANCH   1   2
DOCKED: BRANCH   1   7
DOCKED: ATOM      7  C   UNL d   1      -0.546   1.511 -13.995 -0.15 +0.20    +0.201 C 
DOCKED: BRANCH   7   8
DOCKED: ATOM      8  O   UNL d   1      -1.728   1.284 -13.195 -0.13 -0.46    -0.364 OA
DOCKED: BRANCH   8   9
DOCKED: ATOM      9  P   UNL d   1      -3.082   0.629 -13.883 -0.20 -0.03    -0.015 P 
DOCKED: ATOM     10  O   UNL d   1      -3.877   1.826 -14.418 -0.62 -1.12    -0.577 OA
DOCKED: ATOM     11  O   UNL d   1      -3.834  -0.106 -12.774 -0.07 -1.08    -0.577 OA
DOCKED: ATOM     12  O   UNL d   1      -2.615  -0.298 -15.005 -0.40 -1.41    -0.638 OA
DOCKED: ENDBRANCH   8   9
DOCKED: ENDBRANCH   7   8
DOCKED: ENDBRANCH   1   7
DOCKED: BRANCH   1  13
DOCKED: ATOM     13  C   UNL d   1       1.126   3.106 -15.090 -0.23 +0.05    +0.073 C 
DOCKED: ATOM     14  O   UNL d   1       2.112   2.668 -14.398 -0.04 -0.29    -0.547 OA
DOCKED: ATOM     15  O   UNL d   1       1.228   3.582 -16.278 +0.01 -0.35    -0.547 OA
DOCKED: ENDBRANCH   1  13
DOCKED: TORSDOF 6
DOCKED: TER
DOCKED: ENDMDL
________________________________________________________________________________


	BEGINNING GENETIC ALGORITHM DOCKING 37 of 100
Run: 37 Seed: 1761676768 339441599 [ Run 37 of 100 GA/GALS ]
Beginning LAMARCKIAN GENETIC ALGORITHM (LGA), with a maximum of 25000000 energy evaluations.

Final-Value: -10.595


	FINAL GENETIC ALGORITHM DOCKED STATE
	_______________________________________________


Detailed state:  trans -6.807 -18.323 5.659 quatxyzw -0.901279 0.143529 0.092684 -0.398127 center 0.015 0.083 0.031 ntor 6 -146.4607 -72.3276 -177.2652 11.1863 107.0863 -20.4390
State:	 -6.807 -18.323   5.659  -0.983  0.156  0.101 -133.078   -146.46  -72.33 -177.27   11.19  107.09  -20.44

DOCKED: MODEL       37
DOCKED: USER    Run = 37
DOCKED: USER    DPF = D:/Protein_go_brrr/autodock/final/AncB/2_3_BPG/dock.dpf
DOCKED: USER  
DOCKED: USER    Estimated Free Energy of Binding    =  -11.38 kcal/mol  [=(1)+(2)+(3)-(4)]
DOCKED: USER    Estimated Inhibition Constant, Ki   =    4.55 nM (nanomolar)  [Temperature = 298.15 K]
DOCKED: USER    
DOCKED: USER    (1) Final Intermolecular Energy     =  -13.17 kcal/mol
DOCKED: USER        vdW + Hbond + desolv Energy     =   -3.04 kcal/mol
DOCKED: USER        Electrostatic Energy            =  -10.13 kcal/mol
DOCKED: USER    (2) Final Total Internal Energy     =   +2.58 kcal/mol
DOCKED: USER    (3) Torsional Free Energy           =   +1.79 kcal/mol
DOCKED: USER    (4) Unbound System's Energy  [=(2)] =   +2.58 kcal/mol
DOCKED: USER    
DOCKED: USER    
DOCKED: USER    NEWDPF move 2_3_BPG_opt.pdbqt
DOCKED: USER    NEWDPF about 0.015000 0.083000 0.031000
DOCKED: USER    NEWDPF tran0 -6.806646 -18.323425 5.659343
DOCKED: USER    NEWDPF quaternion0 -0.901279 0.143529 0.092684 -0.398127
DOCKED: USER    NEWDPF axisangle0 -0.982502 0.156464 0.101037 -133.077709
DOCKED: USER    NEWDPF quat0 -0.982502 0.156464 0.101037 -133.077709
DOCKED: USER    NEWDPF dihe0 -146.46 -72.33 -177.27 11.19 107.09 -20.44 
DOCKED: USER  keepresnum = 1 
DOCKED: USER  
DOCKED: REMARK  6 active torsions:
DOCKED: REMARK  status: ('A' for Active; 'I' for Inactive)
DOCKED: REMARK    1  A    between atoms: P_1  and  O_3 
DOCKED: REMARK    2  A    between atoms: P_2  and  O_4 
DOCKED: REMARK    3  A    between atoms: O_3  and  C_13 
DOCKED: REMARK    4  A    between atoms: O_4  and  C_14 
DOCKED: REMARK    5  A    between atoms: C_13  and  C_14 
DOCKED: REMARK    6  A    between atoms: C_13  and  C_15 
DOCKED: USER                              x       y       z     vdW  Elec       q    Type
DOCKED: USER                           _______ _______ _______ _____ _____    ______ ____
DOCKED: ROOT
DOCKED: ATOM      1  C   UNL d   1      -7.260 -17.946   5.978 -0.01 +0.42    +0.193 C 
DOCKED: ENDROOT
DOCKED: BRANCH   1   2
DOCKED: ATOM      2  O   UNL d   1      -8.480 -18.742   6.150 -0.10 -0.67    -0.356 OA
DOCKED: BRANCH   2   3
DOCKED: ATOM      3  P   UNL d   1      -9.943 -18.293   5.550 -0.16 -0.03    -0.014 P 
DOCKED: ATOM      4  O   UNL d   1     -10.141 -19.184   4.314 +0.01 -0.72    -0.577 OA
DOCKED: ATOM      5  O   UNL d   1      -9.842 -16.817   5.168 -0.61 -1.67    -0.577 OA
DOCKED: ATOM      6  O   UNL d   1     -10.996 -18.574   6.617 -0.55 -1.33    -0.638 OA
DOCKED: ENDBRANCH   2   3
DOCKED: ENDBRANCH   1   2
DOCKED: BRANCH   1   7
DOCKED: ATOM      7  C   UNL d   1      -6.100 -18.895   5.502 -0.03 +0.26    +0.201 C 
DOCKED: BRANCH   7   8
DOCKED: ATOM      8  O   UNL d   1      -5.230 -18.364   4.478 -0.04 -0.50    -0.364 OA
DOCKED: BRANCH   8   9
DOCKED: ATOM      9  P   UNL d   1      -5.795 -18.148   2.938 +0.07 -0.03    -0.015 P 
DOCKED: ATOM     10  O   UNL d   1      -7.287 -18.494   3.010 -0.28 -1.37    -0.577 OA
DOCKED: ATOM     11  O   UNL d   1      -5.026 -19.117   2.041 -0.40 -0.84    -0.577 OA
DOCKED: ATOM     12  O   UNL d   1      -5.562 -16.682   2.574 -0.22 -1.74    -0.638 OA
DOCKED: ENDBRANCH   8   9
DOCKED: ENDBRANCH   7   8
DOCKED: ENDBRANCH   1   7
DOCKED: BRANCH   1  13
DOCKED: ATOM     13  C   UNL d   1      -6.845 -17.291   7.348 -0.10 +0.14    +0.073 C 
DOCKED: ATOM     14  O   UNL d   1      -7.265 -16.110   7.614 -0.59 -1.42    -0.547 OA
DOCKED: ATOM     15  O   UNL d   1      -6.154 -18.014   8.154 -0.04 -0.63    -0.547 OA
DOCKED: ENDBRANCH   1  13
DOCKED: TORSDOF 6
DOCKED: TER
DOCKED: ENDMDL
________________________________________________________________________________


	BEGINNING GENETIC ALGORITHM DOCKING 38 of 100
Run: 38 Seed: 1654142251 2104852282 [ Run 38 of 100 GA/GALS ]
Beginning LAMARCKIAN GENETIC ALGORITHM (LGA), with a maximum of 25000000 energy evaluations.

Final-Value: -10.758


	FINAL GENETIC ALGORITHM DOCKED STATE
	_______________________________________________


Detailed state:  trans -7.759 -18.767 5.148 quatxyzw 0.515388 -0.345142 0.269534 -0.736617 center 0.015 0.083 0.031 ntor 6 173.2625 55.5489 -30.7263 89.5042 35.0881 -165.0581
State:	 -7.759 -18.767   5.148   0.762 -0.510  0.399 -85.112    173.26   55.55  -30.73   89.50   35.09 -165.06

DOCKED: MODEL       38
DOCKED: USER    Run = 38
DOCKED: USER    DPF = D:/Protein_go_brrr/autodock/final/AncB/2_3_BPG/dock.dpf
DOCKED: USER  
DOCKED: USER    Estimated Free Energy of Binding    =  -12.07 kcal/mol  [=(1)+(2)+(3)-(4)]
DOCKED: USER    Estimated Inhibition Constant, Ki   =    1.41 nM (nanomolar)  [Temperature = 298.15 K]
DOCKED: USER    
DOCKED: USER    (1) Final Intermolecular Energy     =  -13.86 kcal/mol
DOCKED: USER        vdW + Hbond + desolv Energy     =   -3.32 kcal/mol
DOCKED: USER        Electrostatic Energy            =  -10.54 kcal/mol
DOCKED: USER    (2) Final Total Internal Energy     =   +3.10 kcal/mol
DOCKED: USER    (3) Torsional Free Energy           =   +1.79 kcal/mol
DOCKED: USER    (4) Unbound System's Energy  [=(2)] =   +3.10 kcal/mol
DOCKED: USER    
DOCKED: USER    
DOCKED: USER    NEWDPF move 2_3_BPG_opt.pdbqt
DOCKED: USER    NEWDPF about 0.015000 0.083000 0.031000
DOCKED: USER    NEWDPF tran0 -7.758704 -18.767383 5.147965
DOCKED: USER    NEWDPF quaternion0 0.515388 -0.345142 0.269534 -0.736617
DOCKED: USER    NEWDPF axisangle0 0.762058 -0.510330 0.398536 -85.111953
DOCKED: USER    NEWDPF quat0 0.762058 -0.510330 0.398536 -85.111953
DOCKED: USER    NEWDPF dihe0 173.26 55.55 -30.73 89.50 35.09 -165.06 
DOCKED: USER  keepresnum = 1 
DOCKED: USER  
DOCKED: REMARK  6 active torsions:
DOCKED: REMARK  status: ('A' for Active; 'I' for Inactive)
DOCKED: REMARK    1  A    between atoms: P_1  and  O_3 
DOCKED: REMARK    2  A    between atoms: P_2  and  O_4 
DOCKED: REMARK    3  A    between atoms: O_3  and  C_13 
DOCKED: REMARK    4  A    between atoms: O_4  and  C_14 
DOCKED: REMARK    5  A    between atoms: C_13  and  C_14 
DOCKED: REMARK    6  A    between atoms: C_13  and  C_15 
DOCKED: USER                              x       y       z     vdW  Elec       q    Type
DOCKED: USER                           _______ _______ _______ _____ _____    ______ ____
DOCKED: ROOT
DOCKED: ATOM      1  C   UNL d   1      -7.907 -18.980   4.530 -0.08 +0.33    +0.193 C 
DOCKED: ENDROOT
DOCKED: BRANCH   1   2
DOCKED: ATOM      2  O   UNL d   1      -9.006 -18.158   4.013 -0.21 -0.81    -0.356 OA
DOCKED: BRANCH   2   3
DOCKED: ATOM      3  P   UNL d   1     -10.315 -17.733   4.913 -0.25 -0.03    -0.014 P 
DOCKED: ATOM      4  O   UNL d   1     -11.521 -18.132   4.048 -0.01 -0.65    -0.577 OA
DOCKED: ATOM      5  O   UNL d   1     -10.250 -16.221   5.122 -0.62 -1.49    -0.577 OA
DOCKED: ATOM      6  O   UNL d   1     -10.272 -18.529   6.214 -0.46 -1.39    -0.638 OA
DOCKED: ENDBRANCH   2   3
DOCKED: ENDBRANCH   1   2
DOCKED: BRANCH   1   7
DOCKED: ATOM      7  C   UNL d   1      -7.355 -18.317   5.845 -0.06 +0.39    +0.201 C 
DOCKED: BRANCH   7   8
DOCKED: ATOM      8  O   UNL d   1      -7.921 -17.034   6.190 -0.01 -1.16    -0.364 OA
DOCKED: BRANCH   8   9
DOCKED: ATOM      9  P   UNL d   1      -6.963 -15.850   6.835 +0.09 -0.04    -0.015 P 
DOCKED: ATOM     10  O   UNL d   1      -7.614 -14.530   6.405 -0.13 -1.34    -0.577 OA
DOCKED: ATOM     11  O   UNL d   1      -5.570 -16.023   6.228 -0.58 -1.09    -0.577 OA
DOCKED: ATOM     12  O   UNL d   1      -6.981 -16.031   8.352 -0.58 -1.29    -0.638 OA
DOCKED: ENDBRANCH   8   9
DOCKED: ENDBRANCH   7   8
DOCKED: ENDBRANCH   1   7
DOCKED: BRANCH   1  13
DOCKED: ATOM     13  C   UNL d   1      -6.742 -19.049   3.473 -0.12 +0.12    +0.073 C 
DOCKED: ATOM     14  O   UNL d   1      -6.227 -20.191   3.204 -0.02 -0.58    -0.547 OA
DOCKED: ATOM     15  O   UNL d   1      -6.418 -17.952   2.891 -0.27 -1.53    -0.547 OA
DOCKED: ENDBRANCH   1  13
DOCKED: TORSDOF 6
DOCKED: TER
DOCKED: ENDMDL
________________________________________________________________________________


	BEGINNING GENETIC ALGORITHM DOCKING 39 of 100
Run: 39 Seed: 544420280 1915674765 [ Run 39 of 100 GA/GALS ]
Beginning LAMARCKIAN GENETIC ALGORITHM (LGA), with a maximum of 25000000 energy evaluations.

Final-Value: -10.491


	FINAL GENETIC ALGORITHM DOCKED STATE
	_______________________________________________


Detailed state:  trans -7.935 -19.404 3.967 quatxyzw 0.435740 0.011389 -0.050322 -0.898593 center 0.015 0.083 0.031 ntor 6 -31.3214 -34.5600 -68.5545 82.3704 6.7476 129.7118
State:	 -7.935 -19.404   3.967   0.993  0.026 -0.115 -52.053    -31.32  -34.56  -68.55   82.37    6.75  129.71

DOCKED: MODEL       39
DOCKED: USER    Run = 39
DOCKED: USER    DPF = D:/Protein_go_brrr/autodock/final/AncB/2_3_BPG/dock.dpf
DOCKED: USER  
DOCKED: USER    Estimated Free Energy of Binding    =  -11.02 kcal/mol  [=(1)+(2)+(3)-(4)]
DOCKED: USER    Estimated Inhibition Constant, Ki   =    8.42 nM (nanomolar)  [Temperature = 298.15 K]
DOCKED: USER    
DOCKED: USER    (1) Final Intermolecular Energy     =  -12.81 kcal/mol
DOCKED: USER        vdW + Hbond + desolv Energy     =   -2.65 kcal/mol
DOCKED: USER        Electrostatic Energy            =  -10.16 kcal/mol
DOCKED: USER    (2) Final Total Internal Energy     =   +2.31 kcal/mol
DOCKED: USER    (3) Torsional Free Energy           =   +1.79 kcal/mol
DOCKED: USER    (4) Unbound System's Energy  [=(2)] =   +2.31 kcal/mol
DOCKED: USER    
DOCKED: USER    
DOCKED: USER    NEWDPF move 2_3_BPG_opt.pdbqt
DOCKED: USER    NEWDPF about 0.015000 0.083000 0.031000
DOCKED: USER    NEWDPF tran0 -7.934708 -19.403613 3.967214
DOCKED: USER    NEWDPF quaternion0 0.435740 0.011389 -0.050322 -0.898593
DOCKED: USER    NEWDPF axisangle0 0.993063 0.025956 -0.114684 -52.052633
DOCKED: USER    NEWDPF quat0 0.993063 0.025956 -0.114684 -52.052633
DOCKED: USER    NEWDPF dihe0 -31.32 -34.56 -68.55 82.37 6.75 129.71 
DOCKED: USER  keepresnum = 1 
DOCKED: USER  
DOCKED: REMARK  6 active torsions:
DOCKED: REMARK  status: ('A' for Active; 'I' for Inactive)
DOCKED: REMARK    1  A    between atoms: P_1  and  O_3 
DOCKED: REMARK    2  A    between atoms: P_2  and  O_4 
DOCKED: REMARK    3  A    between atoms: O_3  and  C_13 
DOCKED: REMARK    4  A    between atoms: O_4  and  C_14 
DOCKED: REMARK    5  A    between atoms: C_13  and  C_14 
DOCKED: REMARK    6  A    between atoms: C_13  and  C_15 
DOCKED: USER                              x       y       z     vdW  Elec       q    Type
DOCKED: USER                           _______ _______ _______ _____ _____    ______ ____
DOCKED: ROOT
DOCKED: ATOM      1  C   UNL d   1      -8.551 -19.621   3.819 -0.07 +0.25    +0.193 C 
DOCKED: ENDROOT
DOCKED: BRANCH   1   2
DOCKED: ATOM      2  O   UNL d   1      -9.500 -18.542   4.111 -0.13 -0.62    -0.356 OA
DOCKED: BRANCH   2   3
DOCKED: ATOM      3  P   UNL d   1      -9.526 -17.724   5.538 +0.00 -0.04    -0.014 P 
DOCKED: ATOM      4  O   UNL d   1      -9.821 -16.269   5.141 -0.51 -1.80    -0.577 OA
DOCKED: ATOM      5  O   UNL d   1      -8.140 -17.865   6.165 -0.06 -1.46    -0.577 OA
DOCKED: ATOM      6  O   UNL d   1     -10.643 -18.308   6.396 -0.44 -1.53    -0.638 OA
DOCKED: ENDBRANCH   2   3
DOCKED: ENDBRANCH   1   2
DOCKED: BRANCH   1   7
DOCKED: ATOM      7  C   UNL d   1      -7.090 -19.040   3.881 -0.09 +0.34    +0.201 C 
DOCKED: BRANCH   7   8
DOCKED: ATOM      8  O   UNL d   1      -6.720 -18.148   2.807 -0.33 -0.97    -0.364 OA
DOCKED: BRANCH   8   9
DOCKED: ATOM      9  P   UNL d   1      -5.147 -17.669   2.631 -0.17 -0.03    -0.015 P 
DOCKED: ATOM     10  O   UNL d   1      -4.684 -18.296   1.311 -0.40 -1.08    -0.577 OA
DOCKED: ATOM     11  O   UNL d   1      -4.375 -18.224   3.828 +0.01 -0.65    -0.577 OA
DOCKED: ATOM     12  O   UNL d   1      -5.144 -16.142   2.574 -0.19 -1.39    -0.638 OA
DOCKED: ENDBRANCH   8   9
DOCKED: ENDBRANCH   7   8
DOCKED: ENDBRANCH   1   7
DOCKED: BRANCH   1  13
DOCKED: ATOM     13  C   UNL d   1      -8.807 -20.187   2.372 -0.05 +0.08    +0.073 C 
DOCKED: ATOM     14  O   UNL d   1      -9.409 -19.442   1.522 -0.21 -0.82    -0.547 OA
DOCKED: ATOM     15  O   UNL d   1      -8.335 -21.352   2.110 +0.00 -0.44    -0.547 OA
DOCKED: ENDBRANCH   1  13
DOCKED: TORSDOF 6
DOCKED: TER
DOCKED: ENDMDL
________________________________________________________________________________


	BEGINNING GENETIC ALGORITHM DOCKING 40 of 100
Run: 40 Seed: 2092509893 1307707627 [ Run 40 of 100 GA/GALS ]
Beginning LAMARCKIAN GENETIC ALGORITHM (LGA), with a maximum of 25000000 energy evaluations.

Final-Value: -10.138


	FINAL GENETIC ALGORITHM DOCKED STATE
	_______________________________________________


Detailed state:  trans -9.235 -18.196 5.576 quatxyzw -0.551607 -0.398474 -0.075973 -0.728819 center 0.015 0.083 0.031 ntor 6 -46.1490 133.6405 -70.6758 82.3459 -17.4346 -30.5083
State:	 -9.235 -18.196   5.576  -0.806 -0.582 -0.111 -86.425    -46.15  133.64  -70.68   82.35  -17.43  -30.51

DOCKED: MODEL       40
DOCKED: USER    Run = 40
DOCKED: USER    DPF = D:/Protein_go_brrr/autodock/final/AncB/2_3_BPG/dock.dpf
DOCKED: USER  
DOCKED: USER    Estimated Free Energy of Binding    =  -10.46 kcal/mol  [=(1)+(2)+(3)-(4)]
DOCKED: USER    Estimated Inhibition Constant, Ki   =   21.67 nM (nanomolar)  [Temperature = 298.15 K]
DOCKED: USER    
DOCKED: USER    (1) Final Intermolecular Energy     =  -12.25 kcal/mol
DOCKED: USER        vdW + Hbond + desolv Energy     =   -2.49 kcal/mol
DOCKED: USER        Electrostatic Energy            =   -9.76 kcal/mol
DOCKED: USER    (2) Final Total Internal Energy     =   +2.11 kcal/mol
DOCKED: USER    (3) Torsional Free Energy           =   +1.79 kcal/mol
DOCKED: USER    (4) Unbound System's Energy  [=(2)] =   +2.11 kcal/mol
DOCKED: USER    
DOCKED: USER    
DOCKED: USER    NEWDPF move 2_3_BPG_opt.pdbqt
DOCKED: USER    NEWDPF about 0.015000 0.083000 0.031000
DOCKED: USER    NEWDPF tran0 -9.235357 -18.196417 5.575540
DOCKED: USER    NEWDPF quaternion0 -0.551607 -0.398474 -0.075973 -0.728819
DOCKED: USER    NEWDPF axisangle0 -0.805610 -0.581963 -0.110957 -86.425065
DOCKED: USER    NEWDPF quat0 -0.805610 -0.581963 -0.110957 -86.425065
DOCKED: USER    NEWDPF dihe0 -46.15 133.64 -70.68 82.35 -17.43 -30.51 
DOCKED: USER  keepresnum = 1 
DOCKED: USER  
DOCKED: REMARK  6 active torsions:
DOCKED: REMARK  status: ('A' for Active; 'I' for Inactive)
DOCKED: REMARK    1  A    between atoms: P_1  and  O_3 
DOCKED: REMARK    2  A    between atoms: P_2  and  O_4 
DOCKED: REMARK    3  A    between atoms: O_3  and  C_13 
DOCKED: REMARK    4  A    between atoms: O_4  and  C_14 
DOCKED: REMARK    5  A    between atoms: C_13  and  C_14 
DOCKED: REMARK    6  A    between atoms: C_13  and  C_15 
DOCKED: USER                              x       y       z     vdW  Elec       q    Type
DOCKED: USER                           _______ _______ _______ _____ _____    ______ ____
DOCKED: ROOT
DOCKED: ATOM      1  C   UNL d   1      -9.846 -18.427   5.425 -0.12 +0.37    +0.193 C 
DOCKED: ENDROOT
DOCKED: BRANCH   1   2
DOCKED: ATOM      2  O   UNL d   1      -9.792 -19.025   4.086 -0.05 -0.49    -0.356 OA
DOCKED: BRANCH   2   3
DOCKED: ATOM      3  P   UNL d   1      -9.147 -18.260   2.781 -0.06 -0.03    -0.014 P 
DOCKED: ATOM      4  O   UNL d   1      -9.821 -16.879   2.775 -0.14 -1.31    -0.577 OA
DOCKED: ATOM      5  O   UNL d   1      -9.526 -19.075   1.546 -0.14 -0.93    -0.577 OA
DOCKED: ATOM      6  O   UNL d   1      -7.642 -18.148   2.997 -0.12 -1.79    -0.638 OA
DOCKED: ENDBRANCH   2   3
DOCKED: ENDBRANCH   1   2
DOCKED: BRANCH   1   7
DOCKED: ATOM      7  C   UNL d   1      -8.377 -18.146   5.912 -0.08 +0.47    +0.201 C 
DOCKED: BRANCH   7   8
DOCKED: ATOM      8  O   UNL d   1      -8.119 -16.810   6.396 -0.10 -1.22    -0.364 OA
DOCKED: BRANCH   8   9
DOCKED: ATOM      9  P   UNL d   1      -6.741 -16.490   7.255 -0.12 -0.03    -0.015 P 
DOCKED: ATOM     10  O   UNL d   1      -5.897 -15.597   6.337 -0.54 -1.19    -0.577 OA
DOCKED: ATOM     11  O   UNL d   1      -6.063 -17.833   7.526 -0.03 -0.73    -0.577 OA
DOCKED: ATOM     12  O   UNL d   1      -7.163 -15.765   8.532 -0.49 -1.30    -0.638 OA
DOCKED: ENDBRANCH   8   9
DOCKED: ENDBRANCH   7   8
DOCKED: ENDBRANCH   1   7
DOCKED: BRANCH   1  13
DOCKED: ATOM     13  C   UNL d   1     -10.530 -19.424   6.434 -0.09 +0.11    +0.073 C 
DOCKED: ATOM     14  O   UNL d   1     -10.797 -20.611   6.034 +0.01 -0.44    -0.547 OA
DOCKED: ATOM     15  O   UNL d   1     -10.724 -19.000   7.630 -0.43 -1.23    -0.547 OA
DOCKED: ENDBRANCH   1  13
DOCKED: TORSDOF 6
DOCKED: TER
DOCKED: ENDMDL
________________________________________________________________________________


	BEGINNING GENETIC ALGORITHM DOCKING 41 of 100
Run: 41 Seed: 415888420 905344430 [ Run 41 of 100 GA/GALS ]
Beginning LAMARCKIAN GENETIC ALGORITHM (LGA), with a maximum of 25000000 energy evaluations.

Final-Value: -10.084


	FINAL GENETIC ALGORITHM DOCKED STATE
	_______________________________________________


Detailed state:  trans -9.373 -18.946 2.968 quatxyzw 0.496811 -0.131906 -0.346649 -0.784611 center 0.015 0.083 0.031 ntor 6 -86.0600 -115.4243 -24.2076 57.3240 -0.3773 -180.0000
State:	 -9.373 -18.946   2.968   0.801 -0.213 -0.559 -76.631    -86.06 -115.42  -24.21   57.32   -0.38 -180.00

DOCKED: MODEL       41
DOCKED: USER    Run = 41
DOCKED: USER    DPF = D:/Protein_go_brrr/autodock/final/AncB/2_3_BPG/dock.dpf
DOCKED: USER  
DOCKED: USER    Estimated Free Energy of Binding    =  -10.64 kcal/mol  [=(1)+(2)+(3)-(4)]
DOCKED: USER    Estimated Inhibition Constant, Ki   =   15.80 nM (nanomolar)  [Temperature = 298.15 K]
DOCKED: USER    
DOCKED: USER    (1) Final Intermolecular Energy     =  -12.43 kcal/mol
DOCKED: USER        vdW + Hbond + desolv Energy     =   -3.02 kcal/mol
DOCKED: USER        Electrostatic Energy            =   -9.41 kcal/mol
DOCKED: USER    (2) Final Total Internal Energy     =   +2.35 kcal/mol
DOCKED: USER    (3) Torsional Free Energy           =   +1.79 kcal/mol
DOCKED: USER    (4) Unbound System's Energy  [=(2)] =   +2.35 kcal/mol
DOCKED: USER    
DOCKED: USER    
DOCKED: USER    NEWDPF move 2_3_BPG_opt.pdbqt
DOCKED: USER    NEWDPF about 0.015000 0.083000 0.031000
DOCKED: USER    NEWDPF tran0 -9.372702 -18.946184 2.968058
DOCKED: USER    NEWDPF quaternion0 0.496811 -0.131906 -0.346649 -0.784611
DOCKED: USER    NEWDPF axisangle0 0.801322 -0.212756 -0.559122 -76.630609
DOCKED: USER    NEWDPF quat0 0.801322 -0.212756 -0.559122 -76.630609
DOCKED: USER    NEWDPF dihe0 -86.06 -115.42 -24.21 57.32 -0.38 -180.00 
DOCKED: USER  keepresnum = 1 
DOCKED: USER  
DOCKED: REMARK  6 active torsions:
DOCKED: REMARK  status: ('A' for Active; 'I' for Inactive)
DOCKED: REMARK    1  A    between atoms: P_1  and  O_3 
DOCKED: REMARK    2  A    between atoms: P_2  and  O_4 
DOCKED: REMARK    3  A    between atoms: O_3  and  C_13 
DOCKED: REMARK    4  A    between atoms: O_4  and  C_14 
DOCKED: REMARK    5  A    between atoms: C_13  and  C_14 
DOCKED: REMARK    6  A    between atoms: C_13  and  C_15 
DOCKED: USER                              x       y       z     vdW  Elec       q    Type
DOCKED: USER                           _______ _______ _______ _____ _____    ______ ____
DOCKED: ROOT
DOCKED: ATOM      1  C   UNL d   1      -9.978 -18.698   2.821 -0.11 +0.27    +0.193 C 
DOCKED: ENDROOT
DOCKED: BRANCH   1   2
DOCKED: ATOM      2  O   UNL d   1     -10.055 -17.334   3.357 -0.36 -0.73    -0.356 OA
DOCKED: BRANCH   2   3
DOCKED: ATOM      3  P   UNL d   1     -10.246 -17.002   4.956 -0.01 -0.03    -0.014 P 
DOCKED: ATOM      4  O   UNL d   1      -9.013 -17.629   5.627 -0.26 -1.62    -0.577 OA
DOCKED: ATOM      5  O   UNL d   1     -11.537 -17.681   5.408 -0.14 -0.88    -0.577 OA
DOCKED: ATOM      6  O   UNL d   1     -10.265 -15.487   5.124 -0.40 -1.56    -0.638 OA
DOCKED: ENDBRANCH   2   3
DOCKED: ENDBRANCH   1   2
DOCKED: BRANCH   1   7
DOCKED: ATOM      7  C   UNL d   1      -8.484 -19.187   2.897 -0.03 +0.33    +0.201 C 
DOCKED: BRANCH   7   8
DOCKED: ATOM      8  O   UNL d   1      -7.485 -18.148   3.001 -0.23 -1.03    -0.364 OA
DOCKED: BRANCH   8   9
DOCKED: ATOM      9  P   UNL d   1      -5.879 -18.541   3.021 -0.11 -0.03    -0.015 P 
DOCKED: ATOM     10  O   UNL d   1      -5.151 -17.267   2.577 -0.37 -1.20    -0.577 OA
DOCKED: ATOM     11  O   UNL d   1      -5.687 -19.685   2.025 -0.34 -0.85    -0.577 OA
DOCKED: ATOM     12  O   UNL d   1      -5.528 -18.932   4.456 +0.02 -0.80    -0.638 OA
DOCKED: ENDBRANCH   8   9
DOCKED: ENDBRANCH   7   8
DOCKED: ENDBRANCH   1   7
DOCKED: BRANCH   1  13
DOCKED: ATOM     13  C   UNL d   1     -10.437 -18.712   1.315 -0.10 +0.09    +0.073 C 
DOCKED: ATOM     14  O   UNL d   1     -11.337 -17.881   0.942 -0.04 -0.58    -0.547 OA
DOCKED: ATOM     15  O   UNL d   1      -9.828 -19.523   0.528 -0.54 -0.79    -0.547 OA
DOCKED: ENDBRANCH   1  13
DOCKED: TORSDOF 6
DOCKED: TER
DOCKED: ENDMDL
________________________________________________________________________________


	BEGINNING GENETIC ALGORITHM DOCKING 42 of 100
Run: 42 Seed: 135834471 64142325 [ Run 42 of 100 GA/GALS ]
Beginning LAMARCKIAN GENETIC ALGORITHM (LGA), with a maximum of 25000000 energy evaluations.

Final-Value: -10.314


	FINAL GENETIC ALGORITHM DOCKED STATE
	_______________________________________________


Detailed state:  trans -7.637 -18.967 5.449 quatxyzw -0.372943 0.506571 -0.777366 -0.001294 center 0.015 0.083 0.031 ntor 6 -72.4673 -77.8137 -72.2307 -10.9998 -90.1559 118.0060
State:	 -7.637 -18.967   5.449  -0.373  0.507 -0.777 -179.852    -72.47  -77.81  -72.23  -11.00  -90.16  118.01

DOCKED: MODEL       42
DOCKED: USER    Run = 42
DOCKED: USER    DPF = D:/Protein_go_brrr/autodock/final/AncB/2_3_BPG/dock.dpf
DOCKED: USER  
DOCKED: USER    Estimated Free Energy of Binding    =  -11.48 kcal/mol  [=(1)+(2)+(3)-(4)]
DOCKED: USER    Estimated Inhibition Constant, Ki   =    3.81 nM (nanomolar)  [Temperature = 298.15 K]
DOCKED: USER    
DOCKED: USER    (1) Final Intermolecular Energy     =  -13.27 kcal/mol
DOCKED: USER        vdW + Hbond + desolv Energy     =   -2.89 kcal/mol
DOCKED: USER        Electrostatic Energy            =  -10.38 kcal/mol
DOCKED: USER    (2) Final Total Internal Energy     =   +2.96 kcal/mol
DOCKED: USER    (3) Torsional Free Energy           =   +1.79 kcal/mol
DOCKED: USER    (4) Unbound System's Energy  [=(2)] =   +2.96 kcal/mol
DOCKED: USER    
DOCKED: USER    
DOCKED: USER    NEWDPF move 2_3_BPG_opt.pdbqt
DOCKED: USER    NEWDPF about 0.015000 0.083000 0.031000
DOCKED: USER    NEWDPF tran0 -7.636506 -18.966807 5.448762
DOCKED: USER    NEWDPF quaternion0 -0.372943 0.506571 -0.777366 -0.001294
DOCKED: USER    NEWDPF axisangle0 -0.372944 0.506571 -0.777367 -179.851700
DOCKED: USER    NEWDPF quat0 -0.372944 0.506571 -0.777367 -179.851700
DOCKED: USER    NEWDPF dihe0 -72.47 -77.81 -72.23 -11.00 -90.16 118.01 
DOCKED: USER  keepresnum = 1 
DOCKED: USER  
DOCKED: REMARK  6 active torsions:
DOCKED: REMARK  status: ('A' for Active; 'I' for Inactive)
DOCKED: REMARK    1  A    between atoms: P_1  and  O_3 
DOCKED: REMARK    2  A    between atoms: P_2  and  O_4 
DOCKED: REMARK    3  A    between atoms: O_3  and  C_13 
DOCKED: REMARK    4  A    between atoms: O_4  and  C_14 
DOCKED: REMARK    5  A    between atoms: C_13  and  C_14 
DOCKED: REMARK    6  A    between atoms: C_13  and  C_15 
DOCKED: USER                              x       y       z     vdW  Elec       q    Type
DOCKED: USER                           _______ _______ _______ _____ _____    ______ ____
DOCKED: ROOT
DOCKED: ATOM      1  C   UNL d   1      -7.042 -18.665   5.375 -0.06 +0.33    +0.193 C 
DOCKED: ENDROOT
DOCKED: BRANCH   1   2
DOCKED: ATOM      2  O   UNL d   1      -6.958 -18.149   4.004 +0.08 -0.93    -0.356 OA
DOCKED: BRANCH   2   3
DOCKED: ATOM      3  P   UNL d   1      -5.569 -18.147   3.124 -0.14 -0.03    -0.014 P 
DOCKED: ATOM      4  O   UNL d   1      -5.677 -19.395   2.234 -0.31 -0.89    -0.577 OA
DOCKED: ATOM      5  O   UNL d   1      -4.408 -18.260   4.111 +0.01 -0.63    -0.577 OA
DOCKED: ATOM      6  O   UNL d   1      -5.539 -16.868   2.294 -0.25 -1.68    -0.638 OA
DOCKED: ENDBRANCH   2   3
DOCKED: ENDBRANCH   1   2
DOCKED: BRANCH   1   7
DOCKED: ATOM      7  C   UNL d   1      -8.524 -19.112   5.656 -0.08 +0.32    +0.201 C 
DOCKED: BRANCH   7   8
DOCKED: ATOM      8  O   UNL d   1      -9.438 -18.061   6.041 -0.24 -0.94    -0.364 OA
DOCKED: BRANCH   8   9
DOCKED: ATOM      9  P   UNL d   1     -10.342 -17.287   4.892 -0.20 -0.03    -0.015 P 
DOCKED: ATOM     10  O   UNL d   1     -11.782 -17.753   5.138 -0.09 -0.76    -0.577 OA
DOCKED: ATOM     11  O   UNL d   1      -9.820 -17.744   3.530 -0.29 -1.17    -0.577 OA
DOCKED: ATOM     12  O   UNL d   1     -10.177 -15.786   5.124 -0.46 -1.68    -0.638 OA
DOCKED: ENDBRANCH   8   9
DOCKED: ENDBRANCH   7   8
DOCKED: ENDBRANCH   1   7
DOCKED: BRANCH   1  13
DOCKED: ATOM     13  C   UNL d   1      -6.653 -17.537   6.402 -0.08 +0.15    +0.073 C 
DOCKED: ATOM     14  O   UNL d   1      -5.993 -16.525   5.976 -0.46 -1.34    -0.547 OA
DOCKED: ATOM     15  O   UNL d   1      -7.079 -17.672   7.605 -0.33 -1.09    -0.547 OA
DOCKED: ENDBRANCH   1  13
DOCKED: TORSDOF 6
DOCKED: TER
DOCKED: ENDMDL
________________________________________________________________________________


	BEGINNING GENETIC ALGORITHM DOCKING 43 of 100
Run: 43 Seed: 394325532 1906532961 [ Run 43 of 100 GA/GALS ]
Beginning LAMARCKIAN GENETIC ALGORITHM (LGA), with a maximum of 25000000 energy evaluations.

Final-Value: -10.085


	FINAL GENETIC ALGORITHM DOCKED STATE
	_______________________________________________


Detailed state:  trans -8.596 -19.305 3.362 quatxyzw 0.429372 -0.104025 -0.254502 -0.860260 center 0.015 0.083 0.031 ntor 6 -32.2816 93.1985 94.2609 39.0613 18.7671 180.0000
State:	 -8.596 -19.305   3.362   0.842 -0.204 -0.499 -61.308    -32.28   93.20   94.26   39.06   18.77  180.00

DOCKED: MODEL       43
DOCKED: USER    Run = 43
DOCKED: USER    DPF = D:/Protein_go_brrr/autodock/final/AncB/2_3_BPG/dock.dpf
DOCKED: USER  
DOCKED: USER    Estimated Free Energy of Binding    =  -10.41 kcal/mol  [=(1)+(2)+(3)-(4)]
DOCKED: USER    Estimated Inhibition Constant, Ki   =   23.41 nM (nanomolar)  [Temperature = 298.15 K]
DOCKED: USER    
DOCKED: USER    (1) Final Intermolecular Energy     =  -12.20 kcal/mol
DOCKED: USER        vdW + Hbond + desolv Energy     =   -2.86 kcal/mol
DOCKED: USER        Electrostatic Energy            =   -9.34 kcal/mol
DOCKED: USER    (2) Final Total Internal Energy     =   +2.11 kcal/mol
DOCKED: USER    (3) Torsional Free Energy           =   +1.79 kcal/mol
DOCKED: USER    (4) Unbound System's Energy  [=(2)] =   +2.11 kcal/mol
DOCKED: USER    
DOCKED: USER    
DOCKED: USER    NEWDPF move 2_3_BPG_opt.pdbqt
DOCKED: USER    NEWDPF about 0.015000 0.083000 0.031000
DOCKED: USER    NEWDPF tran0 -8.596179 -19.305017 3.361912
DOCKED: USER    NEWDPF quaternion0 0.429372 -0.104025 -0.254502 -0.860260
DOCKED: USER    NEWDPF axisangle0 0.842144 -0.204029 -0.499164 -61.308448
DOCKED: USER    NEWDPF quat0 0.842144 -0.204029 -0.499164 -61.308448
DOCKED: USER    NEWDPF dihe0 -32.28 93.20 94.26 39.06 18.77 180.00 
DOCKED: USER  keepresnum = 1 
DOCKED: USER  
DOCKED: REMARK  6 active torsions:
DOCKED: REMARK  status: ('A' for Active; 'I' for Inactive)
DOCKED: REMARK    1  A    between atoms: P_1  and  O_3 
DOCKED: REMARK    2  A    between atoms: P_2  and  O_4 
DOCKED: REMARK    3  A    between atoms: O_3  and  C_13 
DOCKED: REMARK    4  A    between atoms: O_4  and  C_14 
DOCKED: REMARK    5  A    between atoms: C_13  and  C_14 
DOCKED: REMARK    6  A    between atoms: C_13  and  C_15 
DOCKED: USER                              x       y       z     vdW  Elec       q    Type
DOCKED: USER                           _______ _______ _______ _____ _____    ______ ____
DOCKED: ROOT
DOCKED: ATOM      1  C   UNL d   1      -9.239 -19.216   3.195 -0.09 +0.27    +0.193 C 
DOCKED: ENDROOT
DOCKED: BRANCH   1   2
DOCKED: ATOM      2  O   UNL d   1      -9.597 -17.821   3.476 -0.28 -0.76    -0.356 OA
DOCKED: BRANCH   2   3
DOCKED: ATOM      3  P   UNL d   1     -10.269 -17.330   4.894 -0.19 -0.03    -0.014 P 
DOCKED: ATOM      4  O   UNL d   1     -11.784 -17.430   4.655 -0.07 -0.73    -0.577 OA
DOCKED: ATOM      5  O   UNL d   1      -9.831 -15.886   5.126 -0.41 -1.79    -0.577 OA
DOCKED: ATOM      6  O   UNL d   1      -9.811 -18.288   5.989 -0.33 -1.47    -0.638 OA
DOCKED: ENDBRANCH   2   3
DOCKED: ENDBRANCH   1   2
DOCKED: BRANCH   1   7
DOCKED: ATOM      7  C   UNL d   1      -7.677 -19.369   3.302 -0.07 +0.31    +0.201 C 
DOCKED: BRANCH   7   8
DOCKED: ATOM      8  O   UNL d   1      -6.915 -18.148   3.177 -0.28 -1.00    -0.364 OA
DOCKED: BRANCH   8   9
DOCKED: ATOM      9  P   UNL d   1      -5.321 -18.207   2.736 -0.13 -0.03    -0.015 P 
DOCKED: ATOM     10  O   UNL d   1      -4.557 -18.485   4.036 +0.01 -0.64    -0.577 OA
DOCKED: ATOM     11  O   UNL d   1      -4.971 -16.840   2.148 -0.20 -1.20    -0.577 OA
DOCKED: ATOM     12  O   UNL d   1      -5.174 -19.346   1.729 -0.49 -0.98    -0.638 OA
DOCKED: ENDBRANCH   8   9
DOCKED: ENDBRANCH   7   8
DOCKED: ENDBRANCH   1   7
DOCKED: BRANCH   1  13
DOCKED: ATOM     13  C   UNL d   1      -9.685 -19.604   1.735 -0.02 +0.09    +0.073 C 
DOCKED: ATOM     14  O   UNL d   1      -9.873 -18.665   0.884 -0.27 -0.95    -0.547 OA
DOCKED: ATOM     15  O   UNL d   1      -9.772 -20.856   1.466 -0.04 -0.46    -0.547 OA
DOCKED: ENDBRANCH   1  13
DOCKED: TORSDOF 6
DOCKED: TER
DOCKED: ENDMDL
________________________________________________________________________________


	BEGINNING GENETIC ALGORITHM DOCKING 44 of 100
Run: 44 Seed: 1902361117 1486672493 [ Run 44 of 100 GA/GALS ]
Beginning LAMARCKIAN GENETIC ALGORITHM (LGA), with a maximum of 25000000 energy evaluations.

Final-Value: -10.121


	FINAL GENETIC ALGORITHM DOCKED STATE
	_______________________________________________


Detailed state:  trans -9.455 -18.770 2.476 quatxyzw -0.518838 0.610863 0.440872 -0.404087 center 0.015 0.083 0.031 ntor 6 15.7360 -132.2093 12.3170 -1.5767 -32.5100 -28.5555
State:	 -9.455 -18.770   2.476  -0.567  0.668  0.482 -132.332     15.74 -132.21   12.32   -1.58  -32.51  -28.56

DOCKED: MODEL       44
DOCKED: USER    Run = 44
DOCKED: USER    DPF = D:/Protein_go_brrr/autodock/final/AncB/2_3_BPG/dock.dpf
DOCKED: USER  
DOCKED: USER    Estimated Free Energy of Binding    =  -10.30 kcal/mol  [=(1)+(2)+(3)-(4)]
DOCKED: USER    Estimated Inhibition Constant, Ki   =   28.09 nM (nanomolar)  [Temperature = 298.15 K]
DOCKED: USER    
DOCKED: USER    (1) Final Intermolecular Energy     =  -12.09 kcal/mol
DOCKED: USER        vdW + Hbond + desolv Energy     =   -3.06 kcal/mol
DOCKED: USER        Electrostatic Energy            =   -9.03 kcal/mol
DOCKED: USER    (2) Final Total Internal Energy     =   +1.97 kcal/mol
DOCKED: USER    (3) Torsional Free Energy           =   +1.79 kcal/mol
DOCKED: USER    (4) Unbound System's Energy  [=(2)] =   +1.97 kcal/mol
DOCKED: USER    
DOCKED: USER    
DOCKED: USER    NEWDPF move 2_3_BPG_opt.pdbqt
DOCKED: USER    NEWDPF about 0.015000 0.083000 0.031000
DOCKED: USER    NEWDPF tran0 -9.455344 -18.770431 2.476481
DOCKED: USER    NEWDPF quaternion0 -0.518838 0.610863 0.440872 -0.404087
DOCKED: USER    NEWDPF axisangle0 -0.567209 0.667813 0.481975 -132.332193
DOCKED: USER    NEWDPF quat0 -0.567209 0.667813 0.481975 -132.332193
DOCKED: USER    NEWDPF dihe0 15.74 -132.21 12.32 -1.58 -32.51 -28.56 
DOCKED: USER  keepresnum = 1 
DOCKED: USER  
DOCKED: REMARK  6 active torsions:
DOCKED: REMARK  status: ('A' for Active; 'I' for Inactive)
DOCKED: REMARK    1  A    between atoms: P_1  and  O_3 
DOCKED: REMARK    2  A    between atoms: P_2  and  O_4 
DOCKED: REMARK    3  A    between atoms: O_3  and  C_13 
DOCKED: REMARK    4  A    between atoms: O_4  and  C_14 
DOCKED: REMARK    5  A    between atoms: C_13  and  C_14 
DOCKED: REMARK    6  A    between atoms: C_13  and  C_15 
DOCKED: USER                              x       y       z     vdW  Elec       q    Type
DOCKED: USER                           _______ _______ _______ _____ _____    ______ ____
DOCKED: ROOT
DOCKED: ATOM      1  C   UNL d   1      -9.064 -18.541   2.970 -0.11 +0.36    +0.193 C 
DOCKED: ENDROOT
DOCKED: BRANCH   1   2
DOCKED: ATOM      2  O   UNL d   1      -9.736 -18.808   4.247 -0.08 -0.54    -0.356 OA
DOCKED: BRANCH   2   3
DOCKED: ATOM      3  P   UNL d   1      -9.869 -17.691   5.447 -0.04 -0.03    -0.014 P 
DOCKED: ATOM      4  O   UNL d   1     -10.259 -16.394   4.722 -0.67 -1.45    -0.577 OA
DOCKED: ATOM      5  O   UNL d   1      -8.498 -17.574   6.110 -0.04 -1.68    -0.577 OA
DOCKED: ATOM      6  O   UNL d   1     -10.967 -18.152   6.400 -0.45 -1.47    -0.638 OA
DOCKED: ENDBRANCH   2   3
DOCKED: ENDBRANCH   1   2
DOCKED: BRANCH   1   7
DOCKED: ATOM      7  C   UNL d   1      -9.817 -19.322   1.831 -0.04 +0.26    +0.201 C 
DOCKED: BRANCH   7   8
DOCKED: ATOM      8  O   UNL d   1     -10.154 -18.553   0.655 -0.38 -0.58    -0.364 OA
DOCKED: BRANCH   8   9
DOCKED: ATOM      9  P   UNL d   1     -10.251 -19.293  -0.821 -0.03 -0.02    -0.015 P 
DOCKED: ATOM     10  O   UNL d   1     -10.252 -18.149  -1.842 -0.47 -0.80    -0.577 OA
DOCKED: ATOM     11  O   UNL d   1     -11.564 -20.076  -0.841 +0.01 -0.37    -0.577 OA
DOCKED: ATOM     12  O   UNL d   1      -9.020 -20.187  -0.960 -0.36 -0.80    -0.638 OA
DOCKED: ENDBRANCH   8   9
DOCKED: ENDBRANCH   7   8
DOCKED: ENDBRANCH   1   7
DOCKED: BRANCH   1  13
DOCKED: ATOM     13  C   UNL d   1      -7.574 -19.047   3.028 -0.03 +0.13    +0.073 C 
DOCKED: ATOM     14  O   UNL d   1      -7.358 -20.309   3.065 -0.00 -0.61    -0.547 OA
DOCKED: ATOM     15  O   UNL d   1      -6.653 -18.154   2.971 -0.37 -1.44    -0.547 OA
DOCKED: ENDBRANCH   1  13
DOCKED: TORSDOF 6
DOCKED: TER
DOCKED: ENDMDL
________________________________________________________________________________


	BEGINNING GENETIC ALGORITHM DOCKING 45 of 100
Run: 45 Seed: 603439453 844671252 [ Run 45 of 100 GA/GALS ]
Beginning LAMARCKIAN GENETIC ALGORITHM (LGA), with a maximum of 25000000 energy evaluations.

Final-Value: -10.349


	FINAL GENETIC ALGORITHM DOCKED STATE
	_______________________________________________


Detailed state:  trans -7.655 -18.570 5.764 quatxyzw -0.253721 -0.188217 0.552017 0.771672 center 0.015 0.083 0.031 ntor 6 -169.5516 -50.3126 -94.0962 65.1567 -38.8464 145.4993
State:	 -7.655 -18.570   5.764  -0.399 -0.296  0.868 78.992   -169.55  -50.31  -94.10   65.16  -38.85  145.50

DOCKED: MODEL       45
DOCKED: USER    Run = 45
DOCKED: USER    DPF = D:/Protein_go_brrr/autodock/final/AncB/2_3_BPG/dock.dpf
DOCKED: USER  
DOCKED: USER    Estimated Free Energy of Binding    =  -11.09 kcal/mol  [=(1)+(2)+(3)-(4)]
DOCKED: USER    Estimated Inhibition Constant, Ki   =    7.37 nM (nanomolar)  [Temperature = 298.15 K]
DOCKED: USER    
DOCKED: USER    (1) Final Intermolecular Energy     =  -12.88 kcal/mol
DOCKED: USER        vdW + Hbond + desolv Energy     =   -3.41 kcal/mol
DOCKED: USER        Electrostatic Energy            =   -9.47 kcal/mol
DOCKED: USER    (2) Final Total Internal Energy     =   +2.54 kcal/mol
DOCKED: USER    (3) Torsional Free Energy           =   +1.79 kcal/mol
DOCKED: USER    (4) Unbound System's Energy  [=(2)] =   +2.54 kcal/mol
DOCKED: USER    
DOCKED: USER    
DOCKED: USER    NEWDPF move 2_3_BPG_opt.pdbqt
DOCKED: USER    NEWDPF about 0.015000 0.083000 0.031000
DOCKED: USER    NEWDPF tran0 -7.654551 -18.569836 5.763905
DOCKED: USER    NEWDPF quaternion0 -0.253721 -0.188217 0.552017 0.771672
DOCKED: USER    NEWDPF axisangle0 -0.398919 -0.295928 0.867923 78.991536
DOCKED: USER    NEWDPF quat0 -0.398919 -0.295928 0.867923 78.991536
DOCKED: USER    NEWDPF dihe0 -169.55 -50.31 -94.10 65.16 -38.85 145.50 
DOCKED: USER  keepresnum = 1 
DOCKED: USER  
DOCKED: REMARK  6 active torsions:
DOCKED: REMARK  status: ('A' for Active; 'I' for Inactive)
DOCKED: REMARK    1  A    between atoms: P_1  and  O_3 
DOCKED: REMARK    2  A    between atoms: P_2  and  O_4 
DOCKED: REMARK    3  A    between atoms: O_3  and  C_13 
DOCKED: REMARK    4  A    between atoms: O_4  and  C_14 
DOCKED: REMARK    5  A    between atoms: C_13  and  C_14 
DOCKED: REMARK    6  A    between atoms: C_13  and  C_15 
DOCKED: USER                              x       y       z     vdW  Elec       q    Type
DOCKED: USER                           _______ _______ _______ _____ _____    ______ ____
DOCKED: ROOT
DOCKED: ATOM      1  C   UNL d   1      -8.137 -18.264   6.115 -0.08 +0.42    +0.193 C 
DOCKED: ENDROOT
DOCKED: BRANCH   1   2
DOCKED: ATOM      2  O   UNL d   1      -7.723 -16.875   6.347 -0.14 -1.11    -0.356 OA
DOCKED: BRANCH   2   3
DOCKED: ATOM      3  P   UNL d   1      -6.450 -16.460   7.301 -0.20 -0.03    -0.014 P 
DOCKED: ATOM      4  O   UNL d   1      -5.564 -15.585   6.400 -0.58 -0.99    -0.577 OA
DOCKED: ATOM      5  O   UNL d   1      -5.742 -17.753   7.700 -0.01 -0.64    -0.577 OA
DOCKED: ATOM      6  O   UNL d   1      -6.990 -15.671   8.490 -0.52 -1.16    -0.638 OA
DOCKED: ENDBRANCH   2   3
DOCKED: ENDBRANCH   1   2
DOCKED: BRANCH   1   7
DOCKED: ATOM      7  C   UNL d   1      -7.169 -18.909   5.056 -0.05 +0.32    +0.201 C 
DOCKED: BRANCH   7   8
DOCKED: ATOM      8  O   UNL d   1      -7.048 -18.205   3.801 +0.04 -0.96    -0.364 OA
DOCKED: BRANCH   8   9
DOCKED: ATOM      9  P   UNL d   1      -5.595 -18.159   3.011 -0.13 -0.03    -0.015 P 
DOCKED: ATOM     10  O   UNL d   1      -5.582 -19.412   2.128 -0.37 -0.89    -0.577 OA
DOCKED: ATOM     11  O   UNL d   1      -4.505 -18.204   4.082 +0.01 -0.67    -0.577 OA
DOCKED: ATOM     12  O   UNL d   1      -5.570 -16.874   2.185 -0.23 -1.70    -0.638 OA
DOCKED: ENDBRANCH   8   9
DOCKED: ENDBRANCH   7   8
DOCKED: ENDBRANCH   1   7
DOCKED: BRANCH   1  13
DOCKED: ATOM     13  C   UNL d   1      -9.604 -18.302   5.547 -0.15 +0.15    +0.073 C 
DOCKED: ATOM     14  O   UNL d   1     -10.519 -18.856   6.253 -0.53 -0.99    -0.547 OA
DOCKED: ATOM     15  O   UNL d   1      -9.810 -17.713   4.425 -0.48 -1.21    -0.547 OA
DOCKED: ENDBRANCH   1  13
DOCKED: TORSDOF 6
DOCKED: TER
DOCKED: ENDMDL
________________________________________________________________________________


	BEGINNING GENETIC ALGORITHM DOCKING 46 of 100
Run: 46 Seed: 1166686320 2109098482 [ Run 46 of 100 GA/GALS ]
Beginning LAMARCKIAN GENETIC ALGORITHM (LGA), with a maximum of 25000000 energy evaluations.

Final-Value: -8.988


	FINAL GENETIC ALGORITHM DOCKED STATE
	_______________________________________________


Detailed state:  trans -0.237 2.864 -14.406 quatxyzw -0.513335 0.837188 0.181135 0.052861 center 0.015 0.083 0.031 ntor 6 -170.8826 -165.0185 -44.5241 34.7699 3.1998 -52.9580
State:	 -0.237   2.864 -14.406  -0.514  0.838  0.181 173.940   -170.88 -165.02  -44.52   34.77    3.20  -52.96

DOCKED: MODEL       46
DOCKED: USER    Run = 46
DOCKED: USER    DPF = D:/Protein_go_brrr/autodock/final/AncB/2_3_BPG/dock.dpf
DOCKED: USER  
DOCKED: USER    Estimated Free Energy of Binding    =   -9.20 kcal/mol  [=(1)+(2)+(3)-(4)]
DOCKED: USER    Estimated Inhibition Constant, Ki   =  180.68 nM (nanomolar)  [Temperature = 298.15 K]
DOCKED: USER    
DOCKED: USER    (1) Final Intermolecular Energy     =  -10.99 kcal/mol
DOCKED: USER        vdW + Hbond + desolv Energy     =   -4.26 kcal/mol
DOCKED: USER        Electrostatic Energy            =   -6.73 kcal/mol
DOCKED: USER    (2) Final Total Internal Energy     =   +2.00 kcal/mol
DOCKED: USER    (3) Torsional Free Energy           =   +1.79 kcal/mol
DOCKED: USER    (4) Unbound System's Energy  [=(2)] =   +2.00 kcal/mol
DOCKED: USER    
DOCKED: USER    
DOCKED: USER    NEWDPF move 2_3_BPG_opt.pdbqt
DOCKED: USER    NEWDPF about 0.015000 0.083000 0.031000
DOCKED: USER    NEWDPF tran0 -0.237097 2.864420 -14.406076
DOCKED: USER    NEWDPF quaternion0 -0.513335 0.837188 0.181135 0.052861
DOCKED: USER    NEWDPF axisangle0 -0.514054 0.838360 0.181388 173.939760
DOCKED: USER    NEWDPF quat0 -0.514054 0.838360 0.181388 173.939760
DOCKED: USER    NEWDPF dihe0 -170.88 -165.02 -44.52 34.77 3.20 -52.96 
DOCKED: USER  keepresnum = 1 
DOCKED: USER  
DOCKED: REMARK  6 active torsions:
DOCKED: REMARK  status: ('A' for Active; 'I' for Inactive)
DOCKED: REMARK    1  A    between atoms: P_1  and  O_3 
DOCKED: REMARK    2  A    between atoms: P_2  and  O_4 
DOCKED: REMARK    3  A    between atoms: O_3  and  C_13 
DOCKED: REMARK    4  A    between atoms: O_4  and  C_14 
DOCKED: REMARK    5  A    between atoms: C_13  and  C_14 
DOCKED: REMARK    6  A    between atoms: C_13  and  C_15 
DOCKED: USER                              x       y       z     vdW  Elec       q    Type
DOCKED: USER                           _______ _______ _______ _____ _____    ______ ____
DOCKED: ROOT
DOCKED: ATOM      1  C   UNL d   1       0.273   3.275 -14.547 -0.21 +0.19    +0.193 C 
DOCKED: ENDROOT
DOCKED: BRANCH   1   2
DOCKED: ATOM      2  O   UNL d   1       0.270   4.363 -13.562 -0.87 -0.41    -0.356 OA
DOCKED: BRANCH   2   3
DOCKED: ATOM      3  P   UNL d   1      -0.400   5.837 -13.848 -0.49 -0.02    -0.014 P 
DOCKED: ATOM      4  O   UNL d   1      -1.190   5.653 -15.153 -0.31 -1.09    -0.577 OA
DOCKED: ATOM      5  O   UNL d   1       0.748   6.830 -14.021 -0.15 -0.42    -0.577 OA
DOCKED: ATOM      6  O   UNL d   1      -1.321   6.171 -12.678 -0.36 -0.92    -0.638 OA
DOCKED: ENDBRANCH   2   3
DOCKED: ENDBRANCH   1   2
DOCKED: BRANCH   1   7
DOCKED: ATOM      7  C   UNL d   1      -0.723   2.156 -14.067 -0.17 +0.23    +0.201 C 
DOCKED: BRANCH   7   8
DOCKED: ATOM      8  O   UNL d   1      -1.968   2.066 -14.795 -0.18 -0.57    -0.364 OA
DOCKED: BRANCH   8   9
DOCKED: ATOM      9  P   UNL d   1      -3.155   1.034 -14.283 -0.20 -0.02    -0.015 P 
DOCKED: ATOM     10  O   UNL d   1      -4.460   1.825 -14.425 -0.58 -1.03    -0.577 OA
DOCKED: ATOM     11  O   UNL d   1      -2.850   0.691 -12.825 -0.05 -0.84    -0.577 OA
DOCKED: ATOM     12  O   UNL d   1      -3.119  -0.185 -15.204 -0.32 -1.34    -0.638 OA
DOCKED: ENDBRANCH   8   9
DOCKED: ENDBRANCH   7   8
DOCKED: ENDBRANCH   1   7
DOCKED: BRANCH   1  13
DOCKED: ATOM     13  C   UNL d   1       1.715   2.653 -14.659 -0.25 +0.04    +0.073 C 
DOCKED: ATOM     14  O   UNL d   1       2.331   2.735 -15.779 -0.01 -0.28    -0.547 OA
DOCKED: ATOM     15  O   UNL d   1       2.217   2.151 -13.589 -0.10 -0.26    -0.547 OA
DOCKED: ENDBRANCH   1  13
DOCKED: TORSDOF 6
DOCKED: TER
DOCKED: ENDMDL
________________________________________________________________________________


	BEGINNING GENETIC ALGORITHM DOCKING 47 of 100
Run: 47 Seed: 909899376 550250600 [ Run 47 of 100 GA/GALS ]
Beginning LAMARCKIAN GENETIC ALGORITHM (LGA), with a maximum of 25000000 energy evaluations.

Final-Value: -10.294


	FINAL GENETIC ALGORITHM DOCKED STATE
	_______________________________________________


Detailed state:  trans -8.247 -18.733 6.046 quatxyzw -0.610512 -0.344783 -0.230761 -0.674648 center 0.015 0.083 0.031 ntor 6 30.1247 -93.0901 0.8874 34.4115 -117.9214 -65.6967
State:	 -8.247 -18.733   6.046  -0.827 -0.467 -0.313 -95.146     30.12  -93.09    0.89   34.41 -117.92  -65.70

DOCKED: MODEL       47
DOCKED: USER    Run = 47
DOCKED: USER    DPF = D:/Protein_go_brrr/autodock/final/AncB/2_3_BPG/dock.dpf
DOCKED: USER  
DOCKED: USER    Estimated Free Energy of Binding    =  -10.92 kcal/mol  [=(1)+(2)+(3)-(4)]
DOCKED: USER    Estimated Inhibition Constant, Ki   =    9.84 nM (nanomolar)  [Temperature = 298.15 K]
DOCKED: USER    
DOCKED: USER    (1) Final Intermolecular Energy     =  -12.71 kcal/mol
DOCKED: USER        vdW + Hbond + desolv Energy     =   -2.58 kcal/mol
DOCKED: USER        Electrostatic Energy            =  -10.13 kcal/mol
DOCKED: USER    (2) Final Total Internal Energy     =   +2.42 kcal/mol
DOCKED: USER    (3) Torsional Free Energy           =   +1.79 kcal/mol
DOCKED: USER    (4) Unbound System's Energy  [=(2)] =   +2.42 kcal/mol
DOCKED: USER    
DOCKED: USER    
DOCKED: USER    NEWDPF move 2_3_BPG_opt.pdbqt
DOCKED: USER    NEWDPF about 0.015000 0.083000 0.031000
DOCKED: USER    NEWDPF tran0 -8.246738 -18.732830 6.046031
DOCKED: USER    NEWDPF quaternion0 -0.610512 -0.344783 -0.230761 -0.674648
DOCKED: USER    NEWDPF axisangle0 -0.827095 -0.467097 -0.312625 -95.146386
DOCKED: USER    NEWDPF quat0 -0.827095 -0.467097 -0.312625 -95.146386
DOCKED: USER    NEWDPF dihe0 30.12 -93.09 0.89 34.41 -117.92 -65.70 
DOCKED: USER  keepresnum = 1 
DOCKED: USER  
DOCKED: REMARK  6 active torsions:
DOCKED: REMARK  status: ('A' for Active; 'I' for Inactive)
DOCKED: REMARK    1  A    between atoms: P_1  and  O_3 
DOCKED: REMARK    2  A    between atoms: P_2  and  O_4 
DOCKED: REMARK    3  A    between atoms: O_3  and  C_13 
DOCKED: REMARK    4  A    between atoms: O_4  and  C_14 
DOCKED: REMARK    5  A    between atoms: C_13  and  C_14 
DOCKED: REMARK    6  A    between atoms: C_13  and  C_15 
DOCKED: USER                              x       y       z     vdW  Elec       q    Type
DOCKED: USER                           _______ _______ _______ _____ _____    ______ ____
DOCKED: ROOT
DOCKED: ATOM      1  C   UNL d   1      -8.877 -18.752   5.817 -0.10 +0.36    +0.193 C 
DOCKED: ENDROOT
DOCKED: BRANCH   1   2
DOCKED: ATOM      2  O   UNL d   1      -8.863 -19.381   4.492 -0.03 -0.49    -0.356 OA
DOCKED: BRANCH   2   3
DOCKED: ATOM      3  P   UNL d   1      -8.870 -18.526   3.087 -0.12 -0.03    -0.014 P 
DOCKED: ATOM      4  O   UNL d   1      -7.397 -18.148   2.861 -0.08 -1.62    -0.577 OA
DOCKED: ATOM      5  O   UNL d   1      -9.738 -17.291   3.313 -0.23 -1.37    -0.577 OA
DOCKED: ATOM      6  O   UNL d   1      -9.389 -19.440   1.982 -0.12 -0.89    -0.638 OA
DOCKED: ENDBRANCH   2   3
DOCKED: ENDBRANCH   1   2
DOCKED: BRANCH   1   7
DOCKED: ATOM      7  C   UNL d   1      -7.469 -18.960   6.489 -0.07 +0.30    +0.201 C 
DOCKED: BRANCH   7   8
DOCKED: ATOM      8  O   UNL d   1      -6.518 -17.888   6.305 -0.12 -0.64    -0.364 OA
DOCKED: BRANCH   8   9
DOCKED: ATOM      9  P   UNL d   1      -6.811 -16.397   6.959 -0.05 -0.03    -0.015 P 
DOCKED: ATOM     10  O   UNL d   1      -5.642 -15.521   6.493 -0.51 -0.98    -0.577 OA
DOCKED: ATOM     11  O   UNL d   1      -6.824 -16.571   8.477 -0.60 -1.06    -0.577 OA
DOCKED: ATOM     12  O   UNL d   1      -8.149 -15.914   6.400 +0.11 -2.19    -0.638 OA
DOCKED: ENDBRANCH   8   9
DOCKED: ENDBRANCH   7   8
DOCKED: ENDBRANCH   1   7
DOCKED: BRANCH   1  13
DOCKED: ATOM     13  C   UNL d   1      -9.973 -19.427   6.723 -0.05 +0.12    +0.073 C 
DOCKED: ATOM     14  O   UNL d   1      -9.673 -20.506   7.345 -0.02 -0.54    -0.547 OA
DOCKED: ATOM     15  O   UNL d   1     -11.095 -18.812   6.836 -0.62 -1.05    -0.547 OA
DOCKED: ENDBRANCH   1  13
DOCKED: TORSDOF 6
DOCKED: TER
DOCKED: ENDMDL
________________________________________________________________________________


	BEGINNING GENETIC ALGORITHM DOCKING 48 of 100
Run: 48 Seed: 1904517665 341914632 [ Run 48 of 100 GA/GALS ]
Beginning LAMARCKIAN GENETIC ALGORITHM (LGA), with a maximum of 25000000 energy evaluations.

Final-Value: -10.318


	FINAL GENETIC ALGORITHM DOCKED STATE
	_______________________________________________


Detailed state:  trans -7.742 -19.521 3.706 quatxyzw -0.292429 -0.113168 0.228228 0.921732 center 0.015 0.083 0.031 ntor 6 -171.7005 15.7363 -94.3042 26.9851 -28.8855 179.9877
State:	 -7.742 -19.521   3.706  -0.754 -0.292  0.588 45.639   -171.70   15.74  -94.30   26.99  -28.89  179.99

DOCKED: MODEL       48
DOCKED: USER    Run = 48
DOCKED: USER    DPF = D:/Protein_go_brrr/autodock/final/AncB/2_3_BPG/dock.dpf
DOCKED: USER  
DOCKED: USER    Estimated Free Energy of Binding    =  -10.74 kcal/mol  [=(1)+(2)+(3)-(4)]
DOCKED: USER    Estimated Inhibition Constant, Ki   =   13.39 nM (nanomolar)  [Temperature = 298.15 K]
DOCKED: USER    
DOCKED: USER    (1) Final Intermolecular Energy     =  -12.53 kcal/mol
DOCKED: USER        vdW + Hbond + desolv Energy     =   -2.74 kcal/mol
DOCKED: USER        Electrostatic Energy            =   -9.79 kcal/mol
DOCKED: USER    (2) Final Total Internal Energy     =   +2.21 kcal/mol
DOCKED: USER    (3) Torsional Free Energy           =   +1.79 kcal/mol
DOCKED: USER    (4) Unbound System's Energy  [=(2)] =   +2.21 kcal/mol
DOCKED: USER    
DOCKED: USER    
DOCKED: USER    NEWDPF move 2_3_BPG_opt.pdbqt
DOCKED: USER    NEWDPF about 0.015000 0.083000 0.031000
DOCKED: USER    NEWDPF tran0 -7.742073 -19.521004 3.705579
DOCKED: USER    NEWDPF quaternion0 -0.292429 -0.113168 0.228228 0.921732
DOCKED: USER    NEWDPF axisangle0 -0.754019 -0.291801 0.588480 45.638741
DOCKED: USER    NEWDPF quat0 -0.754019 -0.291801 0.588480 45.638741
DOCKED: USER    NEWDPF dihe0 -171.70 15.74 -94.30 26.99 -28.89 179.99 
DOCKED: USER  keepresnum = 1 
DOCKED: USER  
DOCKED: REMARK  6 active torsions:
DOCKED: REMARK  status: ('A' for Active; 'I' for Inactive)
DOCKED: REMARK    1  A    between atoms: P_1  and  O_3 
DOCKED: REMARK    2  A    between atoms: P_2  and  O_4 
DOCKED: REMARK    3  A    between atoms: O_3  and  C_13 
DOCKED: REMARK    4  A    between atoms: O_4  and  C_14 
DOCKED: REMARK    5  A    between atoms: C_13  and  C_14 
DOCKED: REMARK    6  A    between atoms: C_13  and  C_15 
DOCKED: USER                              x       y       z     vdW  Elec       q    Type
DOCKED: USER                           _______ _______ _______ _____ _____    ______ ____
DOCKED: ROOT
DOCKED: ATOM      1  C   UNL d   1      -8.397 -19.594   3.829 -0.07 +0.26    +0.193 C 
DOCKED: ENDROOT
DOCKED: BRANCH   1   2
DOCKED: ATOM      2  O   UNL d   1      -8.970 -18.264   4.060 -0.18 -0.78    -0.356 OA
DOCKED: BRANCH   2   3
DOCKED: ATOM      3  P   UNL d   1      -9.395 -17.710   5.550 +0.03 -0.04    -0.014 P 
DOCKED: ATOM      4  O   UNL d   1     -10.205 -16.436   5.268 -0.55 -1.54    -0.577 OA
DOCKED: ATOM      5  O   UNL d   1      -8.102 -17.400   6.302 -0.06 -1.69    -0.577 OA
DOCKED: ATOM      6  O   UNL d   1     -10.249 -18.779   6.224 -0.48 -1.25    -0.638 OA
DOCKED: ENDBRANCH   2   3
DOCKED: ENDBRANCH   1   2
DOCKED: BRANCH   1   7
DOCKED: ATOM      7  C   UNL d   1      -6.942 -19.424   3.256 -0.07 +0.30    +0.201 C 
DOCKED: BRANCH   7   8
DOCKED: ATOM      8  O   UNL d   1      -6.646 -18.144   2.656 -0.30 -0.96    -0.364 OA
DOCKED: BRANCH   8   9
DOCKED: ATOM      9  P   UNL d   1      -5.087 -17.592   2.602 -0.17 -0.03    -0.015 P 
DOCKED: ATOM     10  O   UNL d   1      -4.506 -18.164   1.303 -0.47 -1.03    -0.577 OA
DOCKED: ATOM     11  O   UNL d   1      -4.376 -18.145   3.837 +0.00 -0.66    -0.577 OA
DOCKED: ATOM     12  O   UNL d   1      -5.149 -16.066   2.581 -0.16 -1.39    -0.638 OA
DOCKED: ENDBRANCH   8   9
DOCKED: ENDBRANCH   7   8
DOCKED: ENDBRANCH   1   7
DOCKED: BRANCH   1  13
DOCKED: ATOM     13  C   UNL d   1      -9.264 -20.380   2.776 -0.05 +0.07    +0.073 C 
DOCKED: ATOM     14  O   UNL d   1      -9.833 -21.468   3.142 +0.02 -0.35    -0.547 OA
DOCKED: ATOM     15  O   UNL d   1      -9.402 -19.843   1.618 -0.23 -0.71    -0.547 OA
DOCKED: ENDBRANCH   1  13
DOCKED: TORSDOF 6
DOCKED: TER
DOCKED: ENDMDL
________________________________________________________________________________


	BEGINNING GENETIC ALGORITHM DOCKING 49 of 100
Run: 49 Seed: 1103828586 1164709973 [ Run 49 of 100 GA/GALS ]
Beginning LAMARCKIAN GENETIC ALGORITHM (LGA), with a maximum of 25000000 energy evaluations.

Final-Value: -10.630


	FINAL GENETIC ALGORITHM DOCKED STATE
	_______________________________________________


Detailed state:  trans -7.018 -18.729 5.426 quatxyzw -0.157121 -0.324030 0.634059 0.684315 center 0.015 0.083 0.031 ntor 6 171.8128 80.9942 128.7570 -32.8027 -44.5245 -180.0000
State:	 -7.018 -18.729   5.426  -0.215 -0.444  0.870 93.637    171.81   80.99  128.76  -32.80  -44.52 -180.00

DOCKED: MODEL       49
DOCKED: USER    Run = 49
DOCKED: USER    DPF = D:/Protein_go_brrr/autodock/final/AncB/2_3_BPG/dock.dpf
DOCKED: USER  
DOCKED: USER    Estimated Free Energy of Binding    =  -11.24 kcal/mol  [=(1)+(2)+(3)-(4)]
DOCKED: USER    Estimated Inhibition Constant, Ki   =    5.73 nM (nanomolar)  [Temperature = 298.15 K]
DOCKED: USER    
DOCKED: USER    (1) Final Intermolecular Energy     =  -13.03 kcal/mol
DOCKED: USER        vdW + Hbond + desolv Energy     =   -3.00 kcal/mol
DOCKED: USER        Electrostatic Energy            =  -10.03 kcal/mol
DOCKED: USER    (2) Final Total Internal Energy     =   +2.40 kcal/mol
DOCKED: USER    (3) Torsional Free Energy           =   +1.79 kcal/mol
DOCKED: USER    (4) Unbound System's Energy  [=(2)] =   +2.40 kcal/mol
DOCKED: USER    
DOCKED: USER    
DOCKED: USER    NEWDPF move 2_3_BPG_opt.pdbqt
DOCKED: USER    NEWDPF about 0.015000 0.083000 0.031000
DOCKED: USER    NEWDPF tran0 -7.017819 -18.728738 5.426186
DOCKED: USER    NEWDPF quaternion0 -0.157121 -0.324030 0.634059 0.684315
DOCKED: USER    NEWDPF axisangle0 -0.215475 -0.444372 0.869542 93.636546
DOCKED: USER    NEWDPF quat0 -0.215475 -0.444372 0.869542 93.636546
DOCKED: USER    NEWDPF dihe0 171.81 80.99 128.76 -32.80 -44.52 -180.00 
DOCKED: USER  keepresnum = 1 
DOCKED: USER  
DOCKED: REMARK  6 active torsions:
DOCKED: REMARK  status: ('A' for Active; 'I' for Inactive)
DOCKED: REMARK    1  A    between atoms: P_1  and  O_3 
DOCKED: REMARK    2  A    between atoms: P_2  and  O_4 
DOCKED: REMARK    3  A    between atoms: O_3  and  C_13 
DOCKED: REMARK    4  A    between atoms: O_4  and  C_14 
DOCKED: REMARK    5  A    between atoms: C_13  and  C_14 
DOCKED: REMARK    6  A    between atoms: C_13  and  C_15 
DOCKED: USER                              x       y       z     vdW  Elec       q    Type
DOCKED: USER                           _______ _______ _______ _____ _____    ______ ____
DOCKED: ROOT
DOCKED: ATOM      1  C   UNL d   1      -7.289 -18.384   5.933 -0.08 +0.36    +0.193 C 
DOCKED: ENDROOT
DOCKED: BRANCH   1   2
DOCKED: ATOM      2  O   UNL d   1      -6.658 -17.060   5.975 -0.19 -0.95    -0.356 OA
DOCKED: BRANCH   2   3
DOCKED: ATOM      3  P   UNL d   1      -6.776 -16.044   7.263 -0.17 -0.03    -0.014 P 
DOCKED: ATOM      4  O   UNL d   1      -7.809 -14.993   6.828 -0.16 -1.46    -0.577 OA
DOCKED: ATOM      5  O   UNL d   1      -5.398 -15.422   7.477 -0.03 -0.65    -0.577 OA
DOCKED: ATOM      6  O   UNL d   1      -7.270 -16.853   8.458 -0.36 -1.60    -0.638 OA
DOCKED: ENDBRANCH   2   3
DOCKED: ENDBRANCH   1   2
DOCKED: BRANCH   1   7
DOCKED: ATOM      7  C   UNL d   1      -6.883 -19.094   4.589 -0.06 +0.30    +0.201 C 
DOCKED: BRANCH   7   8
DOCKED: ATOM      8  O   UNL d   1      -6.425 -18.225   3.530 -0.26 -0.86    -0.364 OA
DOCKED: BRANCH   8   9
DOCKED: ATOM      9  P   UNL d   1      -5.129 -18.663   2.600 -0.15 -0.02    -0.015 P 
DOCKED: ATOM     10  O   UNL d   1      -4.043 -19.081   3.600 +0.02 -0.49    -0.577 OA
DOCKED: ATOM     11  O   UNL d   1      -4.720 -17.430   1.795 -0.25 -1.12    -0.577 OA
DOCKED: ATOM     12  O   UNL d   1      -5.578 -19.829   1.721 -0.45 -0.93    -0.638 OA
DOCKED: ENDBRANCH   8   9
DOCKED: ENDBRANCH   7   8
DOCKED: ENDBRANCH   1   7
DOCKED: BRANCH   1  13
DOCKED: ATOM     13  C   UNL d   1      -8.856 -18.236   5.971 -0.07 +0.17    +0.073 C 
DOCKED: ATOM     14  O   UNL d   1      -9.523 -18.997   6.757 -0.37 -1.13    -0.547 OA
DOCKED: ATOM     15  O   UNL d   1      -9.371 -17.307   5.250 -0.43 -1.62    -0.547 OA
DOCKED: ENDBRANCH   1  13
DOCKED: TORSDOF 6
DOCKED: TER
DOCKED: ENDMDL
________________________________________________________________________________


	BEGINNING GENETIC ALGORITHM DOCKING 50 of 100
Run: 50 Seed: 1622000891 509515005 [ Run 50 of 100 GA/GALS ]
Beginning LAMARCKIAN GENETIC ALGORITHM (LGA), with a maximum of 25000000 energy evaluations.

Final-Value: -9.261


	FINAL GENETIC ALGORITHM DOCKED STATE
	_______________________________________________


Detailed state:  trans -1.705 1.331 -13.829 quatxyzw -0.103652 -0.160395 -0.438739 0.878087 center 0.015 0.083 0.031 ntor 6 133.5656 -6.4972 79.5035 34.4264 -20.6367 -44.5635
State:	 -1.705   1.331 -13.829  -0.217 -0.335 -0.917 57.175    133.57   -6.50   79.50   34.43  -20.64  -44.56

DOCKED: MODEL       50
DOCKED: USER    Run = 50
DOCKED: USER    DPF = D:/Protein_go_brrr/autodock/final/AncB/2_3_BPG/dock.dpf
DOCKED: USER  
DOCKED: USER    Estimated Free Energy of Binding    =   -9.45 kcal/mol  [=(1)+(2)+(3)-(4)]
DOCKED: USER    Estimated Inhibition Constant, Ki   =  119.10 nM (nanomolar)  [Temperature = 298.15 K]
DOCKED: USER    
DOCKED: USER    (1) Final Intermolecular Energy     =  -11.24 kcal/mol
DOCKED: USER        vdW + Hbond + desolv Energy     =   -3.86 kcal/mol
DOCKED: USER        Electrostatic Energy            =   -7.37 kcal/mol
DOCKED: USER    (2) Final Total Internal Energy     =   +1.97 kcal/mol
DOCKED: USER    (3) Torsional Free Energy           =   +1.79 kcal/mol
DOCKED: USER    (4) Unbound System's Energy  [=(2)] =   +1.97 kcal/mol
DOCKED: USER    
DOCKED: USER    
DOCKED: USER    NEWDPF move 2_3_BPG_opt.pdbqt
DOCKED: USER    NEWDPF about 0.015000 0.083000 0.031000
DOCKED: USER    NEWDPF tran0 -1.704801 1.330663 -13.828916
DOCKED: USER    NEWDPF quaternion0 -0.103652 -0.160395 -0.438739 0.878087
DOCKED: USER    NEWDPF axisangle0 -0.216619 -0.335204 -0.916905 57.175008
DOCKED: USER    NEWDPF quat0 -0.216619 -0.335204 -0.916905 57.175008
DOCKED: USER    NEWDPF dihe0 133.57 -6.50 79.50 34.43 -20.64 -44.56 
DOCKED: USER  keepresnum = 1 
DOCKED: USER  
DOCKED: REMARK  6 active torsions:
DOCKED: REMARK  status: ('A' for Active; 'I' for Inactive)
DOCKED: REMARK    1  A    between atoms: P_1  and  O_3 
DOCKED: REMARK    2  A    between atoms: P_2  and  O_4 
DOCKED: REMARK    3  A    between atoms: O_3  and  C_13 
DOCKED: REMARK    4  A    between atoms: O_4  and  C_14 
DOCKED: REMARK    5  A    between atoms: C_13  and  C_14 
DOCKED: REMARK    6  A    between atoms: C_13  and  C_15 
DOCKED: USER                              x       y       z     vdW  Elec       q    Type
DOCKED: USER                           _______ _______ _______ _____ _____    ______ ____
DOCKED: ROOT
DOCKED: ATOM      1  C   UNL d   1      -1.770   0.671 -13.732 -0.16 +0.26    +0.193 C 
DOCKED: ENDROOT
DOCKED: BRANCH   1   2
DOCKED: ATOM      2  O   UNL d   1      -3.190   0.327 -13.870 -0.15 -0.66    -0.356 OA
DOCKED: BRANCH   2   3
DOCKED: ATOM      3  P   UNL d   1      -4.205   0.148 -12.588 -0.20 -0.02    -0.014 P 
DOCKED: ATOM      4  O   UNL d   1      -5.605   0.065 -13.216 -0.00 -0.74    -0.577 OA
DOCKED: ATOM      5  O   UNL d   1      -4.053   1.391 -11.714 -0.03 -0.65    -0.577 OA
DOCKED: ATOM      6  O   UNL d   1      -3.835  -1.147 -11.872 -0.40 -1.39    -0.638 OA
DOCKED: ENDBRANCH   2   3
DOCKED: ENDBRANCH   1   2
DOCKED: BRANCH   1   7
DOCKED: ATOM      7  C   UNL d   1      -1.556   2.144 -14.239 -0.15 +0.29    +0.201 C 
DOCKED: BRANCH   7   8
DOCKED: ATOM      8  O   UNL d   1      -1.140   3.101 -13.239 -0.48 -0.57    -0.364 OA
DOCKED: BRANCH   8   9
DOCKED: ATOM      9  P   UNL d   1      -0.471   4.542 -13.698 -0.27 -0.02    -0.015 P 
DOCKED: ATOM     10  O   UNL d   1       1.044   4.336 -13.575 -0.50 -0.50    -0.577 OA
DOCKED: ATOM     11  O   UNL d   1      -0.983   5.602 -12.723 -0.55 -0.86    -0.577 OA
DOCKED: ATOM     12  O   UNL d   1      -0.900   4.800 -15.142 -0.34 -1.11    -0.638 OA
DOCKED: ENDBRANCH   8   9
DOCKED: ENDBRANCH   7   8
DOCKED: ENDBRANCH   1   7
DOCKED: BRANCH   1  13
DOCKED: ATOM     13  C   UNL d   1      -0.893  -0.297 -14.610 -0.15 +0.09    +0.073 C 
DOCKED: ATOM     14  O   UNL d   1       0.382  -0.234 -14.501 -0.01 -0.43    -0.547 OA
DOCKED: ATOM     15  O   UNL d   1      -1.518  -1.146 -15.343 -0.46 -1.07    -0.547 OA
DOCKED: ENDBRANCH   1  13
DOCKED: TORSDOF 6
DOCKED: TER
DOCKED: ENDMDL
________________________________________________________________________________


	BEGINNING GENETIC ALGORITHM DOCKING 51 of 100
Run: 51 Seed: 22603506 1982947353 [ Run 51 of 100 GA/GALS ]
Beginning LAMARCKIAN GENETIC ALGORITHM (LGA), with a maximum of 25000000 energy evaluations.

Final-Value: -10.300


	FINAL GENETIC ALGORITHM DOCKED STATE
	_______________________________________________


Detailed state:  trans -6.793 -18.340 6.123 quatxyzw -0.473331 0.181573 -0.112836 0.854551 center 0.015 0.083 0.031 ntor 6 -21.0326 43.7835 77.8463 -20.6866 -96.4612 169.8670
State:	 -6.793 -18.340   6.123  -0.911  0.350 -0.217 62.580    -21.03   43.78   77.85  -20.69  -96.46  169.87

DOCKED: MODEL       51
DOCKED: USER    Run = 51
DOCKED: USER    DPF = D:/Protein_go_brrr/autodock/final/AncB/2_3_BPG/dock.dpf
DOCKED: USER  
DOCKED: USER    Estimated Free Energy of Binding    =  -11.53 kcal/mol  [=(1)+(2)+(3)-(4)]
DOCKED: USER    Estimated Inhibition Constant, Ki   =    3.52 nM (nanomolar)  [Temperature = 298.15 K]
DOCKED: USER    
DOCKED: USER    (1) Final Intermolecular Energy     =  -13.32 kcal/mol
DOCKED: USER        vdW + Hbond + desolv Energy     =   -2.97 kcal/mol
DOCKED: USER        Electrostatic Energy            =  -10.35 kcal/mol
DOCKED: USER    (2) Final Total Internal Energy     =   +3.02 kcal/mol
DOCKED: USER    (3) Torsional Free Energy           =   +1.79 kcal/mol
DOCKED: USER    (4) Unbound System's Energy  [=(2)] =   +3.02 kcal/mol
DOCKED: USER    
DOCKED: USER    
DOCKED: USER    NEWDPF move 2_3_BPG_opt.pdbqt
DOCKED: USER    NEWDPF about 0.015000 0.083000 0.031000
DOCKED: USER    NEWDPF tran0 -6.793152 -18.340229 6.122949
DOCKED: USER    NEWDPF quaternion0 -0.473331 0.181573 -0.112836 0.854551
DOCKED: USER    NEWDPF axisangle0 -0.911360 0.349604 -0.217256 62.579660
DOCKED: USER    NEWDPF quat0 -0.911360 0.349604 -0.217256 62.579660
DOCKED: USER    NEWDPF dihe0 -21.03 43.78 77.85 -20.69 -96.46 169.87 
DOCKED: USER  keepresnum = 1 
DOCKED: USER  
DOCKED: REMARK  6 active torsions:
DOCKED: REMARK  status: ('A' for Active; 'I' for Inactive)
DOCKED: REMARK    1  A    between atoms: P_1  and  O_3 
DOCKED: REMARK    2  A    between atoms: P_2  and  O_4 
DOCKED: REMARK    3  A    between atoms: O_3  and  C_13 
DOCKED: REMARK    4  A    between atoms: O_4  and  C_14 
DOCKED: REMARK    5  A    between atoms: C_13  and  C_14 
DOCKED: REMARK    6  A    between atoms: C_13  and  C_15 
DOCKED: USER                              x       y       z     vdW  Elec       q    Type
DOCKED: USER                           _______ _______ _______ _____ _____    ______ ____
DOCKED: ROOT
DOCKED: ATOM      1  C   UNL d   1      -7.231 -18.596   5.684 -0.07 +0.33    +0.193 C 
DOCKED: ENDROOT
DOCKED: BRANCH   1   2
DOCKED: ATOM      2  O   UNL d   1      -8.345 -17.651   5.546 -0.05 -1.02    -0.356 OA
DOCKED: BRANCH   2   3
DOCKED: ATOM      3  P   UNL d   1      -9.867 -18.106   5.121 -0.22 -0.03    -0.014 P 
DOCKED: ATOM      4  O   UNL d   1     -10.346 -16.998   4.170 -0.54 -1.23    -0.577 OA
DOCKED: ATOM      5  O   UNL d   1     -10.701 -18.149   6.400 -0.41 -1.46    -0.577 OA
DOCKED: ATOM      6  O   UNL d   1      -9.775 -19.452   4.410 +0.03 -0.77    -0.638 OA
DOCKED: ENDBRANCH   2   3
DOCKED: ENDBRANCH   1   2
DOCKED: BRANCH   1   7
DOCKED: ATOM      7  C   UNL d   1      -6.067 -17.892   6.474 -0.06 +0.30    +0.201 C 
DOCKED: BRANCH   7   8
DOCKED: ATOM      8  O   UNL d   1      -5.961 -16.462   6.300 -0.58 -0.77    -0.364 OA
DOCKED: BRANCH   8   9
DOCKED: ATOM      9  P   UNL d   1      -6.843 -15.441   7.258 -0.28 -0.03    -0.015 P 
DOCKED: ATOM     10  O   UNL d   1      -8.047 -15.031   6.402 -0.02 -1.63    -0.577 OA
DOCKED: ATOM     11  O   UNL d   1      -5.943 -14.250   7.587 -0.06 -0.62    -0.577 OA
DOCKED: ATOM     12  O   UNL d   1      -7.262 -16.234   8.495 -0.41 -1.55    -0.638 OA
DOCKED: ENDBRANCH   8   9
DOCKED: ENDBRANCH   7   8
DOCKED: ENDBRANCH   1   7
DOCKED: BRANCH   1  13
DOCKED: ATOM     13  C   UNL d   1      -6.696 -19.011   4.263 -0.10 +0.12    +0.073 C 
DOCKED: ATOM     14  O   UNL d   1      -6.745 -18.149   3.316 -0.21 -1.46    -0.547 OA
DOCKED: ATOM     15  O   UNL d   1      -6.179 -20.181   4.153 +0.02 -0.52    -0.547 OA
DOCKED: ENDBRANCH   1  13
DOCKED: TORSDOF 6
DOCKED: TER
DOCKED: ENDMDL
________________________________________________________________________________


	BEGINNING GENETIC ALGORITHM DOCKING 52 of 100
Run: 52 Seed: 1376608746 322967022 [ Run 52 of 100 GA/GALS ]
Beginning LAMARCKIAN GENETIC ALGORITHM (LGA), with a maximum of 25000000 energy evaluations.

Final-Value: -10.235


	FINAL GENETIC ALGORITHM DOCKED STATE
	_______________________________________________


Detailed state:  trans -8.406 -18.433 5.889 quatxyzw 0.550547 0.373209 0.140078 0.733479 center 0.015 0.083 0.031 ntor 6 -7.8678 156.4943 -118.3901 42.9509 81.7904 2.2002
State:	 -8.406 -18.433   5.889   0.810  0.549  0.206 85.642     -7.87  156.49 -118.39   42.95   81.79    2.20

DOCKED: MODEL       52
DOCKED: USER    Run = 52
DOCKED: USER    DPF = D:/Protein_go_brrr/autodock/final/AncB/2_3_BPG/dock.dpf
DOCKED: USER  
DOCKED: USER    Estimated Free Energy of Binding    =  -10.69 kcal/mol  [=(1)+(2)+(3)-(4)]
DOCKED: USER    Estimated Inhibition Constant, Ki   =   14.61 nM (nanomolar)  [Temperature = 298.15 K]
DOCKED: USER    
DOCKED: USER    (1) Final Intermolecular Energy     =  -12.48 kcal/mol
DOCKED: USER        vdW + Hbond + desolv Energy     =   -2.14 kcal/mol
DOCKED: USER        Electrostatic Energy            =  -10.34 kcal/mol
DOCKED: USER    (2) Final Total Internal Energy     =   +2.24 kcal/mol
DOCKED: USER    (3) Torsional Free Energy           =   +1.79 kcal/mol
DOCKED: USER    (4) Unbound System's Energy  [=(2)] =   +2.24 kcal/mol
DOCKED: USER    
DOCKED: USER    
DOCKED: USER    NEWDPF move 2_3_BPG_opt.pdbqt
DOCKED: USER    NEWDPF about 0.015000 0.083000 0.031000
DOCKED: USER    NEWDPF tran0 -8.406127 -18.432574 5.888667
DOCKED: USER    NEWDPF quaternion0 0.550547 0.373209 0.140078 0.733479
DOCKED: USER    NEWDPF axisangle0 0.809971 0.549069 0.206085 85.642289
DOCKED: USER    NEWDPF quat0 0.809971 0.549069 0.206085 85.642289
DOCKED: USER    NEWDPF dihe0 -7.87 156.49 -118.39 42.95 81.79 2.20 
DOCKED: USER  keepresnum = 1 
DOCKED: USER  
DOCKED: REMARK  6 active torsions:
DOCKED: REMARK  status: ('A' for Active; 'I' for Inactive)
DOCKED: REMARK    1  A    between atoms: P_1  and  O_3 
DOCKED: REMARK    2  A    between atoms: P_2  and  O_4 
DOCKED: REMARK    3  A    between atoms: O_3  and  C_13 
DOCKED: REMARK    4  A    between atoms: O_4  and  C_14 
DOCKED: REMARK    5  A    between atoms: C_13  and  C_14 
DOCKED: REMARK    6  A    between atoms: C_13  and  C_15 
DOCKED: USER                              x       y       z     vdW  Elec       q    Type
DOCKED: USER                           _______ _______ _______ _____ _____    ______ ____
DOCKED: ROOT
DOCKED: ATOM      1  C   UNL d   1      -9.035 -18.579   5.708 -0.10 +0.38    +0.193 C 
DOCKED: ENDROOT
DOCKED: BRANCH   1   2
DOCKED: ATOM      2  O   UNL d   1      -9.006 -19.098   4.336 -0.05 -0.54    -0.356 OA
DOCKED: BRANCH   2   3
DOCKED: ATOM      3  P   UNL d   1      -9.131 -18.140   3.005 -0.07 -0.03    -0.014 P 
DOCKED: ATOM      4  O   UNL d   1      -9.941 -16.925   3.482 -0.29 -1.42    -0.577 OA
DOCKED: ATOM      5  O   UNL d   1      -9.887 -18.936   1.943 -0.12 -0.81    -0.577 OA
DOCKED: ATOM      6  O   UNL d   1      -7.722 -17.741   2.578 +0.45 -2.14    -0.638 OA
DOCKED: ENDBRANCH   2   3
DOCKED: ENDBRANCH   1   2
DOCKED: BRANCH   1   7
DOCKED: ATOM      7  C   UNL d   1      -7.560 -18.506   6.251 -0.09 +0.36    +0.201 C 
DOCKED: BRANCH   7   8
DOCKED: ATOM      8  O   UNL d   1      -7.352 -17.654   7.399 -0.32 -0.83    -0.364 OA
DOCKED: BRANCH   8   9
DOCKED: ATOM      9  P   UNL d   1      -6.844 -16.094   7.193 -0.13 -0.03    -0.015 P 
DOCKED: ATOM     10  O   UNL d   1      -7.977 -15.403   6.425 +0.01 -1.79    -0.577 OA
DOCKED: ATOM     11  O   UNL d   1      -5.553 -16.149   6.376 -0.57 -1.01    -0.577 OA
DOCKED: ATOM     12  O   UNL d   1      -6.646 -15.496   8.585 -0.35 -0.92    -0.638 OA
DOCKED: ENDBRANCH   8   9
DOCKED: ENDBRANCH   7   8
DOCKED: ENDBRANCH   1   7
DOCKED: BRANCH   1  13
DOCKED: ATOM     13  C   UNL d   1      -9.866 -19.544   6.633 -0.06 +0.11    +0.073 C 
DOCKED: ATOM     14  O   UNL d   1      -9.652 -20.804   6.550 +0.01 -0.46    -0.547 OA
DOCKED: ATOM     15  O   UNL d   1     -10.672 -18.998   7.469 -0.48 -1.22    -0.547 OA
DOCKED: ENDBRANCH   1  13
DOCKED: TORSDOF 6
DOCKED: TER
DOCKED: ENDMDL
________________________________________________________________________________


	BEGINNING GENETIC ALGORITHM DOCKING 53 of 100
Run: 53 Seed: 1742485459 753848271 [ Run 53 of 100 GA/GALS ]
Beginning LAMARCKIAN GENETIC ALGORITHM (LGA), with a maximum of 25000000 energy evaluations.

Final-Value: -9.446


	FINAL GENETIC ALGORITHM DOCKED STATE
	_______________________________________________


Detailed state:  trans -1.808 1.521 -13.558 quatxyzw -0.095429 -0.201149 -0.334539 0.915705 center 0.015 0.083 0.031 ntor 6 166.3435 43.6968 75.2537 -11.9171 -7.5125 -55.5883
State:	 -1.808   1.521 -13.558  -0.237 -0.501 -0.832 47.388    166.34   43.70   75.25  -11.92   -7.51  -55.59

DOCKED: MODEL       53
DOCKED: USER    Run = 53
DOCKED: USER    DPF = D:/Protein_go_brrr/autodock/final/AncB/2_3_BPG/dock.dpf
DOCKED: USER  
DOCKED: USER    Estimated Free Energy of Binding    =   -9.67 kcal/mol  [=(1)+(2)+(3)-(4)]
DOCKED: USER    Estimated Inhibition Constant, Ki   =   82.00 nM (nanomolar)  [Temperature = 298.15 K]
DOCKED: USER    
DOCKED: USER    (1) Final Intermolecular Energy     =  -11.46 kcal/mol
DOCKED: USER        vdW + Hbond + desolv Energy     =   -3.90 kcal/mol
DOCKED: USER        Electrostatic Energy            =   -7.56 kcal/mol
DOCKED: USER    (2) Final Total Internal Energy     =   +2.01 kcal/mol
DOCKED: USER    (3) Torsional Free Energy           =   +1.79 kcal/mol
DOCKED: USER    (4) Unbound System's Energy  [=(2)] =   +2.01 kcal/mol
DOCKED: USER    
DOCKED: USER    
DOCKED: USER    NEWDPF move 2_3_BPG_opt.pdbqt
DOCKED: USER    NEWDPF about 0.015000 0.083000 0.031000
DOCKED: USER    NEWDPF tran0 -1.808460 1.521216 -13.557873
DOCKED: USER    NEWDPF quaternion0 -0.095429 -0.201149 -0.334539 0.915705
DOCKED: USER    NEWDPF axisangle0 -0.237473 -0.500556 -0.832496 47.387876
DOCKED: USER    NEWDPF quat0 -0.237473 -0.500556 -0.832496 47.387876
DOCKED: USER    NEWDPF dihe0 166.34 43.70 75.25 -11.92 -7.51 -55.59 
DOCKED: USER  keepresnum = 1 
DOCKED: USER  
DOCKED: REMARK  6 active torsions:
DOCKED: REMARK  status: ('A' for Active; 'I' for Inactive)
DOCKED: REMARK    1  A    between atoms: P_1  and  O_3 
DOCKED: REMARK    2  A    between atoms: P_2  and  O_4 
DOCKED: REMARK    3  A    between atoms: O_3  and  C_13 
DOCKED: REMARK    4  A    between atoms: O_4  and  C_14 
DOCKED: REMARK    5  A    between atoms: C_13  and  C_14 
DOCKED: REMARK    6  A    between atoms: C_13  and  C_15 
DOCKED: USER                              x       y       z     vdW  Elec       q    Type
DOCKED: USER                           _______ _______ _______ _____ _____    ______ ____
DOCKED: ROOT
DOCKED: ATOM      1  C   UNL d   1      -1.996   0.899 -13.392 -0.18 +0.26    +0.193 C 
DOCKED: ENDROOT
DOCKED: BRANCH   1   2
DOCKED: ATOM      2  O   UNL d   1      -3.463   0.847 -13.405 -0.14 -0.57    -0.356 OA
DOCKED: BRANCH   2   3
DOCKED: ATOM      3  P   UNL d   1      -4.343  -0.051 -12.345 -0.16 -0.02    -0.014 P 
DOCKED: ATOM      4  O   UNL d   1      -5.483  -0.636 -13.193 -0.01 -0.93    -0.577 OA
DOCKED: ATOM      5  O   UNL d   1      -4.871   0.902 -11.274 -0.03 -0.53    -0.577 OA
DOCKED: ATOM      6  O   UNL d   1      -3.438  -1.147 -11.791 -0.41 -1.36    -0.638 OA
DOCKED: ENDBRANCH   2   3
DOCKED: ENDBRANCH   1   2
DOCKED: BRANCH   1   7
DOCKED: ATOM      7  C   UNL d   1      -1.534   2.250 -14.054 -0.15 +0.30    +0.201 C 
DOCKED: BRANCH   7   8
DOCKED: ATOM      8  O   UNL d   1      -1.081   3.275 -13.144 -0.55 -0.59    -0.364 OA
DOCKED: BRANCH   8   9
DOCKED: ATOM      9  P   UNL d   1      -0.468   4.695 -13.732 -0.29 -0.02    -0.015 P 
DOCKED: ATOM     10  O   UNL d   1       1.053   4.565 -13.583 -0.44 -0.49    -0.577 OA
DOCKED: ATOM     11  O   UNL d   1      -1.032   5.818 -12.863 -0.52 -0.87    -0.577 OA
DOCKED: ATOM     12  O   UNL d   1      -0.895   4.799 -15.196 -0.34 -1.09    -0.638 OA
DOCKED: ENDBRANCH   8   9
DOCKED: ENDBRANCH   7   8
DOCKED: ENDBRANCH   1   7
DOCKED: BRANCH   1  13
DOCKED: ATOM     13  C   UNL d   1      -1.406  -0.299 -14.225 -0.08 +0.12    +0.073 C 
DOCKED: ATOM     14  O   UNL d   1      -0.368  -0.902 -13.777 -0.07 -0.62    -0.547 OA
DOCKED: ATOM     15  O   UNL d   1      -2.046  -0.644 -15.283 -0.53 -1.15    -0.547 OA
DOCKED: ENDBRANCH   1  13
DOCKED: TORSDOF 6
DOCKED: TER
DOCKED: ENDMDL
________________________________________________________________________________


	BEGINNING GENETIC ALGORITHM DOCKING 54 of 100
Run: 54 Seed: 2010215987 1981140999 [ Run 54 of 100 GA/GALS ]
Beginning LAMARCKIAN GENETIC ALGORITHM (LGA), with a maximum of 25000000 energy evaluations.

Final-Value: -10.332


	FINAL GENETIC ALGORITHM DOCKED STATE
	_______________________________________________


Detailed state:  trans -7.039 -18.625 5.818 quatxyzw -0.516171 0.256514 -0.089472 0.812258 center 0.015 0.083 0.031 ntor 6 146.4231 16.7450 71.7911 0.4288 -83.1015 163.7289
State:	 -7.039 -18.625   5.818  -0.885  0.440 -0.153 71.366    146.42   16.74   71.79    0.43  -83.10  163.73

DOCKED: MODEL       54
DOCKED: USER    Run = 54
DOCKED: USER    DPF = D:/Protein_go_brrr/autodock/final/AncB/2_3_BPG/dock.dpf
DOCKED: USER  
DOCKED: USER    Estimated Free Energy of Binding    =  -11.26 kcal/mol  [=(1)+(2)+(3)-(4)]
DOCKED: USER    Estimated Inhibition Constant, Ki   =    5.54 nM (nanomolar)  [Temperature = 298.15 K]
DOCKED: USER    
DOCKED: USER    (1) Final Intermolecular Energy     =  -13.05 kcal/mol
DOCKED: USER        vdW + Hbond + desolv Energy     =   -3.03 kcal/mol
DOCKED: USER        Electrostatic Energy            =  -10.03 kcal/mol
DOCKED: USER    (2) Final Total Internal Energy     =   +2.72 kcal/mol
DOCKED: USER    (3) Torsional Free Energy           =   +1.79 kcal/mol
DOCKED: USER    (4) Unbound System's Energy  [=(2)] =   +2.72 kcal/mol
DOCKED: USER    
DOCKED: USER    
DOCKED: USER    NEWDPF move 2_3_BPG_opt.pdbqt
DOCKED: USER    NEWDPF about 0.015000 0.083000 0.031000
DOCKED: USER    NEWDPF tran0 -7.039210 -18.624582 5.817699
DOCKED: USER    NEWDPF quaternion0 -0.516171 0.256514 -0.089472 0.812258
DOCKED: USER    NEWDPF axisangle0 -0.884917 0.439765 -0.153389 71.365734
DOCKED: USER    NEWDPF quat0 -0.884917 0.439765 -0.153389 71.365734
DOCKED: USER    NEWDPF dihe0 146.42 16.74 71.79 0.43 -83.10 163.73 
DOCKED: USER  keepresnum = 1 
DOCKED: USER  
DOCKED: REMARK  6 active torsions:
DOCKED: REMARK  status: ('A' for Active; 'I' for Inactive)
DOCKED: REMARK    1  A    between atoms: P_1  and  O_3 
DOCKED: REMARK    2  A    between atoms: P_2  and  O_4 
DOCKED: REMARK    3  A    between atoms: O_3  and  C_13 
DOCKED: REMARK    4  A    between atoms: O_4  and  C_14 
DOCKED: REMARK    5  A    between atoms: C_13  and  C_14 
DOCKED: REMARK    6  A    between atoms: C_13  and  C_15 
DOCKED: USER                              x       y       z     vdW  Elec       q    Type
DOCKED: USER                           _______ _______ _______ _____ _____    ______ ____
DOCKED: ROOT
DOCKED: ATOM      1  C   UNL d   1      -7.441 -18.778   5.303 -0.06 +0.33    +0.193 C 
DOCKED: ENDROOT
DOCKED: BRANCH   1   2
DOCKED: ATOM      2  O   UNL d   1      -8.455 -17.723   5.186 +0.01 -1.03    -0.356 OA
DOCKED: BRANCH   2   3
DOCKED: ATOM      3  P   UNL d   1     -10.063 -18.031   5.029 -0.22 -0.03    -0.014 P 
DOCKED: ATOM      4  O   UNL d   1     -10.672 -16.681   4.618 -0.53 -1.16    -0.577 OA
DOCKED: ATOM      5  O   UNL d   1     -10.572 -18.485   6.395 -0.52 -1.30    -0.577 OA
DOCKED: ATOM      6  O   UNL d   1     -10.237 -19.080   3.935 +0.03 -0.78    -0.638 OA
DOCKED: ENDBRANCH   2   3
DOCKED: ENDBRANCH   1   2
DOCKED: BRANCH   1   7
DOCKED: ATOM      7  C   UNL d   1      -6.326 -18.297   6.304 -0.06 +0.30    +0.201 C 
DOCKED: BRANCH   7   8
DOCKED: ATOM      8  O   UNL d   1      -5.993 -16.892   6.249 -0.49 -0.73    -0.364 OA
DOCKED: BRANCH   8   9
DOCKED: ATOM      9  P   UNL d   1      -6.622 -15.846   7.366 -0.22 -0.03    -0.015 P 
DOCKED: ATOM     10  O   UNL d   1      -7.694 -15.052   6.610 -0.17 -1.53    -0.577 OA
DOCKED: ATOM     11  O   UNL d   1      -5.475 -14.952   7.836 -0.01 -0.58    -0.577 OA
DOCKED: ATOM     12  O   UNL d   1      -7.220 -16.692   8.490 -0.37 -1.55    -0.638 OA
DOCKED: ENDBRANCH   8   9
DOCKED: ENDBRANCH   7   8
DOCKED: ENDBRANCH   1   7
DOCKED: BRANCH   1  13
DOCKED: ATOM     13  C   UNL d   1      -6.778 -19.047   3.901 -0.11 +0.12    +0.073 C 
DOCKED: ATOM     14  O   UNL d   1      -6.174 -20.162   3.715 +0.01 -0.55    -0.547 OA
DOCKED: ATOM     15  O   UNL d   1      -6.938 -18.149   2.999 -0.32 -1.51    -0.547 OA
DOCKED: ENDBRANCH   1  13
DOCKED: TORSDOF 6
DOCKED: TER
DOCKED: ENDMDL
________________________________________________________________________________


	BEGINNING GENETIC ALGORITHM DOCKING 55 of 100
Run: 55 Seed: 369595625 119985409 [ Run 55 of 100 GA/GALS ]
Beginning LAMARCKIAN GENETIC ALGORITHM (LGA), with a maximum of 25000000 energy evaluations.

Final-Value: -10.832


	FINAL GENETIC ALGORITHM DOCKED STATE
	_______________________________________________


Detailed state:  trans -6.711 -18.446 5.455 quatxyzw -0.940427 0.129934 0.068138 -0.306709 center 0.015 0.083 0.031 ntor 6 -25.9552 50.8445 177.2621 -4.3560 127.7751 -16.1291
State:	 -6.711 -18.446   5.455  -0.988  0.137  0.072 -144.278    -25.96   50.84  177.26   -4.36  127.78  -16.13

DOCKED: MODEL       55
DOCKED: USER    Run = 55
DOCKED: USER    DPF = D:/Protein_go_brrr/autodock/final/AncB/2_3_BPG/dock.dpf
DOCKED: USER  
DOCKED: USER    Estimated Free Energy of Binding    =  -11.79 kcal/mol  [=(1)+(2)+(3)-(4)]
DOCKED: USER    Estimated Inhibition Constant, Ki   =    2.26 nM (nanomolar)  [Temperature = 298.15 K]
DOCKED: USER    
DOCKED: USER    (1) Final Intermolecular Energy     =  -13.58 kcal/mol
DOCKED: USER        vdW + Hbond + desolv Energy     =   -3.27 kcal/mol
DOCKED: USER        Electrostatic Energy            =  -10.31 kcal/mol
DOCKED: USER    (2) Final Total Internal Energy     =   +2.75 kcal/mol
DOCKED: USER    (3) Torsional Free Energy           =   +1.79 kcal/mol
DOCKED: USER    (4) Unbound System's Energy  [=(2)] =   +2.75 kcal/mol
DOCKED: USER    
DOCKED: USER    
DOCKED: USER    NEWDPF move 2_3_BPG_opt.pdbqt
DOCKED: USER    NEWDPF about 0.015000 0.083000 0.031000
DOCKED: USER    NEWDPF tran0 -6.710719 -18.445979 5.454984
DOCKED: USER    NEWDPF quaternion0 -0.940427 0.129934 0.068138 -0.306709
DOCKED: USER    NEWDPF axisangle0 -0.988048 0.136514 0.071588 -144.277934
DOCKED: USER    NEWDPF quat0 -0.988048 0.136514 0.071588 -144.277934
DOCKED: USER    NEWDPF dihe0 -25.96 50.84 177.26 -4.36 127.78 -16.13 
DOCKED: USER  keepresnum = 1 
DOCKED: USER  
DOCKED: REMARK  6 active torsions:
DOCKED: REMARK  status: ('A' for Active; 'I' for Inactive)
DOCKED: REMARK    1  A    between atoms: P_1  and  O_3 
DOCKED: REMARK    2  A    between atoms: P_2  and  O_4 
DOCKED: REMARK    3  A    between atoms: O_3  and  C_13 
DOCKED: REMARK    4  A    between atoms: O_4  and  C_14 
DOCKED: REMARK    5  A    between atoms: C_13  and  C_14 
DOCKED: REMARK    6  A    between atoms: C_13  and  C_15 
DOCKED: USER                              x       y       z     vdW  Elec       q    Type
DOCKED: USER                           _______ _______ _______ _____ _____    ______ ____
DOCKED: ROOT
DOCKED: ATOM      1  C   UNL d   1      -7.187 -18.029   5.677 +0.13 +0.42    +0.193 C 
DOCKED: ENDROOT
DOCKED: BRANCH   1   2
DOCKED: ATOM      2  O   UNL d   1      -8.389 -18.820   5.965 -0.08 -0.64    -0.356 OA
DOCKED: BRANCH   2   3
DOCKED: ATOM      3  P   UNL d   1      -9.905 -18.344   5.541 -0.16 -0.03    -0.014 P 
DOCKED: ATOM      4  O   UNL d   1     -10.746 -18.575   6.806 -0.42 -1.41    -0.577 OA
DOCKED: ATOM      5  O   UNL d   1     -10.357 -19.245   4.394 +0.02 -0.68    -0.577 OA
DOCKED: ATOM      6  O   UNL d   1      -9.848 -16.867   5.168 -0.59 -1.83    -0.638 OA
DOCKED: ENDBRANCH   2   3
DOCKED: ENDBRANCH   1   2
DOCKED: BRANCH   1   7
DOCKED: ATOM      7  C   UNL d   1      -5.981 -19.012   5.438 -0.03 +0.24    +0.201 C 
DOCKED: BRANCH   7   8
DOCKED: ATOM      8  O   UNL d   1      -5.034 -18.613   4.422 -0.02 -0.44    -0.364 OA
DOCKED: BRANCH   8   9
DOCKED: ATOM      9  P   UNL d   1      -5.569 -18.137   2.931 -0.11 -0.03    -0.015 P 
DOCKED: ATOM     10  O   UNL d   1      -7.096 -18.262   2.995 -0.28 -1.53    -0.577 OA
DOCKED: ATOM     11  O   UNL d   1      -4.960 -19.100   1.911 -0.42 -0.85    -0.577 OA
DOCKED: ATOM     12  O   UNL d   1      -5.119 -16.691   2.730 -0.25 -1.38    -0.638 OA
DOCKED: ENDBRANCH   8   9
DOCKED: ENDBRANCH   7   8
DOCKED: ENDBRANCH   1   7
DOCKED: BRANCH   1  13
DOCKED: ATOM     13  C   UNL d   1      -6.845 -17.100   6.901 -0.13 +0.16    +0.073 C 
DOCKED: ATOM     14  O   UNL d   1      -7.205 -17.476   8.072 -0.39 -1.20    -0.547 OA
DOCKED: ATOM     15  O   UNL d   1      -6.164 -16.040   6.656 -0.53 -1.12    -0.547 OA
DOCKED: ENDBRANCH   1  13
DOCKED: TORSDOF 6
DOCKED: TER
DOCKED: ENDMDL
________________________________________________________________________________


	BEGINNING GENETIC ALGORITHM DOCKING 56 of 100
Run: 56 Seed: 499336406 1498416986 [ Run 56 of 100 GA/GALS ]
Beginning LAMARCKIAN GENETIC ALGORITHM (LGA), with a maximum of 25000000 energy evaluations.

Final-Value: -10.021


	FINAL GENETIC ALGORITHM DOCKED STATE
	_______________________________________________


Detailed state:  trans -8.303 -19.111 5.002 quatxyzw -0.195960 -0.319457 0.760624 0.530092 center 0.015 0.083 0.031 ntor 6 161.8078 -22.4520 -42.3826 -29.6834 71.8892 147.7716
State:	 -8.303 -19.111   5.002  -0.231 -0.377  0.897 115.977    161.81  -22.45  -42.38  -29.68   71.89  147.77

DOCKED: MODEL       56
DOCKED: USER    Run = 56
DOCKED: USER    DPF = D:/Protein_go_brrr/autodock/final/AncB/2_3_BPG/dock.dpf
DOCKED: USER  
DOCKED: USER    Estimated Free Energy of Binding    =  -11.16 kcal/mol  [=(1)+(2)+(3)-(4)]
DOCKED: USER    Estimated Inhibition Constant, Ki   =    6.61 nM (nanomolar)  [Temperature = 298.15 K]
DOCKED: USER    
DOCKED: USER    (1) Final Intermolecular Energy     =  -12.95 kcal/mol
DOCKED: USER        vdW + Hbond + desolv Energy     =   -2.80 kcal/mol
DOCKED: USER        Electrostatic Energy            =  -10.14 kcal/mol
DOCKED: USER    (2) Final Total Internal Energy     =   +2.93 kcal/mol
DOCKED: USER    (3) Torsional Free Energy           =   +1.79 kcal/mol
DOCKED: USER    (4) Unbound System's Energy  [=(2)] =   +2.93 kcal/mol
DOCKED: USER    
DOCKED: USER    
DOCKED: USER    NEWDPF move 2_3_BPG_opt.pdbqt
DOCKED: USER    NEWDPF about 0.015000 0.083000 0.031000
DOCKED: USER    NEWDPF tran0 -8.302691 -19.111168 5.001721
DOCKED: USER    NEWDPF quaternion0 -0.195960 -0.319457 0.760624 0.530092
DOCKED: USER    NEWDPF axisangle0 -0.231101 -0.376744 0.897026 115.976615
DOCKED: USER    NEWDPF quat0 -0.231101 -0.376744 0.897026 115.976615
DOCKED: USER    NEWDPF dihe0 161.81 -22.45 -42.38 -29.68 71.89 147.77 
DOCKED: USER  keepresnum = 1 
DOCKED: USER  
DOCKED: REMARK  6 active torsions:
DOCKED: REMARK  status: ('A' for Active; 'I' for Inactive)
DOCKED: REMARK    1  A    between atoms: P_1  and  O_3 
DOCKED: REMARK    2  A    between atoms: P_2  and  O_4 
DOCKED: REMARK    3  A    between atoms: O_3  and  C_13 
DOCKED: REMARK    4  A    between atoms: O_4  and  C_14 
DOCKED: REMARK    5  A    between atoms: C_13  and  C_14 
DOCKED: REMARK    6  A    between atoms: C_13  and  C_15 
DOCKED: USER                              x       y       z     vdW  Elec       q    Type
DOCKED: USER                           _______ _______ _______ _____ _____    ______ ____
DOCKED: ROOT
DOCKED: ATOM      1  C   UNL d   1      -8.378 -18.704   5.529 -0.10 +0.36    +0.193 C 
DOCKED: ENDROOT
DOCKED: BRANCH   1   2
DOCKED: ATOM      2  O   UNL d   1      -7.281 -17.729   5.513 +0.09 -0.93    -0.356 OA
DOCKED: BRANCH   2   3
DOCKED: ATOM      3  P   UNL d   1      -6.846 -16.839   6.825 -0.10 -0.03    -0.014 P 
DOCKED: ATOM      4  O   UNL d   1      -5.359 -16.522   6.597 -0.26 -0.84    -0.577 OA
DOCKED: ATOM      5  O   UNL d   1      -7.050 -17.719   8.057 -0.34 -1.09    -0.577 OA
DOCKED: ATOM      6  O   UNL d   1      -7.693 -15.570   6.837 -0.32 -1.83    -0.638 OA
DOCKED: ENDBRANCH   2   3
DOCKED: ENDBRANCH   1   2
DOCKED: BRANCH   1   7
DOCKED: ATOM      7  C   UNL d   1      -8.387 -19.475   4.158 -0.07 +0.28    +0.201 C 
DOCKED: BRANCH   7   8
DOCKED: ATOM      8  O   UNL d   1      -8.410 -18.651   2.971 -0.14 -0.73    -0.364 OA
DOCKED: BRANCH   8   9
DOCKED: ATOM      9  P   UNL d   1      -9.805 -18.497   2.094 -0.12 -0.02    -0.015 P 
DOCKED: ATOM     10  O   UNL d   1      -9.857 -17.020   1.686 -0.06 -1.12    -0.577 OA
DOCKED: ATOM     11  O   UNL d   1     -10.959 -18.874   3.023 +0.02 -0.60    -0.577 OA
DOCKED: ATOM     12  O   UNL d   1      -9.682 -19.423   0.885 -0.35 -0.99    -0.638 OA
DOCKED: ENDBRANCH   8   9
DOCKED: ENDBRANCH   7   8
DOCKED: ENDBRANCH   1   7
DOCKED: BRANCH   1  13
DOCKED: ATOM     13  C   UNL d   1      -9.756 -17.962   5.700 +0.12 +0.17    +0.073 C 
DOCKED: ATOM     14  O   UNL d   1     -10.674 -18.530   6.390 -0.57 -1.17    -0.547 OA
DOCKED: ATOM     15  O   UNL d   1      -9.856 -16.791   5.183 -0.61 -1.59    -0.547 OA
DOCKED: ENDBRANCH   1  13
DOCKED: TORSDOF 6
DOCKED: TER
DOCKED: ENDMDL
________________________________________________________________________________


	BEGINNING GENETIC ALGORITHM DOCKING 57 of 100
Run: 57 Seed: 126916012 947470939 [ Run 57 of 100 GA/GALS ]
Beginning LAMARCKIAN GENETIC ALGORITHM (LGA), with a maximum of 25000000 energy evaluations.

Final-Value: -9.291


	FINAL GENETIC ALGORITHM DOCKED STATE
	_______________________________________________


Detailed state:  trans -1.051 1.470 -13.647 quatxyzw -0.170315 -0.352165 -0.423252 0.817209 center 0.015 0.083 0.031 ntor 6 95.1572 -4.7275 86.2406 -166.7317 -26.9499 -73.0431
State:	 -1.051   1.470 -13.647  -0.296 -0.611 -0.734 70.387     95.16   -4.73   86.24 -166.73  -26.95  -73.04

DOCKED: MODEL       57
DOCKED: USER    Run = 57
DOCKED: USER    DPF = D:/Protein_go_brrr/autodock/final/AncB/2_3_BPG/dock.dpf
DOCKED: USER  
DOCKED: USER    Estimated Free Energy of Binding    =   -9.96 kcal/mol  [=(1)+(2)+(3)-(4)]
DOCKED: USER    Estimated Inhibition Constant, Ki   =   49.95 nM (nanomolar)  [Temperature = 298.15 K]
DOCKED: USER    
DOCKED: USER    (1) Final Intermolecular Energy     =  -11.75 kcal/mol
DOCKED: USER        vdW + Hbond + desolv Energy     =   -3.89 kcal/mol
DOCKED: USER        Electrostatic Energy            =   -7.86 kcal/mol
DOCKED: USER    (2) Final Total Internal Energy     =   +2.46 kcal/mol
DOCKED: USER    (3) Torsional Free Energy           =   +1.79 kcal/mol
DOCKED: USER    (4) Unbound System's Energy  [=(2)] =   +2.46 kcal/mol
DOCKED: USER    
DOCKED: USER    
DOCKED: USER    NEWDPF move 2_3_BPG_opt.pdbqt
DOCKED: USER    NEWDPF about 0.015000 0.083000 0.031000
DOCKED: USER    NEWDPF tran0 -1.050626 1.469960 -13.646896
DOCKED: USER    NEWDPF quaternion0 -0.170315 -0.352165 -0.423252 0.817209
DOCKED: USER    NEWDPF axisangle0 -0.295510 -0.611035 -0.734377 70.387300
DOCKED: USER    NEWDPF quat0 -0.295510 -0.611035 -0.734377 70.387300
DOCKED: USER    NEWDPF dihe0 95.16 -4.73 86.24 -166.73 -26.95 -73.04 
DOCKED: USER  keepresnum = 1 
DOCKED: USER  
DOCKED: REMARK  6 active torsions:
DOCKED: REMARK  status: ('A' for Active; 'I' for Inactive)
DOCKED: REMARK    1  A    between atoms: P_1  and  O_3 
DOCKED: REMARK    2  A    between atoms: P_2  and  O_4 
DOCKED: REMARK    3  A    between atoms: O_3  and  C_13 
DOCKED: REMARK    4  A    between atoms: O_4  and  C_14 
DOCKED: REMARK    5  A    between atoms: C_13  and  C_14 
DOCKED: REMARK    6  A    between atoms: C_13  and  C_15 
DOCKED: USER                              x       y       z     vdW  Elec       q    Type
DOCKED: USER                           _______ _______ _______ _____ _____    ______ ____
DOCKED: ROOT
DOCKED: ATOM      1  C   UNL d   1      -1.036   0.814 -13.509 -0.16 +0.21    +0.193 C 
DOCKED: ENDROOT
DOCKED: BRANCH   1   2
DOCKED: ATOM      2  O   UNL d   1      -2.368   0.415 -13.043 -0.12 -0.53    -0.356 OA
DOCKED: BRANCH   2   3
DOCKED: ATOM      3  P   UNL d   1      -3.726   0.553 -13.961 -0.17 -0.02    -0.014 P 
DOCKED: ATOM      4  O   UNL d   1      -4.809  -0.184 -13.157 -0.02 -0.99    -0.577 OA
DOCKED: ATOM      5  O   UNL d   1      -3.444  -0.141 -15.292 -0.26 -1.15    -0.577 OA
DOCKED: ATOM      6  O   UNL d   1      -4.048   2.037 -14.105 -0.48 -1.37    -0.638 OA
DOCKED: ENDBRANCH   2   3
DOCKED: ENDBRANCH   1   2
DOCKED: BRANCH   1   7
DOCKED: ATOM      7  C   UNL d   1      -1.125   2.266 -14.108 -0.17 +0.26    +0.201 C 
DOCKED: BRANCH   7   8
DOCKED: ATOM      8  O   UNL d   1      -0.979   3.348 -13.163 -0.60 -0.58    -0.364 OA
DOCKED: BRANCH   8   9
DOCKED: ATOM      9  P   UNL d   1      -0.468   4.836 -13.676 -0.32 -0.02    -0.015 P 
DOCKED: ATOM     10  O   UNL d   1       1.057   4.809 -13.521 -0.38 -0.47    -0.577 OA
DOCKED: ATOM     11  O   UNL d   1      -1.117   5.871 -12.758 -0.47 -0.86    -0.577 OA
DOCKED: ATOM     12  O   UNL d   1      -0.895   4.980 -15.136 -0.37 -1.10    -0.638 OA
DOCKED: ENDBRANCH   8   9
DOCKED: ENDBRANCH   7   8
DOCKED: ENDBRANCH   1   7
DOCKED: BRANCH   1  13
DOCKED: ATOM     13  C   UNL d   1      -0.543  -0.167 -14.637 -0.15 +0.08    +0.073 C 
DOCKED: ATOM     14  O   UNL d   1       0.226   0.291 -15.553 +0.02 -0.42    -0.547 OA
DOCKED: ATOM     15  O   UNL d   1      -0.895  -1.398 -14.533 -0.24 -0.89    -0.547 OA
DOCKED: ENDBRANCH   1  13
DOCKED: TORSDOF 6
DOCKED: TER
DOCKED: ENDMDL
________________________________________________________________________________


	BEGINNING GENETIC ALGORITHM DOCKING 58 of 100
Run: 58 Seed: 215854430 1887247303 [ Run 58 of 100 GA/GALS ]
Beginning LAMARCKIAN GENETIC ALGORITHM (LGA), with a maximum of 25000000 energy evaluations.

Final-Value: -10.690


	FINAL GENETIC ALGORITHM DOCKED STATE
	_______________________________________________


Detailed state:  trans -6.436 -18.214 5.914 quatxyzw 0.246193 -0.450346 0.796040 0.320777 center 0.015 0.083 0.031 ntor 6 -31.7917 170.2834 169.4797 88.3736 65.1356 159.5916
State:	 -6.436 -18.214   5.914   0.260 -0.475  0.840 142.580    -31.79  170.28  169.48   88.37   65.14  159.59

DOCKED: MODEL       58
DOCKED: USER    Run = 58
DOCKED: USER    DPF = D:/Protein_go_brrr/autodock/final/AncB/2_3_BPG/dock.dpf
DOCKED: USER  
DOCKED: USER    Estimated Free Energy of Binding    =  -11.57 kcal/mol  [=(1)+(2)+(3)-(4)]
DOCKED: USER    Estimated Inhibition Constant, Ki   =    3.33 nM (nanomolar)  [Temperature = 298.15 K]
DOCKED: USER    
DOCKED: USER    (1) Final Intermolecular Energy     =  -13.36 kcal/mol
DOCKED: USER        vdW + Hbond + desolv Energy     =   -2.95 kcal/mol
DOCKED: USER        Electrostatic Energy            =  -10.41 kcal/mol
DOCKED: USER    (2) Final Total Internal Energy     =   +2.67 kcal/mol
DOCKED: USER    (3) Torsional Free Energy           =   +1.79 kcal/mol
DOCKED: USER    (4) Unbound System's Energy  [=(2)] =   +2.67 kcal/mol
DOCKED: USER    
DOCKED: USER    
DOCKED: USER    NEWDPF move 2_3_BPG_opt.pdbqt
DOCKED: USER    NEWDPF about 0.015000 0.083000 0.031000
DOCKED: USER    NEWDPF tran0 -6.436484 -18.213852 5.913933
DOCKED: USER    NEWDPF quaternion0 0.246193 -0.450346 0.796040 0.320777
DOCKED: USER    NEWDPF axisangle0 0.259929 -0.475472 0.840454 142.580164
DOCKED: USER    NEWDPF quat0 0.259929 -0.475472 0.840454 142.580164
DOCKED: USER    NEWDPF dihe0 -31.79 170.28 169.48 88.37 65.14 159.59 
DOCKED: USER  keepresnum = 1 
DOCKED: USER  
DOCKED: REMARK  6 active torsions:
DOCKED: REMARK  status: ('A' for Active; 'I' for Inactive)
DOCKED: REMARK    1  A    between atoms: P_1  and  O_3 
DOCKED: REMARK    2  A    between atoms: P_2  and  O_4 
DOCKED: REMARK    3  A    between atoms: O_3  and  C_13 
DOCKED: REMARK    4  A    between atoms: O_4  and  C_14 
DOCKED: REMARK    5  A    between atoms: C_13  and  C_14 
DOCKED: REMARK    6  A    between atoms: C_13  and  C_15 
DOCKED: USER                              x       y       z     vdW  Elec       q    Type
DOCKED: USER                           _______ _______ _______ _____ _____    ______ ____
DOCKED: ROOT
DOCKED: ATOM      1  C   UNL d   1      -6.069 -17.715   6.171 -0.05 +0.32    +0.193 C 
DOCKED: ENDROOT
DOCKED: BRANCH   1   2
DOCKED: ATOM      2  O   UNL d   1      -5.570 -16.897   5.060 -0.16 -0.87    -0.356 OA
DOCKED: BRANCH   2   3
DOCKED: ATOM      3  P   UNL d   1      -4.943 -17.534   3.680 -0.12 -0.02    -0.014 P 
DOCKED: ATOM      4  O   UNL d   1      -4.701 -19.014   4.016 +0.02 -0.58    -0.577 OA
DOCKED: ATOM      5  O   UNL d   1      -3.633 -16.801   3.397 -0.02 -0.59    -0.577 OA
DOCKED: ATOM      6  O   UNL d   1      -5.980 -17.374   2.573 -0.41 -1.89    -0.638 OA
DOCKED: ENDBRANCH   2   3
DOCKED: ENDBRANCH   1   2
DOCKED: BRANCH   1   7
DOCKED: ATOM      7  C   UNL d   1      -7.160 -18.705   5.618 -0.07 +0.33    +0.201 C 
DOCKED: BRANCH   7   8
DOCKED: ATOM      8  O   UNL d   1      -8.079 -18.153   4.650 +0.05 -0.92    -0.364 OA
DOCKED: BRANCH   8   9
DOCKED: ATOM      9  P   UNL d   1      -9.674 -17.950   5.041 -0.11 -0.03    -0.015 P 
DOCKED: ATOM     10  O   UNL d   1      -9.842 -18.642   6.399 -0.41 -1.32    -0.577 OA
DOCKED: ATOM     11  O   UNL d   1     -10.492 -18.635   3.947 -0.01 -0.76    -0.577 OA
DOCKED: ATOM     12  O   UNL d   1      -9.929 -16.447   5.127 -0.58 -1.89    -0.638 OA
DOCKED: ENDBRANCH   8   9
DOCKED: ENDBRANCH   7   8
DOCKED: ENDBRANCH   1   7
DOCKED: BRANCH   1  13
DOCKED: ATOM     13  C   UNL d   1      -6.730 -16.796   7.264 -0.12 +0.15    +0.073 C 
DOCKED: ATOM     14  O   UNL d   1      -7.139 -15.632   6.918 -0.47 -1.36    -0.547 OA
DOCKED: ATOM     15  O   UNL d   1      -6.878 -17.298   8.436 -0.49 -0.98    -0.547 OA
DOCKED: ENDBRANCH   1  13
DOCKED: TORSDOF 6
DOCKED: TER
DOCKED: ENDMDL
________________________________________________________________________________


	BEGINNING GENETIC ALGORITHM DOCKING 59 of 100
Run: 59 Seed: 727377113 1599121097 [ Run 59 of 100 GA/GALS ]
Beginning LAMARCKIAN GENETIC ALGORITHM (LGA), with a maximum of 25000000 energy evaluations.

Final-Value: -10.332


	FINAL GENETIC ALGORITHM DOCKED STATE
	_______________________________________________


Detailed state:  trans -7.282 -18.490 4.841 quatxyzw -0.820471 0.203881 0.083950 -0.527458 center 0.015 0.083 0.031 ntor 6 -155.2733 64.1786 -37.0534 -2.1475 -86.2455 -63.7628
State:	 -7.282 -18.490   4.841  -0.966  0.240  0.099 -116.332   -155.27   64.18  -37.05   -2.15  -86.25  -63.76

DOCKED: MODEL       59
DOCKED: USER    Run = 59
DOCKED: USER    DPF = D:/Protein_go_brrr/autodock/final/AncB/2_3_BPG/dock.dpf
DOCKED: USER  
DOCKED: USER    Estimated Free Energy of Binding    =  -10.68 kcal/mol  [=(1)+(2)+(3)-(4)]
DOCKED: USER    Estimated Inhibition Constant, Ki   =   14.96 nM (nanomolar)  [Temperature = 298.15 K]
DOCKED: USER    
DOCKED: USER    (1) Final Intermolecular Energy     =  -12.47 kcal/mol
DOCKED: USER        vdW + Hbond + desolv Energy     =   -2.79 kcal/mol
DOCKED: USER        Electrostatic Energy            =   -9.67 kcal/mol
DOCKED: USER    (2) Final Total Internal Energy     =   +2.13 kcal/mol
DOCKED: USER    (3) Torsional Free Energy           =   +1.79 kcal/mol
DOCKED: USER    (4) Unbound System's Energy  [=(2)] =   +2.13 kcal/mol
DOCKED: USER    
DOCKED: USER    
DOCKED: USER    NEWDPF move 2_3_BPG_opt.pdbqt
DOCKED: USER    NEWDPF about 0.015000 0.083000 0.031000
DOCKED: USER    NEWDPF tran0 -7.282399 -18.489946 4.840908
DOCKED: USER    NEWDPF quaternion0 -0.820471 0.203881 0.083950 -0.527458
DOCKED: USER    NEWDPF axisangle0 -0.965736 0.239978 0.098814 -116.332284
DOCKED: USER    NEWDPF quat0 -0.965736 0.239978 0.098814 -116.332284
DOCKED: USER    NEWDPF dihe0 -155.27 64.18 -37.05 -2.15 -86.25 -63.76 
DOCKED: USER  keepresnum = 1 
DOCKED: USER  
DOCKED: REMARK  6 active torsions:
DOCKED: REMARK  status: ('A' for Active; 'I' for Inactive)
DOCKED: REMARK    1  A    between atoms: P_1  and  O_3 
DOCKED: REMARK    2  A    between atoms: P_2  and  O_4 
DOCKED: REMARK    3  A    between atoms: O_3  and  C_13 
DOCKED: REMARK    4  A    between atoms: O_4  and  C_14 
DOCKED: REMARK    5  A    between atoms: C_13  and  C_14 
DOCKED: REMARK    6  A    between atoms: C_13  and  C_15 
DOCKED: USER                              x       y       z     vdW  Elec       q    Type
DOCKED: USER                           _______ _______ _______ _____ _____    ______ ____
DOCKED: ROOT
DOCKED: ATOM      1  C   UNL d   1      -7.672 -18.150   5.267 +0.22 +0.45    +0.193 C 
DOCKED: ENDROOT
DOCKED: BRANCH   1   2
DOCKED: ATOM      2  O   UNL d   1      -9.007 -18.758   5.250 -0.10 -0.64    -0.356 OA
DOCKED: BRANCH   2   3
DOCKED: ATOM      3  P   UNL d   1     -10.397 -17.882   5.163 -0.23 -0.03    -0.014 P 
DOCKED: ATOM      4  O   UNL d   1     -11.160 -18.245   6.447 -0.47 -1.22    -0.577 OA
DOCKED: ATOM      5  O   UNL d   1     -11.146 -18.345   3.915 -0.00 -0.68    -0.577 OA
DOCKED: ATOM      6  O   UNL d   1     -10.022 -16.404   5.133 -0.58 -1.82    -0.638 OA
DOCKED: ENDBRANCH   2   3
DOCKED: ENDBRANCH   1   2
DOCKED: BRANCH   1   7
DOCKED: ATOM      7  C   UNL d   1      -6.675 -19.100   4.506 -0.06 +0.30    +0.201 C 
DOCKED: BRANCH   7   8
DOCKED: ATOM      8  O   UNL d   1      -6.443 -18.786   3.115 -0.26 -0.69    -0.364 OA
DOCKED: BRANCH   8   9
DOCKED: ATOM      9  P   UNL d   1      -5.120 -17.897   2.675 -0.19 -0.03    -0.015 P 
DOCKED: ATOM     10  O   UNL d   1      -4.689 -18.469   1.319 -0.41 -1.03    -0.577 OA
DOCKED: ATOM     11  O   UNL d   1      -4.057 -18.117   3.751 +0.01 -0.59    -0.577 OA
DOCKED: ATOM     12  O   UNL d   1      -5.570 -16.441   2.567 -0.09 -1.78    -0.638 OA
DOCKED: ENDBRANCH   8   9
DOCKED: ENDBRANCH   7   8
DOCKED: ENDBRANCH   1   7
DOCKED: BRANCH   1  13
DOCKED: ATOM     13  C   UNL d   1      -7.175 -17.981   6.751 -0.12 +0.14    +0.073 C 
DOCKED: ATOM     14  O   UNL d   1      -7.246 -16.822   7.292 -0.50 -1.41    -0.547 OA
DOCKED: ATOM     15  O   UNL d   1      -6.782 -19.042   7.358 +0.00 -0.64    -0.547 OA
DOCKED: ENDBRANCH   1  13
DOCKED: TORSDOF 6
DOCKED: TER
DOCKED: ENDMDL
________________________________________________________________________________


	BEGINNING GENETIC ALGORITHM DOCKING 60 of 100
Run: 60 Seed: 890220571 1692937101 [ Run 60 of 100 GA/GALS ]
Beginning LAMARCKIAN GENETIC ALGORITHM (LGA), with a maximum of 25000000 energy evaluations.

Final-Value: -10.875


	FINAL GENETIC ALGORITHM DOCKED STATE
	_______________________________________________


Detailed state:  trans -6.503 -17.951 5.960 quatxyzw -0.213921 0.445504 -0.838063 -0.231118 center 0.015 0.083 0.031 ntor 6 138.8147 169.8026 -41.9787 90.5165 -52.0489 80.0434
State:	 -6.503 -17.951   5.960  -0.220  0.458 -0.861 -153.274    138.81  169.80  -41.98   90.52  -52.05   80.04

DOCKED: MODEL       60
DOCKED: USER    Run = 60
DOCKED: USER    DPF = D:/Protein_go_brrr/autodock/final/AncB/2_3_BPG/dock.dpf
DOCKED: USER  
DOCKED: USER    Estimated Free Energy of Binding    =  -11.57 kcal/mol  [=(1)+(2)+(3)-(4)]
DOCKED: USER    Estimated Inhibition Constant, Ki   =    3.32 nM (nanomolar)  [Temperature = 298.15 K]
DOCKED: USER    
DOCKED: USER    (1) Final Intermolecular Energy     =  -13.36 kcal/mol
DOCKED: USER        vdW + Hbond + desolv Energy     =   -3.24 kcal/mol
DOCKED: USER        Electrostatic Energy            =  -10.12 kcal/mol
DOCKED: USER    (2) Final Total Internal Energy     =   +2.48 kcal/mol
DOCKED: USER    (3) Torsional Free Energy           =   +1.79 kcal/mol
DOCKED: USER    (4) Unbound System's Energy  [=(2)] =   +2.48 kcal/mol
DOCKED: USER    
DOCKED: USER    
DOCKED: USER    NEWDPF move 2_3_BPG_opt.pdbqt
DOCKED: USER    NEWDPF about 0.015000 0.083000 0.031000
DOCKED: USER    NEWDPF tran0 -6.503281 -17.951011 5.960263
DOCKED: USER    NEWDPF quaternion0 -0.213921 0.445504 -0.838063 -0.231118
DOCKED: USER    NEWDPF axisangle0 -0.219874 0.457901 -0.861384 -153.274215
DOCKED: USER    NEWDPF quat0 -0.219874 0.457901 -0.861384 -153.274215
DOCKED: USER    NEWDPF dihe0 138.81 169.80 -41.98 90.52 -52.05 80.04 
DOCKED: USER  keepresnum = 1 
DOCKED: USER  
DOCKED: REMARK  6 active torsions:
DOCKED: REMARK  status: ('A' for Active; 'I' for Inactive)
DOCKED: REMARK    1  A    between atoms: P_1  and  O_3 
DOCKED: REMARK    2  A    between atoms: P_2  and  O_4 
DOCKED: REMARK    3  A    between atoms: O_3  and  C_13 
DOCKED: REMARK    4  A    between atoms: O_4  and  C_14 
DOCKED: REMARK    5  A    between atoms: C_13  and  C_14 
DOCKED: REMARK    6  A    between atoms: C_13  and  C_15 
DOCKED: USER                              x       y       z     vdW  Elec       q    Type
DOCKED: USER                           _______ _______ _______ _____ _____    ______ ____
DOCKED: ROOT
DOCKED: ATOM      1  C   UNL d   1      -6.042 -17.518   6.182 -0.02 +0.34    +0.193 C 
DOCKED: ENDROOT
DOCKED: BRANCH   1   2
DOCKED: ATOM      2  O   UNL d   1      -5.407 -16.890   5.018 -0.19 -0.80    -0.356 OA
DOCKED: BRANCH   2   3
DOCKED: ATOM      3  P   UNL d   1      -4.980 -17.722   3.665 -0.16 -0.02    -0.014 P 
DOCKED: ATOM      4  O   UNL d   1      -5.052 -19.198   4.084 +0.01 -0.61    -0.577 OA
DOCKED: ATOM      5  O   UNL d   1      -3.553 -17.308   3.311 -0.00 -0.56    -0.577 OA
DOCKED: ATOM      6  O   UNL d   1      -5.995 -17.399   2.574 -0.42 -1.89    -0.638 OA
DOCKED: ENDBRANCH   2   3
DOCKED: ENDBRANCH   1   2
DOCKED: BRANCH   1   7
DOCKED: ATOM      7  C   UNL d   1      -7.312 -18.310   5.698 -0.04 +0.40    +0.201 C 
DOCKED: BRANCH   7   8
DOCKED: ATOM      8  O   UNL d   1      -8.571 -17.898   6.275 -0.07 -0.98    -0.364 OA
DOCKED: BRANCH   8   9
DOCKED: ATOM      9  P   UNL d   1      -9.875 -17.608   5.299 -0.03 -0.04    -0.015 P 
DOCKED: ATOM     10  O   UNL d   1     -11.076 -18.186   6.058 -0.48 -1.11    -0.577 OA
DOCKED: ATOM     11  O   UNL d   1      -9.622 -18.345   3.985 -0.13 -1.04    -0.577 OA
DOCKED: ATOM     12  O   UNL d   1      -9.981 -16.094   5.125 -0.49 -1.88    -0.638 OA
DOCKED: ENDBRANCH   8   9
DOCKED: ENDBRANCH   7   8
DOCKED: ENDBRANCH   1   7
DOCKED: BRANCH   1  13
DOCKED: ATOM     13  C   UNL d   1      -6.498 -16.414   7.208 -0.16 +0.14    +0.073 C 
DOCKED: ATOM     14  O   UNL d   1      -6.849 -16.781   8.385 -0.60 -1.03    -0.547 OA
DOCKED: ATOM     15  O   UNL d   1      -6.429 -15.193   6.819 -0.46 -1.05    -0.547 OA
DOCKED: ENDBRANCH   1  13
DOCKED: TORSDOF 6
DOCKED: TER
DOCKED: ENDMDL
________________________________________________________________________________


	BEGINNING GENETIC ALGORITHM DOCKING 61 of 100
Run: 61 Seed: 2006502333 1120183791 [ Run 61 of 100 GA/GALS ]
Beginning LAMARCKIAN GENETIC ALGORITHM (LGA), with a maximum of 25000000 energy evaluations.

Final-Value: -10.887


	FINAL GENETIC ALGORITHM DOCKED STATE
	_______________________________________________


Detailed state:  trans -8.134 -18.639 5.529 quatxyzw 0.487936 -0.389973 0.278651 -0.729516 center 0.015 0.083 0.031 ntor 6 145.0314 60.5909 -11.3463 89.1067 37.8227 180.0000
State:	 -8.134 -18.639   5.529   0.713 -0.570  0.407 -86.308    145.03   60.59  -11.35   89.11   37.82  180.00

DOCKED: MODEL       61
DOCKED: USER    Run = 61
DOCKED: USER    DPF = D:/Protein_go_brrr/autodock/final/AncB/2_3_BPG/dock.dpf
DOCKED: USER  
DOCKED: USER    Estimated Free Energy of Binding    =  -11.81 kcal/mol  [=(1)+(2)+(3)-(4)]
DOCKED: USER    Estimated Inhibition Constant, Ki   =    2.21 nM (nanomolar)  [Temperature = 298.15 K]
DOCKED: USER    
DOCKED: USER    (1) Final Intermolecular Energy     =  -13.60 kcal/mol
DOCKED: USER        vdW + Hbond + desolv Energy     =   -3.51 kcal/mol
DOCKED: USER        Electrostatic Energy            =  -10.09 kcal/mol
DOCKED: USER    (2) Final Total Internal Energy     =   +2.71 kcal/mol
DOCKED: USER    (3) Torsional Free Energy           =   +1.79 kcal/mol
DOCKED: USER    (4) Unbound System's Energy  [=(2)] =   +2.71 kcal/mol
DOCKED: USER    
DOCKED: USER    
DOCKED: USER    NEWDPF move 2_3_BPG_opt.pdbqt
DOCKED: USER    NEWDPF about 0.015000 0.083000 0.031000
DOCKED: USER    NEWDPF tran0 -8.134472 -18.639363 5.529035
DOCKED: USER    NEWDPF quaternion0 0.487936 -0.389973 0.278651 -0.729516
DOCKED: USER    NEWDPF axisangle0 0.713394 -0.570166 0.407405 -86.308341
DOCKED: USER    NEWDPF quat0 0.713394 -0.570166 0.407405 -86.308341
DOCKED: USER    NEWDPF dihe0 145.03 60.59 -11.35 89.11 37.82 180.00 
DOCKED: USER  keepresnum = 1 
DOCKED: USER  
DOCKED: REMARK  6 active torsions:
DOCKED: REMARK  status: ('A' for Active; 'I' for Inactive)
DOCKED: REMARK    1  A    between atoms: P_1  and  O_3 
DOCKED: REMARK    2  A    between atoms: P_2  and  O_4 
DOCKED: REMARK    3  A    between atoms: O_3  and  C_13 
DOCKED: REMARK    4  A    between atoms: O_4  and  C_14 
DOCKED: REMARK    5  A    between atoms: C_13  and  C_14 
DOCKED: REMARK    6  A    between atoms: C_13  and  C_15 
DOCKED: USER                              x       y       z     vdW  Elec       q    Type
DOCKED: USER                           _______ _______ _______ _____ _____    ______ ____
DOCKED: ROOT
DOCKED: ATOM      1  C   UNL d   1      -8.233 -18.856   4.902 -0.08 +0.34    +0.193 C 
DOCKED: ENDROOT
DOCKED: BRANCH   1   2
DOCKED: ATOM      2  O   UNL d   1      -9.238 -17.992   4.273 -0.27 -0.84    -0.356 OA
DOCKED: BRANCH   2   3
DOCKED: ATOM      3  P   UNL d   1     -10.609 -17.498   5.035 -0.26 -0.03    -0.014 P 
DOCKED: ATOM      4  O   UNL d   1     -11.748 -17.969   4.118 -0.02 -0.63    -0.577 OA
DOCKED: ATOM      5  O   UNL d   1     -10.553 -15.974   5.124 -0.46 -1.33    -0.577 OA
DOCKED: ATOM      6  O   UNL d   1     -10.665 -18.184   6.396 -0.40 -1.61    -0.638 OA
DOCKED: ENDBRANCH   2   3
DOCKED: ENDBRANCH   1   2
DOCKED: BRANCH   1   7
DOCKED: ATOM      7  C   UNL d   1      -7.777 -18.197   6.256 -0.09 +0.42    +0.201 C 
DOCKED: BRANCH   7   8
DOCKED: ATOM      8  O   UNL d   1      -8.024 -16.779   6.381 -0.10 -1.21    -0.364 OA
DOCKED: BRANCH   8   9
DOCKED: ATOM      9  P   UNL d   1      -6.886 -15.796   7.071 -0.06 -0.03    -0.015 P 
DOCKED: ATOM     10  O   UNL d   1      -7.387 -14.369   6.819 -0.17 -1.10    -0.577 OA
DOCKED: ATOM     11  O   UNL d   1      -5.565 -16.072   6.355 -0.58 -1.02    -0.577 OA
DOCKED: ATOM     12  O   UNL d   1      -6.841 -16.134   8.561 -0.59 -1.13    -0.638 OA
DOCKED: ENDBRANCH   8   9
DOCKED: ENDBRANCH   7   8
DOCKED: ENDBRANCH   1   7
DOCKED: BRANCH   1  13
DOCKED: ATOM     13  C   UNL d   1      -6.979 -18.998   3.962 -0.11 +0.12    +0.073 C 
DOCKED: ATOM     14  O   UNL d   1      -6.175 -19.976   4.160 +0.02 -0.56    -0.547 OA
DOCKED: ATOM     15  O   UNL d   1      -6.870 -18.152   3.003 -0.33 -1.50    -0.547 OA
DOCKED: ENDBRANCH   1  13
DOCKED: TORSDOF 6
DOCKED: TER
DOCKED: ENDMDL
________________________________________________________________________________


	BEGINNING GENETIC ALGORITHM DOCKING 62 of 100
Run: 62 Seed: 1969595685 2017550322 [ Run 62 of 100 GA/GALS ]
Beginning LAMARCKIAN GENETIC ALGORITHM (LGA), with a maximum of 25000000 energy evaluations.

Final-Value: -10.412


	FINAL GENETIC ALGORITHM DOCKED STATE
	_______________________________________________


Detailed state:  trans -7.793 -18.789 5.100 quatxyzw 0.518945 -0.363097 0.099576 -0.767425 center 0.015 0.083 0.031 ntor 6 -173.9667 93.1679 35.8076 57.3504 -44.6255 136.9822
State:	 -7.793 -18.789   5.100   0.809 -0.566  0.155 -79.754   -173.97   93.17   35.81   57.35  -44.63  136.98

DOCKED: MODEL       62
DOCKED: USER    Run = 62
DOCKED: USER    DPF = D:/Protein_go_brrr/autodock/final/AncB/2_3_BPG/dock.dpf
DOCKED: USER  
DOCKED: USER    Estimated Free Energy of Binding    =  -11.13 kcal/mol  [=(1)+(2)+(3)-(4)]
DOCKED: USER    Estimated Inhibition Constant, Ki   =    6.92 nM (nanomolar)  [Temperature = 298.15 K]
DOCKED: USER    
DOCKED: USER    (1) Final Intermolecular Energy     =  -12.92 kcal/mol
DOCKED: USER        vdW + Hbond + desolv Energy     =   -2.75 kcal/mol
DOCKED: USER        Electrostatic Energy            =  -10.17 kcal/mol
DOCKED: USER    (2) Final Total Internal Energy     =   +2.51 kcal/mol
DOCKED: USER    (3) Torsional Free Energy           =   +1.79 kcal/mol
DOCKED: USER    (4) Unbound System's Energy  [=(2)] =   +2.51 kcal/mol
DOCKED: USER    
DOCKED: USER    
DOCKED: USER    NEWDPF move 2_3_BPG_opt.pdbqt
DOCKED: USER    NEWDPF about 0.015000 0.083000 0.031000
DOCKED: USER    NEWDPF tran0 -7.792875 -18.789364 5.099557
DOCKED: USER    NEWDPF quaternion0 0.518945 -0.363097 0.099576 -0.767425
DOCKED: USER    NEWDPF axisangle0 0.809411 -0.566332 0.155311 -79.753599
DOCKED: USER    NEWDPF quat0 0.809411 -0.566332 0.155311 -79.753599
DOCKED: USER    NEWDPF dihe0 -173.97 93.17 35.81 57.35 -44.63 136.98 
DOCKED: USER  keepresnum = 1 
DOCKED: USER  
DOCKED: REMARK  6 active torsions:
DOCKED: REMARK  status: ('A' for Active; 'I' for Inactive)
DOCKED: REMARK    1  A    between atoms: P_1  and  O_3 
DOCKED: REMARK    2  A    between atoms: P_2  and  O_4 
DOCKED: REMARK    3  A    between atoms: O_3  and  C_13 
DOCKED: REMARK    4  A    between atoms: O_4  and  C_14 
DOCKED: REMARK    5  A    between atoms: C_13  and  C_14 
DOCKED: REMARK    6  A    between atoms: C_13  and  C_15 
DOCKED: USER                              x       y       z     vdW  Elec       q    Type
DOCKED: USER                           _______ _______ _______ _____ _____    ______ ____
DOCKED: ROOT
DOCKED: ATOM      1  C   UNL d   1      -8.090 -18.877   4.505 -0.06 +0.35    +0.193 C 
DOCKED: ENDROOT
DOCKED: BRANCH   1   2
DOCKED: ATOM      2  O   UNL d   1      -8.973 -17.730   4.262 -0.04 -1.03    -0.356 OA
DOCKED: BRANCH   2   3
DOCKED: ATOM      3  P   UNL d   1     -10.419 -17.529   5.018 -0.24 -0.03    -0.014 P 
DOCKED: ATOM      4  O   UNL d   1     -11.435 -18.214   4.091 -0.01 -0.66    -0.577 OA
DOCKED: ATOM      5  O   UNL d   1     -10.673 -16.026   5.116 -0.43 -1.27    -0.577 OA
DOCKED: ATOM      6  O   UNL d   1     -10.342 -18.222   6.374 -0.24 -1.69    -0.638 OA
DOCKED: ENDBRANCH   2   3
DOCKED: ENDBRANCH   1   2
DOCKED: BRANCH   1   7
DOCKED: ATOM      7  C   UNL d   1      -7.173 -18.555   5.742 -0.07 +0.35    +0.201 C 
DOCKED: BRANCH   7   8
DOCKED: ATOM      8  O   UNL d   1      -6.263 -17.444   5.581 -0.15 -0.85    -0.364 OA
DOCKED: BRANCH   8   9
DOCKED: ATOM      9  P   UNL d   1      -6.037 -16.371   6.819 -0.13 -0.03    -0.015 P 
DOCKED: ATOM     10  O   UNL d   1      -5.908 -15.001   6.141 -0.42 -1.17    -0.577 OA
DOCKED: ATOM     11  O   UNL d   1      -4.748 -16.778   7.533 +0.02 -0.52    -0.577 OA
DOCKED: ATOM     12  O   UNL d   1      -7.270 -16.452   7.718 -0.50 -1.72    -0.638 OA
DOCKED: ENDBRANCH   8   9
DOCKED: ENDBRANCH   7   8
DOCKED: ENDBRANCH   1   7
DOCKED: BRANCH   1  13
DOCKED: ATOM     13  C   UNL d   1      -7.173 -19.127   3.250 -0.08 +0.13    +0.073 C 
DOCKED: ATOM     14  O   UNL d   1      -7.245 -20.259   2.656 -0.02 -0.65    -0.547 OA
DOCKED: ATOM     15  O   UNL d   1      -6.445 -18.146   2.856 -0.40 -1.39    -0.547 OA
DOCKED: ENDBRANCH   1  13
DOCKED: TORSDOF 6
DOCKED: TER
DOCKED: ENDMDL
________________________________________________________________________________


	BEGINNING GENETIC ALGORITHM DOCKING 63 of 100
Run: 63 Seed: 1624323425 1226282792 [ Run 63 of 100 GA/GALS ]
Beginning LAMARCKIAN GENETIC ALGORITHM (LGA), with a maximum of 25000000 energy evaluations.

Final-Value: -9.921


	FINAL GENETIC ALGORITHM DOCKED STATE
	_______________________________________________


Detailed state:  trans -6.769 -18.947 3.764 quatxyzw 0.040441 -0.869373 -0.346549 -0.349940 center 0.015 0.083 0.031 ntor 6 72.0732 97.1496 48.6751 6.2027 62.4748 -11.8486
State:	 -6.769 -18.947   3.764   0.043 -0.928 -0.370 -139.033     72.07   97.15   48.68    6.20   62.47  -11.85

DOCKED: MODEL       63
DOCKED: USER    Run = 63
DOCKED: USER    DPF = D:/Protein_go_brrr/autodock/final/AncB/2_3_BPG/dock.dpf
DOCKED: USER  
DOCKED: USER    Estimated Free Energy of Binding    =  -10.41 kcal/mol  [=(1)+(2)+(3)-(4)]
DOCKED: USER    Estimated Inhibition Constant, Ki   =   23.34 nM (nanomolar)  [Temperature = 298.15 K]
DOCKED: USER    
DOCKED: USER    (1) Final Intermolecular Energy     =  -12.20 kcal/mol
DOCKED: USER        vdW + Hbond + desolv Energy     =   -2.61 kcal/mol
DOCKED: USER        Electrostatic Energy            =   -9.59 kcal/mol
DOCKED: USER    (2) Final Total Internal Energy     =   +2.28 kcal/mol
DOCKED: USER    (3) Torsional Free Energy           =   +1.79 kcal/mol
DOCKED: USER    (4) Unbound System's Energy  [=(2)] =   +2.28 kcal/mol
DOCKED: USER    
DOCKED: USER    
DOCKED: USER    NEWDPF move 2_3_BPG_opt.pdbqt
DOCKED: USER    NEWDPF about 0.015000 0.083000 0.031000
DOCKED: USER    NEWDPF tran0 -6.768512 -18.947221 3.764430
DOCKED: USER    NEWDPF quaternion0 0.040441 -0.869373 -0.346549 -0.349940
DOCKED: USER    NEWDPF axisangle0 0.043171 -0.928052 -0.369940 -139.032705
DOCKED: USER    NEWDPF quat0 0.043171 -0.928052 -0.369940 -139.032705
DOCKED: USER    NEWDPF dihe0 72.07 97.15 48.68 6.20 62.47 -11.85 
DOCKED: USER  keepresnum = 1 
DOCKED: USER  
DOCKED: REMARK  6 active torsions:
DOCKED: REMARK  status: ('A' for Active; 'I' for Inactive)
DOCKED: REMARK    1  A    between atoms: P_1  and  O_3 
DOCKED: REMARK    2  A    between atoms: P_2  and  O_4 
DOCKED: REMARK    3  A    between atoms: O_3  and  C_13 
DOCKED: REMARK    4  A    between atoms: O_4  and  C_14 
DOCKED: REMARK    5  A    between atoms: C_13  and  C_14 
DOCKED: REMARK    6  A    between atoms: C_13  and  C_15 
DOCKED: USER                              x       y       z     vdW  Elec       q    Type
DOCKED: USER                           _______ _______ _______ _____ _____    ______ ____
DOCKED: ROOT
DOCKED: ATOM      1  C   UNL d   1      -6.441 -18.947   3.180 -0.06 +0.34    +0.193 C 
DOCKED: ENDROOT
DOCKED: BRANCH   1   2
DOCKED: ATOM      2  O   UNL d   1      -5.105 -18.384   3.405 -0.11 -0.52    -0.356 OA
DOCKED: BRANCH   2   3
DOCKED: ATOM      3  P   UNL d   1      -4.499 -17.123   2.540 -0.26 -0.02    -0.014 P 
DOCKED: ATOM      4  O   UNL d   1      -3.858 -17.777   1.306 -0.60 -0.80    -0.577 OA
DOCKED: ATOM      5  O   UNL d   1      -3.455 -16.433   3.416 -0.02 -0.53    -0.577 OA
DOCKED: ATOM      6  O   UNL d   1      -5.662 -16.215   2.152 +0.10 -1.75    -0.638 OA
DOCKED: ENDBRANCH   2   3
DOCKED: ENDBRANCH   1   2
DOCKED: BRANCH   1   7
DOCKED: ATOM      7  C   UNL d   1      -7.113 -19.226   4.574 -0.06 +0.30    +0.201 C 
DOCKED: BRANCH   7   8
DOCKED: ATOM      8  O   UNL d   1      -8.549 -19.075   4.624 -0.04 -0.58    -0.364 OA
DOCKED: BRANCH   8   9
DOCKED: ATOM      9  P   UNL d   1      -9.226 -17.881   5.547 -0.01 -0.04    -0.015 P 
DOCKED: ATOM     10  O   UNL d   1     -10.286 -18.589   6.400 -0.51 -1.30    -0.577 OA
DOCKED: ATOM     11  O   UNL d   1      -9.850 -16.872   4.583 -0.53 -1.67    -0.577 OA
DOCKED: ATOM     12  O   UNL d   1      -8.109 -17.281   6.400 -0.05 -1.93    -0.638 OA
DOCKED: ENDBRANCH   8   9
DOCKED: ENDBRANCH   7   8
DOCKED: ENDBRANCH   1   7
DOCKED: BRANCH   1  13
DOCKED: ATOM     13  C   UNL d   1      -6.328 -20.306   2.393 -0.03 +0.09    +0.073 C 
DOCKED: ATOM     14  O   UNL d   1      -6.882 -21.348   2.891 +0.01 -0.42    -0.547 OA
DOCKED: ATOM     15  O   UNL d   1      -5.735 -20.272   1.255 -0.44 -0.73    -0.547 OA
DOCKED: ENDBRANCH   1  13
DOCKED: TORSDOF 6
DOCKED: TER
DOCKED: ENDMDL
________________________________________________________________________________


	BEGINNING GENETIC ALGORITHM DOCKING 64 of 100
Run: 64 Seed: 67163615 1217179369 [ Run 64 of 100 GA/GALS ]
Beginning LAMARCKIAN GENETIC ALGORITHM (LGA), with a maximum of 25000000 energy evaluations.

Final-Value: -10.807


	FINAL GENETIC ALGORITHM DOCKED STATE
	_______________________________________________


Detailed state:  trans -6.990 -18.342 6.108 quatxyzw -0.248875 0.455628 -0.830052 -0.203660 center 0.015 0.083 0.031 ntor 6 -41.1255 -176.9576 38.6710 83.8824 60.5027 170.1897
State:	 -6.990 -18.342   6.108  -0.254  0.465 -0.848 -156.498    -41.13 -176.96   38.67   83.88   60.50  170.19

DOCKED: MODEL       64
DOCKED: USER    Run = 64
DOCKED: USER    DPF = D:/Protein_go_brrr/autodock/final/AncB/2_3_BPG/dock.dpf
DOCKED: USER  
DOCKED: USER    Estimated Free Energy of Binding    =  -11.65 kcal/mol  [=(1)+(2)+(3)-(4)]
DOCKED: USER    Estimated Inhibition Constant, Ki   =    2.89 nM (nanomolar)  [Temperature = 298.15 K]
DOCKED: USER    
DOCKED: USER    (1) Final Intermolecular Energy     =  -13.44 kcal/mol
DOCKED: USER        vdW + Hbond + desolv Energy     =   -2.76 kcal/mol
DOCKED: USER        Electrostatic Energy            =  -10.68 kcal/mol
DOCKED: USER    (2) Final Total Internal Energy     =   +2.63 kcal/mol
DOCKED: USER    (3) Torsional Free Energy           =   +1.79 kcal/mol
DOCKED: USER    (4) Unbound System's Energy  [=(2)] =   +2.63 kcal/mol
DOCKED: USER    
DOCKED: USER    
DOCKED: USER    NEWDPF move 2_3_BPG_opt.pdbqt
DOCKED: USER    NEWDPF about 0.015000 0.083000 0.031000
DOCKED: USER    NEWDPF tran0 -6.990448 -18.341570 6.108094
DOCKED: USER    NEWDPF quaternion0 -0.248875 0.455628 -0.830052 -0.203660
DOCKED: USER    NEWDPF axisangle0 -0.254203 0.465382 -0.847821 -156.497876
DOCKED: USER    NEWDPF quat0 -0.254203 0.465382 -0.847821 -156.497876
DOCKED: USER    NEWDPF dihe0 -41.13 -176.96 38.67 83.88 60.50 170.19 
DOCKED: USER  keepresnum = 1 
DOCKED: USER  
DOCKED: REMARK  6 active torsions:
DOCKED: REMARK  status: ('A' for Active; 'I' for Inactive)
DOCKED: REMARK    1  A    between atoms: P_1  and  O_3 
DOCKED: REMARK    2  A    between atoms: P_2  and  O_4 
DOCKED: REMARK    3  A    between atoms: O_3  and  C_13 
DOCKED: REMARK    4  A    between atoms: O_4  and  C_14 
DOCKED: REMARK    5  A    between atoms: C_13  and  C_14 
DOCKED: REMARK    6  A    between atoms: C_13  and  C_15 
DOCKED: USER                              x       y       z     vdW  Elec       q    Type
DOCKED: USER                           _______ _______ _______ _____ _____    ______ ____
DOCKED: ROOT
DOCKED: ATOM      1  C   UNL d   1      -6.505 -17.915   6.285 -0.07 +0.34    +0.193 C 
DOCKED: ENDROOT
DOCKED: BRANCH   1   2
DOCKED: ATOM      2  O   UNL d   1      -5.968 -17.301   5.065 +0.04 -0.91    -0.356 OA
DOCKED: BRANCH   2   3
DOCKED: ATOM      3  P   UNL d   1      -5.531 -18.166   3.737 -0.12 -0.02    -0.014 P 
DOCKED: ATOM      4  O   UNL d   1      -5.796 -19.628   4.127 +0.01 -0.63    -0.577 OA
DOCKED: ATOM      5  O   UNL d   1      -4.044 -17.909   3.499 -0.00 -0.63    -0.577 OA
DOCKED: ATOM      6  O   UNL d   1      -6.417 -17.727   2.576 -0.35 -1.94    -0.638 OA
DOCKED: ENDBRANCH   2   3
DOCKED: ENDBRANCH   1   2
DOCKED: BRANCH   1   7
DOCKED: ATOM      7  C   UNL d   1      -7.825 -18.689   5.922 -0.09 +0.36    +0.201 C 
DOCKED: BRANCH   7   8
DOCKED: ATOM      8  O   UNL d   1      -8.591 -18.149   4.822 -0.15 -0.88    -0.364 OA
DOCKED: BRANCH   8   9
DOCKED: ATOM      9  P   UNL d   1     -10.117 -17.567   5.081 -0.16 -0.03    -0.015 P 
DOCKED: ATOM     10  O   UNL d   1     -10.937 -18.050   3.879 -0.04 -0.77    -0.577 OA
DOCKED: ATOM     11  O   UNL d   1     -10.012 -16.042   5.125 -0.51 -1.68    -0.577 OA
DOCKED: ATOM     12  O   UNL d   1     -10.614 -18.170   6.394 -0.36 -1.64    -0.638 OA
DOCKED: ENDBRANCH   8   9
DOCKED: ENDBRANCH   7   8
DOCKED: ENDBRANCH   1   7
DOCKED: BRANCH   1  13
DOCKED: ATOM     13  C   UNL d   1      -6.848 -16.801   7.344 -0.07 +0.16    +0.073 C 
DOCKED: ATOM     14  O   UNL d   1      -6.867 -15.579   6.961 -0.48 -1.23    -0.547 OA
DOCKED: ATOM     15  O   UNL d   1      -7.153 -17.196   8.527 -0.42 -1.18    -0.547 OA
DOCKED: ENDBRANCH   1  13
DOCKED: TORSDOF 6
DOCKED: TER
DOCKED: ENDMDL
________________________________________________________________________________


	BEGINNING GENETIC ALGORITHM DOCKING 65 of 100
Run: 65 Seed: 91764820 353853577 [ Run 65 of 100 GA/GALS ]
Beginning LAMARCKIAN GENETIC ALGORITHM (LGA), with a maximum of 25000000 energy evaluations.

Final-Value: -9.390


	FINAL GENETIC ALGORITHM DOCKED STATE
	_______________________________________________


Detailed state:  trans -1.113 1.069 -13.625 quatxyzw 0.083814 0.138817 -0.341649 0.925733 center 0.015 0.083 0.031 ntor 6 131.1709 28.8817 123.3434 34.8494 10.2087 -69.4066
State:	 -1.113   1.069 -13.625   0.222  0.367 -0.903 44.442    131.17   28.88  123.34   34.85   10.21  -69.41

DOCKED: MODEL       65
DOCKED: USER    Run = 65
DOCKED: USER    DPF = D:/Protein_go_brrr/autodock/final/AncB/2_3_BPG/dock.dpf
DOCKED: USER  
DOCKED: USER    Estimated Free Energy of Binding    =   -9.73 kcal/mol  [=(1)+(2)+(3)-(4)]
DOCKED: USER    Estimated Inhibition Constant, Ki   =   74.03 nM (nanomolar)  [Temperature = 298.15 K]
DOCKED: USER    
DOCKED: USER    (1) Final Intermolecular Energy     =  -11.52 kcal/mol
DOCKED: USER        vdW + Hbond + desolv Energy     =   -3.91 kcal/mol
DOCKED: USER        Electrostatic Energy            =   -7.61 kcal/mol
DOCKED: USER    (2) Final Total Internal Energy     =   +2.13 kcal/mol
DOCKED: USER    (3) Torsional Free Energy           =   +1.79 kcal/mol
DOCKED: USER    (4) Unbound System's Energy  [=(2)] =   +2.13 kcal/mol
DOCKED: USER    
DOCKED: USER    
DOCKED: USER    NEWDPF move 2_3_BPG_opt.pdbqt
DOCKED: USER    NEWDPF about 0.015000 0.083000 0.031000
DOCKED: USER    NEWDPF tran0 -1.113338 1.068560 -13.625495
DOCKED: USER    NEWDPF quaternion0 0.083814 0.138817 -0.341649 0.925733
DOCKED: USER    NEWDPF axisangle0 0.221625 0.367068 -0.903407 44.441807
DOCKED: USER    NEWDPF quat0 0.221625 0.367068 -0.903407 44.441807
DOCKED: USER    NEWDPF dihe0 131.17 28.88 123.34 34.85 10.21 -69.41 
DOCKED: USER  keepresnum = 1 
DOCKED: USER  
DOCKED: REMARK  6 active torsions:
DOCKED: REMARK  status: ('A' for Active; 'I' for Inactive)
DOCKED: REMARK    1  A    between atoms: P_1  and  O_3 
DOCKED: REMARK    2  A    between atoms: P_2  and  O_4 
DOCKED: REMARK    3  A    between atoms: O_3  and  C_13 
DOCKED: REMARK    4  A    between atoms: O_4  and  C_14 
DOCKED: REMARK    5  A    between atoms: C_13  and  C_14 
DOCKED: REMARK    6  A    between atoms: C_13  and  C_15 
DOCKED: USER                              x       y       z     vdW  Elec       q    Type
DOCKED: USER                           _______ _______ _______ _____ _____    ______ ____
DOCKED: ROOT
DOCKED: ATOM      1  C   UNL d   1      -1.379   0.455 -13.576 -0.16 +0.24    +0.193 C 
DOCKED: ENDROOT
DOCKED: BRANCH   1   2
DOCKED: ATOM      2  O   UNL d   1      -2.428   0.328 -14.595 -0.32 -0.61    -0.356 OA
DOCKED: BRANCH   2   3
DOCKED: ATOM      3  P   UNL d   1      -4.026   0.552 -14.278 -0.16 -0.02    -0.014 P 
DOCKED: ATOM      4  O   UNL d   1      -4.749  -0.264 -15.361 -0.02 -0.94    -0.577 OA
DOCKED: ATOM      5  O   UNL d   1      -4.310   2.046 -14.417 -0.57 -1.19    -0.577 OA
DOCKED: ATOM      6  O   UNL d   1      -4.310   0.006 -12.883 -0.03 -1.09    -0.638 OA
DOCKED: ENDBRANCH   2   3
DOCKED: ENDBRANCH   1   2
DOCKED: BRANCH   1   7
DOCKED: ATOM      7  C   UNL d   1      -0.554   1.763 -13.862 -0.15 +0.21    +0.201 C 
DOCKED: BRANCH   7   8
DOCKED: ATOM      8  O   UNL d   1      -1.036   2.965 -13.221 -0.47 -0.54    -0.364 OA
DOCKED: BRANCH   8   9
DOCKED: ATOM      9  P   UNL d   1      -0.464   4.444 -13.695 -0.27 -0.02    -0.015 P 
DOCKED: ATOM     10  O   UNL d   1       1.061   4.338 -13.577 -0.49 -0.49    -0.577 OA
DOCKED: ATOM     11  O   UNL d   1      -1.042   5.476 -12.726 -0.53 -0.91    -0.577 OA
DOCKED: ATOM     12  O   UNL d   1      -0.915   4.661 -15.139 -0.31 -1.11    -0.638 OA
DOCKED: ENDBRANCH   8   9
DOCKED: ENDBRANCH   7   8
DOCKED: ENDBRANCH   1   7
DOCKED: BRANCH   1  13
DOCKED: ATOM     13  C   UNL d   1      -0.406  -0.780 -13.647 -0.23 +0.08    +0.073 C 
DOCKED: ATOM     14  O   UNL d   1       0.517  -0.883 -12.765 -0.05 -0.40    -0.547 OA
DOCKED: ATOM     15  O   UNL d   1      -0.639  -1.655 -14.558 -0.14 -0.81    -0.547 OA
DOCKED: ENDBRANCH   1  13
DOCKED: TORSDOF 6
DOCKED: TER
DOCKED: ENDMDL
________________________________________________________________________________


	BEGINNING GENETIC ALGORITHM DOCKING 66 of 100
Run: 66 Seed: 1226888426 517393631 [ Run 66 of 100 GA/GALS ]
Beginning LAMARCKIAN GENETIC ALGORITHM (LGA), with a maximum of 25000000 energy evaluations.

Final-Value: -10.616


	FINAL GENETIC ALGORITHM DOCKED STATE
	_______________________________________________


Detailed state:  trans -6.728 -18.055 5.868 quatxyzw 0.224228 -0.449040 0.857928 0.109746 center 0.015 0.083 0.031 ntor 6 -54.4622 -110.0166 158.0394 99.9990 -21.6669 104.3170
State:	 -6.728 -18.055   5.868   0.226 -0.452  0.863 167.399    -54.46 -110.02  158.04  100.00  -21.67  104.32

DOCKED: MODEL       66
DOCKED: USER    Run = 66
DOCKED: USER    DPF = D:/Protein_go_brrr/autodock/final/AncB/2_3_BPG/dock.dpf
DOCKED: USER  
DOCKED: USER    Estimated Free Energy of Binding    =  -11.53 kcal/mol  [=(1)+(2)+(3)-(4)]
DOCKED: USER    Estimated Inhibition Constant, Ki   =    3.52 nM (nanomolar)  [Temperature = 298.15 K]
DOCKED: USER    
DOCKED: USER    (1) Final Intermolecular Energy     =  -13.32 kcal/mol
DOCKED: USER        vdW + Hbond + desolv Energy     =   -3.32 kcal/mol
DOCKED: USER        Electrostatic Energy            =  -10.00 kcal/mol
DOCKED: USER    (2) Final Total Internal Energy     =   +2.71 kcal/mol
DOCKED: USER    (3) Torsional Free Energy           =   +1.79 kcal/mol
DOCKED: USER    (4) Unbound System's Energy  [=(2)] =   +2.71 kcal/mol
DOCKED: USER    
DOCKED: USER    
DOCKED: USER    NEWDPF move 2_3_BPG_opt.pdbqt
DOCKED: USER    NEWDPF about 0.015000 0.083000 0.031000
DOCKED: USER    NEWDPF tran0 -6.727573 -18.055101 5.868033
DOCKED: USER    NEWDPF quaternion0 0.224228 -0.449040 0.857928 0.109746
DOCKED: USER    NEWDPF axisangle0 0.225591 -0.451769 0.863142 167.398598
DOCKED: USER    NEWDPF quat0 0.225591 -0.451769 0.863142 167.398598
DOCKED: USER    NEWDPF dihe0 -54.46 -110.02 158.04 100.00 -21.67 104.32 
DOCKED: USER  keepresnum = 1 
DOCKED: USER  
DOCKED: REMARK  6 active torsions:
DOCKED: REMARK  status: ('A' for Active; 'I' for Inactive)
DOCKED: REMARK    1  A    between atoms: P_1  and  O_3 
DOCKED: REMARK    2  A    between atoms: P_2  and  O_4 
DOCKED: REMARK    3  A    between atoms: O_3  and  C_13 
DOCKED: REMARK    4  A    between atoms: O_4  and  C_14 
DOCKED: REMARK    5  A    between atoms: C_13  and  C_14 
DOCKED: REMARK    6  A    between atoms: C_13  and  C_15 
DOCKED: USER                              x       y       z     vdW  Elec       q    Type
DOCKED: USER                           _______ _______ _______ _____ _____    ______ ____
DOCKED: ROOT
DOCKED: ATOM      1  C   UNL d   1      -6.166 -17.715   6.002 -0.03 +0.35    +0.193 C 
DOCKED: ENDROOT
DOCKED: BRANCH   1   2
DOCKED: ATOM      2  O   UNL d   1      -5.568 -17.299   4.729 -0.09 -0.80    -0.356 OA
DOCKED: BRANCH   2   3
DOCKED: ATOM      3  P   UNL d   1      -5.684 -18.181   3.346 -0.06 -0.03    -0.014 P 
DOCKED: ATOM      4  O   UNL d   1      -7.180 -18.149   2.996 -0.24 -1.62    -0.577 OA
DOCKED: ATOM      5  O   UNL d   1      -5.214 -19.597   3.671 +0.01 -0.59    -0.577 OA
DOCKED: ATOM      6  O   UNL d   1      -4.844 -17.493   2.275 -0.26 -1.17    -0.638 OA
DOCKED: ENDBRANCH   2   3
DOCKED: ENDBRANCH   1   2
DOCKED: BRANCH   1   7
DOCKED: ATOM      7  C   UNL d   1      -7.618 -18.253   5.726 -0.04 +0.42    +0.201 C 
DOCKED: BRANCH   7   8
DOCKED: ATOM      8  O   UNL d   1      -8.689 -17.303   5.920 -0.16 -1.15    -0.364 OA
DOCKED: BRANCH   8   9
DOCKED: ATOM      9  P   UNL d   1     -10.173 -17.576   5.242 -0.13 -0.03    -0.015 P 
DOCKED: ATOM     10  O   UNL d   1      -9.918 -18.589   4.119 -0.04 -0.89    -0.577 OA
DOCKED: ATOM     11  O   UNL d   1     -10.670 -16.236   4.700 -0.59 -1.20    -0.577 OA
DOCKED: ATOM     12  O   UNL d   1     -11.072 -18.148   6.337 -0.46 -1.39    -0.638 OA
DOCKED: ENDBRANCH   8   9
DOCKED: ENDBRANCH   7   8
DOCKED: ENDBRANCH   1   7
DOCKED: BRANCH   1  13
DOCKED: ATOM     13  C   UNL d   1      -6.260 -16.486   6.981 -0.14 +0.14    +0.073 C 
DOCKED: ATOM     14  O   UNL d   1      -5.820 -15.351   6.582 -0.46 -0.95    -0.547 OA
DOCKED: ATOM     15  O   UNL d   1      -6.838 -16.683   8.110 -0.63 -1.08    -0.547 OA
DOCKED: ENDBRANCH   1  13
DOCKED: TORSDOF 6
DOCKED: TER
DOCKED: ENDMDL
________________________________________________________________________________


	BEGINNING GENETIC ALGORITHM DOCKING 67 of 100
Run: 67 Seed: 1849794641 1402789856 [ Run 67 of 100 GA/GALS ]
Beginning LAMARCKIAN GENETIC ALGORITHM (LGA), with a maximum of 25000000 energy evaluations.

Final-Value: -10.279


	FINAL GENETIC ALGORITHM DOCKED STATE
	_______________________________________________


Detailed state:  trans -6.429 -17.583 6.023 quatxyzw -0.812231 0.066880 0.102496 -0.570353 center 0.015 0.083 0.031 ntor 6 -154.6927 51.6582 -156.6040 17.7669 71.4221 -36.5830
State:	 -6.429 -17.583   6.023  -0.989  0.081  0.125 -110.450   -154.69   51.66 -156.60   17.77   71.42  -36.58

DOCKED: MODEL       67
DOCKED: USER    Run = 67
DOCKED: USER    DPF = D:/Protein_go_brrr/autodock/final/AncB/2_3_BPG/dock.dpf
DOCKED: USER  
DOCKED: USER    Estimated Free Energy of Binding    =  -10.91 kcal/mol  [=(1)+(2)+(3)-(4)]
DOCKED: USER    Estimated Inhibition Constant, Ki   =   10.11 nM (nanomolar)  [Temperature = 298.15 K]
DOCKED: USER    
DOCKED: USER    (1) Final Intermolecular Energy     =  -12.70 kcal/mol
DOCKED: USER        vdW + Hbond + desolv Energy     =   -2.31 kcal/mol
DOCKED: USER        Electrostatic Energy            =  -10.38 kcal/mol
DOCKED: USER    (2) Final Total Internal Energy     =   +2.42 kcal/mol
DOCKED: USER    (3) Torsional Free Energy           =   +1.79 kcal/mol
DOCKED: USER    (4) Unbound System's Energy  [=(2)] =   +2.42 kcal/mol
DOCKED: USER    
DOCKED: USER    
DOCKED: USER    NEWDPF move 2_3_BPG_opt.pdbqt
DOCKED: USER    NEWDPF about 0.015000 0.083000 0.031000
DOCKED: USER    NEWDPF tran0 -6.428800 -17.583461 6.023258
DOCKED: USER    NEWDPF quaternion0 -0.812231 0.066880 0.102496 -0.570353
DOCKED: USER    NEWDPF axisangle0 -0.988838 0.081422 0.124782 -110.450277
DOCKED: USER    NEWDPF quat0 -0.988838 0.081422 0.124782 -110.450277
DOCKED: USER    NEWDPF dihe0 -154.69 51.66 -156.60 17.77 71.42 -36.58 
DOCKED: USER  keepresnum = 1 
DOCKED: USER  
DOCKED: REMARK  6 active torsions:
DOCKED: REMARK  status: ('A' for Active; 'I' for Inactive)
DOCKED: REMARK    1  A    between atoms: P_1  and  O_3 
DOCKED: REMARK    2  A    between atoms: P_2  and  O_4 
DOCKED: REMARK    3  A    between atoms: O_3  and  C_13 
DOCKED: REMARK    4  A    between atoms: O_4  and  C_14 
DOCKED: REMARK    5  A    between atoms: C_13  and  C_14 
DOCKED: REMARK    6  A    between atoms: C_13  and  C_15 
DOCKED: USER                              x       y       z     vdW  Elec       q    Type
DOCKED: USER                           _______ _______ _______ _____ _____    ______ ____
DOCKED: ROOT
DOCKED: ATOM      1  C   UNL d   1      -6.935 -17.395   6.420 -0.02 +0.43    +0.193 C 
DOCKED: ENDROOT
DOCKED: BRANCH   1   2
DOCKED: ATOM      2  O   UNL d   1      -8.076 -18.280   6.157 -0.09 -0.77    -0.356 OA
DOCKED: BRANCH   2   3
DOCKED: ATOM      3  P   UNL d   1      -9.490 -17.759   5.498 -0.00 -0.04    -0.014 P 
DOCKED: ATOM      4  O   UNL d   1     -10.578 -18.362   6.400 -0.45 -1.37    -0.577 OA
DOCKED: ATOM      5  O   UNL d   1      -9.561 -18.320   4.079 -0.15 -1.08    -0.577 OA
DOCKED: ATOM      6  O   UNL d   1      -9.501 -16.235   5.551 -0.15 -2.17    -0.638 OA
DOCKED: ENDBRANCH   2   3
DOCKED: ENDBRANCH   1   2
DOCKED: BRANCH   1   7
DOCKED: ATOM      7  C   UNL d   1      -5.659 -17.995   5.723 -0.04 +0.30    +0.201 C 
DOCKED: BRANCH   7   8
DOCKED: ATOM      8  O   UNL d   1      -4.992 -17.131   4.777 -0.17 -0.63    -0.364 OA
DOCKED: BRANCH   8   9
DOCKED: ATOM      9  P   UNL d   1      -5.138 -17.408   3.153 -0.09 -0.03    -0.015 P 
DOCKED: ATOM     10  O   UNL d   1      -6.471 -18.150   2.993 -0.41 -1.46    -0.577 OA
DOCKED: ATOM     11  O   UNL d   1      -3.949 -18.275   2.739 -0.03 -0.61    -0.577 OA
DOCKED: ATOM     12  O   UNL d   1      -5.154 -16.046   2.462 -0.13 -1.38    -0.638 OA
DOCKED: ENDBRANCH   8   9
DOCKED: ENDBRANCH   7   8
DOCKED: ENDBRANCH   1   7
DOCKED: BRANCH   1  13
DOCKED: ATOM     13  C   UNL d   1      -6.668 -17.304   7.969 -0.06 +0.13    +0.073 C 
DOCKED: ATOM     14  O   UNL d   1      -7.086 -16.271   8.601 -0.51 -1.16    -0.547 OA
DOCKED: ATOM     15  O   UNL d   1      -6.096 -18.311   8.521 -0.01 -0.55    -0.547 OA
DOCKED: ENDBRANCH   1  13
DOCKED: TORSDOF 6
DOCKED: TER
DOCKED: ENDMDL
________________________________________________________________________________


	BEGINNING GENETIC ALGORITHM DOCKING 68 of 100
Run: 68 Seed: 1984951464 1166422160 [ Run 68 of 100 GA/GALS ]
Beginning LAMARCKIAN GENETIC ALGORITHM (LGA), with a maximum of 25000000 energy evaluations.

Final-Value: -10.745


	FINAL GENETIC ALGORITHM DOCKED STATE
	_______________________________________________


Detailed state:  trans -6.651 -18.040 5.786 quatxyzw 0.164419 -0.466962 0.856285 0.147271 center 0.015 0.083 0.031 ntor 6 -41.6901 151.2291 -64.3175 96.1768 -26.6991 86.2612
State:	 -6.651 -18.040   5.786   0.166 -0.472  0.866 163.062    -41.69  151.23  -64.32   96.18  -26.70   86.26

DOCKED: MODEL       68
DOCKED: USER    Run = 68
DOCKED: USER    DPF = D:/Protein_go_brrr/autodock/final/AncB/2_3_BPG/dock.dpf
DOCKED: USER  
DOCKED: USER    Estimated Free Energy of Binding    =  -11.38 kcal/mol  [=(1)+(2)+(3)-(4)]
DOCKED: USER    Estimated Inhibition Constant, Ki   =    4.52 nM (nanomolar)  [Temperature = 298.15 K]
DOCKED: USER    
DOCKED: USER    (1) Final Intermolecular Energy     =  -13.17 kcal/mol
DOCKED: USER        vdW + Hbond + desolv Energy     =   -3.38 kcal/mol
DOCKED: USER        Electrostatic Energy            =   -9.80 kcal/mol
DOCKED: USER    (2) Final Total Internal Energy     =   +2.43 kcal/mol
DOCKED: USER    (3) Torsional Free Energy           =   +1.79 kcal/mol
DOCKED: USER    (4) Unbound System's Energy  [=(2)] =   +2.43 kcal/mol
DOCKED: USER    
DOCKED: USER    
DOCKED: USER    NEWDPF move 2_3_BPG_opt.pdbqt
DOCKED: USER    NEWDPF about 0.015000 0.083000 0.031000
DOCKED: USER    NEWDPF tran0 -6.651132 -18.040294 5.785615
DOCKED: USER    NEWDPF quaternion0 0.164419 -0.466962 0.856285 0.147271
DOCKED: USER    NEWDPF axisangle0 0.166231 -0.472110 0.865725 163.062349
DOCKED: USER    NEWDPF quat0 0.166231 -0.472110 0.865725 163.062349
DOCKED: USER    NEWDPF dihe0 -41.69 151.23 -64.32 96.18 -26.70 86.26 
DOCKED: USER  keepresnum = 1 
DOCKED: USER  
DOCKED: REMARK  6 active torsions:
DOCKED: REMARK  status: ('A' for Active; 'I' for Inactive)
DOCKED: REMARK    1  A    between atoms: P_1  and  O_3 
DOCKED: REMARK    2  A    between atoms: P_2  and  O_4 
DOCKED: REMARK    3  A    between atoms: O_3  and  C_13 
DOCKED: REMARK    4  A    between atoms: O_4  and  C_14 
DOCKED: REMARK    5  A    between atoms: C_13  and  C_14 
DOCKED: REMARK    6  A    between atoms: C_13  and  C_15 
DOCKED: USER                              x       y       z     vdW  Elec       q    Type
DOCKED: USER                           _______ _______ _______ _____ _____    ______ ____
DOCKED: ROOT
DOCKED: ATOM      1  C   UNL d   1      -6.114 -17.710   6.013 -0.04 +0.34    +0.193 C 
DOCKED: ENDROOT
DOCKED: BRANCH   1   2
DOCKED: ATOM      2  O   UNL d   1      -5.357 -17.216   4.857 -0.15 -0.72    -0.356 OA
DOCKED: BRANCH   2   3
DOCKED: ATOM      3  P   UNL d   1      -5.210 -18.054   3.450 -0.16 -0.02    -0.014 P 
DOCKED: ATOM      4  O   UNL d   1      -5.210 -19.529   3.880 +0.01 -0.58    -0.577 OA
DOCKED: ATOM      5  O   UNL d   1      -3.878 -17.651   2.821 -0.05 -0.64    -0.577 OA
DOCKED: ATOM      6  O   UNL d   1      -6.418 -17.726   2.578 -0.35 -1.94    -0.638 OA
DOCKED: ENDBRANCH   2   3
DOCKED: ENDBRANCH   1   2
DOCKED: BRANCH   1   7
DOCKED: ATOM      7  C   UNL d   1      -7.514 -18.228   5.516 +0.02 +0.43    +0.201 C 
DOCKED: BRANCH   7   8
DOCKED: ATOM      8  O   UNL d   1      -8.662 -17.484   5.981 -0.17 -1.08    -0.364 OA
DOCKED: BRANCH   8   9
DOCKED: ATOM      9  P   UNL d   1     -10.077 -17.522   5.123 -0.13 -0.03    -0.015 P 
DOCKED: ATOM     10  O   UNL d   1     -11.103 -18.149   6.075 -0.48 -1.12    -0.577 OA
DOCKED: ATOM     11  O   UNL d   1      -9.830 -18.395   3.894 -0.10 -0.97    -0.577 OA
DOCKED: ATOM     12  O   UNL d   1     -10.429 -16.077   4.771 -0.56 -1.51    -0.638 OA
DOCKED: ENDBRANCH   8   9
DOCKED: ENDBRANCH   7   8
DOCKED: ENDBRANCH   1   7
DOCKED: BRANCH   1  13
DOCKED: ATOM     13  C   UNL d   1      -6.345 -16.544   7.045 -0.14 +0.14    +0.073 C 
DOCKED: ATOM     14  O   UNL d   1      -6.090 -15.343   6.678 -0.46 -1.01    -0.547 OA
DOCKED: ATOM     15  O   UNL d   1      -6.842 -16.864   8.185 -0.61 -1.06    -0.547 OA
DOCKED: ENDBRANCH   1  13
DOCKED: TORSDOF 6
DOCKED: TER
DOCKED: ENDMDL
________________________________________________________________________________


	BEGINNING GENETIC ALGORITHM DOCKING 69 of 100
Run: 69 Seed: 1930302085 2102424212 [ Run 69 of 100 GA/GALS ]
Beginning LAMARCKIAN GENETIC ALGORITHM (LGA), with a maximum of 25000000 energy evaluations.

Final-Value: -10.538


	FINAL GENETIC ALGORITHM DOCKED STATE
	_______________________________________________


Detailed state:  trans -7.021 -18.528 5.612 quatxyzw 0.016694 -0.435898 0.892448 0.115110 center 0.015 0.083 0.031 ntor 6 152.3501 138.5576 -6.4342 120.6026 -45.9560 35.1670
State:	 -7.021 -18.528   5.612   0.017 -0.439  0.898 166.780    152.35  138.56   -6.43  120.60  -45.96   35.17

DOCKED: MODEL       69
DOCKED: USER    Run = 69
DOCKED: USER    DPF = D:/Protein_go_brrr/autodock/final/AncB/2_3_BPG/dock.dpf
DOCKED: USER  
DOCKED: USER    Estimated Free Energy of Binding    =  -11.19 kcal/mol  [=(1)+(2)+(3)-(4)]
DOCKED: USER    Estimated Inhibition Constant, Ki   =    6.31 nM (nanomolar)  [Temperature = 298.15 K]
DOCKED: USER    
DOCKED: USER    (1) Final Intermolecular Energy     =  -12.98 kcal/mol
DOCKED: USER        vdW + Hbond + desolv Energy     =   -3.05 kcal/mol
DOCKED: USER        Electrostatic Energy            =   -9.93 kcal/mol
DOCKED: USER    (2) Final Total Internal Energy     =   +2.44 kcal/mol
DOCKED: USER    (3) Torsional Free Energy           =   +1.79 kcal/mol
DOCKED: USER    (4) Unbound System's Energy  [=(2)] =   +2.44 kcal/mol
DOCKED: USER    
DOCKED: USER    
DOCKED: USER    NEWDPF move 2_3_BPG_opt.pdbqt
DOCKED: USER    NEWDPF about 0.015000 0.083000 0.031000
DOCKED: USER    NEWDPF tran0 -7.021011 -18.527643 5.611973
DOCKED: USER    NEWDPF quaternion0 0.016694 -0.435898 0.892448 0.115110
DOCKED: USER    NEWDPF axisangle0 0.016806 -0.438815 0.898420 166.780003
DOCKED: USER    NEWDPF quat0 0.016806 -0.438815 0.898420 166.780003
DOCKED: USER    NEWDPF dihe0 152.35 138.56 -6.43 120.60 -45.96 35.17 
DOCKED: USER  keepresnum = 1 
DOCKED: USER  
DOCKED: REMARK  6 active torsions:
DOCKED: REMARK  status: ('A' for Active; 'I' for Inactive)
DOCKED: REMARK    1  A    between atoms: P_1  and  O_3 
DOCKED: REMARK    2  A    between atoms: P_2  and  O_4 
DOCKED: REMARK    3  A    between atoms: O_3  and  C_13 
DOCKED: REMARK    4  A    between atoms: O_4  and  C_14 
DOCKED: REMARK    5  A    between atoms: C_13  and  C_14 
DOCKED: REMARK    6  A    between atoms: C_13  and  C_15 
DOCKED: USER                              x       y       z     vdW  Elec       q    Type
DOCKED: USER                           _______ _______ _______ _____ _____    ______ ____
DOCKED: ROOT
DOCKED: ATOM      1  C   UNL d   1      -6.498 -18.286   5.955 -0.06 +0.31    +0.193 C 
DOCKED: ENDROOT
DOCKED: BRANCH   1   2
DOCKED: ATOM      2  O   UNL d   1      -5.408 -18.030   5.007 -0.07 -0.54    -0.356 OA
DOCKED: BRANCH   2   3
DOCKED: ATOM      3  P   UNL d   1      -5.419 -18.568   3.453 -0.17 -0.02    -0.014 P 
DOCKED: ATOM      4  O   UNL d   1      -5.876 -20.032   3.557 +0.00 -0.59    -0.577 OA
DOCKED: ATOM      5  O   UNL d   1      -3.988 -18.463   2.928 -0.01 -0.59    -0.577 OA
DOCKED: ATOM      6  O   UNL d   1      -6.418 -17.724   2.669 -0.28 -1.96    -0.638 OA
DOCKED: ENDBRANCH   2   3
DOCKED: ENDBRANCH   1   2
DOCKED: BRANCH   1   7
DOCKED: ATOM      7  C   UNL d   1      -7.816 -18.573   5.144 -0.06 +0.39    +0.201 C 
DOCKED: BRANCH   7   8
DOCKED: ATOM      8  O   UNL d   1      -9.045 -18.521   5.900 -0.21 -0.76    -0.364 OA
DOCKED: BRANCH   8   9
DOCKED: ATOM      9  P   UNL d   1     -10.378 -17.772   5.267 -0.19 -0.03    -0.015 P 
DOCKED: ATOM     10  O   UNL d   1     -11.494 -18.012   6.290 -0.37 -1.08    -0.577 OA
DOCKED: ATOM     11  O   UNL d   1     -10.675 -18.449   3.929 -0.01 -0.76    -0.577 OA
DOCKED: ATOM     12  O   UNL d   1     -10.038 -16.289   5.125 -0.56 -1.82    -0.638 OA
DOCKED: ENDBRANCH   8   9
DOCKED: ENDBRANCH   7   8
DOCKED: ENDBRANCH   1   7
DOCKED: BRANCH   1  13
DOCKED: ATOM     13  C   UNL d   1      -6.731 -17.021   6.863 -0.13 +0.15    +0.073 C 
DOCKED: ATOM     14  O   UNL d   1      -7.241 -17.189   8.026 -0.41 -1.33    -0.547 OA
DOCKED: ATOM     15  O   UNL d   1      -6.332 -15.891   6.401 -0.52 -1.32    -0.547 OA
DOCKED: ENDBRANCH   1  13
DOCKED: TORSDOF 6
DOCKED: TER
DOCKED: ENDMDL
________________________________________________________________________________


	BEGINNING GENETIC ALGORITHM DOCKING 70 of 100
Run: 70 Seed: 1763666306 734460066 [ Run 70 of 100 GA/GALS ]
Beginning LAMARCKIAN GENETIC ALGORITHM (LGA), with a maximum of 25000000 energy evaluations.

Final-Value: -10.467


	FINAL GENETIC ALGORITHM DOCKED STATE
	_______________________________________________


Detailed state:  trans -7.059 -18.402 5.694 quatxyzw 0.851865 -0.194116 -0.089616 0.478135 center 0.015 0.083 0.031 ntor 6 -167.0950 -66.9036 -161.2290 18.5234 90.5855 -16.1020
State:	 -7.059 -18.402   5.694   0.970 -0.221 -0.102 122.873   -167.09  -66.90 -161.23   18.52   90.59  -16.10

DOCKED: MODEL       70
DOCKED: USER    Run = 70
DOCKED: USER    DPF = D:/Protein_go_brrr/autodock/final/AncB/2_3_BPG/dock.dpf
DOCKED: USER  
DOCKED: USER    Estimated Free Energy of Binding    =  -11.06 kcal/mol  [=(1)+(2)+(3)-(4)]
DOCKED: USER    Estimated Inhibition Constant, Ki   =    7.80 nM (nanomolar)  [Temperature = 298.15 K]
DOCKED: USER    
DOCKED: USER    (1) Final Intermolecular Energy     =  -12.85 kcal/mol
DOCKED: USER        vdW + Hbond + desolv Energy     =   -2.80 kcal/mol
DOCKED: USER        Electrostatic Energy            =  -10.05 kcal/mol
DOCKED: USER    (2) Final Total Internal Energy     =   +2.38 kcal/mol
DOCKED: USER    (3) Torsional Free Energy           =   +1.79 kcal/mol
DOCKED: USER    (4) Unbound System's Energy  [=(2)] =   +2.38 kcal/mol
DOCKED: USER    
DOCKED: USER    
DOCKED: USER    NEWDPF move 2_3_BPG_opt.pdbqt
DOCKED: USER    NEWDPF about 0.015000 0.083000 0.031000
DOCKED: USER    NEWDPF tran0 -7.058976 -18.401958 5.694251
DOCKED: USER    NEWDPF quaternion0 0.851865 -0.194116 -0.089616 0.478135
DOCKED: USER    NEWDPF axisangle0 0.969918 -0.221017 -0.102035 122.872611
DOCKED: USER    NEWDPF quat0 0.969918 -0.221017 -0.102035 122.872611
DOCKED: USER    NEWDPF dihe0 -167.09 -66.90 -161.23 18.52 90.59 -16.10 
DOCKED: USER  keepresnum = 1 
DOCKED: USER  
DOCKED: REMARK  6 active torsions:
DOCKED: REMARK  status: ('A' for Active; 'I' for Inactive)
DOCKED: REMARK    1  A    between atoms: P_1  and  O_3 
DOCKED: REMARK    2  A    between atoms: P_2  and  O_4 
DOCKED: REMARK    3  A    between atoms: O_3  and  C_13 
DOCKED: REMARK    4  A    between atoms: O_4  and  C_14 
DOCKED: REMARK    5  A    between atoms: C_13  and  C_14 
DOCKED: REMARK    6  A    between atoms: C_13  and  C_15 
DOCKED: USER                              x       y       z     vdW  Elec       q    Type
DOCKED: USER                           _______ _______ _______ _____ _____    ______ ____
DOCKED: ROOT
DOCKED: ATOM      1  C   UNL d   1      -7.458 -18.034   6.087 -0.06 +0.41    +0.193 C 
DOCKED: ENDROOT
DOCKED: BRANCH   1   2
DOCKED: ATOM      2  O   UNL d   1      -8.766 -18.695   6.158 -0.16 -0.70    -0.356 OA
DOCKED: BRANCH   2   3
DOCKED: ATOM      3  P   UNL d   1     -10.141 -18.047   5.532 -0.13 -0.03    -0.014 P 
DOCKED: ATOM      4  O   UNL d   1     -10.456 -18.924   4.310 +0.00 -0.73    -0.577 OA
DOCKED: ATOM      5  O   UNL d   1      -9.820 -16.611   5.125 -0.60 -1.74    -0.577 OA
DOCKED: ATOM      6  O   UNL d   1     -11.235 -18.149   6.591 -0.31 -1.45    -0.638 OA
DOCKED: ENDBRANCH   2   3
DOCKED: ENDBRANCH   1   2
DOCKED: BRANCH   1   7
DOCKED: ATOM      7  C   UNL d   1      -6.430 -19.019   5.419 -0.04 +0.27    +0.201 C 
DOCKED: BRANCH   7   8
DOCKED: ATOM      8  O   UNL d   1      -5.449 -18.411   4.549 -0.04 -0.53    -0.364 OA
DOCKED: BRANCH   8   9
DOCKED: ATOM      9  P   UNL d   1      -5.803 -18.148   2.955 +0.06 -0.03    -0.015 P 
DOCKED: ATOM     10  O   UNL d   1      -7.335 -18.149   2.881 -0.11 -1.63    -0.577 OA
DOCKED: ATOM     11  O   UNL d   1      -5.193 -19.306   2.165 -0.41 -0.81    -0.577 OA
DOCKED: ATOM     12  O   UNL d   1      -5.212 -16.790   2.579 -0.32 -1.45    -0.638 OA
DOCKED: ENDBRANCH   8   9
DOCKED: ENDBRANCH   7   8
DOCKED: ENDBRANCH   1   7
DOCKED: BRANCH   1  13
DOCKED: ATOM     13  C   UNL d   1      -6.952 -17.681   7.535 -0.02 +0.14    +0.073 C 
DOCKED: ATOM     14  O   UNL d   1      -6.852 -16.447   7.865 -0.66 -1.13    -0.547 OA
DOCKED: ATOM     15  O   UNL d   1      -6.727 -18.665   8.329 -0.03 -0.64    -0.547 OA
DOCKED: ENDBRANCH   1  13
DOCKED: TORSDOF 6
DOCKED: TER
DOCKED: ENDMDL
________________________________________________________________________________


	BEGINNING GENETIC ALGORITHM DOCKING 71 of 100
Run: 71 Seed: 818756517 1969108763 [ Run 71 of 100 GA/GALS ]
Beginning LAMARCKIAN GENETIC ALGORITHM (LGA), with a maximum of 25000000 energy evaluations.

Final-Value: -9.173


	FINAL GENETIC ALGORITHM DOCKED STATE
	_______________________________________________


Detailed state:  trans -1.394 1.576 -13.549 quatxyzw 0.064765 -0.098062 0.177692 -0.977044 center 0.015 0.083 0.031 ntor 6 132.8892 -145.9119 -125.4572 3.0243 -42.8140 -146.9502
State:	 -1.394   1.576 -13.549   0.304 -0.460  0.834 -24.601    132.89 -145.91 -125.46    3.02  -42.81 -146.95

DOCKED: MODEL       71
DOCKED: USER    Run = 71
DOCKED: USER    DPF = D:/Protein_go_brrr/autodock/final/AncB/2_3_BPG/dock.dpf
DOCKED: USER  
DOCKED: USER    Estimated Free Energy of Binding    =   -9.59 kcal/mol  [=(1)+(2)+(3)-(4)]
DOCKED: USER    Estimated Inhibition Constant, Ki   =   92.81 nM (nanomolar)  [Temperature = 298.15 K]
DOCKED: USER    
DOCKED: USER    (1) Final Intermolecular Energy     =  -11.38 kcal/mol
DOCKED: USER        vdW + Hbond + desolv Energy     =   -3.85 kcal/mol
DOCKED: USER        Electrostatic Energy            =   -7.54 kcal/mol
DOCKED: USER    (2) Final Total Internal Energy     =   +2.21 kcal/mol
DOCKED: USER    (3) Torsional Free Energy           =   +1.79 kcal/mol
DOCKED: USER    (4) Unbound System's Energy  [=(2)] =   +2.21 kcal/mol
DOCKED: USER    
DOCKED: USER    
DOCKED: USER    NEWDPF move 2_3_BPG_opt.pdbqt
DOCKED: USER    NEWDPF about 0.015000 0.083000 0.031000
DOCKED: USER    NEWDPF tran0 -1.393568 1.575994 -13.548891
DOCKED: USER    NEWDPF quaternion0 0.064765 -0.098062 0.177692 -0.977044
DOCKED: USER    NEWDPF axisangle0 0.304008 -0.460302 0.834087 -24.600834
DOCKED: USER    NEWDPF quat0 0.304008 -0.460302 0.834087 -24.600834
DOCKED: USER    NEWDPF dihe0 132.89 -145.91 -125.46 3.02 -42.81 -146.95 
DOCKED: USER  keepresnum = 1 
DOCKED: USER  
DOCKED: REMARK  6 active torsions:
DOCKED: REMARK  status: ('A' for Active; 'I' for Inactive)
DOCKED: REMARK    1  A    between atoms: P_1  and  O_3 
DOCKED: REMARK    2  A    between atoms: P_2  and  O_4 
DOCKED: REMARK    3  A    between atoms: O_3  and  C_13 
DOCKED: REMARK    4  A    between atoms: O_4  and  C_14 
DOCKED: REMARK    5  A    between atoms: C_13  and  C_14 
DOCKED: REMARK    6  A    between atoms: C_13  and  C_15 
DOCKED: USER                              x       y       z     vdW  Elec       q    Type
DOCKED: USER                           _______ _______ _______ _____ _____    ______ ____
DOCKED: ROOT
DOCKED: ATOM      1  C   UNL d   1      -1.835   1.075 -13.613 -0.18 +0.26    +0.193 C 
DOCKED: ENDROOT
DOCKED: BRANCH   1   2
DOCKED: ATOM      2  O   UNL d   1      -2.977   1.569 -14.390 -0.40 -0.62    -0.356 OA
DOCKED: BRANCH   2   3
DOCKED: ATOM      3  P   UNL d   1      -4.539   1.399 -13.906 -0.18 -0.02    -0.014 P 
DOCKED: ATOM      4  O   UNL d   1      -4.468   1.406 -12.371 -0.05 -0.73    -0.577 OA
DOCKED: ATOM      5  O   UNL d   1      -5.034   0.056 -14.439 -0.01 -0.90    -0.577 OA
DOCKED: ATOM      6  O   UNL d   1      -5.329   2.591 -14.436 -0.27 -1.16    -0.638 OA
DOCKED: ENDBRANCH   2   3
DOCKED: ENDBRANCH   1   2
DOCKED: BRANCH   1   7
DOCKED: ATOM      7  C   UNL d   1      -0.671   2.131 -13.700 -0.15 +0.23    +0.201 C 
DOCKED: BRANCH   7   8
DOCKED: ATOM      8  O   UNL d   1      -1.030   3.422 -14.239 -0.32 -0.63    -0.364 OA
DOCKED: BRANCH   8   9
DOCKED: ATOM      9  P   UNL d   1      -0.404   4.801 -13.574 -0.36 -0.02    -0.015 P 
DOCKED: ATOM     10  O   UNL d   1       1.118   4.628 -13.656 -0.36 -0.47    -0.577 OA
DOCKED: ATOM     11  O   UNL d   1      -0.895   4.863 -12.128 -0.32 -0.77    -0.577 OA
DOCKED: ATOM     12  O   UNL d   1      -0.894   5.974 -14.423 -0.52 -1.06    -0.638 OA
DOCKED: ENDBRANCH   8   9
DOCKED: ENDBRANCH   7   8
DOCKED: ENDBRANCH   1   7
DOCKED: BRANCH   1  13
DOCKED: ATOM     13  C   UNL d   1      -1.324  -0.289 -14.210 -0.13 +0.11    +0.073 C 
DOCKED: ATOM     14  O   UNL d   1      -0.412  -0.929 -13.579 -0.07 -0.63    -0.547 OA
DOCKED: ATOM     15  O   UNL d   1      -1.905  -0.712 -15.274 -0.54 -1.12    -0.547 OA
DOCKED: ENDBRANCH   1  13
DOCKED: TORSDOF 6
DOCKED: TER
DOCKED: ENDMDL
________________________________________________________________________________


	BEGINNING GENETIC ALGORITHM DOCKING 72 of 100
Run: 72 Seed: 258033861 899082061 [ Run 72 of 100 GA/GALS ]
Beginning LAMARCKIAN GENETIC ALGORITHM (LGA), with a maximum of 25000000 energy evaluations.

Final-Value: -10.432


	FINAL GENETIC ALGORITHM DOCKED STATE
	_______________________________________________


Detailed state:  trans -8.217 -18.353 6.003 quatxyzw 0.595528 0.408500 0.087320 0.686185 center 0.015 0.083 0.031 ntor 6 18.2108 142.4293 6.2336 57.7836 78.8790 7.8311
State:	 -8.217 -18.353   6.003   0.819  0.562  0.120 93.342     18.21  142.43    6.23   57.78   78.88    7.83

DOCKED: MODEL       72
DOCKED: USER    Run = 72
DOCKED: USER    DPF = D:/Protein_go_brrr/autodock/final/AncB/2_3_BPG/dock.dpf
DOCKED: USER  
DOCKED: USER    Estimated Free Energy of Binding    =  -10.86 kcal/mol  [=(1)+(2)+(3)-(4)]
DOCKED: USER    Estimated Inhibition Constant, Ki   =   10.99 nM (nanomolar)  [Temperature = 298.15 K]
DOCKED: USER    
DOCKED: USER    (1) Final Intermolecular Energy     =  -12.65 kcal/mol
DOCKED: USER        vdW + Hbond + desolv Energy     =   -2.71 kcal/mol
DOCKED: USER        Electrostatic Energy            =   -9.94 kcal/mol
DOCKED: USER    (2) Final Total Internal Energy     =   +2.22 kcal/mol
DOCKED: USER    (3) Torsional Free Energy           =   +1.79 kcal/mol
DOCKED: USER    (4) Unbound System's Energy  [=(2)] =   +2.22 kcal/mol
DOCKED: USER    
DOCKED: USER    
DOCKED: USER    NEWDPF move 2_3_BPG_opt.pdbqt
DOCKED: USER    NEWDPF about 0.015000 0.083000 0.031000
DOCKED: USER    NEWDPF tran0 -8.217312 -18.353005 6.002925
DOCKED: USER    NEWDPF quaternion0 0.595528 0.408500 0.087320 0.686185
DOCKED: USER    NEWDPF axisangle0 0.818677 0.561568 0.120039 93.342305
DOCKED: USER    NEWDPF quat0 0.818677 0.561568 0.120039 93.342305
DOCKED: USER    NEWDPF dihe0 18.21 142.43 6.23 57.78 78.88 7.83 
DOCKED: USER  keepresnum = 1 
DOCKED: USER  
DOCKED: REMARK  6 active torsions:
DOCKED: REMARK  status: ('A' for Active; 'I' for Inactive)
DOCKED: REMARK    1  A    between atoms: P_1  and  O_3 
DOCKED: REMARK    2  A    between atoms: P_2  and  O_4 
DOCKED: REMARK    3  A    between atoms: O_3  and  C_13 
DOCKED: REMARK    4  A    between atoms: O_4  and  C_14 
DOCKED: REMARK    5  A    between atoms: C_13  and  C_14 
DOCKED: REMARK    6  A    between atoms: C_13  and  C_15 
DOCKED: USER                              x       y       z     vdW  Elec       q    Type
DOCKED: USER                           _______ _______ _______ _____ _____    ______ ____
DOCKED: ROOT
DOCKED: ATOM      1  C   UNL d   1      -8.830 -18.571   5.842 -0.10 +0.39    +0.193 C 
DOCKED: ENDROOT
DOCKED: BRANCH   1   2
DOCKED: ATOM      2  O   UNL d   1      -8.737 -19.308   4.577 -0.03 -0.51    -0.356 OA
DOCKED: BRANCH   2   3
DOCKED: ATOM      3  P   UNL d   1      -8.543 -18.575   3.118 -0.07 -0.03    -0.014 P 
DOCKED: ATOM      4  O   UNL d   1      -9.478 -17.357   3.174 -0.10 -1.47    -0.577 OA
DOCKED: ATOM      5  O   UNL d   1      -8.983 -19.572   2.048 -0.05 -0.84    -0.577 OA
DOCKED: ATOM      6  O   UNL d   1      -7.082 -18.154   2.992 -0.25 -1.78    -0.638 OA
DOCKED: ENDBRANCH   2   3
DOCKED: ENDBRANCH   1   2
DOCKED: BRANCH   1   7
DOCKED: ATOM      7  C   UNL d   1      -7.376 -18.306   6.381 -0.09 +0.37    +0.201 C 
DOCKED: BRANCH   7   8
DOCKED: ATOM      8  O   UNL d   1      -7.269 -17.353   7.461 -0.45 -0.86    -0.364 OA
DOCKED: BRANCH   8   9
DOCKED: ATOM      9  P   UNL d   1      -6.851 -15.783   7.145 -0.15 -0.03    -0.015 P 
DOCKED: ATOM     10  O   UNL d   1      -6.629 -15.145   8.522 -0.25 -0.77    -0.577 OA
DOCKED: ATOM     11  O   UNL d   1      -8.028 -15.149   6.405 -0.01 -1.69    -0.577 OA
DOCKED: ATOM     12  O   UNL d   1      -5.569 -15.816   6.314 -0.56 -1.15    -0.638 OA
DOCKED: ENDBRANCH   8   9
DOCKED: ENDBRANCH   7   8
DOCKED: ENDBRANCH   1   7
DOCKED: BRANCH   1  13
DOCKED: ATOM     13  C   UNL d   1      -9.614 -19.425   6.907 -0.02 +0.12    +0.073 C 
DOCKED: ATOM     14  O   UNL d   1      -9.039 -20.453   7.410 -0.00 -0.54    -0.547 OA
DOCKED: ATOM     15  O   UNL d   1     -10.773 -18.999   7.257 -0.57 -1.15    -0.547 OA
DOCKED: ENDBRANCH   1  13
DOCKED: TORSDOF 6
DOCKED: TER
DOCKED: ENDMDL
________________________________________________________________________________


	BEGINNING GENETIC ALGORITHM DOCKING 73 of 100
Run: 73 Seed: 44958729 445320515 [ Run 73 of 100 GA/GALS ]
Beginning LAMARCKIAN GENETIC ALGORITHM (LGA), with a maximum of 25000000 energy evaluations.

Final-Value: -10.334


	FINAL GENETIC ALGORITHM DOCKED STATE
	_______________________________________________


Detailed state:  trans -7.338 -18.793 5.327 quatxyzw -0.336876 0.480773 -0.809214 0.023353 center 0.015 0.083 0.031 ntor 6 -75.7991 -73.7642 -89.5460 -1.6793 43.7771 -179.9245
State:	 -7.338 -18.793   5.327  -0.337  0.481 -0.809 177.324    -75.80  -73.76  -89.55   -1.68   43.78 -179.92

DOCKED: MODEL       73
DOCKED: USER    Run = 73
DOCKED: USER    DPF = D:/Protein_go_brrr/autodock/final/AncB/2_3_BPG/dock.dpf
DOCKED: USER  
DOCKED: USER    Estimated Free Energy of Binding    =  -10.88 kcal/mol  [=(1)+(2)+(3)-(4)]
DOCKED: USER    Estimated Inhibition Constant, Ki   =   10.65 nM (nanomolar)  [Temperature = 298.15 K]
DOCKED: USER    
DOCKED: USER    (1) Final Intermolecular Energy     =  -12.67 kcal/mol
DOCKED: USER        vdW + Hbond + desolv Energy     =   -3.40 kcal/mol
DOCKED: USER        Electrostatic Energy            =   -9.27 kcal/mol
DOCKED: USER    (2) Final Total Internal Energy     =   +2.33 kcal/mol
DOCKED: USER    (3) Torsional Free Energy           =   +1.79 kcal/mol
DOCKED: USER    (4) Unbound System's Energy  [=(2)] =   +2.33 kcal/mol
DOCKED: USER    
DOCKED: USER    
DOCKED: USER    NEWDPF move 2_3_BPG_opt.pdbqt
DOCKED: USER    NEWDPF about 0.015000 0.083000 0.031000
DOCKED: USER    NEWDPF tran0 -7.337538 -18.793412 5.327394
DOCKED: USER    NEWDPF quaternion0 -0.336876 0.480773 -0.809214 0.023353
DOCKED: USER    NEWDPF axisangle0 -0.336968 0.480904 -0.809435 177.323716
DOCKED: USER    NEWDPF quat0 -0.336968 0.480904 -0.809435 177.323716
DOCKED: USER    NEWDPF dihe0 -75.80 -73.76 -89.55 -1.68 43.78 -179.92 
DOCKED: USER  keepresnum = 1 
DOCKED: USER  
DOCKED: REMARK  6 active torsions:
DOCKED: REMARK  status: ('A' for Active; 'I' for Inactive)
DOCKED: REMARK    1  A    between atoms: P_1  and  O_3 
DOCKED: REMARK    2  A    between atoms: P_2  and  O_4 
DOCKED: REMARK    3  A    between atoms: O_3  and  C_13 
DOCKED: REMARK    4  A    between atoms: O_4  and  C_14 
DOCKED: REMARK    5  A    between atoms: C_13  and  C_14 
DOCKED: REMARK    6  A    between atoms: C_13  and  C_15 
DOCKED: USER                              x       y       z     vdW  Elec       q    Type
DOCKED: USER                           _______ _______ _______ _____ _____    ______ ____
DOCKED: ROOT
DOCKED: ATOM      1  C   UNL d   1      -6.724 -18.532   5.261 -0.04 +0.33    +0.193 C 
DOCKED: ENDROOT
DOCKED: BRANCH   1   2
DOCKED: ATOM      2  O   UNL d   1      -6.538 -18.150   3.857 -0.10 -0.87    -0.356 OA
DOCKED: BRANCH   2   3
DOCKED: ATOM      3  P   UNL d   1      -5.181 -18.502   2.997 -0.19 -0.02    -0.014 P 
DOCKED: ATOM      4  O   UNL d   1      -5.583 -19.701   2.123 -0.40 -0.80    -0.577 OA
DOCKED: ATOM      5  O   UNL d   1      -4.094 -18.879   4.002 +0.03 -0.50    -0.577 OA
DOCKED: ATOM      6  O   UNL d   1      -4.831 -17.284   2.150 -0.27 -1.22    -0.638 OA
DOCKED: ENDBRANCH   2   3
DOCKED: ENDBRANCH   1   2
DOCKED: BRANCH   1   7
DOCKED: ATOM      7  C   UNL d   1      -8.242 -18.872   5.496 -0.09 +0.35    +0.201 C 
DOCKED: BRANCH   7   8
DOCKED: ATOM      8  O   UNL d   1      -9.166 -18.328   4.528 -0.22 -0.75    -0.364 OA
DOCKED: BRANCH   8   9
DOCKED: ATOM      9  P   UNL d   1     -10.546 -17.569   5.033 -0.25 -0.03    -0.015 P 
DOCKED: ATOM     10  O   UNL d   1     -10.174 -16.085   5.125 -0.57 -1.55    -0.577 OA
DOCKED: ATOM     11  O   UNL d   1     -10.902 -18.154   6.400 -0.45 -1.36    -0.577 OA
DOCKED: ATOM     12  O   UNL d   1     -11.617 -17.828   3.975 -0.01 -0.73    -0.638 OA
DOCKED: ENDBRANCH   8   9
DOCKED: ENDBRANCH   7   8
DOCKED: ENDBRANCH   1   7
DOCKED: BRANCH   1  13
DOCKED: ATOM     13  C   UNL d   1      -6.323 -17.336   6.204 +0.06 +0.15    +0.073 C 
DOCKED: ATOM     14  O   UNL d   1      -5.532 -16.437   5.749 -0.47 -1.18    -0.547 OA
DOCKED: ATOM     15  O   UNL d   1      -6.871 -17.301   7.365 -0.43 -1.09    -0.547 OA
DOCKED: ENDBRANCH   1  13
DOCKED: TORSDOF 6
DOCKED: TER
DOCKED: ENDMDL
________________________________________________________________________________


	BEGINNING GENETIC ALGORITHM DOCKING 74 of 100
Run: 74 Seed: 1011484354 700478453 [ Run 74 of 100 GA/GALS ]
Beginning LAMARCKIAN GENETIC ALGORITHM (LGA), with a maximum of 25000000 energy evaluations.

Final-Value: -9.955


	FINAL GENETIC ALGORITHM DOCKED STATE
	_______________________________________________


Detailed state:  trans -7.435 -18.436 5.285 quatxyzw -0.903093 0.090908 0.288792 -0.304561 center 0.015 0.083 0.031 ntor 6 144.4028 53.3366 -52.6562 5.2558 -52.9462 -43.5695
State:	 -7.435 -18.436   5.285  -0.948  0.095  0.303 -144.536    144.40   53.34  -52.66    5.26  -52.95  -43.57

DOCKED: MODEL       74
DOCKED: USER    Run = 74
DOCKED: USER    DPF = D:/Protein_go_brrr/autodock/final/AncB/2_3_BPG/dock.dpf
DOCKED: USER  
DOCKED: USER    Estimated Free Energy of Binding    =  -10.19 kcal/mol  [=(1)+(2)+(3)-(4)]
DOCKED: USER    Estimated Inhibition Constant, Ki   =   33.69 nM (nanomolar)  [Temperature = 298.15 K]
DOCKED: USER    
DOCKED: USER    (1) Final Intermolecular Energy     =  -11.98 kcal/mol
DOCKED: USER        vdW + Hbond + desolv Energy     =   -2.61 kcal/mol
DOCKED: USER        Electrostatic Energy            =   -9.37 kcal/mol
DOCKED: USER    (2) Final Total Internal Energy     =   +2.03 kcal/mol
DOCKED: USER    (3) Torsional Free Energy           =   +1.79 kcal/mol
DOCKED: USER    (4) Unbound System's Energy  [=(2)] =   +2.03 kcal/mol
DOCKED: USER    
DOCKED: USER    
DOCKED: USER    NEWDPF move 2_3_BPG_opt.pdbqt
DOCKED: USER    NEWDPF about 0.015000 0.083000 0.031000
DOCKED: USER    NEWDPF tran0 -7.434861 -18.435918 5.285202
DOCKED: USER    NEWDPF quaternion0 -0.903093 0.090908 0.288792 -0.304561
DOCKED: USER    NEWDPF axisangle0 -0.948137 0.095443 0.303196 -144.536433
DOCKED: USER    NEWDPF quat0 -0.948137 0.095443 0.303196 -144.536433
DOCKED: USER    NEWDPF dihe0 144.40 53.34 -52.66 5.26 -52.95 -43.57 
DOCKED: USER  keepresnum = 1 
DOCKED: USER  
DOCKED: REMARK  6 active torsions:
DOCKED: REMARK  status: ('A' for Active; 'I' for Inactive)
DOCKED: REMARK    1  A    between atoms: P_1  and  O_3 
DOCKED: REMARK    2  A    between atoms: P_2  and  O_4 
DOCKED: REMARK    3  A    between atoms: O_3  and  C_13 
DOCKED: REMARK    4  A    between atoms: O_4  and  C_14 
DOCKED: REMARK    5  A    between atoms: C_13  and  C_14 
DOCKED: REMARK    6  A    between atoms: C_13  and  C_15 
DOCKED: USER                              x       y       z     vdW  Elec       q    Type
DOCKED: USER                           _______ _______ _______ _____ _____    ______ ____
DOCKED: ROOT
DOCKED: ATOM      1  C   UNL d   1      -7.851 -18.138   5.718 -0.03 +0.43    +0.193 C 
DOCKED: ENDROOT
DOCKED: BRANCH   1   2
DOCKED: ATOM      2  O   UNL d   1      -8.680 -19.174   6.344 -0.11 -0.58    -0.356 OA
DOCKED: BRANCH   2   3
DOCKED: ATOM      3  P   UNL d   1     -10.323 -19.116   6.380 +0.05 -0.02    -0.014 P 
DOCKED: ATOM      4  O   UNL d   1     -10.683 -19.388   7.849 -0.42 -1.00    -0.577 OA
DOCKED: ATOM      5  O   UNL d   1     -10.836 -20.223   5.462 +0.02 -0.51    -0.577 OA
DOCKED: ATOM      6  O   UNL d   1     -10.754 -17.718   5.948 -0.30 -1.47    -0.638 OA
DOCKED: ENDBRANCH   2   3
DOCKED: ENDBRANCH   1   2
DOCKED: BRANCH   1   7
DOCKED: ATOM      7  C   UNL d   1      -6.684 -18.834   4.926 -0.05 +0.32    +0.201 C 
DOCKED: BRANCH   7   8
DOCKED: ATOM      8  O   UNL d   1      -6.692 -18.644   3.494 -0.26 -0.73    -0.364 OA
DOCKED: BRANCH   8   9
DOCKED: ATOM      9  P   UNL d   1      -5.319 -18.149   2.715 -0.12 -0.03    -0.015 P 
DOCKED: ATOM     10  O   UNL d   1      -5.138 -19.139   1.558 -0.45 -0.98    -0.577 OA
DOCKED: ATOM     11  O   UNL d   1      -4.176 -18.238   3.726 +0.01 -0.61    -0.577 OA
DOCKED: ATOM     12  O   UNL d   1      -5.569 -16.725   2.219 -0.17 -1.70    -0.638 OA
DOCKED: ENDBRANCH   8   9
DOCKED: ENDBRANCH   7   8
DOCKED: ENDBRANCH   1   7
DOCKED: BRANCH   1  13
DOCKED: ATOM     13  C   UNL d   1      -7.225 -17.208   6.824 -0.04 +0.18    +0.073 C 
DOCKED: ATOM     14  O   UNL d   1      -6.772 -16.062   6.474 -0.40 -1.48    -0.547 OA
DOCKED: ATOM     15  O   UNL d   1      -7.265 -17.633   8.034 -0.35 -1.18    -0.547 OA
DOCKED: ENDBRANCH   1  13
DOCKED: TORSDOF 6
DOCKED: TER
DOCKED: ENDMDL
________________________________________________________________________________


	BEGINNING GENETIC ALGORITHM DOCKING 75 of 100
Run: 75 Seed: 292130729 1095917611 [ Run 75 of 100 GA/GALS ]
Beginning LAMARCKIAN GENETIC ALGORITHM (LGA), with a maximum of 25000000 energy evaluations.

Final-Value: -10.361


	FINAL GENETIC ALGORITHM DOCKED STATE
	_______________________________________________


Detailed state:  trans -7.436 -18.437 5.335 quatxyzw 0.755142 -0.263417 -0.123356 0.587500 center 0.015 0.083 0.031 ntor 6 40.1207 47.8629 169.2355 33.6217 -64.1108 -66.5515
State:	 -7.436 -18.437   5.335   0.933 -0.326 -0.152 108.040     40.12   47.86  169.24   33.62  -64.11  -66.55

DOCKED: MODEL       75
DOCKED: USER    Run = 75
DOCKED: USER    DPF = D:/Protein_go_brrr/autodock/final/AncB/2_3_BPG/dock.dpf
DOCKED: USER  
DOCKED: USER    Estimated Free Energy of Binding    =  -10.61 kcal/mol  [=(1)+(2)+(3)-(4)]
DOCKED: USER    Estimated Inhibition Constant, Ki   =   16.74 nM (nanomolar)  [Temperature = 298.15 K]
DOCKED: USER    
DOCKED: USER    (1) Final Intermolecular Energy     =  -12.40 kcal/mol
DOCKED: USER        vdW + Hbond + desolv Energy     =   -2.95 kcal/mol
DOCKED: USER        Electrostatic Energy            =   -9.45 kcal/mol
DOCKED: USER    (2) Final Total Internal Energy     =   +2.04 kcal/mol
DOCKED: USER    (3) Torsional Free Energy           =   +1.79 kcal/mol
DOCKED: USER    (4) Unbound System's Energy  [=(2)] =   +2.04 kcal/mol
DOCKED: USER    
DOCKED: USER    
DOCKED: USER    NEWDPF move 2_3_BPG_opt.pdbqt
DOCKED: USER    NEWDPF about 0.015000 0.083000 0.031000
DOCKED: USER    NEWDPF tran0 -7.435756 -18.436691 5.335012
DOCKED: USER    NEWDPF quaternion0 0.755142 -0.263417 -0.123356 0.587500
DOCKED: USER    NEWDPF axisangle0 0.933167 -0.325518 -0.152438 108.040457
DOCKED: USER    NEWDPF quat0 0.933167 -0.325518 -0.152438 108.040457
DOCKED: USER    NEWDPF dihe0 40.12 47.86 169.24 33.62 -64.11 -66.55 
DOCKED: USER  keepresnum = 1 
DOCKED: USER  
DOCKED: REMARK  6 active torsions:
DOCKED: REMARK  status: ('A' for Active; 'I' for Inactive)
DOCKED: REMARK    1  A    between atoms: P_1  and  O_3 
DOCKED: REMARK    2  A    between atoms: P_2  and  O_4 
DOCKED: REMARK    3  A    between atoms: O_3  and  C_13 
DOCKED: REMARK    4  A    between atoms: O_4  and  C_14 
DOCKED: REMARK    5  A    between atoms: C_13  and  C_14 
DOCKED: REMARK    6  A    between atoms: C_13  and  C_15 
DOCKED: USER                              x       y       z     vdW  Elec       q    Type
DOCKED: USER                           _______ _______ _______ _____ _____    ______ ____
DOCKED: ROOT
DOCKED: ATOM      1  C   UNL d   1      -7.742 -18.147   5.856 -0.06 +0.42    +0.193 C 
DOCKED: ENDROOT
DOCKED: BRANCH   1   2
DOCKED: ATOM      2  O   UNL d   1      -9.126 -18.630   5.900 -0.22 -0.71    -0.356 OA
DOCKED: BRANCH   2   3
DOCKED: ATOM      3  P   UNL d   1     -10.399 -17.780   5.297 -0.18 -0.03    -0.014 P 
DOCKED: ATOM      4  O   UNL d   1     -11.492 -17.914   6.369 -0.32 -1.14    -0.577 OA
DOCKED: ATOM      5  O   UNL d   1     -10.811 -18.450   3.988 -0.01 -0.74    -0.577 OA
DOCKED: ATOM      6  O   UNL d   1      -9.958 -16.330   5.125 -0.55 -1.88    -0.638 OA
DOCKED: ENDBRANCH   2   3
DOCKED: ENDBRANCH   1   2
DOCKED: BRANCH   1   7
DOCKED: ATOM      7  C   UNL d   1      -6.933 -19.025   4.832 -0.06 +0.31    +0.201 C 
DOCKED: BRANCH   7   8
DOCKED: ATOM      8  O   UNL d   1      -6.871 -18.521   3.480 -0.27 -0.80    -0.364 OA
DOCKED: BRANCH   8   9
DOCKED: ATOM      9  P   UNL d   1      -5.409 -18.147   2.800 -0.11 -0.03    -0.015 P 
DOCKED: ATOM     10  O   UNL d   1      -4.398 -18.250   3.948 +0.01 -0.64    -0.577 OA
DOCKED: ATOM     11  O   UNL d   1      -5.520 -16.721   2.262 -0.21 -1.51    -0.577 OA
DOCKED: ATOM     12  O   UNL d   1      -5.143 -19.180   1.706 -0.46 -1.03    -0.638 OA
DOCKED: ENDBRANCH   8   9
DOCKED: ENDBRANCH   7   8
DOCKED: ENDBRANCH   1   7
DOCKED: BRANCH   1  13
DOCKED: ATOM     13  C   UNL d   1      -7.076 -18.286   7.276 -0.09 +0.12    +0.073 C 
DOCKED: ATOM     14  O   UNL d   1      -6.402 -19.344   7.534 +0.02 -0.52    -0.547 OA
DOCKED: ATOM     15  O   UNL d   1      -7.198 -17.290   8.077 -0.43 -1.27    -0.547 OA
DOCKED: ENDBRANCH   1  13
DOCKED: TORSDOF 6
DOCKED: TER
DOCKED: ENDMDL
________________________________________________________________________________


	BEGINNING GENETIC ALGORITHM DOCKING 76 of 100
Run: 76 Seed: 726137864 537031355 [ Run 76 of 100 GA/GALS ]
Beginning LAMARCKIAN GENETIC ALGORITHM (LGA), with a maximum of 25000000 energy evaluations.

Final-Value: -10.722


	FINAL GENETIC ALGORITHM DOCKED STATE
	_______________________________________________


Detailed state:  trans -8.173 -18.759 5.116 quatxyzw -0.509579 0.378285 -0.131750 0.761493 center 0.015 0.083 0.031 ntor 6 -169.8474 -36.7338 -64.1690 65.9767 20.2043 -165.1816
State:	 -8.173 -18.759   5.116  -0.786  0.584 -0.203 80.808   -169.85  -36.73  -64.17   65.98   20.20 -165.18

DOCKED: MODEL       76
DOCKED: USER    Run = 76
DOCKED: USER    DPF = D:/Protein_go_brrr/autodock/final/AncB/2_3_BPG/dock.dpf
DOCKED: USER  
DOCKED: USER    Estimated Free Energy of Binding    =  -11.37 kcal/mol  [=(1)+(2)+(3)-(4)]
DOCKED: USER    Estimated Inhibition Constant, Ki   =    4.63 nM (nanomolar)  [Temperature = 298.15 K]
DOCKED: USER    
DOCKED: USER    (1) Final Intermolecular Energy     =  -13.16 kcal/mol
DOCKED: USER        vdW + Hbond + desolv Energy     =   -3.20 kcal/mol
DOCKED: USER        Electrostatic Energy            =   -9.96 kcal/mol
DOCKED: USER    (2) Final Total Internal Energy     =   +2.44 kcal/mol
DOCKED: USER    (3) Torsional Free Energy           =   +1.79 kcal/mol
DOCKED: USER    (4) Unbound System's Energy  [=(2)] =   +2.44 kcal/mol
DOCKED: USER    
DOCKED: USER    
DOCKED: USER    NEWDPF move 2_3_BPG_opt.pdbqt
DOCKED: USER    NEWDPF about 0.015000 0.083000 0.031000
DOCKED: USER    NEWDPF tran0 -8.173448 -18.758623 5.115621
DOCKED: USER    NEWDPF quaternion0 -0.509579 0.378285 -0.131750 0.761493
DOCKED: USER    NEWDPF axisangle0 -0.786177 0.583617 -0.203264 80.808070
DOCKED: USER    NEWDPF quat0 -0.786177 0.583617 -0.203264 80.808070
DOCKED: USER    NEWDPF dihe0 -169.85 -36.73 -64.17 65.98 20.20 -165.18 
DOCKED: USER  keepresnum = 1 
DOCKED: USER  
DOCKED: REMARK  6 active torsions:
DOCKED: REMARK  status: ('A' for Active; 'I' for Inactive)
DOCKED: REMARK    1  A    between atoms: P_1  and  O_3 
DOCKED: REMARK    2  A    between atoms: P_2  and  O_4 
DOCKED: REMARK    3  A    between atoms: O_3  and  C_13 
DOCKED: REMARK    4  A    between atoms: O_4  and  C_14 
DOCKED: REMARK    5  A    between atoms: C_13  and  C_14 
DOCKED: REMARK    6  A    between atoms: C_13  and  C_15 
DOCKED: USER                              x       y       z     vdW  Elec       q    Type
DOCKED: USER                           _______ _______ _______ _____ _____    ______ ____
DOCKED: ROOT
DOCKED: ATOM      1  C   UNL d   1      -8.430 -18.871   4.506 -0.08 +0.34    +0.193 C 
DOCKED: ENDROOT
DOCKED: BRANCH   1   2
DOCKED: ATOM      2  O   UNL d   1      -9.326 -17.758   4.175 -0.30 -0.90    -0.356 OA
DOCKED: BRANCH   2   3
DOCKED: ATOM      3  P   UNL d   1     -10.731 -17.461   4.977 -0.27 -0.03    -0.014 P 
DOCKED: ATOM      4  O   UNL d   1     -10.772 -15.931   5.124 -0.35 -1.22    -0.577 OA
DOCKED: ATOM      5  O   UNL d   1     -10.632 -18.152   6.335 -0.39 -1.45    -0.577 OA
DOCKED: ATOM      6  O   UNL d   1     -11.882 -17.972   4.117 -0.00 -0.67    -0.638 OA
DOCKED: ENDBRANCH   2   3
DOCKED: ENDBRANCH   1   2
DOCKED: BRANCH   1   7
DOCKED: ATOM      7  C   UNL d   1      -7.602 -18.488   5.789 -0.08 +0.38    +0.201 C 
DOCKED: BRANCH   7   8
DOCKED: ATOM      8  O   UNL d   1      -7.783 -17.141   6.277 -0.12 -1.09    -0.364 OA
DOCKED: BRANCH   8   9
DOCKED: ATOM      9  P   UNL d   1      -6.613 -16.431   7.206 -0.15 -0.03    -0.015 P 
DOCKED: ATOM     10  O   UNL d   1      -6.145 -15.215   6.397 -0.48 -1.20    -0.577 OA
DOCKED: ATOM     11  O   UNL d   1      -5.499 -17.462   7.384 +0.00 -0.65    -0.577 OA
DOCKED: ATOM     12  O   UNL d   1      -7.269 -16.025   8.525 -0.49 -1.49    -0.638 OA
DOCKED: ENDBRANCH   8   9
DOCKED: ENDBRANCH   7   8
DOCKED: ENDBRANCH   1   7
DOCKED: BRANCH   1  13
DOCKED: ATOM     13  C   UNL d   1      -7.429 -19.129   3.319 -0.09 +0.13    +0.073 C 
DOCKED: ATOM     14  O   UNL d   1      -7.488 -20.251   2.703 -0.01 -0.65    -0.547 OA
DOCKED: ATOM     15  O   UNL d   1      -6.647 -18.163   2.996 -0.38 -1.43    -0.547 OA
DOCKED: ENDBRANCH   1  13
DOCKED: TORSDOF 6
DOCKED: TER
DOCKED: ENDMDL
________________________________________________________________________________


	BEGINNING GENETIC ALGORITHM DOCKING 77 of 100
Run: 77 Seed: 1096337679 1586312960 [ Run 77 of 100 GA/GALS ]
Beginning LAMARCKIAN GENETIC ALGORITHM (LGA), with a maximum of 25000000 energy evaluations.

Final-Value: -10.385


	FINAL GENETIC ALGORITHM DOCKED STATE
	_______________________________________________


Detailed state:  trans -7.836 -18.526 5.987 quatxyzw -0.250610 -0.111994 0.583737 0.764135 center 0.015 0.083 0.031 ntor 6 177.5979 -46.2590 -68.1544 71.5645 -43.7048 124.3035
State:	 -7.836 -18.526   5.987  -0.389 -0.174  0.905 80.340    177.60  -46.26  -68.15   71.56  -43.70  124.30

DOCKED: MODEL       77
DOCKED: USER    Run = 77
DOCKED: USER    DPF = D:/Protein_go_brrr/autodock/final/AncB/2_3_BPG/dock.dpf
DOCKED: USER  
DOCKED: USER    Estimated Free Energy of Binding    =  -11.11 kcal/mol  [=(1)+(2)+(3)-(4)]
DOCKED: USER    Estimated Inhibition Constant, Ki   =    7.15 nM (nanomolar)  [Temperature = 298.15 K]
DOCKED: USER    
DOCKED: USER    (1) Final Intermolecular Energy     =  -12.90 kcal/mol
DOCKED: USER        vdW + Hbond + desolv Energy     =   -3.41 kcal/mol
DOCKED: USER        Electrostatic Energy            =   -9.49 kcal/mol
DOCKED: USER    (2) Final Total Internal Energy     =   +2.52 kcal/mol
DOCKED: USER    (3) Torsional Free Energy           =   +1.79 kcal/mol
DOCKED: USER    (4) Unbound System's Energy  [=(2)] =   +2.52 kcal/mol
DOCKED: USER    
DOCKED: USER    
DOCKED: USER    NEWDPF move 2_3_BPG_opt.pdbqt
DOCKED: USER    NEWDPF about 0.015000 0.083000 0.031000
DOCKED: USER    NEWDPF tran0 -7.835766 -18.525657 5.986689
DOCKED: USER    NEWDPF quaternion0 -0.250610 -0.111994 0.583737 0.764135
DOCKED: USER    NEWDPF axisangle0 -0.388508 -0.173620 0.904941 80.339753
DOCKED: USER    NEWDPF quat0 -0.388508 -0.173620 0.904941 80.339753
DOCKED: USER    NEWDPF dihe0 177.60 -46.26 -68.15 71.56 -43.70 124.30 
DOCKED: USER  keepresnum = 1 
DOCKED: USER  
DOCKED: REMARK  6 active torsions:
DOCKED: REMARK  status: ('A' for Active; 'I' for Inactive)
DOCKED: REMARK    1  A    between atoms: P_1  and  O_3 
DOCKED: REMARK    2  A    between atoms: P_2  and  O_4 
DOCKED: REMARK    3  A    between atoms: O_3  and  C_13 
DOCKED: REMARK    4  A    between atoms: O_4  and  C_14 
DOCKED: REMARK    5  A    between atoms: C_13  and  C_14 
DOCKED: REMARK    6  A    between atoms: C_13  and  C_15 
DOCKED: USER                              x       y       z     vdW  Elec       q    Type
DOCKED: USER                           _______ _______ _______ _____ _____    ______ ____
DOCKED: ROOT
DOCKED: ATOM      1  C   UNL d   1      -8.315 -18.144   6.259 +0.01 +0.45    +0.193 C 
DOCKED: ENDROOT
DOCKED: BRANCH   1   2
DOCKED: ATOM      2  O   UNL d   1      -7.788 -16.782   6.401 -0.18 -1.13    -0.356 OA
DOCKED: BRANCH   2   3
DOCKED: ATOM      3  P   UNL d   1      -6.475 -16.413   7.319 -0.20 -0.03    -0.014 P 
DOCKED: ATOM      4  O   UNL d   1      -5.579 -15.580   6.389 -0.58 -1.00    -0.577 OA
DOCKED: ATOM      5  O   UNL d   1      -5.809 -17.732   7.707 -0.01 -0.66    -0.577 OA
DOCKED: ATOM      6  O   UNL d   1      -6.951 -15.597   8.516 -0.52 -1.11    -0.638 OA
DOCKED: ENDBRANCH   2   3
DOCKED: ENDBRANCH   1   2
DOCKED: BRANCH   1   7
DOCKED: ATOM      7  C   UNL d   1      -7.324 -18.977   5.365 -0.06 +0.31    +0.201 C 
DOCKED: BRANCH   7   8
DOCKED: ATOM      8  O   UNL d   1      -7.378 -18.710   3.946 -0.11 -0.73    -0.364 OA
DOCKED: BRANCH   8   9
DOCKED: ATOM      9  P   UNL d   1      -5.982 -18.631   3.063 -0.11 -0.03    -0.015 P 
DOCKED: ATOM     10  O   UNL d   1      -6.047 -19.827   2.106 -0.26 -0.84    -0.577 OA
DOCKED: ATOM     11  O   UNL d   1      -4.822 -18.753   4.051 +0.01 -0.65    -0.577 OA
DOCKED: ATOM     12  O   UNL d   1      -5.995 -17.297   2.317 -0.22 -1.92    -0.638 OA
DOCKED: ENDBRANCH   8   9
DOCKED: ENDBRANCH   7   8
DOCKED: ENDBRANCH   1   7
DOCKED: BRANCH   1  13
DOCKED: ATOM     13  C   UNL d   1      -9.722 -18.107   5.553 -0.13 +0.16    +0.073 C 
DOCKED: ATOM     14  O   UNL d   1     -10.699 -18.725   6.105 -0.51 -0.97    -0.547 OA
DOCKED: ATOM     15  O   UNL d   1      -9.821 -17.399   4.487 -0.54 -1.35    -0.547 OA
DOCKED: ENDBRANCH   1  13
DOCKED: TORSDOF 6
DOCKED: TER
DOCKED: ENDMDL
________________________________________________________________________________


	BEGINNING GENETIC ALGORITHM DOCKING 78 of 100
Run: 78 Seed: 1719914094 1450787204 [ Run 78 of 100 GA/GALS ]
Beginning LAMARCKIAN GENETIC ALGORITHM (LGA), with a maximum of 25000000 energy evaluations.

Final-Value: -10.112


	FINAL GENETIC ALGORITHM DOCKED STATE
	_______________________________________________


Detailed state:  trans -8.222 -18.691 5.568 quatxyzw -0.316927 0.768169 0.524222 0.186186 center 0.015 0.083 0.031 ntor 6 27.2834 -45.2619 -120.6963 27.2045 -128.6094 -66.3566
State:	 -8.222 -18.691   5.568  -0.323  0.782  0.534 158.539     27.28  -45.26 -120.70   27.20 -128.61  -66.36

DOCKED: MODEL       78
DOCKED: USER    Run = 78
DOCKED: USER    DPF = D:/Protein_go_brrr/autodock/final/AncB/2_3_BPG/dock.dpf
DOCKED: USER  
DOCKED: USER    Estimated Free Energy of Binding    =  -10.98 kcal/mol  [=(1)+(2)+(3)-(4)]
DOCKED: USER    Estimated Inhibition Constant, Ki   =    9.00 nM (nanomolar)  [Temperature = 298.15 K]
DOCKED: USER    
DOCKED: USER    (1) Final Intermolecular Energy     =  -12.77 kcal/mol
DOCKED: USER        vdW + Hbond + desolv Energy     =   -3.07 kcal/mol
DOCKED: USER        Electrostatic Energy            =   -9.70 kcal/mol
DOCKED: USER    (2) Final Total Internal Energy     =   +2.65 kcal/mol
DOCKED: USER    (3) Torsional Free Energy           =   +1.79 kcal/mol
DOCKED: USER    (4) Unbound System's Energy  [=(2)] =   +2.65 kcal/mol
DOCKED: USER    
DOCKED: USER    
DOCKED: USER    NEWDPF move 2_3_BPG_opt.pdbqt
DOCKED: USER    NEWDPF about 0.015000 0.083000 0.031000
DOCKED: USER    NEWDPF tran0 -8.222087 -18.691226 5.567542
DOCKED: USER    NEWDPF quaternion0 -0.316927 0.768169 0.524222 0.186186
DOCKED: USER    NEWDPF axisangle0 -0.322567 0.781839 0.533552 158.539395
DOCKED: USER    NEWDPF quat0 -0.322567 0.781839 0.533552 158.539395
DOCKED: USER    NEWDPF dihe0 27.28 -45.26 -120.70 27.20 -128.61 -66.36 
DOCKED: USER  keepresnum = 1 
DOCKED: USER  
DOCKED: REMARK  6 active torsions:
DOCKED: REMARK  status: ('A' for Active; 'I' for Inactive)
DOCKED: REMARK    1  A    between atoms: P_1  and  O_3 
DOCKED: REMARK    2  A    between atoms: P_2  and  O_4 
DOCKED: REMARK    3  A    between atoms: O_3  and  C_13 
DOCKED: REMARK    4  A    between atoms: O_4  and  C_14 
DOCKED: REMARK    5  A    between atoms: C_13  and  C_14 
DOCKED: REMARK    6  A    between atoms: C_13  and  C_15 
DOCKED: USER                              x       y       z     vdW  Elec       q    Type
DOCKED: USER                           _______ _______ _______ _____ _____    ______ ____
DOCKED: ROOT
DOCKED: ATOM      1  C   UNL d   1      -7.761 -18.305   5.271 +0.10 +0.42    +0.193 C 
DOCKED: ENDROOT
DOCKED: BRANCH   1   2
DOCKED: ATOM      2  O   UNL d   1      -6.830 -17.832   6.302 -0.13 -0.70    -0.356 OA
DOCKED: BRANCH   2   3
DOCKED: ATOM      3  P   UNL d   1      -6.835 -16.295   6.886 -0.01 -0.03    -0.014 P 
DOCKED: ATOM      4  O   UNL d   1      -6.829 -16.466   8.413 -0.62 -1.08    -0.577 OA
DOCKED: ATOM      5  O   UNL d   1      -8.122 -15.631   6.400 +0.07 -1.90    -0.577 OA
DOCKED: ATOM      6  O   UNL d   1      -5.569 -15.600   6.395 -0.56 -1.10    -0.638 OA
DOCKED: ENDBRANCH   2   3
DOCKED: ENDBRANCH   1   2
DOCKED: BRANCH   1   7
DOCKED: ATOM      7  C   UNL d   1      -8.667 -19.434   5.889 -0.06 +0.28    +0.201 C 
DOCKED: BRANCH   7   8
DOCKED: ATOM      8  O   UNL d   1      -9.927 -18.997   6.444 -0.54 -0.69    -0.364 OA
DOCKED: BRANCH   8   9
DOCKED: ATOM      9  P   UNL d   1     -10.981 -18.119   5.519 -0.21 -0.03    -0.015 P 
DOCKED: ATOM     10  O   UNL d   1     -11.343 -19.037   4.346 +0.02 -0.58    -0.577 OA
DOCKED: ATOM     11  O   UNL d   1     -10.232 -16.869   5.056 -0.69 -1.42    -0.577 OA
DOCKED: ATOM     12  O   UNL d   1     -12.192 -17.800   6.395 -0.03 -0.96    -0.638 OA
DOCKED: ENDBRANCH   8   9
DOCKED: ENDBRANCH   7   8
DOCKED: ENDBRANCH   1   7
DOCKED: BRANCH   1  13
DOCKED: ATOM     13  C   UNL d   1      -6.961 -18.909   4.057 -0.08 +0.13    +0.073 C 
DOCKED: ATOM     14  O   UNL d   1      -6.522 -20.109   4.150 +0.02 -0.56    -0.547 OA
DOCKED: ATOM     15  O   UNL d   1      -6.850 -18.175   3.010 -0.34 -1.48    -0.547 OA
DOCKED: ENDBRANCH   1  13
DOCKED: TORSDOF 6
DOCKED: TER
DOCKED: ENDMDL
________________________________________________________________________________


	BEGINNING GENETIC ALGORITHM DOCKING 79 of 100
Run: 79 Seed: 950090087 916337671 [ Run 79 of 100 GA/GALS ]
Beginning LAMARCKIAN GENETIC ALGORITHM (LGA), with a maximum of 25000000 energy evaluations.

Final-Value: -10.331


	FINAL GENETIC ALGORITHM DOCKED STATE
	_______________________________________________


Detailed state:  trans -7.296 -18.667 5.247 quatxyzw 0.569639 -0.336712 0.338127 -0.669183 center 0.015 0.083 0.031 ntor 6 139.4461 61.0647 106.9149 89.9651 39.7170 -175.7061
State:	 -7.296 -18.667   5.247   0.767 -0.453  0.455 -95.992    139.45   61.06  106.91   89.97   39.72 -175.71

DOCKED: MODEL       79
DOCKED: USER    Run = 79
DOCKED: USER    DPF = D:/Protein_go_brrr/autodock/final/AncB/2_3_BPG/dock.dpf
DOCKED: USER  
DOCKED: USER    Estimated Free Energy of Binding    =  -11.38 kcal/mol  [=(1)+(2)+(3)-(4)]
DOCKED: USER    Estimated Inhibition Constant, Ki   =    4.55 nM (nanomolar)  [Temperature = 298.15 K]
DOCKED: USER    
DOCKED: USER    (1) Final Intermolecular Energy     =  -13.17 kcal/mol
DOCKED: USER        vdW + Hbond + desolv Energy     =   -3.22 kcal/mol
DOCKED: USER        Electrostatic Energy            =   -9.95 kcal/mol
DOCKED: USER    (2) Final Total Internal Energy     =   +2.84 kcal/mol
DOCKED: USER    (3) Torsional Free Energy           =   +1.79 kcal/mol
DOCKED: USER    (4) Unbound System's Energy  [=(2)] =   +2.84 kcal/mol
DOCKED: USER    
DOCKED: USER    
DOCKED: USER    NEWDPF move 2_3_BPG_opt.pdbqt
DOCKED: USER    NEWDPF about 0.015000 0.083000 0.031000
DOCKED: USER    NEWDPF tran0 -7.295846 -18.666534 5.246798
DOCKED: USER    NEWDPF quaternion0 0.569639 -0.336712 0.338127 -0.669183
DOCKED: USER    NEWDPF axisangle0 0.766574 -0.453120 0.455024 -95.991887
DOCKED: USER    NEWDPF quat0 0.766574 -0.453120 0.455024 -95.991887
DOCKED: USER    NEWDPF dihe0 139.45 61.06 106.91 89.97 39.72 -175.71 
DOCKED: USER  keepresnum = 1 
DOCKED: USER  
DOCKED: REMARK  6 active torsions:
DOCKED: REMARK  status: ('A' for Active; 'I' for Inactive)
DOCKED: REMARK    1  A    between atoms: P_1  and  O_3 
DOCKED: REMARK    2  A    between atoms: P_2  and  O_4 
DOCKED: REMARK    3  A    between atoms: O_3  and  C_13 
DOCKED: REMARK    4  A    between atoms: O_4  and  C_14 
DOCKED: REMARK    5  A    between atoms: C_13  and  C_14 
DOCKED: REMARK    6  A    between atoms: C_13  and  C_15 
DOCKED: USER                              x       y       z     vdW  Elec       q    Type
DOCKED: USER                           _______ _______ _______ _____ _____    ______ ____
DOCKED: ROOT
DOCKED: ATOM      1  C   UNL d   1      -7.360 -18.837   4.602 -0.03 +0.34    +0.193 C 
DOCKED: ENDROOT
DOCKED: BRANCH   1   2
DOCKED: ATOM      2  O   UNL d   1      -8.557 -18.175   4.071 -0.06 -0.88    -0.356 OA
DOCKED: BRANCH   2   3
DOCKED: ATOM      3  P   UNL d   1      -9.976 -18.077   4.897 -0.21 -0.03    -0.014 P 
DOCKED: ATOM      4  O   UNL d   1     -11.009 -18.727   3.962 +0.01 -0.65    -0.577 OA
DOCKED: ATOM      5  O   UNL d   1     -10.271 -16.595   5.115 -0.66 -1.45    -0.577 OA
DOCKED: ATOM      6  O   UNL d   1      -9.821 -18.865   6.194 -0.38 -1.23    -0.638 OA
DOCKED: ENDBRANCH   2   3
DOCKED: ENDBRANCH   1   2
DOCKED: BRANCH   1   7
DOCKED: ATOM      7  C   UNL d   1      -7.030 -18.226   6.013 -0.07 +0.37    +0.201 C 
DOCKED: BRANCH   7   8
DOCKED: ATOM      8  O   UNL d   1      -7.674 -16.971   6.324 -0.14 -1.11    -0.364 OA
DOCKED: BRANCH   8   9
DOCKED: ATOM      9  P   UNL d   1      -6.820 -15.759   7.056 -0.11 -0.03    -0.015 P 
DOCKED: ATOM     10  O   UNL d   1      -6.586 -16.246   8.491 -0.47 -0.92    -0.577 OA
DOCKED: ATOM     11  O   UNL d   1      -7.697 -14.507   7.014 -0.13 -1.18    -0.577 OA
DOCKED: ATOM     12  O   UNL d   1      -5.511 -15.599   6.284 -0.53 -1.12    -0.638 OA
DOCKED: ENDBRANCH   8   9
DOCKED: ENDBRANCH   7   8
DOCKED: ENDBRANCH   1   7
DOCKED: BRANCH   1  13
DOCKED: ATOM     13  C   UNL d   1      -6.136 -18.587   3.645 -0.11 +0.13    +0.073 C 
DOCKED: ATOM     14  O   UNL d   1      -5.078 -19.291   3.807 +0.00 -0.58    -0.547 OA
DOCKED: ATOM     15  O   UNL d   1      -6.296 -17.725   2.707 -0.33 -1.62    -0.547 OA
DOCKED: ENDBRANCH   1  13
DOCKED: TORSDOF 6
DOCKED: TER
DOCKED: ENDMDL
________________________________________________________________________________


	BEGINNING GENETIC ALGORITHM DOCKING 80 of 100
Run: 80 Seed: 1969855450 1218219397 [ Run 80 of 100 GA/GALS ]
Beginning LAMARCKIAN GENETIC ALGORITHM (LGA), with a maximum of 25000000 energy evaluations.

Final-Value: -9.022


	FINAL GENETIC ALGORITHM DOCKED STATE
	_______________________________________________


Detailed state:  trans -0.806 2.389 -14.021 quatxyzw 0.474038 -0.663878 -0.425445 -0.391854 center 0.015 0.083 0.031 ntor 6 -178.6523 170.0471 87.8530 -1.4315 -98.9435 -62.7161
State:	 -0.806   2.389 -14.021   0.515 -0.722 -0.462 -133.860   -178.65  170.05   87.85   -1.43  -98.94  -62.72

DOCKED: MODEL       80
DOCKED: USER    Run = 80
DOCKED: USER    DPF = D:/Protein_go_brrr/autodock/final/AncB/2_3_BPG/dock.dpf
DOCKED: USER  
DOCKED: USER    Estimated Free Energy of Binding    =   -9.44 kcal/mol  [=(1)+(2)+(3)-(4)]
DOCKED: USER    Estimated Inhibition Constant, Ki   =  121.29 nM (nanomolar)  [Temperature = 298.15 K]
DOCKED: USER    
DOCKED: USER    (1) Final Intermolecular Energy     =  -11.23 kcal/mol
DOCKED: USER        vdW + Hbond + desolv Energy     =   -3.84 kcal/mol
DOCKED: USER        Electrostatic Energy            =   -7.39 kcal/mol
DOCKED: USER    (2) Final Total Internal Energy     =   +2.20 kcal/mol
DOCKED: USER    (3) Torsional Free Energy           =   +1.79 kcal/mol
DOCKED: USER    (4) Unbound System's Energy  [=(2)] =   +2.20 kcal/mol
DOCKED: USER    
DOCKED: USER    
DOCKED: USER    NEWDPF move 2_3_BPG_opt.pdbqt
DOCKED: USER    NEWDPF about 0.015000 0.083000 0.031000
DOCKED: USER    NEWDPF tran0 -0.805641 2.388541 -14.020933
DOCKED: USER    NEWDPF quaternion0 0.474038 -0.663878 -0.425445 -0.391854
DOCKED: USER    NEWDPF axisangle0 0.515244 -0.721585 -0.462426 -133.860158
DOCKED: USER    NEWDPF quat0 0.515244 -0.721585 -0.462426 -133.860158
DOCKED: USER    NEWDPF dihe0 -178.65 170.05 87.85 -1.43 -98.94 -62.72 
DOCKED: USER  keepresnum = 1 
DOCKED: USER  
DOCKED: REMARK  6 active torsions:
DOCKED: REMARK  status: ('A' for Active; 'I' for Inactive)
DOCKED: REMARK    1  A    between atoms: P_1  and  O_3 
DOCKED: REMARK    2  A    between atoms: P_2  and  O_4 
DOCKED: REMARK    3  A    between atoms: O_3  and  C_13 
DOCKED: REMARK    4  A    between atoms: O_4  and  C_14 
DOCKED: REMARK    5  A    between atoms: C_13  and  C_14 
DOCKED: REMARK    6  A    between atoms: C_13  and  C_15 
DOCKED: USER                              x       y       z     vdW  Elec       q    Type
DOCKED: USER                           _______ _______ _______ _____ _____    ______ ____
DOCKED: ROOT
DOCKED: ATOM      1  C   UNL d   1      -0.657   2.912 -14.412 -0.18 +0.25    +0.193 C 
DOCKED: ENDROOT
DOCKED: BRANCH   1   2
DOCKED: ATOM      2  O   UNL d   1      -0.043   3.949 -13.575 -0.89 -0.46    -0.356 OA
DOCKED: BRANCH   2   3
DOCKED: ATOM      3  P   UNL d   1      -0.470   5.536 -13.646 -0.45 -0.02    -0.014 P 
DOCKED: ATOM      4  O   UNL d   1      -1.287   5.655 -14.941 -0.29 -1.24    -0.577 OA
DOCKED: ATOM      5  O   UNL d   1       0.821   6.349 -13.719 -0.17 -0.42    -0.577 OA
DOCKED: ATOM      6  O   UNL d   1      -1.318   5.851 -12.418 -0.27 -0.92    -0.638 OA
DOCKED: ENDBRANCH   2   3
DOCKED: ENDBRANCH   1   2
DOCKED: BRANCH   1   7
DOCKED: ATOM      7  C   UNL d   1      -0.745   1.579 -13.581 -0.15 +0.21    +0.201 C 
DOCKED: BRANCH   7   8
DOCKED: ATOM      8  O   UNL d   1      -2.013   1.319 -12.940 -0.14 -0.47    -0.364 OA
DOCKED: BRANCH   8   9
DOCKED: ATOM      9  P   UNL d   1      -3.240   0.602 -13.786 -0.20 -0.03    -0.015 P 
DOCKED: ATOM     10  O   UNL d   1      -4.022   1.761 -14.414 -0.57 -1.08    -0.577 OA
DOCKED: ATOM     11  O   UNL d   1      -4.084  -0.175 -12.776 -0.08 -1.07    -0.577 OA
DOCKED: ATOM     12  O   UNL d   1      -2.595  -0.295 -14.842 -0.35 -1.46    -0.638 OA
DOCKED: ENDBRANCH   8   9
DOCKED: ENDBRANCH   7   8
DOCKED: ENDBRANCH   1   7
DOCKED: BRANCH   1  13
DOCKED: ATOM     13  C   UNL d   1       0.230   2.653 -15.687 -0.12 +0.06    +0.073 C 
DOCKED: ATOM     14  O   UNL d   1      -0.315   2.754 -16.842 +0.03 -0.42    -0.547 OA
DOCKED: ATOM     15  O   UNL d   1       1.476   2.416 -15.492 +0.01 -0.33    -0.547 OA
DOCKED: ENDBRANCH   1  13
DOCKED: TORSDOF 6
DOCKED: TER
DOCKED: ENDMDL
________________________________________________________________________________


	BEGINNING GENETIC ALGORITHM DOCKING 81 of 100
Run: 81 Seed: 315064720 770787644 [ Run 81 of 100 GA/GALS ]
Beginning LAMARCKIAN GENETIC ALGORITHM (LGA), with a maximum of 25000000 energy evaluations.

Final-Value: -10.231


	FINAL GENETIC ALGORITHM DOCKED STATE
	_______________________________________________


Detailed state:  trans -7.867 -18.544 5.638 quatxyzw 0.211304 0.193343 -0.554304 -0.781483 center 0.015 0.083 0.031 ntor 6 -172.9218 -79.5544 -96.5704 52.4285 -42.6793 156.3061
State:	 -7.867 -18.544   5.638   0.339  0.310 -0.888 -77.207   -172.92  -79.55  -96.57   52.43  -42.68  156.31

DOCKED: MODEL       81
DOCKED: USER    Run = 81
DOCKED: USER    DPF = D:/Protein_go_brrr/autodock/final/AncB/2_3_BPG/dock.dpf
DOCKED: USER  
DOCKED: USER    Estimated Free Energy of Binding    =  -10.99 kcal/mol  [=(1)+(2)+(3)-(4)]
DOCKED: USER    Estimated Inhibition Constant, Ki   =    8.77 nM (nanomolar)  [Temperature = 298.15 K]
DOCKED: USER    
DOCKED: USER    (1) Final Intermolecular Energy     =  -12.78 kcal/mol
DOCKED: USER        vdW + Hbond + desolv Energy     =   -2.96 kcal/mol
DOCKED: USER        Electrostatic Energy            =   -9.82 kcal/mol
DOCKED: USER    (2) Final Total Internal Energy     =   +2.55 kcal/mol
DOCKED: USER    (3) Torsional Free Energy           =   +1.79 kcal/mol
DOCKED: USER    (4) Unbound System's Energy  [=(2)] =   +2.55 kcal/mol
DOCKED: USER    
DOCKED: USER    
DOCKED: USER    NEWDPF move 2_3_BPG_opt.pdbqt
DOCKED: USER    NEWDPF about 0.015000 0.083000 0.031000
DOCKED: USER    NEWDPF tran0 -7.866946 -18.544004 5.637627
DOCKED: USER    NEWDPF quaternion0 0.211304 0.193343 -0.554304 -0.781483
DOCKED: USER    NEWDPF axisangle0 0.338669 0.309882 -0.888413 -77.206805
DOCKED: USER    NEWDPF quat0 0.338669 0.309882 -0.888413 -77.206805
DOCKED: USER    NEWDPF dihe0 -172.92 -79.55 -96.57 52.43 -42.68 156.31 
DOCKED: USER  keepresnum = 1 
DOCKED: USER  
DOCKED: REMARK  6 active torsions:
DOCKED: REMARK  status: ('A' for Active; 'I' for Inactive)
DOCKED: REMARK    1  A    between atoms: P_1  and  O_3 
DOCKED: REMARK    2  A    between atoms: P_2  and  O_4 
DOCKED: REMARK    3  A    between atoms: O_3  and  C_13 
DOCKED: REMARK    4  A    between atoms: O_4  and  C_14 
DOCKED: REMARK    5  A    between atoms: C_13  and  C_14 
DOCKED: REMARK    6  A    between atoms: C_13  and  C_15 
DOCKED: USER                              x       y       z     vdW  Elec       q    Type
DOCKED: USER                           _______ _______ _______ _____ _____    ______ ____
DOCKED: ROOT
DOCKED: ATOM      1  C   UNL d   1      -8.339 -18.227   5.994 -0.09 +0.43    +0.193 C 
DOCKED: ENDROOT
DOCKED: BRANCH   1   2
DOCKED: ATOM      2  O   UNL d   1      -7.952 -16.817   6.112 +0.18 -1.21    -0.356 OA
DOCKED: BRANCH   2   3
DOCKED: ATOM      3  P   UNL d   1      -6.842 -16.273   7.197 -0.10 -0.03    -0.014 P 
DOCKED: ATOM      4  O   UNL d   1      -5.530 -16.203   6.401 -0.54 -0.98    -0.577 OA
DOCKED: ATOM      5  O   UNL d   1      -6.764 -17.305   8.320 -0.45 -0.99    -0.577 OA
DOCKED: ATOM      6  O   UNL d   1      -7.284 -14.892   7.670 -0.30 -1.20    -0.638 OA
DOCKED: ENDBRANCH   2   3
DOCKED: ENDBRANCH   1   2
DOCKED: BRANCH   1   7
DOCKED: ATOM      7  C   UNL d   1      -7.409 -18.918   4.929 -0.06 +0.34    +0.201 C 
DOCKED: BRANCH   7   8
DOCKED: ATOM      8  O   UNL d   1      -7.180 -18.171   3.713 +0.07 -0.99    -0.364 OA
DOCKED: BRANCH   8   9
DOCKED: ATOM      9  P   UNL d   1      -5.680 -18.162   3.016 -0.07 -0.03    -0.015 P 
DOCKED: ATOM     10  O   UNL d   1      -5.643 -19.414   2.132 -0.34 -0.90    -0.577 OA
DOCKED: ATOM     11  O   UNL d   1      -4.660 -18.234   4.152 +0.00 -0.70    -0.577 OA
DOCKED: ATOM     12  O   UNL d   1      -5.572 -16.877   2.196 -0.23 -1.70    -0.638 OA
DOCKED: ENDBRANCH   8   9
DOCKED: ENDBRANCH   7   8
DOCKED: ENDBRANCH   1   7
DOCKED: BRANCH   1  13
DOCKED: ATOM     13  C   UNL d   1      -9.832 -18.339   5.508 -0.15 +0.15    +0.073 C 
DOCKED: ATOM     14  O   UNL d   1     -10.680 -18.925   6.268 -0.54 -0.94    -0.547 OA
DOCKED: ATOM     15  O   UNL d   1     -10.126 -17.772   4.394 -0.35 -1.06    -0.547 OA
DOCKED: ENDBRANCH   1  13
DOCKED: TORSDOF 6
DOCKED: TER
DOCKED: ENDMDL
________________________________________________________________________________


	BEGINNING GENETIC ALGORITHM DOCKING 82 of 100
Run: 82 Seed: 96005219 1054783628 [ Run 82 of 100 GA/GALS ]
Beginning LAMARCKIAN GENETIC ALGORITHM (LGA), with a maximum of 25000000 energy evaluations.

Final-Value: -10.034


	FINAL GENETIC ALGORITHM DOCKED STATE
	_______________________________________________


Detailed state:  trans -7.635 -19.065 4.377 quatxyzw 0.597462 -0.472336 0.268354 -0.589851 center 0.015 0.083 0.031 ntor 6 155.5682 33.6054 -144.0398 10.1069 47.4885 -171.0322
State:	 -7.635 -19.065   4.377   0.740 -0.585  0.332 -107.707    155.57   33.61 -144.04   10.11   47.49 -171.03

DOCKED: MODEL       82
DOCKED: USER    Run = 82
DOCKED: USER    DPF = D:/Protein_go_brrr/autodock/final/AncB/2_3_BPG/dock.dpf
DOCKED: USER  
DOCKED: USER    Estimated Free Energy of Binding    =  -10.50 kcal/mol  [=(1)+(2)+(3)-(4)]
DOCKED: USER    Estimated Inhibition Constant, Ki   =   20.13 nM (nanomolar)  [Temperature = 298.15 K]
DOCKED: USER    
DOCKED: USER    (1) Final Intermolecular Energy     =  -12.29 kcal/mol
DOCKED: USER        vdW + Hbond + desolv Energy     =   -2.39 kcal/mol
DOCKED: USER        Electrostatic Energy            =   -9.90 kcal/mol
DOCKED: USER    (2) Final Total Internal Energy     =   +2.26 kcal/mol
DOCKED: USER    (3) Torsional Free Energy           =   +1.79 kcal/mol
DOCKED: USER    (4) Unbound System's Energy  [=(2)] =   +2.26 kcal/mol
DOCKED: USER    
DOCKED: USER    
DOCKED: USER    NEWDPF move 2_3_BPG_opt.pdbqt
DOCKED: USER    NEWDPF about 0.015000 0.083000 0.031000
DOCKED: USER    NEWDPF tran0 -7.635331 -19.065204 4.376728
DOCKED: USER    NEWDPF quaternion0 0.597462 -0.472336 0.268354 -0.589851
DOCKED: USER    NEWDPF axisangle0 0.739880 -0.584927 0.332322 -107.707080
DOCKED: USER    NEWDPF quat0 0.739880 -0.584927 0.332322 -107.707080
DOCKED: USER    NEWDPF dihe0 155.57 33.61 -144.04 10.11 47.49 -171.03 
DOCKED: USER  keepresnum = 1 
DOCKED: USER  
DOCKED: REMARK  6 active torsions:
DOCKED: REMARK  status: ('A' for Active; 'I' for Inactive)
DOCKED: REMARK    1  A    between atoms: P_1  and  O_3 
DOCKED: REMARK    2  A    between atoms: P_2  and  O_4 
DOCKED: REMARK    3  A    between atoms: O_3  and  C_13 
DOCKED: REMARK    4  A    between atoms: O_4  and  C_14 
DOCKED: REMARK    5  A    between atoms: C_13  and  C_14 
DOCKED: REMARK    6  A    between atoms: C_13  and  C_15 
DOCKED: USER                              x       y       z     vdW  Elec       q    Type
DOCKED: USER                           _______ _______ _______ _____ _____    ______ ____
DOCKED: ROOT
DOCKED: ATOM      1  C   UNL d   1      -7.623 -19.053   3.707 -0.09 +0.34    +0.193 C 
DOCKED: ENDROOT
DOCKED: BRANCH   1   2
DOCKED: ATOM      2  O   UNL d   1      -8.604 -18.064   3.248 -0.03 -0.91    -0.356 OA
DOCKED: BRANCH   2   3
DOCKED: ATOM      3  P   UNL d   1      -9.850 -18.428   2.239 -0.18 -0.02    -0.014 P 
DOCKED: ATOM      4  O   UNL d   1     -10.108 -17.128   1.462 -0.08 -1.02    -0.577 OA
DOCKED: ATOM      5  O   UNL d   1     -11.044 -18.806   3.114 +0.02 -0.60    -0.577 OA
DOCKED: ATOM      6  O   UNL d   1      -9.395 -19.552   1.315 -0.24 -0.97    -0.638 OA
DOCKED: ENDBRANCH   2   3
DOCKED: ENDBRANCH   1   2
DOCKED: BRANCH   1   7
DOCKED: ATOM      7  C   UNL d   1      -7.429 -18.890   5.259 -0.06 +0.33    +0.201 C 
DOCKED: BRANCH   7   8
DOCKED: ATOM      8  O   UNL d   1      -8.005 -17.702   5.845 -0.08 -0.98    -0.364 OA
DOCKED: BRANCH   8   9
DOCKED: ATOM      9  P   UNL d   1      -7.090 -16.732   6.825 +0.12 -0.04    -0.015 P 
DOCKED: ATOM     10  O   UNL d   1      -5.696 -16.723   6.187 -0.45 -1.09    -0.577 OA
DOCKED: ATOM     11  O   UNL d   1      -7.081 -17.380   8.209 -0.42 -1.20    -0.577 OA
DOCKED: ATOM     12  O   UNL d   1      -7.734 -15.347   6.817 -0.25 -1.76    -0.638 OA
DOCKED: ENDBRANCH   8   9
DOCKED: ENDBRANCH   7   8
DOCKED: ENDBRANCH   1   7
DOCKED: BRANCH   1  13
DOCKED: ATOM     13  C   UNL d   1      -6.239 -18.810   2.997 -0.07 +0.13    +0.073 C 
DOCKED: ATOM     14  O   UNL d   1      -5.467 -19.814   2.802 -0.10 -0.62    -0.547 OA
DOCKED: ATOM     15  O   UNL d   1      -5.992 -17.616   2.596 -0.49 -1.51    -0.547 OA
DOCKED: ENDBRANCH   1  13
DOCKED: TORSDOF 6
DOCKED: TER
DOCKED: ENDMDL
________________________________________________________________________________


	BEGINNING GENETIC ALGORITHM DOCKING 83 of 100
Run: 83 Seed: 651274737 845067254 [ Run 83 of 100 GA/GALS ]
Beginning LAMARCKIAN GENETIC ALGORITHM (LGA), with a maximum of 25000000 energy evaluations.

Final-Value: -10.167


	FINAL GENETIC ALGORITHM DOCKED STATE
	_______________________________________________


Detailed state:  trans -7.960 -18.784 5.547 quatxyzw 0.482029 -0.100359 0.464728 -0.735938 center 0.015 0.083 0.031 ntor 6 -179.3008 2.2510 89.6016 134.7204 -9.8818 34.8365
State:	 -7.960 -18.784   5.547   0.712 -0.148  0.686 -85.227   -179.30    2.25   89.60  134.72   -9.88   34.84

DOCKED: MODEL       83
DOCKED: USER    Run = 83
DOCKED: USER    DPF = D:/Protein_go_brrr/autodock/final/AncB/2_3_BPG/dock.dpf
DOCKED: USER  
DOCKED: USER    Estimated Free Energy of Binding    =  -10.76 kcal/mol  [=(1)+(2)+(3)-(4)]
DOCKED: USER    Estimated Inhibition Constant, Ki   =   12.89 nM (nanomolar)  [Temperature = 298.15 K]
DOCKED: USER    
DOCKED: USER    (1) Final Intermolecular Energy     =  -12.55 kcal/mol
DOCKED: USER        vdW + Hbond + desolv Energy     =   -3.12 kcal/mol
DOCKED: USER        Electrostatic Energy            =   -9.43 kcal/mol
DOCKED: USER    (2) Final Total Internal Energy     =   +2.39 kcal/mol
DOCKED: USER    (3) Torsional Free Energy           =   +1.79 kcal/mol
DOCKED: USER    (4) Unbound System's Energy  [=(2)] =   +2.39 kcal/mol
DOCKED: USER    
DOCKED: USER    
DOCKED: USER    NEWDPF move 2_3_BPG_opt.pdbqt
DOCKED: USER    NEWDPF about 0.015000 0.083000 0.031000
DOCKED: USER    NEWDPF tran0 -7.960490 -18.783880 5.547298
DOCKED: USER    NEWDPF quaternion0 0.482029 -0.100359 0.464728 -0.735938
DOCKED: USER    NEWDPF axisangle0 0.711955 -0.148230 0.686402 -85.226999
DOCKED: USER    NEWDPF quat0 0.711955 -0.148230 0.686402 -85.226999
DOCKED: USER    NEWDPF dihe0 -179.30 2.25 89.60 134.72 -9.88 34.84 
DOCKED: USER  keepresnum = 1 
DOCKED: USER  
DOCKED: REMARK  6 active torsions:
DOCKED: REMARK  status: ('A' for Active; 'I' for Inactive)
DOCKED: REMARK    1  A    between atoms: P_1  and  O_3 
DOCKED: REMARK    2  A    between atoms: P_2  and  O_4 
DOCKED: REMARK    3  A    between atoms: O_3  and  C_13 
DOCKED: REMARK    4  A    between atoms: O_4  and  C_14 
DOCKED: REMARK    5  A    between atoms: C_13  and  C_14 
DOCKED: REMARK    6  A    between atoms: C_13  and  C_15 
DOCKED: USER                              x       y       z     vdW  Elec       q    Type
DOCKED: USER                           _______ _______ _______ _____ _____    ______ ____
DOCKED: ROOT
DOCKED: ATOM      1  C   UNL d   1      -8.010 -19.235   5.054 -0.07 +0.29    +0.193 C 
DOCKED: ENDROOT
DOCKED: BRANCH   1   2
DOCKED: ATOM      2  O   UNL d   1      -9.401 -19.253   4.589 -0.04 -0.49    -0.356 OA
DOCKED: BRANCH   2   3
DOCKED: ATOM      3  P   UNL d   1     -10.566 -18.257   5.186 -0.22 -0.02    -0.014 P 
DOCKED: ATOM      4  O   UNL d   1     -11.823 -18.607   4.374 -0.00 -0.57    -0.577 OA
DOCKED: ATOM      5  O   UNL d   1     -10.111 -16.822   4.926 -0.65 -1.50    -0.577 OA
DOCKED: ATOM      6  O   UNL d   1     -10.748 -18.578   6.665 -0.46 -1.47    -0.638 OA
DOCKED: ENDBRANCH   2   3
DOCKED: ENDBRANCH   1   2
DOCKED: BRANCH   1   7
DOCKED: ATOM      7  C   UNL d   1      -7.809 -17.992   5.998 -0.04 +0.47    +0.201 C 
DOCKED: BRANCH   7   8
DOCKED: ATOM      8  O   UNL d   1      -6.439 -17.636   6.287 -0.19 -0.68    -0.364 OA
DOCKED: BRANCH   8   9
DOCKED: ATOM      9  P   UNL d   1      -6.102 -16.251   7.127 -0.19 -0.03    -0.015 P 
DOCKED: ATOM     10  O   UNL d   1      -5.994 -15.154   6.061 -0.42 -1.31    -0.577 OA
DOCKED: ATOM     11  O   UNL d   1      -4.775 -16.479   7.849 +0.02 -0.50    -0.577 OA
DOCKED: ATOM     12  O   UNL d   1      -7.269 -16.008   8.083 -0.53 -1.60    -0.638 OA
DOCKED: ENDBRANCH   8   9
DOCKED: ENDBRANCH   7   8
DOCKED: ENDBRANCH   1   7
DOCKED: BRANCH   1  13
DOCKED: ATOM     13  C   UNL d   1      -7.033 -19.100   3.827 -0.11 +0.12    +0.073 C 
DOCKED: ATOM     14  O   UNL d   1      -6.104 -19.971   3.686 +0.00 -0.58    -0.547 OA
DOCKED: ATOM     15  O   UNL d   1      -7.268 -18.149   2.997 -0.22 -1.55    -0.547 OA
DOCKED: ENDBRANCH   1  13
DOCKED: TORSDOF 6
DOCKED: TER
DOCKED: ENDMDL
________________________________________________________________________________


	BEGINNING GENETIC ALGORITHM DOCKING 84 of 100
Run: 84 Seed: 1586551332 2024262752 [ Run 84 of 100 GA/GALS ]
Beginning LAMARCKIAN GENETIC ALGORITHM (LGA), with a maximum of 25000000 energy evaluations.

Final-Value: -10.400


	FINAL GENETIC ALGORITHM DOCKED STATE
	_______________________________________________


Detailed state:  trans -9.402 -19.001 2.942 quatxyzw -0.545561 0.188509 0.424516 0.697577 center 0.015 0.083 0.031 ntor 6 -66.3205 11.5748 147.7386 23.2883 47.1271 -152.3131
State:	 -9.402 -19.001   2.942  -0.761  0.263  0.592 91.534    -66.32   11.57  147.74   23.29   47.13 -152.31

DOCKED: MODEL       84
DOCKED: USER    Run = 84
DOCKED: USER    DPF = D:/Protein_go_brrr/autodock/final/AncB/2_3_BPG/dock.dpf
DOCKED: USER  
DOCKED: USER    Estimated Free Energy of Binding    =  -10.90 kcal/mol  [=(1)+(2)+(3)-(4)]
DOCKED: USER    Estimated Inhibition Constant, Ki   =   10.18 nM (nanomolar)  [Temperature = 298.15 K]
DOCKED: USER    
DOCKED: USER    (1) Final Intermolecular Energy     =  -12.69 kcal/mol
DOCKED: USER        vdW + Hbond + desolv Energy     =   -3.27 kcal/mol
DOCKED: USER        Electrostatic Energy            =   -9.42 kcal/mol
DOCKED: USER    (2) Final Total Internal Energy     =   +2.29 kcal/mol
DOCKED: USER    (3) Torsional Free Energy           =   +1.79 kcal/mol
DOCKED: USER    (4) Unbound System's Energy  [=(2)] =   +2.29 kcal/mol
DOCKED: USER    
DOCKED: USER    
DOCKED: USER    NEWDPF move 2_3_BPG_opt.pdbqt
DOCKED: USER    NEWDPF about 0.015000 0.083000 0.031000
DOCKED: USER    NEWDPF tran0 -9.402399 -19.001401 2.941945
DOCKED: USER    NEWDPF quaternion0 -0.545561 0.188509 0.424516 0.697577
DOCKED: USER    NEWDPF axisangle0 -0.761415 0.263093 0.592478 91.534196
DOCKED: USER    NEWDPF quat0 -0.761415 0.263093 0.592478 91.534196
DOCKED: USER    NEWDPF dihe0 -66.32 11.57 147.74 23.29 47.13 -152.31 
DOCKED: USER  keepresnum = 1 
DOCKED: USER  
DOCKED: REMARK  6 active torsions:
DOCKED: REMARK  status: ('A' for Active; 'I' for Inactive)
DOCKED: REMARK    1  A    between atoms: P_1  and  O_3 
DOCKED: REMARK    2  A    between atoms: P_2  and  O_4 
DOCKED: REMARK    3  A    between atoms: O_3  and  C_13 
DOCKED: REMARK    4  A    between atoms: O_4  and  C_14 
DOCKED: REMARK    5  A    between atoms: C_13  and  C_14 
DOCKED: REMARK    6  A    between atoms: C_13  and  C_15 
DOCKED: USER                              x       y       z     vdW  Elec       q    Type
DOCKED: USER                           _______ _______ _______ _____ _____    ______ ____
DOCKED: ROOT
DOCKED: ATOM      1  C   UNL d   1      -9.924 -18.604   2.803 -0.12 +0.28    +0.193 C 
DOCKED: ENDROOT
DOCKED: BRANCH   1   2
DOCKED: ATOM      2  O   UNL d   1      -9.745 -17.344   3.534 -0.34 -0.86    -0.356 OA
DOCKED: BRANCH   2   3
DOCKED: ATOM      3  P   UNL d   1     -10.668 -16.910   4.824 -0.25 -0.03    -0.014 P 
DOCKED: ATOM      4  O   UNL d   1     -10.251 -15.461   5.123 -0.43 -1.42    -0.577 OA
DOCKED: ATOM      5  O   UNL d   1     -10.308 -17.848   5.974 -0.30 -1.43    -0.577 OA
DOCKED: ATOM      6  O   UNL d   1     -12.132 -16.995   4.405 -0.03 -0.72    -0.638 OA
DOCKED: ENDBRANCH   2   3
DOCKED: ENDBRANCH   1   2
DOCKED: BRANCH   1   7
DOCKED: ATOM      7  C   UNL d   1      -8.585 -19.427   2.881 -0.06 +0.30    +0.201 C 
DOCKED: BRANCH   7   8
DOCKED: ATOM      8  O   UNL d   1      -7.563 -18.888   3.749 -0.11 -0.68    -0.364 OA
DOCKED: BRANCH   8   9
DOCKED: ATOM      9  P   UNL d   1      -6.018 -18.696   3.191 -0.12 -0.03    -0.015 P 
DOCKED: ATOM     10  O   UNL d   1      -5.831 -19.802   2.145 -0.33 -0.81    -0.577 OA
DOCKED: ATOM     11  O   UNL d   1      -5.086 -18.879   4.388 +0.01 -0.65    -0.577 OA
DOCKED: ATOM     12  O   UNL d   1      -5.931 -17.301   2.573 -0.40 -1.90    -0.638 OA
DOCKED: ENDBRANCH   8   9
DOCKED: ENDBRANCH   7   8
DOCKED: ENDBRANCH   1   7
DOCKED: BRANCH   1  13
DOCKED: ATOM     13  C   UNL d   1     -10.247 -18.309   1.291 -0.11 +0.11    +0.073 C 
DOCKED: ATOM     14  O   UNL d   1     -10.553 -17.112   0.953 -0.15 -0.83    -0.547 OA
DOCKED: ATOM     15  O   UNL d   1     -10.121 -19.286   0.467 -0.53 -0.76    -0.547 OA
DOCKED: ENDBRANCH   1  13
DOCKED: TORSDOF 6
DOCKED: TER
DOCKED: ENDMDL
________________________________________________________________________________


	BEGINNING GENETIC ALGORITHM DOCKING 85 of 100
Run: 85 Seed: 85725144 1797396300 [ Run 85 of 100 GA/GALS ]
Beginning LAMARCKIAN GENETIC ALGORITHM (LGA), with a maximum of 25000000 energy evaluations.

Final-Value: -10.253


	FINAL GENETIC ALGORITHM DOCKED STATE
	_______________________________________________


Detailed state:  trans -7.333 -18.836 6.399 quatxyzw -0.070834 0.242747 -0.421083 -0.871060 center 0.015 0.083 0.031 ntor 6 142.2123 133.5927 -133.8763 47.9557 54.7378 -142.4338
State:	 -7.333 -18.836   6.399  -0.144  0.494 -0.857 -58.836    142.21  133.59 -133.88   47.96   54.74 -142.43

DOCKED: MODEL       85
DOCKED: USER    Run = 85
DOCKED: USER    DPF = D:/Protein_go_brrr/autodock/final/AncB/2_3_BPG/dock.dpf
DOCKED: USER  
DOCKED: USER    Estimated Free Energy of Binding    =  -11.06 kcal/mol  [=(1)+(2)+(3)-(4)]
DOCKED: USER    Estimated Inhibition Constant, Ki   =    7.78 nM (nanomolar)  [Temperature = 298.15 K]
DOCKED: USER    
DOCKED: USER    (1) Final Intermolecular Energy     =  -12.85 kcal/mol
DOCKED: USER        vdW + Hbond + desolv Energy     =   -2.15 kcal/mol
DOCKED: USER        Electrostatic Energy            =  -10.71 kcal/mol
DOCKED: USER    (2) Final Total Internal Energy     =   +2.60 kcal/mol
DOCKED: USER    (3) Torsional Free Energy           =   +1.79 kcal/mol
DOCKED: USER    (4) Unbound System's Energy  [=(2)] =   +2.60 kcal/mol
DOCKED: USER    
DOCKED: USER    
DOCKED: USER    NEWDPF move 2_3_BPG_opt.pdbqt
DOCKED: USER    NEWDPF about 0.015000 0.083000 0.031000
DOCKED: USER    NEWDPF tran0 -7.332829 -18.836418 6.398850
DOCKED: USER    NEWDPF quaternion0 -0.070834 0.242747 -0.421083 -0.871060
DOCKED: USER    NEWDPF axisangle0 -0.144212 0.494216 -0.857294 -58.835846
DOCKED: USER    NEWDPF quat0 -0.144212 0.494216 -0.857294 -58.835846
DOCKED: USER    NEWDPF dihe0 142.21 133.59 -133.88 47.96 54.74 -142.43 
DOCKED: USER  keepresnum = 1 
DOCKED: USER  
DOCKED: REMARK  6 active torsions:
DOCKED: REMARK  status: ('A' for Active; 'I' for Inactive)
DOCKED: REMARK    1  A    between atoms: P_1  and  O_3 
DOCKED: REMARK    2  A    between atoms: P_2  and  O_4 
DOCKED: REMARK    3  A    between atoms: O_3  and  C_13 
DOCKED: REMARK    4  A    between atoms: O_4  and  C_14 
DOCKED: REMARK    5  A    between atoms: C_13  and  C_14 
DOCKED: REMARK    6  A    between atoms: C_13  and  C_15 
DOCKED: USER                              x       y       z     vdW  Elec       q    Type
DOCKED: USER                           _______ _______ _______ _____ _____    ______ ____
DOCKED: ROOT
DOCKED: ATOM      1  C   UNL d   1      -7.815 -18.592   6.795 -0.07 +0.36    +0.193 C 
DOCKED: ENDROOT
DOCKED: BRANCH   1   2
DOCKED: ATOM      2  O   UNL d   1      -8.121 -17.227   6.354 -0.12 -1.10    -0.356 OA
DOCKED: BRANCH   2   3
DOCKED: ATOM      3  P   UNL d   1      -7.268 -15.908   6.841 +0.27 -0.04    -0.014 P 
DOCKED: ATOM      4  O   UNL d   1      -7.218 -16.027   8.372 -0.54 -1.35    -0.577 OA
DOCKED: ATOM      5  O   UNL d   1      -8.051 -14.674   6.399 -0.06 -1.46    -0.577 OA
DOCKED: ATOM      6  O   UNL d   1      -5.874 -15.996   6.227 -0.47 -1.41    -0.638 OA
DOCKED: ENDBRANCH   2   3
DOCKED: ENDBRANCH   1   2
DOCKED: BRANCH   1   7
DOCKED: ATOM      7  C   UNL d   1      -6.907 -19.281   5.711 -0.04 +0.25    +0.201 C 
DOCKED: BRANCH   7   8
DOCKED: ATOM      8  O   UNL d   1      -6.262 -18.393   4.772 -0.04 -0.66    -0.364 OA
DOCKED: BRANCH   8   9
DOCKED: ATOM      9  P   UNL d   1      -6.521 -18.573   3.148 +0.09 -0.03    -0.015 P 
DOCKED: ATOM     10  O   UNL d   1      -8.042 -18.689   2.997 -0.14 -1.20    -0.577 OA
DOCKED: ATOM     11  O   UNL d   1      -5.805 -19.855   2.722 -0.13 -0.70    -0.577 OA
DOCKED: ATOM     12  O   UNL d   1      -5.969 -17.324   2.462 -0.32 -1.90    -0.638 OA
DOCKED: ENDBRANCH   8   9
DOCKED: ENDBRANCH   7   8
DOCKED: ENDBRANCH   1   7
DOCKED: BRANCH   1  13
DOCKED: ATOM     13  C   UNL d   1      -9.144 -19.423   6.941 -0.05 +0.12    +0.073 C 
DOCKED: ATOM     14  O   UNL d   1      -9.110 -20.520   7.601 -0.00 -0.53    -0.547 OA
DOCKED: ATOM     15  O   UNL d   1     -10.209 -18.913   6.436 -0.53 -1.07    -0.547 OA
DOCKED: ENDBRANCH   1  13
DOCKED: TORSDOF 6
DOCKED: TER
DOCKED: ENDMDL
________________________________________________________________________________


	BEGINNING GENETIC ALGORITHM DOCKING 86 of 100
Run: 86 Seed: 1557009331 1638924328 [ Run 86 of 100 GA/GALS ]
Beginning LAMARCKIAN GENETIC ALGORITHM (LGA), with a maximum of 25000000 energy evaluations.

Final-Value: -9.668


	FINAL GENETIC ALGORITHM DOCKED STATE
	_______________________________________________


Detailed state:  trans -1.915 1.413 -12.714 quatxyzw -0.040694 -0.495658 -0.625132 -0.601562 center 0.015 0.083 0.031 ntor 6 -152.6651 -12.7753 -34.8730 4.8630 22.3963 63.8402
State:	 -1.915   1.413 -12.714  -0.051 -0.620 -0.783 -106.036   -152.67  -12.78  -34.87    4.86   22.40   63.84

DOCKED: MODEL       86
DOCKED: USER    Run = 86
DOCKED: USER    DPF = D:/Protein_go_brrr/autodock/final/AncB/2_3_BPG/dock.dpf
DOCKED: USER  
DOCKED: USER    Estimated Free Energy of Binding    =  -10.09 kcal/mol  [=(1)+(2)+(3)-(4)]
DOCKED: USER    Estimated Inhibition Constant, Ki   =   40.24 nM (nanomolar)  [Temperature = 298.15 K]
DOCKED: USER    
DOCKED: USER    (1) Final Intermolecular Energy     =  -11.88 kcal/mol
DOCKED: USER        vdW + Hbond + desolv Energy     =   -4.51 kcal/mol
DOCKED: USER        Electrostatic Energy            =   -7.37 kcal/mol
DOCKED: USER    (2) Final Total Internal Energy     =   +2.21 kcal/mol
DOCKED: USER    (3) Torsional Free Energy           =   +1.79 kcal/mol
DOCKED: USER    (4) Unbound System's Energy  [=(2)] =   +2.21 kcal/mol
DOCKED: USER    
DOCKED: USER    
DOCKED: USER    NEWDPF move 2_3_BPG_opt.pdbqt
DOCKED: USER    NEWDPF about 0.015000 0.083000 0.031000
DOCKED: USER    NEWDPF tran0 -1.914791 1.413423 -12.714444
DOCKED: USER    NEWDPF quaternion0 -0.040694 -0.495658 -0.625132 -0.601562
DOCKED: USER    NEWDPF axisangle0 -0.050942 -0.620483 -0.782563 -106.036328
DOCKED: USER    NEWDPF quat0 -0.050942 -0.620483 -0.782563 -106.036328
DOCKED: USER    NEWDPF dihe0 -152.67 -12.78 -34.87 4.86 22.40 63.84 
DOCKED: USER  keepresnum = 1 
DOCKED: USER  
DOCKED: REMARK  6 active torsions:
DOCKED: REMARK  status: ('A' for Active; 'I' for Inactive)
DOCKED: REMARK    1  A    between atoms: P_1  and  O_3 
DOCKED: REMARK    2  A    between atoms: P_2  and  O_4 
DOCKED: REMARK    3  A    between atoms: O_3  and  C_13 
DOCKED: REMARK    4  A    between atoms: O_4  and  C_14 
DOCKED: REMARK    5  A    between atoms: C_13  and  C_14 
DOCKED: REMARK    6  A    between atoms: C_13  and  C_15 
DOCKED: USER                              x       y       z     vdW  Elec       q    Type
DOCKED: USER                           _______ _______ _______ _____ _____    ______ ____
DOCKED: ROOT
DOCKED: ATOM      1  C   UNL d   1      -2.053   1.826 -13.225 -0.18 +0.28    +0.193 C 
DOCKED: ENDROOT
DOCKED: BRANCH   1   2
DOCKED: ATOM      2  O   UNL d   1      -0.783   2.315 -13.774 -0.25 -0.43    -0.356 OA
DOCKED: BRANCH   2   3
DOCKED: ATOM      3  P   UNL d   1      -0.448   3.910 -13.990 -0.31 -0.02    -0.014 P 
DOCKED: ATOM      4  O   UNL d   1       1.079   3.961 -14.157 -0.30 -0.47    -0.577 OA
DOCKED: ATOM      5  O   UNL d   1      -0.899   4.642 -12.728 -0.74 -0.94    -0.577 OA
DOCKED: ATOM      6  O   UNL d   1      -1.166   4.376 -15.252 -0.15 -1.23    -0.638 OA
DOCKED: ENDBRANCH   2   3
DOCKED: ENDBRANCH   1   2
DOCKED: BRANCH   1   7
DOCKED: ATOM      7  C   UNL d   1      -1.751   0.645 -12.230 -0.15 +0.22    +0.201 C 
DOCKED: BRANCH   7   8
DOCKED: ATOM      8  O   UNL d   1      -2.622  -0.503 -12.332 -0.24 -0.66    -0.364 OA
DOCKED: BRANCH   8   9
DOCKED: ATOM      9  P   UNL d   1      -2.849  -1.491 -11.024 -0.30 -0.02    -0.015 P 
DOCKED: ATOM     10  O   UNL d   1      -4.292  -1.994 -11.150 -0.53 -0.90    -0.577 OA
DOCKED: ATOM     11  O   UNL d   1      -2.650  -0.632  -9.776 -0.03 -0.39    -0.577 OA
DOCKED: ATOM     12  O   UNL d   1      -1.833  -2.628 -11.136 -0.18 -0.76    -0.638 OA
DOCKED: ENDBRANCH   8   9
DOCKED: ENDBRANCH   7   8
DOCKED: ENDBRANCH   1   7
DOCKED: BRANCH   1  13
DOCKED: ATOM     13  C   UNL d   1      -2.970   1.286 -14.385 -0.16 +0.12    +0.073 C 
DOCKED: ATOM     14  O   UNL d   1      -3.893   2.048 -14.840 -0.60 -1.15    -0.547 OA
DOCKED: ATOM     15  O   UNL d   1      -2.693   0.123 -14.853 -0.41 -1.01    -0.547 OA
DOCKED: ENDBRANCH   1  13
DOCKED: TORSDOF 6
DOCKED: TER
DOCKED: ENDMDL
________________________________________________________________________________


	BEGINNING GENETIC ALGORITHM DOCKING 87 of 100
Run: 87 Seed: 640048706 1426778740 [ Run 87 of 100 GA/GALS ]
Beginning LAMARCKIAN GENETIC ALGORITHM (LGA), with a maximum of 25000000 energy evaluations.

Final-Value: -10.113


	FINAL GENETIC ALGORITHM DOCKED STATE
	_______________________________________________


Detailed state:  trans -8.064 -19.499 3.499 quatxyzw -0.361654 -0.097866 0.259646 0.890063 center 0.015 0.083 0.031 ntor 6 6.0067 2.2228 -177.4118 36.5805 15.2296 -141.5518
State:	 -8.064 -19.499   3.499  -0.793 -0.215  0.570 54.238      6.01    2.22 -177.41   36.58   15.23 -141.55

DOCKED: MODEL       87
DOCKED: USER    Run = 87
DOCKED: USER    DPF = D:/Protein_go_brrr/autodock/final/AncB/2_3_BPG/dock.dpf
DOCKED: USER  
DOCKED: USER    Estimated Free Energy of Binding    =  -10.56 kcal/mol  [=(1)+(2)+(3)-(4)]
DOCKED: USER    Estimated Inhibition Constant, Ki   =   18.22 nM (nanomolar)  [Temperature = 298.15 K]
DOCKED: USER    
DOCKED: USER    (1) Final Intermolecular Energy     =  -12.35 kcal/mol
DOCKED: USER        vdW + Hbond + desolv Energy     =   -2.44 kcal/mol
DOCKED: USER        Electrostatic Energy            =   -9.91 kcal/mol
DOCKED: USER    (2) Final Total Internal Energy     =   +2.23 kcal/mol
DOCKED: USER    (3) Torsional Free Energy           =   +1.79 kcal/mol
DOCKED: USER    (4) Unbound System's Energy  [=(2)] =   +2.23 kcal/mol
DOCKED: USER    
DOCKED: USER    
DOCKED: USER    NEWDPF move 2_3_BPG_opt.pdbqt
DOCKED: USER    NEWDPF about 0.015000 0.083000 0.031000
DOCKED: USER    NEWDPF tran0 -8.064477 -19.498865 3.499261
DOCKED: USER    NEWDPF quaternion0 -0.361654 -0.097866 0.259646 0.890063
DOCKED: USER    NEWDPF axisangle0 -0.793385 -0.214695 0.569603 54.237580
DOCKED: USER    NEWDPF quat0 -0.793385 -0.214695 0.569603 54.237580
DOCKED: USER    NEWDPF dihe0 6.01 2.22 -177.41 36.58 15.23 -141.55 
DOCKED: USER  keepresnum = 1 
DOCKED: USER  
DOCKED: REMARK  6 active torsions:
DOCKED: REMARK  status: ('A' for Active; 'I' for Inactive)
DOCKED: REMARK    1  A    between atoms: P_1  and  O_3 
DOCKED: REMARK    2  A    between atoms: P_2  and  O_4 
DOCKED: REMARK    3  A    between atoms: O_3  and  C_13 
DOCKED: REMARK    4  A    between atoms: O_4  and  C_14 
DOCKED: REMARK    5  A    between atoms: C_13  and  C_14 
DOCKED: REMARK    6  A    between atoms: C_13  and  C_15 
DOCKED: USER                              x       y       z     vdW  Elec       q    Type
DOCKED: USER                           _______ _______ _______ _____ _____    ______ ____
DOCKED: ROOT
DOCKED: ATOM      1  C   UNL d   1      -8.728 -19.522   3.593 -0.08 +0.26    +0.193 C 
DOCKED: ENDROOT
DOCKED: BRANCH   1   2
DOCKED: ATOM      2  O   UNL d   1      -9.182 -18.183   3.984 -0.23 -0.77    -0.356 OA
DOCKED: BRANCH   2   3
DOCKED: ATOM      3  P   UNL d   1      -9.394 -17.722   5.549 +0.01 -0.04    -0.014 P 
DOCKED: ATOM      4  O   UNL d   1      -9.823 -16.250   5.459 -0.33 -1.78    -0.577 OA
DOCKED: ATOM      5  O   UNL d   1      -8.046 -17.873   6.251 -0.07 -1.44    -0.577 OA
DOCKED: ATOM      6  O   UNL d   1     -10.493 -18.591   6.151 -0.51 -1.27    -0.638 OA
DOCKED: ENDBRANCH   2   3
DOCKED: ENDBRANCH   1   2
DOCKED: BRANCH   1   7
DOCKED: ATOM      7  C   UNL d   1      -7.241 -19.424   3.089 -0.05 +0.31    +0.201 C 
DOCKED: BRANCH   7   8
DOCKED: ATOM      8  O   UNL d   1      -6.522 -18.231   3.474 -0.26 -0.88    -0.364 OA
DOCKED: BRANCH   8   9
DOCKED: ATOM      9  P   UNL d   1      -5.150 -17.791   2.661 -0.18 -0.03    -0.015 P 
DOCKED: ATOM     10  O   UNL d   1      -5.026 -18.799   1.513 -0.35 -1.05    -0.577 OA
DOCKED: ATOM     11  O   UNL d   1      -3.990 -17.906   3.650 +0.01 -0.60    -0.577 OA
DOCKED: ATOM     12  O   UNL d   1      -5.364 -16.366   2.153 -0.06 -1.55    -0.638 OA
DOCKED: ENDBRANCH   8   9
DOCKED: ENDBRANCH   7   8
DOCKED: ENDBRANCH   1   7
DOCKED: BRANCH   1  13
DOCKED: ATOM     13  C   UNL d   1      -9.622 -20.075   2.421 -0.06 +0.08    +0.073 C 
DOCKED: ATOM     14  O   UNL d   1      -9.668 -19.415   1.324 -0.31 -0.79    -0.547 OA
DOCKED: ATOM     15  O   UNL d   1     -10.208 -21.200   2.617 +0.02 -0.37    -0.547 OA
DOCKED: ENDBRANCH   1  13
DOCKED: TORSDOF 6
DOCKED: TER
DOCKED: ENDMDL
________________________________________________________________________________


	BEGINNING GENETIC ALGORITHM DOCKING 88 of 100
Run: 88 Seed: 2068105810 963089317 [ Run 88 of 100 GA/GALS ]
Beginning LAMARCKIAN GENETIC ALGORITHM (LGA), with a maximum of 25000000 energy evaluations.

Final-Value: -10.905


	FINAL GENETIC ALGORITHM DOCKED STATE
	_______________________________________________


Detailed state:  trans -6.905 -18.408 5.464 quatxyzw -0.947205 0.130884 0.076161 -0.282615 center 0.015 0.083 0.031 ntor 6 -21.0538 47.7848 -175.2927 -1.4403 123.6951 -11.9939
State:	 -6.905 -18.408   5.464  -0.987  0.136  0.079 -147.167    -21.05   47.78 -175.29   -1.44  123.70  -11.99

DOCKED: MODEL       88
DOCKED: USER    Run = 88
DOCKED: USER    DPF = D:/Protein_go_brrr/autodock/final/AncB/2_3_BPG/dock.dpf
DOCKED: USER  
DOCKED: USER    Estimated Free Energy of Binding    =  -11.81 kcal/mol  [=(1)+(2)+(3)-(4)]
DOCKED: USER    Estimated Inhibition Constant, Ki   =    2.20 nM (nanomolar)  [Temperature = 298.15 K]
DOCKED: USER    
DOCKED: USER    (1) Final Intermolecular Energy     =  -13.60 kcal/mol
DOCKED: USER        vdW + Hbond + desolv Energy     =   -3.23 kcal/mol
DOCKED: USER        Electrostatic Energy            =  -10.37 kcal/mol
DOCKED: USER    (2) Final Total Internal Energy     =   +2.70 kcal/mol
DOCKED: USER    (3) Torsional Free Energy           =   +1.79 kcal/mol
DOCKED: USER    (4) Unbound System's Energy  [=(2)] =   +2.70 kcal/mol
DOCKED: USER    
DOCKED: USER    
DOCKED: USER    NEWDPF move 2_3_BPG_opt.pdbqt
DOCKED: USER    NEWDPF about 0.015000 0.083000 0.031000
DOCKED: USER    NEWDPF tran0 -6.905445 -18.407943 5.463845
DOCKED: USER    NEWDPF quaternion0 -0.947205 0.130884 0.076161 -0.282615
DOCKED: USER    NEWDPF axisangle0 -0.987461 0.136446 0.079397 -147.167294
DOCKED: USER    NEWDPF quat0 -0.987461 0.136446 0.079397 -147.167294
DOCKED: USER    NEWDPF dihe0 -21.05 47.78 -175.29 -1.44 123.70 -11.99 
DOCKED: USER  keepresnum = 1 
DOCKED: USER  
DOCKED: REMARK  6 active torsions:
DOCKED: REMARK  status: ('A' for Active; 'I' for Inactive)
DOCKED: REMARK    1  A    between atoms: P_1  and  O_3 
DOCKED: REMARK    2  A    between atoms: P_2  and  O_4 
DOCKED: REMARK    3  A    between atoms: O_3  and  C_13 
DOCKED: REMARK    4  A    between atoms: O_4  and  C_14 
DOCKED: REMARK    5  A    between atoms: C_13  and  C_14 
DOCKED: REMARK    6  A    between atoms: C_13  and  C_15 
DOCKED: USER                              x       y       z     vdW  Elec       q    Type
DOCKED: USER                           _______ _______ _______ _____ _____    ______ ____
DOCKED: ROOT
DOCKED: ATOM      1  C   UNL d   1      -7.380 -17.985   5.676 +0.20 +0.44    +0.193 C 
DOCKED: ENDROOT
DOCKED: BRANCH   1   2
DOCKED: ATOM      2  O   UNL d   1      -8.569 -18.770   6.026 -0.10 -0.66    -0.356 OA
DOCKED: BRANCH   2   3
DOCKED: ATOM      3  P   UNL d   1     -10.091 -18.364   5.553 -0.16 -0.03    -0.014 P 
DOCKED: ATOM      4  O   UNL d   1     -10.951 -18.573   6.810 -0.52 -1.31    -0.577 OA
DOCKED: ATOM      5  O   UNL d   1     -10.489 -19.324   4.434 +0.02 -0.65    -0.577 OA
DOCKED: ATOM      6  O   UNL d   1     -10.076 -16.901   5.123 -0.63 -1.67    -0.638 OA
DOCKED: ENDBRANCH   2   3
DOCKED: ENDBRANCH   1   2
DOCKED: BRANCH   1   7
DOCKED: ATOM      7  C   UNL d   1      -6.172 -18.968   5.458 -0.03 +0.25    +0.201 C 
DOCKED: BRANCH   7   8
DOCKED: ATOM      8  O   UNL d   1      -5.200 -18.564   4.469 -0.03 -0.47    -0.364 OA
DOCKED: BRANCH   8   9
DOCKED: ATOM      9  P   UNL d   1      -5.688 -18.172   2.938 -0.02 -0.03    -0.015 P 
DOCKED: ATOM     10  O   UNL d   1      -7.220 -18.182   2.993 -0.23 -1.60    -0.577 OA
DOCKED: ATOM     11  O   UNL d   1      -5.143 -19.254   2.006 -0.45 -0.84    -0.577 OA
DOCKED: ATOM     12  O   UNL d   1      -5.134 -16.782   2.629 -0.31 -1.39    -0.638 OA
DOCKED: ENDBRANCH   8   9
DOCKED: ENDBRANCH   7   8
DOCKED: ENDBRANCH   1   7
DOCKED: BRANCH   1  13
DOCKED: ATOM     13  C   UNL d   1      -7.022 -16.996   6.847 -0.06 +0.17    +0.073 C 
DOCKED: ATOM     14  O   UNL d   1      -7.267 -17.360   8.051 -0.40 -1.29    -0.547 OA
DOCKED: ATOM     15  O   UNL d   1      -6.440 -15.898   6.525 -0.51 -1.30    -0.547 OA
DOCKED: ENDBRANCH   1  13
DOCKED: TORSDOF 6
DOCKED: TER
DOCKED: ENDMDL
________________________________________________________________________________


	BEGINNING GENETIC ALGORITHM DOCKING 89 of 100
Run: 89 Seed: 1153173876 1874910789 [ Run 89 of 100 GA/GALS ]
Beginning LAMARCKIAN GENETIC ALGORITHM (LGA), with a maximum of 25000000 energy evaluations.

Final-Value: -10.838


	FINAL GENETIC ALGORITHM DOCKED STATE
	_______________________________________________


Detailed state:  trans -8.250 -18.865 5.193 quatxyzw 0.516168 -0.408027 0.129150 -0.741893 center 0.015 0.083 0.031 ntor 6 176.4370 85.5049 -70.6669 69.5829 27.3295 -169.0659
State:	 -8.250 -18.865   5.193   0.770 -0.609  0.193 -84.214    176.44   85.50  -70.67   69.58   27.33 -169.07

DOCKED: MODEL       89
DOCKED: USER    Run = 89
DOCKED: USER    DPF = D:/Protein_go_brrr/autodock/final/AncB/2_3_BPG/dock.dpf
DOCKED: USER  
DOCKED: USER    Estimated Free Energy of Binding    =  -11.51 kcal/mol  [=(1)+(2)+(3)-(4)]
DOCKED: USER    Estimated Inhibition Constant, Ki   =    3.64 nM (nanomolar)  [Temperature = 298.15 K]
DOCKED: USER    
DOCKED: USER    (1) Final Intermolecular Energy     =  -13.30 kcal/mol
DOCKED: USER        vdW + Hbond + desolv Energy     =   -3.36 kcal/mol
DOCKED: USER        Electrostatic Energy            =   -9.94 kcal/mol
DOCKED: USER    (2) Final Total Internal Energy     =   +2.47 kcal/mol
DOCKED: USER    (3) Torsional Free Energy           =   +1.79 kcal/mol
DOCKED: USER    (4) Unbound System's Energy  [=(2)] =   +2.47 kcal/mol
DOCKED: USER    
DOCKED: USER    
DOCKED: USER    NEWDPF move 2_3_BPG_opt.pdbqt
DOCKED: USER    NEWDPF about 0.015000 0.083000 0.031000
DOCKED: USER    NEWDPF tran0 -8.249501 -18.865499 5.193202
DOCKED: USER    NEWDPF quaternion0 0.516168 -0.408027 0.129150 -0.741893
DOCKED: USER    NEWDPF axisangle0 0.769804 -0.608525 0.192612 -84.214180
DOCKED: USER    NEWDPF quat0 0.769804 -0.608525 0.192612 -84.214180
DOCKED: USER    NEWDPF dihe0 176.44 85.50 -70.67 69.58 27.33 -169.07 
DOCKED: USER  keepresnum = 1 
DOCKED: USER  
DOCKED: REMARK  6 active torsions:
DOCKED: REMARK  status: ('A' for Active; 'I' for Inactive)
DOCKED: REMARK    1  A    between atoms: P_1  and  O_3 
DOCKED: REMARK    2  A    between atoms: P_2  and  O_4 
DOCKED: REMARK    3  A    between atoms: O_3  and  C_13 
DOCKED: REMARK    4  A    between atoms: O_4  and  C_14 
DOCKED: REMARK    5  A    between atoms: C_13  and  C_14 
DOCKED: REMARK    6  A    between atoms: C_13  and  C_15 
DOCKED: USER                              x       y       z     vdW  Elec       q    Type
DOCKED: USER                           _______ _______ _______ _____ _____    ______ ____
DOCKED: ROOT
DOCKED: ATOM      1  C   UNL d   1      -8.474 -18.947   4.567 -0.08 +0.33    +0.193 C 
DOCKED: ENDROOT
DOCKED: BRANCH   1   2
DOCKED: ATOM      2  O   UNL d   1      -9.324 -17.800   4.232 -0.31 -0.89    -0.356 OA
DOCKED: BRANCH   2   3
DOCKED: ATOM      3  P   UNL d   1     -10.722 -17.451   5.025 -0.27 -0.03    -0.014 P 
DOCKED: ATOM      4  O   UNL d   1     -11.827 -18.027   4.125 -0.02 -0.61    -0.577 OA
DOCKED: ATOM      5  O   UNL d   1     -10.817 -15.930   5.126 -0.32 -1.20    -0.577 OA
DOCKED: ATOM      6  O   UNL d   1     -10.682 -18.149   6.380 -0.39 -1.61    -0.638 OA
DOCKED: ENDBRANCH   2   3
DOCKED: ENDBRANCH   1   2
DOCKED: BRANCH   1   7
DOCKED: ATOM      7  C   UNL d   1      -7.711 -18.636   5.907 -0.09 +0.36    +0.201 C 
DOCKED: BRANCH   7   8
DOCKED: ATOM      8  O   UNL d   1      -7.817 -17.280   6.393 -0.22 -1.04    -0.364 OA
DOCKED: BRANCH   8   9
DOCKED: ATOM      9  P   UNL d   1      -6.579 -16.610   7.262 -0.16 -0.03    -0.015 P 
DOCKED: ATOM     10  O   UNL d   1      -5.994 -15.525   6.351 -0.53 -1.22    -0.577 OA
DOCKED: ATOM     11  O   UNL d   1      -5.573 -17.727   7.538 +0.01 -0.63    -0.577 OA
DOCKED: ATOM     12  O   UNL d   1      -7.187 -16.024   8.535 -0.51 -1.42    -0.638 OA
DOCKED: ENDBRANCH   8   9
DOCKED: ENDBRANCH   7   8
DOCKED: ENDBRANCH   1   7
DOCKED: BRANCH   1  13
DOCKED: ATOM     13  C   UNL d   1      -7.414 -19.184   3.427 -0.12 +0.12    +0.073 C 
DOCKED: ATOM     14  O   UNL d   1      -7.286 -20.365   2.946 -0.01 -0.61    -0.547 OA
DOCKED: ATOM     15  O   UNL d   1      -6.778 -18.154   2.999 -0.35 -1.47    -0.547 OA
DOCKED: ENDBRANCH   1  13
DOCKED: TORSDOF 6
DOCKED: TER
DOCKED: ENDMDL
________________________________________________________________________________


	BEGINNING GENETIC ALGORITHM DOCKING 90 of 100
Run: 90 Seed: 952798176 499220444 [ Run 90 of 100 GA/GALS ]
Beginning LAMARCKIAN GENETIC ALGORITHM (LGA), with a maximum of 25000000 energy evaluations.

Final-Value: -10.304


	FINAL GENETIC ALGORITHM DOCKED STATE
	_______________________________________________


Detailed state:  trans -8.763 -19.338 3.396 quatxyzw 0.372098 -0.055243 -0.264281 -0.888058 center 0.015 0.083 0.031 ntor 6 -179.3988 -152.3325 -125.2175 34.1482 -3.3206 -174.9416
State:	 -8.763 -19.338   3.396   0.809 -0.120 -0.575 -54.740   -179.40 -152.33 -125.22   34.15   -3.32 -174.94

DOCKED: MODEL       90
DOCKED: USER    Run = 90
DOCKED: USER    DPF = D:/Protein_go_brrr/autodock/final/AncB/2_3_BPG/dock.dpf
DOCKED: USER  
DOCKED: USER    Estimated Free Energy of Binding    =  -10.65 kcal/mol  [=(1)+(2)+(3)-(4)]
DOCKED: USER    Estimated Inhibition Constant, Ki   =   15.63 nM (nanomolar)  [Temperature = 298.15 K]
DOCKED: USER    
DOCKED: USER    (1) Final Intermolecular Energy     =  -12.44 kcal/mol
DOCKED: USER        vdW + Hbond + desolv Energy     =   -3.07 kcal/mol
DOCKED: USER        Electrostatic Energy            =   -9.37 kcal/mol
DOCKED: USER    (2) Final Total Internal Energy     =   +2.14 kcal/mol
DOCKED: USER    (3) Torsional Free Energy           =   +1.79 kcal/mol
DOCKED: USER    (4) Unbound System's Energy  [=(2)] =   +2.14 kcal/mol
DOCKED: USER    
DOCKED: USER    
DOCKED: USER    NEWDPF move 2_3_BPG_opt.pdbqt
DOCKED: USER    NEWDPF about 0.015000 0.083000 0.031000
DOCKED: USER    NEWDPF tran0 -8.763110 -19.338317 3.395564
DOCKED: USER    NEWDPF quaternion0 0.372098 -0.055243 -0.264281 -0.888058
DOCKED: USER    NEWDPF axisangle0 0.809381 -0.120164 -0.574859 -54.739588
DOCKED: USER    NEWDPF quat0 0.809381 -0.120164 -0.574859 -54.739588
DOCKED: USER    NEWDPF dihe0 -179.40 -152.33 -125.22 34.15 -3.32 -174.94 
DOCKED: USER  keepresnum = 1 
DOCKED: USER  
DOCKED: REMARK  6 active torsions:
DOCKED: REMARK  status: ('A' for Active; 'I' for Inactive)
DOCKED: REMARK    1  A    between atoms: P_1  and  O_3 
DOCKED: REMARK    2  A    between atoms: P_2  and  O_4 
DOCKED: REMARK    3  A    between atoms: O_3  and  C_13 
DOCKED: REMARK    4  A    between atoms: O_4  and  C_14 
DOCKED: REMARK    5  A    between atoms: C_13  and  C_14 
DOCKED: REMARK    6  A    between atoms: C_13  and  C_15 
DOCKED: USER                              x       y       z     vdW  Elec       q    Type
DOCKED: USER                           _______ _______ _______ _____ _____    ______ ____
DOCKED: ROOT
DOCKED: ATOM      1  C   UNL d   1      -9.425 -19.280   3.305 -0.08 +0.26    +0.193 C 
DOCKED: ENDROOT
DOCKED: BRANCH   1   2
DOCKED: ATOM      2  O   UNL d   1      -9.790 -17.872   3.498 -0.29 -0.70    -0.356 OA
DOCKED: BRANCH   2   3
DOCKED: ATOM      3  P   UNL d   1     -10.406 -17.284   4.905 -0.21 -0.03    -0.014 P 
DOCKED: ATOM      4  O   UNL d   1      -9.925 -18.275   5.977 -0.37 -1.31    -0.577 OA
DOCKED: ATOM      5  O   UNL d   1     -11.927 -17.294   4.773 -0.08 -0.72    -0.577 OA
DOCKED: ATOM      6  O   UNL d   1      -9.823 -15.892   5.128 -0.38 -1.98    -0.638 OA
DOCKED: ENDBRANCH   2   3
DOCKED: ENDBRANCH   1   2
DOCKED: BRANCH   1   7
DOCKED: ATOM      7  C   UNL d   1      -7.857 -19.388   3.225 -0.07 +0.31    +0.201 C 
DOCKED: BRANCH   7   8
DOCKED: ATOM      8  O   UNL d   1      -7.150 -18.148   3.002 -0.31 -1.02    -0.364 OA
DOCKED: BRANCH   8   9
DOCKED: ATOM      9  P   UNL d   1      -5.499 -18.140   2.907 -0.12 -0.03    -0.015 P 
DOCKED: ATOM     10  O   UNL d   1      -5.160 -19.117   1.775 -0.45 -0.94    -0.577 OA
DOCKED: ATOM     11  O   UNL d   1      -4.972 -18.626   4.257 +0.01 -0.69    -0.577 OA
DOCKED: ATOM     12  O   UNL d   1      -5.073 -16.710   2.578 -0.28 -1.35    -0.638 OA
DOCKED: ENDBRANCH   8   9
DOCKED: ENDBRANCH   7   8
DOCKED: ENDBRANCH   1   7
DOCKED: BRANCH   1  13
DOCKED: ATOM     13  C   UNL d   1     -10.037 -19.816   1.957 -0.07 +0.08    +0.073 C 
DOCKED: ATOM     14  O   UNL d   1     -10.762 -20.871   1.992 +0.02 -0.37    -0.547 OA
DOCKED: ATOM     15  O   UNL d   1      -9.820 -19.119   0.901 -0.39 -0.87    -0.547 OA
DOCKED: ENDBRANCH   1  13
DOCKED: TORSDOF 6
DOCKED: TER
DOCKED: ENDMDL
________________________________________________________________________________


	BEGINNING GENETIC ALGORITHM DOCKING 91 of 100
Run: 91 Seed: 1927803096 1978644390 [ Run 91 of 100 GA/GALS ]
Beginning LAMARCKIAN GENETIC ALGORITHM (LGA), with a maximum of 25000000 energy evaluations.

Final-Value: -10.377


	FINAL GENETIC ALGORITHM DOCKED STATE
	_______________________________________________


Detailed state:  trans -7.682 -19.053 5.619 quatxyzw 0.094271 0.236513 -0.499723 -0.827920 center 0.015 0.083 0.031 ntor 6 84.6254 28.1016 162.4381 45.6999 -49.8850 169.1183
State:	 -7.682 -19.053   5.619   0.168  0.422 -0.891 -68.229     84.63   28.10  162.44   45.70  -49.88  169.12

DOCKED: MODEL       91
DOCKED: USER    Run = 91
DOCKED: USER    DPF = D:/Protein_go_brrr/autodock/final/AncB/2_3_BPG/dock.dpf
DOCKED: USER  
DOCKED: USER    Estimated Free Energy of Binding    =  -11.14 kcal/mol  [=(1)+(2)+(3)-(4)]
DOCKED: USER    Estimated Inhibition Constant, Ki   =    6.86 nM (nanomolar)  [Temperature = 298.15 K]
DOCKED: USER    
DOCKED: USER    (1) Final Intermolecular Energy     =  -12.93 kcal/mol
DOCKED: USER        vdW + Hbond + desolv Energy     =   -2.84 kcal/mol
DOCKED: USER        Electrostatic Energy            =  -10.09 kcal/mol
DOCKED: USER    (2) Final Total Internal Energy     =   +2.55 kcal/mol
DOCKED: USER    (3) Torsional Free Energy           =   +1.79 kcal/mol
DOCKED: USER    (4) Unbound System's Energy  [=(2)] =   +2.55 kcal/mol
DOCKED: USER    
DOCKED: USER    
DOCKED: USER    NEWDPF move 2_3_BPG_opt.pdbqt
DOCKED: USER    NEWDPF about 0.015000 0.083000 0.031000
DOCKED: USER    NEWDPF tran0 -7.681960 -19.053178 5.618535
DOCKED: USER    NEWDPF quaternion0 0.094271 0.236513 -0.499723 -0.827920
DOCKED: USER    NEWDPF axisangle0 0.168086 0.421708 -0.891016 -68.228746
DOCKED: USER    NEWDPF quat0 0.168086 0.421708 -0.891016 -68.228746
DOCKED: USER    NEWDPF dihe0 84.63 28.10 162.44 45.70 -49.88 169.12 
DOCKED: USER  keepresnum = 1 
DOCKED: USER  
DOCKED: REMARK  6 active torsions:
DOCKED: REMARK  status: ('A' for Active; 'I' for Inactive)
DOCKED: REMARK    1  A    between atoms: P_1  and  O_3 
DOCKED: REMARK    2  A    between atoms: P_2  and  O_4 
DOCKED: REMARK    3  A    between atoms: O_3  and  C_13 
DOCKED: REMARK    4  A    between atoms: O_4  and  C_14 
DOCKED: REMARK    5  A    between atoms: C_13  and  C_14 
DOCKED: REMARK    6  A    between atoms: C_13  and  C_15 
DOCKED: USER                              x       y       z     vdW  Elec       q    Type
DOCKED: USER                           _______ _______ _______ _____ _____    ______ ____
DOCKED: ROOT
DOCKED: ATOM      1  C   UNL d   1      -8.154 -18.782   6.009 -0.09 +0.34    +0.193 C 
DOCKED: ENDROOT
DOCKED: BRANCH   1   2
DOCKED: ATOM      2  O   UNL d   1      -8.058 -17.322   5.896 +0.03 -1.10    -0.356 OA
DOCKED: BRANCH   2   3
DOCKED: ATOM      3  P   UNL d   1      -7.054 -16.408   6.825 +0.16 -0.04    -0.014 P 
DOCKED: ATOM      4  O   UNL d   1      -7.697 -15.013   6.825 -0.26 -1.44    -0.577 OA
DOCKED: ATOM      5  O   UNL d   1      -5.689 -16.398   6.141 -0.52 -1.17    -0.577 OA
DOCKED: ATOM      6  O   UNL d   1      -7.028 -17.013   8.225 -0.46 -1.38    -0.638 OA
DOCKED: ENDBRANCH   2   3
DOCKED: ENDBRANCH   1   2
DOCKED: BRANCH   1   7
DOCKED: ATOM      7  C   UNL d   1      -7.261 -19.435   4.891 -0.05 +0.27    +0.201 C 
DOCKED: BRANCH   7   8
DOCKED: ATOM      8  O   UNL d   1      -7.141 -18.686   3.662 -0.18 -0.75    -0.364 OA
DOCKED: BRANCH   8   9
DOCKED: ATOM      9  P   UNL d   1      -5.656 -18.462   2.968 -0.12 -0.03    -0.015 P 
DOCKED: ATOM     10  O   UNL d   1      -4.646 -18.821   4.064 +0.02 -0.60    -0.577 OA
DOCKED: ATOM     11  O   UNL d   1      -5.567 -16.989   2.570 -0.38 -1.52    -0.577 OA
DOCKED: ATOM     12  O   UNL d   1      -5.569 -19.411   1.773 -0.36 -1.10    -0.638 OA
DOCKED: ENDBRANCH   8   9
DOCKED: ENDBRANCH   7   8
DOCKED: ENDBRANCH   1   7
DOCKED: BRANCH   1  13
DOCKED: ATOM     13  C   UNL d   1      -9.645 -19.242   5.797 -0.10 +0.11    +0.073 C 
DOCKED: ATOM     14  O   UNL d   1      -9.867 -20.287   5.090 +0.03 -0.51    -0.547 OA
DOCKED: ATOM     15  O   UNL d   1     -10.554 -18.570   6.406 -0.56 -1.19    -0.547 OA
DOCKED: ENDBRANCH   1  13
DOCKED: TORSDOF 6
DOCKED: TER
DOCKED: ENDMDL
________________________________________________________________________________


	BEGINNING GENETIC ALGORITHM DOCKING 92 of 100
Run: 92 Seed: 146824147 256471391 [ Run 92 of 100 GA/GALS ]
Beginning LAMARCKIAN GENETIC ALGORITHM (LGA), with a maximum of 25000000 energy evaluations.

Final-Value: -10.274


	FINAL GENETIC ALGORITHM DOCKED STATE
	_______________________________________________


Detailed state:  trans -7.414 -18.719 5.680 quatxyzw 0.486567 -0.289759 0.066516 -0.821503 center 0.015 0.083 0.031 ntor 6 166.3998 -7.3711 66.2995 13.8011 -72.9931 167.0322
State:	 -7.414 -18.719   5.680   0.853 -0.508  0.117 -69.529    166.40   -7.37   66.30   13.80  -72.99  167.03

DOCKED: MODEL       92
DOCKED: USER    Run = 92
DOCKED: USER    DPF = D:/Protein_go_brrr/autodock/final/AncB/2_3_BPG/dock.dpf
DOCKED: USER  
DOCKED: USER    Estimated Free Energy of Binding    =  -11.06 kcal/mol  [=(1)+(2)+(3)-(4)]
DOCKED: USER    Estimated Inhibition Constant, Ki   =    7.87 nM (nanomolar)  [Temperature = 298.15 K]
DOCKED: USER    
DOCKED: USER    (1) Final Intermolecular Energy     =  -12.85 kcal/mol
DOCKED: USER        vdW + Hbond + desolv Energy     =   -2.94 kcal/mol
DOCKED: USER        Electrostatic Energy            =   -9.90 kcal/mol
DOCKED: USER    (2) Final Total Internal Energy     =   +2.57 kcal/mol
DOCKED: USER    (3) Torsional Free Energy           =   +1.79 kcal/mol
DOCKED: USER    (4) Unbound System's Energy  [=(2)] =   +2.57 kcal/mol
DOCKED: USER    
DOCKED: USER    
DOCKED: USER    NEWDPF move 2_3_BPG_opt.pdbqt
DOCKED: USER    NEWDPF about 0.015000 0.083000 0.031000
DOCKED: USER    NEWDPF tran0 -7.413735 -18.718756 5.680277
DOCKED: USER    NEWDPF quaternion0 0.486567 -0.289759 0.066516 -0.821503
DOCKED: USER    NEWDPF axisangle0 0.853322 -0.508167 0.116654 -69.528832
DOCKED: USER    NEWDPF quat0 0.853322 -0.508167 0.116654 -69.528832
DOCKED: USER    NEWDPF dihe0 166.40 -7.37 66.30 13.80 -72.99 167.03 
DOCKED: USER  keepresnum = 1 
DOCKED: USER  
DOCKED: REMARK  6 active torsions:
DOCKED: REMARK  status: ('A' for Active; 'I' for Inactive)
DOCKED: REMARK    1  A    between atoms: P_1  and  O_3 
DOCKED: REMARK    2  A    between atoms: P_2  and  O_4 
DOCKED: REMARK    3  A    between atoms: O_3  and  C_13 
DOCKED: REMARK    4  A    between atoms: O_4  and  C_14 
DOCKED: REMARK    5  A    between atoms: C_13  and  C_14 
DOCKED: REMARK    6  A    between atoms: C_13  and  C_15 
DOCKED: USER                              x       y       z     vdW  Elec       q    Type
DOCKED: USER                           _______ _______ _______ _____ _____    ______ ____
DOCKED: ROOT
DOCKED: ATOM      1  C   UNL d   1      -7.812 -18.857   5.159 -0.07 +0.33    +0.193 C 
DOCKED: ENDROOT
DOCKED: BRANCH   1   2
DOCKED: ATOM      2  O   UNL d   1      -8.724 -17.724   4.968 -0.05 -1.03    -0.356 OA
DOCKED: BRANCH   2   3
DOCKED: ATOM      3  P   UNL d   1     -10.360 -17.851   5.088 -0.25 -0.03    -0.014 P 
DOCKED: ATOM      4  O   UNL d   1     -10.857 -16.397   5.106 -0.34 -1.18    -0.577 OA
DOCKED: ATOM      5  O   UNL d   1     -10.663 -18.565   6.403 -0.57 -1.23    -0.577 OA
DOCKED: ATOM      6  O   UNL d   1     -10.865 -18.600   3.859 +0.02 -0.76    -0.638 OA
DOCKED: ENDBRANCH   2   3
DOCKED: ENDBRANCH   1   2
DOCKED: BRANCH   1   7
DOCKED: ATOM      7  C   UNL d   1      -6.689 -18.435   6.177 -0.06 +0.31    +0.201 C 
DOCKED: BRANCH   7   8
DOCKED: ATOM      8  O   UNL d   1      -6.283 -17.049   6.129 -0.37 -0.82    -0.364 OA
DOCKED: BRANCH   8   9
DOCKED: ATOM      9  P   UNL d   1      -6.668 -16.029   7.373 -0.17 -0.03    -0.015 P 
DOCKED: ATOM     10  O   UNL d   1      -7.692 -15.051   6.785 -0.25 -1.46    -0.577 OA
DOCKED: ATOM     11  O   UNL d   1      -5.377 -15.323   7.786 -0.01 -0.60    -0.577 OA
DOCKED: ATOM     12  O   UNL d   1      -7.266 -16.884   8.489 -0.36 -1.58    -0.638 OA
DOCKED: ENDBRANCH   8   9
DOCKED: ENDBRANCH   7   8
DOCKED: ENDBRANCH   1   7
DOCKED: BRANCH   1  13
DOCKED: ATOM     13  C   UNL d   1      -7.135 -19.241   3.791 -0.11 +0.11    +0.073 C 
DOCKED: ATOM     14  O   UNL d   1      -6.980 -20.482   3.513 +0.01 -0.54    -0.547 OA
DOCKED: ATOM     15  O   UNL d   1      -6.833 -18.277   2.999 -0.35 -1.40    -0.547 OA
DOCKED: ENDBRANCH   1  13
DOCKED: TORSDOF 6
DOCKED: TER
DOCKED: ENDMDL
________________________________________________________________________________


	BEGINNING GENETIC ALGORITHM DOCKING 93 of 100
Run: 93 Seed: 1149341296 283921219 [ Run 93 of 100 GA/GALS ]
Beginning LAMARCKIAN GENETIC ALGORITHM (LGA), with a maximum of 25000000 energy evaluations.

Final-Value: -9.837


	FINAL GENETIC ALGORITHM DOCKED STATE
	_______________________________________________


Detailed state:  trans -7.230 -18.114 6.926 quatxyzw 0.354691 -0.747739 0.365737 0.425814 center 0.015 0.083 0.031 ntor 6 159.2574 -136.6015 -179.9127 18.8174 51.9893 -122.1390
State:	 -7.230 -18.114   6.926   0.392 -0.826  0.404 129.596    159.26 -136.60 -179.91   18.82   51.99 -122.14

DOCKED: MODEL       93
DOCKED: USER    Run = 93
DOCKED: USER    DPF = D:/Protein_go_brrr/autodock/final/AncB/2_3_BPG/dock.dpf
DOCKED: USER  
DOCKED: USER    Estimated Free Energy of Binding    =  -10.44 kcal/mol  [=(1)+(2)+(3)-(4)]
DOCKED: USER    Estimated Inhibition Constant, Ki   =   22.43 nM (nanomolar)  [Temperature = 298.15 K]
DOCKED: USER    
DOCKED: USER    (1) Final Intermolecular Energy     =  -12.22 kcal/mol
DOCKED: USER        vdW + Hbond + desolv Energy     =   -3.04 kcal/mol
DOCKED: USER        Electrostatic Energy            =   -9.19 kcal/mol
DOCKED: USER    (2) Final Total Internal Energy     =   +2.39 kcal/mol
DOCKED: USER    (3) Torsional Free Energy           =   +1.79 kcal/mol
DOCKED: USER    (4) Unbound System's Energy  [=(2)] =   +2.39 kcal/mol
DOCKED: USER    
DOCKED: USER    
DOCKED: USER    NEWDPF move 2_3_BPG_opt.pdbqt
DOCKED: USER    NEWDPF about 0.015000 0.083000 0.031000
DOCKED: USER    NEWDPF tran0 -7.229847 -18.114179 6.925760
DOCKED: USER    NEWDPF quaternion0 0.354691 -0.747739 0.365737 0.425814
DOCKED: USER    NEWDPF axisangle0 0.392006 -0.826404 0.404213 129.595614
DOCKED: USER    NEWDPF quat0 0.392006 -0.826404 0.404213 129.595614
DOCKED: USER    NEWDPF dihe0 159.26 -136.60 -179.91 18.82 51.99 -122.14 
DOCKED: USER  keepresnum = 1 
DOCKED: USER  
DOCKED: REMARK  6 active torsions:
DOCKED: REMARK  status: ('A' for Active; 'I' for Inactive)
DOCKED: REMARK    1  A    between atoms: P_1  and  O_3 
DOCKED: REMARK    2  A    between atoms: P_2  and  O_4 
DOCKED: REMARK    3  A    between atoms: O_3  and  C_13 
DOCKED: REMARK    4  A    between atoms: O_4  and  C_14 
DOCKED: REMARK    5  A    between atoms: C_13  and  C_14 
DOCKED: REMARK    6  A    between atoms: C_13  and  C_15 
DOCKED: USER                              x       y       z     vdW  Elec       q    Type
DOCKED: USER                           _______ _______ _______ _____ _____    ______ ____
DOCKED: ROOT
DOCKED: ATOM      1  C   UNL d   1      -6.852 -17.794   7.377 -0.08 +0.34    +0.193 C 
DOCKED: ENDROOT
DOCKED: BRANCH   1   2
DOCKED: ATOM      2  O   UNL d   1      -7.198 -16.368   7.334 -0.63 -0.92    -0.356 OA
DOCKED: BRANCH   2   3
DOCKED: ATOM      3  P   UNL d   1      -6.156 -15.202   6.826 -0.22 -0.02    -0.014 P 
DOCKED: ATOM      4  O   UNL d   1      -5.425 -15.834   5.632 -0.40 -1.28    -0.577 OA
DOCKED: ATOM      5  O   UNL d   1      -5.200 -14.914   7.982 +0.01 -0.51    -0.577 OA
DOCKED: ATOM      6  O   UNL d   1      -6.978 -13.989   6.401 -0.12 -1.11    -0.638 OA
DOCKED: ENDBRANCH   2   3
DOCKED: ENDBRANCH   1   2
DOCKED: BRANCH   1   7
DOCKED: ATOM      7  C   UNL d   1      -7.918 -18.598   6.546 -0.07 +0.38    +0.201 C 
DOCKED: BRANCH   7   8
DOCKED: ATOM      8  O   UNL d   1      -8.400 -17.952   5.346 -0.09 -0.94    -0.364 OA
DOCKED: BRANCH   8   9
DOCKED: ATOM      9  P   UNL d   1     -10.023 -17.721   5.123 -0.21 -0.03    -0.015 P 
DOCKED: ATOM     10  O   UNL d   1     -10.681 -18.258   6.399 -0.45 -1.40    -0.577 OA
DOCKED: ATOM     11  O   UNL d   1     -10.423 -18.531   3.890 -0.02 -0.79    -0.577 OA
DOCKED: ATOM     12  O   UNL d   1     -10.245 -16.219   4.950 -0.61 -1.64    -0.638 OA
DOCKED: ENDBRANCH   8   9
DOCKED: ENDBRANCH   7   8
DOCKED: ENDBRANCH   1   7
DOCKED: BRANCH   1  13
DOCKED: ATOM     13  C   UNL d   1      -6.878 -18.310   8.864 -0.08 +0.09    +0.073 C 
DOCKED: ATOM     14  O   UNL d   1      -6.054 -19.229   9.207 +0.02 -0.39    -0.547 OA
DOCKED: ATOM     15  O   UNL d   1      -7.692 -17.728   9.669 -0.09 -0.95    -0.547 OA
DOCKED: ENDBRANCH   1  13
DOCKED: TORSDOF 6
DOCKED: TER
DOCKED: ENDMDL
________________________________________________________________________________


	BEGINNING GENETIC ALGORITHM DOCKING 94 of 100
Run: 94 Seed: 348206024 1300306632 [ Run 94 of 100 GA/GALS ]
Beginning LAMARCKIAN GENETIC ALGORITHM (LGA), with a maximum of 25000000 energy evaluations.

Final-Value: -10.658


	FINAL GENETIC ALGORITHM DOCKED STATE
	_______________________________________________


Detailed state:  trans -7.336 -18.402 5.453 quatxyzw 0.899195 -0.277589 -0.122902 0.315101 center 0.015 0.083 0.031 ntor 6 143.1876 -90.0077 -31.5636 31.0086 -90.6441 -56.7804
State:	 -7.336 -18.402   5.453   0.947 -0.292 -0.129 143.266    143.19  -90.01  -31.56   31.01  -90.64  -56.78

DOCKED: MODEL       94
DOCKED: USER    Run = 94
DOCKED: USER    DPF = D:/Protein_go_brrr/autodock/final/AncB/2_3_BPG/dock.dpf
DOCKED: USER  
DOCKED: USER    Estimated Free Energy of Binding    =  -11.02 kcal/mol  [=(1)+(2)+(3)-(4)]
DOCKED: USER    Estimated Inhibition Constant, Ki   =    8.32 nM (nanomolar)  [Temperature = 298.15 K]
DOCKED: USER    
DOCKED: USER    (1) Final Intermolecular Energy     =  -12.81 kcal/mol
DOCKED: USER        vdW + Hbond + desolv Energy     =   -3.25 kcal/mol
DOCKED: USER        Electrostatic Energy            =   -9.57 kcal/mol
DOCKED: USER    (2) Final Total Internal Energy     =   +2.15 kcal/mol
DOCKED: USER    (3) Torsional Free Energy           =   +1.79 kcal/mol
DOCKED: USER    (4) Unbound System's Energy  [=(2)] =   +2.15 kcal/mol
DOCKED: USER    
DOCKED: USER    
DOCKED: USER    NEWDPF move 2_3_BPG_opt.pdbqt
DOCKED: USER    NEWDPF about 0.015000 0.083000 0.031000
DOCKED: USER    NEWDPF tran0 -7.336482 -18.402246 5.453026
DOCKED: USER    NEWDPF quaternion0 0.899195 -0.277589 -0.122902 0.315101
DOCKED: USER    NEWDPF axisangle0 0.947460 -0.292489 -0.129499 143.266202
DOCKED: USER    NEWDPF quat0 0.947460 -0.292489 -0.129499 143.266202
DOCKED: USER    NEWDPF dihe0 143.19 -90.01 -31.56 31.01 -90.64 -56.78 
DOCKED: USER  keepresnum = 1 
DOCKED: USER  
DOCKED: REMARK  6 active torsions:
DOCKED: REMARK  status: ('A' for Active; 'I' for Inactive)
DOCKED: REMARK    1  A    between atoms: P_1  and  O_3 
DOCKED: REMARK    2  A    between atoms: P_2  and  O_4 
DOCKED: REMARK    3  A    between atoms: O_3  and  C_13 
DOCKED: REMARK    4  A    between atoms: O_4  and  C_14 
DOCKED: REMARK    5  A    between atoms: C_13  and  C_14 
DOCKED: REMARK    6  A    between atoms: C_13  and  C_15 
DOCKED: USER                              x       y       z     vdW  Elec       q    Type
DOCKED: USER                           _______ _______ _______ _____ _____    ______ ____
DOCKED: ROOT
DOCKED: ATOM      1  C   UNL d   1      -7.639 -17.894   5.769 +0.21 +0.47    +0.193 C 
DOCKED: ENDROOT
DOCKED: BRANCH   1   2
DOCKED: ATOM      2  O   UNL d   1      -8.926 -18.376   6.283 -0.18 -0.84    -0.356 OA
DOCKED: BRANCH   2   3
DOCKED: ATOM      3  P   UNL d   1     -10.364 -18.066   5.549 -0.14 -0.03    -0.014 P 
DOCKED: ATOM      4  O   UNL d   1     -10.506 -19.179   4.499 +0.01 -0.68    -0.577 OA
DOCKED: ATOM      5  O   UNL d   1     -10.252 -16.689   4.897 -0.68 -1.42    -0.577 OA
DOCKED: ATOM      6  O   UNL d   1     -11.461 -18.150   6.606 -0.39 -1.30    -0.638 OA
DOCKED: ENDBRANCH   2   3
DOCKED: ENDBRANCH   1   2
DOCKED: BRANCH   1   7
DOCKED: ATOM      7  C   UNL d   1      -6.793 -19.130   5.286 -0.04 +0.28    +0.201 C 
DOCKED: BRANCH   7   8
DOCKED: ATOM      8  O   UNL d   1      -6.745 -19.341   3.858 -0.06 -0.52    -0.364 OA
DOCKED: BRANCH   8   9
DOCKED: ATOM      9  P   UNL d   1      -5.520 -18.683   2.962 -0.16 -0.02    -0.015 P 
DOCKED: ATOM     10  O   UNL d   1      -5.332 -19.640   1.779 -0.48 -0.83    -0.577 OA
DOCKED: ATOM     11  O   UNL d   1      -4.285 -18.638   3.862 +0.02 -0.57    -0.577 OA
DOCKED: ATOM     12  O   UNL d   1      -5.983 -17.298   2.513 -0.35 -1.93    -0.638 OA
DOCKED: ENDBRANCH   8   9
DOCKED: ENDBRANCH   7   8
DOCKED: ENDBRANCH   1   7
DOCKED: BRANCH   1  13
DOCKED: ATOM     13  C   UNL d   1      -6.845 -17.155   6.910 -0.13 +0.16    +0.073 C 
DOCKED: ATOM     14  O   UNL d   1      -5.869 -16.393   6.580 -0.47 -1.01    -0.547 OA
DOCKED: ATOM     15  O   UNL d   1      -7.269 -17.313   8.111 -0.41 -1.31    -0.547 OA
DOCKED: ENDBRANCH   1  13
DOCKED: TORSDOF 6
DOCKED: TER
DOCKED: ENDMDL
________________________________________________________________________________


	BEGINNING GENETIC ALGORITHM DOCKING 95 of 100
Run: 95 Seed: 1237783991 1588691085 [ Run 95 of 100 GA/GALS ]
Beginning LAMARCKIAN GENETIC ALGORITHM (LGA), with a maximum of 25000000 energy evaluations.

Final-Value: -10.118


	FINAL GENETIC ALGORITHM DOCKED STATE
	_______________________________________________


Detailed state:  trans -6.892 -17.720 5.883 quatxyzw -0.796804 0.171593 0.214893 -0.538033 center 0.015 0.083 0.031 ntor 6 -143.6319 36.7540 -164.3141 56.8440 47.9759 -1.5492
State:	 -6.892 -17.720   5.883  -0.945  0.204  0.255 -114.900   -143.63   36.75 -164.31   56.84   47.98   -1.55

DOCKED: MODEL       95
DOCKED: USER    Run = 95
DOCKED: USER    DPF = D:/Protein_go_brrr/autodock/final/AncB/2_3_BPG/dock.dpf
DOCKED: USER  
DOCKED: USER    Estimated Free Energy of Binding    =  -10.48 kcal/mol  [=(1)+(2)+(3)-(4)]
DOCKED: USER    Estimated Inhibition Constant, Ki   =   20.91 nM (nanomolar)  [Temperature = 298.15 K]
DOCKED: USER    
DOCKED: USER    (1) Final Intermolecular Energy     =  -12.27 kcal/mol
DOCKED: USER        vdW + Hbond + desolv Energy     =   -2.81 kcal/mol
DOCKED: USER        Electrostatic Energy            =   -9.46 kcal/mol
DOCKED: USER    (2) Final Total Internal Energy     =   +2.15 kcal/mol
DOCKED: USER    (3) Torsional Free Energy           =   +1.79 kcal/mol
DOCKED: USER    (4) Unbound System's Energy  [=(2)] =   +2.15 kcal/mol
DOCKED: USER    
DOCKED: USER    
DOCKED: USER    NEWDPF move 2_3_BPG_opt.pdbqt
DOCKED: USER    NEWDPF about 0.015000 0.083000 0.031000
DOCKED: USER    NEWDPF tran0 -6.891855 -17.719893 5.882809
DOCKED: USER    NEWDPF quaternion0 -0.796804 0.171593 0.214893 -0.538033
DOCKED: USER    NEWDPF axisangle0 -0.945286 0.203568 0.254938 -114.900297
DOCKED: USER    NEWDPF quat0 -0.945286 0.203568 0.254938 -114.900297
DOCKED: USER    NEWDPF dihe0 -143.63 36.75 -164.31 56.84 47.98 -1.55 
DOCKED: USER  keepresnum = 1 
DOCKED: USER  
DOCKED: REMARK  6 active torsions:
DOCKED: REMARK  status: ('A' for Active; 'I' for Inactive)
DOCKED: REMARK    1  A    between atoms: P_1  and  O_3 
DOCKED: REMARK    2  A    between atoms: P_2  and  O_4 
DOCKED: REMARK    3  A    between atoms: O_3  and  C_13 
DOCKED: REMARK    4  A    between atoms: O_4  and  C_14 
DOCKED: REMARK    5  A    between atoms: C_13  and  C_14 
DOCKED: REMARK    6  A    between atoms: C_13  and  C_15 
DOCKED: USER                              x       y       z     vdW  Elec       q    Type
DOCKED: USER                           _______ _______ _______ _____ _____    ______ ____
DOCKED: ROOT
DOCKED: ATOM      1  C   UNL d   1      -7.246 -17.496   6.406 -0.03 +0.46    +0.193 C 
DOCKED: ENDROOT
DOCKED: BRANCH   1   2
DOCKED: ATOM      2  O   UNL d   1      -8.439 -18.339   6.545 -0.09 -0.82    -0.356 OA
DOCKED: BRANCH   2   3
DOCKED: ATOM      3  P   UNL d   1      -9.745 -18.227   5.552 -0.15 -0.03    -0.014 P 
DOCKED: ATOM      4  O   UNL d   1     -10.941 -18.573   6.453 -0.58 -1.15    -0.577 OA
DOCKED: ATOM      5  O   UNL d   1      -9.560 -19.259   4.442 +0.01 -0.77    -0.577 OA
DOCKED: ATOM      6  O   UNL d   1      -9.827 -16.792   5.041 -0.56 -1.87    -0.638 OA
DOCKED: ENDBRANCH   2   3
DOCKED: ENDBRANCH   1   2
DOCKED: BRANCH   1   7
DOCKED: ATOM      7  C   UNL d   1      -6.264 -18.175   5.381 -0.01 +0.36    +0.201 C 
DOCKED: BRANCH   7   8
DOCKED: ATOM      8  O   UNL d   1      -5.306 -17.298   4.750 -0.14 -0.71    -0.364 OA
DOCKED: BRANCH   8   9
DOCKED: ATOM      9  P   UNL d   1      -5.143 -17.294   3.104 -0.06 -0.03    -0.015 P 
DOCKED: ATOM     10  O   UNL d   1      -6.421 -17.957   2.575 -0.36 -1.60    -0.577 OA
DOCKED: ATOM     11  O   UNL d   1      -3.897 -18.116   2.777 -0.03 -0.61    -0.577 OA
DOCKED: ATOM     12  O   UNL d   1      -5.029 -15.835   2.665 -0.09 -1.28    -0.638 OA
DOCKED: ENDBRANCH   8   9
DOCKED: ENDBRANCH   7   8
DOCKED: ENDBRANCH   1   7
DOCKED: BRANCH   1  13
DOCKED: ATOM     13  C   UNL d   1      -6.515 -17.362   7.793 -0.10 +0.12    +0.073 C 
DOCKED: ATOM     14  O   UNL d   1      -6.848 -16.399   8.570 -0.62 -1.00    -0.547 OA
DOCKED: ATOM     15  O   UNL d   1      -5.662 -18.274   8.092 +0.01 -0.51    -0.547 OA
DOCKED: ENDBRANCH   1  13
DOCKED: TORSDOF 6
DOCKED: TER
DOCKED: ENDMDL
________________________________________________________________________________


	BEGINNING GENETIC ALGORITHM DOCKING 96 of 100
Run: 96 Seed: 1362015591 490479601 [ Run 96 of 100 GA/GALS ]
Beginning LAMARCKIAN GENETIC ALGORITHM (LGA), with a maximum of 25000000 energy evaluations.

Final-Value: -10.499


	FINAL GENETIC ALGORITHM DOCKED STATE
	_______________________________________________


Detailed state:  trans -7.744 -18.776 5.440 quatxyzw 0.495964 -0.357707 0.306022 -0.729669 center 0.015 0.083 0.031 ntor 6 154.7928 53.0865 57.8720 94.2517 -17.2567 140.0246
State:	 -7.744 -18.776   5.440   0.725 -0.523  0.448 -86.283    154.79   53.09   57.87   94.25  -17.26  140.02

DOCKED: MODEL       96
DOCKED: USER    Run = 96
DOCKED: USER    DPF = D:/Protein_go_brrr/autodock/final/AncB/2_3_BPG/dock.dpf
DOCKED: USER  
DOCKED: USER    Estimated Free Energy of Binding    =  -11.34 kcal/mol  [=(1)+(2)+(3)-(4)]
DOCKED: USER    Estimated Inhibition Constant, Ki   =    4.89 nM (nanomolar)  [Temperature = 298.15 K]
DOCKED: USER    
DOCKED: USER    (1) Final Intermolecular Energy     =  -13.13 kcal/mol
DOCKED: USER        vdW + Hbond + desolv Energy     =   -2.89 kcal/mol
DOCKED: USER        Electrostatic Energy            =  -10.24 kcal/mol
DOCKED: USER    (2) Final Total Internal Energy     =   +2.63 kcal/mol
DOCKED: USER    (3) Torsional Free Energy           =   +1.79 kcal/mol
DOCKED: USER    (4) Unbound System's Energy  [=(2)] =   +2.63 kcal/mol
DOCKED: USER    
DOCKED: USER    
DOCKED: USER    NEWDPF move 2_3_BPG_opt.pdbqt
DOCKED: USER    NEWDPF about 0.015000 0.083000 0.031000
DOCKED: USER    NEWDPF tran0 -7.744428 -18.775935 5.439946
DOCKED: USER    NEWDPF quaternion0 0.495964 -0.357707 0.306022 -0.729669
DOCKED: USER    NEWDPF axisangle0 0.725305 -0.523115 0.447531 -86.282745
DOCKED: USER    NEWDPF quat0 0.725305 -0.523115 0.447531 -86.282745
DOCKED: USER    NEWDPF dihe0 154.79 53.09 57.87 94.25 -17.26 140.02 
DOCKED: USER  keepresnum = 1 
DOCKED: USER  
DOCKED: REMARK  6 active torsions:
DOCKED: REMARK  status: ('A' for Active; 'I' for Inactive)
DOCKED: REMARK    1  A    between atoms: P_1  and  O_3 
DOCKED: REMARK    2  A    between atoms: P_2  and  O_4 
DOCKED: REMARK    3  A    between atoms: O_3  and  C_13 
DOCKED: REMARK    4  A    between atoms: O_4  and  C_14 
DOCKED: REMARK    5  A    between atoms: C_13  and  C_14 
DOCKED: REMARK    6  A    between atoms: C_13  and  C_15 
DOCKED: USER                              x       y       z     vdW  Elec       q    Type
DOCKED: USER                           _______ _______ _______ _____ _____    ______ ____
DOCKED: ROOT
DOCKED: ATOM      1  C   UNL d   1      -7.841 -19.017   4.822 -0.08 +0.32    +0.193 C 
DOCKED: ENDROOT
DOCKED: BRANCH   1   2
DOCKED: ATOM      2  O   UNL d   1      -8.925 -18.252   4.196 -0.18 -0.79    -0.356 OA
DOCKED: BRANCH   2   3
DOCKED: ATOM      3  P   UNL d   1     -10.256 -17.738   5.013 -0.25 -0.03    -0.014 P 
DOCKED: ATOM      4  O   UNL d   1     -11.437 -18.167   4.129 -0.01 -0.67    -0.577 OA
DOCKED: ATOM      5  O   UNL d   1     -10.161 -16.218   5.124 -0.60 -1.56    -0.577 OA
DOCKED: ATOM      6  O   UNL d   1     -10.282 -18.445   6.364 -0.39 -1.53    -0.638 OA
DOCKED: ENDBRANCH   2   3
DOCKED: ENDBRANCH   1   2
DOCKED: BRANCH   1   7
DOCKED: ATOM      7  C   UNL d   1      -7.405 -18.286   6.145 -0.09 +0.39    +0.201 C 
DOCKED: BRANCH   7   8
DOCKED: ATOM      8  O   UNL d   1      -6.908 -16.939   5.986 -0.02 -1.08    -0.364 OA
DOCKED: BRANCH   8   9
DOCKED: ATOM      9  P   UNL d   1      -6.753 -15.951   7.304 -0.18 -0.03    -0.015 P 
DOCKED: ATOM     10  O   UNL d   1      -7.662 -14.751   7.012 -0.18 -1.27    -0.577 OA
DOCKED: ATOM     11  O   UNL d   1      -5.282 -15.547   7.388 -0.03 -0.65    -0.577 OA
DOCKED: ATOM     12  O   UNL d   1      -7.225 -16.745   8.521 -0.38 -1.54    -0.638 OA
DOCKED: ENDBRANCH   8   9
DOCKED: ENDBRANCH   7   8
DOCKED: ENDBRANCH   1   7
DOCKED: BRANCH   1  13
DOCKED: ATOM     13  C   UNL d   1      -6.602 -19.089   3.854 -0.11 +0.11    +0.073 C 
DOCKED: ATOM     14  O   UNL d   1      -5.821 -20.102   3.934 +0.02 -0.52    -0.547 OA
DOCKED: ATOM     15  O   UNL d   1      -6.483 -18.148   2.989 -0.41 -1.39    -0.547 OA
DOCKED: ENDBRANCH   1  13
DOCKED: TORSDOF 6
DOCKED: TER
DOCKED: ENDMDL
________________________________________________________________________________


	BEGINNING GENETIC ALGORITHM DOCKING 97 of 100
Run: 97 Seed: 496899625 1626970526 [ Run 97 of 100 GA/GALS ]
Beginning LAMARCKIAN GENETIC ALGORITHM (LGA), with a maximum of 25000000 energy evaluations.

Final-Value: -10.130


	FINAL GENETIC ALGORITHM DOCKED STATE
	_______________________________________________


Detailed state:  trans -8.440 -19.287 3.270 quatxyzw 0.383936 -0.022701 -0.298228 -0.873578 center 0.015 0.083 0.031 ntor 6 -11.2441 -137.3571 -150.4788 17.0492 9.8038 -161.2974
State:	 -8.440 -19.287   3.270   0.789 -0.047 -0.613 -58.246    -11.24 -137.36 -150.48   17.05    9.80 -161.30

DOCKED: MODEL       97
DOCKED: USER    Run = 97
DOCKED: USER    DPF = D:/Protein_go_brrr/autodock/final/AncB/2_3_BPG/dock.dpf
DOCKED: USER  
DOCKED: USER    Estimated Free Energy of Binding    =  -10.42 kcal/mol  [=(1)+(2)+(3)-(4)]
DOCKED: USER    Estimated Inhibition Constant, Ki   =   22.84 nM (nanomolar)  [Temperature = 298.15 K]
DOCKED: USER    
DOCKED: USER    (1) Final Intermolecular Energy     =  -12.21 kcal/mol
DOCKED: USER        vdW + Hbond + desolv Energy     =   -2.84 kcal/mol
DOCKED: USER        Electrostatic Energy            =   -9.37 kcal/mol
DOCKED: USER    (2) Final Total Internal Energy     =   +2.08 kcal/mol
DOCKED: USER    (3) Torsional Free Energy           =   +1.79 kcal/mol
DOCKED: USER    (4) Unbound System's Energy  [=(2)] =   +2.08 kcal/mol
DOCKED: USER    
DOCKED: USER    
DOCKED: USER    NEWDPF move 2_3_BPG_opt.pdbqt
DOCKED: USER    NEWDPF about 0.015000 0.083000 0.031000
DOCKED: USER    NEWDPF tran0 -8.440234 -19.286569 3.269777
DOCKED: USER    NEWDPF quaternion0 0.383936 -0.022701 -0.298228 -0.873578
DOCKED: USER    NEWDPF axisangle0 0.788880 -0.046645 -0.612774 -58.245860
DOCKED: USER    NEWDPF quat0 0.788880 -0.046645 -0.612774 -58.245860
DOCKED: USER    NEWDPF dihe0 -11.24 -137.36 -150.48 17.05 9.80 -161.30 
DOCKED: USER  keepresnum = 1 
DOCKED: USER  
DOCKED: REMARK  6 active torsions:
DOCKED: REMARK  status: ('A' for Active; 'I' for Inactive)
DOCKED: REMARK    1  A    between atoms: P_1  and  O_3 
DOCKED: REMARK    2  A    between atoms: P_2  and  O_4 
DOCKED: REMARK    3  A    between atoms: O_3  and  C_13 
DOCKED: REMARK    4  A    between atoms: O_4  and  C_14 
DOCKED: REMARK    5  A    between atoms: C_13  and  C_14 
DOCKED: REMARK    6  A    between atoms: C_13  and  C_15 
DOCKED: USER                              x       y       z     vdW  Elec       q    Type
DOCKED: USER                           _______ _______ _______ _____ _____    ______ ____
DOCKED: ROOT
DOCKED: ATOM      1  C   UNL d   1      -9.104 -19.197   3.233 -0.10 +0.28    +0.193 C 
DOCKED: ENDROOT
DOCKED: BRANCH   1   2
DOCKED: ATOM      2  O   UNL d   1      -9.391 -17.788   3.525 -0.26 -0.83    -0.356 OA
DOCKED: BRANCH   2   3
DOCKED: ATOM      3  P   UNL d   1     -10.246 -17.295   4.840 -0.17 -0.03    -0.014 P 
DOCKED: ATOM      4  O   UNL d   1      -9.783 -18.228   5.970 -0.34 -1.35    -0.577 OA
DOCKED: ATOM      5  O   UNL d   1     -11.726 -17.494   4.518 -0.07 -0.72    -0.577 OA
DOCKED: ATOM      6  O   UNL d   1      -9.876 -15.843   5.126 -0.38 -1.93    -0.638 OA
DOCKED: ENDBRANCH   2   3
DOCKED: ENDBRANCH   1   2
DOCKED: BRANCH   1   7
DOCKED: ATOM      7  C   UNL d   1      -7.553 -19.364   3.028 -0.04 +0.32    +0.201 C 
DOCKED: BRANCH   7   8
DOCKED: ATOM      8  O   UNL d   1      -6.770 -18.153   3.122 -0.35 -0.98    -0.364 OA
DOCKED: BRANCH   8   9
DOCKED: ATOM      9  P   UNL d   1      -5.195 -18.141   2.617 -0.16 -0.03    -0.015 P 
DOCKED: ATOM     10  O   UNL d   1      -5.139 -19.150   1.464 -0.45 -1.00    -0.577 OA
DOCKED: ATOM     11  O   UNL d   1      -4.343 -18.585   3.806 +0.01 -0.59    -0.577 OA
DOCKED: ATOM     12  O   UNL d   1      -4.880 -16.720   2.153 -0.18 -1.27    -0.638 OA
DOCKED: ENDBRANCH   8   9
DOCKED: ENDBRANCH   7   8
DOCKED: ENDBRANCH   1   7
DOCKED: BRANCH   1  13
DOCKED: ATOM     13  C   UNL d   1      -9.837 -19.634   1.910 -0.07 +0.09    +0.073 C 
DOCKED: ATOM     14  O   UNL d   1      -9.828 -18.831   0.912 -0.31 -0.93    -0.547 OA
DOCKED: ATOM     15  O   UNL d   1     -10.351 -20.810   1.891 +0.01 -0.41    -0.547 OA
DOCKED: ENDBRANCH   1  13
DOCKED: TORSDOF 6
DOCKED: TER
DOCKED: ENDMDL
________________________________________________________________________________


	BEGINNING GENETIC ALGORITHM DOCKING 98 of 100
Run: 98 Seed: 151567234 387477244 [ Run 98 of 100 GA/GALS ]
Beginning LAMARCKIAN GENETIC ALGORITHM (LGA), with a maximum of 25000000 energy evaluations.

Final-Value: -9.876


	FINAL GENETIC ALGORITHM DOCKED STATE
	_______________________________________________


Detailed state:  trans -9.350 -18.216 5.778 quatxyzw -0.554508 -0.285613 -0.296819 -0.723080 center 0.015 0.083 0.031 ntor 6 -71.3059 177.6501 -19.0107 23.7324 -84.4945 -85.5312
State:	 -9.350 -18.216   5.778  -0.803 -0.413 -0.430 -87.381    -71.31  177.65  -19.01   23.73  -84.49  -85.53

DOCKED: MODEL       98
DOCKED: USER    Run = 98
DOCKED: USER    DPF = D:/Protein_go_brrr/autodock/final/AncB/2_3_BPG/dock.dpf
DOCKED: USER  
DOCKED: USER    Estimated Free Energy of Binding    =  -10.37 kcal/mol  [=(1)+(2)+(3)-(4)]
DOCKED: USER    Estimated Inhibition Constant, Ki   =   25.17 nM (nanomolar)  [Temperature = 298.15 K]
DOCKED: USER    
DOCKED: USER    (1) Final Intermolecular Energy     =  -12.16 kcal/mol
DOCKED: USER        vdW + Hbond + desolv Energy     =   -2.53 kcal/mol
DOCKED: USER        Electrostatic Energy            =   -9.63 kcal/mol
DOCKED: USER    (2) Final Total Internal Energy     =   +2.28 kcal/mol
DOCKED: USER    (3) Torsional Free Energy           =   +1.79 kcal/mol
DOCKED: USER    (4) Unbound System's Energy  [=(2)] =   +2.28 kcal/mol
DOCKED: USER    
DOCKED: USER    
DOCKED: USER    NEWDPF move 2_3_BPG_opt.pdbqt
DOCKED: USER    NEWDPF about 0.015000 0.083000 0.031000
DOCKED: USER    NEWDPF tran0 -9.350476 -18.215969 5.777824
DOCKED: USER    NEWDPF quaternion0 -0.554508 -0.285613 -0.296819 -0.723080
DOCKED: USER    NEWDPF axisangle0 -0.802746 -0.413473 -0.429696 -87.381292
DOCKED: USER    NEWDPF quat0 -0.802746 -0.413473 -0.429696 -87.381292
DOCKED: USER    NEWDPF dihe0 -71.31 177.65 -19.01 23.73 -84.49 -85.53 
DOCKED: USER  keepresnum = 1 
DOCKED: USER  
DOCKED: REMARK  6 active torsions:
DOCKED: REMARK  status: ('A' for Active; 'I' for Inactive)
DOCKED: REMARK    1  A    between atoms: P_1  and  O_3 
DOCKED: REMARK    2  A    between atoms: P_2  and  O_4 
DOCKED: REMARK    3  A    between atoms: O_3  and  C_13 
DOCKED: REMARK    4  A    between atoms: O_4  and  C_14 
DOCKED: REMARK    5  A    between atoms: C_13  and  C_14 
DOCKED: REMARK    6  A    between atoms: C_13  and  C_15 
DOCKED: USER                              x       y       z     vdW  Elec       q    Type
DOCKED: USER                           _______ _______ _______ _____ _____    ______ ____
DOCKED: ROOT
DOCKED: ATOM      1  C   UNL d   1      -9.978 -18.125   5.561 -0.10 +0.41    +0.193 C 
DOCKED: ENDROOT
DOCKED: BRANCH   1   2
DOCKED: ATOM      2  O   UNL d   1     -10.023 -18.465   4.134 -0.12 -0.56    -0.356 OA
DOCKED: BRANCH   2   3
DOCKED: ATOM      3  P   UNL d   1     -10.194 -17.343   2.944 -0.20 -0.03    -0.014 P 
DOCKED: ATOM      4  O   UNL d   1     -10.446 -16.025   3.693 -0.31 -1.23    -0.577 OA
DOCKED: ATOM      5  O   UNL d   1     -11.403 -17.754   2.106 +0.01 -0.61    -0.577 OA
DOCKED: ATOM      6  O   UNL d   1      -8.893 -17.296   2.150 +0.08 -1.72    -0.638 OA
DOCKED: ENDBRANCH   2   3
DOCKED: ENDBRANCH   1   2
DOCKED: BRANCH   1   7
DOCKED: ATOM      7  C   UNL d   1      -8.602 -18.605   6.152 -0.06 +0.41    +0.201 C 
DOCKED: BRANCH   7   8
DOCKED: ATOM      8  O   UNL d   1      -7.448 -17.816   5.786 -0.04 -0.89    -0.364 OA
DOCKED: BRANCH   8   9
DOCKED: ATOM      9  P   UNL d   1      -6.863 -16.671   6.826 -0.05 -0.04    -0.015 P 
DOCKED: ATOM     10  O   UNL d   1      -5.448 -16.361   6.323 -0.48 -0.97    -0.577 OA
DOCKED: ATOM     11  O   UNL d   1      -6.848 -17.300   8.219 -0.50 -1.05    -0.577 OA
DOCKED: ATOM     12  O   UNL d   1      -7.786 -15.457   6.728 -0.16 -1.86    -0.638 OA
DOCKED: ENDBRANCH   8   9
DOCKED: ENDBRANCH   7   8
DOCKED: ENDBRANCH   1   7
DOCKED: BRANCH   1  13
DOCKED: ATOM     13  C   UNL d   1     -11.140 -18.860   6.327 -0.07 +0.12    +0.073 C 
DOCKED: ATOM     14  O   UNL d   1     -12.120 -19.328   5.648 -0.04 -0.50    -0.547 OA
DOCKED: ATOM     15  O   UNL d   1     -11.002 -19.004   7.595 -0.48 -1.11    -0.547 OA
DOCKED: ENDBRANCH   1  13
DOCKED: TORSDOF 6
DOCKED: TER
DOCKED: ENDMDL
________________________________________________________________________________


	BEGINNING GENETIC ALGORITHM DOCKING 99 of 100
Run: 99 Seed: 2045537614 536459591 [ Run 99 of 100 GA/GALS ]
Beginning LAMARCKIAN GENETIC ALGORITHM (LGA), with a maximum of 25000000 energy evaluations.

Final-Value: -10.206


	FINAL GENETIC ALGORITHM DOCKED STATE
	_______________________________________________


Detailed state:  trans -8.281 -18.402 5.253 quatxyzw -0.293287 -0.324459 0.569948 0.695607 center 0.015 0.083 0.031 ntor 6 -160.7078 61.2553 97.5131 54.0172 26.6871 -91.8113
State:	 -8.281 -18.402   5.253  -0.408 -0.452  0.793 91.849   -160.71   61.26   97.51   54.02   26.69  -91.81

DOCKED: MODEL       99
DOCKED: USER    Run = 99
DOCKED: USER    DPF = D:/Protein_go_brrr/autodock/final/AncB/2_3_BPG/dock.dpf
DOCKED: USER  
DOCKED: USER    Estimated Free Energy of Binding    =  -10.89 kcal/mol  [=(1)+(2)+(3)-(4)]
DOCKED: USER    Estimated Inhibition Constant, Ki   =   10.35 nM (nanomolar)  [Temperature = 298.15 K]
DOCKED: USER    
DOCKED: USER    (1) Final Intermolecular Energy     =  -12.68 kcal/mol
DOCKED: USER        vdW + Hbond + desolv Energy     =   -3.28 kcal/mol
DOCKED: USER        Electrostatic Energy            =   -9.41 kcal/mol
DOCKED: USER    (2) Final Total Internal Energy     =   +2.48 kcal/mol
DOCKED: USER    (3) Torsional Free Energy           =   +1.79 kcal/mol
DOCKED: USER    (4) Unbound System's Energy  [=(2)] =   +2.48 kcal/mol
DOCKED: USER    
DOCKED: USER    
DOCKED: USER    NEWDPF move 2_3_BPG_opt.pdbqt
DOCKED: USER    NEWDPF about 0.015000 0.083000 0.031000
DOCKED: USER    NEWDPF tran0 -8.281050 -18.402343 5.252787
DOCKED: USER    NEWDPF quaternion0 -0.293287 -0.324459 0.569948 0.695607
DOCKED: USER    NEWDPF axisangle0 -0.408237 -0.451626 0.793332 91.848849
DOCKED: USER    NEWDPF quat0 -0.408237 -0.451626 0.793332 91.848849
DOCKED: USER    NEWDPF dihe0 -160.71 61.26 97.51 54.02 26.69 -91.81 
DOCKED: USER  keepresnum = 1 
DOCKED: USER  
DOCKED: REMARK  6 active torsions:
DOCKED: REMARK  status: ('A' for Active; 'I' for Inactive)
DOCKED: REMARK    1  A    between atoms: P_1  and  O_3 
DOCKED: REMARK    2  A    between atoms: P_2  and  O_4 
DOCKED: REMARK    3  A    between atoms: O_3  and  C_13 
DOCKED: REMARK    4  A    between atoms: O_4  and  C_14 
DOCKED: REMARK    5  A    between atoms: C_13  and  C_14 
DOCKED: REMARK    6  A    between atoms: C_13  and  C_15 
DOCKED: USER                              x       y       z     vdW  Elec       q    Type
DOCKED: USER                           _______ _______ _______ _____ _____    ______ ____
DOCKED: ROOT
DOCKED: ATOM      1  C   UNL d   1      -8.659 -18.177   5.759 -0.07 +0.45    +0.193 C 
DOCKED: ENDROOT
DOCKED: BRANCH   1   2
DOCKED: ATOM      2  O   UNL d   1      -8.096 -16.902   6.217 +0.01 -1.19    -0.356 OA
DOCKED: BRANCH   2   3
DOCKED: ATOM      3  P   UNL d   1      -6.770 -16.796   7.183 -0.10 -0.03    -0.014 P 
DOCKED: ATOM      4  O   UNL d   1      -7.252 -16.007   8.411 -0.53 -1.36    -0.577 OA
DOCKED: ATOM      5  O   UNL d   1      -5.704 -16.027   6.405 -0.59 -1.07    -0.577 OA
DOCKED: ATOM      6  O   UNL d   1      -6.346 -18.212   7.559 -0.02 -0.82    -0.638 OA
DOCKED: ENDBRANCH   2   3
DOCKED: ENDBRANCH   1   2
DOCKED: BRANCH   1   7
DOCKED: ATOM      7  C   UNL d   1      -7.972 -18.573   4.400 +0.02 +0.42    +0.201 C 
DOCKED: BRANCH   7   8
DOCKED: ATOM      8  O   UNL d   1      -6.570 -18.914   4.478 -0.04 -0.58    -0.364 OA
DOCKED: BRANCH   8   9
DOCKED: ATOM      9  P   UNL d   1      -5.575 -18.635   3.186 -0.17 -0.02    -0.015 P 
DOCKED: ATOM     10  O   UNL d   1      -5.824 -19.808   2.230 -0.31 -0.79    -0.577 OA
DOCKED: ATOM     11  O   UNL d   1      -4.143 -18.627   3.720 +0.02 -0.55    -0.577 OA
DOCKED: ATOM     12  O   UNL d   1      -5.993 -17.298   2.575 -0.39 -1.95    -0.638 OA
DOCKED: ENDBRANCH   8   9
DOCKED: ENDBRANCH   7   8
DOCKED: ENDBRANCH   1   7
DOCKED: BRANCH   1  13
DOCKED: ATOM     13  C   UNL d   1     -10.207 -18.028   5.516 -0.14 +0.15    +0.073 C 
DOCKED: ATOM     14  O   UNL d   1     -11.012 -18.571   6.352 -0.58 -1.03    -0.547 OA
DOCKED: ATOM     15  O   UNL d   1     -10.574 -17.309   4.518 -0.38 -1.03    -0.547 OA
DOCKED: ENDBRANCH   1  13
DOCKED: TORSDOF 6
DOCKED: TER
DOCKED: ENDMDL
________________________________________________________________________________


	BEGINNING GENETIC ALGORITHM DOCKING 100 of 100
Run: 100 Seed: 1338012678 602675004 [ Run 100 of 100 GA/GALS ]
Beginning LAMARCKIAN GENETIC ALGORITHM (LGA), with a maximum of 25000000 energy evaluations.

Final-Value: -10.848


	FINAL GENETIC ALGORITHM DOCKED STATE
	_______________________________________________


Detailed state:  trans -8.056 -18.536 5.200 quatxyzw 0.469276 -0.348477 0.169654 -0.793449 center 0.015 0.083 0.031 ntor 6 -168.8883 73.4256 -34.8993 65.9501 27.9283 -148.1991
State:	 -8.056 -18.536   5.200   0.771 -0.573  0.279 -74.982   -168.89   73.43  -34.90   65.95   27.93 -148.20

DOCKED: MODEL      100
DOCKED: USER    Run = 100
DOCKED: USER    DPF = D:/Protein_go_brrr/autodock/final/AncB/2_3_BPG/dock.dpf
DOCKED: USER  
DOCKED: USER    Estimated Free Energy of Binding    =  -11.65 kcal/mol  [=(1)+(2)+(3)-(4)]
DOCKED: USER    Estimated Inhibition Constant, Ki   =    2.89 nM (nanomolar)  [Temperature = 298.15 K]
DOCKED: USER    
DOCKED: USER    (1) Final Intermolecular Energy     =  -13.44 kcal/mol
DOCKED: USER        vdW + Hbond + desolv Energy     =   -3.39 kcal/mol
DOCKED: USER        Electrostatic Energy            =  -10.05 kcal/mol
DOCKED: USER    (2) Final Total Internal Energy     =   +2.59 kcal/mol
DOCKED: USER    (3) Torsional Free Energy           =   +1.79 kcal/mol
DOCKED: USER    (4) Unbound System's Energy  [=(2)] =   +2.59 kcal/mol
DOCKED: USER    
DOCKED: USER    
DOCKED: USER    NEWDPF move 2_3_BPG_opt.pdbqt
DOCKED: USER    NEWDPF about 0.015000 0.083000 0.031000
DOCKED: USER    NEWDPF tran0 -8.055828 -18.535807 5.200360
DOCKED: USER    NEWDPF quaternion0 0.469276 -0.348477 0.169654 -0.793449
DOCKED: USER    NEWDPF axisangle0 0.771028 -0.572553 0.278744 -74.982001
DOCKED: USER    NEWDPF quat0 0.771028 -0.572553 0.278744 -74.982001
DOCKED: USER    NEWDPF dihe0 -168.89 73.43 -34.90 65.95 27.93 -148.20 
DOCKED: USER  keepresnum = 1 
DOCKED: USER  
DOCKED: REMARK  6 active torsions:
DOCKED: REMARK  status: ('A' for Active; 'I' for Inactive)
DOCKED: REMARK    1  A    between atoms: P_1  and  O_3 
DOCKED: REMARK    2  A    between atoms: P_2  and  O_4 
DOCKED: REMARK    3  A    between atoms: O_3  and  C_13 
DOCKED: REMARK    4  A    between atoms: O_4  and  C_14 
DOCKED: REMARK    5  A    between atoms: C_13  and  C_14 
DOCKED: REMARK    6  A    between atoms: C_13  and  C_15 
DOCKED: USER                              x       y       z     vdW  Elec       q    Type
DOCKED: USER                           _______ _______ _______ _____ _____    ______ ____
DOCKED: ROOT
DOCKED: ATOM      1  C   UNL d   1      -8.316 -18.739   4.617 -0.06 +0.36    +0.193 C 
DOCKED: ENDROOT
DOCKED: BRANCH   1   2
DOCKED: ATOM      2  O   UNL d   1      -9.274 -17.723   4.165 -0.26 -0.93    -0.356 OA
DOCKED: BRANCH   2   3
DOCKED: ATOM      3  P   UNL d   1     -10.678 -17.391   4.955 -0.27 -0.03    -0.014 P 
DOCKED: ATOM      4  O   UNL d   1     -11.777 -17.909   4.014 -0.02 -0.62    -0.577 OA
DOCKED: ATOM      5  O   UNL d   1     -10.753 -15.875   5.127 -0.34 -1.22    -0.577 OA
DOCKED: ATOM      6  O   UNL d   1     -10.667 -18.153   6.276 -0.40 -1.55    -0.638 OA
DOCKED: ENDBRANCH   2   3
DOCKED: ENDBRANCH   1   2
DOCKED: BRANCH   1   7
DOCKED: ATOM      7  C   UNL d   1      -7.488 -18.153   5.819 -0.05 +0.43    +0.201 C 
DOCKED: BRANCH   7   8
DOCKED: ATOM      8  O   UNL d   1      -7.979 -16.916   6.380 -0.13 -1.17    -0.364 OA
DOCKED: BRANCH   8   9
DOCKED: ATOM      9  P   UNL d   1      -6.923 -15.827   7.040 -0.00 -0.03    -0.015 P 
DOCKED: ATOM     10  O   UNL d   1      -7.540 -14.452   6.757 -0.16 -1.18    -0.577 OA
DOCKED: ATOM     11  O   UNL d   1      -5.586 -16.011   6.323 -0.59 -1.05    -0.577 OA
DOCKED: ATOM     12  O   UNL d   1      -6.845 -16.124   8.537 -0.60 -1.14    -0.638 OA
DOCKED: ENDBRANCH   8   9
DOCKED: ENDBRANCH   7   8
DOCKED: ENDBRANCH   1   7
DOCKED: BRANCH   1  13
DOCKED: ATOM     13  C   UNL d   1      -7.324 -19.102   3.450 -0.12 +0.13    +0.073 C 
DOCKED: ATOM     14  O   UNL d   1      -7.350 -20.291   2.973 -0.01 -0.62    -0.547 OA
DOCKED: ATOM     15  O   UNL d   1      -6.584 -18.155   2.999 -0.39 -1.42    -0.547 OA
DOCKED: ENDBRANCH   1  13
DOCKED: TORSDOF 6
DOCKED: TER
DOCKED: ENDMDL
________________________________________________________________________________

DPF> analysis                             # perform a ranked cluster analysis


		CLUSTER ANALYSIS OF CONFORMATIONS
		_________________________________

Number of conformations = 100

RMSD cluster analysis will be performed using the ligand atoms only (15 / 15 total atoms).

Outputting structurally similar clusters, ranked in order of increasing energy.


________________________________________________________________________________

Number of distinct conformational clusters found = 6,  out of 100 runs,
Using an rmsd-tolerance of 2.0 A


	CLUSTERING HISTOGRAM
	____________________

________________________________________________________________________________
     |           |     |           |     |                                    
Clus | Lowest    | Run | Mean      | Num | Histogram                          
-ter | Binding   |     | Binding   | in  |                                    
Rank | Energy    |     | Energy    | Clus|    5    10   15   20   25   30   35
_____|___________|_____|___________|_____|____:____|____:____|____:____|____:___
   1 |    -12.07 |  38 |    -11.16 |  68 |####################################################################
   2 |    -11.09 |  14 |    -10.72 |  12 |############
   3 |    -10.69 |  19 |    -10.44 |   2 |##
   4 |    -10.45 |  11 |     -9.72 |  15 |###############
   5 |    -10.40 |   1 |    -10.35 |   2 |##
   6 |    -10.06 |  28 |    -10.06 |   1 |#
_____|___________|_____|___________|_____|______________________________________


Number of multi-member conformational clusters found = 5, out of 100 runs.

	RMSD TABLE
	__________

_____________________________________________________________________
     |      |      |           |         |                 |
Rank | Sub- | Run  | Binding   | Cluster | Reference       | Grep
     | Rank |      | Energy    | RMSD    | RMSD            | Pattern
_____|______|______|___________|_________|_________________|___________
   1      1     38      -12.07      0.00     18.00           RANKING
   1      2     25      -11.84      0.45     18.08           RANKING
   1      3     12      -11.84      0.57     18.17           RANKING
   1      4     88      -11.81      1.81     18.22           RANKING
   1      5     61      -11.81      0.48     18.05           RANKING
   1      6     55      -11.79      1.86     18.17           RANKING
   1      7     22      -11.75      0.44     18.06           RANKING
   1      8     33      -11.74      0.45     18.08           RANKING
   1      9      4      -11.72      0.56     18.15           RANKING
   1     10    100      -11.65      0.49     18.03           RANKING
   1     11     64      -11.65      1.61     17.98           RANKING
   1     12     60      -11.57      1.75     17.62           RANKING
   1     13     58      -11.57      1.77     17.74           RANKING
   1     14     51      -11.53      1.01     17.95           RANKING
   1     15     66      -11.53      1.64     17.80           RANKING
   1     16     89      -11.51      0.82     18.32           RANKING
   1     17     29      -11.51      0.94     18.16           RANKING
   1     18     42      -11.48      1.70     18.01           RANKING
   1     19     16      -11.46      1.64     17.99           RANKING
   1     20      9      -11.45      0.64     18.18           RANKING
   1     21      2      -11.44      1.93     18.23           RANKING
   1     22     68      -11.38      1.70     17.71           RANKING
   1     23     79      -11.38      0.64     17.87           RANKING
   1     24     37      -11.38      1.86     18.26           RANKING
   1     25     76      -11.37      0.79     18.23           RANKING
   1     26     96      -11.34      0.59     18.08           RANKING
   1     27     31      -11.34      0.82     18.22           RANKING
   1     28      5      -11.28      1.70     18.13           RANKING
   1     29     54      -11.26      0.95     18.07           RANKING
   1     30     49      -11.24      1.90     17.77           RANKING
   1     31     69      -11.19      1.72     18.18           RANKING
   1     32      6      -11.18      1.79     17.77           RANKING
   1     33     56      -11.16      1.77     18.50           RANKING
   1     34     23      -11.16      1.17     18.10           RANKING
   1     35      8      -11.16      0.81     18.20           RANKING
   1     36     91      -11.14      1.79     18.22           RANKING
   1     37     62      -11.13      0.87     18.05           RANKING
   1     38     77      -11.11      1.77     18.00           RANKING
   1     39     45      -11.09      1.75     17.84           RANKING
   1     40     85      -11.06      1.66     18.31           RANKING
   1     41     70      -11.06      1.84     18.35           RANKING
   1     42     92      -11.06      0.86     18.21           RANKING
   1     43     94      -11.02      1.82     18.36           RANKING
   1     44     81      -10.99      1.72     17.87           RANKING
   1     45     78      -10.98      1.02     18.52           RANKING
   1     46     47      -10.92      1.64     18.75           RANKING
   1     47     26      -10.91      1.64     17.59           RANKING
   1     48     20      -10.91      1.82     17.60           RANKING
   1     49     67      -10.91      1.92     17.75           RANKING
   1     50     99      -10.89      1.88     18.11           RANKING
   1     51     73      -10.88      1.76     18.07           RANKING
   1     52     72      -10.86      1.61     18.53           RANKING
   1     53     13      -10.80      1.10     18.25           RANKING
   1     54      7      -10.77      1.97     18.23           RANKING
   1     55     83      -10.76      0.95     18.34           RANKING
   1     56     35      -10.71      1.54     18.23           RANKING
   1     57     52      -10.69      1.62     18.61           RANKING
   1     58     59      -10.68      1.91     18.18           RANKING
   1     59      3      -10.62      1.93     18.77           RANKING
   1     60     75      -10.61      1.93     18.37           RANKING
   1     61     15      -10.60      1.48     18.17           RANKING
   1     62     30      -10.58      1.93     18.42           RANKING
   1     63     82      -10.50      1.55     18.12           RANKING
   1     64     95      -10.48      1.95     17.90           RANKING
   1     65     40      -10.46      1.82     18.76           RANKING
   1     66     93      -10.44      1.66     18.05           RANKING
   1     67     98      -10.37      1.80     18.66           RANKING
   1     68     32      -10.28      2.00     18.60           RANKING
   2      1     14      -11.09      0.00     18.45           RANKING
   2      2     39      -11.02      0.98     18.38           RANKING
   2      3     17      -10.96      0.91     18.48           RANKING
   2      4     84      -10.90      1.02     18.42           RANKING
   2      5     18      -10.80      0.68     18.38           RANKING
   2      6     48      -10.74      1.12     18.45           RANKING
   2      7     90      -10.65      0.77     18.59           RANKING
   2      8     41      -10.64      0.71     18.41           RANKING
   2      9     87      -10.56      1.00     18.48           RANKING
   2     10     97      -10.42      0.82     18.44           RANKING
   2     11     63      -10.41      1.61     17.99           RANKING
   2     12     43      -10.41      0.68     18.47           RANKING
   3      1     19      -10.69      0.00     17.81           RANKING
   3      2     74      -10.19      1.46     18.58           RANKING
   4      1     11      -10.45      0.00     12.85           RANKING
   4      2     86      -10.09      0.89     12.65           RANKING
   4      3     34      -10.05      0.81     12.71           RANKING
   4      4     57       -9.96      1.56     13.60           RANKING
   4      5     65       -9.73      1.60     13.44           RANKING
   4      6     27       -9.71      1.54     13.54           RANKING
   4      7     24       -9.70      1.80     13.75           RANKING
   4      8     53       -9.67      1.33     13.08           RANKING
   4      9     10       -9.66      1.55     13.52           RANKING
   4     10     71       -9.59      1.68     13.51           RANKING
   4     11     36       -9.57      1.65     13.83           RANKING
   4     12     21       -9.50      1.60     13.89           RANKING
   4     13     50       -9.45      1.56     13.23           RANKING
   4     14     80       -9.44      1.67     13.97           RANKING
   4     15     46       -9.20      1.86     14.01           RANKING
   5      1      1      -10.40      0.00     19.14           RANKING
   5      2     44      -10.30      0.14     19.13           RANKING
   6      1     28      -10.06      0.00     16.71           RANKING
_______________________________________________________________________



	INFORMATION ENTROPY ANALYSIS FOR THIS CLUSTERING
	________________________________________________


Information entropy for this clustering = 0.22  (rmstol = 2.00 Angstrom)

_______________________________________________________________________


	STATISTICAL MECHANICAL ANALYSIS
	_______________________________


Partition function, Q =   101.85            at Temperature, T = 298.15 K
Free energy,        A ~ -2739.33 kcal/mol   at Temperature, T = 298.15 K
Internal energy,    U =   -10.85 kcal/mol   at Temperature, T = 298.15 K
Entropy,            S =     9.15 kcal/mol/K at Temperature, T = 298.15 K

_______________________________________________________________________


	LOWEST ENERGY DOCKED CONFORMATION from EACH CLUSTER
	___________________________________________________



Keeping original residue number (specified in the input PDBQ file) for outputting.

MODEL       38
USER    Run = 38
USER    Cluster Rank = 1
USER    Number of conformations in this cluster = 68
USER  
USER    RMSD from reference structure       = 18.001 A
USER  
USER    Estimated Free Energy of Binding    =  -12.07 kcal/mol  [=(1)+(2)+(3)-(4)]
USER    Estimated Inhibition Constant, Ki   =    1.41 nM (nanomolar)  [Temperature = 298.15 K]
USER    
USER    (1) Final Intermolecular Energy     =  -13.86 kcal/mol
USER        vdW + Hbond + desolv Energy     =   -3.32 kcal/mol
USER        Electrostatic Energy            =  -10.54 kcal/mol
USER    (2) Final Total Internal Energy     =   +3.10 kcal/mol
USER    (3) Torsional Free Energy           =   +1.79 kcal/mol
USER    (4) Unbound System's Energy  [=(2)] =   +3.10 kcal/mol
USER    
USER    
USER  
USER    DPF = D:/Protein_go_brrr/autodock/final/AncB/2_3_BPG/dock.dpf
USER    NEWDPF move	2_3_BPG_opt.pdbqt
USER    NEWDPF about	0.015000 0.083000 0.031000
USER    NEWDPF tran0	-7.758704 -18.767383 5.147965
USER    NEWDPF axisangle0	0.762058 -0.510330 0.398536 -85.111953
USER    NEWDPF quaternion0	0.515388 -0.345142 0.269534 -0.736617
USER    NEWDPF dihe0	173.26 55.55 -30.73 89.50 35.09 -165.06 
USER  
USER                              x       y       z    vdW   Elec        q     RMS 
ATOM      1  C   UNL d   1      -7.907 -18.980   4.530 -0.08 +0.33    +0.193    18.001
ATOM      2  O   UNL d   1      -9.006 -18.158   4.013 -0.21 -0.81    -0.356    18.001
ATOM      3  P   UNL d   1     -10.315 -17.733   4.913 -0.25 -0.03    -0.014    18.001
ATOM      4  O   UNL d   1     -11.521 -18.132   4.048 -0.01 -0.65    -0.577    18.001
ATOM      5  O   UNL d   1     -10.250 -16.221   5.122 -0.62 -1.49    -0.577    18.001
ATOM      6  O   UNL d   1     -10.272 -18.529   6.214 -0.46 -1.39    -0.638    18.001
ATOM      7  C   UNL d   1      -7.355 -18.317   5.845 -0.06 +0.39    +0.201    18.001
ATOM      8  O   UNL d   1      -7.921 -17.034   6.190 -0.01 -1.16    -0.364    18.001
ATOM      9  P   UNL d   1      -6.963 -15.850   6.835 +0.09 -0.04    -0.015    18.001
ATOM     10  O   UNL d   1      -7.614 -14.530   6.405 -0.13 -1.34    -0.577    18.001
ATOM     11  O   UNL d   1      -5.570 -16.023   6.228 -0.58 -1.09    -0.577    18.001
ATOM     12  O   UNL d   1      -6.981 -16.031   8.352 -0.58 -1.29    -0.638    18.001
ATOM     13  C   UNL d   1      -6.742 -19.049   3.473 -0.12 +0.12    +0.073    18.001
ATOM     14  O   UNL d   1      -6.227 -20.191   3.204 -0.02 -0.58    -0.547    18.001
ATOM     15  O   UNL d   1      -6.418 -17.952   2.891 -0.27 -1.53    -0.547    18.001
TER
ENDMDL
MODEL       14
USER    Run = 14
USER    Cluster Rank = 2
USER    Number of conformations in this cluster = 12
USER  
USER    RMSD from reference structure       = 18.453 A
USER  
USER    Estimated Free Energy of Binding    =  -11.09 kcal/mol  [=(1)+(2)+(3)-(4)]
USER    Estimated Inhibition Constant, Ki   =    7.37 nM (nanomolar)  [Temperature = 298.15 K]
USER    
USER    (1) Final Intermolecular Energy     =  -12.88 kcal/mol
USER        vdW + Hbond + desolv Energy     =   -3.21 kcal/mol
USER        Electrostatic Energy            =   -9.68 kcal/mol
USER    (2) Final Total Internal Energy     =   +2.44 kcal/mol
USER    (3) Torsional Free Energy           =   +1.79 kcal/mol
USER    (4) Unbound System's Energy  [=(2)] =   +2.44 kcal/mol
USER    
USER    
USER  
USER    DPF = D:/Protein_go_brrr/autodock/final/AncB/2_3_BPG/dock.dpf
USER    NEWDPF move	2_3_BPG_opt.pdbqt
USER    NEWDPF about	0.015000 0.083000 0.031000
USER    NEWDPF tran0	-8.930926 -19.260135 3.436395
USER    NEWDPF axisangle0	0.909784 -0.216370 -0.354228 -69.253772
USER    NEWDPF quaternion0	0.516966 -0.122948 -0.201283 -0.822870
USER    NEWDPF dihe0	-49.63 -11.69 5.37 82.51 9.32 148.86 
USER  
USER                              x       y       z    vdW   Elec        q     RMS 
ATOM      1  C   UNL d   1      -9.554 -19.186   3.199 -0.09 +0.26    +0.193    18.453
ATOM      2  O   UNL d   1     -10.060 -17.883   3.644 -0.26 -0.64    -0.356    18.453
ATOM      3  P   UNL d   1      -9.990 -17.372   5.206 +0.04 -0.03    -0.014    18.453
ATOM      4  O   UNL d   1     -10.243 -15.858   5.125 -0.54 -1.48    -0.577    18.453
ATOM      5  O   UNL d   1      -8.585 -17.680   5.720 -0.12 -1.62    -0.577    18.453
ATOM      6  O   UNL d   1     -11.091 -18.083   5.984 -0.45 -1.22    -0.638    18.453
ATOM      7  C   UNL d   1      -8.010 -19.255   3.493 -0.09 +0.32    +0.201    18.453
ATOM      8  O   UNL d   1      -7.224 -18.148   2.997 -0.29 -1.03    -0.364    18.453
ATOM      9  P   UNL d   1      -5.573 -18.249   2.971 -0.14 -0.03    -0.015    18.453
ATOM     10  O   UNL d   1      -5.094 -16.847   2.576 -0.34 -1.23    -0.577    18.453
ATOM     11  O   UNL d   1      -5.207 -19.295   1.918 -0.44 -0.87    -0.577    18.453
ATOM     12  O   UNL d   1      -5.122 -18.634   4.379 +0.02 -0.79    -0.638    18.453
ATOM     13  C   UNL d   1      -9.780 -19.353   1.651 +0.01 +0.10    +0.073    18.453
ATOM     14  O   UNL d   1     -10.269 -18.367   0.994 -0.26 -0.82    -0.547    18.453
ATOM     15  O   UNL d   1      -9.399 -20.459   1.122 -0.26 -0.60    -0.547    18.453
TER
ENDMDL
MODEL       19
USER    Run = 19
USER    Cluster Rank = 3
USER    Number of conformations in this cluster = 2
USER  
USER    RMSD from reference structure       = 17.807 A
USER  
USER    Estimated Free Energy of Binding    =  -10.69 kcal/mol  [=(1)+(2)+(3)-(4)]
USER    Estimated Inhibition Constant, Ki   =   14.54 nM (nanomolar)  [Temperature = 298.15 K]
USER    
USER    (1) Final Intermolecular Energy     =  -12.48 kcal/mol
USER        vdW + Hbond + desolv Energy     =   -2.22 kcal/mol
USER        Electrostatic Energy            =  -10.26 kcal/mol
USER    (2) Final Total Internal Energy     =   +2.29 kcal/mol
USER    (3) Torsional Free Energy           =   +1.79 kcal/mol
USER    (4) Unbound System's Energy  [=(2)] =   +2.29 kcal/mol
USER    
USER    
USER  
USER    DPF = D:/Protein_go_brrr/autodock/final/AncB/2_3_BPG/dock.dpf
USER    NEWDPF move	2_3_BPG_opt.pdbqt
USER    NEWDPF about	0.015000 0.083000 0.031000
USER    NEWDPF tran0	-6.586379 -17.823452 5.808124
USER    NEWDPF axisangle0	0.981533 -0.122583 -0.146856 98.059681
USER    NEWDPF quaternion0	0.741108 -0.092557 -0.110884 0.655666
USER    NEWDPF dihe0	39.92 50.92 -148.19 23.78 58.50 -32.98 
USER  
USER                              x       y       z    vdW   Elec        q     RMS 
ATOM      1  C   UNL d   1      -7.064 -17.698   6.262 -0.03 +0.42    +0.193    17.807
ATOM      2  O   UNL d   1      -8.268 -18.443   5.877 -0.09 -0.73    -0.356    17.807
ATOM      3  P   UNL d   1      -9.622 -17.724   5.282 -0.01 -0.03    -0.014    17.807
ATOM      4  O   UNL d   1     -10.774 -18.362   6.076 -0.49 -1.15    -0.577    17.807
ATOM      5  O   UNL d   1      -9.704 -18.071   3.797 -0.20 -1.12    -0.577    17.807
ATOM      6  O   UNL d   1      -9.519 -16.227   5.552 -0.15 -2.16    -0.638    17.807
ATOM      7  C   UNL d   1      -5.857 -18.202   5.387 -0.04 +0.31    +0.201    17.807
ATOM      8  O   UNL d   1      -5.123 -17.180   4.677 -0.17 -0.67    -0.364    17.807
ATOM      9  P   UNL d   1      -5.059 -17.202   3.024 -0.07 -0.03    -0.015    17.807
ATOM     10  O   UNL d   1      -6.419 -17.754   2.579 -0.37 -1.74    -0.577    17.807
ATOM     11  O   UNL d   1      -3.911 -18.133   2.635 -0.04 -0.63    -0.577    17.807
ATOM     12  O   UNL d   1      -4.844 -15.762   2.561 -0.11 -1.14    -0.638    17.807
ATOM     13  C   UNL d   1      -6.730 -17.957   7.778 -0.09 +0.11    +0.073    17.807
ATOM     14  O   UNL d   1      -5.908 -18.894   8.072 +0.01 -0.48    -0.547    17.807
ATOM     15  O   UNL d   1      -7.261 -17.162   8.635 -0.38 -1.23    -0.547    17.807
TER
ENDMDL
MODEL       11
USER    Run = 11
USER    Cluster Rank = 4
USER    Number of conformations in this cluster = 15
USER  
USER    RMSD from reference structure       = 12.846 A
USER  
USER    Estimated Free Energy of Binding    =  -10.45 kcal/mol  [=(1)+(2)+(3)-(4)]
USER    Estimated Inhibition Constant, Ki   =   21.89 nM (nanomolar)  [Temperature = 298.15 K]
USER    
USER    (1) Final Intermolecular Energy     =  -12.24 kcal/mol
USER        vdW + Hbond + desolv Energy     =   -4.53 kcal/mol
USER        Electrostatic Energy            =   -7.71 kcal/mol
USER    (2) Final Total Internal Energy     =   +2.24 kcal/mol
USER    (3) Torsional Free Energy           =   +1.79 kcal/mol
USER    (4) Unbound System's Energy  [=(2)] =   +2.24 kcal/mol
USER    
USER    
USER  
USER    DPF = D:/Protein_go_brrr/autodock/final/AncB/2_3_BPG/dock.dpf
USER    NEWDPF move	2_3_BPG_opt.pdbqt
USER    NEWDPF about	0.015000 0.083000 0.031000
USER    NEWDPF tran0	-1.199276 1.076475 -13.505494
USER    NEWDPF axisangle0	-0.862335 -0.505870 -0.021788 106.456887
USER    NEWDPF quaternion0	-0.690755 -0.405216 -0.017453 0.598626
USER    NEWDPF dihe0	14.46 -23.41 -101.14 -3.12 16.75 145.13 
USER  
USER                              x       y       z    vdW   Elec        q     RMS 
ATOM      1  C   UNL d   1      -1.713   0.647 -13.524 -0.17 +0.26    +0.193    12.846
ATOM      2  O   UNL d   1      -2.315   0.595 -12.187 -0.14 -0.43    -0.356    12.846
ATOM      3  P   UNL d   1      -2.750  -0.807 -11.446 -0.26 -0.02    -0.014    12.846
ATOM      4  O   UNL d   1      -2.646  -0.495  -9.945 -0.03 -0.41    -0.577    12.846
ATOM      5  O   UNL d   1      -1.744  -1.874 -11.870 -0.20 -0.93    -0.577    12.846
ATOM      6  O   UNL d   1      -4.185  -1.129 -11.852 -0.40 -1.27    -0.638    12.846
ATOM      7  C   UNL d   1      -0.704   1.852 -13.578 -0.15 +0.22    +0.201    12.846
ATOM      8  O   UNL d   1      -1.247   3.144 -13.227 -0.47 -0.60    -0.364    12.846
ATOM      9  P   UNL d   1      -0.470   4.526 -13.700 -0.28 -0.02    -0.015    12.846
ATOM     10  O   UNL d   1      -0.895   4.744 -15.157 -0.36 -0.99    -0.577    12.846
ATOM     11  O   UNL d   1       1.030   4.259 -13.576 -0.50 -0.50    -0.577    12.846
ATOM     12  O   UNL d   1      -0.955   5.651 -12.786 -0.52 -0.95    -0.638    12.846
ATOM     13  C   UNL d   1      -2.830   0.875 -14.610 -0.14 +0.12    +0.073    12.846
ATOM     14  O   UNL d   1      -3.435   2.004 -14.637 -0.53 -1.16    -0.547    12.846
ATOM     15  O   UNL d   1      -3.025  -0.074 -15.453 -0.39 -1.01    -0.547    12.846
TER
ENDMDL
MODEL        1
USER    Run = 1
USER    Cluster Rank = 5
USER    Number of conformations in this cluster = 2
USER  
USER    RMSD from reference structure       = 19.143 A
USER  
USER    Estimated Free Energy of Binding    =  -10.40 kcal/mol  [=(1)+(2)+(3)-(4)]
USER    Estimated Inhibition Constant, Ki   =   23.94 nM (nanomolar)  [Temperature = 298.15 K]
USER    
USER    (1) Final Intermolecular Energy     =  -12.19 kcal/mol
USER        vdW + Hbond + desolv Energy     =   -3.05 kcal/mol
USER        Electrostatic Energy            =   -9.14 kcal/mol
USER    (2) Final Total Internal Energy     =   +1.97 kcal/mol
USER    (3) Torsional Free Energy           =   +1.79 kcal/mol
USER    (4) Unbound System's Energy  [=(2)] =   +1.97 kcal/mol
USER    
USER    
USER  
USER    DPF = D:/Protein_go_brrr/autodock/final/AncB/2_3_BPG/dock.dpf
USER    NEWDPF move	2_3_BPG_opt.pdbqt
USER    NEWDPF about	0.015000 0.083000 0.031000
USER    NEWDPF tran0	-9.405639 -18.822106 2.579477
USER    NEWDPF axisangle0	0.550023 -0.669705 -0.498969 135.502285
USER    NEWDPF quaternion0	0.509073 -0.619844 -0.461819 0.378630
USER    NEWDPF dihe0	21.31 -19.87 16.39 6.05 -39.03 -28.66 
USER  
USER                              x       y       z    vdW   Elec        q     RMS 
ATOM      1  C   UNL d   1      -8.985 -18.585   3.045 -0.12 +0.36    +0.193    19.143
ATOM      2  O   UNL d   1      -9.563 -18.862   4.365 -0.08 -0.55    -0.356    19.143
ATOM      3  P   UNL d   1      -9.799 -17.703   5.508 -0.02 -0.03    -0.014    19.143
ATOM      4  O   UNL d   1     -10.919 -18.266   6.398 -0.49 -1.29    -0.577    19.143
ATOM      5  O   UNL d   1     -10.243 -16.435   4.781 -0.67 -1.47    -0.577    19.143
ATOM      6  O   UNL d   1      -8.498 -17.535   6.285 +0.08 -1.91    -0.638    19.143
ATOM      7  C   UNL d   1      -9.801 -19.381   1.960 -0.05 +0.26    +0.201    19.143
ATOM      8  O   UNL d   1     -10.233 -18.619   0.812 -0.40 -0.54    -0.364    19.143
ATOM      9  P   UNL d   1     -10.265 -19.322  -0.686 -0.02 -0.02    -0.015    19.143
ATOM     10  O   UNL d   1     -10.298 -18.151  -1.675 -0.50 -0.82    -0.577    19.143
ATOM     11  O   UNL d   1     -11.538 -20.165  -0.756 +0.01 -0.36    -0.577    19.143
ATOM     12  O   UNL d   1      -8.989 -20.152  -0.822 -0.36 -0.85    -0.638    19.143
ATOM     13  C   UNL d   1      -7.486 -19.064   3.001 -0.02 +0.13    +0.073    19.143
ATOM     14  O   UNL d   1      -7.248 -20.319   2.913 -0.01 -0.62    -0.547    19.143
ATOM     15  O   UNL d   1      -6.584 -18.151   2.991 -0.39 -1.42    -0.547    19.143
TER
ENDMDL
MODEL       28
USER    Run = 28
USER    Cluster Rank = 6
USER    Number of conformations in this cluster = 1
USER  
USER    RMSD from reference structure       = 16.712 A
USER  
USER    Estimated Free Energy of Binding    =  -10.06 kcal/mol  [=(1)+(2)+(3)-(4)]
USER    Estimated Inhibition Constant, Ki   =   42.15 nM (nanomolar)  [Temperature = 298.15 K]
USER    
USER    (1) Final Intermolecular Energy     =  -11.85 kcal/mol
USER        vdW + Hbond + desolv Energy     =   -4.47 kcal/mol
USER        Electrostatic Energy            =   -7.38 kcal/mol
USER    (2) Final Total Internal Energy     =   +2.14 kcal/mol
USER    (3) Torsional Free Energy           =   +1.79 kcal/mol
USER    (4) Unbound System's Energy  [=(2)] =   +2.14 kcal/mol
USER    
USER    
USER  
USER    DPF = D:/Protein_go_brrr/autodock/final/AncB/2_3_BPG/dock.dpf
USER    NEWDPF move	2_3_BPG_opt.pdbqt
USER    NEWDPF about	0.015000 0.083000 0.031000
USER    NEWDPF tran0	-11.653138 -14.559440 4.171105
USER    NEWDPF axisangle0	0.214121 -0.314251 -0.924877 -103.178087
USER    NEWDPF quaternion0	0.167780 -0.246239 -0.724710 -0.621298
USER    NEWDPF dihe0	139.68 179.46 -133.18 31.35 -9.30 -110.16 
USER  
USER                              x       y       z    vdW   Elec        q     RMS 
ATOM      1  C   UNL d   1     -11.859 -13.936   4.034 -0.32 +0.18    +0.193    16.712
ATOM      2  O   UNL d   1     -10.673 -13.085   3.891 -0.21 -0.40    -0.356    16.712
ATOM      3  P   UNL d   1     -10.136 -12.077   5.075 -0.72 -0.01    -0.014    16.712
ATOM      4  O   UNL d   1     -11.196 -12.188   6.182 -0.72 -0.52    -0.577    16.712
ATOM      5  O   UNL d   1     -10.087 -10.670   4.483 -0.27 -0.34    -0.577    16.712
ATOM      6  O   UNL d   1      -8.778 -12.586   5.546 -0.14 -0.84    -0.638    16.712
ATOM      7  C   UNL d   1     -11.400 -15.441   4.064 -0.23 +0.28    +0.201    16.712
ATOM      8  O   UNL d   1     -10.323 -15.753   4.975 -0.60 -0.90    -0.364    16.712
ATOM      9  P   UNL d   1      -9.860 -17.325   5.205 +0.18 -0.04    -0.015    16.712
ATOM     10  O   UNL d   1      -9.694 -17.902   3.795 -0.26 -1.19    -0.577    16.712
ATOM     11  O   UNL d   1     -10.988 -18.013   5.975 -0.44 -1.15    -0.577    16.712
ATOM     12  O   UNL d   1      -8.540 -17.299   5.975 -0.09 -2.00    -0.638    16.712
ATOM     13  C   UNL d   1     -12.824 -13.728   2.809 -0.39 +0.04    +0.073    16.712
ATOM     14  O   UNL d   1     -14.018 -14.186   2.886 -0.06 -0.20    -0.547    16.712
ATOM     15  O   UNL d   1     -12.370 -13.048   1.818 -0.21 -0.28    -0.547    16.712
TER
ENDMDL


AVSFLD: # AVS field file
AVSFLD: #
AVSFLD: # Created by AutoDock
AVSFLD: #
AVSFLD: ndim=2           # number of dimensions in the field
AVSFLD: nspace=1         # number of physical coordinates
AVSFLD: veclen=7         # vector size
AVSFLD: dim1=15          # atoms
AVSFLD: dim2=6           # conformations
AVSFLD: data=Real       # data type (byte,integer,Real,double)
AVSFLD: field=uniform    # field coordinate layout
AVSFLD: label= x y z vdW Elec q RMS
AVSFLD: variable 1 file = D:/Protein_go_brrr/autodock/final/AncB/2_3_BPG/dock.dlg.pdb filetype = ascii offset = 5 stride = 12
AVSFLD: variable 2 file = D:/Protein_go_brrr/autodock/final/AncB/2_3_BPG/dock.dlg.pdb filetype = ascii offset = 6 stride = 12
AVSFLD: variable 3 file = D:/Protein_go_brrr/autodock/final/AncB/2_3_BPG/dock.dlg.pdb filetype = ascii offset = 7 stride = 12
AVSFLD: variable 4 file = D:/Protein_go_brrr/autodock/final/AncB/2_3_BPG/dock.dlg.pdb filetype = ascii offset = 8 stride = 12
AVSFLD: variable 5 file = D:/Protein_go_brrr/autodock/final/AncB/2_3_BPG/dock.dlg.pdb filetype = ascii offset = 9 stride = 12
AVSFLD: variable 6 file = D:/Protein_go_brrr/autodock/final/AncB/2_3_BPG/dock.dlg.pdb filetype = ascii offset = 10 stride = 12
AVSFLD: variable 7 file = D:/Protein_go_brrr/autodock/final/AncB/2_3_BPG/dock.dlg.pdb filetype = ascii offset = 11 stride = 12
AVSFLD: # end of file

>>> Closing the docking parameter file (DPF)...
This docking finished at:			6:46 10" p.m., 09/30/2025


________________________________________________________________________________

D:/autodockScripts/autodock4.exe: Successful Completion on "ACER"

Real= 5h 51m 21.05s,  CPU= 42.08s,  System= 1m 17.42s
________________________________________________________________________________

