          AutoDock 4.2 Release 4.2.6   
         (C) 1989-2012 The Scripps Research Institute
        AutoDock comes with ABSOLUTELY NO WARRANTY.
        AutoDock is free software, and you are welcome
        to redistribute it under certain conditions;
        for details type 'autodock4 -C'

                     main.cc  $Revision: 1.213 $

                   Compiled on Jul 18 2014 at 15:34:58


This file was created at:			5:13 47" p.m., 10/15/2025
                   on host:		"ACER"
Current Working Directory = "D:\Protein_go_brrr\autodock\final\1A3N\heme_O2"

      ________________________________________________________________

                   SETTING UP DEFAULT PARAMETER LIBRARY
      ________________________________________________________________


Random number generator was seeded with values 26608, 1760541227.
Docking parameter file (DPF) used for this docking:		D:/Protein_go_brrr/autodock/final/1A3N/heme_O2/dock.dpf
DPF> autodock_parameter_version 4.2       # used by autodock to validate parameter set

	Autodock parameter version 4.2.
DPF> outlev 1                             # diagnostic output level

Output Level = 1  ADT-COMPATIBLE OUTPUT DURING DOCKING.
DPF> intelec                              # calculate internal electrostatics

Electrostatic energies will be calculated for all non-bonds between moving atoms.
DPF> seed pid time                        # seeds for random generator

Random number generator was seeded with values 26608, 1760541227.
DPF> ligand_types A C OA N Fe HD          # atoms types in ligand

DPF> fld opt_1A3N_fin.maps.fld            # grid_data_file

Opening Grid Map Dimensions file:		opt_1A3N_fin.maps.fld
Grid Point Spacing =				0.642 Angstroms

Even Number of User-specified Grid Points =	126 x-points
						126 y-points
						126 z-points

Coordinates of Central Grid Point of Maps =	(14.481, 2.083, 13.105)
Macromolecule file used to create Grid Maps =	opt_1A3N_fin.pdbqt
Grid Parameter file used to create Grid Maps =	D:/Protein_go_brrr/autodock/final/1A3N/heme_O2/grid.gpf
Minimum coordinates in grid = (-25.965, -38.363, -27.341)
Maximum coordinates in grid = (54.927, 42.529, 53.551)

DPF> map opt_1A3N_fin.A.map               # atom-specific affinity map

DPF> map opt_1A3N_fin.C.map               # atom-specific affinity map

DPF> map opt_1A3N_fin.OA.map              # atom-specific affinity map

DPF> map opt_1A3N_fin.N.map               # atom-specific affinity map

DPF> map opt_1A3N_fin.Fe.map              # atom-specific affinity map

DPF> map opt_1A3N_fin.HD.map              # atom-specific affinity map

DPF> elecmap opt_1A3N_fin.e.map           # electrostatics map

DPF> desolvmap opt_1A3N_fin.d.map         # desolvation map

DPF> move heme_O2_opt.pdbqt               # small molecule

1,4-interactions will be _ignored_ in the non-bonded internal energy calculation.

Ligand PDBQT file = "heme_O2_opt.pdbqt"

INPUT LIGAND PDBQT FILE:
________________________

INPUT-LIGAND-PDBQT: REMARK  10 active torsions:
INPUT-LIGAND-PDBQT: REMARK  status: ('A' for Active; 'I' for Inactive)
INPUT-LIGAND-PDBQT: REMARK    1  A    between atoms: C_6  and  C_10 
INPUT-LIGAND-PDBQT: REMARK    2  A    between atoms: C_10  and  C_11 
INPUT-LIGAND-PDBQT: REMARK    3  A    between atoms: C_11  and  C_12 
INPUT-LIGAND-PDBQT: REMARK    4  A    between atoms: C_12  and  O_14 
INPUT-LIGAND-PDBQT: REMARK    5  A    between atoms: C_17  and  C_20 
INPUT-LIGAND-PDBQT: REMARK    6  A    between atoms: C_24  and  C_27 
INPUT-LIGAND-PDBQT: REMARK    7  A    between atoms: C_31  and  C_34 
INPUT-LIGAND-PDBQT: REMARK    8  A    between atoms: C_34  and  C_35 
INPUT-LIGAND-PDBQT: REMARK    9  A    between atoms: C_35  and  C_36 
INPUT-LIGAND-PDBQT: REMARK   10  A    between atoms: C_36  and  O_38 
INPUT-LIGAND-PDBQT: ROOT
INPUT-LIGAND-PDBQT: ATOM      1  C   UNL d   1       6.417  35.070  -1.470  0.00  0.00     0.064 A 
INPUT-LIGAND-PDBQT: ATOM      2  C   UNL d   1       7.592  32.343   2.237  0.00  0.00     0.064 A 
INPUT-LIGAND-PDBQT: ATOM      3  C   UNL d   1      12.269  32.904   1.285  0.00  0.00     0.064 C 
INPUT-LIGAND-PDBQT: ATOM      4  C   UNL d   1      11.084  36.099  -2.244  0.00  0.00     0.064 A 
INPUT-LIGAND-PDBQT: ATOM      5  C   UNL d   1       6.355  34.284  -0.383  0.00  0.00     0.066 A 
INPUT-LIGAND-PDBQT: ATOM      6  C   UNL d   1       5.162  33.858   0.208  0.00  0.00    -0.021 A 
INPUT-LIGAND-PDBQT: ATOM      7  C   UNL d   1       5.501  33.104   1.307  0.00  0.00    -0.025 A 
INPUT-LIGAND-PDBQT: ATOM      8  C   UNL d   1       6.892  33.050   1.329  0.00  0.00     0.066 A 
INPUT-LIGAND-PDBQT: ATOM      9  C   UNL d   1       4.513  32.505   2.284  0.00  0.00     0.051 C 
INPUT-LIGAND-PDBQT: ATOM     10  C   UNL d   1       9.050  32.230   2.297  0.00  0.00     0.066 A 
INPUT-LIGAND-PDBQT: ATOM     11  C   UNL d   1       9.719  31.353   3.158  0.00  0.00    -0.021 A 
INPUT-LIGAND-PDBQT: ATOM     12  C   UNL d   1      11.068  31.487   2.886  0.00  0.00     0.000 A 
INPUT-LIGAND-PDBQT: ATOM     13  C   UNL d   1      11.148  32.469   1.860  0.00  0.00     0.070 A 
INPUT-LIGAND-PDBQT: ATOM     14  C   UNL d   1       9.096  30.407   4.178  0.00  0.00     0.052 C 
INPUT-LIGAND-PDBQT: ATOM     15  C   UNL d   1      12.395  33.921   0.269  0.00  0.00     0.066 A 
INPUT-LIGAND-PDBQT: ATOM     16  C   UNL d   1      13.607  34.449  -0.175  0.00  0.00    -0.021 A 
INPUT-LIGAND-PDBQT: ATOM     17  C   UNL d   1      13.294  35.363  -1.181  0.00  0.00     0.000 A 
INPUT-LIGAND-PDBQT: ATOM     18  C   UNL d   1      11.896  35.322  -1.278  0.00  0.00     0.070 A 
INPUT-LIGAND-PDBQT: ATOM     19  C   UNL d   1      14.937  34.079   0.432  0.00  0.00     0.052 C 
INPUT-LIGAND-PDBQT: ATOM     20  C   UNL d   1       9.740  36.116  -2.335  0.00  0.00     0.066 A 
INPUT-LIGAND-PDBQT: ATOM     21  C   UNL d   1       9.031  36.855  -3.278  0.00  0.00    -0.025 A 
INPUT-LIGAND-PDBQT: ATOM     22  C   UNL d   1       7.701  36.553  -3.090  0.00  0.00    -0.021 A 
INPUT-LIGAND-PDBQT: ATOM     23  C   UNL d   1       7.646  35.651  -2.023  0.00  0.00     0.066 A 
INPUT-LIGAND-PDBQT: ATOM     24  C   UNL d   1       9.594  37.804  -4.304  0.00  0.00     0.051 C 
INPUT-LIGAND-PDBQT: ATOM     25  N   UNL d   1       7.418  33.831   0.326  0.00  0.00    -0.248 N 
INPUT-LIGAND-PDBQT: ATOM     26  N   UNL d   1       9.916  32.919   1.511  0.00  0.00    -0.248 N 
INPUT-LIGAND-PDBQT: ATOM     27  N   UNL d   1      11.363  34.498  -0.340  0.00  0.00    -0.248 N 
INPUT-LIGAND-PDBQT: ATOM     28  N   UNL d   1       8.884  35.423  -1.538  0.00  0.00    -0.248 N 
INPUT-LIGAND-PDBQT: ATOM     29 FE   UNL d   1       9.399  34.181  -0.025  0.00  0.00     0.000 Fe
INPUT-LIGAND-PDBQT: ATOM     30  O   UNL d   1       8.866  34.841   1.280  0.00  0.00     0.000 OA
INPUT-LIGAND-PDBQT: ATOM     31  O   UNL d   1       9.881  35.626   0.366  0.00  0.00     0.000 OA
INPUT-LIGAND-PDBQT: ENDROOT
INPUT-LIGAND-PDBQT: BRANCH   6  32
INPUT-LIGAND-PDBQT: ATOM     32  C   UNL d   1       3.756  34.255  -0.161  0.00  0.00     0.052 C 
INPUT-LIGAND-PDBQT: BRANCH  32  33
INPUT-LIGAND-PDBQT: ATOM     33  C   UNL d   1       3.190  33.429  -1.312  0.00  0.00     0.115 C 
INPUT-LIGAND-PDBQT: BRANCH  33  34
INPUT-LIGAND-PDBQT: ATOM     34  C   UNL d   1       1.764  33.798  -1.638  0.00  0.00     0.139 C 
INPUT-LIGAND-PDBQT: ATOM     35  O   UNL d   1       1.015  32.956  -2.107  0.00  0.00    -0.650 OA
INPUT-LIGAND-PDBQT: BRANCH  34  36
INPUT-LIGAND-PDBQT: ATOM     36  O   UNL d   1       1.301  35.051  -1.449  0.00  0.00    -0.776 OA
INPUT-LIGAND-PDBQT: ATOM     37  H   UNL d   1       1.861  35.756  -1.104  0.00  0.00     0.167 HD
INPUT-LIGAND-PDBQT: ENDBRANCH  34  36
INPUT-LIGAND-PDBQT: ENDBRANCH  33  34
INPUT-LIGAND-PDBQT: ENDBRANCH  32  33
INPUT-LIGAND-PDBQT: ENDBRANCH   6  32
INPUT-LIGAND-PDBQT: BRANCH  22  38
INPUT-LIGAND-PDBQT: ATOM     38  C   UNL d   1       6.548  37.151  -3.854  0.00  0.00     0.052 C 
INPUT-LIGAND-PDBQT: BRANCH  38  39
INPUT-LIGAND-PDBQT: ATOM     39  C   UNL d   1       6.010  36.208  -4.928  0.00  0.00     0.115 C 
INPUT-LIGAND-PDBQT: BRANCH  39  40
INPUT-LIGAND-PDBQT: ATOM     40  C   UNL d   1       4.838  36.794  -5.675  0.00  0.00     0.139 C 
INPUT-LIGAND-PDBQT: ATOM     41  O   UNL d   1       4.700  36.561  -6.865  0.00  0.00    -0.650 OA
INPUT-LIGAND-PDBQT: BRANCH  40  42
INPUT-LIGAND-PDBQT: ATOM     42  O   UNL d   1       3.907  37.532  -5.040  0.00  0.00    -0.776 OA
INPUT-LIGAND-PDBQT: ATOM     43  H   UNL d   1       3.982  37.740  -4.101  0.00  0.00     0.167 HD
INPUT-LIGAND-PDBQT: ENDBRANCH  40  42
INPUT-LIGAND-PDBQT: ENDBRANCH  39  40
INPUT-LIGAND-PDBQT: ENDBRANCH  38  39
INPUT-LIGAND-PDBQT: ENDBRANCH  22  38
INPUT-LIGAND-PDBQT: BRANCH  12  44
INPUT-LIGAND-PDBQT: ATOM     44  C   UNL d   1      12.120  30.683   3.621  0.00  0.00     0.004 C 
INPUT-LIGAND-PDBQT: ATOM     45  C   UNL d   1      13.434  30.659   3.401  0.00  0.00     0.012 C 
INPUT-LIGAND-PDBQT: ENDBRANCH  12  44
INPUT-LIGAND-PDBQT: BRANCH  17  46
INPUT-LIGAND-PDBQT: ATOM     46  C   UNL d   1      14.171  36.282  -1.989  0.00  0.00     0.004 C 
INPUT-LIGAND-PDBQT: ATOM     47  C   UNL d   1      15.480  36.522  -1.839  0.00  0.00     0.012 C 
INPUT-LIGAND-PDBQT: ENDBRANCH  17  46
INPUT-LIGAND-PDBQT: TORSDOF 10
________________________________________________________________________________

Total charge on ligand                               =	-2.002 e
REMARK  10 active torsions:
REMARK  status: ('A' for Active; 'I' for Inactive)
REMARK    1  A    between atoms: C_6  and  C_10 
REMARK    2  A    between atoms: C_10  and  C_11 
REMARK    3  A    between atoms: C_11  and  C_12 
REMARK    4  A    between atoms: C_12  and  O_14 
REMARK    5  A    between atoms: C_17  and  C_20 
REMARK    6  A    between atoms: C_24  and  C_27 
REMARK    7  A    between atoms: C_31  and  C_34 
REMARK    8  A    between atoms: C_34  and  C_35 
REMARK    9  A    between atoms: C_35  and  C_36 
REMARK   10  A    between atoms: C_36  and  O_38 


Number of Rotatable Bonds in Small Molecule =	10 torsions
Number of atoms in ligand:  47

Number of non-hydrogen atoms in ligand:  45

Number of vibrational degrees of freedom of ligand:  135


Number of torsional degrees of freedom = 10
Estimated loss of torsional free energy upon binding = +2.9830 kcal/mol


DPF> about 8.287 34.468 -0.670            # small molecule center

Small molecule center of rotation =	(+8.287, +34.468, -0.670)

DPF> tran0 random                         # initial coordinates/A or random

Initial translation =			(18.004, -24.493, 33.816) Angstroms
DPF> quaternion0 random                   # initial orientation

Each run will begin with a new, random initial orientation.
Initial quaternion,  (x,y,z,w) =	( 0.083, 0.208, 0.693, -0.685 ),
DPF> dihe0 random                         # initial dihedrals (relative) or random

DPF> torsdof 10                            # torsional degrees of freedom

Number of torsional degrees of freedom = 10
Free energy coefficient for torsional degrees of freedom = 0.2983, the factory default value.

Estimated loss of torsional free energy upon binding = +2.9830 kcal/mol

DPF> rmstol 2.0                           # cluster_tolerance/A

Maximum RMS tolerance for conformational cluster analysis = 2.00 Angstroms
DPF> extnrg 1000.0                        # external grid energy

External grid energy (beyond grid map walls) = 1000.00

DPF> e0max 0.0 10000                      # max initial energy; max number of retries

Using user-specified maximum number of retries for simanneal initialization, 10000 retries.
If the simanneal initial energy is greater than e0max, 0.000,
then a new, random initial state will be created.

DPF> ga_pop_size 150                      # number of individuals in population

A population of 150 individuals will be used
DPF> ga_num_evals 25000000                # maximum number of energy evaluations

There will be at most 25000000 function evaluations used.
DPF> ga_num_generations 27000             # maximum number of generations

The GA will run for at most 27000 generations.
DPF> ga_elitism 1                         # number of top individuals to survive to next generation

The 1 best will be preserved each GA generation.
DPF> ga_mutation_rate 0.02                # rate of gene mutation

The mutation rate is 0.020000.
DPF> ga_crossover_rate 0.8                # rate of crossover

The crossover rate is 0.800000.
DPF> ga_window_size 10                    # 

The GA's selection window is 10 generations.
DPF> ga_cauchy_alpha 0.0                  # Alpha parameter of Cauchy distribution

The alpha parameter (for the Cauchy distribution) is being set to 0.000000.
DPF> ga_cauchy_beta 1.0                   # Beta parameter Cauchy distribution

The beta parameter (for the Cauchy distribution) is being set to 1.000000.
DPF> set_ga                               # set the above parameters for GA or LGA

DPF> sw_max_its 300                       # iterations of Solis & Wets local search

Solis & Wets algorithms will perform at most 300 iterations.
DPF> sw_max_succ 4                        # consecutive successes before changing rho

Solis & Wets algorithms expand rho every 4 in a row successes.
DPF> sw_max_fail 4                        # consecutive failures before changing rho

Solis & Wets algorithms contract rho every 4 in a row failures.
DPF> sw_rho 1.0                           # size of local search space to sample

rho is set to 1.000000.
DPF> sw_lb_rho 0.01                       # lower bound on rho

rho will never get smaller than 0.010000.
DPF> ls_search_freq 0.06                  # probability of performing local search on individual

Local search will be performed with frequency 0.060000.
DPF> set_psw1                             # set the above pseudo-Solis & Wets parameters

Creating a new Local Search object using the pseudo-Solis-Wets algorithm (pSW1) with the current settings.

DPF> unbound_model bound                  # state of unbound ligand

DPF> ga_run 100                           # do this many hybrid GA-LS runs

centering ligand on specified point: 8.287 34.468 -0.670
Furthest true ligand atom from "about" center is 7.588 Angstroms (maxrad).
Number of requested GA dockings = 100 runs
Unbound model to be used is 'same as bound' [AutoDock 4.2 default].

	BEGINNING GENETIC ALGORITHM DOCKING 1 of 100
Run: 1 Seed: 1851428744 221888649 [ Run 1 of 100 GA/GALS ]
Beginning LAMARCKIAN GENETIC ALGORITHM (LGA), with a maximum of 25000000 energy evaluations.

Final-Value: -13.860


	FINAL GENETIC ALGORITHM DOCKED STATE
	_______________________________________________


Detailed state:  trans 1.050 -7.690 -5.923 quatxyzw 0.686436 0.083147 0.720668 0.050300 center 8.287 34.468 -0.670 ntor 10 131.0264 -57.8121 48.4595 12.6042 -104.9853 -26.3495 -117.2096 170.7240 -179.9821 176.8107
State:	  1.050  -7.690  -5.923   0.687  0.083  0.722 174.234    131.03  -57.81   48.46   12.60 -104.99  -26.35 -117.21  170.72 -179.98  176.81

DOCKED: MODEL        1
DOCKED: USER    Run = 1
DOCKED: USER    DPF = D:/Protein_go_brrr/autodock/final/1A3N/heme_O2/dock.dpf
DOCKED: USER  
DOCKED: USER    Estimated Free Energy of Binding    =   -8.63 kcal/mol  [=(1)+(2)+(3)-(4)]
DOCKED: USER    Estimated Inhibition Constant, Ki   =  473.90 nM (nanomolar)  [Temperature = 298.15 K]
DOCKED: USER    
DOCKED: USER    (1) Final Intermolecular Energy     =  -11.61 kcal/mol
DOCKED: USER        vdW + Hbond + desolv Energy     =  -11.33 kcal/mol
DOCKED: USER        Electrostatic Energy            =   -0.28 kcal/mol
DOCKED: USER    (2) Final Total Internal Energy     =   -2.25 kcal/mol
DOCKED: USER    (3) Torsional Free Energy           =   +2.98 kcal/mol
DOCKED: USER    (4) Unbound System's Energy  [=(2)] =   -2.25 kcal/mol
DOCKED: USER    
DOCKED: USER    
DOCKED: USER    NEWDPF move heme_O2_opt.pdbqt
DOCKED: USER    NEWDPF about 8.287000 34.468000 -0.670000
DOCKED: USER    NEWDPF tran0 1.050091 -7.689822 -5.922782
DOCKED: USER    NEWDPF quaternion0 0.686436 0.083147 0.720668 0.050300
DOCKED: USER    NEWDPF axisangle0 0.687306 0.083252 0.721581 174.233636
DOCKED: USER    NEWDPF quat0 0.687306 0.083252 0.721581 174.233636
DOCKED: USER    NEWDPF dihe0 131.03 -57.81 48.46 12.60 -104.99 -26.35 -117.21 170.72 -179.98 176.81 
DOCKED: USER  keepresnum = 1 
DOCKED: USER  
DOCKED: REMARK  10 active torsions:
DOCKED: REMARK  status: ('A' for Active; 'I' for Inactive)
DOCKED: REMARK    1  A    between atoms: C_6  and  C_10 
DOCKED: REMARK    2  A    between atoms: C_10  and  C_11 
DOCKED: REMARK    3  A    between atoms: C_11  and  C_12 
DOCKED: REMARK    4  A    between atoms: C_12  and  O_14 
DOCKED: REMARK    5  A    between atoms: C_17  and  C_20 
DOCKED: REMARK    6  A    between atoms: C_24  and  C_27 
DOCKED: REMARK    7  A    between atoms: C_31  and  C_34 
DOCKED: REMARK    8  A    between atoms: C_34  and  C_35 
DOCKED: REMARK    9  A    between atoms: C_35  and  C_36 
DOCKED: REMARK   10  A    between atoms: C_36  and  O_38 
DOCKED: USER                              x       y       z     vdW  Elec       q    Type
DOCKED: USER                           _______ _______ _______ _____ _____    ______ ____
DOCKED: ROOT
DOCKED: ATOM      1  C   UNL d   1       0.476  -8.509  -7.793 -0.20 +0.03    +0.064 A 
DOCKED: ATOM      2  C   UNL d   1       3.542  -5.085  -6.597 -0.32 +0.01    +0.064 A 
DOCKED: ATOM      3  C   UNL d   1       2.467  -5.620  -1.944 -0.39 +0.00    +0.064 C 
DOCKED: ATOM      4  C   UNL d   1      -0.337  -9.471  -3.118 -0.41 +0.00    +0.064 A 
DOCKED: ATOM      5  C   UNL d   1       1.399  -7.536  -7.847 -0.21 +0.03    +0.066 A 
DOCKED: ATOM      6  C   UNL d   1       1.962  -7.056  -9.033 -0.19 -0.01    -0.021 A 
DOCKED: ATOM      7  C   UNL d   1       2.881  -6.094  -8.685 -0.21 -0.01    -0.025 A 
DOCKED: ATOM      8  C   UNL d   1       2.820  -5.979  -7.299 -0.23 +0.02    +0.066 A 
DOCKED: ATOM      9  C   UNL d   1       3.780  -5.363  -9.659 -0.17 +0.01    +0.051 C 
DOCKED: ATOM     10  C   UNL d   1       3.503  -4.902  -5.145 -0.33 +0.01    +0.066 A 
DOCKED: ATOM     11  C   UNL d   1       4.149  -3.851  -4.485 -0.45 -0.00    -0.021 A 
DOCKED: ATOM     12  C   UNL d   1       3.836  -3.978  -3.144 -0.44 +0.00    +0.000 A 
DOCKED: ATOM     13  C   UNL d   1       3.009  -5.132  -3.059 -0.30 +0.01    +0.070 A 
DOCKED: ATOM     14  C   UNL d   1       5.006  -2.756  -5.110 -0.40 +0.01    +0.052 C 
DOCKED: ATOM     15  C   UNL d   1       1.653  -6.805  -1.811 -0.30 +0.00    +0.066 A 
DOCKED: ATOM     16  C   UNL d   1       1.253  -7.356  -0.594 -0.35 -0.00    -0.021 A 
DOCKED: ATOM     17  C   UNL d   1       0.453  -8.456  -0.904 -0.46 +0.00    +0.000 A 
DOCKED: ATOM     18  C   UNL d   1       0.423  -8.492  -2.305 -0.38 +0.00    +0.070 A 
DOCKED: ATOM     19  C   UNL d   1       1.709  -6.823   0.741 -0.45 +0.00    +0.052 C 
DOCKED: ATOM     20  C   UNL d   1      -0.352  -9.561  -4.462 -0.32 +0.01    +0.066 A 
DOCKED: ATOM     21  C   UNL d   1      -1.102 -10.493  -5.173 -0.18 -0.00    -0.025 A 
DOCKED: ATOM     22  C   UNL d   1      -0.904 -10.217  -6.508 -0.18 -0.01    -0.021 A 
DOCKED: ATOM     23  C   UNL d   1      -0.023  -9.133  -6.561 -0.19 +0.03    +0.066 A 
DOCKED: ATOM     24  C   UNL d   1      -1.961 -11.595  -4.608 -0.27 +0.00    +0.051 C 
DOCKED: ATOM     25  N   UNL d   1       1.954  -6.913  -6.779 -0.10 -0.09    -0.248 N 
DOCKED: ATOM     26  N   UNL d   1       2.815  -5.690  -4.281 -0.20 -0.05    -0.248 N 
DOCKED: ATOM     27  N   UNL d   1       1.218  -7.529  -2.838 -0.23 -0.02    -0.248 N 
DOCKED: ATOM     28  N   UNL d   1       0.345  -8.766  -5.317 -0.20 -0.06    -0.248 N 
DOCKED: ATOM     29 FE   UNL d   1       1.571  -7.240  -4.800 -0.08 +0.00    +0.000 Fe
DOCKED: ATOM     30  O   UNL d   1       3.002  -7.663  -5.241 -0.30 +0.00    +0.000 OA
DOCKED: ATOM     31  O   UNL d   1       2.199  -8.564  -4.228 -0.14 +0.00    +0.000 OA
DOCKED: ENDROOT
DOCKED: BRANCH   6  32
DOCKED: ATOM     32  C   UNL d   1       1.748  -7.573 -10.432 -0.11 +0.02    +0.052 C 
DOCKED: BRANCH  32  33
DOCKED: ATOM     33  C   UNL d   1       2.833  -8.550 -10.875 -0.09 +0.03    +0.115 C 
DOCKED: BRANCH  33  34
DOCKED: ATOM     34  C   UNL d   1       2.901  -9.773  -9.993 -0.15 +0.03    +0.139 C 
DOCKED: ATOM     35  O   UNL d   1       2.443 -10.831 -10.393 +0.00 -0.10    -0.650 OA
DOCKED: BRANCH  34  36
DOCKED: ATOM     36  O   UNL d   1       3.433  -9.718  -8.755 +0.02 -0.12    -0.776 OA
DOCKED: ATOM     37  H   UNL d   1       2.980 -10.086  -7.987 +0.06 +0.03    +0.167 HD
DOCKED: ENDBRANCH  34  36
DOCKED: ENDBRANCH  33  34
DOCKED: ENDBRANCH  32  33
DOCKED: ENDBRANCH   6  32
DOCKED: BRANCH  22  38
DOCKED: ATOM     38  C   UNL d   1      -1.481 -10.996  -7.661 -0.14 +0.01    +0.052 C 
DOCKED: BRANCH  38  39
DOCKED: ATOM     39  C   UNL d   1      -0.679 -12.258  -7.970 -0.08 +0.02    +0.115 C 
DOCKED: BRANCH  39  40
DOCKED: ATOM     40  C   UNL d   1       0.632 -12.305  -7.227 -0.13 +0.02    +0.139 C 
DOCKED: ATOM     41  O   UNL d   1       0.846 -13.204  -6.430 +0.03 -0.05    -0.650 OA
DOCKED: BRANCH  40  42
DOCKED: ATOM     42  O   UNL d   1       1.598 -11.396  -7.463 +0.08 -0.11    -0.776 OA
DOCKED: ATOM     43  H   UNL d   1       1.943 -11.246  -8.351 +0.04 +0.03    +0.167 HD
DOCKED: ENDBRANCH  40  42
DOCKED: ENDBRANCH  39  40
DOCKED: ENDBRANCH  38  39
DOCKED: ENDBRANCH  22  38
DOCKED: BRANCH  12  44
DOCKED: ATOM     44  C   UNL d   1       4.352  -3.006  -2.103 -0.51 +0.00    +0.004 C 
DOCKED: ATOM     45  C   UNL d   1       4.859  -3.285  -0.903 -0.55 +0.00    +0.012 C 
DOCKED: ENDBRANCH  12  44
DOCKED: BRANCH  17  46
DOCKED: ATOM     46  C   UNL d   1      -0.215  -9.474  -0.018 -0.55 -0.00    +0.004 C 
DOCKED: ATOM     47  C   UNL d   1      -0.279  -9.492   1.320 -0.68 -0.00    +0.012 C 
DOCKED: ENDBRANCH  17  46
DOCKED: TORSDOF 10
DOCKED: TER
DOCKED: ENDMDL
________________________________________________________________________________


	BEGINNING GENETIC ALGORITHM DOCKING 2 of 100
Run: 2 Seed: 1167274231 368201470 [ Run 2 of 100 GA/GALS ]
Beginning LAMARCKIAN GENETIC ALGORITHM (LGA), with a maximum of 25000000 energy evaluations.

Final-Value: -20.160


	FINAL GENETIC ALGORITHM DOCKED STATE
	_______________________________________________


Detailed state:  trans 8.310 11.977 28.277 quatxyzw -0.749351 0.421621 0.490657 0.141295 center 8.287 34.468 -0.670 ntor 10 153.5356 -37.0409 42.8478 -63.5440 168.7573 137.2865 -67.8303 3.8799 -156.2650 -180.0000
State:	  8.310  11.977  28.277  -0.757  0.426  0.496 163.754    153.54  -37.04   42.85  -63.54  168.76  137.29  -67.83    3.88 -156.27 -180.00

DOCKED: MODEL        2
DOCKED: USER    Run = 2
DOCKED: USER    DPF = D:/Protein_go_brrr/autodock/final/1A3N/heme_O2/dock.dpf
DOCKED: USER  
DOCKED: USER    Estimated Free Energy of Binding    =  -15.18 kcal/mol  [=(1)+(2)+(3)-(4)]
DOCKED: USER    Estimated Inhibition Constant, Ki   =    7.48 pM (picomolar)  [Temperature = 298.15 K]
DOCKED: USER    
DOCKED: USER    (1) Final Intermolecular Energy     =  -18.16 kcal/mol
DOCKED: USER        vdW + Hbond + desolv Energy     =  -16.21 kcal/mol
DOCKED: USER        Electrostatic Energy            =   -1.95 kcal/mol
DOCKED: USER    (2) Final Total Internal Energy     =   -2.00 kcal/mol
DOCKED: USER    (3) Torsional Free Energy           =   +2.98 kcal/mol
DOCKED: USER    (4) Unbound System's Energy  [=(2)] =   -2.00 kcal/mol
DOCKED: USER    
DOCKED: USER    
DOCKED: USER    NEWDPF move heme_O2_opt.pdbqt
DOCKED: USER    NEWDPF about 8.287000 34.468000 -0.670000
DOCKED: USER    NEWDPF tran0 8.309853 11.977291 28.277449
DOCKED: USER    NEWDPF quaternion0 -0.749351 0.421621 0.490657 0.141295
DOCKED: USER    NEWDPF axisangle0 -0.756945 0.425893 0.495629 163.754431
DOCKED: USER    NEWDPF quat0 -0.756945 0.425893 0.495629 163.754431
DOCKED: USER    NEWDPF dihe0 153.54 -37.04 42.85 -63.54 168.76 137.29 -67.83 3.88 -156.27 -180.00 
DOCKED: USER  keepresnum = 1 
DOCKED: USER  
DOCKED: REMARK  10 active torsions:
DOCKED: REMARK  status: ('A' for Active; 'I' for Inactive)
DOCKED: REMARK    1  A    between atoms: C_6  and  C_10 
DOCKED: REMARK    2  A    between atoms: C_10  and  C_11 
DOCKED: REMARK    3  A    between atoms: C_11  and  C_12 
DOCKED: REMARK    4  A    between atoms: C_12  and  O_14 
DOCKED: REMARK    5  A    between atoms: C_17  and  C_20 
DOCKED: REMARK    6  A    between atoms: C_24  and  C_27 
DOCKED: REMARK    7  A    between atoms: C_31  and  C_34 
DOCKED: REMARK    8  A    between atoms: C_34  and  C_35 
DOCKED: REMARK    9  A    between atoms: C_35  and  C_36 
DOCKED: REMARK   10  A    between atoms: C_36  and  O_38 
DOCKED: USER                              x       y       z     vdW  Elec       q    Type
DOCKED: USER                           _______ _______ _______ _____ _____    ______ ____
DOCKED: ROOT
DOCKED: ATOM      1  C   UNL d   1       8.392  12.893  30.189 -0.20 +0.02    +0.064 A 
DOCKED: ATOM      2  C   UNL d   1       6.761  14.385  25.985 -0.38 +0.01    +0.064 A 
DOCKED: ATOM      3  C   UNL d   1       8.060  10.249  23.910 -0.40 +0.00    +0.064 C 
DOCKED: ATOM      4  C   UNL d   1       9.306   8.518  28.327 -0.38 +0.01    +0.064 A 
DOCKED: ATOM      5  C   UNL d   1       7.840  13.635  29.216 -0.27 +0.01    +0.066 A 
DOCKED: ATOM      6  C   UNL d   1       7.351  14.931  29.401 -0.37 -0.00    -0.021 A 
DOCKED: ATOM      7  C   UNL d   1       6.839  15.348  28.195 -0.43 -0.00    -0.025 A 
DOCKED: ATOM      8  C   UNL d   1       7.074  14.313  27.293 -0.36 +0.01    +0.066 A 
DOCKED: ATOM      9  C   UNL d   1       6.139  16.669  27.961 -0.45 +0.01    +0.051 C 
DOCKED: ATOM     10  C   UNL d   1       7.003  13.342  24.987 -0.35 +0.00    +0.066 A 
DOCKED: ATOM     11  C   UNL d   1       6.809  13.530  23.615 -0.36 -0.00    -0.021 A 
DOCKED: ATOM     12  C   UNL d   1       7.195  12.355  22.997 -0.41 +0.00    +0.000 A 
DOCKED: ATOM     13  C   UNL d   1       7.600  11.492  24.053 -0.27 +0.00    +0.070 A 
DOCKED: ATOM     14  C   UNL d   1       6.302  14.788  22.919 -0.40 +0.00    +0.052 C 
DOCKED: ATOM     15  C   UNL d   1       8.447   9.332  24.955 -0.39 +0.01    +0.066 A 
DOCKED: ATOM     16  C   UNL d   1       8.763   7.989  24.750 -0.52 -0.00    -0.021 A 
DOCKED: ATOM     17  C   UNL d   1       9.121   7.475  25.996 -0.48 +0.00    +0.000 A 
DOCKED: ATOM     18  C   UNL d   1       8.996   8.557  26.879 -0.38 +0.01    +0.070 A 
DOCKED: ATOM     19  C   UNL d   1       8.644   7.311  23.409 -0.55 +0.00    +0.052 C 
DOCKED: ATOM     20  C   UNL d   1       9.157   9.525  29.210 -0.38 +0.01    +0.066 A 
DOCKED: ATOM     21  C   UNL d   1       9.482   9.434  30.560 -0.42 -0.01    -0.025 A 
DOCKED: ATOM     22  C   UNL d   1       9.254  10.680  31.101 -0.32 -0.01    -0.021 A 
DOCKED: ATOM     23  C   UNL d   1       8.778  11.483  30.060 -0.29 +0.02    +0.066 A 
DOCKED: ATOM     24  C   UNL d   1       9.983   8.219  31.298 -0.54 +0.02    +0.051 C 
DOCKED: ATOM     25  N   UNL d   1       7.631  13.233  27.938 -0.17 -0.02    -0.248 N 
DOCKED: ATOM     26  N   UNL d   1       7.476  12.099  25.261 -0.22 -0.01    -0.248 N 
DOCKED: ATOM     27  N   UNL d   1       8.514   9.656  26.243 -0.22 -0.03    -0.248 N 
DOCKED: ATOM     28  N   UNL d   1       8.678  10.765  28.922 -0.26 -0.04    -0.248 N 
DOCKED: ATOM     29 FE   UNL d   1       8.081  11.424  27.104 -0.08 +0.00    +0.000 Fe
DOCKED: ATOM     30  O   UNL d   1       6.554  11.700  27.221 -0.43 +0.00    +0.000 OA
DOCKED: ATOM     31  O   UNL d   1       7.113  10.258  27.524 -0.72 +0.00    +0.000 OA
DOCKED: ENDROOT
DOCKED: BRANCH   6  32
DOCKED: ATOM     32  C   UNL d   1       7.241  15.700  30.693 -0.35 +0.02    +0.052 C 
DOCKED: BRANCH  32  33
DOCKED: ATOM     33  C   UNL d   1       6.134  15.176  31.602 -0.25 +0.06    +0.115 C 
DOCKED: BRANCH  33  34
DOCKED: ATOM     34  C   UNL d   1       6.675  14.488  32.830 -0.21 +0.12    +0.139 C 
DOCKED: ATOM     35  O   UNL d   1       7.832  14.680  33.169 +0.01 -0.49    -0.650 OA
DOCKED: BRANCH  34  36
DOCKED: ATOM     36  O   UNL d   1       5.916  13.638  33.552 -0.25 -1.08    -0.776 OA
DOCKED: ATOM     37  H   UNL d   1       6.303  12.931  34.081 +0.06 +0.20    +0.167 HD
DOCKED: ENDBRANCH  34  36
DOCKED: ENDBRANCH  33  34
DOCKED: ENDBRANCH  32  33
DOCKED: ENDBRANCH   6  32
DOCKED: BRANCH  22  38
DOCKED: ATOM     38  C   UNL d   1       9.424  11.052  32.551 -0.22 +0.03    +0.052 C 
DOCKED: BRANCH  38  39
DOCKED: ATOM     39  C   UNL d   1       8.260  10.572  33.415 -0.34 +0.06    +0.115 C 
DOCKED: BRANCH  39  40
DOCKED: ATOM     40  C   UNL d   1       8.396  11.001  34.855 -0.23 +0.09    +0.139 C 
DOCKED: ATOM     41  O   UNL d   1       9.156  10.400  35.597 -0.46 -0.52    -0.650 OA
DOCKED: BRANCH  40  42
DOCKED: ATOM     42  O   UNL d   1       7.731  12.073  35.328 +0.09 -0.59    -0.776 OA
DOCKED: ATOM     43  H   UNL d   1       7.564  12.847  34.777 +0.06 +0.15    +0.167 HD
DOCKED: ENDBRANCH  40  42
DOCKED: ENDBRANCH  39  40
DOCKED: ENDBRANCH  38  39
DOCKED: ENDBRANCH  22  38
DOCKED: BRANCH  12  44
DOCKED: ATOM     44  C   UNL d   1       7.135  12.179  21.494 -0.59 -0.00    +0.004 C 
DOCKED: ATOM     45  C   UNL d   1       6.783  11.090  20.811 -0.74 -0.00    +0.012 C 
DOCKED: ENDBRANCH  12  44
DOCKED: BRANCH  17  46
DOCKED: ATOM     46  C   UNL d   1       9.501   6.080  26.418 -0.66 +0.00    +0.004 C 
DOCKED: ATOM     47  C   UNL d   1       8.717   4.998  26.503 -0.74 +0.00    +0.012 C 
DOCKED: ENDBRANCH  17  46
DOCKED: TORSDOF 10
DOCKED: TER
DOCKED: ENDMDL
________________________________________________________________________________


	BEGINNING GENETIC ALGORITHM DOCKING 3 of 100
Run: 3 Seed: 1623555650 129627769 [ Run 3 of 100 GA/GALS ]
Beginning LAMARCKIAN GENETIC ALGORITHM (LGA), with a maximum of 25000000 energy evaluations.

Final-Value: -20.058


	FINAL GENETIC ALGORITHM DOCKED STATE
	_______________________________________________


Detailed state:  trans 8.501 11.557 28.600 quatxyzw 0.743399 -0.406007 -0.519026 -0.114576 center 8.287 34.468 -0.670 ntor 10 124.6612 -93.1429 30.2440 -81.1374 -175.8028 134.9037 -66.6357 37.4086 -173.5551 -172.7225
State:	  8.501  11.557  28.600   0.748 -0.409 -0.522 -166.842    124.66  -93.14   30.24  -81.14 -175.80  134.90  -66.64   37.41 -173.56 -172.72

DOCKED: MODEL        3
DOCKED: USER    Run = 3
DOCKED: USER    DPF = D:/Protein_go_brrr/autodock/final/1A3N/heme_O2/dock.dpf
DOCKED: USER  
DOCKED: USER    Estimated Free Energy of Binding    =  -15.07 kcal/mol  [=(1)+(2)+(3)-(4)]
DOCKED: USER    Estimated Inhibition Constant, Ki   =    9.03 pM (picomolar)  [Temperature = 298.15 K]
DOCKED: USER    
DOCKED: USER    (1) Final Intermolecular Energy     =  -18.05 kcal/mol
DOCKED: USER        vdW + Hbond + desolv Energy     =  -16.11 kcal/mol
DOCKED: USER        Electrostatic Energy            =   -1.94 kcal/mol
DOCKED: USER    (2) Final Total Internal Energy     =   -2.01 kcal/mol
DOCKED: USER    (3) Torsional Free Energy           =   +2.98 kcal/mol
DOCKED: USER    (4) Unbound System's Energy  [=(2)] =   -2.01 kcal/mol
DOCKED: USER    
DOCKED: USER    
DOCKED: USER    NEWDPF move heme_O2_opt.pdbqt
DOCKED: USER    NEWDPF about 8.287000 34.468000 -0.670000
DOCKED: USER    NEWDPF tran0 8.501344 11.557148 28.599977
DOCKED: USER    NEWDPF quaternion0 0.743399 -0.406007 -0.519026 -0.114576
DOCKED: USER    NEWDPF axisangle0 0.748327 -0.408698 -0.522467 -166.841691
DOCKED: USER    NEWDPF quat0 0.748327 -0.408698 -0.522467 -166.841691
DOCKED: USER    NEWDPF dihe0 124.66 -93.14 30.24 -81.14 -175.80 134.90 -66.64 37.41 -173.56 -172.72 
DOCKED: USER  keepresnum = 1 
DOCKED: USER  
DOCKED: REMARK  10 active torsions:
DOCKED: REMARK  status: ('A' for Active; 'I' for Inactive)
DOCKED: REMARK    1  A    between atoms: C_6  and  C_10 
DOCKED: REMARK    2  A    between atoms: C_10  and  C_11 
DOCKED: REMARK    3  A    between atoms: C_11  and  C_12 
DOCKED: REMARK    4  A    between atoms: C_12  and  O_14 
DOCKED: REMARK    5  A    between atoms: C_17  and  C_20 
DOCKED: REMARK    6  A    between atoms: C_24  and  C_27 
DOCKED: REMARK    7  A    between atoms: C_31  and  C_34 
DOCKED: REMARK    8  A    between atoms: C_34  and  C_35 
DOCKED: REMARK    9  A    between atoms: C_35  and  C_36 
DOCKED: REMARK   10  A    between atoms: C_36  and  O_38 
DOCKED: USER                              x       y       z     vdW  Elec       q    Type
DOCKED: USER                           _______ _______ _______ _____ _____    ______ ____
DOCKED: ROOT
DOCKED: ATOM      1  C   UNL d   1       8.655  12.320  30.573 -0.25 +0.02    +0.064 A 
DOCKED: ATOM      2  C   UNL d   1       6.926  14.158  26.550 -0.37 +0.01    +0.064 A 
DOCKED: ATOM      3  C   UNL d   1       8.093  10.178  24.122 -0.40 +0.00    +0.064 C 
DOCKED: ATOM      4  C   UNL d   1       9.440   8.090  28.352 -0.35 +0.01    +0.064 A 
DOCKED: ATOM      5  C   UNL d   1       8.088  13.144  29.677 -0.22 +0.01    +0.066 A 
DOCKED: ATOM      6  C   UNL d   1       7.627  14.429  29.978 -0.34 -0.01    -0.021 A 
DOCKED: ATOM      7  C   UNL d   1       7.086  14.945  28.824 -0.40 -0.00    -0.025 A 
DOCKED: ATOM      8  C   UNL d   1       7.277  13.980  27.838 -0.34 +0.01    +0.066 A 
DOCKED: ATOM      9  C   UNL d   1       6.402  16.290  28.715 -0.46 +0.01    +0.051 C 
DOCKED: ATOM     10  C   UNL d   1       7.121  13.192  25.467 -0.35 +0.00    +0.066 A 
DOCKED: ATOM     11  C   UNL d   1       6.889  13.490  24.120 -0.36 -0.00    -0.021 A 
DOCKED: ATOM     12  C   UNL d   1       7.237  12.361  23.402 -0.39 +0.00    +0.000 A 
DOCKED: ATOM     13  C   UNL d   1       7.659  11.413  24.375 -0.28 +0.00    +0.070 A 
DOCKED: ATOM     14  C   UNL d   1       6.384  14.805  23.539 -0.40 +0.00    +0.052 C 
DOCKED: ATOM     15  C   UNL d   1       8.495   9.177  25.080 -0.40 +0.01    +0.066 A 
DOCKED: ATOM     16  C   UNL d   1       8.782   7.850  24.763 -0.52 -0.00    -0.021 A 
DOCKED: ATOM     17  C   UNL d   1       9.168   7.234  25.954 -0.49 +0.00    +0.000 A 
DOCKED: ATOM     18  C   UNL d   1       9.088   8.247  26.921 -0.38 +0.01    +0.070 A 
DOCKED: ATOM     19  C   UNL d   1       8.612   7.279  23.377 -0.54 +0.00    +0.052 C 
DOCKED: ATOM     20  C   UNL d   1       9.333   9.028  29.313 -0.38 +0.01    +0.066 A 
DOCKED: ATOM     21  C   UNL d   1       9.697   8.827  30.642 -0.42 -0.01    -0.025 A 
DOCKED: ATOM     22  C   UNL d   1       9.506  10.030  31.284 -0.35 -0.01    -0.021 A 
DOCKED: ATOM     23  C   UNL d   1       9.014  10.919  30.324 -0.30 +0.02    +0.066 A 
DOCKED: ATOM     24  C   UNL d   1      10.199   7.552  31.268 -0.37 +0.01    +0.051 C 
DOCKED: ATOM     25  N   UNL d   1       7.835  12.845  28.380 -0.18 -0.03    -0.248 N 
DOCKED: ATOM     26  N   UNL d   1       7.580  11.925  25.629 -0.22 -0.01    -0.248 N 
DOCKED: ATOM     27  N   UNL d   1       8.606   9.398  26.387 -0.22 -0.03    -0.248 N 
DOCKED: ATOM     28  N   UNL d   1       8.868  10.293  29.138 -0.27 -0.05    -0.248 N 
DOCKED: ATOM     29 FE   UNL d   1       8.229  11.100  27.395 -0.08 +0.00    +0.000 Fe
DOCKED: ATOM     30  O   UNL d   1       6.710  11.388  27.580 -0.40 +0.00    +0.000 OA
DOCKED: ATOM     31  O   UNL d   1       7.254   9.920  27.753 -0.81 +0.00    +0.000 OA
DOCKED: ENDROOT
DOCKED: BRANCH   6  32
DOCKED: ATOM     32  C   UNL d   1       7.568  15.096  31.327 -0.32 +0.02    +0.052 C 
DOCKED: BRANCH  32  33
DOCKED: ATOM     33  C   UNL d   1       6.256  14.837  32.060 -0.19 +0.08    +0.115 C 
DOCKED: BRANCH  33  34
DOCKED: ATOM     34  C   UNL d   1       6.437  13.956  33.271 -0.13 +0.15    +0.139 C 
DOCKED: ATOM     35  O   UNL d   1       7.471  14.023  33.917 +0.00 -0.65    -0.650 OA
DOCKED: BRANCH  34  36
DOCKED: ATOM     36  O   UNL d   1       5.491  13.069  33.644 -0.48 -0.97    -0.776 OA
DOCKED: ATOM     37  H   UNL d   1       5.687  12.132  33.762 +0.04 +0.13    +0.167 HD
DOCKED: ENDBRANCH  34  36
DOCKED: ENDBRANCH  33  34
DOCKED: ENDBRANCH  32  33
DOCKED: ENDBRANCH   6  32
DOCKED: BRANCH  22  38
DOCKED: ATOM     38  C   UNL d   1       9.725  10.286  32.753 -0.18 +0.03    +0.052 C 
DOCKED: BRANCH  38  39
DOCKED: ATOM     39  C   UNL d   1       8.673   9.605  33.626 -0.38 +0.06    +0.115 C 
DOCKED: BRANCH  39  40
DOCKED: ATOM     40  C   UNL d   1       8.298  10.434  34.829 -0.26 +0.09    +0.139 C 
DOCKED: ATOM     41  O   UNL d   1       9.017  10.431  35.815 -0.48 -0.51    -0.650 OA
DOCKED: BRANCH  40  42
DOCKED: ATOM     42  O   UNL d   1       7.206  11.223  34.817 +0.06 -0.49    -0.776 OA
DOCKED: ATOM     43  H   UNL d   1       7.251  12.143  34.530 +0.08 +0.13    +0.167 HD
DOCKED: ENDBRANCH  40  42
DOCKED: ENDBRANCH  39  40
DOCKED: ENDBRANCH  38  39
DOCKED: ENDBRANCH  22  38
DOCKED: BRANCH  12  44
DOCKED: ATOM     44  C   UNL d   1       7.130  12.303  21.892 -0.55 +0.00    +0.004 C 
DOCKED: ATOM     45  C   UNL d   1       6.964  11.227  21.124 -0.67 -0.00    +0.012 C 
DOCKED: ENDBRANCH  12  44
DOCKED: BRANCH  17  46
DOCKED: ATOM     46  C   UNL d   1       9.537   5.806  26.254 -0.67 +0.00    +0.004 C 
DOCKED: ATOM     47  C   UNL d   1       8.727   4.795  26.595 -0.73 +0.00    +0.012 C 
DOCKED: ENDBRANCH  17  46
DOCKED: TORSDOF 10
DOCKED: TER
DOCKED: ENDMDL
________________________________________________________________________________


	BEGINNING GENETIC ALGORITHM DOCKING 4 of 100
Run: 4 Seed: 2039646208 803330512 [ Run 4 of 100 GA/GALS ]
Beginning LAMARCKIAN GENETIC ALGORITHM (LGA), with a maximum of 25000000 energy evaluations.

Final-Value: -17.967


	FINAL GENETIC ALGORITHM DOCKED STATE
	_______________________________________________


Detailed state:  trans 2.990 -6.288 -4.658 quatxyzw 0.141971 0.515281 -0.260398 0.804066 center 8.287 34.468 -0.670 ntor 10 34.3778 -179.7452 120.5094 -69.2611 153.0766 -37.4526 48.1819 105.2685 -124.1613 -180.0000
State:	  2.990  -6.288  -4.658   0.239  0.867 -0.438 72.960     34.38 -179.75  120.51  -69.26  153.08  -37.45   48.18  105.27 -124.16 -180.00

DOCKED: MODEL        4
DOCKED: USER    Run = 4
DOCKED: USER    DPF = D:/Protein_go_brrr/autodock/final/1A3N/heme_O2/dock.dpf
DOCKED: USER  
DOCKED: USER    Estimated Free Energy of Binding    =  -13.38 kcal/mol  [=(1)+(2)+(3)-(4)]
DOCKED: USER    Estimated Inhibition Constant, Ki   =  156.66 pM (picomolar)  [Temperature = 298.15 K]
DOCKED: USER    
DOCKED: USER    (1) Final Intermolecular Energy     =  -16.36 kcal/mol
DOCKED: USER        vdW + Hbond + desolv Energy     =  -14.67 kcal/mol
DOCKED: USER        Electrostatic Energy            =   -1.69 kcal/mol
DOCKED: USER    (2) Final Total Internal Energy     =   -1.61 kcal/mol
DOCKED: USER    (3) Torsional Free Energy           =   +2.98 kcal/mol
DOCKED: USER    (4) Unbound System's Energy  [=(2)] =   -1.61 kcal/mol
DOCKED: USER    
DOCKED: USER    
DOCKED: USER    NEWDPF move heme_O2_opt.pdbqt
DOCKED: USER    NEWDPF about 8.287000 34.468000 -0.670000
DOCKED: USER    NEWDPF tran0 2.990044 -6.288497 -4.658261
DOCKED: USER    NEWDPF quaternion0 0.141971 0.515281 -0.260398 0.804066
DOCKED: USER    NEWDPF axisangle0 0.238792 0.866689 -0.437982 72.959626
DOCKED: USER    NEWDPF quat0 0.238792 0.866689 -0.437982 72.959626
DOCKED: USER    NEWDPF dihe0 34.38 -179.75 120.51 -69.26 153.08 -37.45 48.18 105.27 -124.16 -180.00 
DOCKED: USER  keepresnum = 1 
DOCKED: USER  
DOCKED: REMARK  10 active torsions:
DOCKED: REMARK  status: ('A' for Active; 'I' for Inactive)
DOCKED: REMARK    1  A    between atoms: C_6  and  C_10 
DOCKED: REMARK    2  A    between atoms: C_10  and  C_11 
DOCKED: REMARK    3  A    between atoms: C_11  and  C_12 
DOCKED: REMARK    4  A    between atoms: C_12  and  O_14 
DOCKED: REMARK    5  A    between atoms: C_17  and  C_20 
DOCKED: REMARK    6  A    between atoms: C_24  and  C_27 
DOCKED: REMARK    7  A    between atoms: C_31  and  C_34 
DOCKED: REMARK    8  A    between atoms: C_34  and  C_35 
DOCKED: REMARK    9  A    between atoms: C_35  and  C_36 
DOCKED: REMARK   10  A    between atoms: C_36  and  O_38 
DOCKED: USER                              x       y       z     vdW  Elec       q    Type
DOCKED: USER                           _______ _______ _______ _____ _____    ______ ____
DOCKED: ROOT
DOCKED: ATOM      1  C   UNL d   1       2.925  -6.817  -6.711 -0.22 +0.01    +0.064 A 
DOCKED: ATOM      2  C   UNL d   1       0.714  -8.549  -2.881 -0.37 +0.01    +0.064 A 
DOCKED: ATOM      3  C   UNL d   1       2.979  -5.406  -0.038 -0.38 +0.00    +0.064 C 
DOCKED: ATOM      4  C   UNL d   1       4.899  -3.301  -4.032 -0.43 +0.01    +0.064 A 
DOCKED: ATOM      5  C   UNL d   1       2.137  -7.543  -5.902 -0.31 +0.01    +0.066 A 
DOCKED: ATOM      6  C   UNL d   1       1.322  -8.592  -6.337 -0.29 -0.01    -0.021 A 
DOCKED: ATOM      7  C   UNL d   1       0.649  -9.066  -5.236 -0.32 -0.01    -0.025 A 
DOCKED: ATOM      8  C   UNL d   1       1.107  -8.325  -4.150 -0.33 +0.01    +0.066 A 
DOCKED: ATOM      9  C   UNL d   1      -0.399 -10.157  -5.265 -0.29 +0.01    +0.051 C 
DOCKED: ATOM     10  C   UNL d   1       1.176  -7.820  -1.699 -0.33 +0.00    +0.066 A 
DOCKED: ATOM     11  C   UNL d   1       0.861  -8.200  -0.390 -0.45 -0.00    -0.021 A 
DOCKED: ATOM     12  C   UNL d   1       1.520  -7.316   0.445 -0.42 +0.00    +0.000 A 
DOCKED: ATOM     13  C   UNL d   1       2.205  -6.420  -0.422 -0.38 +0.00    +0.070 A 
DOCKED: ATOM     14  C   UNL d   1      -0.010  -9.372   0.047 -0.53 -0.00    +0.052 C 
DOCKED: ATOM     15  C   UNL d   1       3.661  -4.456  -0.884 -0.36 +0.00    +0.066 A 
DOCKED: ATOM     16  C   UNL d   1       4.322  -3.318  -0.422 -0.47 -0.00    -0.021 A 
DOCKED: ATOM     17  C   UNL d   1       4.877  -2.701  -1.543 -0.50 +0.00    +0.000 A 
DOCKED: ATOM     18  C   UNL d   1       4.509  -3.521  -2.619 -0.40 +0.01    +0.070 A 
DOCKED: ATOM     19  C   UNL d   1       4.318  -2.896   1.026 -0.46 +0.00    +0.052 C 
DOCKED: ATOM     20  C   UNL d   1       4.528  -4.043  -5.094 -0.42 +0.01    +0.066 A 
DOCKED: ATOM     21  C   UNL d   1       4.942  -3.797  -6.400 -0.46 -0.00    -0.025 A 
DOCKED: ATOM     22  C   UNL d   1       4.411  -4.805  -7.173 -0.33 -0.00    -0.021 A 
DOCKED: ATOM     23  C   UNL d   1       3.675  -5.622  -6.310 -0.24 +0.01    +0.066 A 
DOCKED: ATOM     24  C   UNL d   1       5.797  -2.655  -6.886 -0.07 +0.00    +0.051 C 
DOCKED: ATOM     25  N   UNL d   1       1.975  -7.344  -4.571 -0.21 -0.03    -0.248 N 
DOCKED: ATOM     26  N   UNL d   1       1.987  -6.732  -1.725 -0.19 +0.00    -0.248 N 
DOCKED: ATOM     27  N   UNL d   1       3.709  -4.539  -2.210 -0.23 -0.01    -0.248 N 
DOCKED: ATOM     28  N   UNL d   1       3.712  -5.129  -5.054 -0.26 -0.04    -0.248 N 
DOCKED: ATOM     29 FE   UNL d   1       2.857  -5.922  -3.400 -0.09 +0.00    +0.000 Fe
DOCKED: ATOM     30  O   UNL d   1       1.321  -5.732  -3.571 -0.27 +0.00    +0.000 OA
DOCKED: ATOM     31  O   UNL d   1       2.271  -4.475  -3.586 -0.93 +0.00    +0.000 OA
DOCKED: ENDROOT
DOCKED: BRANCH   6  32
DOCKED: ATOM     32  C   UNL d   1       1.078  -9.045  -7.754 -0.23 +0.02    +0.052 C 
DOCKED: BRANCH  32  33
DOCKED: ATOM     33  C   UNL d   1       0.940  -7.882  -8.732 -0.20 +0.07    +0.115 C 
DOCKED: BRANCH  33  34
DOCKED: ATOM     34  C   UNL d   1      -0.234  -8.050  -9.664 -0.06 +0.14    +0.139 C 
DOCKED: ATOM     35  O   UNL d   1      -0.963  -9.022  -9.546 -0.01 -0.50    -0.650 OA
DOCKED: BRANCH  34  36
DOCKED: ATOM     36  O   UNL d   1      -0.483  -7.163 -10.649 -0.32 -1.06    -0.776 OA
DOCKED: ATOM     37  H   UNL d   1       0.226  -6.715 -11.125 +0.03 +0.15    +0.167 HD
DOCKED: ENDBRANCH  34  36
DOCKED: ENDBRANCH  33  34
DOCKED: ENDBRANCH  32  33
DOCKED: ENDBRANCH   6  32
DOCKED: BRANCH  22  38
DOCKED: ATOM     38  C   UNL d   1       4.553  -4.933  -8.668 -0.21 +0.01    +0.052 C 
DOCKED: BRANCH  38  39
DOCKED: ATOM     39  C   UNL d   1       3.616  -3.994  -9.425 -0.23 +0.02    +0.115 C 
DOCKED: BRANCH  39  40
DOCKED: ATOM     40  C   UNL d   1       2.188  -4.480  -9.423 -0.24 +0.05    +0.139 C 
DOCKED: ATOM     41  O   UNL d   1       1.355  -3.912  -8.736 -0.08 -0.33    -0.650 OA
DOCKED: BRANCH  40  42
DOCKED: ATOM     42  O   UNL d   1       1.801  -5.503 -10.210 +0.05 -0.40    -0.776 OA
DOCKED: ATOM     43  H   UNL d   1       0.882  -5.791 -10.246 +0.04 +0.15    +0.167 HD
DOCKED: ENDBRANCH  40  42
DOCKED: ENDBRANCH  39  40
DOCKED: ENDBRANCH  38  39
DOCKED: ENDBRANCH  22  38
DOCKED: BRANCH  12  44
DOCKED: ATOM     44  C   UNL d   1       1.426  -7.414   1.954 -0.40 +0.00    +0.004 C 
DOCKED: ATOM     45  C   UNL d   1       0.345  -7.264   2.718 -0.57 +0.00    +0.012 C 
DOCKED: ENDBRANCH  12  44
DOCKED: BRANCH  17  46
DOCKED: ATOM     46  C   UNL d   1       5.648  -1.416  -1.684 -0.63 +0.00    +0.004 C 
DOCKED: ATOM     47  C   UNL d   1       5.179  -0.162  -1.662 -0.70 -0.00    +0.012 C 
DOCKED: ENDBRANCH  17  46
DOCKED: TORSDOF 10
DOCKED: TER
DOCKED: ENDMDL
________________________________________________________________________________


	BEGINNING GENETIC ALGORITHM DOCKING 5 of 100
Run: 5 Seed: 845605812 998654186 [ Run 5 of 100 GA/GALS ]
Beginning LAMARCKIAN GENETIC ALGORITHM (LGA), with a maximum of 25000000 energy evaluations.

Final-Value: -19.659


	FINAL GENETIC ALGORITHM DOCKED STATE
	_______________________________________________


Detailed state:  trans 8.248 12.247 28.623 quatxyzw -0.764604 0.398842 0.488909 0.131429 center 8.287 34.468 -0.670 ntor 10 18.4084 130.2355 35.2713 -60.4304 37.7884 -21.7390 12.7183 67.9429 -38.3909 163.5302
State:	  8.248  12.247  28.623  -0.771  0.402  0.493 164.896     18.41  130.24   35.27  -60.43   37.79  -21.74   12.72   67.94  -38.39  163.53

DOCKED: MODEL        5
DOCKED: USER    Run = 5
DOCKED: USER    DPF = D:/Protein_go_brrr/autodock/final/1A3N/heme_O2/dock.dpf
DOCKED: USER  
DOCKED: USER    Estimated Free Energy of Binding    =  -14.56 kcal/mol  [=(1)+(2)+(3)-(4)]
DOCKED: USER    Estimated Inhibition Constant, Ki   =   21.19 pM (picomolar)  [Temperature = 298.15 K]
DOCKED: USER    
DOCKED: USER    (1) Final Intermolecular Energy     =  -17.54 kcal/mol
DOCKED: USER        vdW + Hbond + desolv Energy     =  -15.52 kcal/mol
DOCKED: USER        Electrostatic Energy            =   -2.02 kcal/mol
DOCKED: USER    (2) Final Total Internal Energy     =   -2.11 kcal/mol
DOCKED: USER    (3) Torsional Free Energy           =   +2.98 kcal/mol
DOCKED: USER    (4) Unbound System's Energy  [=(2)] =   -2.11 kcal/mol
DOCKED: USER    
DOCKED: USER    
DOCKED: USER    NEWDPF move heme_O2_opt.pdbqt
DOCKED: USER    NEWDPF about 8.287000 34.468000 -0.670000
DOCKED: USER    NEWDPF tran0 8.248004 12.246714 28.622644
DOCKED: USER    NEWDPF quaternion0 -0.764604 0.398842 0.488909 0.131429
DOCKED: USER    NEWDPF axisangle0 -0.771295 0.402332 0.493187 164.895640
DOCKED: USER    NEWDPF quat0 -0.771295 0.402332 0.493187 164.895640
DOCKED: USER    NEWDPF dihe0 18.41 130.24 35.27 -60.43 37.79 -21.74 12.72 67.94 -38.39 163.53 
DOCKED: USER  keepresnum = 1 
DOCKED: USER  
DOCKED: REMARK  10 active torsions:
DOCKED: REMARK  status: ('A' for Active; 'I' for Inactive)
DOCKED: REMARK    1  A    between atoms: C_6  and  C_10 
DOCKED: REMARK    2  A    between atoms: C_10  and  C_11 
DOCKED: REMARK    3  A    between atoms: C_11  and  C_12 
DOCKED: REMARK    4  A    between atoms: C_12  and  O_14 
DOCKED: REMARK    5  A    between atoms: C_17  and  C_20 
DOCKED: REMARK    6  A    between atoms: C_24  and  C_27 
DOCKED: REMARK    7  A    between atoms: C_31  and  C_34 
DOCKED: REMARK    8  A    between atoms: C_34  and  C_35 
DOCKED: REMARK    9  A    between atoms: C_35  and  C_36 
DOCKED: REMARK   10  A    between atoms: C_36  and  O_38 
DOCKED: USER                              x       y       z     vdW  Elec       q    Type
DOCKED: USER                           _______ _______ _______ _____ _____    ______ ____
DOCKED: ROOT
DOCKED: ATOM      1  C   UNL d   1       8.259  13.087  30.570 -0.21 +0.02    +0.064 A 
DOCKED: ATOM      2  C   UNL d   1       6.651  14.685  26.397 -0.39 +0.01    +0.064 A 
DOCKED: ATOM      3  C   UNL d   1       8.146  10.688  24.186 -0.39 +0.00    +0.064 C 
DOCKED: ATOM      4  C   UNL d   1       9.375   8.828  28.556 -0.39 +0.01    +0.064 A 
DOCKED: ATOM      5  C   UNL d   1       7.698  13.847  29.616 -0.24 +0.02    +0.066 A 
DOCKED: ATOM      6  C   UNL d   1       7.156  15.115  29.843 -0.37 -0.01    -0.021 A 
DOCKED: ATOM      7  C   UNL d   1       6.652  15.561  28.644 -0.44 -0.00    -0.025 A 
DOCKED: ATOM      8  C   UNL d   1       6.942  14.573  27.707 -0.38 +0.01    +0.066 A 
DOCKED: ATOM      9  C   UNL d   1       5.906  16.863  28.449 -0.42 +0.00    +0.051 C 
DOCKED: ATOM     10  C   UNL d   1       6.952  13.693  25.363 -0.36 +0.00    +0.066 A 
DOCKED: ATOM     11  C   UNL d   1       6.776  13.929  23.996 -0.37 -0.00    -0.021 A 
DOCKED: ATOM     12  C   UNL d   1       7.218  12.795  23.340 -0.38 +0.00    +0.000 A 
DOCKED: ATOM     13  C   UNL d   1       7.637  11.906  24.369 -0.34 +0.00    +0.070 A 
DOCKED: ATOM     14  C   UNL d   1       6.235  15.194  23.340 -0.45 +0.00    +0.052 C 
DOCKED: ATOM     15  C   UNL d   1       8.548   9.745  25.201 -0.38 +0.01    +0.066 A 
DOCKED: ATOM     16  C   UNL d   1       8.919   8.424  24.950 -0.49 -0.00    -0.021 A 
DOCKED: ATOM     17  C   UNL d   1       9.273   7.873  26.182 -0.45 +0.00    +0.000 A 
DOCKED: ATOM     18  C   UNL d   1       9.091   8.914  27.104 -0.38 +0.01    +0.070 A 
DOCKED: ATOM     19  C   UNL d   1       8.851   7.796  23.581 -0.65 +0.00    +0.052 C 
DOCKED: ATOM     20  C   UNL d   1       9.170   9.792  29.474 -0.40 +0.02    +0.066 A 
DOCKED: ATOM     21  C   UNL d   1       9.474   9.659  30.826 -0.41 -0.01    -0.025 A 
DOCKED: ATOM     22  C   UNL d   1       9.188  10.872  31.411 -0.31 -0.01    -0.021 A 
DOCKED: ATOM     23  C   UNL d   1       8.701  11.699  30.393 -0.29 +0.02    +0.066 A 
DOCKED: ATOM     24  C   UNL d   1      10.006   8.435  31.525 -0.53 +0.02    +0.051 C 
DOCKED: ATOM     25  N   UNL d   1       7.528  13.489  28.319 -0.21 -0.03    -0.248 N 
DOCKED: ATOM     26  N   UNL d   1       7.466  12.459  25.597 -0.23 -0.01    -0.248 N 
DOCKED: ATOM     27  N   UNL d   1       8.579  10.018  26.502 -0.22 -0.02    -0.248 N 
DOCKED: ATOM     28  N   UNL d   1       8.650  11.024  29.226 -0.25 -0.05    -0.248 N 
DOCKED: ATOM     29 FE   UNL d   1       8.063  11.733  27.424 -0.08 +0.00    +0.000 Fe
DOCKED: ATOM     30  O   UNL d   1       6.524  11.946  27.520 -0.29 +0.00    +0.000 OA
DOCKED: ATOM     31  O   UNL d   1       7.132  10.516  27.777 -0.63 +0.00    +0.000 OA
DOCKED: ENDROOT
DOCKED: BRANCH   6  32
DOCKED: ATOM     32  C   UNL d   1       6.993  15.827  31.161 -0.34 +0.02    +0.052 C 
DOCKED: BRANCH  32  33
DOCKED: ATOM     33  C   UNL d   1       8.241  15.747  32.035 -0.21 +0.05    +0.115 C 
DOCKED: BRANCH  33  34
DOCKED: ATOM     34  C   UNL d   1       7.991  16.236  33.441 -0.18 +0.10    +0.139 C 
DOCKED: ATOM     35  O   UNL d   1       8.535  17.256  33.831 +0.00 -0.35    -0.650 OA
DOCKED: BRANCH  34  36
DOCKED: ATOM     36  O   UNL d   1       7.197  15.553  34.292 -0.15 -1.19    -0.776 OA
DOCKED: ATOM     37  H   UNL d   1       6.976  14.625  34.151 +0.04 +0.26    +0.167 HD
DOCKED: ENDBRANCH  34  36
DOCKED: ENDBRANCH  33  34
DOCKED: ENDBRANCH  32  33
DOCKED: ENDBRANCH   6  32
DOCKED: BRANCH  22  38
DOCKED: ATOM     38  C   UNL d   1       9.316  11.192  32.878 -0.29 +0.03    +0.052 C 
DOCKED: BRANCH  38  39
DOCKED: ATOM     39  C   UNL d   1       8.002  11.003  33.632 -0.31 +0.06    +0.115 C 
DOCKED: BRANCH  39  40
DOCKED: ATOM     40  C   UNL d   1       7.439  12.305  34.145 -0.22 +0.10    +0.139 C 
DOCKED: ATOM     41  O   UNL d   1       6.315  12.650  33.817 -0.19 -0.61    -0.650 OA
DOCKED: BRANCH  40  42
DOCKED: ATOM     42  O   UNL d   1       8.136  13.074  35.003 +0.09 -0.66    -0.776 OA
DOCKED: ATOM     43  H   UNL d   1       8.228  14.025  34.869 +0.05 +0.16    +0.167 HD
DOCKED: ENDBRANCH  40  42
DOCKED: ENDBRANCH  39  40
DOCKED: ENDBRANCH  38  39
DOCKED: ENDBRANCH  22  38
DOCKED: BRANCH  12  44
DOCKED: ATOM     44  C   UNL d   1       7.193  12.677  21.831 -0.54 +0.00    +0.004 C 
DOCKED: ATOM     45  C   UNL d   1       7.032  11.576  21.098 -0.66 -0.00    +0.012 C 
DOCKED: ENDBRANCH  12  44
DOCKED: BRANCH  17  46
DOCKED: ATOM     46  C   UNL d   1       9.698   6.478  26.555 -0.57 +0.00    +0.004 C 
DOCKED: ATOM     47  C   UNL d   1       8.970   5.355  26.528 -0.74 +0.00    +0.012 C 
DOCKED: ENDBRANCH  17  46
DOCKED: TORSDOF 10
DOCKED: TER
DOCKED: ENDMDL
________________________________________________________________________________


	BEGINNING GENETIC ALGORITHM DOCKING 6 of 100
Run: 6 Seed: 291981852 157768825 [ Run 6 of 100 GA/GALS ]
Beginning LAMARCKIAN GENETIC ALGORITHM (LGA), with a maximum of 25000000 energy evaluations.

Final-Value: -19.687


	FINAL GENETIC ALGORITHM DOCKED STATE
	_______________________________________________


Detailed state:  trans 8.283 12.048 28.523 quatxyzw -0.756752 0.402206 0.501121 0.120144 center 8.287 34.468 -0.670 ntor 10 34.0943 35.6920 43.0755 -77.7063 -178.2936 150.8258 -10.3830 -26.0570 -122.2371 138.7799
State:	  8.283  12.048  28.523  -0.762  0.405  0.505 166.199     34.09   35.69   43.08  -77.71 -178.29  150.83  -10.38  -26.06 -122.24  138.78

DOCKED: MODEL        6
DOCKED: USER    Run = 6
DOCKED: USER    DPF = D:/Protein_go_brrr/autodock/final/1A3N/heme_O2/dock.dpf
DOCKED: USER  
DOCKED: USER    Estimated Free Energy of Binding    =  -15.10 kcal/mol  [=(1)+(2)+(3)-(4)]
DOCKED: USER    Estimated Inhibition Constant, Ki   =    8.53 pM (picomolar)  [Temperature = 298.15 K]
DOCKED: USER    
DOCKED: USER    (1) Final Intermolecular Energy     =  -18.08 kcal/mol
DOCKED: USER        vdW + Hbond + desolv Energy     =  -15.80 kcal/mol
DOCKED: USER        Electrostatic Energy            =   -2.28 kcal/mol
DOCKED: USER    (2) Final Total Internal Energy     =   -1.60 kcal/mol
DOCKED: USER    (3) Torsional Free Energy           =   +2.98 kcal/mol
DOCKED: USER    (4) Unbound System's Energy  [=(2)] =   -1.60 kcal/mol
DOCKED: USER    
DOCKED: USER    
DOCKED: USER    NEWDPF move heme_O2_opt.pdbqt
DOCKED: USER    NEWDPF about 8.287000 34.468000 -0.670000
DOCKED: USER    NEWDPF tran0 8.283206 12.048107 28.523444
DOCKED: USER    NEWDPF quaternion0 -0.756752 0.402206 0.501121 0.120144
DOCKED: USER    NEWDPF axisangle0 -0.762273 0.405141 0.504778 166.199228
DOCKED: USER    NEWDPF quat0 -0.762273 0.405141 0.504778 166.199228
DOCKED: USER    NEWDPF dihe0 34.09 35.69 43.08 -77.71 -178.29 150.83 -10.38 -26.06 -122.24 138.78 
DOCKED: USER  keepresnum = 1 
DOCKED: USER  
DOCKED: REMARK  10 active torsions:
DOCKED: REMARK  status: ('A' for Active; 'I' for Inactive)
DOCKED: REMARK    1  A    between atoms: C_6  and  C_10 
DOCKED: REMARK    2  A    between atoms: C_10  and  C_11 
DOCKED: REMARK    3  A    between atoms: C_11  and  C_12 
DOCKED: REMARK    4  A    between atoms: C_12  and  O_14 
DOCKED: REMARK    5  A    between atoms: C_17  and  C_20 
DOCKED: REMARK    6  A    between atoms: C_24  and  C_27 
DOCKED: REMARK    7  A    between atoms: C_31  and  C_34 
DOCKED: REMARK    8  A    between atoms: C_34  and  C_35 
DOCKED: REMARK    9  A    between atoms: C_35  and  C_36 
DOCKED: REMARK   10  A    between atoms: C_36  and  O_38 
DOCKED: USER                              x       y       z     vdW  Elec       q    Type
DOCKED: USER                           _______ _______ _______ _____ _____    ______ ____
DOCKED: ROOT
DOCKED: ATOM      1  C   UNL d   1       8.348  12.845  30.488 -0.15 +0.02    +0.064 A 
DOCKED: ATOM      2  C   UNL d   1       6.714  14.574  26.377 -0.39 +0.01    +0.064 A 
DOCKED: ATOM      3  C   UNL d   1       8.069  10.590  24.057 -0.40 +0.00    +0.064 C 
DOCKED: ATOM      4  C   UNL d   1       9.320   8.604  28.364 -0.39 +0.01    +0.064 A 
DOCKED: ATOM      5  C   UNL d   1       7.791  13.639  29.560 -0.23 +0.01    +0.066 A 
DOCKED: ATOM      6  C   UNL d   1       7.286  14.916  29.823 -0.36 -0.01    -0.021 A 
DOCKED: ATOM      7  C   UNL d   1       6.773  15.400  28.642 -0.43 -0.00    -0.025 A 
DOCKED: ATOM      8  C   UNL d   1       7.023  14.426  27.680 -0.37 +0.01    +0.066 A 
DOCKED: ATOM      9  C   UNL d   1       6.058  16.725  28.488 -0.47 +0.01    +0.051 C 
DOCKED: ATOM     10  C   UNL d   1       6.972  13.598  25.318 -0.36 +0.00    +0.066 A 
DOCKED: ATOM     11  C   UNL d   1       6.781  13.868  23.959 -0.37 -0.00    -0.021 A 
DOCKED: ATOM     12  C   UNL d   1       7.183  12.738  23.272 -0.38 +0.00    +0.000 A 
DOCKED: ATOM     13  C   UNL d   1       7.594  11.816  24.274 -0.34 +0.00    +0.070 A 
DOCKED: ATOM     14  C   UNL d   1       6.262  15.161  23.339 -0.44 +0.00    +0.052 C 
DOCKED: ATOM     15  C   UNL d   1       8.463   9.615  25.045 -0.38 +0.01    +0.066 A 
DOCKED: ATOM     16  C   UNL d   1       8.796   8.291  24.759 -0.51 -0.00    -0.021 A 
DOCKED: ATOM     17  C   UNL d   1       9.155   7.705  25.973 -0.46 +0.00    +0.000 A 
DOCKED: ATOM     18  C   UNL d   1       9.015   8.729  26.920 -0.38 +0.01    +0.070 A 
DOCKED: ATOM     19  C   UNL d   1       8.689   7.695  23.378 -0.64 +0.00    +0.052 C 
DOCKED: ATOM     20  C   UNL d   1       9.155   9.553  29.307 -0.38 +0.01    +0.066 A 
DOCKED: ATOM     21  C   UNL d   1       9.477   9.383  30.650 -0.42 -0.01    -0.025 A 
DOCKED: ATOM     22  C   UNL d   1       9.232  10.590  31.266 -0.34 -0.01    -0.021 A 
DOCKED: ATOM     23  C   UNL d   1       8.751  11.450  30.274 -0.29 +0.02    +0.066 A 
DOCKED: ATOM     24  C   UNL d   1       9.989   8.131  31.314 -0.54 +0.01    +0.051 C 
DOCKED: ATOM     25  N   UNL d   1       7.591  13.315  28.259 -0.19 -0.03    -0.248 N 
DOCKED: ATOM     26  N   UNL d   1       7.458  12.346  25.517 -0.23 -0.01    -0.248 N 
DOCKED: ATOM     27  N   UNL d   1       8.522   9.859  26.351 -0.22 -0.03    -0.248 N 
DOCKED: ATOM     28  N   UNL d   1       8.663  10.802  29.094 -0.25 -0.05    -0.248 N 
DOCKED: ATOM     29 FE   UNL d   1       8.066  11.566  27.317 -0.08 +0.00    +0.000 Fe
DOCKED: ATOM     30  O   UNL d   1       6.534  11.816  27.444 -0.33 +0.00    +0.000 OA
DOCKED: ATOM     31  O   UNL d   1       7.110  10.365  27.660 -0.67 +0.00    +0.000 OA
DOCKED: ENDROOT
DOCKED: BRANCH   6  32
DOCKED: ATOM     32  C   UNL d   1       7.163  15.602  31.159 -0.34 +0.02    +0.052 C 
DOCKED: BRANCH  32  33
DOCKED: ATOM     33  C   UNL d   1       6.754  14.650  32.279 -0.29 +0.08    +0.115 C 
DOCKED: BRANCH  33  34
DOCKED: ATOM     34  C   UNL d   1       6.926  15.264  33.646 -0.01 +0.18    +0.139 C 
DOCKED: ATOM     35  O   UNL d   1       6.794  16.469  33.788 -0.20 -0.82    -0.650 OA
DOCKED: BRANCH  34  36
DOCKED: ATOM     36  O   UNL d   1       7.251  14.512  34.718 +0.09 -1.21    -0.776 OA
DOCKED: ATOM     37  H   UNL d   1       7.831  13.745  34.648 +0.05 +0.17    +0.167 HD
DOCKED: ENDBRANCH  34  36
DOCKED: ENDBRANCH  33  34
DOCKED: ENDBRANCH  32  33
DOCKED: ENDBRANCH   6  32
DOCKED: BRANCH  22  38
DOCKED: ATOM     38  C   UNL d   1       9.393  10.874  32.737 -0.27 +0.03    +0.052 C 
DOCKED: BRANCH  38  39
DOCKED: ATOM     39  C   UNL d   1       8.081  11.296  33.394 -0.29 +0.06    +0.115 C 
DOCKED: BRANCH  39  40
DOCKED: ATOM     40  C   UNL d   1       8.037  10.957  34.863 -0.24 +0.09    +0.139 C 
DOCKED: ATOM     41  O   UNL d   1       8.058   9.789  35.217 -0.48 -0.47    -0.650 OA
DOCKED: BRANCH  40  42
DOCKED: ATOM     42  O   UNL d   1       8.027  11.925  35.800 +0.08 -0.57    -0.776 OA
DOCKED: ATOM     43  H   UNL d   1       7.531  12.743  35.676 +0.06 +0.16    +0.167 HD
DOCKED: ENDBRANCH  40  42
DOCKED: ENDBRANCH  39  40
DOCKED: ENDBRANCH  38  39
DOCKED: ENDBRANCH  22  38
DOCKED: BRANCH  12  44
DOCKED: ATOM     44  C   UNL d   1       7.130  12.654  21.761 -0.55 +0.00    +0.004 C 
DOCKED: ATOM     45  C   UNL d   1       6.790  11.607  21.010 -0.68 -0.00    +0.012 C 
DOCKED: ENDBRANCH  12  44
DOCKED: BRANCH  17  46
DOCKED: ATOM     46  C   UNL d   1       9.550   6.291  26.309 -0.60 +0.00    +0.004 C 
DOCKED: ATOM     47  C   UNL d   1       8.753   5.249  26.577 -0.75 +0.00    +0.012 C 
DOCKED: ENDBRANCH  17  46
DOCKED: TORSDOF 10
DOCKED: TER
DOCKED: ENDMDL
________________________________________________________________________________


	BEGINNING GENETIC ALGORITHM DOCKING 7 of 100
Run: 7 Seed: 1207518759 1280268839 [ Run 7 of 100 GA/GALS ]
Beginning LAMARCKIAN GENETIC ALGORITHM (LGA), with a maximum of 25000000 energy evaluations.

Final-Value: -19.522


	FINAL GENETIC ALGORITHM DOCKED STATE
	_______________________________________________


Detailed state:  trans 8.583 11.540 28.871 quatxyzw -0.739190 0.387024 0.546909 0.068571 center 8.287 34.468 -0.670 ntor 10 75.4180 -72.4386 19.5194 -102.8475 157.5656 -73.8204 5.4929 19.4631 -118.3783 102.6399
State:	  8.583  11.540  28.871  -0.741  0.388  0.548 172.136     75.42  -72.44   19.52 -102.85  157.57  -73.82    5.49   19.46 -118.38  102.64

DOCKED: MODEL        7
DOCKED: USER    Run = 7
DOCKED: USER    DPF = D:/Protein_go_brrr/autodock/final/1A3N/heme_O2/dock.dpf
DOCKED: USER  
DOCKED: USER    Estimated Free Energy of Binding    =  -15.31 kcal/mol  [=(1)+(2)+(3)-(4)]
DOCKED: USER    Estimated Inhibition Constant, Ki   =    6.03 pM (picomolar)  [Temperature = 298.15 K]
DOCKED: USER    
DOCKED: USER    (1) Final Intermolecular Energy     =  -18.29 kcal/mol
DOCKED: USER        vdW + Hbond + desolv Energy     =  -15.65 kcal/mol
DOCKED: USER        Electrostatic Energy            =   -2.64 kcal/mol
DOCKED: USER    (2) Final Total Internal Energy     =   -1.23 kcal/mol
DOCKED: USER    (3) Torsional Free Energy           =   +2.98 kcal/mol
DOCKED: USER    (4) Unbound System's Energy  [=(2)] =   -1.23 kcal/mol
DOCKED: USER    
DOCKED: USER    
DOCKED: USER    NEWDPF move heme_O2_opt.pdbqt
DOCKED: USER    NEWDPF about 8.287000 34.468000 -0.670000
DOCKED: USER    NEWDPF tran0 8.583044 11.540223 28.871333
DOCKED: USER    NEWDPF quaternion0 -0.739190 0.387024 0.546909 0.068571
DOCKED: USER    NEWDPF axisangle0 -0.740934 0.387937 0.548199 172.136119
DOCKED: USER    NEWDPF quat0 -0.740934 0.387937 0.548199 172.136119
DOCKED: USER    NEWDPF dihe0 75.42 -72.44 19.52 -102.85 157.57 -73.82 5.49 19.46 -118.38 102.64 
DOCKED: USER  keepresnum = 1 
DOCKED: USER  
DOCKED: REMARK  10 active torsions:
DOCKED: REMARK  status: ('A' for Active; 'I' for Inactive)
DOCKED: REMARK    1  A    between atoms: C_6  and  C_10 
DOCKED: REMARK    2  A    between atoms: C_10  and  C_11 
DOCKED: REMARK    3  A    between atoms: C_11  and  C_12 
DOCKED: REMARK    4  A    between atoms: C_12  and  O_14 
DOCKED: REMARK    5  A    between atoms: C_17  and  C_20 
DOCKED: REMARK    6  A    between atoms: C_24  and  C_27 
DOCKED: REMARK    7  A    between atoms: C_31  and  C_34 
DOCKED: REMARK    8  A    between atoms: C_34  and  C_35 
DOCKED: REMARK    9  A    between atoms: C_35  and  C_36 
DOCKED: REMARK   10  A    between atoms: C_36  and  O_38 
DOCKED: USER                              x       y       z     vdW  Elec       q    Type
DOCKED: USER                           _______ _______ _______ _____ _____    ______ ____
DOCKED: ROOT
DOCKED: ATOM      1  C   UNL d   1       8.782  12.077  30.914 -0.24 +0.02    +0.064 A 
DOCKED: ATOM      2  C   UNL d   1       7.064  14.394  27.141 -0.37 +0.01    +0.064 A 
DOCKED: ATOM      3  C   UNL d   1       8.083  10.673  24.275 -0.40 +0.00    +0.064 C 
DOCKED: ATOM      4  C   UNL d   1       9.414   8.096  28.232 -0.36 +0.01    +0.064 A 
DOCKED: ATOM      5  C   UNL d   1       8.230  13.010  30.122 -0.20 +0.02    +0.066 A 
DOCKED: ATOM      6  C   UNL d   1       7.810  14.267  30.568 -0.32 -0.01    -0.021 A 
DOCKED: ATOM      7  C   UNL d   1       7.273  14.922  29.485 -0.37 -0.01    -0.025 A 
DOCKED: ATOM      8  C   UNL d   1       7.423  14.066  28.397 -0.34 +0.01    +0.066 A 
DOCKED: ATOM      9  C   UNL d   1       6.628  16.290  29.533 -0.41 +0.01    +0.051 C 
DOCKED: ATOM     10  C   UNL d   1       7.217  13.548  25.956 -0.35 +0.00    +0.066 A 
DOCKED: ATOM     11  C   UNL d   1       6.980  13.998  24.653 -0.37 -0.00    -0.021 A 
DOCKED: ATOM     12  C   UNL d   1       7.285  12.945  23.811 -0.38 +0.00    +0.000 A 
DOCKED: ATOM     13  C   UNL d   1       7.689  11.885  24.668 -0.35 +0.00    +0.070 A 
DOCKED: ATOM     14  C   UNL d   1       6.508  15.384  24.227 -0.46 +0.00    +0.052 C 
DOCKED: ATOM     15  C   UNL d   1       8.466   9.562  25.112 -0.38 +0.01    +0.066 A 
DOCKED: ATOM     16  C   UNL d   1       8.710   8.270  24.648 -0.52 -0.00    -0.021 A 
DOCKED: ATOM     17  C   UNL d   1       9.090   7.517  25.759 -0.48 +0.00    +0.000 A 
DOCKED: ATOM     18  C   UNL d   1       9.051   8.419  26.832 -0.38 +0.01    +0.070 A 
DOCKED: ATOM     19  C   UNL d   1       8.507   7.860  23.211 -0.54 +0.00    +0.052 C 
DOCKED: ATOM     20  C   UNL d   1       9.347   8.925  29.292 -0.37 +0.01    +0.066 A 
DOCKED: ATOM     21  C   UNL d   1       9.719   8.570  30.585 -0.41 -0.01    -0.025 A 
DOCKED: ATOM     22  C   UNL d   1       9.572   9.700  31.358 -0.38 -0.01    -0.021 A 
DOCKED: ATOM     23  C   UNL d   1       9.095  10.702  30.507 -0.31 +0.02    +0.066 A 
DOCKED: ATOM     24  C   UNL d   1      10.189   7.219  31.060 -0.25 +0.01    +0.051 C 
DOCKED: ATOM     25  N   UNL d   1       7.953  12.863  28.803 -0.17 -0.04    -0.248 N 
DOCKED: ATOM     26  N   UNL d   1       7.640  12.259  25.972 -0.22 -0.01    -0.248 N 
DOCKED: ATOM     27  N   UNL d   1       8.598   9.635  26.434 -0.22 -0.03    -0.248 N 
DOCKED: ATOM     28  N   UNL d   1       8.917  10.214  29.262 -0.27 -0.05    -0.248 N 
DOCKED: ATOM     29 FE   UNL d   1       8.284  11.227  27.628 -0.08 +0.00    +0.000 Fe
DOCKED: ATOM     30  O   UNL d   1       6.777  11.536  27.865 -0.37 +0.00    +0.000 OA
DOCKED: ATOM     31  O   UNL d   1       7.278  10.042  27.868 -0.80 +0.00    +0.000 OA
DOCKED: ENDROOT
DOCKED: BRANCH   6  32
DOCKED: ATOM     32  C   UNL d   1       7.787  14.784  31.983 -0.29 +0.03    +0.052 C 
DOCKED: BRANCH  32  33
DOCKED: ATOM     33  C   UNL d   1       7.468  13.697  33.005 -0.25 +0.08    +0.115 C 
DOCKED: BRANCH  33  34
DOCKED: ATOM     34  C   UNL d   1       7.370  14.239  34.409 -0.09 +0.18    +0.139 C 
DOCKED: ATOM     35  O   UNL d   1       7.421  15.445  34.596 -0.27 -0.93    -0.650 OA
DOCKED: BRANCH  34  36
DOCKED: ATOM     36  O   UNL d   1       7.254  13.419  35.474 +0.06 -0.99    -0.776 OA
DOCKED: ATOM     37  H   UNL d   1       8.004  12.921  35.819 +0.05 +0.14    +0.167 HD
DOCKED: ENDBRANCH  34  36
DOCKED: ENDBRANCH  33  34
DOCKED: ENDBRANCH  32  33
DOCKED: ENDBRANCH   6  32
DOCKED: BRANCH  22  38
DOCKED: ATOM     38  C   UNL d   1       9.815   9.787  32.842 -0.31 +0.03    +0.052 C 
DOCKED: BRANCH  38  39
DOCKED: ATOM     39  C   UNL d   1       9.026  10.919  33.496 -0.27 +0.07    +0.115 C 
DOCKED: BRANCH  39  40
DOCKED: ATOM     40  C   UNL d   1       9.576  11.299  34.848 -0.20 +0.12    +0.139 C 
DOCKED: ATOM     41  O   UNL d   1      10.647  11.877  34.927 -0.50 -0.90    -0.650 OA
DOCKED: BRANCH  40  42
DOCKED: ATOM     42  O   UNL d   1       8.879  11.056  35.975 -0.07 -0.57    -0.776 OA
DOCKED: ATOM     43  H   UNL d   1       8.072  11.542  36.184 +0.06 +0.12    +0.167 HD
DOCKED: ENDBRANCH  40  42
DOCKED: ENDBRANCH  39  40
DOCKED: ENDBRANCH  38  39
DOCKED: ENDBRANCH  22  38
DOCKED: BRANCH  12  44
DOCKED: ATOM     44  C   UNL d   1       7.159  13.057  22.306 -0.46 +0.00    +0.004 C 
DOCKED: ATOM     45  C   UNL d   1       7.149  12.070  21.410 -0.60 -0.00    +0.012 C 
DOCKED: ENDBRANCH  12  44
DOCKED: BRANCH  17  46
DOCKED: ATOM     46  C   UNL d   1       9.419   6.054  25.896 -0.67 +0.00    +0.004 C 
DOCKED: ATOM     47  C   UNL d   1       8.707   5.098  26.507 -0.75 +0.00    +0.012 C 
DOCKED: ENDBRANCH  17  46
DOCKED: TORSDOF 10
DOCKED: TER
DOCKED: ENDMDL
________________________________________________________________________________


	BEGINNING GENETIC ALGORITHM DOCKING 8 of 100
Run: 8 Seed: 1870171319 1745239111 [ Run 8 of 100 GA/GALS ]
Beginning LAMARCKIAN GENETIC ALGORITHM (LGA), with a maximum of 25000000 energy evaluations.

Final-Value: -19.854


	FINAL GENETIC ALGORITHM DOCKED STATE
	_______________________________________________


Detailed state:  trans 23.203 6.820 -3.914 quatxyzw 0.480065 -0.141027 0.834394 0.231162 center 8.287 34.468 -0.670 ntor 10 -81.7893 -122.6590 35.3038 -54.0629 91.5524 119.6424 31.1077 64.8371 -23.8203 160.7742
State:	 23.203   6.820  -3.914   0.493 -0.145  0.858 153.269    -81.79 -122.66   35.30  -54.06   91.55  119.64   31.11   64.84  -23.82  160.77

DOCKED: MODEL        8
DOCKED: USER    Run = 8
DOCKED: USER    DPF = D:/Protein_go_brrr/autodock/final/1A3N/heme_O2/dock.dpf
DOCKED: USER  
DOCKED: USER    Estimated Free Energy of Binding    =  -14.76 kcal/mol  [=(1)+(2)+(3)-(4)]
DOCKED: USER    Estimated Inhibition Constant, Ki   =   15.17 pM (picomolar)  [Temperature = 298.15 K]
DOCKED: USER    
DOCKED: USER    (1) Final Intermolecular Energy     =  -17.74 kcal/mol
DOCKED: USER        vdW + Hbond + desolv Energy     =  -15.62 kcal/mol
DOCKED: USER        Electrostatic Energy            =   -2.12 kcal/mol
DOCKED: USER    (2) Final Total Internal Energy     =   -2.11 kcal/mol
DOCKED: USER    (3) Torsional Free Energy           =   +2.98 kcal/mol
DOCKED: USER    (4) Unbound System's Energy  [=(2)] =   -2.11 kcal/mol
DOCKED: USER    
DOCKED: USER    
DOCKED: USER    NEWDPF move heme_O2_opt.pdbqt
DOCKED: USER    NEWDPF about 8.287000 34.468000 -0.670000
DOCKED: USER    NEWDPF tran0 23.203252 6.819890 -3.913557
DOCKED: USER    NEWDPF quaternion0 0.480065 -0.141027 0.834394 0.231162
DOCKED: USER    NEWDPF axisangle0 0.493429 -0.144953 0.857623 153.269059
DOCKED: USER    NEWDPF quat0 0.493429 -0.144953 0.857623 153.269059
DOCKED: USER    NEWDPF dihe0 -81.79 -122.66 35.30 -54.06 91.55 119.64 31.11 64.84 -23.82 160.77 
DOCKED: USER  keepresnum = 1 
DOCKED: USER  
DOCKED: REMARK  10 active torsions:
DOCKED: REMARK  status: ('A' for Active; 'I' for Inactive)
DOCKED: REMARK    1  A    between atoms: C_6  and  C_10 
DOCKED: REMARK    2  A    between atoms: C_10  and  C_11 
DOCKED: REMARK    3  A    between atoms: C_11  and  C_12 
DOCKED: REMARK    4  A    between atoms: C_12  and  O_14 
DOCKED: REMARK    5  A    between atoms: C_17  and  C_20 
DOCKED: REMARK    6  A    between atoms: C_24  and  C_27 
DOCKED: REMARK    7  A    between atoms: C_31  and  C_34 
DOCKED: REMARK    8  A    between atoms: C_34  and  C_35 
DOCKED: REMARK    9  A    between atoms: C_35  and  C_36 
DOCKED: REMARK   10  A    between atoms: C_36  and  O_38 
DOCKED: USER                              x       y       z     vdW  Elec       q    Type
DOCKED: USER                           _______ _______ _______ _____ _____    ______ ____
DOCKED: ROOT
DOCKED: ATOM      1  C   UNL d   1      23.469   7.291  -5.964 -0.19 +0.02    +0.064 A 
DOCKED: ATOM      2  C   UNL d   1      25.490   8.957  -2.002 -0.39 +0.01    +0.064 A 
DOCKED: ATOM      3  C   UNL d   1      22.784   6.053   0.708 -0.41 +0.00    +0.064 C 
DOCKED: ATOM      4  C   UNL d   1      21.039   3.991  -3.387 -0.37 +0.01    +0.064 A 
DOCKED: ATOM      5  C   UNL d   1      24.241   7.980  -5.108 -0.30 +0.01    +0.066 A 
DOCKED: ATOM      6  C   UNL d   1      25.162   8.957  -5.496 -0.38 -0.01    -0.021 A 
DOCKED: ATOM      7  C   UNL d   1      25.779   9.409  -4.353 -0.44 -0.00    -0.025 A 
DOCKED: ATOM      8  C   UNL d   1      25.183   8.730  -3.294 -0.38 +0.01    +0.066 A 
DOCKED: ATOM      9  C   UNL d   1      26.902  10.422  -4.318 -0.42 +0.00    +0.051 C 
DOCKED: ATOM     10  C   UNL d   1      24.884   8.292  -0.847 -0.36 +0.00    +0.066 A 
DOCKED: ATOM     11  C   UNL d   1      25.121   8.680   0.476 -0.33 -0.00    -0.021 A 
DOCKED: ATOM     12  C   UNL d   1      24.336   7.867   1.272 -0.40 +0.00    +0.000 A 
DOCKED: ATOM     13  C   UNL d   1      23.658   7.001   0.369 -0.33 +0.00    +0.070 A 
DOCKED: ATOM     14  C   UNL d   1      26.037   9.799   0.959 -0.47 +0.00    +0.052 C 
DOCKED: ATOM     15  C   UNL d   1      22.104   5.133  -0.171 -0.37 +0.00    +0.066 A 
DOCKED: ATOM     16  C   UNL d   1      21.328   4.057   0.257 -0.47 -0.00    -0.021 A 
DOCKED: ATOM     17  C   UNL d   1      20.821   3.454  -0.893 -0.44 +0.00    +0.000 A 
DOCKED: ATOM     18  C   UNL d   1      21.331   4.218  -1.952 -0.36 +0.01    +0.070 A 
DOCKED: ATOM     19  C   UNL d   1      21.186   3.671   1.708 -0.60 +0.00    +0.052 C 
DOCKED: ATOM     20  C   UNL d   1      21.545   4.679  -4.429 -0.38 +0.01    +0.066 A 
DOCKED: ATOM     21  C   UNL d   1      21.220   4.430  -5.760 -0.39 -0.00    -0.025 A 
DOCKED: ATOM     22  C   UNL d   1      21.882   5.378  -6.507 -0.30 -0.00    -0.021 A 
DOCKED: ATOM     23  C   UNL d   1      22.604   6.163  -5.602 -0.09 +0.01    +0.066 A 
DOCKED: ATOM     24  C   UNL d   1      20.325   3.341  -6.292 -0.50 +0.01    +0.051 C 
DOCKED: ATOM     25  N   UNL d   1      24.282   7.803  -3.764 -0.23 -0.03    -0.248 N 
DOCKED: ATOM     26  N   UNL d   1      24.001   7.264  -0.917 -0.23 -0.01    -0.248 N 
DOCKED: ATOM     27  N   UNL d   1      22.167   5.187  -1.499 -0.21 -0.02    -0.248 N 
DOCKED: ATOM     28  N   UNL d   1      22.432   5.705  -4.344 -0.22 -0.03    -0.248 N 
DOCKED: ATOM     29 FE   UNL d   1      23.210   6.477  -2.642 -0.08 +0.00    +0.000 Fe
DOCKED: ATOM     30  O   UNL d   1      24.736   6.174  -2.684 -0.41 +0.00    +0.000 OA
DOCKED: ATOM     31  O   UNL d   1      23.702   4.987  -2.753 -0.57 +0.00    +0.000 OA
DOCKED: ENDROOT
DOCKED: BRANCH   6  32
DOCKED: ATOM     32  C   UNL d   1      25.549   9.356  -6.896 -0.36 +0.02    +0.052 C 
DOCKED: BRANCH  32  33
DOCKED: ATOM     33  C   UNL d   1      24.369   9.875  -7.713 -0.24 +0.05    +0.115 C 
DOCKED: BRANCH  33  34
DOCKED: ATOM     34  C   UNL d   1      24.535   9.620  -9.190 -0.19 +0.12    +0.139 C 
DOCKED: ATOM     35  O   UNL d   1      25.496  10.089  -9.779 -0.06 -0.75    -0.650 OA
DOCKED: BRANCH  34  36
DOCKED: ATOM     36  O   UNL d   1      23.628   8.906  -9.887 +0.02 -0.64    -0.776 OA
DOCKED: ATOM     37  H   UNL d   1      23.627   7.941  -9.888 +0.04 +0.16    +0.167 HD
DOCKED: ENDBRANCH  34  36
DOCKED: ENDBRANCH  33  34
DOCKED: ENDBRANCH  32  33
DOCKED: ENDBRANCH   6  32
DOCKED: BRANCH  22  38
DOCKED: ATOM     38  C   UNL d   1      21.868   5.479  -8.010 -0.28 +0.01    +0.052 C 
DOCKED: BRANCH  38  39
DOCKED: ATOM     39  C   UNL d   1      23.090   4.822  -8.649 -0.31 +0.04    +0.115 C 
DOCKED: BRANCH  39  40
DOCKED: ATOM     40  C   UNL d   1      23.959   5.812  -9.383 -0.24 +0.11    +0.139 C 
DOCKED: ATOM     41  O   UNL d   1      23.823   5.962 -10.587 +0.00 -0.59    -0.650 OA
DOCKED: BRANCH  40  42
DOCKED: ATOM     42  O   UNL d   1      24.853   6.576  -8.725 -0.51 -0.88    -0.776 OA
DOCKED: ATOM     43  H   UNL d   1      24.803   7.539  -8.741 +0.05 +0.21    +0.167 HD
DOCKED: ENDBRANCH  40  42
DOCKED: ENDBRANCH  39  40
DOCKED: ENDBRANCH  38  39
DOCKED: ENDBRANCH  22  38
DOCKED: BRANCH  12  44
DOCKED: ATOM     44  C   UNL d   1      24.316   7.995   2.781 -0.56 -0.00    +0.004 C 
DOCKED: ATOM     45  C   UNL d   1      24.114   7.034   3.681 -0.69 -0.00    +0.012 C 
DOCKED: ENDBRANCH  12  44
DOCKED: BRANCH  17  46
DOCKED: ATOM     46  C   UNL d   1      19.972   2.223  -1.071 -0.54 +0.00    +0.004 C 
DOCKED: ATOM     47  C   UNL d   1      20.258   0.962  -0.724 -0.73 -0.00    +0.012 C 
DOCKED: ENDBRANCH  17  46
DOCKED: TORSDOF 10
DOCKED: TER
DOCKED: ENDMDL
________________________________________________________________________________


	BEGINNING GENETIC ALGORITHM DOCKING 9 of 100
Run: 9 Seed: 1166568441 1629540095 [ Run 9 of 100 GA/GALS ]
Beginning LAMARCKIAN GENETIC ALGORITHM (LGA), with a maximum of 25000000 energy evaluations.

Final-Value: -20.063


	FINAL GENETIC ALGORITHM DOCKED STATE
	_______________________________________________


Detailed state:  trans 8.229 12.136 28.564 quatxyzw -0.763790 0.390889 0.498959 0.121946 center 8.287 34.468 -0.670 ntor 10 -102.6736 61.8610 42.0006 -78.1186 -155.7661 102.6933 51.9180 10.1847 -63.1260 163.1460
State:	  8.229  12.136  28.564  -0.770  0.394  0.503 165.991   -102.67   61.86   42.00  -78.12 -155.77  102.69   51.92   10.18  -63.13  163.15

DOCKED: MODEL        9
DOCKED: USER    Run = 9
DOCKED: USER    DPF = D:/Protein_go_brrr/autodock/final/1A3N/heme_O2/dock.dpf
DOCKED: USER  
DOCKED: USER    Estimated Free Energy of Binding    =  -15.39 kcal/mol  [=(1)+(2)+(3)-(4)]
DOCKED: USER    Estimated Inhibition Constant, Ki   =    5.21 pM (picomolar)  [Temperature = 298.15 K]
DOCKED: USER    
DOCKED: USER    (1) Final Intermolecular Energy     =  -18.38 kcal/mol
DOCKED: USER        vdW + Hbond + desolv Energy     =  -16.14 kcal/mol
DOCKED: USER        Electrostatic Energy            =   -2.24 kcal/mol
DOCKED: USER    (2) Final Total Internal Energy     =   -1.69 kcal/mol
DOCKED: USER    (3) Torsional Free Energy           =   +2.98 kcal/mol
DOCKED: USER    (4) Unbound System's Energy  [=(2)] =   -1.69 kcal/mol
DOCKED: USER    
DOCKED: USER    
DOCKED: USER    NEWDPF move heme_O2_opt.pdbqt
DOCKED: USER    NEWDPF about 8.287000 34.468000 -0.670000
DOCKED: USER    NEWDPF tran0 8.228611 12.135631 28.563989
DOCKED: USER    NEWDPF quaternion0 -0.763790 0.390889 0.498959 0.121946
DOCKED: USER    NEWDPF axisangle0 -0.769533 0.393828 0.502711 165.991121
DOCKED: USER    NEWDPF quat0 -0.769533 0.393828 0.502711 165.991121
DOCKED: USER    NEWDPF dihe0 -102.67 61.86 42.00 -78.12 -155.77 102.69 51.92 10.18 -63.13 163.15 
DOCKED: USER  keepresnum = 1 
DOCKED: USER  
DOCKED: REMARK  10 active torsions:
DOCKED: REMARK  status: ('A' for Active; 'I' for Inactive)
DOCKED: REMARK    1  A    between atoms: C_6  and  C_10 
DOCKED: REMARK    2  A    between atoms: C_10  and  C_11 
DOCKED: REMARK    3  A    between atoms: C_11  and  C_12 
DOCKED: REMARK    4  A    between atoms: C_12  and  O_14 
DOCKED: REMARK    5  A    between atoms: C_17  and  C_20 
DOCKED: REMARK    6  A    between atoms: C_24  and  C_27 
DOCKED: REMARK    7  A    between atoms: C_31  and  C_34 
DOCKED: REMARK    8  A    between atoms: C_34  and  C_35 
DOCKED: REMARK    9  A    between atoms: C_35  and  C_36 
DOCKED: REMARK   10  A    between atoms: C_36  and  O_38 
DOCKED: USER                              x       y       z     vdW  Elec       q    Type
DOCKED: USER                           _______ _______ _______ _____ _____    ______ ____
DOCKED: ROOT
DOCKED: ATOM      1  C   UNL d   1       8.261  12.917  30.536 -0.15 +0.02    +0.064 A 
DOCKED: ATOM      2  C   UNL d   1       6.609  14.640  26.430 -0.38 +0.01    +0.064 A 
DOCKED: ATOM      3  C   UNL d   1       8.078  10.711  24.084 -0.40 +0.00    +0.064 C 
DOCKED: ATOM      4  C   UNL d   1       9.353   8.720  28.382 -0.39 +0.01    +0.064 A 
DOCKED: ATOM      5  C   UNL d   1       7.690  13.705  29.611 -0.21 +0.02    +0.066 A 
DOCKED: ATOM      6  C   UNL d   1       7.152  14.966  29.882 -0.37 -0.01    -0.021 A 
DOCKED: ATOM      7  C   UNL d   1       6.634  15.448  28.702 -0.43 -0.00    -0.025 A 
DOCKED: ATOM      8  C   UNL d   1       6.914  14.488  27.733 -0.38 +0.01    +0.066 A 
DOCKED: ATOM      9  C   UNL d   1       5.887  16.755  28.554 -0.43 +0.00    +0.051 C 
DOCKED: ATOM     10  C   UNL d   1       6.898  13.679  25.364 -0.36 +0.00    +0.066 A 
DOCKED: ATOM     11  C   UNL d   1       6.708  13.957  24.006 -0.37 -0.00    -0.021 A 
DOCKED: ATOM     12  C   UNL d   1       7.143  12.843  23.312 -0.38 +0.00    +0.000 A 
DOCKED: ATOM     13  C   UNL d   1       7.572  11.923  24.309 -0.34 +0.00    +0.070 A 
DOCKED: ATOM     14  C   UNL d   1       6.161  15.241  23.394 -0.49 +0.00    +0.052 C 
DOCKED: ATOM     15  C   UNL d   1       8.491   9.738  25.066 -0.38 +0.01    +0.066 A 
DOCKED: ATOM     16  C   UNL d   1       8.858   8.425  24.772 -0.51 -0.00    -0.021 A 
DOCKED: ATOM     17  C   UNL d   1       9.225   7.838  25.982 -0.45 +0.00    +0.000 A 
DOCKED: ATOM     18  C   UNL d   1       9.053   8.850  26.937 -0.38 +0.01    +0.070 A 
DOCKED: ATOM     19  C   UNL d   1       8.775   7.839  23.385 -0.67 +0.00    +0.052 C 
DOCKED: ATOM     20  C   UNL d   1       9.158   9.657  29.331 -0.39 +0.01    +0.066 A 
DOCKED: ATOM     21  C   UNL d   1       9.476   9.483  30.675 -0.42 -0.01    -0.025 A 
DOCKED: ATOM     22  C   UNL d   1       9.197  10.678  31.300 -0.33 -0.01    -0.021 A 
DOCKED: ATOM     23  C   UNL d   1       8.700  11.534  30.312 -0.30 +0.02    +0.066 A 
DOCKED: ATOM     24  C   UNL d   1      10.016   8.238  31.332 -0.54 +0.02    +0.051 C 
DOCKED: ATOM     25  N   UNL d   1       7.507  13.387  28.306 -0.21 -0.03    -0.248 N 
DOCKED: ATOM     26  N   UNL d   1       7.415  12.439  25.555 -0.23 -0.01    -0.248 N 
DOCKED: ATOM     27  N   UNL d   1       8.536   9.972  26.374 -0.22 -0.02    -0.248 N 
DOCKED: ATOM     28  N   UNL d   1       8.636  10.895  29.126 -0.25 -0.05    -0.248 N 
DOCKED: ATOM     29 FE   UNL d   1       8.030  11.659  27.352 -0.08 +0.00    +0.000 Fe
DOCKED: ATOM     30  O   UNL d   1       6.493  11.869  27.472 -0.30 +0.00    +0.000 OA
DOCKED: ATOM     31  O   UNL d   1       7.103  10.431  27.679 -0.66 +0.00    +0.000 OA
DOCKED: ENDROOT
DOCKED: BRANCH   6  32
DOCKED: ATOM     32  C   UNL d   1       7.003  15.638  31.222 -0.34 +0.02    +0.052 C 
DOCKED: BRANCH  32  33
DOCKED: ATOM     33  C   UNL d   1       7.940  15.063  32.280 -0.24 +0.06    +0.115 C 
DOCKED: BRANCH  33  34
DOCKED: ATOM     34  C   UNL d   1       7.220  14.716  33.559 -0.17 +0.15    +0.139 C 
DOCKED: ATOM     35  O   UNL d   1       6.237  13.992  33.521 -0.15 -0.89    -0.650 OA
DOCKED: BRANCH  34  36
DOCKED: ATOM     36  O   UNL d   1       7.620  15.212  34.748 -0.14 -1.05    -0.776 OA
DOCKED: ATOM     37  H   UNL d   1       8.122  14.683  35.379 +0.03 +0.18    +0.167 HD
DOCKED: ENDBRANCH  34  36
DOCKED: ENDBRANCH  33  34
DOCKED: ENDBRANCH  32  33
DOCKED: ENDBRANCH   6  32
DOCKED: BRANCH  22  38
DOCKED: ATOM     38  C   UNL d   1       9.342  10.953  32.774 -0.30 +0.03    +0.052 C 
DOCKED: BRANCH  38  39
DOCKED: ATOM     39  C   UNL d   1       8.033  10.751  33.535 -0.33 +0.06    +0.115 C 
DOCKED: BRANCH  39  40
DOCKED: ATOM     40  C   UNL d   1       8.116  11.232  34.962 -0.21 +0.09    +0.139 C 
DOCKED: ATOM     41  O   UNL d   1       8.061  10.426  35.877 -0.55 -0.45    -0.650 OA
DOCKED: BRANCH  40  42
DOCKED: ATOM     42  O   UNL d   1       8.301  12.535  35.247 +0.10 -0.61    -0.776 OA
DOCKED: ATOM     43  H   UNL d   1       7.642  13.201  35.018 +0.05 +0.17    +0.167 HD
DOCKED: ENDBRANCH  40  42
DOCKED: ENDBRANCH  39  40
DOCKED: ENDBRANCH  38  39
DOCKED: ENDBRANCH  22  38
DOCKED: BRANCH  12  44
DOCKED: ATOM     44  C   UNL d   1       7.102  12.771  21.800 -0.54 +0.00    +0.004 C 
DOCKED: ATOM     45  C   UNL d   1       6.811  11.717  21.038 -0.67 -0.00    +0.012 C 
DOCKED: ENDBRANCH  12  44
DOCKED: BRANCH  17  46
DOCKED: ATOM     46  C   UNL d   1       9.653   6.432  26.309 -0.54 +0.00    +0.004 C 
DOCKED: ATOM     47  C   UNL d   1       8.881   5.370  26.570 -0.74 +0.00    +0.012 C 
DOCKED: ENDBRANCH  17  46
DOCKED: TORSDOF 10
DOCKED: TER
DOCKED: ENDMDL
________________________________________________________________________________


	BEGINNING GENETIC ALGORITHM DOCKING 10 of 100
Run: 10 Seed: 256593893 935021456 [ Run 10 of 100 GA/GALS ]
Beginning LAMARCKIAN GENETIC ALGORITHM (LGA), with a maximum of 25000000 energy evaluations.

Final-Value: -16.491


	FINAL GENETIC ALGORITHM DOCKED STATE
	_______________________________________________


Detailed state:  trans 7.560 13.641 30.704 quatxyzw -0.138565 -0.745166 0.180037 0.626988 center 8.287 34.468 -0.670 ntor 10 122.3354 -91.5650 39.1881 61.2854 -123.1277 2.2802 -169.9212 76.2393 -4.8946 145.5389
State:	  7.560  13.641  30.704  -0.178 -0.957  0.231 102.344    122.34  -91.57   39.19   61.29 -123.13    2.28 -169.92   76.24   -4.89  145.54

DOCKED: MODEL       10
DOCKED: USER    Run = 10
DOCKED: USER    DPF = D:/Protein_go_brrr/autodock/final/1A3N/heme_O2/dock.dpf
DOCKED: USER  
DOCKED: USER    Estimated Free Energy of Binding    =  -12.76 kcal/mol  [=(1)+(2)+(3)-(4)]
DOCKED: USER    Estimated Inhibition Constant, Ki   =  445.85 pM (picomolar)  [Temperature = 298.15 K]
DOCKED: USER    
DOCKED: USER    (1) Final Intermolecular Energy     =  -15.74 kcal/mol
DOCKED: USER        vdW + Hbond + desolv Energy     =  -13.03 kcal/mol
DOCKED: USER        Electrostatic Energy            =   -2.71 kcal/mol
DOCKED: USER    (2) Final Total Internal Energy     =   -0.75 kcal/mol
DOCKED: USER    (3) Torsional Free Energy           =   +2.98 kcal/mol
DOCKED: USER    (4) Unbound System's Energy  [=(2)] =   -0.75 kcal/mol
DOCKED: USER    
DOCKED: USER    
DOCKED: USER    NEWDPF move heme_O2_opt.pdbqt
DOCKED: USER    NEWDPF about 8.287000 34.468000 -0.670000
DOCKED: USER    NEWDPF tran0 7.559994 13.641151 30.703814
DOCKED: USER    NEWDPF quaternion0 -0.138565 -0.745166 0.180037 0.626988
DOCKED: USER    NEWDPF axisangle0 -0.177869 -0.956532 0.231104 102.343503
DOCKED: USER    NEWDPF quat0 -0.177869 -0.956532 0.231104 102.343503
DOCKED: USER    NEWDPF dihe0 122.34 -91.57 39.19 61.29 -123.13 2.28 -169.92 76.24 -4.89 145.54 
DOCKED: USER  keepresnum = 1 
DOCKED: USER  
DOCKED: REMARK  10 active torsions:
DOCKED: REMARK  status: ('A' for Active; 'I' for Inactive)
DOCKED: REMARK    1  A    between atoms: C_6  and  C_10 
DOCKED: REMARK    2  A    between atoms: C_10  and  C_11 
DOCKED: REMARK    3  A    between atoms: C_11  and  C_12 
DOCKED: REMARK    4  A    between atoms: C_12  and  O_14 
DOCKED: REMARK    5  A    between atoms: C_17  and  C_20 
DOCKED: REMARK    6  A    between atoms: C_24  and  C_27 
DOCKED: REMARK    7  A    between atoms: C_31  and  C_34 
DOCKED: REMARK    8  A    between atoms: C_34  and  C_35 
DOCKED: REMARK    9  A    between atoms: C_35  and  C_36 
DOCKED: REMARK   10  A    between atoms: C_36  and  O_38 
DOCKED: USER                              x       y       z     vdW  Elec       q    Type
DOCKED: USER                           _______ _______ _______ _____ _____    ______ ____
DOCKED: ROOT
DOCKED: ATOM      1  C   UNL d   1       7.441  14.571  32.607 -0.24 +0.04    +0.064 A 
DOCKED: ATOM      2  C   UNL d   1       9.335  10.464  31.156 -0.33 +0.02    +0.064 A 
DOCKED: ATOM      3  C   UNL d   1       7.915  11.298  26.641 -0.38 +0.00    +0.064 C 
DOCKED: ATOM      4  C   UNL d   1       6.382  15.746  28.031 -0.43 +0.01    +0.064 A 
DOCKED: ATOM      5  C   UNL d   1       8.073  13.386  32.580 -0.23 +0.04    +0.066 A 
DOCKED: ATOM      6  C   UNL d   1       8.621  12.766  33.707 -0.20 -0.01    -0.021 A 
DOCKED: ATOM      7  C   UNL d   1       9.208  11.598  33.281 -0.24 -0.02    -0.025 A 
DOCKED: ATOM      8  C   UNL d   1       8.960  11.513  31.913 -0.25 +0.03    +0.066 A 
DOCKED: ATOM      9  C   UNL d   1       9.986  10.648  34.164 -0.23 +0.04    +0.051 C 
DOCKED: ATOM     10  C   UNL d   1       9.083  10.308  29.722 -0.38 +0.02    +0.066 A 
DOCKED: ATOM     11  C   UNL d   1       9.348   9.128  29.019 -0.43 -0.00    -0.021 A 
DOCKED: ATOM     12  C   UNL d   1       8.929   9.342  27.719 -0.43 +0.00    +0.000 A 
DOCKED: ATOM     13  C   UNL d   1       8.432  10.675  27.700 -0.31 +0.01    +0.070 A 
DOCKED: ATOM     14  C   UNL d   1       9.951   7.841  29.569 -0.46 +0.01    +0.052 C 
DOCKED: ATOM     15  C   UNL d   1       7.434  12.656  26.572 -0.34 +0.00    +0.066 A 
DOCKED: ATOM     16  C   UNL d   1       7.057  13.303  25.395 -0.38 -0.00    -0.021 A 
DOCKED: ATOM     17  C   UNL d   1       6.617  14.573  25.767 -0.43 +0.00    +0.000 A 
DOCKED: ATOM     18  C   UNL d   1       6.758  14.606  27.161 -0.39 +0.01    +0.070 A 
DOCKED: ATOM     19  C   UNL d   1       7.200  12.677  24.031 -0.41 +0.00    +0.052 C 
DOCKED: ATOM     20  C   UNL d   1       6.545  15.827  29.366 -0.38 +0.01    +0.066 A 
DOCKED: ATOM     21  C   UNL d   1       6.155  16.920  30.134 -0.36 -0.01    -0.025 A 
DOCKED: ATOM     22  C   UNL d   1       6.423  16.592  31.444 -0.21 -0.01    -0.021 A 
DOCKED: ATOM     23  C   UNL d   1       6.987  15.312  31.424 -0.29 +0.03    +0.066 A 
DOCKED: ATOM     24  C   UNL d   1       5.558  18.214  29.643 -0.40 +0.01    +0.051 C 
DOCKED: ATOM     25  N   UNL d   1       8.318  12.646  31.471 -0.16 -0.09    -0.248 N 
DOCKED: ATOM     26  N   UNL d   1       8.534  11.257  28.922 -0.22 -0.04    -0.248 N 
DOCKED: ATOM     27  N   UNL d   1       7.325  13.463  27.624 -0.23 -0.03    -0.248 N 
DOCKED: ATOM     28  N   UNL d   1       7.100  14.870  30.155 -0.21 -0.07    -0.248 N 
DOCKED: ATOM     29 FE   UNL d   1       7.811  13.077  29.540 -0.08 +0.00    +0.000 Fe
DOCKED: ATOM     30  O   UNL d   1       9.345  13.102  29.808 -0.39 +0.00    +0.000 OA
DOCKED: ATOM     31  O   UNL d   1       8.697  14.191  28.871 +0.21 +0.00    +0.000 OA
DOCKED: ENDROOT
DOCKED: BRANCH   6  32
DOCKED: ATOM     32  C   UNL d   1       8.713  13.312  35.108 -0.14 +0.04    +0.052 C 
DOCKED: BRANCH  32  33
DOCKED: ATOM     33  C   UNL d   1       7.399  13.198  35.875 -0.12 +0.13    +0.115 C 
DOCKED: BRANCH  33  34
DOCKED: ATOM     34  C   UNL d   1       6.363  12.396  35.127 -0.20 +0.16    +0.139 C 
DOCKED: ATOM     35  O   UNL d   1       6.347  11.181  35.237 -0.02 -0.44    -0.650 OA
DOCKED: BRANCH  34  36
DOCKED: ATOM     36  O   UNL d   1       5.467  12.991  34.313 -0.48 -1.37    -0.776 OA
DOCKED: ATOM     37  H   UNL d   1       5.388  12.754  33.381 -0.10 +0.15    +0.167 HD
DOCKED: ENDBRANCH  34  36
DOCKED: ENDBRANCH  33  34
DOCKED: ENDBRANCH  32  33
DOCKED: ENDBRANCH   6  32
DOCKED: BRANCH  22  38
DOCKED: ATOM     38  C   UNL d   1       6.208  17.488  32.636 +0.18 +0.03    +0.052 C 
DOCKED: BRANCH  38  39
DOCKED: ATOM     39  C   UNL d   1       7.522  17.914  33.288 -0.16 +0.06    +0.115 C 
DOCKED: BRANCH  39  40
DOCKED: ATOM     40  C   UNL d   1       7.787  17.185  34.582 -0.12 +0.11    +0.139 C 
DOCKED: ATOM     41  O   UNL d   1       8.934  16.922  34.905 -0.00 -0.38    -0.650 OA
DOCKED: BRANCH  40  42
DOCKED: ATOM     42  O   UNL d   1       6.780  16.861  35.416 -0.51 -1.44    -0.776 OA
DOCKED: ATOM     43  H   UNL d   1       6.481  17.466  36.106 +0.00 +0.24    +0.167 HD
DOCKED: ENDBRANCH  40  42
DOCKED: ENDBRANCH  39  40
DOCKED: ENDBRANCH  38  39
DOCKED: ENDBRANCH  22  38
DOCKED: BRANCH  12  44
DOCKED: ATOM     44  C   UNL d   1       9.047   8.276  26.650 -0.50 +0.00    +0.004 C 
DOCKED: ATOM     45  C   UNL d   1       9.306   8.442  25.353 -0.54 +0.00    +0.012 C 
DOCKED: ENDBRANCH  12  44
DOCKED: BRANCH  17  46
DOCKED: ATOM     46  C   UNL d   1       6.146  15.738  24.937 -0.54 +0.00    +0.004 C 
DOCKED: ATOM     47  C   UNL d   1       5.169  15.761  24.020 -0.59 +0.00    +0.012 C 
DOCKED: ENDBRANCH  17  46
DOCKED: TORSDOF 10
DOCKED: TER
DOCKED: ENDMDL
________________________________________________________________________________


	BEGINNING GENETIC ALGORITHM DOCKING 11 of 100
Run: 11 Seed: 540040864 1988771361 [ Run 11 of 100 GA/GALS ]
Beginning LAMARCKIAN GENETIC ALGORITHM (LGA), with a maximum of 25000000 energy evaluations.

Final-Value: -18.608


	FINAL GENETIC ALGORITHM DOCKED STATE
	_______________________________________________


Detailed state:  trans 8.238 12.096 28.538 quatxyzw 0.762906 -0.387722 -0.506206 -0.106777 center 8.287 34.468 -0.670 ntor 10 79.2950 179.8610 37.6472 -91.1506 10.9986 -65.9478 19.4048 25.5782 -40.0037 172.4953
State:	  8.238  12.096  28.538   0.767 -0.390 -0.509 -167.741     79.30  179.86   37.65  -91.15   11.00  -65.95   19.40   25.58  -40.00  172.50

DOCKED: MODEL       11
DOCKED: USER    Run = 11
DOCKED: USER    DPF = D:/Protein_go_brrr/autodock/final/1A3N/heme_O2/dock.dpf
DOCKED: USER  
DOCKED: USER    Estimated Free Energy of Binding    =  -14.80 kcal/mol  [=(1)+(2)+(3)-(4)]
DOCKED: USER    Estimated Inhibition Constant, Ki   =   14.16 pM (picomolar)  [Temperature = 298.15 K]
DOCKED: USER    
DOCKED: USER    (1) Final Intermolecular Energy     =  -17.78 kcal/mol
DOCKED: USER        vdW + Hbond + desolv Energy     =  -15.71 kcal/mol
DOCKED: USER        Electrostatic Energy            =   -2.08 kcal/mol
DOCKED: USER    (2) Final Total Internal Energy     =   -0.82 kcal/mol
DOCKED: USER    (3) Torsional Free Energy           =   +2.98 kcal/mol
DOCKED: USER    (4) Unbound System's Energy  [=(2)] =   -0.82 kcal/mol
DOCKED: USER    
DOCKED: USER    
DOCKED: USER    NEWDPF move heme_O2_opt.pdbqt
DOCKED: USER    NEWDPF about 8.287000 34.468000 -0.670000
DOCKED: USER    NEWDPF tran0 8.238076 12.095883 28.537507
DOCKED: USER    NEWDPF quaternion0 0.762906 -0.387722 -0.506206 -0.106777
DOCKED: USER    NEWDPF axisangle0 0.767293 -0.389952 -0.509116 -167.740855
DOCKED: USER    NEWDPF quat0 0.767293 -0.389952 -0.509116 -167.740855
DOCKED: USER    NEWDPF dihe0 79.30 179.86 37.65 -91.15 11.00 -65.95 19.40 25.58 -40.00 172.50 
DOCKED: USER  keepresnum = 1 
DOCKED: USER  
DOCKED: REMARK  10 active torsions:
DOCKED: REMARK  status: ('A' for Active; 'I' for Inactive)
DOCKED: REMARK    1  A    between atoms: C_6  and  C_10 
DOCKED: REMARK    2  A    between atoms: C_10  and  C_11 
DOCKED: REMARK    3  A    between atoms: C_11  and  C_12 
DOCKED: REMARK    4  A    between atoms: C_12  and  O_14 
DOCKED: REMARK    5  A    between atoms: C_17  and  C_20 
DOCKED: REMARK    6  A    between atoms: C_24  and  C_27 
DOCKED: REMARK    7  A    between atoms: C_31  and  C_34 
DOCKED: REMARK    8  A    between atoms: C_34  and  C_35 
DOCKED: REMARK    9  A    between atoms: C_35  and  C_36 
DOCKED: REMARK   10  A    between atoms: C_36  and  O_38 
DOCKED: USER                              x       y       z     vdW  Elec       q    Type
DOCKED: USER                           _______ _______ _______ _____ _____    ______ ____
DOCKED: ROOT
DOCKED: ATOM      1  C   UNL d   1       8.282  12.813  30.533 -0.11 +0.02    +0.064 A 
DOCKED: ATOM      2  C   UNL d   1       6.650  14.687  26.486 -0.39 +0.01    +0.064 A 
DOCKED: ATOM      3  C   UNL d   1       8.066  10.817  24.014 -0.41 +0.00    +0.064 C 
DOCKED: ATOM      4  C   UNL d   1       9.318   8.674  28.246 -0.39 +0.01    +0.064 A 
DOCKED: ATOM      5  C   UNL d   1       7.721  13.638  29.634 -0.20 +0.02    +0.066 A 
DOCKED: ATOM      6  C   UNL d   1       7.198  14.897  29.946 -0.36 -0.01    -0.021 A 
DOCKED: ATOM      7  C   UNL d   1       6.686  15.422  28.782 -0.43 -0.00    -0.025 A 
DOCKED: ATOM      8  C   UNL d   1       6.954  14.490  27.783 -0.38 +0.01    +0.066 A 
DOCKED: ATOM      9  C   UNL d   1       5.956  16.743  28.677 -0.44 +0.01    +0.051 C 
DOCKED: ATOM     10  C   UNL d   1       6.925  13.757  25.389 -0.36 +0.00    +0.066 A 
DOCKED: ATOM     11  C   UNL d   1       6.738  14.080  24.041 -0.37 -0.00    -0.021 A 
DOCKED: ATOM     12  C   UNL d   1       7.158  12.983  23.311 -0.38 +0.00    +0.000 A 
DOCKED: ATOM     13  C   UNL d   1       7.576  12.027  24.279 -0.34 +0.00    +0.070 A 
DOCKED: ATOM     14  C   UNL d   1       6.207  15.390  23.471 -0.48 +0.00    +0.052 C 
DOCKED: ATOM     15  C   UNL d   1       8.467   9.807  24.965 -0.38 +0.01    +0.066 A 
DOCKED: ATOM     16  C   UNL d   1       8.818   8.500  24.628 -0.52 -0.00    -0.021 A 
DOCKED: ATOM     17  C   UNL d   1       9.178   7.870  25.819 -0.46 +0.00    +0.000 A 
DOCKED: ATOM     18  C   UNL d   1       9.019   8.853  26.806 -0.38 +0.01    +0.070 A 
DOCKED: ATOM     19  C   UNL d   1       8.726   7.959  23.224 -0.56 +0.00    +0.052 C 
DOCKED: ATOM     20  C   UNL d   1       9.137   9.582  29.225 -0.38 +0.01    +0.066 A 
DOCKED: ATOM     21  C   UNL d   1       9.453   9.362  30.562 -0.42 -0.01    -0.025 A 
DOCKED: ATOM     22  C   UNL d   1       9.190  10.540  31.224 -0.35 -0.01    -0.021 A 
DOCKED: ATOM     23  C   UNL d   1       8.703  11.433  30.265 -0.31 +0.02    +0.066 A 
DOCKED: ATOM     24  C   UNL d   1       9.977   8.090  31.178 -0.54 +0.01    +0.051 C 
DOCKED: ATOM     25  N   UNL d   1       7.532  13.364  28.320 -0.20 -0.03    -0.248 N 
DOCKED: ATOM     26  N   UNL d   1       7.426  12.505  25.540 -0.23 -0.01    -0.248 N 
DOCKED: ATOM     27  N   UNL d   1       8.516   9.999  26.280 -0.22 -0.02    -0.248 N 
DOCKED: ATOM     28  N   UNL d   1       8.630  10.833  29.060 -0.25 -0.05    -0.248 N 
DOCKED: ATOM     29 FE   UNL d   1       8.033  11.660  27.312 -0.08 +0.00    +0.000 Fe
DOCKED: ATOM     30  O   UNL d   1       6.498  11.886  27.439 -0.31 +0.00    +0.000 OA
DOCKED: ATOM     31  O   UNL d   1       7.090  10.435  27.600 -0.67 +0.00    +0.000 OA
DOCKED: ENDROOT
DOCKED: BRANCH   6  32
DOCKED: ATOM     32  C   UNL d   1       7.059  15.527  31.307 -0.34 +0.02    +0.052 C 
DOCKED: BRANCH  32  33
DOCKED: ATOM     33  C   UNL d   1       8.301  15.344  32.174 -0.22 +0.06    +0.115 C 
DOCKED: BRANCH  33  34
DOCKED: ATOM     34  C   UNL d   1       8.024  15.595  33.636 -0.17 +0.11    +0.139 C 
DOCKED: ATOM     35  O   UNL d   1       8.845  16.194  34.312 -0.00 -0.42    -0.650 OA
DOCKED: BRANCH  34  36
DOCKED: ATOM     36  O   UNL d   1       6.896  15.147  34.225 +0.05 -1.36    -0.776 OA
DOCKED: ATOM     37  H   UNL d   1       6.797  14.230  34.508 +0.04 +0.30    +0.167 HD
DOCKED: ENDBRANCH  34  36
DOCKED: ENDBRANCH  33  34
DOCKED: ENDBRANCH  32  33
DOCKED: ENDBRANCH   6  32
DOCKED: BRANCH  22  38
DOCKED: ATOM     38  C   UNL d   1       9.339  10.766  32.707 -0.32 +0.03    +0.052 C 
DOCKED: BRANCH  38  39
DOCKED: ATOM     39  C   UNL d   1       8.098  10.339  33.488 -0.37 +0.05    +0.115 C 
DOCKED: BRANCH  39  40
DOCKED: ATOM     40  C   UNL d   1       7.971  11.060  34.807 -0.24 +0.09    +0.139 C 
DOCKED: ATOM     41  O   UNL d   1       7.546  12.204  34.833 +0.04 -0.51    -0.650 OA
DOCKED: BRANCH  40  42
DOCKED: ATOM     42  O   UNL d   1       8.271  10.446  35.967 -0.47 -0.55    -0.776 OA
DOCKED: ATOM     43  H   UNL d   1       8.156  10.888  36.817 +0.05 +0.11    +0.167 HD
DOCKED: ENDBRANCH  40  42
DOCKED: ENDBRANCH  39  40
DOCKED: ENDBRANCH  38  39
DOCKED: ENDBRANCH  22  38
DOCKED: BRANCH  12  44
DOCKED: ATOM     44  C   UNL d   1       7.115  12.960  21.798 -0.53 +0.00    +0.004 C 
DOCKED: ATOM     45  C   UNL d   1       6.888  11.916  21.001 -0.66 -0.00    +0.012 C 
DOCKED: ENDBRANCH  12  44
DOCKED: BRANCH  17  46
DOCKED: ATOM     46  C   UNL d   1       9.588   6.449  26.101 -0.53 +0.00    +0.004 C 
DOCKED: ATOM     47  C   UNL d   1       8.832   5.443  26.560 -0.74 +0.00    +0.012 C 
DOCKED: ENDBRANCH  17  46
DOCKED: TORSDOF 10
DOCKED: TER
DOCKED: ENDMDL
________________________________________________________________________________


	BEGINNING GENETIC ALGORITHM DOCKING 12 of 100
Run: 12 Seed: 2060352726 1548627816 [ Run 12 of 100 GA/GALS ]
Beginning LAMARCKIAN GENETIC ALGORITHM (LGA), with a maximum of 25000000 energy evaluations.

Final-Value: -18.034


	FINAL GENETIC ALGORITHM DOCKED STATE
	_______________________________________________


Detailed state:  trans 2.645 -6.789 -4.417 quatxyzw -0.142291 -0.482418 0.316909 -0.804111 center 8.287 34.468 -0.670 ntor 10 78.5681 179.7122 36.9787 -45.6253 -105.4681 -171.2101 -39.0849 72.4521 161.1338 171.6428
State:	  2.645  -6.789  -4.417  -0.239 -0.811  0.533 -72.951     78.57  179.71   36.98  -45.63 -105.47 -171.21  -39.08   72.45  161.13  171.64

DOCKED: MODEL       12
DOCKED: USER    Run = 12
DOCKED: USER    DPF = D:/Protein_go_brrr/autodock/final/1A3N/heme_O2/dock.dpf
DOCKED: USER  
DOCKED: USER    Estimated Free Energy of Binding    =  -13.04 kcal/mol  [=(1)+(2)+(3)-(4)]
DOCKED: USER    Estimated Inhibition Constant, Ki   =  274.40 pM (picomolar)  [Temperature = 298.15 K]
DOCKED: USER    
DOCKED: USER    (1) Final Intermolecular Energy     =  -16.03 kcal/mol
DOCKED: USER        vdW + Hbond + desolv Energy     =  -14.29 kcal/mol
DOCKED: USER        Electrostatic Energy            =   -1.73 kcal/mol
DOCKED: USER    (2) Final Total Internal Energy     =   -2.01 kcal/mol
DOCKED: USER    (3) Torsional Free Energy           =   +2.98 kcal/mol
DOCKED: USER    (4) Unbound System's Energy  [=(2)] =   -2.01 kcal/mol
DOCKED: USER    
DOCKED: USER    
DOCKED: USER    NEWDPF move heme_O2_opt.pdbqt
DOCKED: USER    NEWDPF about 8.287000 34.468000 -0.670000
DOCKED: USER    NEWDPF tran0 2.645495 -6.788851 -4.417127
DOCKED: USER    NEWDPF quaternion0 -0.142291 -0.482418 0.316909 -0.804111
DOCKED: USER    NEWDPF axisangle0 -0.239355 -0.811497 0.533087 -72.951028
DOCKED: USER    NEWDPF quat0 -0.239355 -0.811497 0.533087 -72.951028
DOCKED: USER    NEWDPF dihe0 78.57 179.71 36.98 -45.63 -105.47 -171.21 -39.08 72.45 161.13 171.64 
DOCKED: USER  keepresnum = 1 
DOCKED: USER  
DOCKED: REMARK  10 active torsions:
DOCKED: REMARK  status: ('A' for Active; 'I' for Inactive)
DOCKED: REMARK    1  A    between atoms: C_6  and  C_10 
DOCKED: REMARK    2  A    between atoms: C_10  and  C_11 
DOCKED: REMARK    3  A    between atoms: C_11  and  C_12 
DOCKED: REMARK    4  A    between atoms: C_12  and  O_14 
DOCKED: REMARK    5  A    between atoms: C_17  and  C_20 
DOCKED: REMARK    6  A    between atoms: C_24  and  C_27 
DOCKED: REMARK    7  A    between atoms: C_31  and  C_34 
DOCKED: REMARK    8  A    between atoms: C_34  and  C_35 
DOCKED: REMARK    9  A    between atoms: C_35  and  C_36 
DOCKED: REMARK   10  A    between atoms: C_36  and  O_38 
DOCKED: USER                              x       y       z     vdW  Elec       q    Type
DOCKED: USER                           _______ _______ _______ _____ _____    ______ ____
DOCKED: ROOT
DOCKED: ATOM      1  C   UNL d   1       2.490  -7.480  -6.416 -0.24 +0.01    +0.064 A 
DOCKED: ATOM      2  C   UNL d   1       0.687  -9.074  -2.321 -0.38 +0.00    +0.064 A 
DOCKED: ATOM      3  C   UNL d   1       2.864  -5.550   0.115 -0.41 +0.00    +0.064 C 
DOCKED: ATOM      4  C   UNL d   1       4.335  -3.621  -4.149 -0.42 +0.01    +0.064 A 
DOCKED: ATOM      5  C   UNL d   1       1.821  -8.200  -5.502 -0.32 +0.01    +0.066 A 
DOCKED: ATOM      6  C   UNL d   1       1.070  -9.341  -5.800 -0.29 -0.00    -0.021 A 
DOCKED: ATOM      7  C   UNL d   1       0.512  -9.778  -4.621 -0.32 -0.00    -0.025 A 
DOCKED: ATOM      8  C   UNL d   1       0.977  -8.921  -3.628 -0.34 +0.01    +0.066 A 
DOCKED: ATOM      9  C   UNL d   1      -0.441 -10.947  -4.496 -0.28 +0.00    +0.051 C 
DOCKED: ATOM     10  C   UNL d   1       1.164  -8.221  -1.232 -0.38 +0.00    +0.066 A 
DOCKED: ATOM     11  C   UNL d   1       0.968  -8.520   0.121 -0.47 -0.00    -0.021 A 
DOCKED: ATOM     12  C   UNL d   1       1.604  -7.525   0.840 -0.44 +0.00    +0.000 A 
DOCKED: ATOM     13  C   UNL d   1       2.153  -6.649  -0.137 -0.38 +0.00    +0.070 A 
DOCKED: ATOM     14  C   UNL d   1       0.229  -9.719   0.704 -0.57 -0.00    +0.052 C 
DOCKED: ATOM     15  C   UNL d   1       3.407  -4.618  -0.844 -0.36 +0.00    +0.066 A 
DOCKED: ATOM     16  C   UNL d   1       3.999  -3.400  -0.515 -0.45 -0.00    -0.021 A 
DOCKED: ATOM     17  C   UNL d   1       4.426  -2.831  -1.715 -0.46 +0.00    +0.000 A 
DOCKED: ATOM     18  C   UNL d   1       4.058  -3.759  -2.700 -0.39 +0.01    +0.070 A 
DOCKED: ATOM     19  C   UNL d   1       4.055  -2.867   0.895 -0.60 +0.00    +0.052 C 
DOCKED: ATOM     20  C   UNL d   1       3.959  -4.471  -5.124 -0.40 +0.01    +0.066 A 
DOCKED: ATOM     21  C   UNL d   1       4.263  -4.296  -6.472 -0.41 -0.00    -0.025 A 
DOCKED: ATOM     22  C   UNL d   1       3.769  -5.400  -7.129 -0.26 -0.00    -0.021 A 
DOCKED: ATOM     23  C   UNL d   1       3.163  -6.202  -6.158 -0.18 +0.01    +0.066 A 
DOCKED: ATOM     24  C   UNL d   1       4.987  -3.133  -7.100 -0.49 +0.00    +0.051 C 
DOCKED: ATOM     25  N   UNL d   1       1.730  -7.911  -4.180 -0.18 -0.03    -0.248 N 
DOCKED: ATOM     26  N   UNL d   1       1.877  -7.078  -1.395 -0.21 +0.00    -0.248 N 
DOCKED: ATOM     27  N   UNL d   1       3.375  -4.801  -2.161 -0.23 -0.01    -0.248 N 
DOCKED: ATOM     28  N   UNL d   1       3.241  -5.611  -4.947 -0.25 -0.04    -0.248 N 
DOCKED: ATOM     29 FE   UNL d   1       2.565  -6.337  -3.183 -0.09 -0.00    +0.000 Fe
DOCKED: ATOM     30  O   UNL d   1       1.011  -6.281  -3.256 -0.11 +0.00    +0.000 OA
DOCKED: ATOM     31  O   UNL d   1       1.849  -4.959  -3.431 -0.51 +0.00    +0.000 OA
DOCKED: ENDROOT
DOCKED: BRANCH   6  32
DOCKED: ATOM     32  C   UNL d   1       0.772  -9.921  -7.158 -0.22 +0.01    +0.052 C 
DOCKED: BRANCH  32  33
DOCKED: ATOM     33  C   UNL d   1      -0.711  -9.867  -7.514 -0.13 +0.05    +0.115 C 
DOCKED: BRANCH  33  34
DOCKED: ATOM     34  C   UNL d   1      -0.944  -9.471  -8.951 -0.11 +0.08    +0.139 C 
DOCKED: ATOM     35  O   UNL d   1      -1.252 -10.322  -9.769 -0.01 -0.26    -0.650 OA
DOCKED: BRANCH  34  36
DOCKED: ATOM     36  O   UNL d   1      -0.791  -8.195  -9.362 +0.08 -0.92    -0.776 OA
DOCKED: ATOM     37  H   UNL d   1       0.077  -7.814  -9.536 +0.03 +0.17    +0.167 HD
DOCKED: ENDBRANCH  34  36
DOCKED: ENDBRANCH  33  34
DOCKED: ENDBRANCH  32  33
DOCKED: ENDBRANCH   6  32
DOCKED: BRANCH  22  38
DOCKED: ATOM     38  C   UNL d   1       3.824  -5.634  -8.617 -0.19 +0.01    +0.052 C 
DOCKED: BRANCH  38  39
DOCKED: ATOM     39  C   UNL d   1       2.643  -4.998  -9.349 -0.21 +0.04    +0.115 C 
DOCKED: BRANCH  39  40
DOCKED: ATOM     40  C   UNL d   1       1.665  -6.024  -9.865 -0.16 +0.08    +0.139 C 
DOCKED: ATOM     41  O   UNL d   1       2.051  -7.153 -10.123 +0.02 -0.27    -0.650 OA
DOCKED: BRANCH  40  42
DOCKED: ATOM     42  O   UNL d   1       0.357  -5.733  -9.998 -0.51 -1.03    -0.776 OA
DOCKED: ATOM     43  H   UNL d   1      -0.280  -6.394 -10.294 +0.03 +0.32    +0.167 HD
DOCKED: ENDBRANCH  40  42
DOCKED: ENDBRANCH  39  40
DOCKED: ENDBRANCH  38  39
DOCKED: ENDBRANCH  22  38
DOCKED: BRANCH  12  44
DOCKED: ATOM     44  C   UNL d   1       1.618  -7.511   2.354 -0.24 +0.00    +0.004 C 
DOCKED: ATOM     45  C   UNL d   1       1.623  -6.452   3.163 -0.55 +0.00    +0.012 C 
DOCKED: ENDBRANCH  12  44
DOCKED: BRANCH  17  46
DOCKED: ATOM     46  C   UNL d   1       5.076  -1.505  -2.004 -0.63 +0.00    +0.004 C 
DOCKED: ATOM     47  C   UNL d   1       4.664  -0.283  -1.639 -0.69 -0.00    +0.012 C 
DOCKED: ENDBRANCH  17  46
DOCKED: TORSDOF 10
DOCKED: TER
DOCKED: ENDMDL
________________________________________________________________________________


	BEGINNING GENETIC ALGORITHM DOCKING 13 of 100
Run: 13 Seed: 1437252455 595476648 [ Run 13 of 100 GA/GALS ]
Beginning LAMARCKIAN GENETIC ALGORITHM (LGA), with a maximum of 25000000 energy evaluations.

Final-Value: -19.533


	FINAL GENETIC ALGORITHM DOCKED STATE
	_______________________________________________


Detailed state:  trans 8.439 11.753 28.260 quatxyzw -0.740693 0.389346 0.540344 0.088388 center 8.287 34.468 -0.670 ntor 10 63.4277 -156.3708 27.2409 -110.3000 -177.5456 166.9246 -7.4588 63.0591 -144.3900 171.3942
State:	  8.439  11.753  28.260  -0.744  0.391  0.542 169.858     63.43 -156.37   27.24 -110.30 -177.55  166.92   -7.46   63.06 -144.39  171.39

DOCKED: MODEL       13
DOCKED: USER    Run = 13
DOCKED: USER    DPF = D:/Protein_go_brrr/autodock/final/1A3N/heme_O2/dock.dpf
DOCKED: USER  
DOCKED: USER    Estimated Free Energy of Binding    =  -14.43 kcal/mol  [=(1)+(2)+(3)-(4)]
DOCKED: USER    Estimated Inhibition Constant, Ki   =   26.53 pM (picomolar)  [Temperature = 298.15 K]
DOCKED: USER    
DOCKED: USER    (1) Final Intermolecular Energy     =  -17.41 kcal/mol
DOCKED: USER        vdW + Hbond + desolv Energy     =  -15.16 kcal/mol
DOCKED: USER        Electrostatic Energy            =   -2.26 kcal/mol
DOCKED: USER    (2) Final Total Internal Energy     =   -2.12 kcal/mol
DOCKED: USER    (3) Torsional Free Energy           =   +2.98 kcal/mol
DOCKED: USER    (4) Unbound System's Energy  [=(2)] =   -2.12 kcal/mol
DOCKED: USER    
DOCKED: USER    
DOCKED: USER    NEWDPF move heme_O2_opt.pdbqt
DOCKED: USER    NEWDPF about 8.287000 34.468000 -0.670000
DOCKED: USER    NEWDPF tran0 8.438918 11.752981 28.259698
DOCKED: USER    NEWDPF quaternion0 -0.740693 0.389346 0.540344 0.088388
DOCKED: USER    NEWDPF axisangle0 -0.743603 0.390876 0.542467 169.858277
DOCKED: USER    NEWDPF quat0 -0.743603 0.390876 0.542467 169.858277
DOCKED: USER    NEWDPF dihe0 63.43 -156.37 27.24 -110.30 -177.55 166.92 -7.46 63.06 -144.39 171.39 
DOCKED: USER  keepresnum = 1 
DOCKED: USER  
DOCKED: REMARK  10 active torsions:
DOCKED: REMARK  status: ('A' for Active; 'I' for Inactive)
DOCKED: REMARK    1  A    between atoms: C_6  and  C_10 
DOCKED: REMARK    2  A    between atoms: C_10  and  C_11 
DOCKED: REMARK    3  A    between atoms: C_11  and  C_12 
DOCKED: REMARK    4  A    between atoms: C_12  and  O_14 
DOCKED: REMARK    5  A    between atoms: C_17  and  C_20 
DOCKED: REMARK    6  A    between atoms: C_24  and  C_27 
DOCKED: REMARK    7  A    between atoms: C_31  and  C_34 
DOCKED: REMARK    8  A    between atoms: C_34  and  C_35 
DOCKED: REMARK    9  A    between atoms: C_35  and  C_36 
DOCKED: REMARK   10  A    between atoms: C_36  and  O_38 
DOCKED: USER                              x       y       z     vdW  Elec       q    Type
DOCKED: USER                           _______ _______ _______ _____ _____    ______ ____
DOCKED: ROOT
DOCKED: ATOM      1  C   UNL d   1       8.634  12.368  30.280 -0.24 +0.02    +0.064 A 
DOCKED: ATOM      2  C   UNL d   1       6.856  14.510  26.432 -0.39 +0.01    +0.064 A 
DOCKED: ATOM      3  C   UNL d   1       7.942  10.708  23.701 -0.26 +0.00    +0.064 C 
DOCKED: ATOM      4  C   UNL d   1       9.338   8.305  27.743 -0.40 +0.01    +0.064 A 
DOCKED: ATOM      5  C   UNL d   1       8.060  13.260  29.457 -0.26 +0.01    +0.066 A 
DOCKED: ATOM      6  C   UNL d   1       7.617  14.524  29.858 -0.35 -0.01    -0.021 A 
DOCKED: ATOM      7  C   UNL d   1       7.062  15.128  28.754 -0.40 -0.00    -0.025 A 
DOCKED: ATOM      8  C   UNL d   1       7.226  14.236  27.698 -0.35 +0.01    +0.066 A 
DOCKED: ATOM      9  C   UNL d   1       6.390  16.484  28.755 -0.44 +0.01    +0.051 C 
DOCKED: ATOM     10  C   UNL d   1       7.023  13.624  25.279 -0.36 +0.00    +0.066 A 
DOCKED: ATOM     11  C   UNL d   1       6.772  14.022  23.961 -0.36 -0.00    -0.021 A 
DOCKED: ATOM     12  C   UNL d   1       7.096  12.945  23.156 -0.39 +0.00    +0.000 A 
DOCKED: ATOM     13  C   UNL d   1       7.525  11.925  24.051 -0.33 +0.00    +0.070 A 
DOCKED: ATOM     14  C   UNL d   1       6.270  15.381  23.486 -0.45 +0.00    +0.052 C 
DOCKED: ATOM     15  C   UNL d   1       8.350   9.636  24.576 -0.38 +0.01    +0.066 A 
DOCKED: ATOM     16  C   UNL d   1       8.618   8.333  24.159 -0.56 -0.00    -0.021 A 
DOCKED: ATOM     17  C   UNL d   1       9.018   7.629  25.295 -0.50 +0.00    +0.000 A 
DOCKED: ATOM     18  C   UNL d   1       8.964   8.569  26.334 -0.38 +0.01    +0.070 A 
DOCKED: ATOM     19  C   UNL d   1       8.419   7.867  22.738 -0.25 +0.00    +0.052 C 
DOCKED: ATOM     20  C   UNL d   1       9.257   9.171  28.773 -0.39 +0.01    +0.066 A 
DOCKED: ATOM     21  C   UNL d   1       9.641   8.871  30.077 -0.41 -0.01    -0.025 A 
DOCKED: ATOM     22  C   UNL d   1       9.473  10.025  30.808 -0.37 -0.01    -0.021 A 
DOCKED: ATOM     23  C   UNL d   1       8.973  10.986  29.923 -0.32 +0.02    +0.066 A 
DOCKED: ATOM     24  C   UNL d   1      10.140   7.549  30.599 -0.32 +0.01    +0.051 C 
DOCKED: ATOM     25  N   UNL d   1       7.782  13.060  28.145 -0.16 -0.02    -0.248 N 
DOCKED: ATOM     26  N   UNL d   1       7.472  12.345  25.340 -0.23 -0.01    -0.248 N 
DOCKED: ATOM     27  N   UNL d   1       8.485   9.760  25.894 -0.22 -0.02    -0.248 N 
DOCKED: ATOM     28  N   UNL d   1       8.801  10.450  28.697 -0.26 -0.04    -0.248 N 
DOCKED: ATOM     29 FE   UNL d   1       8.142  11.388  27.030 -0.08 +0.00    +0.000 Fe
DOCKED: ATOM     30  O   UNL d   1       6.630  11.675  27.261 -0.44 +0.00    +0.000 OA
DOCKED: ATOM     31  O   UNL d   1       7.161  10.193  27.317 -0.75 +0.00    +0.000 OA
DOCKED: ENDROOT
DOCKED: BRANCH   6  32
DOCKED: ATOM     32  C   UNL d   1       7.588  15.092  31.253 -0.32 +0.02    +0.052 C 
DOCKED: BRANCH  32  33
DOCKED: ATOM     33  C   UNL d   1       6.719  14.277  32.207 -0.29 +0.07    +0.115 C 
DOCKED: BRANCH  33  34
DOCKED: ATOM     34  C   UNL d   1       6.878  14.710  33.643 -0.10 +0.18    +0.139 C 
DOCKED: ATOM     35  O   UNL d   1       7.126  15.878  33.897 -0.16 -0.84    -0.650 OA
DOCKED: BRANCH  34  36
DOCKED: ATOM     36  O   UNL d   1       6.781  13.828  34.659 +0.04 -1.28    -0.776 OA
DOCKED: ATOM     37  H   UNL d   1       7.404  13.099  34.764 +0.06 +0.17    +0.167 HD
DOCKED: ENDBRANCH  34  36
DOCKED: ENDBRANCH  33  34
DOCKED: ENDBRANCH  32  33
DOCKED: ENDBRANCH   6  32
DOCKED: BRANCH  22  38
DOCKED: ATOM     38  C   UNL d   1       9.719  10.172  32.287 -0.23 +0.03    +0.052 C 
DOCKED: BRANCH  38  39
DOCKED: ATOM     39  C   UNL d   1       8.499   9.787  33.121 -0.39 +0.05    +0.115 C 
DOCKED: BRANCH  39  40
DOCKED: ATOM     40  C   UNL d   1       7.971  10.940  33.937 -0.29 +0.07    +0.139 C 
DOCKED: ATOM     41  O   UNL d   1       8.740  11.611  34.607 +0.04 -0.45    -0.650 OA
DOCKED: BRANCH  40  42
DOCKED: ATOM     42  O   UNL d   1       6.668  11.279  33.900 +0.03 -0.42    -0.776 OA
DOCKED: ATOM     43  H   UNL d   1       6.375  12.179  34.085 +0.07 +0.14    +0.167 HD
DOCKED: ENDBRANCH  40  42
DOCKED: ENDBRANCH  39  40
DOCKED: ENDBRANCH  38  39
DOCKED: ENDBRANCH  22  38
DOCKED: BRANCH  12  44
DOCKED: ATOM     44  C   UNL d   1       6.963  12.998  21.649 -0.55 +0.00    +0.004 C 
DOCKED: ATOM     45  C   UNL d   1       6.829  11.978  20.802 -0.68 -0.00    +0.012 C 
DOCKED: ENDBRANCH  12  44
DOCKED: BRANCH  17  46
DOCKED: ATOM     46  C   UNL d   1       9.377   6.179  25.484 -0.64 +0.00    +0.004 C 
DOCKED: ATOM     47  C   UNL d   1       8.760   5.265  26.243 -0.75 +0.00    +0.012 C 
DOCKED: ENDBRANCH  17  46
DOCKED: TORSDOF 10
DOCKED: TER
DOCKED: ENDMDL
________________________________________________________________________________


	BEGINNING GENETIC ALGORITHM DOCKING 14 of 100
Run: 14 Seed: 1188097131 1627753624 [ Run 14 of 100 GA/GALS ]
Beginning LAMARCKIAN GENETIC ALGORITHM (LGA), with a maximum of 25000000 energy evaluations.

Final-Value: -14.289


	FINAL GENETIC ALGORITHM DOCKED STATE
	_______________________________________________


Detailed state:  trans 0.976 -7.873 -5.934 quatxyzw 0.693276 0.102869 0.711877 0.044909 center 8.287 34.468 -0.670 ntor 10 121.3876 106.6266 51.7564 17.1741 -137.6364 -6.9140 -61.8365 -64.0197 -145.3306 -9.3960
State:	  0.976  -7.873  -5.934   0.694  0.103  0.713 174.852    121.39  106.63   51.76   17.17 -137.64   -6.91  -61.84  -64.02 -145.33   -9.40

DOCKED: MODEL       14
DOCKED: USER    Run = 14
DOCKED: USER    DPF = D:/Protein_go_brrr/autodock/final/1A3N/heme_O2/dock.dpf
DOCKED: USER  
DOCKED: USER    Estimated Free Energy of Binding    =   -9.16 kcal/mol  [=(1)+(2)+(3)-(4)]
DOCKED: USER    Estimated Inhibition Constant, Ki   =  193.97 nM (nanomolar)  [Temperature = 298.15 K]
DOCKED: USER    
DOCKED: USER    (1) Final Intermolecular Energy     =  -12.14 kcal/mol
DOCKED: USER        vdW + Hbond + desolv Energy     =  -11.32 kcal/mol
DOCKED: USER        Electrostatic Energy            =   -0.82 kcal/mol
DOCKED: USER    (2) Final Total Internal Energy     =   -2.15 kcal/mol
DOCKED: USER    (3) Torsional Free Energy           =   +2.98 kcal/mol
DOCKED: USER    (4) Unbound System's Energy  [=(2)] =   -2.15 kcal/mol
DOCKED: USER    
DOCKED: USER    
DOCKED: USER    NEWDPF move heme_O2_opt.pdbqt
DOCKED: USER    NEWDPF about 8.287000 34.468000 -0.670000
DOCKED: USER    NEWDPF tran0 0.975805 -7.872522 -5.933787
DOCKED: USER    NEWDPF quaternion0 0.693276 0.102869 0.711877 0.044909
DOCKED: USER    NEWDPF axisangle0 0.693976 0.102973 0.712596 174.852065
DOCKED: USER    NEWDPF quat0 0.693976 0.102973 0.712596 174.852065
DOCKED: USER    NEWDPF dihe0 121.39 106.63 51.76 17.17 -137.64 -6.91 -61.84 -64.02 -145.33 -9.40 
DOCKED: USER  keepresnum = 1 
DOCKED: USER  
DOCKED: REMARK  10 active torsions:
DOCKED: REMARK  status: ('A' for Active; 'I' for Inactive)
DOCKED: REMARK    1  A    between atoms: C_6  and  C_10 
DOCKED: REMARK    2  A    between atoms: C_10  and  C_11 
DOCKED: REMARK    3  A    between atoms: C_11  and  C_12 
DOCKED: REMARK    4  A    between atoms: C_12  and  O_14 
DOCKED: REMARK    5  A    between atoms: C_17  and  C_20 
DOCKED: REMARK    6  A    between atoms: C_24  and  C_27 
DOCKED: REMARK    7  A    between atoms: C_31  and  C_34 
DOCKED: REMARK    8  A    between atoms: C_34  and  C_35 
DOCKED: REMARK    9  A    between atoms: C_35  and  C_36 
DOCKED: REMARK   10  A    between atoms: C_36  and  O_38 
DOCKED: USER                              x       y       z     vdW  Elec       q    Type
DOCKED: USER                           _______ _______ _______ _____ _____    ______ ____
DOCKED: ROOT
DOCKED: ATOM      1  C   UNL d   1       0.383  -8.773  -7.760 -0.20 +0.03    +0.064 A 
DOCKED: ATOM      2  C   UNL d   1       3.403  -5.249  -6.754 -0.30 +0.01    +0.064 A 
DOCKED: ATOM      3  C   UNL d   1       2.426  -5.627  -2.064 -0.39 +0.00    +0.064 C 
DOCKED: ATOM      4  C   UNL d   1      -0.323  -9.571  -3.037 -0.40 +0.00    +0.064 A 
DOCKED: ATOM      5  C   UNL d   1       1.285  -7.785  -7.869 -0.21 +0.03    +0.066 A 
DOCKED: ATOM      6  C   UNL d   1       1.817  -7.341  -9.083 -0.19 -0.01    -0.021 A 
DOCKED: ATOM      7  C   UNL d   1       2.724  -6.349  -8.790 -0.21 -0.01    -0.025 A 
DOCKED: ATOM      8  C   UNL d   1       2.686  -6.183  -7.408 -0.22 +0.02    +0.066 A 
DOCKED: ATOM      9  C   UNL d   1       3.590  -5.639  -9.807 -0.17 +0.01    +0.051 C 
DOCKED: ATOM     10  C   UNL d   1       3.388  -5.012  -5.310 -0.27 +0.01    +0.066 A 
DOCKED: ATOM     11  C   UNL d   1       4.026  -3.924  -4.702 -0.44 -0.00    -0.021 A 
DOCKED: ATOM     12  C   UNL d   1       3.741  -4.006  -3.352 -0.44 +0.00    +0.000 A 
DOCKED: ATOM     13  C   UNL d   1       2.937  -5.171  -3.207 -0.31 +0.01    +0.070 A 
DOCKED: ATOM     14  C   UNL d   1       4.849  -2.838  -5.384 -0.46 +0.01    +0.052 C 
DOCKED: ATOM     15  C   UNL d   1       1.638  -6.820  -1.871 -0.31 +0.00    +0.066 A 
DOCKED: ATOM     16  C   UNL d   1       1.271  -7.332  -0.626 -0.35 -0.00    -0.021 A 
DOCKED: ATOM     17  C   UNL d   1       0.487  -8.458  -0.879 -0.46 +0.00    +0.000 A 
DOCKED: ATOM     18  C   UNL d   1       0.432  -8.548  -2.277 -0.39 +0.00    +0.070 A 
DOCKED: ATOM     19  C   UNL d   1       1.742  -6.740   0.678 -0.44 +0.00    +0.052 C 
DOCKED: ATOM     20  C   UNL d   1      -0.362  -9.712  -4.377 -0.31 +0.01    +0.066 A 
DOCKED: ATOM     21  C   UNL d   1      -1.107 -10.685  -5.037 -0.23 -0.00    -0.025 A 
DOCKED: ATOM     22  C   UNL d   1      -0.939 -10.456  -6.385 -0.18 -0.01    -0.021 A 
DOCKED: ATOM     23  C   UNL d   1      -0.081  -9.359  -6.497 -0.21 +0.02    +0.066 A 
DOCKED: ATOM     24  C   UNL d   1      -1.934 -11.780  -4.415 -0.27 +0.00    +0.051 C 
DOCKED: ATOM     25  N   UNL d   1       1.848  -7.112  -6.836 -0.11 -0.09    -0.248 N 
DOCKED: ATOM     26  N   UNL d   1       2.732  -5.779  -4.403 -0.15 -0.05    -0.248 N 
DOCKED: ATOM     27  N   UNL d   1       1.198  -7.591  -2.861 -0.23 -0.02    -0.248 N 
DOCKED: ATOM     28  N   UNL d   1       0.304  -8.938  -5.274 -0.19 -0.06    -0.248 N 
DOCKED: ATOM     29 FE   UNL d   1       1.509  -7.371  -4.839 -0.08 +0.00    +0.000 Fe
DOCKED: ATOM     30  O   UNL d   1       2.940  -7.784  -5.291 -0.37 +0.00    +0.000 OA
DOCKED: ATOM     31  O   UNL d   1       2.173  -8.660  -4.230 -0.12 +0.00    +0.000 OA
DOCKED: ENDROOT
DOCKED: BRANCH   6  32
DOCKED: ATOM     32  C   UNL d   1       1.587  -7.915 -10.457 -0.10 +0.02    +0.052 C 
DOCKED: BRANCH  32  33
DOCKED: ATOM     33  C   UNL d   1       2.060  -9.360 -10.582 -0.07 +0.03    +0.115 C 
DOCKED: BRANCH  33  34
DOCKED: ATOM     34  C   UNL d   1       0.925 -10.316 -10.853 -0.04 +0.03    +0.139 C 
DOCKED: ATOM     35  O   UNL d   1       0.382 -10.312 -11.947 +0.02 -0.15    -0.650 OA
DOCKED: BRANCH  34  36
DOCKED: ATOM     36  O   UNL d   1       0.474 -11.160  -9.903 +0.04 -0.16    -0.776 OA
DOCKED: ATOM     37  H   UNL d   1      -0.444 -11.153  -9.607 +0.02 +0.04    +0.167 HD
DOCKED: ENDBRANCH  34  36
DOCKED: ENDBRANCH  33  34
DOCKED: ENDBRANCH  32  33
DOCKED: ENDBRANCH   6  32
DOCKED: BRANCH  22  38
DOCKED: ATOM     38  C   UNL d   1      -1.523 -11.289  -7.496 -0.13 +0.01    +0.052 C 
DOCKED: BRANCH  38  39
DOCKED: ATOM     39  C   UNL d   1      -2.872 -10.757  -7.976 -0.09 +0.04    +0.115 C 
DOCKED: BRANCH  39  40
DOCKED: ATOM     40  C   UNL d   1      -2.824 -10.265  -9.401 -0.08 +0.07    +0.139 C 
DOCKED: ATOM     41  O   UNL d   1      -3.738 -10.530 -10.165 -0.01 -0.24    -0.650 OA
DOCKED: BRANCH  40  42
DOCKED: ATOM     42  O   UNL d   1      -1.810  -9.492  -9.836 +0.01 -0.51    -0.776 OA
DOCKED: ATOM     43  H   UNL d   1      -1.148  -9.827 -10.453 +0.02 +0.08    +0.167 HD
DOCKED: ENDBRANCH  40  42
DOCKED: ENDBRANCH  39  40
DOCKED: ENDBRANCH  38  39
DOCKED: ENDBRANCH  22  38
DOCKED: BRANCH  12  44
DOCKED: ATOM     44  C   UNL d   1       4.257  -2.986  -2.358 -0.51 +0.00    +0.004 C 
DOCKED: ATOM     45  C   UNL d   1       4.846  -3.211  -1.185 -0.55 +0.00    +0.012 C 
DOCKED: ENDBRANCH  12  44
DOCKED: BRANCH  17  46
DOCKED: ATOM     46  C   UNL d   1      -0.143  -9.453   0.058 -0.57 -0.00    +0.004 C 
DOCKED: ATOM     47  C   UNL d   1      -0.256  -9.381   1.391 -0.68 -0.00    +0.012 C 
DOCKED: ENDBRANCH  17  46
DOCKED: TORSDOF 10
DOCKED: TER
DOCKED: ENDMDL
________________________________________________________________________________


	BEGINNING GENETIC ALGORITHM DOCKING 15 of 100
Run: 15 Seed: 399384651 1861594665 [ Run 15 of 100 GA/GALS ]
Beginning LAMARCKIAN GENETIC ALGORITHM (LGA), with a maximum of 25000000 energy evaluations.

Final-Value: -18.004


	FINAL GENETIC ALGORITHM DOCKED STATE
	_______________________________________________


Detailed state:  trans 2.588 -6.829 -4.348 quatxyzw -0.149530 -0.472767 0.297987 -0.815681 center 8.287 34.468 -0.670 ntor 10 -8.6317 137.5886 42.1315 -48.7039 176.4575 -21.0590 8.1271 66.6854 -128.0863 174.0036
State:	  2.588  -6.829  -4.348  -0.258 -0.817  0.515 -70.690     -8.63  137.59   42.13  -48.70  176.46  -21.06    8.13   66.69 -128.09  174.00

DOCKED: MODEL       15
DOCKED: USER    Run = 15
DOCKED: USER    DPF = D:/Protein_go_brrr/autodock/final/1A3N/heme_O2/dock.dpf
DOCKED: USER  
DOCKED: USER    Estimated Free Energy of Binding    =  -12.88 kcal/mol  [=(1)+(2)+(3)-(4)]
DOCKED: USER    Estimated Inhibition Constant, Ki   =  362.02 pM (picomolar)  [Temperature = 298.15 K]
DOCKED: USER    
DOCKED: USER    (1) Final Intermolecular Energy     =  -15.86 kcal/mol
DOCKED: USER        vdW + Hbond + desolv Energy     =  -14.46 kcal/mol
DOCKED: USER        Electrostatic Energy            =   -1.41 kcal/mol
DOCKED: USER    (2) Final Total Internal Energy     =   -2.14 kcal/mol
DOCKED: USER    (3) Torsional Free Energy           =   +2.98 kcal/mol
DOCKED: USER    (4) Unbound System's Energy  [=(2)] =   -2.14 kcal/mol
DOCKED: USER    
DOCKED: USER    
DOCKED: USER    NEWDPF move heme_O2_opt.pdbqt
DOCKED: USER    NEWDPF about 8.287000 34.468000 -0.670000
DOCKED: USER    NEWDPF tran0 2.587892 -6.828712 -4.347843
DOCKED: USER    NEWDPF quaternion0 -0.149530 -0.472767 0.297987 -0.815681
DOCKED: USER    NEWDPF axisangle0 -0.258478 -0.817227 0.515101 -70.690468
DOCKED: USER    NEWDPF quat0 -0.258478 -0.817227 0.515101 -70.690468
DOCKED: USER    NEWDPF dihe0 -8.63 137.59 42.13 -48.70 176.46 -21.06 8.13 66.69 -128.09 174.00 
DOCKED: USER  keepresnum = 1 
DOCKED: USER  
DOCKED: REMARK  10 active torsions:
DOCKED: REMARK  status: ('A' for Active; 'I' for Inactive)
DOCKED: REMARK    1  A    between atoms: C_6  and  C_10 
DOCKED: REMARK    2  A    between atoms: C_10  and  C_11 
DOCKED: REMARK    3  A    between atoms: C_11  and  C_12 
DOCKED: REMARK    4  A    between atoms: C_12  and  O_14 
DOCKED: REMARK    5  A    between atoms: C_17  and  C_20 
DOCKED: REMARK    6  A    between atoms: C_24  and  C_27 
DOCKED: REMARK    7  A    between atoms: C_31  and  C_34 
DOCKED: REMARK    8  A    between atoms: C_34  and  C_35 
DOCKED: REMARK    9  A    between atoms: C_35  and  C_36 
DOCKED: REMARK   10  A    between atoms: C_36  and  O_38 
DOCKED: USER                              x       y       z     vdW  Elec       q    Type
DOCKED: USER                           _______ _______ _______ _____ _____    ______ ____
DOCKED: ROOT
DOCKED: ATOM      1  C   UNL d   1       2.367  -7.504  -6.347 -0.28 +0.02    +0.064 A 
DOCKED: ATOM      2  C   UNL d   1       0.558  -9.027  -2.227 -0.39 +0.00    +0.064 A 
DOCKED: ATOM      3  C   UNL d   1       2.940  -5.620   0.184 -0.39 +0.00    +0.064 C 
DOCKED: ATOM      4  C   UNL d   1       4.430  -3.746  -4.097 -0.42 +0.01    +0.064 A 
DOCKED: ATOM      5  C   UNL d   1       1.679  -8.195  -5.423 -0.32 +0.01    +0.066 A 
DOCKED: ATOM      6  C   UNL d   1       0.870  -9.297  -5.713 -0.29 -0.00    -0.021 A 
DOCKED: ATOM      7  C   UNL d   1       0.311  -9.712  -4.526 -0.32 -0.00    -0.025 A 
DOCKED: ATOM      8  C   UNL d   1       0.833  -8.882  -3.538 -0.35 +0.01    +0.066 A 
DOCKED: ATOM      9  C   UNL d   1      -0.694 -10.835  -4.389 -0.31 +0.00    +0.051 C 
DOCKED: ATOM     10  C   UNL d   1       1.093  -8.203  -1.143 -0.39 +0.00    +0.066 A 
DOCKED: ATOM     11  C   UNL d   1       0.906  -8.497   0.212 -0.47 -0.00    -0.021 A 
DOCKED: ATOM     12  C   UNL d   1       1.600  -7.536   0.924 -0.44 +0.00    +0.000 A 
DOCKED: ATOM     13  C   UNL d   1       2.174  -6.684  -0.059 -0.39 +0.00    +0.070 A 
DOCKED: ATOM     14  C   UNL d   1       0.120  -9.663   0.803 -0.58 -0.00    +0.052 C 
DOCKED: ATOM     15  C   UNL d   1       3.511  -4.712  -0.781 -0.36 +0.00    +0.066 A 
DOCKED: ATOM     16  C   UNL d   1       4.166  -3.524  -0.457 -0.45 -0.00    -0.021 A 
DOCKED: ATOM     17  C   UNL d   1       4.599  -2.971  -1.663 -0.47 +0.00    +0.000 A 
DOCKED: ATOM     18  C   UNL d   1       4.171  -3.877  -2.644 -0.39 +0.00    +0.070 A 
DOCKED: ATOM     19  C   UNL d   1       4.270  -3.000   0.953 -0.55 +0.00    +0.052 C 
DOCKED: ATOM     20  C   UNL d   1       3.998  -4.572  -5.069 -0.40 +0.01    +0.066 A 
DOCKED: ATOM     21  C   UNL d   1       4.288  -4.407  -6.421 -0.41 -0.00    -0.025 A 
DOCKED: ATOM     22  C   UNL d   1       3.731  -5.483  -7.074 -0.25 -0.00    -0.021 A 
DOCKED: ATOM     23  C   UNL d   1       3.104  -6.260  -6.095 -0.21 +0.01    +0.066 A 
DOCKED: ATOM     24  C   UNL d   1       5.055  -3.277  -7.057 -0.49 +0.00    +0.051 C 
DOCKED: ATOM     25  N   UNL d   1       1.624  -7.907  -4.100 -0.22 -0.03    -0.248 N 
DOCKED: ATOM     26  N   UNL d   1       1.857  -7.094  -1.314 -0.22 +0.00    -0.248 N 
DOCKED: ATOM     27  N   UNL d   1       3.448  -4.888  -2.098 -0.23 -0.01    -0.248 N 
DOCKED: ATOM     28  N   UNL d   1       3.230  -5.679  -4.884 -0.25 -0.04    -0.248 N 
DOCKED: ATOM     29 FE   UNL d   1       2.549  -6.379  -3.111 -0.09 -0.00    +0.000 Fe
DOCKED: ATOM     30  O   UNL d   1       0.999  -6.249  -3.158 +0.01 +0.00    +0.000 OA
DOCKED: ATOM     31  O   UNL d   1       1.896  -4.967  -3.343 -0.61 +0.00    +0.000 OA
DOCKED: ENDROOT
DOCKED: BRANCH   6  32
DOCKED: ATOM     32  C   UNL d   1       0.523  -9.857  -7.068 -0.23 +0.01    +0.052 C 
DOCKED: BRANCH  32  33
DOCKED: ATOM     33  C   UNL d   1       0.165  -8.774  -8.082 -0.18 +0.07    +0.115 C 
DOCKED: BRANCH  33  34
DOCKED: ATOM     34  C   UNL d   1      -0.318  -9.349  -9.391 -0.12 +0.08    +0.139 C 
DOCKED: ATOM     35  O   UNL d   1      -0.823 -10.460  -9.412 +0.00 -0.24    -0.650 OA
DOCKED: BRANCH  34  36
DOCKED: ATOM     36  O   UNL d   1      -0.178  -8.673 -10.550 -0.00 -0.49    -0.776 OA
DOCKED: ATOM     37  H   UNL d   1       0.124  -7.757 -10.574 +0.02 +0.14    +0.167 HD
DOCKED: ENDBRANCH  34  36
DOCKED: ENDBRANCH  33  34
DOCKED: ENDBRANCH  32  33
DOCKED: ENDBRANCH   6  32
DOCKED: BRANCH  22  38
DOCKED: ATOM     38  C   UNL d   1       3.750  -5.713  -8.563 -0.18 +0.01    +0.052 C 
DOCKED: BRANCH  38  39
DOCKED: ATOM     39  C   UNL d   1       2.623  -4.973  -9.280 -0.21 +0.04    +0.115 C 
DOCKED: BRANCH  39  40
DOCKED: ATOM     40  C   UNL d   1       1.625  -5.912  -9.910 -0.17 +0.08    +0.139 C 
DOCKED: ATOM     41  O   UNL d   1       0.444  -5.830  -9.613 -0.47 -0.86    -0.650 OA
DOCKED: BRANCH  40  42
DOCKED: ATOM     42  O   UNL d   1       2.006  -6.812 -10.837 +0.05 -0.31    -0.776 OA
DOCKED: ATOM     43  H   UNL d   1       1.644  -7.706 -10.851 +0.03 +0.07    +0.167 HD
DOCKED: ENDBRANCH  40  42
DOCKED: ENDBRANCH  39  40
DOCKED: ENDBRANCH  38  39
DOCKED: ENDBRANCH  22  38
DOCKED: BRANCH  12  44
DOCKED: ATOM     44  C   UNL d   1       1.640  -7.529   2.438 -0.21 +0.00    +0.004 C 
DOCKED: ATOM     45  C   UNL d   1       1.614  -6.475   3.252 -0.55 +0.00    +0.012 C 
DOCKED: ENDBRANCH  12  44
DOCKED: BRANCH  17  46
DOCKED: ATOM     46  C   UNL d   1       5.306  -1.676  -1.958 -0.64 +0.00    +0.004 C 
DOCKED: ATOM     47  C   UNL d   1       4.930  -0.433  -1.630 -0.70 +0.00    +0.012 C 
DOCKED: ENDBRANCH  17  46
DOCKED: TORSDOF 10
DOCKED: TER
DOCKED: ENDMDL
________________________________________________________________________________


	BEGINNING GENETIC ALGORITHM DOCKING 16 of 100
Run: 16 Seed: 1501386676 516385042 [ Run 16 of 100 GA/GALS ]
Beginning LAMARCKIAN GENETIC ALGORITHM (LGA), with a maximum of 25000000 energy evaluations.

Final-Value: -16.974


	FINAL GENETIC ALGORITHM DOCKED STATE
	_______________________________________________


Detailed state:  trans 3.002 -6.169 -4.512 quatxyzw 0.152269 0.500949 -0.297996 0.798162 center 8.287 34.468 -0.670 ntor 10 111.5017 106.1816 144.1744 -68.8667 -143.2841 46.5182 -35.0275 68.0574 -176.0936 -159.9502
State:	  3.002  -6.169  -4.512   0.253  0.832 -0.495 74.090    111.50  106.18  144.17  -68.87 -143.28   46.52  -35.03   68.06 -176.09 -159.95

DOCKED: MODEL       16
DOCKED: USER    Run = 16
DOCKED: USER    DPF = D:/Protein_go_brrr/autodock/final/1A3N/heme_O2/dock.dpf
DOCKED: USER  
DOCKED: USER    Estimated Free Energy of Binding    =  -12.69 kcal/mol  [=(1)+(2)+(3)-(4)]
DOCKED: USER    Estimated Inhibition Constant, Ki   =  497.35 pM (picomolar)  [Temperature = 298.15 K]
DOCKED: USER    
DOCKED: USER    (1) Final Intermolecular Energy     =  -15.67 kcal/mol
DOCKED: USER        vdW + Hbond + desolv Energy     =  -14.38 kcal/mol
DOCKED: USER        Electrostatic Energy            =   -1.30 kcal/mol
DOCKED: USER    (2) Final Total Internal Energy     =   -1.30 kcal/mol
DOCKED: USER    (3) Torsional Free Energy           =   +2.98 kcal/mol
DOCKED: USER    (4) Unbound System's Energy  [=(2)] =   -1.30 kcal/mol
DOCKED: USER    
DOCKED: USER    
DOCKED: USER    NEWDPF move heme_O2_opt.pdbqt
DOCKED: USER    NEWDPF about 8.287000 34.468000 -0.670000
DOCKED: USER    NEWDPF tran0 3.001760 -6.168553 -4.512199
DOCKED: USER    NEWDPF quaternion0 0.152269 0.500949 -0.297996 0.798162
DOCKED: USER    NEWDPF axisangle0 0.252752 0.831530 -0.494646 74.090085
DOCKED: USER    NEWDPF quat0 0.252752 0.831530 -0.494646 74.090085
DOCKED: USER    NEWDPF dihe0 111.50 106.18 144.17 -68.87 -143.28 46.52 -35.03 68.06 -176.09 -159.95 
DOCKED: USER  keepresnum = 1 
DOCKED: USER  
DOCKED: REMARK  10 active torsions:
DOCKED: REMARK  status: ('A' for Active; 'I' for Inactive)
DOCKED: REMARK    1  A    between atoms: C_6  and  C_10 
DOCKED: REMARK    2  A    between atoms: C_10  and  C_11 
DOCKED: REMARK    3  A    between atoms: C_11  and  C_12 
DOCKED: REMARK    4  A    between atoms: C_12  and  O_14 
DOCKED: REMARK    5  A    between atoms: C_17  and  C_20 
DOCKED: REMARK    6  A    between atoms: C_24  and  C_27 
DOCKED: REMARK    7  A    between atoms: C_31  and  C_34 
DOCKED: REMARK    8  A    between atoms: C_34  and  C_35 
DOCKED: REMARK    9  A    between atoms: C_35  and  C_36 
DOCKED: REMARK   10  A    between atoms: C_36  and  O_38 
DOCKED: USER                              x       y       z     vdW  Elec       q    Type
DOCKED: USER                           _______ _______ _______ _____ _____    ______ ____
DOCKED: ROOT
DOCKED: ATOM      1  C   UNL d   1       2.920  -6.832  -6.525 -0.22 +0.01    +0.064 A 
DOCKED: ATOM      2  C   UNL d   1       0.877  -8.416  -2.541 -0.36 +0.00    +0.064 A 
DOCKED: ATOM      3  C   UNL d   1       3.043  -4.989   0.041 -0.37 +0.00    +0.064 C 
DOCKED: ATOM      4  C   UNL d   1       4.773  -3.058  -4.124 -0.45 +0.01    +0.064 A 
DOCKED: ATOM      5  C   UNL d   1       2.186  -7.541  -5.653 -0.32 +0.01    +0.066 A 
DOCKED: ATOM      6  C   UNL d   1       1.416  -8.654  -6.001 -0.31 -0.01    -0.021 A 
DOCKED: ATOM      7  C   UNL d   1       0.789  -9.087  -4.855 -0.33 -0.00    -0.025 A 
DOCKED: ATOM      8  C   UNL d   1       1.233  -8.256  -3.830 -0.29 +0.01    +0.066 A 
DOCKED: ATOM      9  C   UNL d   1      -0.204 -10.227  -4.790 -0.31 +0.01    +0.051 C 
DOCKED: ATOM     10  C   UNL d   1       1.328  -7.591  -1.419 -0.34 +0.00    +0.066 A 
DOCKED: ATOM     11  C   UNL d   1       1.059  -7.899  -0.081 -0.43 -0.00    -0.021 A 
DOCKED: ATOM     12  C   UNL d   1       1.690  -6.932   0.680 -0.43 +0.00    +0.000 A 
DOCKED: ATOM     13  C   UNL d   1       2.312  -6.063  -0.258 -0.38 +0.00    +0.070 A 
DOCKED: ATOM     14  C   UNL d   1       0.257  -9.081   0.451 -0.56 -0.00    +0.052 C 
DOCKED: ATOM     15  C   UNL d   1       3.659  -4.064  -0.879 -0.37 +0.00    +0.066 A 
DOCKED: ATOM     16  C   UNL d   1       4.272  -2.868  -0.507 -0.48 -0.00    -0.021 A 
DOCKED: ATOM     17  C   UNL d   1       4.772  -2.300  -1.678 -0.50 +0.00    +0.000 A 
DOCKED: ATOM     18  C   UNL d   1       4.424  -3.205  -2.691 -0.40 +0.01    +0.070 A 
DOCKED: ATOM     19  C   UNL d   1       4.278  -2.354   0.911 -0.53 +0.00    +0.052 C 
DOCKED: ATOM     20  C   UNL d   1       4.417  -3.884  -5.127 -0.43 +0.01    +0.066 A 
DOCKED: ATOM     21  C   UNL d   1       4.791  -3.704  -6.456 -0.46 -0.00    -0.025 A 
DOCKED: ATOM     22  C   UNL d   1       4.295  -4.784  -7.150 -0.34 -0.00    -0.021 A 
DOCKED: ATOM     23  C   UNL d   1       3.619  -5.578  -6.219 -0.28 +0.01    +0.066 A 
DOCKED: ATOM     24  C   UNL d   1       5.578  -2.557  -7.034 -0.08 +0.00    +0.051 C 
DOCKED: ATOM     25  N   UNL d   1       2.042  -7.264  -4.333 -0.19 -0.03    -0.248 N 
DOCKED: ATOM     26  N   UNL d   1       2.082  -6.468  -1.533 -0.22 +0.00    -0.248 N 
DOCKED: ATOM     27  N   UNL d   1       3.684  -4.231  -2.199 -0.23 -0.01    -0.248 N 
DOCKED: ATOM     28  N   UNL d   1       3.657  -5.004  -4.998 -0.26 -0.04    -0.248 N 
DOCKED: ATOM     29 FE   UNL d   1       2.877  -5.728  -3.277 -0.08 +0.00    +0.000 Fe
DOCKED: ATOM     30  O   UNL d   1       1.330  -5.624  -3.423 -0.10 +0.00    +0.000 OA
DOCKED: ATOM     31  O   UNL d   1       2.216  -4.326  -3.541 -0.73 +0.00    +0.000 OA
DOCKED: ENDROOT
DOCKED: BRANCH   6  32
DOCKED: ATOM     32  C   UNL d   1       1.165  -9.209  -7.379 -0.24 +0.02    +0.052 C 
DOCKED: BRANCH  32  33
DOCKED: ATOM     33  C   UNL d   1      -0.093  -8.639  -8.027 -0.10 +0.08    +0.115 C 
DOCKED: BRANCH  33  34
DOCKED: ATOM     34  C   UNL d   1       0.074  -8.416  -9.510 -0.13 +0.10    +0.139 C 
DOCKED: ATOM     35  O   UNL d   1       0.232  -9.374 -10.250 +0.01 -0.28    -0.650 OA
DOCKED: BRANCH  34  36
DOCKED: ATOM     36  O   UNL d   1       0.083  -7.175 -10.038 -0.39 -0.96    -0.776 OA
DOCKED: ATOM     37  H   UNL d   1       0.877  -6.789 -10.425 +0.04 +0.13    +0.167 HD
DOCKED: ENDBRANCH  34  36
DOCKED: ENDBRANCH  33  34
DOCKED: ENDBRANCH  32  33
DOCKED: ENDBRANCH   6  32
DOCKED: BRANCH  22  38
DOCKED: ATOM     38  C   UNL d   1       4.413  -5.002  -8.637 -0.21 +0.01    +0.052 C 
DOCKED: BRANCH  38  39
DOCKED: ATOM     39  C   UNL d   1       3.802  -3.858  -9.443 -0.23 +0.02    +0.115 C 
DOCKED: BRANCH  39  40
DOCKED: ATOM     40  C   UNL d   1       2.577  -4.284 -10.212 -0.17 +0.04    +0.139 C 
DOCKED: ATOM     41  O   UNL d   1       2.101  -3.541 -11.055 +0.04 -0.21    -0.650 OA
DOCKED: BRANCH  40  42
DOCKED: ATOM     42  O   UNL d   1       2.024  -5.498 -10.022 +0.06 -0.36    -0.776 OA
DOCKED: ATOM     43  H   UNL d   1       1.176  -5.602  -9.574 +0.05 +0.13    +0.167 HD
DOCKED: ENDBRANCH  40  42
DOCKED: ENDBRANCH  39  40
DOCKED: ENDBRANCH  38  39
DOCKED: ENDBRANCH  22  38
DOCKED: BRANCH  12  44
DOCKED: ATOM     44  C   UNL d   1       1.632  -6.936   2.194 -0.48 +0.00    +0.004 C 
DOCKED: ATOM     45  C   UNL d   1       0.589  -7.219   2.973 -0.56 +0.00    +0.012 C 
DOCKED: ENDBRANCH  12  44
DOCKED: BRANCH  17  46
DOCKED: ATOM     46  C   UNL d   1       5.476  -0.991  -1.919 -0.63 +0.00    +0.004 C 
DOCKED: ATOM     47  C   UNL d   1       4.947   0.239  -1.959 -0.62 -0.00    +0.012 C 
DOCKED: ENDBRANCH  17  46
DOCKED: TORSDOF 10
DOCKED: TER
DOCKED: ENDMDL
________________________________________________________________________________


	BEGINNING GENETIC ALGORITHM DOCKING 17 of 100
Run: 17 Seed: 1423077896 580857638 [ Run 17 of 100 GA/GALS ]
Beginning LAMARCKIAN GENETIC ALGORITHM (LGA), with a maximum of 25000000 energy evaluations.

Final-Value: -20.045


	FINAL GENETIC ALGORITHM DOCKED STATE
	_______________________________________________


Detailed state:  trans 8.507 11.607 28.535 quatxyzw 0.745474 -0.380641 -0.541495 -0.078509 center 8.287 34.468 -0.670 ntor 10 110.4338 139.9408 31.5284 -104.4508 -180.0000 -48.8914 -50.6811 88.9699 -174.1886 179.9754
State:	  8.507  11.607  28.535   0.748 -0.382 -0.543 -170.994    110.43  139.94   31.53 -104.45 -180.00  -48.89  -50.68   88.97 -174.19  179.98

DOCKED: MODEL       17
DOCKED: USER    Run = 17
DOCKED: USER    DPF = D:/Protein_go_brrr/autodock/final/1A3N/heme_O2/dock.dpf
DOCKED: USER  
DOCKED: USER    Estimated Free Energy of Binding    =  -14.45 kcal/mol  [=(1)+(2)+(3)-(4)]
DOCKED: USER    Estimated Inhibition Constant, Ki   =   25.44 pM (picomolar)  [Temperature = 298.15 K]
DOCKED: USER    
DOCKED: USER    (1) Final Intermolecular Energy     =  -17.44 kcal/mol
DOCKED: USER        vdW + Hbond + desolv Energy     =  -15.51 kcal/mol
DOCKED: USER        Electrostatic Energy            =   -1.93 kcal/mol
DOCKED: USER    (2) Final Total Internal Energy     =   -2.61 kcal/mol
DOCKED: USER    (3) Torsional Free Energy           =   +2.98 kcal/mol
DOCKED: USER    (4) Unbound System's Energy  [=(2)] =   -2.61 kcal/mol
DOCKED: USER    
DOCKED: USER    
DOCKED: USER    NEWDPF move heme_O2_opt.pdbqt
DOCKED: USER    NEWDPF about 8.287000 34.468000 -0.670000
DOCKED: USER    NEWDPF tran0 8.507403 11.606668 28.534914
DOCKED: USER    NEWDPF quaternion0 0.745474 -0.380641 -0.541495 -0.078509
DOCKED: USER    NEWDPF axisangle0 0.747782 -0.381819 -0.543172 -170.994224
DOCKED: USER    NEWDPF quat0 0.747782 -0.381819 -0.543172 -170.994224
DOCKED: USER    NEWDPF dihe0 110.43 139.94 31.53 -104.45 -180.00 -48.89 -50.68 88.97 -174.19 179.98 
DOCKED: USER  keepresnum = 1 
DOCKED: USER  
DOCKED: REMARK  10 active torsions:
DOCKED: REMARK  status: ('A' for Active; 'I' for Inactive)
DOCKED: REMARK    1  A    between atoms: C_6  and  C_10 
DOCKED: REMARK    2  A    between atoms: C_10  and  C_11 
DOCKED: REMARK    3  A    between atoms: C_11  and  C_12 
DOCKED: REMARK    4  A    between atoms: C_12  and  O_14 
DOCKED: REMARK    5  A    between atoms: C_17  and  C_20 
DOCKED: REMARK    6  A    between atoms: C_24  and  C_27 
DOCKED: REMARK    7  A    between atoms: C_31  and  C_34 
DOCKED: REMARK    8  A    between atoms: C_34  and  C_35 
DOCKED: REMARK    9  A    between atoms: C_35  and  C_36 
DOCKED: REMARK   10  A    between atoms: C_36  and  O_38 
DOCKED: USER                              x       y       z     vdW  Elec       q    Type
DOCKED: USER                           _______ _______ _______ _____ _____    ______ ____
DOCKED: ROOT
DOCKED: ATOM      1  C   UNL d   1       8.679  12.171  30.572 -0.27 +0.02    +0.064 A 
DOCKED: ATOM      2  C   UNL d   1       6.926  14.401  26.763 -0.38 +0.01    +0.064 A 
DOCKED: ATOM      3  C   UNL d   1       8.060  10.677  23.946 -0.40 +0.00    +0.064 C 
DOCKED: ATOM      4  C   UNL d   1       9.432   8.179  27.939 -0.36 +0.01    +0.064 A 
DOCKED: ATOM      5  C   UNL d   1       8.108  13.081  29.767 -0.21 +0.02    +0.066 A 
DOCKED: ATOM      6  C   UNL d   1       7.654  14.331  30.196 -0.33 -0.01    -0.021 A 
DOCKED: ATOM      7  C   UNL d   1       7.106  14.960  29.102 -0.39 -0.01    -0.025 A 
DOCKED: ATOM      8  C   UNL d   1       7.286  14.097  28.025 -0.34 +0.01    +0.066 A 
DOCKED: ATOM      9  C   UNL d   1       6.426  16.311  29.132 -0.45 +0.01    +0.051 C 
DOCKED: ATOM     10  C   UNL d   1       7.109  13.546  25.590 -0.36 +0.00    +0.066 A 
DOCKED: ATOM     11  C   UNL d   1       6.868  13.976  24.280 -0.35 -0.00    -0.021 A 
DOCKED: ATOM     12  C   UNL d   1       7.207  12.922  23.451 -0.38 +0.00    +0.000 A 
DOCKED: ATOM     13  C   UNL d   1       7.632  11.882  24.323 -0.34 +0.00    +0.070 A 
DOCKED: ATOM     14  C   UNL d   1       6.363  15.344  23.836 -0.45 +0.00    +0.052 C 
DOCKED: ATOM     15  C   UNL d   1       8.466   9.585  24.798 -0.39 +0.01    +0.066 A 
DOCKED: ATOM     16  C   UNL d   1       8.746   8.295  24.349 -0.55 -0.00    -0.021 A 
DOCKED: ATOM     17  C   UNL d   1       9.138   7.564  25.471 -0.49 +0.00    +0.000 A 
DOCKED: ATOM     18  C   UNL d   1       9.069   8.476  26.533 -0.38 +0.01    +0.070 A 
DOCKED: ATOM     19  C   UNL d   1       8.563   7.864  22.915 -0.34 +0.00    +0.052 C 
DOCKED: ATOM     20  C   UNL d   1       9.336   9.017  28.989 -0.39 +0.01    +0.066 A 
DOCKED: ATOM     21  C   UNL d   1       9.709   8.685  30.289 -0.41 -0.01    -0.025 A 
DOCKED: ATOM     22  C   UNL d   1       9.527   9.820  31.048 -0.39 -0.01    -0.021 A 
DOCKED: ATOM     23  C   UNL d   1       9.030  10.800  30.183 -0.32 +0.02    +0.066 A 
DOCKED: ATOM     24  C   UNL d   1      10.211   7.353  30.782 -0.21 +0.01    +0.051 C 
DOCKED: ATOM     25  N   UNL d   1       7.844  12.912  28.448 -0.19 -0.03    -0.248 N 
DOCKED: ATOM     26  N   UNL d   1       7.565  12.269  25.622 -0.23 -0.01    -0.248 N 
DOCKED: ATOM     27  N   UNL d   1       8.588   9.676  26.119 -0.22 -0.02    -0.248 N 
DOCKED: ATOM     28  N   UNL d   1       8.873  10.294  28.942 -0.27 -0.05    -0.248 N 
DOCKED: ATOM     29 FE   UNL d   1       8.224  11.272  27.293 -0.08 +0.00    +0.000 Fe
DOCKED: ATOM     30  O   UNL d   1       6.708  11.544  27.517 -0.40 +0.00    +0.000 OA
DOCKED: ATOM     31  O   UNL d   1       7.248  10.064  27.541 -0.77 +0.00    +0.000 OA
DOCKED: ENDROOT
DOCKED: BRANCH   6  32
DOCKED: ATOM     32  C   UNL d   1       7.608  14.862  31.605 -0.31 +0.02    +0.052 C 
DOCKED: BRANCH  32  33
DOCKED: ATOM     33  C   UNL d   1       6.294  14.549  32.314 -0.21 +0.08    +0.115 C 
DOCKED: BRANCH  33  34
DOCKED: ATOM     34  C   UNL d   1       6.506  13.870  33.645 -0.07 +0.18    +0.139 C 
DOCKED: ATOM     35  O   UNL d   1       7.524  14.093  34.280 +0.00 -0.72    -0.650 OA
DOCKED: BRANCH  34  36
DOCKED: ATOM     36  O   UNL d   1       5.605  12.997  34.140 -0.48 -1.21    -0.776 OA
DOCKED: ATOM     37  H   UNL d   1       5.793  12.054  34.211 +0.07 +0.15    +0.167 HD
DOCKED: ENDBRANCH  34  36
DOCKED: ENDBRANCH  33  34
DOCKED: ENDBRANCH  32  33
DOCKED: ENDBRANCH   6  32
DOCKED: BRANCH  22  38
DOCKED: ATOM     38  C   UNL d   1       9.758   9.929  32.533 -0.28 +0.03    +0.052 C 
DOCKED: BRANCH  38  39
DOCKED: ATOM     39  C   UNL d   1       8.617   9.322  33.346 -0.40 +0.05    +0.115 C 
DOCKED: BRANCH  39  40
DOCKED: ATOM     40  C   UNL d   1       7.563  10.339  33.707 -0.38 +0.06    +0.139 C 
DOCKED: ATOM     41  O   UNL d   1       6.567  10.453  33.012 -0.05 -0.22    -0.650 OA
DOCKED: BRANCH  40  42
DOCKED: ATOM     42  O   UNL d   1       7.676  11.092  34.818 +0.05 -0.48    -0.776 OA
DOCKED: ATOM     43  H   UNL d   1       7.396  12.015  34.833 +0.07 +0.13    +0.167 HD
DOCKED: ENDBRANCH  40  42
DOCKED: ENDBRANCH  39  40
DOCKED: ENDBRANCH  38  39
DOCKED: ENDBRANCH  22  38
DOCKED: BRANCH  12  44
DOCKED: ATOM     44  C   UNL d   1       7.087  13.014  21.944 -0.51 +0.00    +0.004 C 
DOCKED: ATOM     45  C   UNL d   1       6.889  12.022  21.077 -0.64 -0.00    +0.012 C 
DOCKED: ENDBRANCH  12  44
DOCKED: BRANCH  17  46
DOCKED: ATOM     46  C   UNL d   1       9.504   6.112  25.626 -0.59 +0.00    +0.004 C 
DOCKED: ATOM     47  C   UNL d   1       8.828   5.151  26.268 -0.74 +0.00    +0.012 C 
DOCKED: ENDBRANCH  17  46
DOCKED: TORSDOF 10
DOCKED: TER
DOCKED: ENDMDL
________________________________________________________________________________


	BEGINNING GENETIC ALGORITHM DOCKING 18 of 100
Run: 18 Seed: 1972510335 1959121510 [ Run 18 of 100 GA/GALS ]
Beginning LAMARCKIAN GENETIC ALGORITHM (LGA), with a maximum of 25000000 energy evaluations.

Final-Value: -20.160


	FINAL GENETIC ALGORITHM DOCKED STATE
	_______________________________________________


Detailed state:  trans 22.994 6.646 -3.382 quatxyzw 0.495728 -0.151543 0.816337 0.254721 center 8.287 34.468 -0.670 ntor 10 121.5774 -58.7636 35.7852 -55.7086 153.0923 147.0613 -78.1785 22.9812 -161.1479 180.0000
State:	 22.994   6.646  -3.382   0.513 -0.157  0.844 150.486    121.58  -58.76   35.79  -55.71  153.09  147.06  -78.18   22.98 -161.15  180.00

DOCKED: MODEL       18
DOCKED: USER    Run = 18
DOCKED: USER    DPF = D:/Protein_go_brrr/autodock/final/1A3N/heme_O2/dock.dpf
DOCKED: USER  
DOCKED: USER    Estimated Free Energy of Binding    =  -15.23 kcal/mol  [=(1)+(2)+(3)-(4)]
DOCKED: USER    Estimated Inhibition Constant, Ki   =    6.87 pM (picomolar)  [Temperature = 298.15 K]
DOCKED: USER    
DOCKED: USER    (1) Final Intermolecular Energy     =  -18.21 kcal/mol
DOCKED: USER        vdW + Hbond + desolv Energy     =  -16.18 kcal/mol
DOCKED: USER        Electrostatic Energy            =   -2.03 kcal/mol
DOCKED: USER    (2) Final Total Internal Energy     =   -1.95 kcal/mol
DOCKED: USER    (3) Torsional Free Energy           =   +2.98 kcal/mol
DOCKED: USER    (4) Unbound System's Energy  [=(2)] =   -1.95 kcal/mol
DOCKED: USER    
DOCKED: USER    
DOCKED: USER    NEWDPF move heme_O2_opt.pdbqt
DOCKED: USER    NEWDPF about 8.287000 34.468000 -0.670000
DOCKED: USER    NEWDPF tran0 22.994137 6.646432 -3.381772
DOCKED: USER    NEWDPF quaternion0 0.495728 -0.151543 0.816337 0.254721
DOCKED: USER    NEWDPF axisangle0 0.512637 -0.156712 0.844183 150.485940
DOCKED: USER    NEWDPF quat0 0.512637 -0.156712 0.844183 150.485940
DOCKED: USER    NEWDPF dihe0 121.58 -58.76 35.79 -55.71 153.09 147.06 -78.18 22.98 -161.15 180.00 
DOCKED: USER  keepresnum = 1 
DOCKED: USER  
DOCKED: REMARK  10 active torsions:
DOCKED: REMARK  status: ('A' for Active; 'I' for Inactive)
DOCKED: REMARK    1  A    between atoms: C_6  and  C_10 
DOCKED: REMARK    2  A    between atoms: C_10  and  C_11 
DOCKED: REMARK    3  A    between atoms: C_11  and  C_12 
DOCKED: REMARK    4  A    between atoms: C_12  and  O_14 
DOCKED: REMARK    5  A    between atoms: C_17  and  C_20 
DOCKED: REMARK    6  A    between atoms: C_24  and  C_27 
DOCKED: REMARK    7  A    between atoms: C_31  and  C_34 
DOCKED: REMARK    8  A    between atoms: C_34  and  C_35 
DOCKED: REMARK    9  A    between atoms: C_35  and  C_36 
DOCKED: REMARK   10  A    between atoms: C_36  and  O_38 
DOCKED: USER                              x       y       z     vdW  Elec       q    Type
DOCKED: USER                           _______ _______ _______ _____ _____    ______ ____
DOCKED: ROOT
DOCKED: ATOM      1  C   UNL d   1      23.153   7.205  -5.422 -0.23 +0.01    +0.064 A 
DOCKED: ATOM      2  C   UNL d   1      25.270   8.806  -1.483 -0.38 +0.00    +0.064 A 
DOCKED: ATOM      3  C   UNL d   1      22.804   5.691   1.220 -0.36 +0.00    +0.064 C 
DOCKED: ATOM      4  C   UNL d   1      20.973   3.710  -2.877 -0.36 +0.01    +0.064 A 
DOCKED: ATOM      5  C   UNL d   1      23.931   7.893  -4.572 -0.31 +0.01    +0.066 A 
DOCKED: ATOM      6  C   UNL d   1      24.794   8.923  -4.959 -0.38 -0.00    -0.021 A 
DOCKED: ATOM      7  C   UNL d   1      25.440   9.358  -3.825 -0.42 -0.00    -0.025 A 
DOCKED: ATOM      8  C   UNL d   1      24.918   8.615  -2.769 -0.37 +0.01    +0.066 A 
DOCKED: ATOM      9  C   UNL d   1      26.521  10.416  -3.797 -0.36 +0.01    +0.051 C 
DOCKED: ATOM     10  C   UNL d   1      24.741   8.074  -0.332 -0.35 +0.00    +0.066 A 
DOCKED: ATOM     11  C   UNL d   1      25.018   8.423   0.995 -0.37 -0.00    -0.021 A 
DOCKED: ATOM     12  C   UNL d   1      24.302   7.548   1.790 -0.40 +0.00    +0.000 A 
DOCKED: ATOM     13  C   UNL d   1      23.623   6.688   0.883 -0.24 +0.00    +0.070 A 
DOCKED: ATOM     14  C   UNL d   1      25.907   9.561   1.483 -0.41 +0.00    +0.052 C 
DOCKED: ATOM     15  C   UNL d   1      22.125   4.777   0.334 -0.39 +0.00    +0.066 A 
DOCKED: ATOM     16  C   UNL d   1      21.413   3.653   0.752 -0.53 -0.00    -0.021 A 
DOCKED: ATOM     17  C   UNL d   1      20.882   3.071  -0.400 -0.48 +0.00    +0.000 A 
DOCKED: ATOM     18  C   UNL d   1      21.315   3.896  -1.448 -0.37 +0.01    +0.070 A 
DOCKED: ATOM     19  C   UNL d   1      21.349   3.208   2.191 -0.36 -0.00    +0.052 C 
DOCKED: ATOM     20  C   UNL d   1      21.405   4.457  -3.912 -0.37 +0.01    +0.066 A 
DOCKED: ATOM     21  C   UNL d   1      21.034   4.244  -5.237 -0.42 -0.00    -0.025 A 
DOCKED: ATOM     22  C   UNL d   1      21.624   5.247  -5.973 -0.34 -0.00    -0.021 A 
DOCKED: ATOM     23  C   UNL d   1      22.352   6.027  -5.068 -0.24 +0.01    +0.066 A 
DOCKED: ATOM     24  C   UNL d   1      20.163   3.138  -5.774 -0.52 +0.01    +0.051 C 
DOCKED: ATOM     25  N   UNL d   1      24.037   7.669  -3.239 -0.21 -0.02    -0.248 N 
DOCKED: ATOM     26  N   UNL d   1      23.899   7.012  -0.406 -0.22 -0.01    -0.248 N 
DOCKED: ATOM     27  N   UNL d   1      22.130   4.882  -0.992 -0.20 -0.02    -0.248 N 
DOCKED: ATOM     28  N   UNL d   1      22.252   5.517  -3.824 -0.25 -0.03    -0.248 N 
DOCKED: ATOM     29 FE   UNL d   1      23.069   6.257  -2.126 -0.07 +0.00    +0.000 Fe
DOCKED: ATOM     30  O   UNL d   1      24.603   6.021  -2.242 -0.44 +0.00    +0.000 OA
DOCKED: ATOM     31  O   UNL d   1      23.616   4.795  -2.314 -0.82 +0.00    +0.000 OA
DOCKED: ENDROOT
DOCKED: BRANCH   6  32
DOCKED: ATOM     32  C   UNL d   1      25.105   9.390  -6.357 -0.36 +0.02    +0.052 C 
DOCKED: BRANCH  32  33
DOCKED: ATOM     33  C   UNL d   1      26.068   8.462  -7.091 -0.24 +0.07    +0.115 C 
DOCKED: BRANCH  33  34
DOCKED: ATOM     34  C   UNL d   1      25.357   7.523  -8.034 -0.23 +0.14    +0.139 C 
DOCKED: ATOM     35  O   UNL d   1      24.145   7.600  -8.162 -0.06 -0.45    -0.650 OA
DOCKED: BRANCH  34  36
DOCKED: ATOM     36  O   UNL d   1      26.027   6.577  -8.723 -0.36 -1.41    -0.776 OA
DOCKED: ATOM     37  H   UNL d   1      25.813   5.640  -8.644 -0.24 +0.15    +0.167 HD
DOCKED: ENDBRANCH  34  36
DOCKED: ENDBRANCH  33  34
DOCKED: ENDBRANCH  32  33
DOCKED: ENDBRANCH   6  32
DOCKED: BRANCH  22  38
DOCKED: ATOM     38  C   UNL d   1      21.543   5.403  -7.469 -0.29 +0.01    +0.052 C 
DOCKED: BRANCH  38  39
DOCKED: ATOM     39  C   UNL d   1      22.478   4.447  -8.206 -0.35 +0.03    +0.115 C 
DOCKED: BRANCH  39  40
DOCKED: ATOM     40  C   UNL d   1      22.805   4.921  -9.600 -0.23 +0.06    +0.139 C 
DOCKED: ATOM     41  O   UNL d   1      21.935   4.934 -10.455 -0.01 -0.25    -0.650 OA
DOCKED: BRANCH  40  42
DOCKED: ATOM     42  O   UNL d   1      24.033   5.380  -9.909 +0.03 -0.59    -0.776 OA
DOCKED: ATOM     43  H   UNL d   1      24.437   6.109  -9.423 +0.06 +0.18    +0.167 HD
DOCKED: ENDBRANCH  40  42
DOCKED: ENDBRANCH  39  40
DOCKED: ENDBRANCH  38  39
DOCKED: ENDBRANCH  22  38
DOCKED: BRANCH  12  44
DOCKED: ATOM     44  C   UNL d   1      24.341   7.618   3.302 -0.63 -0.00    +0.004 C 
DOCKED: ATOM     45  C   UNL d   1      24.226   6.616   4.172 -0.74 -0.00    +0.012 C 
DOCKED: ENDBRANCH  12  44
DOCKED: BRANCH  17  46
DOCKED: ATOM     46  C   UNL d   1      20.078   1.813  -0.591 -0.65 +0.00    +0.004 C 
DOCKED: ATOM     47  C   UNL d   1      20.442   0.550  -0.333 -0.72 -0.00    +0.012 C 
DOCKED: ENDBRANCH  17  46
DOCKED: TORSDOF 10
DOCKED: TER
DOCKED: ENDMDL
________________________________________________________________________________


	BEGINNING GENETIC ALGORITHM DOCKING 19 of 100
Run: 19 Seed: 1662842272 405115056 [ Run 19 of 100 GA/GALS ]
Beginning LAMARCKIAN GENETIC ALGORITHM (LGA), with a maximum of 25000000 energy evaluations.

Final-Value: -18.950


	FINAL GENETIC ALGORITHM DOCKED STATE
	_______________________________________________


Detailed state:  trans 23.153 6.826 -3.655 quatxyzw 0.507069 -0.128279 0.823232 0.220715 center 8.287 34.468 -0.670 ntor 10 55.8393 -32.0679 32.5128 -70.7095 43.2958 -110.9131 -3.2383 -64.8426 -30.4584 79.6779
State:	 23.153   6.826  -3.655   0.520 -0.132  0.844 154.498     55.84  -32.07   32.51  -70.71   43.30 -110.91   -3.24  -64.84  -30.46   79.68

DOCKED: MODEL       19
DOCKED: USER    Run = 19
DOCKED: USER    DPF = D:/Protein_go_brrr/autodock/final/1A3N/heme_O2/dock.dpf
DOCKED: USER  
DOCKED: USER    Estimated Free Energy of Binding    =  -14.76 kcal/mol  [=(1)+(2)+(3)-(4)]
DOCKED: USER    Estimated Inhibition Constant, Ki   =   15.27 pM (picomolar)  [Temperature = 298.15 K]
DOCKED: USER    
DOCKED: USER    (1) Final Intermolecular Energy     =  -17.74 kcal/mol
DOCKED: USER        vdW + Hbond + desolv Energy     =  -15.72 kcal/mol
DOCKED: USER        Electrostatic Energy            =   -2.01 kcal/mol
DOCKED: USER    (2) Final Total Internal Energy     =   -1.21 kcal/mol
DOCKED: USER    (3) Torsional Free Energy           =   +2.98 kcal/mol
DOCKED: USER    (4) Unbound System's Energy  [=(2)] =   -1.21 kcal/mol
DOCKED: USER    
DOCKED: USER    
DOCKED: USER    NEWDPF move heme_O2_opt.pdbqt
DOCKED: USER    NEWDPF about 8.287000 34.468000 -0.670000
DOCKED: USER    NEWDPF tran0 23.152583 6.826202 -3.654718
DOCKED: USER    NEWDPF quaternion0 0.507069 -0.128279 0.823232 0.220715
DOCKED: USER    NEWDPF axisangle0 0.519890 -0.131522 0.844047 154.497975
DOCKED: USER    NEWDPF quat0 0.519890 -0.131522 0.844047 154.497975
DOCKED: USER    NEWDPF dihe0 55.84 -32.07 32.51 -70.71 43.30 -110.91 -3.24 -64.84 -30.46 79.68 
DOCKED: USER  keepresnum = 1 
DOCKED: USER  
DOCKED: REMARK  10 active torsions:
DOCKED: REMARK  status: ('A' for Active; 'I' for Inactive)
DOCKED: REMARK    1  A    between atoms: C_6  and  C_10 
DOCKED: REMARK    2  A    between atoms: C_10  and  C_11 
DOCKED: REMARK    3  A    between atoms: C_11  and  C_12 
DOCKED: REMARK    4  A    between atoms: C_12  and  O_14 
DOCKED: REMARK    5  A    between atoms: C_17  and  C_20 
DOCKED: REMARK    6  A    between atoms: C_24  and  C_27 
DOCKED: REMARK    7  A    between atoms: C_31  and  C_34 
DOCKED: REMARK    8  A    between atoms: C_34  and  C_35 
DOCKED: REMARK    9  A    between atoms: C_35  and  C_36 
DOCKED: REMARK   10  A    between atoms: C_36  and  O_38 
DOCKED: USER                              x       y       z     vdW  Elec       q    Type
DOCKED: USER                           _______ _______ _______ _____ _____    ______ ____
DOCKED: ROOT
DOCKED: ATOM      1  C   UNL d   1      23.306   7.215  -5.734 -0.20 +0.01    +0.064 A 
DOCKED: ATOM      2  C   UNL d   1      25.518   9.054  -1.955 -0.40 +0.01    +0.064 A 
DOCKED: ATOM      3  C   UNL d   1      22.984   6.246   1.010 -0.32 +0.00    +0.064 C 
DOCKED: ATOM      4  C   UNL d   1      21.044   4.008  -2.900 -0.38 +0.01    +0.064 A 
DOCKED: ATOM      5  C   UNL d   1      24.116   7.943  -4.948 -0.31 +0.01    +0.066 A 
DOCKED: ATOM      6  C   UNL d   1      25.007   8.910  -5.424 -0.38 -0.01    -0.021 A 
DOCKED: ATOM      7  C   UNL d   1      25.679   9.412  -4.334 -0.43 -0.00    -0.025 A 
DOCKED: ATOM      8  C   UNL d   1      25.146   8.773  -3.218 -0.38 +0.01    +0.066 A 
DOCKED: ATOM      9  C   UNL d   1      26.794  10.433  -4.400 -0.44 +0.01    +0.051 C 
DOCKED: ATOM     10  C   UNL d   1      24.979   8.433  -0.744 -0.36 +0.00    +0.066 A 
DOCKED: ATOM     11  C   UNL d   1      25.282   8.877   0.548 -0.33 -0.00    -0.021 A 
DOCKED: ATOM     12  C   UNL d   1      24.547   8.091   1.417 -0.38 +0.00    +0.000 A 
DOCKED: ATOM     13  C   UNL d   1      23.831   7.185   0.587 -0.34 +0.00    +0.070 A 
DOCKED: ATOM     14  C   UNL d   1      26.213  10.020   0.937 -0.49 +0.00    +0.052 C 
DOCKED: ATOM     15  C   UNL d   1      22.267   5.287   0.206 -0.37 +0.00    +0.066 A 
DOCKED: ATOM     16  C   UNL d   1      21.524   4.224   0.718 -0.52 -0.00    -0.021 A 
DOCKED: ATOM     17  C   UNL d   1      20.961   3.570  -0.379 -0.46 +0.00    +0.000 A 
DOCKED: ATOM     18  C   UNL d   1      21.408   4.295  -1.493 -0.36 +0.01    +0.070 A 
DOCKED: ATOM     19  C   UNL d   1      21.462   3.897   2.189 -0.61 +0.00    +0.052 C 
DOCKED: ATOM     20  C   UNL d   1      21.488   4.655  -3.995 -0.39 +0.01    +0.066 A 
DOCKED: ATOM     21  C   UNL d   1      21.096   4.350  -5.295 -0.41 -0.00    -0.025 A 
DOCKED: ATOM     22  C   UNL d   1      21.709   5.272  -6.114 -0.33 -0.00    -0.021 A 
DOCKED: ATOM     23  C   UNL d   1      22.471   6.097  -5.281 -0.17 +0.01    +0.066 A 
DOCKED: ATOM     24  C   UNL d   1      20.184   3.234  -5.735 -0.53 +0.01    +0.051 C 
DOCKED: ATOM     25  N   UNL d   1      24.229   7.822  -3.603 -0.23 -0.02    -0.248 N 
DOCKED: ATOM     26  N   UNL d   1      24.103   7.397  -0.725 -0.23 -0.01    -0.248 N 
DOCKED: ATOM     27  N   UNL d   1      22.259   5.286  -1.124 -0.21 -0.01    -0.248 N 
DOCKED: ATOM     28  N   UNL d   1      22.370   5.690  -3.999 -0.24 -0.03    -0.248 N 
DOCKED: ATOM     29 FE   UNL d   1      23.229   6.535  -2.372 -0.08 +0.00    +0.000 Fe
DOCKED: ATOM     30  O   UNL d   1      24.753   6.241  -2.483 -0.42 +0.00    +0.000 OA
DOCKED: ATOM     31  O   UNL d   1      23.727   5.046  -2.449 -0.68 +0.00    +0.000 OA
DOCKED: ENDROOT
DOCKED: BRANCH   6  32
DOCKED: ATOM     32  C   UNL d   1      25.316   9.254  -6.858 -0.36 +0.02    +0.052 C 
DOCKED: BRANCH  32  33
DOCKED: ATOM     33  C   UNL d   1      24.067   9.575  -7.673 -0.22 +0.05    +0.115 C 
DOCKED: BRANCH  33  34
DOCKED: ATOM     34  C   UNL d   1      24.396  10.045  -9.068 -0.19 +0.09    +0.139 C 
DOCKED: ATOM     35  O   UNL d   1      24.245  11.220  -9.361 +0.01 -0.31    -0.650 OA
DOCKED: BRANCH  34  36
DOCKED: ATOM     36  O   UNL d   1      24.829   9.187 -10.015 +0.02 -1.13    -0.776 OA
DOCKED: ATOM     37  H   UNL d   1      24.325   8.404 -10.265 +0.03 +0.25    +0.167 HD
DOCKED: ENDBRANCH  34  36
DOCKED: ENDBRANCH  33  34
DOCKED: ENDBRANCH  32  33
DOCKED: ENDBRANCH   6  32
DOCKED: BRANCH  22  38
DOCKED: ATOM     38  C   UNL d   1      21.615   5.311  -7.617 -0.30 +0.01    +0.052 C 
DOCKED: BRANCH  38  39
DOCKED: ATOM     39  C   UNL d   1      22.452   6.436  -8.223 -0.24 +0.04    +0.115 C 
DOCKED: BRANCH  39  40
DOCKED: ATOM     40  C   UNL d   1      23.599   5.918  -9.054 -0.23 +0.08    +0.139 C 
DOCKED: ATOM     41  O   UNL d   1      23.470   4.881  -9.686 +0.00 -0.33    -0.650 OA
DOCKED: BRANCH  40  42
DOCKED: ATOM     42  O   UNL d   1      24.752   6.607  -9.154 -0.45 -1.06    -0.776 OA
DOCKED: ATOM     43  H   UNL d   1      24.773   7.569  -9.083 +0.05 +0.25    +0.167 HD
DOCKED: ENDBRANCH  40  42
DOCKED: ENDBRANCH  39  40
DOCKED: ENDBRANCH  38  39
DOCKED: ENDBRANCH  22  38
DOCKED: BRANCH  12  44
DOCKED: ATOM     44  C   UNL d   1      24.606   8.281   2.918 -0.57 -0.00    +0.004 C 
DOCKED: ATOM     45  C   UNL d   1      24.410   7.366   3.867 -0.70 -0.00    +0.012 C 
DOCKED: ENDBRANCH  12  44
DOCKED: BRANCH  17  46
DOCKED: ATOM     46  C   UNL d   1      20.115   2.328  -0.462 -0.50 +0.00    +0.004 C 
DOCKED: ATOM     47  C   UNL d   1      20.507   1.051  -0.373 -0.73 -0.00    +0.012 C 
DOCKED: ENDBRANCH  17  46
DOCKED: TORSDOF 10
DOCKED: TER
DOCKED: ENDMDL
________________________________________________________________________________


	BEGINNING GENETIC ALGORITHM DOCKING 20 of 100
Run: 20 Seed: 1503083601 1515105538 [ Run 20 of 100 GA/GALS ]
Beginning LAMARCKIAN GENETIC ALGORITHM (LGA), with a maximum of 25000000 energy evaluations.

Final-Value: -20.066


	FINAL GENETIC ALGORITHM DOCKED STATE
	_______________________________________________


Detailed state:  trans 23.036 6.729 -3.957 quatxyzw 0.483319 -0.142493 0.830415 0.237719 center 8.287 34.468 -0.670 ntor 10 142.7192 93.7094 51.0922 -65.1830 -58.5574 -19.6137 61.1497 64.8558 -18.0596 163.2585
State:	 23.036   6.729  -3.957   0.498 -0.147  0.855 152.496    142.72   93.71   51.09  -65.18  -58.56  -19.61   61.15   64.86  -18.06  163.26

DOCKED: MODEL       20
DOCKED: USER    Run = 20
DOCKED: USER    DPF = D:/Protein_go_brrr/autodock/final/1A3N/heme_O2/dock.dpf
DOCKED: USER  
DOCKED: USER    Estimated Free Energy of Binding    =  -14.56 kcal/mol  [=(1)+(2)+(3)-(4)]
DOCKED: USER    Estimated Inhibition Constant, Ki   =   21.16 pM (picomolar)  [Temperature = 298.15 K]
DOCKED: USER    
DOCKED: USER    (1) Final Intermolecular Energy     =  -17.55 kcal/mol
DOCKED: USER        vdW + Hbond + desolv Energy     =  -15.46 kcal/mol
DOCKED: USER        Electrostatic Energy            =   -2.08 kcal/mol
DOCKED: USER    (2) Final Total Internal Energy     =   -2.52 kcal/mol
DOCKED: USER    (3) Torsional Free Energy           =   +2.98 kcal/mol
DOCKED: USER    (4) Unbound System's Energy  [=(2)] =   -2.52 kcal/mol
DOCKED: USER    
DOCKED: USER    
DOCKED: USER    NEWDPF move heme_O2_opt.pdbqt
DOCKED: USER    NEWDPF about 8.287000 34.468000 -0.670000
DOCKED: USER    NEWDPF tran0 23.035751 6.729277 -3.957206
DOCKED: USER    NEWDPF quaternion0 0.483319 -0.142493 0.830415 0.237719
DOCKED: USER    NEWDPF axisangle0 0.497582 -0.146699 0.854922 152.496114
DOCKED: USER    NEWDPF quat0 0.497582 -0.146699 0.854922 152.496114
DOCKED: USER    NEWDPF dihe0 142.72 93.71 51.09 -65.18 -58.56 -19.61 61.15 64.86 -18.06 163.26 
DOCKED: USER  keepresnum = 1 
DOCKED: USER  
DOCKED: REMARK  10 active torsions:
DOCKED: REMARK  status: ('A' for Active; 'I' for Inactive)
DOCKED: REMARK    1  A    between atoms: C_6  and  C_10 
DOCKED: REMARK    2  A    between atoms: C_10  and  C_11 
DOCKED: REMARK    3  A    between atoms: C_11  and  C_12 
DOCKED: REMARK    4  A    between atoms: C_12  and  O_14 
DOCKED: REMARK    5  A    between atoms: C_17  and  C_20 
DOCKED: REMARK    6  A    between atoms: C_24  and  C_27 
DOCKED: REMARK    7  A    between atoms: C_31  and  C_34 
DOCKED: REMARK    8  A    between atoms: C_34  and  C_35 
DOCKED: REMARK    9  A    between atoms: C_35  and  C_36 
DOCKED: REMARK   10  A    between atoms: C_36  and  O_38 
DOCKED: USER                              x       y       z     vdW  Elec       q    Type
DOCKED: USER                           _______ _______ _______ _____ _____    ______ ____
DOCKED: ROOT
DOCKED: ATOM      1  C   UNL d   1      23.279   7.221  -6.006 -0.22 +0.02    +0.064 A 
DOCKED: ATOM      2  C   UNL d   1      25.312   8.878  -2.046 -0.39 +0.01    +0.064 A 
DOCKED: ATOM      3  C   UNL d   1      22.664   5.919   0.661 -0.41 +0.00    +0.064 C 
DOCKED: ATOM      4  C   UNL d   1      20.911   3.870  -3.437 -0.36 +0.01    +0.064 A 
DOCKED: ATOM      5  C   UNL d   1      24.049   7.912  -5.150 -0.30 +0.01    +0.066 A 
DOCKED: ATOM      6  C   UNL d   1      24.955   8.904  -5.537 -0.37 -0.01    -0.021 A 
DOCKED: ATOM      7  C   UNL d   1      25.576   9.354  -4.396 -0.42 -0.00    -0.025 A 
DOCKED: ATOM      8  C   UNL d   1      24.997   8.659  -3.337 -0.38 +0.01    +0.066 A 
DOCKED: ATOM      9  C   UNL d   1      26.687  10.380  -4.361 -0.47 +0.01    +0.051 C 
DOCKED: ATOM     10  C   UNL d   1      24.723   8.197  -0.892 -0.36 +0.00    +0.066 A 
DOCKED: ATOM     11  C   UNL d   1      24.966   8.577   0.432 -0.34 -0.00    -0.021 A 
DOCKED: ATOM     12  C   UNL d   1      24.197   7.747   1.227 -0.40 +0.00    +0.000 A 
DOCKED: ATOM     13  C   UNL d   1      23.523   6.880   0.323 -0.34 +0.00    +0.070 A 
DOCKED: ATOM     14  C   UNL d   1      25.872   9.702   0.918 -0.37 +0.00    +0.052 C 
DOCKED: ATOM     15  C   UNL d   1      21.988   4.998  -0.221 -0.38 +0.00    +0.066 A 
DOCKED: ATOM     16  C   UNL d   1      21.228   3.909   0.205 -0.47 -0.00    -0.021 A 
DOCKED: ATOM     17  C   UNL d   1      20.719   3.309  -0.946 -0.43 +0.00    +0.000 A 
DOCKED: ATOM     18  C   UNL d   1      21.211   4.089  -2.002 -0.36 +0.01    +0.070 A 
DOCKED: ATOM     19  C   UNL d   1      21.103   3.509   1.654 -0.59 +0.00    +0.052 C 
DOCKED: ATOM     20  C   UNL d   1      21.400   4.572  -4.478 -0.38 +0.01    +0.066 A 
DOCKED: ATOM     21  C   UNL d   1      21.067   4.331  -5.807 -0.40 -0.00    -0.025 A 
DOCKED: ATOM     22  C   UNL d   1      21.711   5.293  -6.552 -0.32 -0.00    -0.021 A 
DOCKED: ATOM     23  C   UNL d   1      22.431   6.079  -5.646 -0.15 +0.01    +0.066 A 
DOCKED: ATOM     24  C   UNL d   1      20.181   3.235  -6.341 -0.51 +0.01    +0.051 C 
DOCKED: ATOM     25  N   UNL d   1      24.104   7.724  -3.809 -0.23 -0.03    -0.248 N 
DOCKED: ATOM     26  N   UNL d   1      23.852   7.158  -0.964 -0.23 -0.01    -0.248 N 
DOCKED: ATOM     27  N   UNL d   1      22.039   5.063  -1.548 -0.21 -0.02    -0.248 N 
DOCKED: ATOM     28  N   UNL d   1      22.275   5.609  -4.391 -0.24 -0.03    -0.248 N 
DOCKED: ATOM     29 FE   UNL d   1      23.057   6.376  -2.689 -0.08 +0.00    +0.000 Fe
DOCKED: ATOM     30  O   UNL d   1      24.586   6.092  -2.746 -0.43 +0.00    +0.000 OA
DOCKED: ATOM     31  O   UNL d   1      23.566   4.893  -2.816 -0.67 +0.00    +0.000 OA
DOCKED: ENDROOT
DOCKED: BRANCH   6  32
DOCKED: ATOM     32  C   UNL d   1      25.326   9.319  -6.937 -0.35 +0.02    +0.052 C 
DOCKED: BRANCH  32  33
DOCKED: ATOM     33  C   UNL d   1      24.165   9.959  -7.693 -0.21 +0.05    +0.115 C 
DOCKED: BRANCH  33  34
DOCKED: ATOM     34  C   UNL d   1      23.822   9.214  -8.959 -0.19 +0.09    +0.139 C 
DOCKED: ATOM     35  O   UNL d   1      22.674   9.225  -9.374 +0.03 -0.33    -0.650 OA
DOCKED: BRANCH  34  36
DOCKED: ATOM     36  O   UNL d   1      24.753   8.507  -9.633 -0.02 -1.23    -0.776 OA
DOCKED: ATOM     37  H   UNL d   1      24.545   7.671 -10.066 +0.04 +0.32    +0.167 HD
DOCKED: ENDBRANCH  34  36
DOCKED: ENDBRANCH  33  34
DOCKED: ENDBRANCH  32  33
DOCKED: ENDBRANCH   6  32
DOCKED: BRANCH  22  38
DOCKED: ATOM     38  C   UNL d   1      21.684   5.406  -8.054 -0.28 +0.01    +0.052 C 
DOCKED: BRANCH  38  39
DOCKED: ATOM     39  C   UNL d   1      22.878   4.717  -8.711 -0.31 +0.04    +0.115 C 
DOCKED: BRANCH  39  40
DOCKED: ATOM     40  C   UNL d   1      23.769   5.686  -9.447 -0.23 +0.10    +0.139 C 
DOCKED: ATOM     41  O   UNL d   1      24.959   5.736  -9.181 -0.32 -0.70    -0.650 OA
DOCKED: BRANCH  40  42
DOCKED: ATOM     42  O   UNL d   1      23.285   6.464 -10.434 +0.06 -0.59    -0.776 OA
DOCKED: ATOM     43  H   UNL d   1      23.008   7.374 -10.270 +0.04 +0.12    +0.167 HD
DOCKED: ENDBRANCH  40  42
DOCKED: ENDBRANCH  39  40
DOCKED: ENDBRANCH  38  39
DOCKED: ENDBRANCH  22  38
DOCKED: BRANCH  12  44
DOCKED: ATOM     44  C   UNL d   1      24.189   7.862   2.737 -0.56 -0.00    +0.004 C 
DOCKED: ATOM     45  C   UNL d   1      24.294   6.882   3.634 -0.67 -0.00    +0.012 C 
DOCKED: ENDBRANCH  12  44
DOCKED: BRANCH  17  46
DOCKED: ATOM     46  C   UNL d   1      19.884   2.069  -1.128 -0.58 +0.00    +0.004 C 
DOCKED: ATOM     47  C   UNL d   1      20.256   0.791  -0.985 -0.70 -0.00    +0.012 C 
DOCKED: ENDBRANCH  17  46
DOCKED: TORSDOF 10
DOCKED: TER
DOCKED: ENDMDL
________________________________________________________________________________


	BEGINNING GENETIC ALGORITHM DOCKING 21 of 100
Run: 21 Seed: 984217885 649597662 [ Run 21 of 100 GA/GALS ]
Beginning LAMARCKIAN GENETIC ALGORITHM (LGA), with a maximum of 25000000 energy evaluations.

Final-Value: -19.726


	FINAL GENETIC ALGORITHM DOCKED STATE
	_______________________________________________


Detailed state:  trans 22.934 6.653 -3.464 quatxyzw -0.504721 0.153236 -0.814172 -0.242692 center 8.287 34.468 -0.670 ntor 10 -150.6393 104.5443 24.3123 -61.5624 -28.0135 -45.0016 -81.1121 99.8474 -165.3874 -158.5234
State:	 22.934   6.653  -3.464  -0.520  0.158 -0.839 -151.909   -150.64  104.54   24.31  -61.56  -28.01  -45.00  -81.11   99.85 -165.39 -158.52

DOCKED: MODEL       21
DOCKED: USER    Run = 21
DOCKED: USER    DPF = D:/Protein_go_brrr/autodock/final/1A3N/heme_O2/dock.dpf
DOCKED: USER  
DOCKED: USER    Estimated Free Energy of Binding    =  -14.64 kcal/mol  [=(1)+(2)+(3)-(4)]
DOCKED: USER    Estimated Inhibition Constant, Ki   =   18.55 pM (picomolar)  [Temperature = 298.15 K]
DOCKED: USER    
DOCKED: USER    (1) Final Intermolecular Energy     =  -17.62 kcal/mol
DOCKED: USER        vdW + Hbond + desolv Energy     =  -15.97 kcal/mol
DOCKED: USER        Electrostatic Energy            =   -1.66 kcal/mol
DOCKED: USER    (2) Final Total Internal Energy     =   -2.10 kcal/mol
DOCKED: USER    (3) Torsional Free Energy           =   +2.98 kcal/mol
DOCKED: USER    (4) Unbound System's Energy  [=(2)] =   -2.10 kcal/mol
DOCKED: USER    
DOCKED: USER    
DOCKED: USER    NEWDPF move heme_O2_opt.pdbqt
DOCKED: USER    NEWDPF about 8.287000 34.468000 -0.670000
DOCKED: USER    NEWDPF tran0 22.933576 6.652962 -3.464387
DOCKED: USER    NEWDPF quaternion0 -0.504721 0.153236 -0.814172 -0.242692
DOCKED: USER    NEWDPF axisangle0 -0.520276 0.157958 -0.839263 -151.909014
DOCKED: USER    NEWDPF quat0 -0.520276 0.157958 -0.839263 -151.909014
DOCKED: USER    NEWDPF dihe0 -150.64 104.54 24.31 -61.56 -28.01 -45.00 -81.11 99.85 -165.39 -158.52 
DOCKED: USER  keepresnum = 1 
DOCKED: USER  
DOCKED: REMARK  10 active torsions:
DOCKED: REMARK  status: ('A' for Active; 'I' for Inactive)
DOCKED: REMARK    1  A    between atoms: C_6  and  C_10 
DOCKED: REMARK    2  A    between atoms: C_10  and  C_11 
DOCKED: REMARK    3  A    between atoms: C_11  and  C_12 
DOCKED: REMARK    4  A    between atoms: C_12  and  O_14 
DOCKED: REMARK    5  A    between atoms: C_17  and  C_20 
DOCKED: REMARK    6  A    between atoms: C_24  and  C_27 
DOCKED: REMARK    7  A    between atoms: C_31  and  C_34 
DOCKED: REMARK    8  A    between atoms: C_34  and  C_35 
DOCKED: REMARK    9  A    between atoms: C_35  and  C_36 
DOCKED: REMARK   10  A    between atoms: C_36  and  O_38 
DOCKED: USER                              x       y       z     vdW  Elec       q    Type
DOCKED: USER                           _______ _______ _______ _____ _____    ______ ____
DOCKED: ROOT
DOCKED: ATOM      1  C   UNL d   1      23.058   7.182  -5.515 -0.23 +0.01    +0.064 A 
DOCKED: ATOM      2  C   UNL d   1      25.287   8.797  -1.644 -0.38 +0.00    +0.064 A 
DOCKED: ATOM      3  C   UNL d   1      22.825   5.761   1.153 -0.37 +0.00    +0.064 C 
DOCKED: ATOM      4  C   UNL d   1      20.873   3.760  -2.878 -0.37 +0.01    +0.064 A 
DOCKED: ATOM      5  C   UNL d   1      23.867   7.868  -4.690 -0.31 +0.01    +0.066 A 
DOCKED: ATOM      6  C   UNL d   1      24.738   8.877  -5.109 -0.38 -0.00    -0.021 A 
DOCKED: ATOM      7  C   UNL d   1      25.416   9.315  -3.995 -0.42 -0.00    -0.025 A 
DOCKED: ATOM      8  C   UNL d   1      24.904   8.595  -2.919 -0.37 +0.01    +0.066 A 
DOCKED: ATOM      9  C   UNL d   1      26.516  10.354  -4.004 -0.41 +0.01    +0.051 C 
DOCKED: ATOM     10  C   UNL d   1      24.770   8.089  -0.471 -0.35 +0.00    +0.066 A 
DOCKED: ATOM     11  C   UNL d   1      25.081   8.450   0.844 -0.37 -0.00    -0.021 A 
DOCKED: ATOM     12  C   UNL d   1      24.367   7.597   1.666 -0.39 +0.00    +0.000 A 
DOCKED: ATOM     13  C   UNL d   1      23.654   6.738   0.785 -0.25 +0.00    +0.070 A 
DOCKED: ATOM     14  C   UNL d   1      26.000   9.578   1.299 -0.46 +0.00    +0.052 C 
DOCKED: ATOM     15  C   UNL d   1      22.112   4.847   0.293 -0.39 +0.00    +0.066 A 
DOCKED: ATOM     16  C   UNL d   1      21.390   3.741   0.741 -0.53 -0.00    -0.021 A 
DOCKED: ATOM     17  C   UNL d   1      20.825   3.155  -0.391 -0.46 +0.00    +0.000 A 
DOCKED: ATOM     18  C   UNL d   1      21.249   3.958  -1.459 -0.37 +0.01    +0.070 A 
DOCKED: ATOM     19  C   UNL d   1      21.349   3.316   2.188 -0.40 -0.00    +0.052 C 
DOCKED: ATOM     20  C   UNL d   1      21.296   4.485  -3.932 -0.38 +0.01    +0.066 A 
DOCKED: ATOM     21  C   UNL d   1      20.893   4.262  -5.245 -0.42 -0.00    -0.025 A 
DOCKED: ATOM     22  C   UNL d   1      21.485   5.245  -6.007 -0.31 -0.00    -0.021 A 
DOCKED: ATOM     23  C   UNL d   1      22.244   6.023  -5.129 -0.28 +0.01    +0.066 A 
DOCKED: ATOM     24  C   UNL d   1      19.992   3.164  -5.749 -0.53 +0.01    +0.051 C 
DOCKED: ATOM     25  N   UNL d   1      23.997   7.658  -3.357 -0.21 -0.02    -0.248 N 
DOCKED: ATOM     26  N   UNL d   1      23.909   7.041  -0.513 -0.22 -0.01    -0.248 N 
DOCKED: ATOM     27  N   UNL d   1      22.090   4.935  -1.034 -0.20 -0.01    -0.248 N 
DOCKED: ATOM     28  N   UNL d   1      22.163   5.531  -3.875 -0.25 -0.03    -0.248 N 
DOCKED: ATOM     29 FE   UNL d   1      23.028   6.278  -2.205 -0.07 +0.00    +0.000 Fe
DOCKED: ATOM     30  O   UNL d   1      24.555   6.014  -2.351 -0.44 +0.00    +0.000 OA
DOCKED: ATOM     31  O   UNL d   1      23.546   4.805  -2.386 -0.79 +0.00    +0.000 OA
DOCKED: ENDROOT
DOCKED: BRANCH   6  32
DOCKED: ATOM     32  C   UNL d   1      25.027   9.320  -6.520 -0.35 +0.02    +0.052 C 
DOCKED: BRANCH  32  33
DOCKED: ATOM     33  C   UNL d   1      26.038   8.423  -7.228 -0.28 +0.08    +0.115 C 
DOCKED: BRANCH  33  34
DOCKED: ATOM     34  C   UNL d   1      25.375   7.377  -8.090 -0.21 +0.14    +0.139 C 
DOCKED: ATOM     35  O   UNL d   1      26.062   6.576  -8.702 -0.40 -1.17    -0.650 OA
DOCKED: BRANCH  34  36
DOCKED: ATOM     36  O   UNL d   1      24.034   7.324  -8.224 +0.00 -0.53    -0.776 OA
DOCKED: ATOM     37  H   UNL d   1      23.569   6.495  -8.389 +0.07 +0.09    +0.167 HD
DOCKED: ENDBRANCH  34  36
DOCKED: ENDBRANCH  33  34
DOCKED: ENDBRANCH  32  33
DOCKED: ENDBRANCH   6  32
DOCKED: BRANCH  22  38
DOCKED: ATOM     38  C   UNL d   1      21.373   5.383  -7.503 -0.16 +0.01    +0.052 C 
DOCKED: BRANCH  38  39
DOCKED: ATOM     39  C   UNL d   1      21.829   4.124  -8.239 -0.35 +0.03    +0.115 C 
DOCKED: BRANCH  39  40
DOCKED: ATOM     40  C   UNL d   1      23.329   4.051  -8.382 -0.36 +0.04    +0.139 C 
DOCKED: ATOM     41  O   UNL d   1      23.978   3.359  -7.615 +0.02 -0.11    -0.650 OA
DOCKED: BRANCH  40  42
DOCKED: ATOM     42  O   UNL d   1      23.965   4.699  -9.378 +0.03 -0.40    -0.776 OA
DOCKED: ATOM     43  H   UNL d   1      24.492   5.489  -9.210 +0.06 +0.13    +0.167 HD
DOCKED: ENDBRANCH  40  42
DOCKED: ENDBRANCH  39  40
DOCKED: ENDBRANCH  38  39
DOCKED: ENDBRANCH  22  38
DOCKED: BRANCH  12  44
DOCKED: ATOM     44  C   UNL d   1      24.440   7.687   3.176 -0.61 -0.00    +0.004 C 
DOCKED: ATOM     45  C   UNL d   1      24.123   6.750   4.068 -0.74 -0.00    +0.012 C 
DOCKED: ENDBRANCH  12  44
DOCKED: BRANCH  17  46
DOCKED: ATOM     46  C   UNL d   1      19.995   1.908  -0.548 -0.62 +0.00    +0.004 C 
DOCKED: ATOM     47  C   UNL d   1      20.373   0.634  -0.384 -0.74 -0.00    +0.012 C 
DOCKED: ENDBRANCH  17  46
DOCKED: TORSDOF 10
DOCKED: TER
DOCKED: ENDMDL
________________________________________________________________________________


	BEGINNING GENETIC ALGORITHM DOCKING 22 of 100
Run: 22 Seed: 1852839776 1644293434 [ Run 22 of 100 GA/GALS ]
Beginning LAMARCKIAN GENETIC ALGORITHM (LGA), with a maximum of 25000000 energy evaluations.

Final-Value: -15.870


	FINAL GENETIC ALGORITHM DOCKED STATE
	_______________________________________________


Detailed state:  trans 1.203 -7.551 -5.938 quatxyzw -0.672650 -0.072912 -0.734315 -0.054843 center 8.287 34.468 -0.670 ntor 10 -6.0643 138.8964 46.1305 4.8369 -85.4888 24.2446 118.5974 72.0969 31.5502 114.4453
State:	  1.203  -7.551  -5.938  -0.674 -0.073 -0.735 -173.712     -6.06  138.90   46.13    4.84  -85.49   24.24  118.60   72.10   31.55  114.45

DOCKED: MODEL       22
DOCKED: USER    Run = 22
DOCKED: USER    DPF = D:/Protein_go_brrr/autodock/final/1A3N/heme_O2/dock.dpf
DOCKED: USER  
DOCKED: USER    Estimated Free Energy of Binding    =  -10.77 kcal/mol  [=(1)+(2)+(3)-(4)]
DOCKED: USER    Estimated Inhibition Constant, Ki   =   12.82 nM (nanomolar)  [Temperature = 298.15 K]
DOCKED: USER    
DOCKED: USER    (1) Final Intermolecular Energy     =  -13.75 kcal/mol
DOCKED: USER        vdW + Hbond + desolv Energy     =  -11.38 kcal/mol
DOCKED: USER        Electrostatic Energy            =   -2.36 kcal/mol
DOCKED: USER    (2) Final Total Internal Energy     =   -2.12 kcal/mol
DOCKED: USER    (3) Torsional Free Energy           =   +2.98 kcal/mol
DOCKED: USER    (4) Unbound System's Energy  [=(2)] =   -2.12 kcal/mol
DOCKED: USER    
DOCKED: USER    
DOCKED: USER    NEWDPF move heme_O2_opt.pdbqt
DOCKED: USER    NEWDPF about 8.287000 34.468000 -0.670000
DOCKED: USER    NEWDPF tran0 1.202521 -7.551320 -5.938131
DOCKED: USER    NEWDPF quaternion0 -0.672650 -0.072912 -0.734315 -0.054843
DOCKED: USER    NEWDPF axisangle0 -0.673664 -0.073022 -0.735421 -173.712340
DOCKED: USER    NEWDPF quat0 -0.673664 -0.073022 -0.735421 -173.712340
DOCKED: USER    NEWDPF dihe0 -6.06 138.90 46.13 4.84 -85.49 24.24 118.60 72.10 31.55 114.45 
DOCKED: USER  keepresnum = 1 
DOCKED: USER  
DOCKED: REMARK  10 active torsions:
DOCKED: REMARK  status: ('A' for Active; 'I' for Inactive)
DOCKED: REMARK    1  A    between atoms: C_6  and  C_10 
DOCKED: REMARK    2  A    between atoms: C_10  and  C_11 
DOCKED: REMARK    3  A    between atoms: C_11  and  C_12 
DOCKED: REMARK    4  A    between atoms: C_12  and  O_14 
DOCKED: REMARK    5  A    between atoms: C_17  and  C_20 
DOCKED: REMARK    6  A    between atoms: C_24  and  C_27 
DOCKED: REMARK    7  A    between atoms: C_31  and  C_34 
DOCKED: REMARK    8  A    between atoms: C_34  and  C_35 
DOCKED: REMARK    9  A    between atoms: C_35  and  C_36 
DOCKED: REMARK   10  A    between atoms: C_36  and  O_38 
DOCKED: USER                              x       y       z     vdW  Elec       q    Type
DOCKED: USER                           _______ _______ _______ _____ _____    ______ ____
DOCKED: ROOT
DOCKED: ATOM      1  C   UNL d   1       0.693  -8.321  -7.848 -0.21 +0.03    +0.064 A 
DOCKED: ATOM      2  C   UNL d   1       3.733  -4.948  -6.456 -0.34 +0.01    +0.064 A 
DOCKED: ATOM      3  C   UNL d   1       2.484  -5.590  -1.860 -0.39 +0.00    +0.064 C 
DOCKED: ATOM      4  C   UNL d   1      -0.298  -9.391  -3.231 -0.40 +0.01    +0.064 A 
DOCKED: ATOM      5  C   UNL d   1       1.623  -7.352  -7.844 -0.20 +0.03    +0.066 A 
DOCKED: ATOM      6  C   UNL d   1       2.232  -6.848  -8.996 -0.19 -0.01    -0.021 A 
DOCKED: ATOM      7  C   UNL d   1       3.144  -5.901  -8.591 -0.22 -0.01    -0.025 A 
DOCKED: ATOM      8  C   UNL d   1       3.032  -5.820  -7.206 -0.26 +0.02    +0.066 A 
DOCKED: ATOM      9  C   UNL d   1       4.083  -5.153  -9.512 -0.18 +0.01    +0.051 C 
DOCKED: ATOM     10  C   UNL d   1       3.642  -4.801  -5.002 -0.38 +0.01    +0.066 A 
DOCKED: ATOM     11  C   UNL d   1       4.270  -3.771  -4.292 -0.45 -0.00    -0.021 A 
DOCKED: ATOM     12  C   UNL d   1       3.907  -3.928  -2.968 -0.44 +0.00    +0.000 A 
DOCKED: ATOM     13  C   UNL d   1       3.070  -5.078  -2.942 -0.30 +0.01    +0.070 A 
DOCKED: ATOM     14  C   UNL d   1       5.155  -2.667  -4.858 -0.35 +0.01    +0.052 C 
DOCKED: ATOM     15  C   UNL d   1       1.659  -6.772  -1.786 -0.30 +0.00    +0.066 A 
DOCKED: ATOM     16  C   UNL d   1       1.210  -7.350  -0.599 -0.34 -0.00    -0.021 A 
DOCKED: ATOM     17  C   UNL d   1       0.416  -8.436  -0.965 -0.46 +0.00    +0.000 A 
DOCKED: ATOM     18  C   UNL d   1       0.438  -8.438  -2.367 -0.38 +0.01    +0.070 A 
DOCKED: ATOM     19  C   UNL d   1       1.621  -6.853   0.765 -0.44 +0.00    +0.052 C 
DOCKED: ATOM     20  C   UNL d   1      -0.264  -9.448  -4.577 -0.32 +0.01    +0.066 A 
DOCKED: ATOM     21  C   UNL d   1      -0.993 -10.357  -5.338 -0.19 -0.00    -0.025 A 
DOCKED: ATOM     22  C   UNL d   1      -0.744 -10.050  -6.657 -0.17 -0.01    -0.021 A 
DOCKED: ATOM     23  C   UNL d   1       0.145  -8.971  -6.651 -0.20 +0.03    +0.066 A 
DOCKED: ATOM     24  C   UNL d   1      -1.879 -11.466  -4.832 -0.26 +0.00    +0.051 C 
DOCKED: ATOM     25  N   UNL d   1       2.142  -6.760  -6.741 -0.07 -0.08    -0.248 N 
DOCKED: ATOM     26  N   UNL d   1       2.918  -5.605  -4.183 -0.24 -0.04    -0.248 N 
DOCKED: ATOM     27  N   UNL d   1       1.257  -7.467  -2.846 -0.22 -0.02    -0.248 N 
DOCKED: ATOM     28  N   UNL d   1       0.469  -8.637  -5.385 -0.20 -0.07    -0.248 N 
DOCKED: ATOM     29 FE   UNL d   1       1.684  -7.133  -4.786 -0.08 +0.00    +0.000 Fe
DOCKED: ATOM     30  O   UNL d   1       3.128  -7.555  -5.184 -0.19 +0.00    +0.000 OA
DOCKED: ATOM     31  O   UNL d   1       2.283  -8.475  -4.225 -0.12 +0.00    +0.000 OA
DOCKED: ENDROOT
DOCKED: BRANCH   6  32
DOCKED: ATOM     32  C   UNL d   1       2.067  -7.329 -10.415 -0.11 +0.02    +0.052 C 
DOCKED: BRANCH  32  33
DOCKED: ATOM     33  C   UNL d   1       1.421  -6.287 -11.323 -0.08 +0.06    +0.115 C 
DOCKED: BRANCH  33  34
DOCKED: ATOM     34  C   UNL d   1       0.011  -5.953 -10.902 +0.21 +0.17    +0.139 C 
DOCKED: ATOM     35  O   UNL d   1      -0.287  -4.794 -10.659 -0.23 -0.90    -0.650 OA
DOCKED: BRANCH  34  36
DOCKED: ATOM     36  O   UNL d   1      -0.927  -6.912 -10.761 -0.17 -1.38    -0.776 OA
DOCKED: ATOM     37  H   UNL d   1      -0.758  -7.830 -11.000 +0.02 +0.16    +0.167 HD
DOCKED: ENDBRANCH  34  36
DOCKED: ENDBRANCH  33  34
DOCKED: ENDBRANCH  32  33
DOCKED: ENDBRANCH   6  32
DOCKED: BRANCH  22  38
DOCKED: ATOM     38  C   UNL d   1      -1.283 -10.796  -7.849 -0.14 +0.02    +0.052 C 
DOCKED: BRANCH  38  39
DOCKED: ATOM     39  C   UNL d   1      -0.274 -10.872  -8.993 -0.09 +0.03    +0.115 C 
DOCKED: BRANCH  39  40
DOCKED: ATOM     40  C   UNL d   1      -0.666 -10.008 -10.166 -0.07 +0.06    +0.139 C 
DOCKED: ATOM     41  O   UNL d   1       0.135  -9.806 -11.064 +0.02 -0.22    -0.650 OA
DOCKED: BRANCH  40  42
DOCKED: ATOM     42  O   UNL d   1      -1.907  -9.494 -10.267 -0.00 -0.48    -0.776 OA
DOCKED: ATOM     43  H   UNL d   1      -2.058  -8.603 -10.606 +0.02 +0.16    +0.167 HD
DOCKED: ENDBRANCH  40  42
DOCKED: ENDBRANCH  39  40
DOCKED: ENDBRANCH  38  39
DOCKED: ENDBRANCH  22  38
DOCKED: BRANCH  12  44
DOCKED: ATOM     44  C   UNL d   1       4.390  -2.986  -1.885 -0.52 +0.00    +0.004 C 
DOCKED: ATOM     45  C   UNL d   1       4.811  -3.295  -0.659 -0.56 +0.00    +0.012 C 
DOCKED: ENDBRANCH  12  44
DOCKED: BRANCH  17  46
DOCKED: ATOM     46  C   UNL d   1      -0.290  -9.470  -0.129 -0.53 -0.00    +0.004 C 
DOCKED: ATOM     47  C   UNL d   1      -0.286  -9.602   1.203 -0.66 -0.00    +0.012 C 
DOCKED: ENDBRANCH  17  46
DOCKED: TORSDOF 10
DOCKED: TER
DOCKED: ENDMDL
________________________________________________________________________________


	BEGINNING GENETIC ALGORITHM DOCKING 23 of 100
Run: 23 Seed: 140075711 949593243 [ Run 23 of 100 GA/GALS ]
Beginning LAMARCKIAN GENETIC ALGORITHM (LGA), with a maximum of 25000000 energy evaluations.

Final-Value: -14.130


	FINAL GENETIC ALGORITHM DOCKED STATE
	_______________________________________________


Detailed state:  trans 23.840 -5.788 34.753 quatxyzw -0.787387 0.376018 0.486586 0.043199 center 8.287 34.468 -0.670 ntor 10 11.7067 101.6892 -104.2110 119.0031 46.9103 -172.1775 -158.6500 73.4116 -1.0877 -0.6031
State:	 23.840  -5.788  34.753  -0.788  0.376  0.487 175.048     11.71  101.69 -104.21  119.00   46.91 -172.18 -158.65   73.41   -1.09   -0.60

DOCKED: MODEL       23
DOCKED: USER    Run = 23
DOCKED: USER    DPF = D:/Protein_go_brrr/autodock/final/1A3N/heme_O2/dock.dpf
DOCKED: USER  
DOCKED: USER    Estimated Free Energy of Binding    =  -10.38 kcal/mol  [=(1)+(2)+(3)-(4)]
DOCKED: USER    Estimated Inhibition Constant, Ki   =   24.62 nM (nanomolar)  [Temperature = 298.15 K]
DOCKED: USER    
DOCKED: USER    (1) Final Intermolecular Energy     =  -13.36 kcal/mol
DOCKED: USER        vdW + Hbond + desolv Energy     =  -11.79 kcal/mol
DOCKED: USER        Electrostatic Energy            =   -1.57 kcal/mol
DOCKED: USER    (2) Final Total Internal Energy     =   -0.77 kcal/mol
DOCKED: USER    (3) Torsional Free Energy           =   +2.98 kcal/mol
DOCKED: USER    (4) Unbound System's Energy  [=(2)] =   -0.77 kcal/mol
DOCKED: USER    
DOCKED: USER    
DOCKED: USER    NEWDPF move heme_O2_opt.pdbqt
DOCKED: USER    NEWDPF about 8.287000 34.468000 -0.670000
DOCKED: USER    NEWDPF tran0 23.840025 -5.788402 34.752903
DOCKED: USER    NEWDPF quaternion0 -0.787387 0.376018 0.486586 0.043199
DOCKED: USER    NEWDPF axisangle0 -0.788123 0.376370 0.487041 175.048273
DOCKED: USER    NEWDPF quat0 -0.788123 0.376370 0.487041 175.048273
DOCKED: USER    NEWDPF dihe0 11.71 101.69 -104.21 119.00 46.91 -172.18 -158.65 73.41 -1.09 -0.60 
DOCKED: USER  keepresnum = 1 
DOCKED: USER  
DOCKED: REMARK  10 active torsions:
DOCKED: REMARK  status: ('A' for Active; 'I' for Inactive)
DOCKED: REMARK    1  A    between atoms: C_6  and  C_10 
DOCKED: REMARK    2  A    between atoms: C_10  and  C_11 
DOCKED: REMARK    3  A    between atoms: C_11  and  C_12 
DOCKED: REMARK    4  A    between atoms: C_12  and  O_14 
DOCKED: REMARK    5  A    between atoms: C_17  and  C_20 
DOCKED: REMARK    6  A    between atoms: C_24  and  C_27 
DOCKED: REMARK    7  A    between atoms: C_31  and  C_34 
DOCKED: REMARK    8  A    between atoms: C_34  and  C_35 
DOCKED: REMARK    9  A    between atoms: C_35  and  C_36 
DOCKED: REMARK   10  A    between atoms: C_36  and  O_38 
DOCKED: USER                              x       y       z     vdW  Elec       q    Type
DOCKED: USER                           _______ _______ _______ _____ _____    ______ ____
DOCKED: ROOT
DOCKED: ATOM      1  C   UNL d   1      23.692  -5.270  36.804 -0.16 +0.02    +0.064 A 
DOCKED: ATOM      2  C   UNL d   1      22.518  -2.965  32.821 -0.44 +0.01    +0.064 A 
DOCKED: ATOM      3  C   UNL d   1      24.109  -6.615  30.130 -0.31 +0.00    +0.064 C 
DOCKED: ATOM      4  C   UNL d   1      24.882  -9.195  34.231 -0.21 +0.02    +0.064 A 
DOCKED: ATOM      5  C   UNL d   1      23.241  -4.346  35.941 -0.22 +0.01    +0.066 A 
DOCKED: ATOM      6  C   UNL d   1      22.713  -3.110  36.322 -0.23 -0.00    -0.021 A 
DOCKED: ATOM      7  C   UNL d   1      22.332  -2.459  35.172 -0.37 -0.00    -0.025 A 
DOCKED: ATOM      8  C   UNL d   1      22.683  -3.296  34.116 -0.38 +0.01    +0.066 A 
DOCKED: ATOM      9  C   UNL d   1      21.641  -1.114  35.126 -0.34 +0.00    +0.051 C 
DOCKED: ATOM     10  C   UNL d   1      22.887  -3.792  31.671 -0.40 +0.01    +0.066 A 
DOCKED: ATOM     11  C   UNL d   1      22.845  -3.334  30.349 -0.45 -0.00    -0.021 A 
DOCKED: ATOM     12  C   UNL d   1      23.317  -4.366  29.560 -0.43 +0.00    +0.000 A 
DOCKED: ATOM     13  C   UNL d   1      23.616  -5.423  30.464 -0.30 +0.00    +0.070 A 
DOCKED: ATOM     14  C   UNL d   1      22.399  -1.960  29.863 -0.56 +0.00    +0.052 C 
DOCKED: ATOM     15  C   UNL d   1      24.392  -7.724  31.010 -0.10 +0.00    +0.066 A 
DOCKED: ATOM     16  C   UNL d   1      24.752  -9.001  30.582 -0.40 -0.00    -0.021 A 
DOCKED: ATOM     17  C   UNL d   1      24.976  -9.755  31.734 -0.42 +0.00    +0.000 A 
DOCKED: ATOM     18  C   UNL d   1      24.735  -8.868  32.793 -0.34 +0.01    +0.070 A 
DOCKED: ATOM     19  C   UNL d   1      24.794  -9.400  29.128 -0.50 +0.00    +0.052 C 
DOCKED: ATOM     20  C   UNL d   1      24.617  -8.382  35.272 -0.22 +0.03    +0.066 A 
DOCKED: ATOM     21  C   UNL d   1      24.791  -8.740  36.606 -0.16 -0.02    -0.025 A 
DOCKED: ATOM     22  C   UNL d   1      24.483  -7.625  37.353 -0.16 -0.01    -0.021 A 
DOCKED: ATOM     23  C   UNL d   1      24.114  -6.629  36.444 -0.19 +0.03    +0.066 A 
DOCKED: ATOM     24  C   UNL d   1      25.226 -10.080  37.141 -0.15 +0.04    +0.051 C 
DOCKED: ATOM     25  N   UNL d   1      23.183  -4.486  34.593 -0.20 -0.04    -0.248 N 
DOCKED: ATOM     26  N   UNL d   1      23.347  -5.067  31.745 -0.24 -0.04    -0.248 N 
DOCKED: ATOM     27  N   UNL d   1      24.310  -7.662  32.336 -0.24 -0.03    -0.248 N 
DOCKED: ATOM     28  N   UNL d   1      24.153  -7.107  35.183 -0.16 -0.09    -0.248 N 
DOCKED: ATOM     29 FE   UNL d   1      23.754  -6.097  33.475 -0.07 +0.00    +0.000 Fe
DOCKED: ATOM     30  O   UNL d   1      22.218  -5.841  33.471 -0.17 +0.00    +0.000 OA
DOCKED: ATOM     31  O   UNL d   1      22.764  -7.317  33.544 -0.35 +0.00    +0.000 OA
DOCKED: ENDROOT
DOCKED: BRANCH   6  32
DOCKED: ATOM     32  C   UNL d   1      22.446  -2.611  37.719 -0.16 +0.01    +0.052 C 
DOCKED: BRANCH  32  33
DOCKED: ATOM     33  C   UNL d   1      23.689  -2.030  38.387 -0.13 +0.02    +0.115 C 
DOCKED: BRANCH  33  34
DOCKED: ATOM     34  C   UNL d   1      24.758  -1.659  37.390 -0.27 +0.02    +0.139 C 
DOCKED: ATOM     35  O   UNL d   1      25.738  -2.376  37.262 +0.00 -0.14    -0.650 OA
DOCKED: BRANCH  34  36
DOCKED: ATOM     36  O   UNL d   1      24.672  -0.533  36.652 +0.00 +0.04    -0.776 OA
DOCKED: ATOM     37  H   UNL d   1      24.026   0.156  36.846 -0.45 -0.06    +0.167 HD
DOCKED: ENDBRANCH  34  36
DOCKED: ENDBRANCH  33  34
DOCKED: ENDBRANCH  32  33
DOCKED: ENDBRANCH   6  32
DOCKED: BRANCH  22  38
DOCKED: ATOM     38  C   UNL d   1      24.484  -7.548  38.858 -0.09 +0.03    +0.052 C 
DOCKED: BRANCH  38  39
DOCKED: ATOM     39  C   UNL d   1      25.736  -6.867  39.405 -0.06 +0.11    +0.115 C 
DOCKED: BRANCH  39  40
DOCKED: ATOM     40  C   UNL d   1      26.678  -7.841  40.068 +0.01 +0.17    +0.139 C 
DOCKED: ATOM     41  O   UNL d   1      26.239  -8.863  40.570 -0.02 -0.49    -0.650 OA
DOCKED: BRANCH  40  42
DOCKED: ATOM     42  O   UNL d   1      28.008  -7.628  40.073 +0.09 -1.42    -0.776 OA
DOCKED: ATOM     43  H   UNL d   1      28.468  -7.321  40.864 +0.00 +0.17    +0.167 HD
DOCKED: ENDBRANCH  40  42
DOCKED: ENDBRANCH  39  40
DOCKED: ENDBRANCH  38  39
DOCKED: ENDBRANCH  22  38
DOCKED: BRANCH  12  44
DOCKED: ATOM     44  C   UNL d   1      23.429  -4.240  28.055 -0.50 +0.00    +0.004 C 
DOCKED: ATOM     45  C   UNL d   1      24.297  -3.510  27.356 -0.53 +0.00    +0.012 C 
DOCKED: ENDBRANCH  12  44
DOCKED: BRANCH  17  46
DOCKED: ATOM     46  C   UNL d   1      25.330 -11.207  31.912 -0.41 +0.00    +0.004 C 
DOCKED: ATOM     47  C   UNL d   1      26.473 -11.731  32.371 -0.39 +0.00    +0.012 C 
DOCKED: ENDBRANCH  17  46
DOCKED: TORSDOF 10
DOCKED: TER
DOCKED: ENDMDL
________________________________________________________________________________


	BEGINNING GENETIC ALGORITHM DOCKING 24 of 100
Run: 24 Seed: 1321414406 106744458 [ Run 24 of 100 GA/GALS ]
Beginning LAMARCKIAN GENETIC ALGORITHM (LGA), with a maximum of 25000000 energy evaluations.

Final-Value: -11.948


	FINAL GENETIC ALGORITHM DOCKED STATE
	_______________________________________________


Detailed state:  trans 15.855 4.166 13.787 quatxyzw 0.215316 0.027885 0.784640 -0.580691 center 8.287 34.468 -0.670 ntor 10 -117.8398 10.1534 -101.1786 -77.3238 -137.1073 -179.5255 -133.7584 -110.8415 -28.4699 107.6390
State:	 15.855   4.166  13.787   0.264  0.034  0.964 -109.002   -117.84   10.15 -101.18  -77.32 -137.11 -179.53 -133.76 -110.84  -28.47  107.64

DOCKED: MODEL       24
DOCKED: USER    Run = 24
DOCKED: USER    DPF = D:/Protein_go_brrr/autodock/final/1A3N/heme_O2/dock.dpf
DOCKED: USER  
DOCKED: USER    Estimated Free Energy of Binding    =   -8.43 kcal/mol  [=(1)+(2)+(3)-(4)]
DOCKED: USER    Estimated Inhibition Constant, Ki   =  663.92 nM (nanomolar)  [Temperature = 298.15 K]
DOCKED: USER    
DOCKED: USER    (1) Final Intermolecular Energy     =  -11.41 kcal/mol
DOCKED: USER        vdW + Hbond + desolv Energy     =   -9.32 kcal/mol
DOCKED: USER        Electrostatic Energy            =   -2.10 kcal/mol
DOCKED: USER    (2) Final Total Internal Energy     =   -0.54 kcal/mol
DOCKED: USER    (3) Torsional Free Energy           =   +2.98 kcal/mol
DOCKED: USER    (4) Unbound System's Energy  [=(2)] =   -0.54 kcal/mol
DOCKED: USER    
DOCKED: USER    
DOCKED: USER    NEWDPF move heme_O2_opt.pdbqt
DOCKED: USER    NEWDPF about 8.287000 34.468000 -0.670000
DOCKED: USER    NEWDPF tran0 15.855066 4.166400 13.786531
DOCKED: USER    NEWDPF quaternion0 0.215316 0.027885 0.784640 -0.580691
DOCKED: USER    NEWDPF axisangle0 0.264475 0.034251 0.963784 -109.001707
DOCKED: USER    NEWDPF quat0 0.264475 0.034251 0.963784 -109.001707
DOCKED: USER    NEWDPF dihe0 -117.84 10.15 -101.18 -77.32 -137.11 -179.53 -133.76 -110.84 -28.47 107.64 
DOCKED: USER  keepresnum = 1 
DOCKED: USER  
DOCKED: REMARK  10 active torsions:
DOCKED: REMARK  status: ('A' for Active; 'I' for Inactive)
DOCKED: REMARK    1  A    between atoms: C_6  and  C_10 
DOCKED: REMARK    2  A    between atoms: C_10  and  C_11 
DOCKED: REMARK    3  A    between atoms: C_11  and  C_12 
DOCKED: REMARK    4  A    between atoms: C_12  and  O_14 
DOCKED: REMARK    5  A    between atoms: C_17  and  C_20 
DOCKED: REMARK    6  A    between atoms: C_24  and  C_27 
DOCKED: REMARK    7  A    between atoms: C_31  and  C_34 
DOCKED: REMARK    8  A    between atoms: C_34  and  C_35 
DOCKED: REMARK    9  A    between atoms: C_35  and  C_36 
DOCKED: REMARK   10  A    between atoms: C_36  and  O_38 
DOCKED: USER                              x       y       z     vdW  Elec       q    Type
DOCKED: USER                           _______ _______ _______ _____ _____    ______ ____
DOCKED: ROOT
DOCKED: ATOM      1  C   UNL d   1      15.453   2.410  12.668 -0.15 +0.03    +0.064 A 
DOCKED: ATOM      2  C   UNL d   1      19.004   3.614  15.583 -0.19 -0.00    +0.064 A 
DOCKED: ATOM      3  C   UNL d   1      17.058   7.946  16.314 -0.22 +0.03    +0.064 C 
DOCKED: ATOM      4  C   UNL d   1      13.154   6.545  13.695 -0.17 +0.04    +0.064 A 
DOCKED: ATOM      5  C   UNL d   1      16.577   2.383  13.402 -0.14 +0.03    +0.066 A 
DOCKED: ATOM      6  C   UNL d   1      17.456   1.298  13.448 -0.13 -0.00    -0.021 A 
DOCKED: ATOM      7  C   UNL d   1      18.462   1.628  14.325 -0.15 +0.00    -0.025 A 
DOCKED: ATOM      8  C   UNL d   1      18.195   2.926  14.754 -0.16 +0.01    +0.066 A 
DOCKED: ATOM      9  C   UNL d   1      19.593   0.709  14.732 -0.19 -0.02    +0.051 C 
DOCKED: ATOM     10  C   UNL d   1      18.789   4.984  16.049 -0.20 +0.01    +0.066 A 
DOCKED: ATOM     11  C   UNL d   1      19.740   5.708  16.776 -0.24 +0.00    -0.021 A 
DOCKED: ATOM     12  C   UNL d   1      19.205   6.966  16.981 -0.27 +0.00    +0.000 A 
DOCKED: ATOM     13  C   UNL d   1      17.923   6.934  16.365 -0.22 +0.03    +0.070 A 
DOCKED: ATOM     14  C   UNL d   1      21.114   5.229  17.231 -0.34 -0.01    +0.052 C 
DOCKED: ATOM     15  C   UNL d   1      15.738   7.943  15.731 -0.23 +0.04    +0.066 A 
DOCKED: ATOM     16  C   UNL d   1      14.817   8.982  15.855 -0.25 -0.01    -0.021 A 
DOCKED: ATOM     17  C   UNL d   1      13.695   8.605  15.116 -0.22 +0.00    +0.000 A 
DOCKED: ATOM     18  C   UNL d   1      14.022   7.347  14.589 -0.18 +0.04    +0.070 A 
DOCKED: ATOM     19  C   UNL d   1      15.064  10.205  16.702 -0.38 +0.00    +0.052 C 
DOCKED: ATOM     20  C   UNL d   1      13.418   5.317  13.207 -0.17 +0.05    +0.066 A 
DOCKED: ATOM     21  C   UNL d   1      12.570   4.618  12.353 -0.17 -0.01    -0.025 A 
DOCKED: ATOM     22  C   UNL d   1      13.221   3.449  12.028 -0.18 -0.01    -0.021 A 
DOCKED: ATOM     23  C   UNL d   1      14.440   3.470  12.713 -0.16 +0.05    +0.066 A 
DOCKED: ATOM     24  C   UNL d   1      11.205   5.042  11.875 -0.12 +0.02    +0.051 C 
DOCKED: ATOM     25  N   UNL d   1      16.999   3.365  14.236 -0.09 -0.21    -0.248 N 
DOCKED: ATOM     26  N   UNL d   1      17.676   5.722  15.804 -0.15 -0.17    -0.248 N 
DOCKED: ATOM     27  N   UNL d   1      15.234   6.929  15.034 -0.13 -0.23    -0.248 N 
DOCKED: ATOM     28  N   UNL d   1      14.536   4.587  13.463 -0.09 -0.28    -0.248 N 
DOCKED: ATOM     29 FE   UNL d   1      16.093   5.153  14.626 -0.05 +0.00    +0.000 Fe
DOCKED: ATOM     30  O   UNL d   1      16.107   4.178  15.839 -0.42 +0.00    +0.000 OA
DOCKED: ATOM     31  O   UNL d   1      14.826   5.049  15.552 -0.39 +0.00    +0.000 OA
DOCKED: ENDROOT
DOCKED: BRANCH   6  32
DOCKED: ATOM     32  C   UNL d   1      17.290  -0.053  12.801 -0.10 +0.00    +0.052 C 
DOCKED: BRANCH  32  33
DOCKED: ATOM     33  C   UNL d   1      17.057   0.036  11.296 -0.17 +0.00    +0.115 C 
DOCKED: BRANCH  33  34
DOCKED: ATOM     34  C   UNL d   1      17.981   1.024  10.628 -0.31 +0.01    +0.139 C 
DOCKED: ATOM     35  O   UNL d   1      19.165   0.754  10.504 -0.07 -0.04    -0.650 OA
DOCKED: BRANCH  34  36
DOCKED: ATOM     36  O   UNL d   1      17.534   2.218  10.187 +0.03 -0.16    -0.776 OA
DOCKED: ATOM     37  H   UNL d   1      17.562   2.461   9.254 -0.50 -0.01    +0.167 HD
DOCKED: ENDBRANCH  34  36
DOCKED: ENDBRANCH  33  34
DOCKED: ENDBRANCH  32  33
DOCKED: ENDBRANCH   6  32
DOCKED: BRANCH  22  38
DOCKED: ATOM     38  C   UNL d   1      12.668   2.348  11.160 -0.19 +0.00    +0.052 C 
DOCKED: BRANCH  38  39
DOCKED: ATOM     39  C   UNL d   1      13.217   0.975  11.541 -0.17 +0.01    +0.115 C 
DOCKED: BRANCH  39  40
DOCKED: ATOM     40  C   UNL d   1      12.729   0.514  12.892 -0.09 +0.10    +0.139 C 
DOCKED: ATOM     41  O   UNL d   1      12.558   1.329  13.785 -0.25 -1.07    -0.650 OA
DOCKED: BRANCH  40  42
DOCKED: ATOM     42  O   UNL d   1      12.428  -0.779  13.119 +0.05 -0.41    -0.776 OA
DOCKED: ATOM     43  H   UNL d   1      12.684  -1.473  12.499 +0.04 +0.04    +0.167 HD
DOCKED: ENDBRANCH  40  42
DOCKED: ENDBRANCH  39  40
DOCKED: ENDBRANCH  38  39
DOCKED: ENDBRANCH  22  38
DOCKED: BRANCH  12  44
DOCKED: ATOM     44  C   UNL d   1      19.955   8.047  17.732 -0.33 +0.00    +0.004 C 
DOCKED: ATOM     45  C   UNL d   1      20.990   8.771  17.307 -0.37 +0.00    +0.012 C 
DOCKED: ENDBRANCH  12  44
DOCKED: BRANCH  17  46
DOCKED: ATOM     46  C   UNL d   1      12.365   9.283  14.922 -0.30 +0.00    +0.004 C 
DOCKED: ATOM     47  C   UNL d   1      11.287   9.235  15.716 -0.46 +0.00    +0.012 C 
DOCKED: ENDBRANCH  17  46
DOCKED: TORSDOF 10
DOCKED: TER
DOCKED: ENDMDL
________________________________________________________________________________


	BEGINNING GENETIC ALGORITHM DOCKING 25 of 100
Run: 25 Seed: 989403724 1576889855 [ Run 25 of 100 GA/GALS ]
Beginning LAMARCKIAN GENETIC ALGORITHM (LGA), with a maximum of 25000000 energy evaluations.

Final-Value: -19.415


	FINAL GENETIC ALGORITHM DOCKED STATE
	_______________________________________________


Detailed state:  trans 8.240 12.015 28.344 quatxyzw 0.758211 -0.407722 -0.490024 -0.136950 center 8.287 34.468 -0.670 ntor 10 15.1744 -87.7141 43.2189 -72.3248 74.9280 158.6404 44.0025 22.9602 -79.1616 -179.5621
State:	  8.240  12.015  28.344   0.765 -0.412 -0.495 -164.257     15.17  -87.71   43.22  -72.32   74.93  158.64   44.00   22.96  -79.16 -179.56

DOCKED: MODEL       25
DOCKED: USER    Run = 25
DOCKED: USER    DPF = D:/Protein_go_brrr/autodock/final/1A3N/heme_O2/dock.dpf
DOCKED: USER  
DOCKED: USER    Estimated Free Energy of Binding    =  -15.46 kcal/mol  [=(1)+(2)+(3)-(4)]
DOCKED: USER    Estimated Inhibition Constant, Ki   =    4.64 pM (picomolar)  [Temperature = 298.15 K]
DOCKED: USER    
DOCKED: USER    (1) Final Intermolecular Energy     =  -18.44 kcal/mol
DOCKED: USER        vdW + Hbond + desolv Energy     =  -15.92 kcal/mol
DOCKED: USER        Electrostatic Energy            =   -2.52 kcal/mol
DOCKED: USER    (2) Final Total Internal Energy     =   -0.97 kcal/mol
DOCKED: USER    (3) Torsional Free Energy           =   +2.98 kcal/mol
DOCKED: USER    (4) Unbound System's Energy  [=(2)] =   -0.97 kcal/mol
DOCKED: USER    
DOCKED: USER    
DOCKED: USER    NEWDPF move heme_O2_opt.pdbqt
DOCKED: USER    NEWDPF about 8.287000 34.468000 -0.670000
DOCKED: USER    NEWDPF tran0 8.239674 12.014821 28.344371
DOCKED: USER    NEWDPF quaternion0 0.758211 -0.407722 -0.490024 -0.136950
DOCKED: USER    NEWDPF axisangle0 0.765423 -0.411600 -0.494685 -164.257163
DOCKED: USER    NEWDPF quat0 0.765423 -0.411600 -0.494685 -164.257163
DOCKED: USER    NEWDPF dihe0 15.17 -87.71 43.22 -72.32 74.93 158.64 44.00 22.96 -79.16 -179.56 
DOCKED: USER  keepresnum = 1 
DOCKED: USER  
DOCKED: REMARK  10 active torsions:
DOCKED: REMARK  status: ('A' for Active; 'I' for Inactive)
DOCKED: REMARK    1  A    between atoms: C_6  and  C_10 
DOCKED: REMARK    2  A    between atoms: C_10  and  C_11 
DOCKED: REMARK    3  A    between atoms: C_11  and  C_12 
DOCKED: REMARK    4  A    between atoms: C_12  and  O_14 
DOCKED: REMARK    5  A    between atoms: C_17  and  C_20 
DOCKED: REMARK    6  A    between atoms: C_24  and  C_27 
DOCKED: REMARK    7  A    between atoms: C_31  and  C_34 
DOCKED: REMARK    8  A    between atoms: C_34  and  C_35 
DOCKED: REMARK    9  A    between atoms: C_35  and  C_36 
DOCKED: REMARK   10  A    between atoms: C_36  and  O_38 
DOCKED: USER                              x       y       z     vdW  Elec       q    Type
DOCKED: USER                           _______ _______ _______ _____ _____    ______ ____
DOCKED: ROOT
DOCKED: ATOM      1  C   UNL d   1       8.282  12.889  30.276 -0.15 +0.02    +0.064 A 
DOCKED: ATOM      2  C   UNL d   1       6.653  14.434  26.091 -0.38 +0.01    +0.064 A 
DOCKED: ATOM      3  C   UNL d   1       8.071  10.379  23.938 -0.40 +0.00    +0.064 C 
DOCKED: ATOM      4  C   UNL d   1       9.319   8.580  28.328 -0.39 +0.01    +0.064 A 
DOCKED: ATOM      5  C   UNL d   1       7.722  13.640  29.314 -0.24 +0.01    +0.066 A 
DOCKED: ATOM      6  C   UNL d   1       7.199  14.919  29.524 -0.38 -0.00    -0.021 A 
DOCKED: ATOM      7  C   UNL d   1       6.688  15.350  28.322 -0.44 -0.00    -0.025 A 
DOCKED: ATOM      8  C   UNL d   1       6.956  14.342  27.400 -0.37 +0.01    +0.066 A 
DOCKED: ATOM      9  C   UNL d   1       5.958  16.658  28.111 -0.43 +0.00    +0.051 C 
DOCKED: ATOM     10  C   UNL d   1       6.930  13.420  25.073 -0.35 +0.00    +0.066 A 
DOCKED: ATOM     11  C   UNL d   1       6.744  13.634  23.703 -0.37 -0.00    -0.021 A 
DOCKED: ATOM     12  C   UNL d   1       7.164  12.483  23.063 -0.40 +0.00    +0.000 A 
DOCKED: ATOM     13  C   UNL d   1       7.581  11.607  24.104 -0.30 +0.00    +0.070 A 
DOCKED: ATOM     14  C   UNL d   1       6.213  14.895  23.030 -0.44 +0.00    +0.052 C 
DOCKED: ATOM     15  C   UNL d   1       8.471   9.448  24.966 -0.39 +0.01    +0.066 A 
DOCKED: ATOM     16  C   UNL d   1       8.822   8.119  24.735 -0.52 -0.00    -0.021 A 
DOCKED: ATOM     17  C   UNL d   1       9.181   7.585  25.973 -0.47 +0.00    +0.000 A 
DOCKED: ATOM     18  C   UNL d   1       9.022   8.644  26.877 -0.38 +0.01    +0.070 A 
DOCKED: ATOM     19  C   UNL d   1       8.731   7.467  23.378 -0.57 +0.00    +0.052 C 
DOCKED: ATOM     20  C   UNL d   1       9.137   9.564  29.231 -0.38 +0.01    +0.066 A 
DOCKED: ATOM     21  C   UNL d   1       9.453   9.451  30.582 -0.42 -0.01    -0.025 A 
DOCKED: ATOM     22  C   UNL d   1       9.189  10.678  31.148 -0.33 -0.01    -0.021 A 
DOCKED: ATOM     23  C   UNL d   1       8.703  11.492  30.120 -0.31 +0.02    +0.066 A 
DOCKED: ATOM     24  C   UNL d   1       9.976   8.232  31.297 -0.54 +0.02    +0.051 C 
DOCKED: ATOM     25  N   UNL d   1       7.534  13.261  28.026 -0.20 -0.03    -0.248 N 
DOCKED: ATOM     26  N   UNL d   1       7.430  12.183  25.323 -0.22 -0.01    -0.248 N 
DOCKED: ATOM     27  N   UNL d   1       8.519   9.745  26.261 -0.22 -0.03    -0.248 N 
DOCKED: ATOM     28  N   UNL d   1       8.631  10.797  28.966 -0.25 -0.05    -0.248 N 
DOCKED: ATOM     29 FE   UNL d   1       8.036  11.483  27.157 -0.08 +0.00    +0.000 Fe
DOCKED: ATOM     30  O   UNL d   1       6.501  11.718  27.265 -0.40 +0.00    +0.000 OA
DOCKED: ATOM     31  O   UNL d   1       7.092  10.285  27.542 -0.71 +0.00    +0.000 OA
DOCKED: ENDROOT
DOCKED: BRANCH   6  32
DOCKED: ATOM     32  C   UNL d   1       7.059  15.656  30.830 -0.35 +0.02    +0.052 C 
DOCKED: BRANCH  32  33
DOCKED: ATOM     33  C   UNL d   1       7.675  14.902  32.005 -0.27 +0.06    +0.115 C 
DOCKED: BRANCH  33  34
DOCKED: ATOM     34  C   UNL d   1       6.814  14.961  33.242 -0.14 +0.15    +0.139 C 
DOCKED: ATOM     35  O   UNL d   1       6.782  15.984  33.907 -0.18 -0.98    -0.650 OA
DOCKED: BRANCH  34  36
DOCKED: ATOM     36  O   UNL d   1       6.095  13.895  33.650 -0.14 -1.17    -0.776 OA
DOCKED: ATOM     37  H   UNL d   1       6.262  13.007  33.313 +0.03 +0.14    +0.167 HD
DOCKED: ENDBRANCH  34  36
DOCKED: ENDBRANCH  33  34
DOCKED: ENDBRANCH  32  33
DOCKED: ENDBRANCH   6  32
DOCKED: BRANCH  22  38
DOCKED: ATOM     38  C   UNL d   1       9.337  11.022  32.607 -0.30 +0.03    +0.052 C 
DOCKED: BRANCH  38  39
DOCKED: ATOM     39  C   UNL d   1       8.183  10.486  33.451 -0.35 +0.05    +0.115 C 
DOCKED: BRANCH  39  40
DOCKED: ATOM     40  C   UNL d   1       8.026  11.231  34.753 -0.23 +0.09    +0.139 C 
DOCKED: ATOM     41  O   UNL d   1       8.965  11.299  35.529 -0.04 -0.49    -0.650 OA
DOCKED: BRANCH  40  42
DOCKED: ATOM     42  O   UNL d   1       6.879  11.870  35.056 +0.06 -0.62    -0.776 OA
DOCKED: ATOM     43  H   UNL d   1       6.707  12.769  34.751 +0.06 +0.19    +0.167 HD
DOCKED: ENDBRANCH  40  42
DOCKED: ENDBRANCH  39  40
DOCKED: ENDBRANCH  38  39
DOCKED: ENDBRANCH  22  38
DOCKED: BRANCH  12  44
DOCKED: ATOM     44  C   UNL d   1       7.122  12.339  21.556 -0.58 -0.00    +0.004 C 
DOCKED: ATOM     45  C   UNL d   1       6.796  11.259  20.846 -0.72 -0.00    +0.012 C 
DOCKED: ENDBRANCH  12  44
DOCKED: BRANCH  17  46
DOCKED: ATOM     46  C   UNL d   1       9.591   6.191  26.367 -0.62 +0.00    +0.004 C 
DOCKED: ATOM     47  C   UNL d   1       8.808   5.125  26.576 -0.74 +0.00    +0.012 C 
DOCKED: ENDBRANCH  17  46
DOCKED: TORSDOF 10
DOCKED: TER
DOCKED: ENDMDL
________________________________________________________________________________


	BEGINNING GENETIC ALGORITHM DOCKING 26 of 100
Run: 26 Seed: 893245125 1591928928 [ Run 26 of 100 GA/GALS ]
Beginning LAMARCKIAN GENETIC ALGORITHM (LGA), with a maximum of 25000000 energy evaluations.

Final-Value: -16.677


	FINAL GENETIC ALGORITHM DOCKED STATE
	_______________________________________________


Detailed state:  trans 7.573 13.982 31.032 quatxyzw -0.124852 -0.741092 0.207598 0.626177 center 8.287 34.468 -0.670 ntor 10 -17.3049 -11.7155 -51.0159 40.9438 -106.3416 -123.0713 119.8998 66.9214 -172.8716 136.8421
State:	  7.573  13.982  31.032  -0.160 -0.951  0.266 102.463    -17.30  -11.72  -51.02   40.94 -106.34 -123.07  119.90   66.92 -172.87  136.84

DOCKED: MODEL       26
DOCKED: USER    Run = 26
DOCKED: USER    DPF = D:/Protein_go_brrr/autodock/final/1A3N/heme_O2/dock.dpf
DOCKED: USER  
DOCKED: USER    Estimated Free Energy of Binding    =  -12.94 kcal/mol  [=(1)+(2)+(3)-(4)]
DOCKED: USER    Estimated Inhibition Constant, Ki   =  325.58 pM (picomolar)  [Temperature = 298.15 K]
DOCKED: USER    
DOCKED: USER    (1) Final Intermolecular Energy     =  -15.93 kcal/mol
DOCKED: USER        vdW + Hbond + desolv Energy     =  -13.02 kcal/mol
DOCKED: USER        Electrostatic Energy            =   -2.90 kcal/mol
DOCKED: USER    (2) Final Total Internal Energy     =   -0.75 kcal/mol
DOCKED: USER    (3) Torsional Free Energy           =   +2.98 kcal/mol
DOCKED: USER    (4) Unbound System's Energy  [=(2)] =   -0.75 kcal/mol
DOCKED: USER    
DOCKED: USER    
DOCKED: USER    NEWDPF move heme_O2_opt.pdbqt
DOCKED: USER    NEWDPF about 8.287000 34.468000 -0.670000
DOCKED: USER    NEWDPF tran0 7.573150 13.982259 31.032088
DOCKED: USER    NEWDPF quaternion0 -0.124852 -0.741092 0.207598 0.626177
DOCKED: USER    NEWDPF axisangle0 -0.160132 -0.950507 0.266261 102.462722
DOCKED: USER    NEWDPF quat0 -0.160132 -0.950507 0.266261 102.462722
DOCKED: USER    NEWDPF dihe0 -17.30 -11.72 -51.02 40.94 -106.34 -123.07 119.90 66.92 -172.87 136.84 
DOCKED: USER  keepresnum = 1 
DOCKED: USER  
DOCKED: REMARK  10 active torsions:
DOCKED: REMARK  status: ('A' for Active; 'I' for Inactive)
DOCKED: REMARK    1  A    between atoms: C_6  and  C_10 
DOCKED: REMARK    2  A    between atoms: C_10  and  C_11 
DOCKED: REMARK    3  A    between atoms: C_11  and  C_12 
DOCKED: REMARK    4  A    between atoms: C_12  and  O_14 
DOCKED: REMARK    5  A    between atoms: C_17  and  C_20 
DOCKED: REMARK    6  A    between atoms: C_24  and  C_27 
DOCKED: REMARK    7  A    between atoms: C_31  and  C_34 
DOCKED: REMARK    8  A    between atoms: C_34  and  C_35 
DOCKED: REMARK    9  A    between atoms: C_35  and  C_36 
DOCKED: REMARK   10  A    between atoms: C_36  and  O_38 
DOCKED: USER                              x       y       z     vdW  Elec       q    Type
DOCKED: USER                           _______ _______ _______ _____ _____    ______ ____
DOCKED: ROOT
DOCKED: ATOM      1  C   UNL d   1       7.485  15.025  32.877 -0.23 +0.05    +0.064 A 
DOCKED: ATOM      2  C   UNL d   1       9.303  10.810  31.658 -0.28 +0.03    +0.064 A 
DOCKED: ATOM      3  C   UNL d   1       7.855  11.396  27.113 -0.36 +0.01    +0.064 C 
DOCKED: ATOM      4  C   UNL d   1       6.403  15.943  28.248 -0.42 +0.01    +0.064 A 
DOCKED: ATOM      5  C   UNL d   1       8.099  13.831  32.916 -0.21 +0.04    +0.066 A 
DOCKED: ATOM      6  C   UNL d   1       8.648  13.271  34.073 -0.17 -0.01    -0.021 A 
DOCKED: ATOM      7  C   UNL d   1       9.213  12.070  33.712 -0.22 -0.02    -0.025 A 
DOCKED: ATOM      8  C   UNL d   1       8.951  11.908  32.355 -0.24 +0.03    +0.066 A 
DOCKED: ATOM      9  C   UNL d   1       9.985  11.162  34.645 -0.24 +0.05    +0.051 C 
DOCKED: ATOM     10  C   UNL d   1       9.036  10.573  30.239 -0.35 +0.02    +0.066 A 
DOCKED: ATOM     11  C   UNL d   1       9.277   9.349  29.604 -0.42 -0.01    -0.021 A 
DOCKED: ATOM     12  C   UNL d   1       8.849   9.493  28.297 -0.43 +0.00    +0.000 A 
DOCKED: ATOM     13  C   UNL d   1       8.372  10.829  28.203 -0.31 +0.01    +0.070 A 
DOCKED: ATOM     14  C   UNL d   1       9.865   8.088  30.226 -0.41 +0.01    +0.052 C 
DOCKED: ATOM     15  C   UNL d   1       7.394  12.756  26.968 -0.34 +0.00    +0.066 A 
DOCKED: ATOM     16  C   UNL d   1       7.016  13.337  25.757 -0.38 -0.00    -0.021 A 
DOCKED: ATOM     17  C   UNL d   1       6.599  14.634  26.056 -0.43 +0.00    +0.000 A 
DOCKED: ATOM     18  C   UNL d   1       6.754  14.748  27.445 -0.40 +0.01    +0.070 A 
DOCKED: ATOM     19  C   UNL d   1       7.138  12.629  24.431 -0.41 +0.00    +0.052 C 
DOCKED: ATOM     20  C   UNL d   1       6.579  16.101  29.575 -0.37 +0.01    +0.066 A 
DOCKED: ATOM     21  C   UNL d   1       6.213  17.244  30.280 -0.33 -0.01    -0.025 A 
DOCKED: ATOM     22  C   UNL d   1       6.489  16.989  31.604 -0.21 -0.01    -0.021 A 
DOCKED: ATOM     23  C   UNL d   1       7.032  15.702  31.657 -0.27 +0.03    +0.066 A 
DOCKED: ATOM     24  C   UNL d   1       5.632  18.515  29.717 -0.39 +0.01    +0.051 C 
DOCKED: ATOM     25  N   UNL d   1       8.323  13.023  31.851 -0.17 -0.11    -0.248 N 
DOCKED: ATOM     26  N   UNL d   1       8.494  11.481  29.387 -0.18 -0.05    -0.248 N 
DOCKED: ATOM     27  N   UNL d   1       7.308  13.625  27.970 -0.23 -0.03    -0.248 N 
DOCKED: ATOM     28  N   UNL d   1       7.127  15.183  30.415 -0.20 -0.08    -0.248 N 
DOCKED: ATOM     29 FE   UNL d   1       7.805  13.346  29.902 -0.08 +0.00    +0.000 Fe
DOCKED: ATOM     30  O   UNL d   1       9.341  13.363  30.156 -0.39 +0.00    +0.000 OA
DOCKED: ATOM     31  O   UNL d   1       8.702  14.404  29.161 -0.29 +0.00    +0.000 OA
DOCKED: ENDROOT
DOCKED: BRANCH   6  32
DOCKED: ATOM     32  C   UNL d   1       8.761  13.898  35.438 -0.12 +0.04    +0.052 C 
DOCKED: BRANCH  32  33
DOCKED: ATOM     33  C   UNL d   1      10.051  14.691  35.621 -0.12 +0.08    +0.115 C 
DOCKED: BRANCH  33  34
DOCKED: ATOM     34  C   UNL d   1      11.281  13.824  35.505 -0.20 +0.15    +0.139 C 
DOCKED: ATOM     35  O   UNL d   1      11.940  13.846  34.478 -0.27 -0.79    -0.650 OA
DOCKED: BRANCH  34  36
DOCKED: ATOM     36  O   UNL d   1      11.656  12.999  36.504 -0.05 -1.24    -0.776 OA
DOCKED: ATOM     37  H   UNL d   1      11.318  13.096  37.402 +0.03 +0.17    +0.167 HD
DOCKED: ENDBRANCH  34  36
DOCKED: ENDBRANCH  33  34
DOCKED: ENDBRANCH  32  33
DOCKED: ENDBRANCH   6  32
DOCKED: BRANCH  22  38
DOCKED: ATOM     38  C   UNL d   1       6.298  17.958  32.743 -0.06 +0.03    +0.052 C 
DOCKED: BRANCH  38  39
DOCKED: ATOM     39  C   UNL d   1       7.599  18.238  33.493 -0.14 +0.06    +0.115 C 
DOCKED: BRANCH  39  40
DOCKED: ATOM     40  C   UNL d   1       7.566  17.728  34.912 -0.11 +0.11    +0.139 C 
DOCKED: ATOM     41  O   UNL d   1       6.779  16.849  35.223 -0.53 -1.18    -0.650 OA
DOCKED: BRANCH  40  42
DOCKED: ATOM     42  O   UNL d   1       8.430  18.190  35.837 +0.02 -0.39    -0.776 OA
DOCKED: ATOM     43  H   UNL d   1       9.170  18.759  35.597 +0.02 +0.06    +0.167 HD
DOCKED: ENDBRANCH  40  42
DOCKED: ENDBRANCH  39  40
DOCKED: ENDBRANCH  38  39
DOCKED: ENDBRANCH  22  38
DOCKED: BRANCH  12  44
DOCKED: ATOM     44  C   UNL d   1       8.941   8.363  27.293 -0.50 +0.00    +0.004 C 
DOCKED: ATOM     45  C   UNL d   1       7.960   7.836  26.561 -0.52 +0.00    +0.012 C 
DOCKED: ENDBRANCH  12  44
DOCKED: BRANCH  17  46
DOCKED: ATOM     46  C   UNL d   1       6.138  15.755  25.163 -0.52 +0.00    +0.004 C 
DOCKED: ATOM     47  C   UNL d   1       5.438  15.671  24.024 -0.60 +0.00    +0.012 C 
DOCKED: ENDBRANCH  17  46
DOCKED: TORSDOF 10
DOCKED: TER
DOCKED: ENDMDL
________________________________________________________________________________


	BEGINNING GENETIC ALGORITHM DOCKING 27 of 100
Run: 27 Seed: 1123087927 1094583721 [ Run 27 of 100 GA/GALS ]
Beginning LAMARCKIAN GENETIC ALGORITHM (LGA), with a maximum of 25000000 energy evaluations.

Final-Value: -19.594


	FINAL GENETIC ALGORITHM DOCKED STATE
	_______________________________________________


Detailed state:  trans 8.252 12.203 28.521 quatxyzw 0.759491 -0.400174 -0.498542 -0.120377 center 8.287 34.468 -0.670 ntor 10 87.4436 -29.1334 44.0149 -76.4605 81.3567 157.9416 50.7742 -5.3142 -67.9430 -179.9232
State:	  8.252  12.203  28.521   0.765 -0.403 -0.502 -166.172     87.44  -29.13   44.01  -76.46   81.36  157.94   50.77   -5.31  -67.94 -179.92

DOCKED: MODEL       27
DOCKED: USER    Run = 27
DOCKED: USER    DPF = D:/Protein_go_brrr/autodock/final/1A3N/heme_O2/dock.dpf
DOCKED: USER  
DOCKED: USER    Estimated Free Energy of Binding    =  -15.37 kcal/mol  [=(1)+(2)+(3)-(4)]
DOCKED: USER    Estimated Inhibition Constant, Ki   =    5.42 pM (picomolar)  [Temperature = 298.15 K]
DOCKED: USER    
DOCKED: USER    (1) Final Intermolecular Energy     =  -18.35 kcal/mol
DOCKED: USER        vdW + Hbond + desolv Energy     =  -15.92 kcal/mol
DOCKED: USER        Electrostatic Energy            =   -2.43 kcal/mol
DOCKED: USER    (2) Final Total Internal Energy     =   -1.24 kcal/mol
DOCKED: USER    (3) Torsional Free Energy           =   +2.98 kcal/mol
DOCKED: USER    (4) Unbound System's Energy  [=(2)] =   -1.24 kcal/mol
DOCKED: USER    
DOCKED: USER    
DOCKED: USER    NEWDPF move heme_O2_opt.pdbqt
DOCKED: USER    NEWDPF about 8.287000 34.468000 -0.670000
DOCKED: USER    NEWDPF tran0 8.252394 12.203012 28.521194
DOCKED: USER    NEWDPF quaternion0 0.759491 -0.400174 -0.498542 -0.120377
DOCKED: USER    NEWDPF axisangle0 0.765054 -0.403105 -0.502193 -166.172285
DOCKED: USER    NEWDPF quat0 0.765054 -0.403105 -0.502193 -166.172285
DOCKED: USER    NEWDPF dihe0 87.44 -29.13 44.01 -76.46 81.36 157.94 50.77 -5.31 -67.94 -179.92 
DOCKED: USER  keepresnum = 1 
DOCKED: USER  
DOCKED: REMARK  10 active torsions:
DOCKED: REMARK  status: ('A' for Active; 'I' for Inactive)
DOCKED: REMARK    1  A    between atoms: C_6  and  C_10 
DOCKED: REMARK    2  A    between atoms: C_10  and  C_11 
DOCKED: REMARK    3  A    between atoms: C_11  and  C_12 
DOCKED: REMARK    4  A    between atoms: C_12  and  O_14 
DOCKED: REMARK    5  A    between atoms: C_17  and  C_20 
DOCKED: REMARK    6  A    between atoms: C_24  and  C_27 
DOCKED: REMARK    7  A    between atoms: C_31  and  C_34 
DOCKED: REMARK    8  A    between atoms: C_34  and  C_35 
DOCKED: REMARK    9  A    between atoms: C_35  and  C_36 
DOCKED: REMARK   10  A    between atoms: C_36  and  O_38 
DOCKED: USER                              x       y       z     vdW  Elec       q    Type
DOCKED: USER                           _______ _______ _______ _____ _____    ______ ____
DOCKED: ROOT
DOCKED: ATOM      1  C   UNL d   1       8.300  12.999  30.487 -0.20 +0.02    +0.064 A 
DOCKED: ATOM      2  C   UNL d   1       6.681  14.720  26.366 -0.40 +0.01    +0.064 A 
DOCKED: ATOM      3  C   UNL d   1       8.074  10.745  24.053 -0.40 +0.00    +0.064 C 
DOCKED: ATOM      4  C   UNL d   1       9.311   8.766  28.368 -0.39 +0.01    +0.064 A 
DOCKED: ATOM      5  C   UNL d   1       7.744  13.791  29.555 -0.24 +0.01    +0.066 A 
DOCKED: ATOM      6  C   UNL d   1       7.230  15.064  29.816 -0.36 -0.01    -0.021 A 
DOCKED: ATOM      7  C   UNL d   1       6.721  15.546  28.632 -0.43 -0.00    -0.025 A 
DOCKED: ATOM      8  C   UNL d   1       6.983  14.573  27.671 -0.38 +0.01    +0.066 A 
DOCKED: ATOM      9  C   UNL d   1       5.999  16.866  28.473 -0.44 +0.00    +0.051 C 
DOCKED: ATOM     10  C   UNL d   1       6.951  13.745  25.309 -0.36 +0.00    +0.066 A 
DOCKED: ATOM     11  C   UNL d   1       6.766  14.015  23.948 -0.36 -0.00    -0.021 A 
DOCKED: ATOM     12  C   UNL d   1       7.179  12.887  23.263 -0.38 +0.00    +0.000 A 
DOCKED: ATOM     13  C   UNL d   1       7.590  11.968  24.268 -0.34 +0.00    +0.070 A 
DOCKED: ATOM     14  C   UNL d   1       6.243  15.305  23.326 -0.45 +0.00    +0.052 C 
DOCKED: ATOM     15  C   UNL d   1       8.468   9.772  25.043 -0.38 +0.01    +0.066 A 
DOCKED: ATOM     16  C   UNL d   1       8.811   8.450  24.759 -0.50 -0.00    -0.021 A 
DOCKED: ATOM     17  C   UNL d   1       9.166   7.866  25.975 -0.45 +0.00    +0.000 A 
DOCKED: ATOM     18  C   UNL d   1       9.014   8.889  26.921 -0.38 +0.01    +0.070 A 
DOCKED: ATOM     19  C   UNL d   1       8.716   7.854  23.377 -0.68 +0.00    +0.052 C 
DOCKED: ATOM     20  C   UNL d   1       9.135   9.713  29.309 -0.39 +0.01    +0.066 A 
DOCKED: ATOM     21  C   UNL d   1       9.450   9.544  30.654 -0.42 -0.01    -0.025 A 
DOCKED: ATOM     22  C   UNL d   1       9.194  10.750  31.269 -0.32 -0.01    -0.021 A 
DOCKED: ATOM     23  C   UNL d   1       8.713  11.607  30.274 -0.30 +0.02    +0.066 A 
DOCKED: ATOM     24  C   UNL d   1       9.966   8.295  31.321 -0.53 +0.02    +0.051 C 
DOCKED: ATOM     25  N   UNL d   1       7.554  13.465  28.253 -0.20 -0.03    -0.248 N 
DOCKED: ATOM     26  N   UNL d   1       7.444  12.497  25.510 -0.23 -0.01    -0.248 N 
DOCKED: ATOM     27  N   UNL d   1       8.518  10.016  26.349 -0.22 -0.02    -0.248 N 
DOCKED: ATOM     28  N   UNL d   1       8.636  10.959  29.094 -0.25 -0.05    -0.248 N 
DOCKED: ATOM     29 FE   UNL d   1       8.045  11.720  27.314 -0.08 +0.00    +0.000 Fe
DOCKED: ATOM     30  O   UNL d   1       6.512  11.960  27.431 -0.31 +0.00    +0.000 OA
DOCKED: ATOM     31  O   UNL d   1       7.094  10.513  27.650 -0.64 +0.00    +0.000 OA
DOCKED: ENDROOT
DOCKED: BRANCH   6  32
DOCKED: ATOM     32  C   UNL d   1       7.094  15.750  31.151 -0.33 +0.02    +0.052 C 
DOCKED: BRANCH  32  33
DOCKED: ATOM     33  C   UNL d   1       7.933  15.092  32.242 -0.24 +0.06    +0.115 C 
DOCKED: BRANCH  33  34
DOCKED: ATOM     34  C   UNL d   1       7.143  14.841  33.503 -0.15 +0.15    +0.139 C 
DOCKED: ATOM     35  O   UNL d   1       6.787  15.786  34.189 -0.13 -1.16    -0.650 OA
DOCKED: BRANCH  34  36
DOCKED: ATOM     36  O   UNL d   1       6.842  13.590  33.907 -0.05 -0.90    -0.776 OA
DOCKED: ATOM     37  H   UNL d   1       7.438  13.076  34.464 +0.06 +0.16    +0.167 HD
DOCKED: ENDBRANCH  34  36
DOCKED: ENDBRANCH  33  34
DOCKED: ENDBRANCH  32  33
DOCKED: ENDBRANCH   6  32
DOCKED: BRANCH  22  38
DOCKED: ATOM     38  C   UNL d   1       9.344  11.035  32.741 -0.30 +0.03    +0.052 C 
DOCKED: BRANCH  38  39
DOCKED: ATOM     39  C   UNL d   1       8.182  10.480  33.562 -0.35 +0.06    +0.115 C 
DOCKED: BRANCH  39  40
DOCKED: ATOM     40  C   UNL d   1       8.404  10.626  35.047 -0.22 +0.09    +0.139 C 
DOCKED: ATOM     41  O   UNL d   1       9.393  10.131  35.563 -0.36 -0.56    -0.650 OA
DOCKED: BRANCH  40  42
DOCKED: ATOM     42  O   UNL d   1       7.555  11.340  35.811 +0.03 -0.53    -0.776 OA
DOCKED: ATOM     43  H   UNL d   1       7.028  12.060  35.443 +0.07 +0.14    +0.167 HD
DOCKED: ENDBRANCH  40  42
DOCKED: ENDBRANCH  39  40
DOCKED: ENDBRANCH  38  39
DOCKED: ENDBRANCH  22  38
DOCKED: BRANCH  12  44
DOCKED: ATOM     44  C   UNL d   1       7.136  12.804  21.752 -0.54 +0.00    +0.004 C 
DOCKED: ATOM     45  C   UNL d   1       6.790  11.760  20.999 -0.67 -0.00    +0.012 C 
DOCKED: ENDBRANCH  12  44
DOCKED: BRANCH  17  46
DOCKED: ATOM     46  C   UNL d   1       9.568   6.455  26.313 -0.57 +0.00    +0.004 C 
DOCKED: ATOM     47  C   UNL d   1       8.775   5.403  26.554 -0.74 +0.00    +0.012 C 
DOCKED: ENDBRANCH  17  46
DOCKED: TORSDOF 10
DOCKED: TER
DOCKED: ENDMDL
________________________________________________________________________________


	BEGINNING GENETIC ALGORITHM DOCKING 28 of 100
Run: 28 Seed: 1526804109 1961841321 [ Run 28 of 100 GA/GALS ]
Beginning LAMARCKIAN GENETIC ALGORITHM (LGA), with a maximum of 25000000 energy evaluations.

Final-Value: -15.340


	FINAL GENETIC ALGORITHM DOCKED STATE
	_______________________________________________


Detailed state:  trans 2.640 -5.967 -6.433 quatxyzw 0.514231 -0.033766 0.838107 0.178897 center 8.287 34.468 -0.670 ntor 10 94.0254 -101.8284 -107.9358 136.5611 -150.0040 -162.9634 123.0353 107.0372 35.6515 66.6107
State:	  2.640  -5.967  -6.433   0.523 -0.034  0.852 159.389     94.03 -101.83 -107.94  136.56 -150.00 -162.96  123.04  107.04   35.65   66.61

DOCKED: MODEL       28
DOCKED: USER    Run = 28
DOCKED: USER    DPF = D:/Protein_go_brrr/autodock/final/1A3N/heme_O2/dock.dpf
DOCKED: USER  
DOCKED: USER    Estimated Free Energy of Binding    =  -10.88 kcal/mol  [=(1)+(2)+(3)-(4)]
DOCKED: USER    Estimated Inhibition Constant, Ki   =   10.58 nM (nanomolar)  [Temperature = 298.15 K]
DOCKED: USER    
DOCKED: USER    (1) Final Intermolecular Energy     =  -13.86 kcal/mol
DOCKED: USER        vdW + Hbond + desolv Energy     =  -12.39 kcal/mol
DOCKED: USER        Electrostatic Energy            =   -1.47 kcal/mol
DOCKED: USER    (2) Final Total Internal Energy     =   -1.48 kcal/mol
DOCKED: USER    (3) Torsional Free Energy           =   +2.98 kcal/mol
DOCKED: USER    (4) Unbound System's Energy  [=(2)] =   -1.48 kcal/mol
DOCKED: USER    
DOCKED: USER    
DOCKED: USER    NEWDPF move heme_O2_opt.pdbqt
DOCKED: USER    NEWDPF about 8.287000 34.468000 -0.670000
DOCKED: USER    NEWDPF tran0 2.640158 -5.966542 -6.433300
DOCKED: USER    NEWDPF quaternion0 0.514231 -0.033766 0.838107 0.178897
DOCKED: USER    NEWDPF axisangle0 0.522662 -0.034320 0.851849 159.388953
DOCKED: USER    NEWDPF quat0 0.522662 -0.034320 0.851849 159.388953
DOCKED: USER    NEWDPF dihe0 94.03 -101.83 -107.94 136.56 -150.00 -162.96 123.04 107.04 35.65 66.61 
DOCKED: USER  keepresnum = 1 
DOCKED: USER  
DOCKED: REMARK  10 active torsions:
DOCKED: REMARK  status: ('A' for Active; 'I' for Inactive)
DOCKED: REMARK    1  A    between atoms: C_6  and  C_10 
DOCKED: REMARK    2  A    between atoms: C_10  and  C_11 
DOCKED: REMARK    3  A    between atoms: C_11  and  C_12 
DOCKED: REMARK    4  A    between atoms: C_12  and  O_14 
DOCKED: REMARK    5  A    between atoms: C_17  and  C_20 
DOCKED: REMARK    6  A    between atoms: C_24  and  C_27 
DOCKED: REMARK    7  A    between atoms: C_31  and  C_34 
DOCKED: REMARK    8  A    between atoms: C_34  and  C_35 
DOCKED: REMARK    9  A    between atoms: C_35  and  C_36 
DOCKED: REMARK   10  A    between atoms: C_36  and  O_38 
DOCKED: USER                              x       y       z     vdW  Elec       q    Type
DOCKED: USER                           _______ _______ _______ _____ _____    ______ ____
DOCKED: ROOT
DOCKED: ATOM      1  C   UNL d   1       2.862  -6.005  -8.542 -0.21 +0.02    +0.064 A 
DOCKED: ATOM      2  C   UNL d   1       4.901  -3.380  -5.150 -0.45 +0.01    +0.064 A 
DOCKED: ATOM      3  C   UNL d   1       2.313  -5.590  -1.756 -0.41 +0.00    +0.064 C 
DOCKED: ATOM      4  C   UNL d   1       0.558  -8.626  -5.187 -0.31 +0.02    +0.064 A 
DOCKED: ATOM      5  C   UNL d   1       3.629  -5.112  -7.896 -0.26 +0.01    +0.066 A 
DOCKED: ATOM      6  C   UNL d   1       4.518  -4.240  -8.531 -0.29 -0.00    -0.021 A 
DOCKED: ATOM      7  C   UNL d   1       5.141  -3.509  -7.546 -0.41 -0.00    -0.025 A 
DOCKED: ATOM      8  C   UNL d   1       4.579  -3.921  -6.340 -0.41 +0.01    +0.066 A 
DOCKED: ATOM      9  C   UNL d   1       6.238  -2.495  -7.783 -0.09 -0.00    +0.051 C 
DOCKED: ATOM     10  C   UNL d   1       4.329  -3.754  -3.855 -0.41 +0.01    +0.066 A 
DOCKED: ATOM     11  C   UNL d   1       4.577  -3.050  -2.672 -0.45 -0.00    -0.021 A 
DOCKED: ATOM     12  C   UNL d   1       3.826  -3.661  -1.685 -0.42 +0.00    +0.000 A 
DOCKED: ATOM     13  C   UNL d   1       3.157  -4.735  -2.335 -0.36 +0.00    +0.070 A 
DOCKED: ATOM     14  C   UNL d   1       5.471  -1.828  -2.496 -0.59 +0.00    +0.052 C 
DOCKED: ATOM     15  C   UNL d   1       1.643  -6.711  -2.370 -0.26 +0.00    +0.066 A 
DOCKED: ATOM     16  C   UNL d   1       0.902  -7.666  -1.675 -0.32 -0.00    -0.021 A 
DOCKED: ATOM     17  C   UNL d   1       0.392  -8.543  -2.633 -0.43 +0.00    +0.000 A 
DOCKED: ATOM     18  C   UNL d   1       0.866  -8.049  -3.857 -0.35 +0.01    +0.070 A 
DOCKED: ATOM     19  C   UNL d   1       0.793  -7.688  -0.171 -0.36 +0.00    +0.052 C 
DOCKED: ATOM     20  C   UNL d   1       1.030  -8.204  -6.376 -0.27 +0.02    +0.066 A 
DOCKED: ATOM     21  C   UNL d   1       0.691  -8.776  -7.598 -0.22 -0.01    -0.025 A 
DOCKED: ATOM     22  C   UNL d   1       1.316  -8.026  -8.568 -0.20 -0.01    -0.021 A 
DOCKED: ATOM     23  C   UNL d   1       2.032  -7.029  -7.897 -0.21 +0.03    +0.066 A 
DOCKED: ATOM     24  C   UNL d   1      -0.184  -9.982  -7.829 -0.18 +0.02    +0.051 C 
DOCKED: ATOM     25  N   UNL d   1       3.696  -4.954  -6.552 -0.23 -0.04    -0.248 N 
DOCKED: ATOM     26  N   UNL d   1       3.473  -4.787  -3.654 -0.25 -0.03    -0.248 N 
DOCKED: ATOM     27  N   UNL d   1       1.684  -6.982  -3.672 -0.23 -0.03    -0.248 N 
DOCKED: ATOM     28  N   UNL d   1       1.892  -7.169  -6.563 -0.13 -0.08    -0.248 N 
DOCKED: ATOM     29 FE   UNL d   1       2.675  -5.988  -5.117 -0.08 +0.00    +0.000 Fe
DOCKED: ATOM     30  O   UNL d   1       4.208  -6.260  -5.117 -0.18 +0.00    +0.000 OA
DOCKED: ATOM     31  O   UNL d   1       3.204  -7.449  -4.871 -0.13 -0.00    +0.000 OA
DOCKED: ENDROOT
DOCKED: BRANCH   6  32
DOCKED: ATOM     32  C   UNL d   1       4.873  -4.187  -9.994 -0.19 +0.00    +0.052 C 
DOCKED: BRANCH  32  33
DOCKED: ATOM     33  C   UNL d   1       4.535  -2.846 -10.638 -0.20 +0.00    +0.115 C 
DOCKED: BRANCH  33  34
DOCKED: ATOM     34  C   UNL d   1       3.068  -2.511 -10.534 -0.28 +0.02    +0.139 C 
DOCKED: ATOM     35  O   UNL d   1       2.544  -2.428  -9.434 -0.05 -0.10    -0.650 OA
DOCKED: BRANCH  34  36
DOCKED: ATOM     36  O   UNL d   1       2.308  -2.329 -11.634 +0.09 -0.19    -0.776 OA
DOCKED: ATOM     37  H   UNL d   1       1.791  -3.043 -12.022 +0.06 +0.06    +0.167 HD
DOCKED: ENDBRANCH  34  36
DOCKED: ENDBRANCH  33  34
DOCKED: ENDBRANCH  32  33
DOCKED: ENDBRANCH   6  32
DOCKED: BRANCH  22  38
DOCKED: ATOM     38  C   UNL d   1       1.277  -8.295 -10.050 -0.12 +0.02    +0.052 C 
DOCKED: BRANCH  38  39
DOCKED: ATOM     39  C   UNL d   1       1.837  -7.134 -10.868 -0.08 +0.05    +0.115 C 
DOCKED: BRANCH  39  40
DOCKED: ATOM     40  C   UNL d   1       0.893  -5.959 -10.921 -0.12 +0.10    +0.139 C 
DOCKED: ATOM     41  O   UNL d   1      -0.286  -6.116 -10.650 -0.47 -1.07    -0.650 OA
DOCKED: BRANCH  40  42
DOCKED: ATOM     42  O   UNL d   1       1.339  -4.722 -11.215 +0.06 -0.40    -0.776 OA
DOCKED: ATOM     43  H   UNL d   1       1.515  -4.072 -10.524 +0.07 +0.08    +0.167 HD
DOCKED: ENDBRANCH  40  42
DOCKED: ENDBRANCH  39  40
DOCKED: ENDBRANCH  38  39
DOCKED: ENDBRANCH  22  38
DOCKED: BRANCH  12  44
DOCKED: ATOM     44  C   UNL d   1       3.827  -3.168  -0.253 -0.54 +0.00    +0.004 C 
DOCKED: ATOM     45  C   UNL d   1       3.337  -2.022   0.219 -0.58 +0.00    +0.012 C 
DOCKED: ENDBRANCH  12  44
DOCKED: BRANCH  17  46
DOCKED: ATOM     46  C   UNL d   1      -0.427  -9.797  -2.487 -0.48 +0.00    +0.004 C 
DOCKED: ATOM     47  C   UNL d   1      -1.562 -10.123  -3.119 -0.42 -0.00    +0.012 C 
DOCKED: ENDBRANCH  17  46
DOCKED: TORSDOF 10
DOCKED: TER
DOCKED: ENDMDL
________________________________________________________________________________


	BEGINNING GENETIC ALGORITHM DOCKING 29 of 100
Run: 29 Seed: 231334966 658787566 [ Run 29 of 100 GA/GALS ]
Beginning LAMARCKIAN GENETIC ALGORITHM (LGA), with a maximum of 25000000 energy evaluations.

Final-Value: -19.640


	FINAL GENETIC ALGORITHM DOCKED STATE
	_______________________________________________


Detailed state:  trans 8.235 12.133 28.247 quatxyzw -0.749605 0.382725 0.532159 0.091767 center 8.287 34.468 -0.670 ntor 10 31.5052 -155.7983 23.1133 -108.5575 173.5937 87.5391 -2.2173 58.3811 -127.8606 -161.7664
State:	  8.235  12.133  28.247  -0.753  0.384  0.534 169.469     31.51 -155.80   23.11 -108.56  173.59   87.54   -2.22   58.38 -127.86 -161.77

DOCKED: MODEL       29
DOCKED: USER    Run = 29
DOCKED: USER    DPF = D:/Protein_go_brrr/autodock/final/1A3N/heme_O2/dock.dpf
DOCKED: USER  
DOCKED: USER    Estimated Free Energy of Binding    =  -15.12 kcal/mol  [=(1)+(2)+(3)-(4)]
DOCKED: USER    Estimated Inhibition Constant, Ki   =    8.25 pM (picomolar)  [Temperature = 298.15 K]
DOCKED: USER    
DOCKED: USER    (1) Final Intermolecular Energy     =  -18.10 kcal/mol
DOCKED: USER        vdW + Hbond + desolv Energy     =  -15.70 kcal/mol
DOCKED: USER        Electrostatic Energy            =   -2.40 kcal/mol
DOCKED: USER    (2) Final Total Internal Energy     =   -1.54 kcal/mol
DOCKED: USER    (3) Torsional Free Energy           =   +2.98 kcal/mol
DOCKED: USER    (4) Unbound System's Energy  [=(2)] =   -1.54 kcal/mol
DOCKED: USER    
DOCKED: USER    
DOCKED: USER    NEWDPF move heme_O2_opt.pdbqt
DOCKED: USER    NEWDPF about 8.287000 34.468000 -0.670000
DOCKED: USER    NEWDPF tran0 8.235077 12.132730 28.247392
DOCKED: USER    NEWDPF quaternion0 -0.749605 0.382725 0.532159 0.091767
DOCKED: USER    NEWDPF axisangle0 -0.752781 0.384347 0.534414 169.469496
DOCKED: USER    NEWDPF quat0 -0.752781 0.384347 0.534414 169.469496
DOCKED: USER    NEWDPF dihe0 31.51 -155.80 23.11 -108.56 173.59 87.54 -2.22 58.38 -127.86 -161.77 
DOCKED: USER  keepresnum = 1 
DOCKED: USER  
DOCKED: REMARK  10 active torsions:
DOCKED: REMARK  status: ('A' for Active; 'I' for Inactive)
DOCKED: REMARK    1  A    between atoms: C_6  and  C_10 
DOCKED: REMARK    2  A    between atoms: C_10  and  C_11 
DOCKED: REMARK    3  A    between atoms: C_11  and  C_12 
DOCKED: REMARK    4  A    between atoms: C_12  and  O_14 
DOCKED: REMARK    5  A    between atoms: C_17  and  C_20 
DOCKED: REMARK    6  A    between atoms: C_24  and  C_27 
DOCKED: REMARK    7  A    between atoms: C_31  and  C_34 
DOCKED: REMARK    8  A    between atoms: C_34  and  C_35 
DOCKED: REMARK    9  A    between atoms: C_35  and  C_36 
DOCKED: REMARK   10  A    between atoms: C_36  and  O_38 
DOCKED: USER                              x       y       z     vdW  Elec       q    Type
DOCKED: USER                           _______ _______ _______ _____ _____    ______ ____
DOCKED: ROOT
DOCKED: ATOM      1  C   UNL d   1       8.380  12.757  30.269 -0.14 +0.02    +0.064 A 
DOCKED: ATOM      2  C   UNL d   1       6.626  14.850  26.384 -0.40 +0.01    +0.064 A 
DOCKED: ATOM      3  C   UNL d   1       7.843  11.066  23.683 -0.30 +0.00    +0.064 C 
DOCKED: ATOM      4  C   UNL d   1       9.218   8.704  27.757 -0.39 +0.01    +0.064 A 
DOCKED: ATOM      5  C   UNL d   1       7.802  13.634  29.433 -0.24 +0.01    +0.066 A 
DOCKED: ATOM      6  C   UNL d   1       7.324  14.889  29.823 -0.36 -0.01    -0.021 A 
DOCKED: ATOM      7  C   UNL d   1       6.776  15.478  28.707 -0.42 -0.00    -0.025 A 
DOCKED: ATOM      8  C   UNL d   1       6.979  14.587  27.657 -0.38 +0.01    +0.066 A 
DOCKED: ATOM      9  C   UNL d   1       6.075  16.819  28.692 -0.46 +0.01    +0.051 C 
DOCKED: ATOM     10  C   UNL d   1       6.832  13.965  25.236 -0.36 +0.00    +0.066 A 
DOCKED: ATOM     11  C   UNL d   1       6.597  14.354  23.913 -0.37 -0.00    -0.021 A 
DOCKED: ATOM     12  C   UNL d   1       6.959  13.282  23.118 -0.34 +0.00    +0.000 A 
DOCKED: ATOM     13  C   UNL d   1       7.393  12.274  24.022 -0.34 +0.00    +0.070 A 
DOCKED: ATOM     14  C   UNL d   1       6.074  15.700  23.425 -0.53 +0.00    +0.052 C 
DOCKED: ATOM     15  C   UNL d   1       8.258  10.005  24.569 -0.36 +0.00    +0.066 A 
DOCKED: ATOM     16  C   UNL d   1       8.563   8.707  24.160 -0.53 -0.00    -0.021 A 
DOCKED: ATOM     17  C   UNL d   1       8.957   8.015  25.305 -0.48 +0.00    +0.000 A 
DOCKED: ATOM     18  C   UNL d   1       8.864   8.956  26.340 -0.38 +0.01    +0.070 A 
DOCKED: ATOM     19  C   UNL d   1       8.399   8.233  22.738 -0.42 +0.00    +0.052 C 
DOCKED: ATOM     20  C   UNL d   1       9.100   9.571  28.782 -0.39 +0.01    +0.066 A 
DOCKED: ATOM     21  C   UNL d   1       9.467   9.282  30.094 -0.43 -0.01    -0.025 A 
DOCKED: ATOM     22  C   UNL d   1       9.261  10.434  30.818 -0.37 -0.01    -0.021 A 
DOCKED: ATOM     23  C   UNL d   1       8.756  11.382  29.922 -0.31 +0.02    +0.066 A 
DOCKED: ATOM     24  C   UNL d   1       9.985   7.972  30.629 -0.53 +0.01    +0.051 C 
DOCKED: ATOM     25  N   UNL d   1       7.552  13.425  28.117 -0.20 -0.03    -0.248 N 
DOCKED: ATOM     26  N   UNL d   1       7.308  12.696  25.309 -0.23 -0.01    -0.248 N 
DOCKED: ATOM     27  N   UNL d   1       8.367  10.136  25.888 -0.22 -0.02    -0.248 N 
DOCKED: ATOM     28  N   UNL d   1       8.618  10.839  28.695 -0.25 -0.04    -0.248 N 
DOCKED: ATOM     29 FE   UNL d   1       7.968  11.758  27.013 -0.08 +0.00    +0.000 Fe
DOCKED: ATOM     30  O   UNL d   1       6.446  12.013  27.217 -0.35 +0.00    +0.000 OA
DOCKED: ATOM     31  O   UNL d   1       7.009  10.543  27.287 -0.70 +0.00    +0.000 OA
DOCKED: ENDROOT
DOCKED: BRANCH   6  32
DOCKED: ATOM     32  C   UNL d   1       7.257  15.459  31.216 -0.33 +0.02    +0.052 C 
DOCKED: BRANCH  32  33
DOCKED: ATOM     33  C   UNL d   1       6.744  14.455  32.243 -0.29 +0.08    +0.115 C 
DOCKED: BRANCH  33  34
DOCKED: ATOM     34  C   UNL d   1       6.782  15.001  33.649 -0.02 +0.19    +0.139 C 
DOCKED: ATOM     35  O   UNL d   1       6.785  16.208  33.828 -0.21 -0.90    -0.650 OA
DOCKED: BRANCH  34  36
DOCKED: ATOM     36  O   UNL d   1       6.842  14.182  34.720 +0.21 -1.42    -0.776 OA
DOCKED: ATOM     37  H   UNL d   1       7.293  13.330  34.687 +0.06 +0.19    +0.167 HD
DOCKED: ENDBRANCH  34  36
DOCKED: ENDBRANCH  33  34
DOCKED: ENDBRANCH  32  33
DOCKED: ENDBRANCH   6  32
DOCKED: BRANCH  22  38
DOCKED: ATOM     38  C   UNL d   1       9.477  10.590  32.302 -0.25 +0.02    +0.052 C 
DOCKED: BRANCH  38  39
DOCKED: ATOM     39  C   UNL d   1       8.612   9.633  33.119 -0.39 +0.05    +0.115 C 
DOCKED: BRANCH  39  40
DOCKED: ATOM     40  C   UNL d   1       7.727  10.355  34.105 -0.35 +0.07    +0.139 C 
DOCKED: ATOM     41  O   UNL d   1       7.733  10.025  35.279 -0.43 -0.42    -0.650 OA
DOCKED: BRANCH  40  42
DOCKED: ATOM     42  O   UNL d   1       6.964  11.397  33.721 +0.04 -0.42    -0.776 OA
DOCKED: ATOM     43  H   UNL d   1       6.706  12.089  34.341 +0.08 +0.13    +0.167 HD
DOCKED: ENDBRANCH  40  42
DOCKED: ENDBRANCH  39  40
DOCKED: ENDBRANCH  38  39
DOCKED: ENDBRANCH  22  38
DOCKED: BRANCH  12  44
DOCKED: ATOM     44  C   UNL d   1       6.851  13.329  21.608 -0.53 +0.00    +0.004 C 
DOCKED: ATOM     45  C   UNL d   1       6.830  12.304  20.756 -0.67 -0.00    +0.012 C 
DOCKED: ENDBRANCH  12  44
DOCKED: BRANCH  17  46
DOCKED: ATOM     46  C   UNL d   1       9.344   6.574  25.505 -0.63 +0.00    +0.004 C 
DOCKED: ATOM     47  C   UNL d   1       8.716   5.640  26.230 -0.72 +0.00    +0.012 C 
DOCKED: ENDBRANCH  17  46
DOCKED: TORSDOF 10
DOCKED: TER
DOCKED: ENDMDL
________________________________________________________________________________


	BEGINNING GENETIC ALGORITHM DOCKING 30 of 100
Run: 30 Seed: 88275724 551293086 [ Run 30 of 100 GA/GALS ]
Beginning LAMARCKIAN GENETIC ALGORITHM (LGA), with a maximum of 25000000 energy evaluations.

Final-Value: -17.888


	FINAL GENETIC ALGORITHM DOCKED STATE
	_______________________________________________


Detailed state:  trans 23.086 6.837 -3.930 quatxyzw 0.538933 -0.102161 0.812253 0.198394 center 8.287 34.468 -0.670 ntor 10 -106.7645 94.6397 -12.3343 -87.8440 -50.5295 -74.5084 6.3833 50.0801 6.9540 -156.2172
State:	 23.086   6.837  -3.930   0.550 -0.104  0.829 157.114   -106.76   94.64  -12.33  -87.84  -50.53  -74.51    6.38   50.08    6.95 -156.22

DOCKED: MODEL       30
DOCKED: USER    Run = 30
DOCKED: USER    DPF = D:/Protein_go_brrr/autodock/final/1A3N/heme_O2/dock.dpf
DOCKED: USER  
DOCKED: USER    Estimated Free Energy of Binding    =  -14.47 kcal/mol  [=(1)+(2)+(3)-(4)]
DOCKED: USER    Estimated Inhibition Constant, Ki   =   24.58 pM (picomolar)  [Temperature = 298.15 K]
DOCKED: USER    
DOCKED: USER    (1) Final Intermolecular Energy     =  -17.46 kcal/mol
DOCKED: USER        vdW + Hbond + desolv Energy     =  -15.94 kcal/mol
DOCKED: USER        Electrostatic Energy            =   -1.51 kcal/mol
DOCKED: USER    (2) Final Total Internal Energy     =   -0.43 kcal/mol
DOCKED: USER    (3) Torsional Free Energy           =   +2.98 kcal/mol
DOCKED: USER    (4) Unbound System's Energy  [=(2)] =   -0.43 kcal/mol
DOCKED: USER    
DOCKED: USER    
DOCKED: USER    NEWDPF move heme_O2_opt.pdbqt
DOCKED: USER    NEWDPF about 8.287000 34.468000 -0.670000
DOCKED: USER    NEWDPF tran0 23.085849 6.836652 -3.929927
DOCKED: USER    NEWDPF quaternion0 0.538933 -0.102161 0.812253 0.198394
DOCKED: USER    NEWDPF axisangle0 0.549862 -0.104233 0.828726 157.113917
DOCKED: USER    NEWDPF quat0 0.549862 -0.104233 0.828726 157.113917
DOCKED: USER    NEWDPF dihe0 -106.76 94.64 -12.33 -87.84 -50.53 -74.51 6.38 50.08 6.95 -156.22 
DOCKED: USER  keepresnum = 1 
DOCKED: USER  
DOCKED: REMARK  10 active torsions:
DOCKED: REMARK  status: ('A' for Active; 'I' for Inactive)
DOCKED: REMARK    1  A    between atoms: C_6  and  C_10 
DOCKED: REMARK    2  A    between atoms: C_10  and  C_11 
DOCKED: REMARK    3  A    between atoms: C_11  and  C_12 
DOCKED: REMARK    4  A    between atoms: C_12  and  O_14 
DOCKED: REMARK    5  A    between atoms: C_17  and  C_20 
DOCKED: REMARK    6  A    between atoms: C_24  and  C_27 
DOCKED: REMARK    7  A    between atoms: C_31  and  C_34 
DOCKED: REMARK    8  A    between atoms: C_34  and  C_35 
DOCKED: REMARK    9  A    between atoms: C_35  and  C_36 
DOCKED: REMARK   10  A    between atoms: C_36  and  O_38 
DOCKED: USER                              x       y       z     vdW  Elec       q    Type
DOCKED: USER                           _______ _______ _______ _____ _____    ______ ____
DOCKED: ROOT
DOCKED: ATOM      1  C   UNL d   1      23.117   7.065  -6.039 -0.13 +0.02    +0.064 A 
DOCKED: ATOM      2  C   UNL d   1      25.534   9.190  -2.545 -0.42 +0.01    +0.064 A 
DOCKED: ATOM      3  C   UNL d   1      23.189   6.617   0.767 -0.39 +0.00    +0.064 C 
DOCKED: ATOM      4  C   UNL d   1      21.038   4.083  -2.841 -0.38 +0.01    +0.064 A 
DOCKED: ATOM      5  C   UNL d   1      23.967   7.851  -5.359 -0.29 +0.01    +0.066 A 
DOCKED: ATOM      6  C   UNL d   1      24.824   8.779  -5.958 -0.35 -0.01    -0.021 A 
DOCKED: ATOM      7  C   UNL d   1      25.556   9.364  -4.951 -0.40 -0.01    -0.025 A 
DOCKED: ATOM      8  C   UNL d   1      25.091   8.812  -3.760 -0.38 +0.01    +0.066 A 
DOCKED: ATOM      9  C   UNL d   1      26.660  10.377  -5.159 -0.46 +0.01    +0.051 C 
DOCKED: ATOM     10  C   UNL d   1      25.069   8.664  -1.261 -0.37 +0.00    +0.066 A 
DOCKED: ATOM     11  C   UNL d   1      25.444   9.205  -0.027 -0.39 -0.00    -0.021 A 
DOCKED: ATOM     12  C   UNL d   1      24.764   8.488   0.940 -0.36 +0.00    +0.000 A 
DOCKED: ATOM     13  C   UNL d   1      24.005   7.521   0.226 -0.35 +0.00    +0.070 A 
DOCKED: ATOM     14  C   UNL d   1      26.390  10.376   0.219 -0.54 +0.00    +0.052 C 
DOCKED: ATOM     15  C   UNL d   1      22.432   5.598   0.082 -0.36 +0.00    +0.066 A 
DOCKED: ATOM     16  C   UNL d   1      21.724   4.577   0.716 -0.50 -0.00    -0.021 A 
DOCKED: ATOM     17  C   UNL d   1      21.103   3.841  -0.293 -0.45 +0.00    +0.000 A 
DOCKED: ATOM     18  C   UNL d   1      21.482   4.478  -1.483 -0.36 +0.01    +0.070 A 
DOCKED: ATOM     19  C   UNL d   1      21.749   4.364   2.209 -0.60 +0.00    +0.052 C 
DOCKED: ATOM     20  C   UNL d   1      21.416   4.645  -4.006 -0.39 +0.01    +0.066 A 
DOCKED: ATOM     21  C   UNL d   1      20.950   4.241  -5.254 -0.42 -0.00    -0.025 A 
DOCKED: ATOM     22  C   UNL d   1      21.511   5.097  -6.175 -0.33 -0.00    -0.021 A 
DOCKED: ATOM     23  C   UNL d   1      22.316   5.984  -5.453 -0.22 +0.01    +0.066 A 
DOCKED: ATOM     24  C   UNL d   1      20.020   3.094  -5.553 -0.53 +0.01    +0.051 C 
DOCKED: ATOM     25  N   UNL d   1      24.159   7.834  -4.017 -0.23 -0.03    -0.248 N 
DOCKED: ATOM     26  N   UNL d   1      24.201   7.631  -1.113 -0.23 -0.01    -0.248 N 
DOCKED: ATOM     27  N   UNL d   1      22.347   5.495  -1.242 -0.21 -0.01    -0.248 N 
DOCKED: ATOM     28  N   UNL d   1      22.290   5.677  -4.140 -0.24 -0.03    -0.248 N 
DOCKED: ATOM     29 FE   UNL d   1      23.237   6.645  -2.636 -0.08 +0.00    +0.000 Fe
DOCKED: ATOM     30  O   UNL d   1      24.754   6.344  -2.812 -0.40 +0.00    +0.000 OA
DOCKED: ATOM     31  O   UNL d   1      23.738   5.154  -2.626 -0.62 +0.00    +0.000 OA
DOCKED: ENDROOT
DOCKED: BRANCH   6  32
DOCKED: ATOM     32  C   UNL d   1      25.049   9.012  -7.430 -0.34 +0.03    +0.052 C 
DOCKED: BRANCH  32  33
DOCKED: ATOM     33  C   UNL d   1      24.119  10.073  -8.010 -0.20 +0.05    +0.115 C 
DOCKED: BRANCH  33  34
DOCKED: ATOM     34  C   UNL d   1      24.283  10.227  -9.502 -0.17 +0.10    +0.139 C 
DOCKED: ATOM     35  O   UNL d   1      23.380  10.719 -10.160 +0.00 -0.32    -0.650 OA
DOCKED: BRANCH  34  36
DOCKED: ATOM     36  O   UNL d   1      25.398   9.806 -10.134 -0.13 -1.10    -0.776 OA
DOCKED: ATOM     37  H   UNL d   1      26.060  10.423 -10.468 +0.01 +0.21    +0.167 HD
DOCKED: ENDBRANCH  34  36
DOCKED: ENDBRANCH  33  34
DOCKED: ENDBRANCH  32  33
DOCKED: ENDBRANCH   6  32
DOCKED: BRANCH  22  38
DOCKED: ATOM     38  C   UNL d   1      21.330   5.020  -7.669 -0.24 +0.01    +0.052 C 
DOCKED: BRANCH  38  39
DOCKED: ATOM     39  C   UNL d   1      21.690   3.646  -8.229 -0.38 +0.03    +0.115 C 
DOCKED: BRANCH  39  40
DOCKED: ATOM     40  C   UNL d   1      22.611   3.732  -9.420 -0.28 +0.05    +0.139 C 
DOCKED: ATOM     41  O   UNL d   1      23.769   4.086  -9.267 -0.05 -0.26    -0.650 OA
DOCKED: BRANCH  40  42
DOCKED: ATOM     42  O   UNL d   1      22.193   3.375 -10.650 -0.45 -0.37    -0.776 OA
DOCKED: ATOM     43  H   UNL d   1      21.883   4.030 -11.287 +0.05 +0.06    +0.167 HD
DOCKED: ENDBRANCH  40  42
DOCKED: ENDBRANCH  39  40
DOCKED: ENDBRANCH  38  39
DOCKED: ENDBRANCH  22  38
DOCKED: BRANCH  12  44
DOCKED: ATOM     44  C   UNL d   1      24.909   8.793   2.417 -0.45 +0.00    +0.004 C 
DOCKED: ATOM     45  C   UNL d   1      24.112   8.409   3.414 -0.64 -0.00    +0.012 C 
DOCKED: ENDBRANCH  12  44
DOCKED: BRANCH  17  46
DOCKED: ATOM     46  C   UNL d   1      20.260   2.596  -0.231 -0.57 +0.00    +0.004 C 
DOCKED: ATOM     47  C   UNL d   1      20.649   1.323  -0.380 -0.71 +0.00    +0.012 C 
DOCKED: ENDBRANCH  17  46
DOCKED: TORSDOF 10
DOCKED: TER
DOCKED: ENDMDL
________________________________________________________________________________


	BEGINNING GENETIC ALGORITHM DOCKING 31 of 100
Run: 31 Seed: 201285160 2079756340 [ Run 31 of 100 GA/GALS ]
Beginning LAMARCKIAN GENETIC ALGORITHM (LGA), with a maximum of 25000000 energy evaluations.

Final-Value: -18.993


	FINAL GENETIC ALGORITHM DOCKED STATE
	_______________________________________________


Detailed state:  trans 3.014 -6.177 -4.559 quatxyzw 0.150866 0.502129 -0.290838 0.800324 center 8.287 34.468 -0.670 ntor 10 125.7878 134.0818 -1.0334 -49.5974 179.2501 -41.8666 -48.9615 85.2178 -170.9243 180.0000
State:	  3.014  -6.177  -4.559   0.252  0.837 -0.485 73.678    125.79  134.08   -1.03  -49.60  179.25  -41.87  -48.96   85.22 -170.92  180.00

DOCKED: MODEL       31
DOCKED: USER    Run = 31
DOCKED: USER    DPF = D:/Protein_go_brrr/autodock/final/1A3N/heme_O2/dock.dpf
DOCKED: USER  
DOCKED: USER    Estimated Free Energy of Binding    =  -13.49 kcal/mol  [=(1)+(2)+(3)-(4)]
DOCKED: USER    Estimated Inhibition Constant, Ki   =  128.36 pM (picomolar)  [Temperature = 298.15 K]
DOCKED: USER    
DOCKED: USER    (1) Final Intermolecular Energy     =  -16.48 kcal/mol
DOCKED: USER        vdW + Hbond + desolv Energy     =  -14.69 kcal/mol
DOCKED: USER        Electrostatic Energy            =   -1.79 kcal/mol
DOCKED: USER    (2) Final Total Internal Energy     =   -2.52 kcal/mol
DOCKED: USER    (3) Torsional Free Energy           =   +2.98 kcal/mol
DOCKED: USER    (4) Unbound System's Energy  [=(2)] =   -2.52 kcal/mol
DOCKED: USER    
DOCKED: USER    
DOCKED: USER    NEWDPF move heme_O2_opt.pdbqt
DOCKED: USER    NEWDPF about 8.287000 34.468000 -0.670000
DOCKED: USER    NEWDPF tran0 3.013782 -6.177167 -4.559340
DOCKED: USER    NEWDPF quaternion0 0.150866 0.502129 -0.290838 0.800324
DOCKED: USER    NEWDPF axisangle0 0.251624 0.837486 -0.485080 73.677826
DOCKED: USER    NEWDPF quat0 0.251624 0.837486 -0.485080 73.677826
DOCKED: USER    NEWDPF dihe0 125.79 134.08 -1.03 -49.60 179.25 -41.87 -48.96 85.22 -170.92 180.00 
DOCKED: USER  keepresnum = 1 
DOCKED: USER  
DOCKED: REMARK  10 active torsions:
DOCKED: REMARK  status: ('A' for Active; 'I' for Inactive)
DOCKED: REMARK    1  A    between atoms: C_6  and  C_10 
DOCKED: REMARK    2  A    between atoms: C_10  and  C_11 
DOCKED: REMARK    3  A    between atoms: C_11  and  C_12 
DOCKED: REMARK    4  A    between atoms: C_12  and  O_14 
DOCKED: REMARK    5  A    between atoms: C_17  and  C_20 
DOCKED: REMARK    6  A    between atoms: C_24  and  C_27 
DOCKED: REMARK    7  A    between atoms: C_31  and  C_34 
DOCKED: REMARK    8  A    between atoms: C_34  and  C_35 
DOCKED: REMARK    9  A    between atoms: C_35  and  C_36 
DOCKED: REMARK   10  A    between atoms: C_36  and  O_38 
DOCKED: USER                              x       y       z     vdW  Elec       q    Type
DOCKED: USER                           _______ _______ _______ _____ _____    ______ ____
DOCKED: ROOT
DOCKED: ATOM      1  C   UNL d   1       2.927  -6.818  -6.580 -0.22 +0.01    +0.064 A 
DOCKED: ATOM      2  C   UNL d   1       0.863  -8.422  -2.614 -0.36 +0.00    +0.064 A 
DOCKED: ATOM      3  C   UNL d   1       3.062  -5.047   0.006 -0.36 +0.00    +0.064 C 
DOCKED: ATOM      4  C   UNL d   1       4.818  -3.091  -4.136 -0.45 +0.01    +0.064 A 
DOCKED: ATOM      5  C   UNL d   1       2.185  -7.528  -5.715 -0.31 +0.01    +0.066 A 
DOCKED: ATOM      6  C   UNL d   1       1.402  -8.629  -6.076 -0.31 -0.01    -0.021 A 
DOCKED: ATOM      7  C   UNL d   1       0.770  -9.067  -4.936 -0.33 -0.00    -0.025 A 
DOCKED: ATOM      8  C   UNL d   1       1.221  -8.253  -3.902 -0.29 +0.01    +0.066 A 
DOCKED: ATOM      9  C   UNL d   1      -0.236 -10.197  -4.884 -0.31 +0.01    +0.051 C 
DOCKED: ATOM     10  C   UNL d   1       1.321  -7.614  -1.483 -0.33 +0.00    +0.066 A 
DOCKED: ATOM     11  C   UNL d   1       1.047  -7.933  -0.149 -0.43 -0.00    -0.021 A 
DOCKED: ATOM     12  C   UNL d   1       1.688  -6.982   0.623 -0.43 +0.00    +0.000 A 
DOCKED: ATOM     13  C   UNL d   1       2.320  -6.110  -0.305 -0.38 +0.00    +0.070 A 
DOCKED: ATOM     14  C   UNL d   1       0.231  -9.112   0.369 -0.56 -0.00    +0.052 C 
DOCKED: ATOM     15  C   UNL d   1       3.690  -4.119  -0.904 -0.37 +0.00    +0.066 A 
DOCKED: ATOM     16  C   UNL d   1       4.316  -2.934  -0.517 -0.48 -0.00    -0.021 A 
DOCKED: ATOM     17  C   UNL d   1       4.823  -2.359  -1.682 -0.51 +0.00    +0.000 A 
DOCKED: ATOM     18  C   UNL d   1       4.466  -3.249  -2.705 -0.41 +0.01    +0.070 A 
DOCKED: ATOM     19  C   UNL d   1       4.325  -2.435   0.906 -0.51 +0.00    +0.052 C 
DOCKED: ATOM     20  C   UNL d   1       4.455  -3.902  -5.148 -0.43 +0.01    +0.066 A 
DOCKED: ATOM     21  C   UNL d   1       4.832  -3.712  -6.474 -0.45 -0.00    -0.025 A 
DOCKED: ATOM     22  C   UNL d   1       4.325  -4.779  -7.181 -0.34 -0.00    -0.021 A 
DOCKED: ATOM     23  C   UNL d   1       3.639  -5.575  -6.259 -0.27 +0.01    +0.066 A 
DOCKED: ATOM     24  C   UNL d   1       5.633  -2.567  -7.040 -0.07 +0.00    +0.051 C 
DOCKED: ATOM     25  N   UNL d   1       2.042  -7.264  -4.393 -0.20 -0.03    -0.248 N 
DOCKED: ATOM     26  N   UNL d   1       2.088  -6.499  -1.585 -0.22 +0.00    -0.248 N 
DOCKED: ATOM     27  N   UNL d   1       3.715  -4.272  -2.224 -0.23 -0.01    -0.248 N 
DOCKED: ATOM     28  N   UNL d   1       3.683  -5.015  -5.032 -0.26 -0.04    -0.248 N 
DOCKED: ATOM     29 FE   UNL d   1       2.892  -5.749  -3.320 -0.08 +0.00    +0.000 Fe
DOCKED: ATOM     30  O   UNL d   1       1.347  -5.626  -3.466 -0.18 +0.00    +0.000 OA
DOCKED: ATOM     31  O   UNL d   1       2.247  -4.337  -3.570 -0.83 +0.00    +0.000 OA
DOCKED: ENDROOT
DOCKED: BRANCH   6  32
DOCKED: ATOM     32  C   UNL d   1       1.147  -9.166  -7.461 -0.24 +0.02    +0.052 C 
DOCKED: BRANCH  32  33
DOCKED: ATOM     33  C   UNL d   1      -0.030  -8.485  -8.153 -0.09 +0.08    +0.115 C 
DOCKED: BRANCH  33  34
DOCKED: ATOM     34  C   UNL d   1       0.324  -7.986  -9.532 -0.14 +0.11    +0.139 C 
DOCKED: ATOM     35  O   UNL d   1       1.196  -8.551 -10.173 +0.02 -0.28    -0.650 OA
DOCKED: BRANCH  34  36
DOCKED: ATOM     36  O   UNL d   1      -0.283  -6.906 -10.066 -0.46 -1.33    -0.776 OA
DOCKED: ATOM     37  H   UNL d   1       0.217  -6.155 -10.406 +0.03 +0.22    +0.167 HD
DOCKED: ENDBRANCH  34  36
DOCKED: ENDBRANCH  33  34
DOCKED: ENDBRANCH  32  33
DOCKED: ENDBRANCH   6  32
DOCKED: BRANCH  22  38
DOCKED: ATOM     38  C   UNL d   1       4.442  -4.982  -8.669 -0.22 +0.01    +0.052 C 
DOCKED: BRANCH  38  39
DOCKED: ATOM     39  C   UNL d   1       3.454  -4.121  -9.454 -0.22 +0.02    +0.115 C 
DOCKED: BRANCH  39  40
DOCKED: ATOM     40  C   UNL d   1       2.193  -4.868  -9.808 -0.19 +0.06    +0.139 C 
DOCKED: ATOM     41  O   UNL d   1       1.171  -4.668  -9.172 -0.06 -0.45    -0.650 OA
DOCKED: BRANCH  40  42
DOCKED: ATOM     42  O   UNL d   1       2.158  -5.719 -10.851 +0.06 -0.31    -0.776 OA
DOCKED: ATOM     43  H   UNL d   1       1.723  -6.578 -10.788 +0.04 +0.08    +0.167 HD
DOCKED: ENDBRANCH  40  42
DOCKED: ENDBRANCH  39  40
DOCKED: ENDBRANCH  38  39
DOCKED: ENDBRANCH  22  38
DOCKED: BRANCH  12  44
DOCKED: ATOM     44  C   UNL d   1       1.629  -7.002   2.136 -0.45 +0.00    +0.004 C 
DOCKED: ATOM     45  C   UNL d   1       2.276  -6.211   2.991 -0.56 +0.00    +0.012 C 
DOCKED: ENDBRANCH  12  44
DOCKED: BRANCH  17  46
DOCKED: ATOM     46  C   UNL d   1       5.541  -1.055  -1.908 -0.61 +0.00    +0.004 C 
DOCKED: ATOM     47  C   UNL d   1       5.131   0.181  -1.599 -0.71 -0.00    +0.012 C 
DOCKED: ENDBRANCH  17  46
DOCKED: TORSDOF 10
DOCKED: TER
DOCKED: ENDMDL
________________________________________________________________________________


	BEGINNING GENETIC ALGORITHM DOCKING 32 of 100
Run: 32 Seed: 2114645847 170454140 [ Run 32 of 100 GA/GALS ]
Beginning LAMARCKIAN GENETIC ALGORITHM (LGA), with a maximum of 25000000 energy evaluations.

Final-Value: -13.857


	FINAL GENETIC ALGORITHM DOCKED STATE
	_______________________________________________


Detailed state:  trans 23.235 -5.524 34.512 quatxyzw 0.806234 -0.381460 -0.450096 0.043458 center 8.287 34.468 -0.670 ntor 10 -8.4669 23.9587 78.2381 125.3606 65.9498 -158.8960 178.8858 110.9887 15.1483 11.9626
State:	 23.235  -5.524  34.512   0.807 -0.382 -0.451 175.019     -8.47   23.96   78.24  125.36   65.95 -158.90  178.89  110.99   15.15   11.96

DOCKED: MODEL       32
DOCKED: USER    Run = 32
DOCKED: USER    DPF = D:/Protein_go_brrr/autodock/final/1A3N/heme_O2/dock.dpf
DOCKED: USER  
DOCKED: USER    Estimated Free Energy of Binding    =  -10.16 kcal/mol  [=(1)+(2)+(3)-(4)]
DOCKED: USER    Estimated Inhibition Constant, Ki   =   35.89 nM (nanomolar)  [Temperature = 298.15 K]
DOCKED: USER    
DOCKED: USER    (1) Final Intermolecular Energy     =  -13.14 kcal/mol
DOCKED: USER        vdW + Hbond + desolv Energy     =  -11.38 kcal/mol
DOCKED: USER        Electrostatic Energy            =   -1.76 kcal/mol
DOCKED: USER    (2) Final Total Internal Energy     =   -0.72 kcal/mol
DOCKED: USER    (3) Torsional Free Energy           =   +2.98 kcal/mol
DOCKED: USER    (4) Unbound System's Energy  [=(2)] =   -0.72 kcal/mol
DOCKED: USER    
DOCKED: USER    
DOCKED: USER    NEWDPF move heme_O2_opt.pdbqt
DOCKED: USER    NEWDPF about 8.287000 34.468000 -0.670000
DOCKED: USER    NEWDPF tran0 23.235308 -5.524451 34.512331
DOCKED: USER    NEWDPF quaternion0 0.806234 -0.381460 -0.450096 0.043458
DOCKED: USER    NEWDPF axisangle0 0.806997 -0.381820 -0.450521 175.018542
DOCKED: USER    NEWDPF quat0 0.806997 -0.381820 -0.450521 175.018542
DOCKED: USER    NEWDPF dihe0 -8.47 23.96 78.24 125.36 65.95 -158.90 178.89 110.99 15.15 11.96 
DOCKED: USER  keepresnum = 1 
DOCKED: USER  
DOCKED: REMARK  10 active torsions:
DOCKED: REMARK  status: ('A' for Active; 'I' for Inactive)
DOCKED: REMARK    1  A    between atoms: C_6  and  C_10 
DOCKED: REMARK    2  A    between atoms: C_10  and  C_11 
DOCKED: REMARK    3  A    between atoms: C_11  and  C_12 
DOCKED: REMARK    4  A    between atoms: C_12  and  O_14 
DOCKED: REMARK    5  A    between atoms: C_17  and  C_20 
DOCKED: REMARK    6  A    between atoms: C_24  and  C_27 
DOCKED: REMARK    7  A    between atoms: C_31  and  C_34 
DOCKED: REMARK    8  A    between atoms: C_34  and  C_35 
DOCKED: REMARK    9  A    between atoms: C_35  and  C_36 
DOCKED: REMARK   10  A    between atoms: C_36  and  O_38 
DOCKED: USER                              x       y       z     vdW  Elec       q    Type
DOCKED: USER                           _______ _______ _______ _____ _____    ______ ____
DOCKED: ROOT
DOCKED: ATOM      1  C   UNL d   1      22.827  -5.203  36.569 -0.16 +0.01    +0.064 A 
DOCKED: ATOM      2  C   UNL d   1      22.401  -2.424  32.741 -0.46 +0.01    +0.064 A 
DOCKED: ATOM      3  C   UNL d   1      24.114  -5.907  29.907 -0.37 +0.00    +0.064 C 
DOCKED: ATOM      4  C   UNL d   1      24.108  -8.936  33.766 -0.30 +0.01    +0.064 A 
DOCKED: ATOM      5  C   UNL d   1      22.570  -4.163  35.759 -0.18 +0.01    +0.066 A 
DOCKED: ATOM      6  C   UNL d   1      22.077  -2.931  36.198 -0.24 -0.00    -0.021 A 
DOCKED: ATOM      7  C   UNL d   1      21.912  -2.140  35.085 -0.40 -0.00    -0.025 A 
DOCKED: ATOM      8  C   UNL d   1      22.355  -2.894  34.002 -0.41 +0.01    +0.066 A 
DOCKED: ATOM      9  C   UNL d   1      21.327  -0.745  35.094 +0.13 +0.00    +0.051 C 
DOCKED: ATOM     10  C   UNL d   1      22.876  -3.159  31.568 -0.44 +0.01    +0.066 A 
DOCKED: ATOM     11  C   UNL d   1      23.057  -2.570  30.312 -0.48 -0.00    -0.021 A 
DOCKED: ATOM     12  C   UNL d   1      23.567  -3.554  29.485 -0.44 +0.00    +0.000 A 
DOCKED: ATOM     13  C   UNL d   1      23.660  -4.717  30.299 -0.35 +0.01    +0.070 A 
DOCKED: ATOM     14  C   UNL d   1      22.780  -1.122  29.923 -0.50 +0.00    +0.052 C 
DOCKED: ATOM     15  C   UNL d   1      24.191  -7.117  30.690 -0.07 +0.00    +0.066 A 
DOCKED: ATOM     16  C   UNL d   1      24.521  -8.371  30.177 -0.28 -0.00    -0.021 A 
DOCKED: ATOM     17  C   UNL d   1      24.525  -9.251  31.259 -0.38 +0.00    +0.000 A 
DOCKED: ATOM     18  C   UNL d   1      24.194  -8.457  32.366 -0.32 +0.01    +0.070 A 
DOCKED: ATOM     19  C   UNL d   1      24.747  -8.625  28.708 -0.45 +0.00    +0.052 C 
DOCKED: ATOM     20  C   UNL d   1      23.752  -8.212  34.844 -0.26 +0.02    +0.066 A 
DOCKED: ATOM     21  C   UNL d   1      23.706  -8.715  36.142 -0.20 -0.01    -0.025 A 
DOCKED: ATOM     22  C   UNL d   1      23.369  -7.658  36.957 -0.18 -0.01    -0.021 A 
DOCKED: ATOM     23  C   UNL d   1      23.204  -6.549  36.122 -0.19 +0.02    +0.066 A 
DOCKED: ATOM     24  C   UNL d   1      23.967 -10.132  36.580 -0.17 +0.02    +0.051 C 
DOCKED: ATOM     25  N   UNL d   1      22.698  -4.163  34.409 -0.21 -0.03    -0.248 N 
DOCKED: ATOM     26  N   UNL d   1      23.233  -4.469  31.564 -0.25 -0.04    -0.248 N 
DOCKED: ATOM     27  N   UNL d   1      23.922  -7.181  31.991 -0.10 -0.01    -0.248 N 
DOCKED: ATOM     28  N   UNL d   1      23.393  -6.901  34.833 -0.17 -0.06    -0.248 N 
DOCKED: ATOM     29 FE   UNL d   1      23.314  -5.696  33.209 -0.08 +0.00    +0.000 Fe
DOCKED: ATOM     30  O   UNL d   1      21.817  -5.315  33.022 -0.21 +0.00    +0.000 OA
DOCKED: ATOM     31  O   UNL d   1      22.244  -6.831  33.007 +0.03 -0.00    +0.000 OA
DOCKED: ENDROOT
DOCKED: BRANCH   6  32
DOCKED: ATOM     32  C   UNL d   1      21.646  -2.554  37.592 -0.17 +0.00    +0.052 C 
DOCKED: BRANCH  32  33
DOCKED: ATOM     33  C   UNL d   1      22.718  -1.784  38.356 -0.12 +0.01    +0.115 C 
DOCKED: BRANCH  33  34
DOCKED: ATOM     34  C   UNL d   1      23.997  -1.645  37.568 -0.22 +0.01    +0.139 C 
DOCKED: ATOM     35  O   UNL d   1      24.825  -2.541  37.599 +0.03 -0.12    -0.650 OA
DOCKED: BRANCH  34  36
DOCKED: ATOM     36  O   UNL d   1      24.263  -0.535  36.848 +0.03 +0.07    -0.776 OA
DOCKED: ATOM     37  H   UNL d   1      23.605   0.157  36.714 -0.45 -0.07    +0.167 HD
DOCKED: ENDBRANCH  34  36
DOCKED: ENDBRANCH  33  34
DOCKED: ENDBRANCH  32  33
DOCKED: ENDBRANCH   6  32
DOCKED: BRANCH  22  38
DOCKED: ATOM     38  C   UNL d   1      23.157  -7.731  38.447 -0.12 +0.02    +0.052 C 
DOCKED: BRANCH  38  39
DOCKED: ATOM     39  C   UNL d   1      24.210  -6.944  39.225 -0.06 +0.06    +0.115 C 
DOCKED: BRANCH  39  40
DOCKED: ATOM     40  C   UNL d   1      25.572  -7.590  39.167 +0.12 +0.15    +0.139 C 
DOCKED: ATOM     41  O   UNL d   1      25.680  -8.742  38.777 -0.43 -0.86    -0.650 OA
DOCKED: BRANCH  40  42
DOCKED: ATOM     42  O   UNL d   1      26.683  -6.901  39.490 -0.02 -1.15    -0.776 OA
DOCKED: ATOM     43  H   UNL d   1      26.655  -6.156  40.102 +0.02 +0.14    +0.167 HD
DOCKED: ENDBRANCH  40  42
DOCKED: ENDBRANCH  39  40
DOCKED: ENDBRANCH  38  39
DOCKED: ENDBRANCH  22  38
DOCKED: BRANCH  12  44
DOCKED: ATOM     44  C   UNL d   1      23.904  -3.289  28.033 -0.51 +0.00    +0.004 C 
DOCKED: ATOM     45  C   UNL d   1      23.235  -3.687  26.951 -0.59 +0.00    +0.012 C 
DOCKED: ENDBRANCH  12  44
DOCKED: BRANCH  17  46
DOCKED: ATOM     46  C   UNL d   1      24.750 -10.738  31.322 -0.41 +0.00    +0.004 C 
DOCKED: ATOM     47  C   UNL d   1      25.714 -11.403  31.971 -0.40 +0.00    +0.012 C 
DOCKED: ENDBRANCH  17  46
DOCKED: TORSDOF 10
DOCKED: TER
DOCKED: ENDMDL
________________________________________________________________________________


	BEGINNING GENETIC ALGORITHM DOCKING 33 of 100
Run: 33 Seed: 1405217217 494984084 [ Run 33 of 100 GA/GALS ]
Beginning LAMARCKIAN GENETIC ALGORITHM (LGA), with a maximum of 25000000 energy evaluations.

Final-Value: -18.263


	FINAL GENETIC ALGORITHM DOCKED STATE
	_______________________________________________


Detailed state:  trans 2.607 -6.819 -4.440 quatxyzw -0.148413 -0.478628 0.299479 -0.811912 center 8.287 34.468 -0.670 ntor 10 42.5833 -144.2502 109.4263 -49.1108 -119.4261 25.4146 -28.2878 91.2874 166.4689 167.8002
State:	  2.607  -6.819  -4.440  -0.254 -0.820  0.513 -71.434     42.58 -144.25  109.43  -49.11 -119.43   25.41  -28.29   91.29  166.47  167.80

DOCKED: MODEL       33
DOCKED: USER    Run = 33
DOCKED: USER    DPF = D:/Protein_go_brrr/autodock/final/1A3N/heme_O2/dock.dpf
DOCKED: USER  
DOCKED: USER    Estimated Free Energy of Binding    =  -13.25 kcal/mol  [=(1)+(2)+(3)-(4)]
DOCKED: USER    Estimated Inhibition Constant, Ki   =  193.90 pM (picomolar)  [Temperature = 298.15 K]
DOCKED: USER    
DOCKED: USER    (1) Final Intermolecular Energy     =  -16.23 kcal/mol
DOCKED: USER        vdW + Hbond + desolv Energy     =  -14.42 kcal/mol
DOCKED: USER        Electrostatic Energy            =   -1.82 kcal/mol
DOCKED: USER    (2) Final Total Internal Energy     =   -2.03 kcal/mol
DOCKED: USER    (3) Torsional Free Energy           =   +2.98 kcal/mol
DOCKED: USER    (4) Unbound System's Energy  [=(2)] =   -2.03 kcal/mol
DOCKED: USER    
DOCKED: USER    
DOCKED: USER    NEWDPF move heme_O2_opt.pdbqt
DOCKED: USER    NEWDPF about 8.287000 34.468000 -0.670000
DOCKED: USER    NEWDPF tran0 2.606541 -6.819370 -4.440441
DOCKED: USER    NEWDPF quaternion0 -0.148413 -0.478628 0.299479 -0.811912
DOCKED: USER    NEWDPF axisangle0 -0.254227 -0.819877 0.513001 -71.433633
DOCKED: USER    NEWDPF quat0 -0.254227 -0.819877 0.513001 -71.433633
DOCKED: USER    NEWDPF dihe0 42.58 -144.25 109.43 -49.11 -119.43 25.41 -28.29 91.29 166.47 167.80 
DOCKED: USER  keepresnum = 1 
DOCKED: USER  
DOCKED: REMARK  10 active torsions:
DOCKED: REMARK  status: ('A' for Active; 'I' for Inactive)
DOCKED: REMARK    1  A    between atoms: C_6  and  C_10 
DOCKED: REMARK    2  A    between atoms: C_10  and  C_11 
DOCKED: REMARK    3  A    between atoms: C_11  and  C_12 
DOCKED: REMARK    4  A    between atoms: C_12  and  O_14 
DOCKED: REMARK    5  A    between atoms: C_17  and  C_20 
DOCKED: REMARK    6  A    between atoms: C_24  and  C_27 
DOCKED: REMARK    7  A    between atoms: C_31  and  C_34 
DOCKED: REMARK    8  A    between atoms: C_34  and  C_35 
DOCKED: REMARK    9  A    between atoms: C_35  and  C_36 
DOCKED: REMARK   10  A    between atoms: C_36  and  O_38 
DOCKED: USER                              x       y       z     vdW  Elec       q    Type
DOCKED: USER                           _______ _______ _______ _____ _____    ______ ____
DOCKED: ROOT
DOCKED: ATOM      1  C   UNL d   1       2.414  -7.490  -6.443 -0.26 +0.02    +0.064 A 
DOCKED: ATOM      2  C   UNL d   1       0.568  -9.039  -2.350 -0.39 +0.00    +0.064 A 
DOCKED: ATOM      3  C   UNL d   1       2.895  -5.621   0.099 -0.41 +0.00    +0.064 C 
DOCKED: ATOM      4  C   UNL d   1       4.422  -3.723  -4.159 -0.42 +0.01    +0.064 A 
DOCKED: ATOM      5  C   UNL d   1       1.721  -8.189  -5.530 -0.32 +0.01    +0.066 A 
DOCKED: ATOM      6  C   UNL d   1       0.923  -9.297  -5.832 -0.29 -0.00    -0.021 A 
DOCKED: ATOM      7  C   UNL d   1       0.354  -9.720  -4.654 -0.32 -0.00    -0.025 A 
DOCKED: ATOM      8  C   UNL d   1       0.858  -8.888  -3.657 -0.34 +0.01    +0.066 A 
DOCKED: ATOM      9  C   UNL d   1      -0.644 -10.850  -4.532 -0.30 +0.00    +0.051 C 
DOCKED: ATOM     10  C   UNL d   1       1.084  -8.213  -1.257 -0.38 +0.00    +0.066 A 
DOCKED: ATOM     11  C   UNL d   1       0.882  -8.513   0.094 -0.47 -0.00    -0.021 A 
DOCKED: ATOM     12  C   UNL d   1       1.561  -7.549   0.817 -0.44 +0.00    +0.000 A 
DOCKED: ATOM     13  C   UNL d   1       2.140  -6.690  -0.157 -0.38 +0.00    +0.070 A 
DOCKED: ATOM     14  C   UNL d   1       0.099  -9.686   0.673 -0.56 -0.00    +0.052 C 
DOCKED: ATOM     15  C   UNL d   1       3.471  -4.706  -0.857 -0.36 +0.00    +0.066 A 
DOCKED: ATOM     16  C   UNL d   1       4.113  -3.514  -0.522 -0.45 -0.00    -0.021 A 
DOCKED: ATOM     17  C   UNL d   1       4.556  -2.955  -1.721 -0.47 +0.00    +0.000 A 
DOCKED: ATOM     18  C   UNL d   1       4.147  -3.861  -2.710 -0.39 +0.01    +0.070 A 
DOCKED: ATOM     19  C   UNL d   1       4.196  -2.993   0.891 -0.59 +0.00    +0.052 C 
DOCKED: ATOM     20  C   UNL d   1       4.008  -4.550  -5.139 -0.40 +0.01    +0.066 A 
DOCKED: ATOM     21  C   UNL d   1       4.313  -4.379  -6.486 -0.41 -0.00    -0.025 A 
DOCKED: ATOM     22  C   UNL d   1       3.772  -5.458  -7.149 -0.25 -0.00    -0.021 A 
DOCKED: ATOM     23  C   UNL d   1       3.139  -6.242  -6.179 -0.19 +0.01    +0.066 A 
DOCKED: ATOM     24  C   UNL d   1       5.079  -3.241  -7.110 -0.49 +0.00    +0.051 C 
DOCKED: ATOM     25  N   UNL d   1       1.648  -7.906  -4.207 -0.22 -0.03    -0.248 N 
DOCKED: ATOM     26  N   UNL d   1       1.841  -7.098  -1.416 -0.21 +0.00    -0.248 N 
DOCKED: ATOM     27  N   UNL d   1       3.425  -4.878  -2.175 -0.23 -0.01    -0.248 N 
DOCKED: ATOM     28  N   UNL d   1       3.246  -5.663  -4.966 -0.25 -0.04    -0.248 N 
DOCKED: ATOM     29 FE   UNL d   1       2.550  -6.373  -3.203 -0.09 -0.00    +0.000 Fe
DOCKED: ATOM     30  O   UNL d   1       0.999  -6.255  -3.268 -0.09 +0.00    +0.000 OA
DOCKED: ATOM     31  O   UNL d   1       1.888  -4.966  -3.439 -0.56 +0.00    +0.000 OA
DOCKED: ENDROOT
DOCKED: BRANCH   6  32
DOCKED: ATOM     32  C   UNL d   1       0.597  -9.855  -7.193 -0.22 +0.01    +0.052 C 
DOCKED: BRANCH  32  33
DOCKED: ATOM     33  C   UNL d   1      -0.857  -9.624  -7.595 -0.07 +0.06    +0.115 C 
DOCKED: BRANCH  33  34
DOCKED: ATOM     34  C   UNL d   1      -1.025  -9.479  -9.088 -0.09 +0.09    +0.139 C 
DOCKED: ATOM     35  O   UNL d   1      -1.228 -10.470  -9.771 -0.00 -0.24    -0.650 OA
DOCKED: BRANCH  34  36
DOCKED: ATOM     36  O   UNL d   1      -0.927  -8.278  -9.693 +0.02 -0.89    -0.776 OA
DOCKED: ATOM     37  H   UNL d   1      -0.240  -7.643  -9.461 +0.03 +0.21    +0.167 HD
DOCKED: ENDBRANCH  34  36
DOCKED: ENDBRANCH  33  34
DOCKED: ENDBRANCH  32  33
DOCKED: ENDBRANCH   6  32
DOCKED: BRANCH  22  38
DOCKED: ATOM     38  C   UNL d   1       3.810  -5.683  -8.638 -0.16 +0.01    +0.052 C 
DOCKED: BRANCH  38  39
DOCKED: ATOM     39  C   UNL d   1       2.603  -5.076  -9.349 -0.21 +0.04    +0.115 C 
DOCKED: BRANCH  39  40
DOCKED: ATOM     40  C   UNL d   1       1.449  -6.042  -9.452 -0.20 +0.09    +0.139 C 
DOCKED: ATOM     41  O   UNL d   1       0.358  -5.645  -9.828 -0.52 -0.88    -0.650 OA
DOCKED: BRANCH  40  42
DOCKED: ATOM     42  O   UNL d   1       1.612  -7.352  -9.184 +0.03 -0.39    -0.776 OA
DOCKED: ATOM     43  H   UNL d   1       1.167  -8.032  -9.703 +0.04 +0.09    +0.167 HD
DOCKED: ENDBRANCH  40  42
DOCKED: ENDBRANCH  39  40
DOCKED: ENDBRANCH  38  39
DOCKED: ENDBRANCH  22  38
DOCKED: BRANCH  12  44
DOCKED: ATOM     44  C   UNL d   1       1.582  -7.546   2.331 -0.25 +0.00    +0.004 C 
DOCKED: ATOM     45  C   UNL d   1       0.604  -7.190   3.163 -0.57 +0.00    +0.012 C 
DOCKED: ENDBRANCH  12  44
DOCKED: BRANCH  17  46
DOCKED: ATOM     46  C   UNL d   1       5.257  -1.653  -2.004 -0.64 +0.00    +0.004 C 
DOCKED: ATOM     47  C   UNL d   1       4.864  -0.413  -1.684 -0.70 +0.00    +0.012 C 
DOCKED: ENDBRANCH  17  46
DOCKED: TORSDOF 10
DOCKED: TER
DOCKED: ENDMDL
________________________________________________________________________________


	BEGINNING GENETIC ALGORITHM DOCKING 34 of 100
Run: 34 Seed: 1067471490 967307804 [ Run 34 of 100 GA/GALS ]
Beginning LAMARCKIAN GENETIC ALGORITHM (LGA), with a maximum of 25000000 energy evaluations.

Final-Value: -14.045


	FINAL GENETIC ALGORITHM DOCKED STATE
	_______________________________________________


Detailed state:  trans 0.445 -8.511 -5.759 quatxyzw -0.725402 -0.126188 -0.676658 -0.001463 center 8.287 34.468 -0.670 ntor 10 -46.7771 -67.9808 52.4492 22.2344 94.0308 -33.9652 -107.8198 123.4991 -2.5184 174.9039
State:	  0.445  -8.511  -5.759  -0.725 -0.126 -0.677 -179.832    -46.78  -67.98   52.45   22.23   94.03  -33.97 -107.82  123.50   -2.52  174.90

DOCKED: MODEL       34
DOCKED: USER    Run = 34
DOCKED: USER    DPF = D:/Protein_go_brrr/autodock/final/1A3N/heme_O2/dock.dpf
DOCKED: USER  
DOCKED: USER    Estimated Free Energy of Binding    =  -10.24 kcal/mol  [=(1)+(2)+(3)-(4)]
DOCKED: USER    Estimated Inhibition Constant, Ki   =   31.19 nM (nanomolar)  [Temperature = 298.15 K]
DOCKED: USER    
DOCKED: USER    (1) Final Intermolecular Energy     =  -13.22 kcal/mol
DOCKED: USER        vdW + Hbond + desolv Energy     =  -11.81 kcal/mol
DOCKED: USER        Electrostatic Energy            =   -1.41 kcal/mol
DOCKED: USER    (2) Final Total Internal Energy     =   -0.82 kcal/mol
DOCKED: USER    (3) Torsional Free Energy           =   +2.98 kcal/mol
DOCKED: USER    (4) Unbound System's Energy  [=(2)] =   -0.82 kcal/mol
DOCKED: USER    
DOCKED: USER    
DOCKED: USER    NEWDPF move heme_O2_opt.pdbqt
DOCKED: USER    NEWDPF about 8.287000 34.468000 -0.670000
DOCKED: USER    NEWDPF tran0 0.445155 -8.510987 -5.758984
DOCKED: USER    NEWDPF quaternion0 -0.725402 -0.126188 -0.676658 -0.001463
DOCKED: USER    NEWDPF axisangle0 -0.725403 -0.126189 -0.676659 -179.832301
DOCKED: USER    NEWDPF quat0 -0.725403 -0.126189 -0.676659 -179.832301
DOCKED: USER    NEWDPF dihe0 -46.78 -67.98 52.45 22.23 94.03 -33.97 -107.82 123.50 -2.52 174.90 
DOCKED: USER  keepresnum = 1 
DOCKED: USER  
DOCKED: REMARK  10 active torsions:
DOCKED: REMARK  status: ('A' for Active; 'I' for Inactive)
DOCKED: REMARK    1  A    between atoms: C_6  and  C_10 
DOCKED: REMARK    2  A    between atoms: C_10  and  C_11 
DOCKED: REMARK    3  A    between atoms: C_11  and  C_12 
DOCKED: REMARK    4  A    between atoms: C_12  and  O_14 
DOCKED: REMARK    5  A    between atoms: C_17  and  C_20 
DOCKED: REMARK    6  A    between atoms: C_24  and  C_27 
DOCKED: REMARK    7  A    between atoms: C_31  and  C_34 
DOCKED: REMARK    8  A    between atoms: C_34  and  C_35 
DOCKED: REMARK    9  A    between atoms: C_35  and  C_36 
DOCKED: REMARK   10  A    between atoms: C_36  and  O_38 
DOCKED: USER                              x       y       z     vdW  Elec       q    Type
DOCKED: USER                           _______ _______ _______ _____ _____    ______ ____
DOCKED: ROOT
DOCKED: ATOM      1  C   UNL d   1      -0.327  -9.571  -7.427 -0.16 +0.03    +0.064 A 
DOCKED: ATOM      2  C   UNL d   1       2.868  -6.077  -7.045 -0.25 +0.02    +0.064 A 
DOCKED: ATOM      3  C   UNL d   1       2.283  -5.938  -2.277 -0.34 +0.00    +0.064 C 
DOCKED: ATOM      4  C   UNL d   1      -0.651  -9.856  -2.604 -0.36 +0.00    +0.064 A 
DOCKED: ATOM      5  C   UNL d   1       0.591  -8.633  -7.712 -0.20 +0.03    +0.066 A 
DOCKED: ATOM      6  C   UNL d   1       1.030  -8.335  -9.005 -0.17 -0.01    -0.021 A 
DOCKED: ATOM      7  C   UNL d   1       1.987  -7.353  -8.892 -0.19 -0.01    -0.025 A 
DOCKED: ATOM      8  C   UNL d   1       2.071  -7.045  -7.537 -0.20 +0.02    +0.066 A 
DOCKED: ATOM      9  C   UNL d   1       2.783  -6.783 -10.045 -0.14 +0.02    +0.051 C 
DOCKED: ATOM     10  C   UNL d   1       2.983  -5.693  -5.637 -0.28 +0.02    +0.066 A 
DOCKED: ATOM     11  C   UNL d   1       3.700  -4.574  -5.201 -0.42 -0.00    -0.021 A 
DOCKED: ATOM     12  C   UNL d   1       3.529  -4.506  -3.830 -0.42 +0.00    +0.000 A 
DOCKED: ATOM     13  C   UNL d   1       2.708  -5.620  -3.500 -0.25 +0.01    +0.070 A 
DOCKED: ATOM     14  C   UNL d   1       4.494  -3.595  -6.058 -0.50 +0.01    +0.052 C 
DOCKED: ATOM     15  C   UNL d   1       1.481  -7.075  -1.896 -0.24 +0.00    +0.066 A 
DOCKED: ATOM     16  C   UNL d   1       1.206  -7.444  -0.579 -0.37 -0.00    -0.021 A 
DOCKED: ATOM     17  C   UNL d   1       0.372  -8.559  -0.648 -0.47 +0.00    +0.000 A 
DOCKED: ATOM     18  C   UNL d   1       0.196  -8.789  -2.019 -0.41 +0.00    +0.070 A 
DOCKED: ATOM     19  C   UNL d   1       1.803  -6.740   0.613 -0.44 +0.00    +0.052 C 
DOCKED: ATOM     20  C   UNL d   1      -0.808 -10.131  -3.914 -0.34 +0.01    +0.066 A 
DOCKED: ATOM     21  C   UNL d   1      -1.633 -11.138  -4.406 -0.27 -0.00    -0.025 A 
DOCKED: ATOM     22  C   UNL d   1      -1.575 -11.054  -5.779 -0.16 -0.00    -0.021 A 
DOCKED: ATOM     23  C   UNL d   1      -0.697 -10.006  -6.075 -0.16 +0.02    +0.066 A 
DOCKED: ATOM     24  C   UNL d   1      -2.435 -12.132  -3.607 -0.27 -0.00    +0.051 C 
DOCKED: ATOM     25  N   UNL d   1       1.259  -7.879  -6.804 -0.16 -0.10    -0.248 N 
DOCKED: ATOM     26  N   UNL d   1       2.384  -6.339  -4.604 -0.22 -0.05    -0.248 N 
DOCKED: ATOM     27  N   UNL d   1       0.936  -7.926  -2.761 -0.24 -0.02    -0.248 N 
DOCKED: ATOM     28  N   UNL d   1      -0.199  -9.478  -4.938 -0.18 -0.05    -0.248 N 
DOCKED: ATOM     29 FE   UNL d   1       1.083  -7.920  -4.770 -0.07 +0.00    +0.000 Fe
DOCKED: ATOM     30  O   UNL d   1       2.458  -8.430  -5.292 -0.38 +0.00    +0.000 OA
DOCKED: ATOM     31  O   UNL d   1       1.760  -9.164  -4.086 -0.24 +0.00    +0.000 OA
DOCKED: ENDROOT
DOCKED: BRANCH   6  32
DOCKED: ATOM     32  C   UNL d   1       0.668  -9.037 -10.288 -0.09 +0.02    +0.052 C 
DOCKED: BRANCH  32  33
DOCKED: ATOM     33  C   UNL d   1      -0.674  -8.583 -10.853 -0.09 +0.08    +0.115 C 
DOCKED: BRANCH  33  34
DOCKED: ATOM     34  C   UNL d   1      -0.626  -7.172 -11.385 -0.06 +0.14    +0.139 C 
DOCKED: ATOM     35  O   UNL d   1      -0.280  -6.261 -10.649 -0.50 -1.06    -0.650 OA
DOCKED: BRANCH  34  36
DOCKED: ATOM     36  O   UNL d   1      -0.984  -6.886 -12.654 +0.02 -0.50    -0.776 OA
DOCKED: ATOM     37  H   UNL d   1      -0.672  -7.407 -13.403 +0.01 +0.07    +0.167 HD
DOCKED: ENDBRANCH  34  36
DOCKED: ENDBRANCH  33  34
DOCKED: ENDBRANCH  32  33
DOCKED: ENDBRANCH   6  32
DOCKED: BRANCH  22  38
DOCKED: ATOM     38  C   UNL d   1      -2.274 -11.974  -6.746 -0.12 +0.01    +0.052 C 
DOCKED: BRANCH  38  39
DOCKED: ATOM     39  C   UNL d   1      -1.493 -13.263  -6.991 -0.07 +0.01    +0.115 C 
DOCKED: BRANCH  39  40
DOCKED: ATOM     40  C   UNL d   1      -0.102 -13.004  -7.512 -0.09 +0.01    +0.139 C 
DOCKED: ATOM     41  O   UNL d   1       0.864 -13.237  -6.803 -0.01 -0.05    -0.650 OA
DOCKED: BRANCH  40  42
DOCKED: ATOM     42  O   UNL d   1       0.100 -12.567  -8.770 +0.03 -0.10    -0.776 OA
DOCKED: ATOM     43  H   UNL d   1      -0.123 -13.111  -9.535 +0.01 +0.02    +0.167 HD
DOCKED: ENDBRANCH  40  42
DOCKED: ENDBRANCH  39  40
DOCKED: ENDBRANCH  38  39
DOCKED: ENDBRANCH  22  38
DOCKED: BRANCH  12  44
DOCKED: ATOM     44  C   UNL d   1       4.157  -3.411  -2.995 -0.51 +0.00    +0.004 C 
DOCKED: ATOM     45  C   UNL d   1       4.848  -3.538  -1.863 -0.53 +0.00    +0.012 C 
DOCKED: ENDBRANCH  12  44
DOCKED: BRANCH  17  46
DOCKED: ATOM     46  C   UNL d   1      -0.205  -9.430   0.437 -0.60 -0.00    +0.004 C 
DOCKED: ATOM     47  C   UNL d   1      -0.284  -9.176   1.749 -0.69 -0.00    +0.012 C 
DOCKED: ENDBRANCH  17  46
DOCKED: TORSDOF 10
DOCKED: TER
DOCKED: ENDMDL
________________________________________________________________________________


	BEGINNING GENETIC ALGORITHM DOCKING 35 of 100
Run: 35 Seed: 682989150 1540692115 [ Run 35 of 100 GA/GALS ]
Beginning LAMARCKIAN GENETIC ALGORITHM (LGA), with a maximum of 25000000 energy evaluations.

Final-Value: -15.781


	FINAL GENETIC ALGORITHM DOCKED STATE
	_______________________________________________


Detailed state:  trans 0.962 -8.097 -6.008 quatxyzw 0.694535 0.126771 0.708193 0.003590 center 8.287 34.468 -0.670 ntor 10 35.1374 -147.5082 44.4894 -29.4744 -106.3569 -146.4389 136.3790 82.9128 31.4848 99.9375
State:	  0.962  -8.097  -6.008   0.695  0.127  0.708 179.589     35.14 -147.51   44.49  -29.47 -106.36 -146.44  136.38   82.91   31.48   99.94

DOCKED: MODEL       35
DOCKED: USER    Run = 35
DOCKED: USER    DPF = D:/Protein_go_brrr/autodock/final/1A3N/heme_O2/dock.dpf
DOCKED: USER  
DOCKED: USER    Estimated Free Energy of Binding    =  -10.88 kcal/mol  [=(1)+(2)+(3)-(4)]
DOCKED: USER    Estimated Inhibition Constant, Ki   =   10.65 nM (nanomolar)  [Temperature = 298.15 K]
DOCKED: USER    
DOCKED: USER    (1) Final Intermolecular Energy     =  -13.86 kcal/mol
DOCKED: USER        vdW + Hbond + desolv Energy     =  -11.56 kcal/mol
DOCKED: USER        Electrostatic Energy            =   -2.30 kcal/mol
DOCKED: USER    (2) Final Total Internal Energy     =   -1.92 kcal/mol
DOCKED: USER    (3) Torsional Free Energy           =   +2.98 kcal/mol
DOCKED: USER    (4) Unbound System's Energy  [=(2)] =   -1.92 kcal/mol
DOCKED: USER    
DOCKED: USER    
DOCKED: USER    NEWDPF move heme_O2_opt.pdbqt
DOCKED: USER    NEWDPF about 8.287000 34.468000 -0.670000
DOCKED: USER    NEWDPF tran0 0.962028 -8.096539 -6.007889
DOCKED: USER    NEWDPF quaternion0 0.694535 0.126771 0.708193 0.003590
DOCKED: USER    NEWDPF axisangle0 0.694540 0.126772 0.708197 179.588582
DOCKED: USER    NEWDPF quat0 0.694540 0.126772 0.708197 179.588582
DOCKED: USER    NEWDPF dihe0 35.14 -147.51 44.49 -29.47 -106.36 -146.44 136.38 82.91 31.48 99.94 
DOCKED: USER  keepresnum = 1 
DOCKED: USER  
DOCKED: REMARK  10 active torsions:
DOCKED: REMARK  status: ('A' for Active; 'I' for Inactive)
DOCKED: REMARK    1  A    between atoms: C_6  and  C_10 
DOCKED: REMARK    2  A    between atoms: C_10  and  C_11 
DOCKED: REMARK    3  A    between atoms: C_11  and  C_12 
DOCKED: REMARK    4  A    between atoms: C_12  and  O_14 
DOCKED: REMARK    5  A    between atoms: C_17  and  C_20 
DOCKED: REMARK    6  A    between atoms: C_24  and  C_27 
DOCKED: REMARK    7  A    between atoms: C_31  and  C_34 
DOCKED: REMARK    8  A    between atoms: C_34  and  C_35 
DOCKED: REMARK    9  A    between atoms: C_35  and  C_36 
DOCKED: REMARK   10  A    between atoms: C_36  and  O_38 
DOCKED: USER                              x       y       z     vdW  Elec       q    Type
DOCKED: USER                           _______ _______ _______ _____ _____    ______ ____
DOCKED: ROOT
DOCKED: ATOM      1  C   UNL d   1       0.351  -9.147  -7.747 -0.19 +0.03    +0.064 A 
DOCKED: ATOM      2  C   UNL d   1       3.459  -5.622  -7.054 -0.27 +0.01    +0.064 A 
DOCKED: ATOM      3  C   UNL d   1       2.460  -5.541  -2.354 -0.38 +0.00    +0.064 C 
DOCKED: ATOM      4  C   UNL d   1      -0.388  -9.487  -2.974 -0.41 +0.00    +0.064 A 
DOCKED: ATOM      5  C   UNL d   1       1.279  -8.196  -7.941 -0.21 +0.03    +0.066 A 
DOCKED: ATOM      6  C   UNL d   1       1.824  -7.879  -9.189 -0.16 -0.01    -0.021 A 
DOCKED: ATOM      7  C   UNL d   1       2.756  -6.888  -8.983 -0.19 -0.01    -0.025 A 
DOCKED: ATOM      8  C   UNL d   1       2.719  -6.594  -7.623 -0.22 +0.02    +0.066 A 
DOCKED: ATOM      9  C   UNL d   1       3.643  -6.297 -10.057 -0.12 +0.01    +0.051 C 
DOCKED: ATOM     10  C   UNL d   1       3.446  -5.253  -5.638 -0.32 +0.01    +0.066 A 
DOCKED: ATOM     11  C   UNL d   1       4.109  -4.130  -5.130 -0.45 -0.00    -0.021 A 
DOCKED: ATOM     12  C   UNL d   1       3.819  -4.080  -3.779 -0.44 +0.00    +0.000 A 
DOCKED: ATOM     13  C   UNL d   1       2.986  -5.206  -3.532 -0.30 +0.01    +0.070 A 
DOCKED: ATOM     14  C   UNL d   1       4.962  -3.133  -5.905 -0.53 +0.00    +0.052 C 
DOCKED: ATOM     15  C   UNL d   1       1.641  -6.691  -2.056 -0.28 +0.00    +0.066 A 
DOCKED: ATOM     16  C   UNL d   1       1.258  -7.077  -0.771 -0.28 -0.00    -0.021 A 
DOCKED: ATOM     17  C   UNL d   1       0.446  -8.201  -0.923 -0.45 +0.00    +0.000 A 
DOCKED: ATOM     18  C   UNL d   1       0.392  -8.418  -2.307 -0.38 +0.01    +0.070 A 
DOCKED: ATOM     19  C   UNL d   1       1.740  -6.379   0.475 -0.41 +0.00    +0.052 C 
DOCKED: ATOM     20  C   UNL d   1      -0.427  -9.750  -4.295 -0.32 +0.01    +0.066 A 
DOCKED: ATOM     21  C   UNL d   1      -1.195 -10.761  -4.867 -0.25 -0.00    -0.025 A 
DOCKED: ATOM     22  C   UNL d   1      -1.018 -10.661  -6.228 -0.17 -0.00    -0.021 A 
DOCKED: ATOM     23  C   UNL d   1      -0.131  -9.601  -6.437 -0.21 +0.02    +0.066 A 
DOCKED: ATOM     24  C   UNL d   1      -2.051 -11.772  -4.150 -0.29 -0.00    +0.051 C 
DOCKED: ATOM     25  N   UNL d   1       1.856  -7.445  -6.972 -0.16 -0.09    -0.248 N 
DOCKED: ATOM     26  N   UNL d   1       2.768  -5.916  -4.668 -0.16 -0.05    -0.248 N 
DOCKED: ATOM     27  N   UNL d   1       1.183  -7.539  -2.973 -0.23 -0.02    -0.248 N 
DOCKED: ATOM     28  N   UNL d   1       0.261  -9.079  -5.256 -0.19 -0.06    -0.248 N 
DOCKED: ATOM     29 FE   UNL d   1       1.505  -7.510  -4.961 -0.07 +0.00    +0.000 Fe
DOCKED: ATOM     30  O   UNL d   1       2.926  -7.999  -5.367 -0.38 +0.00    +0.000 OA
DOCKED: ATOM     31  O   UNL d   1       2.134  -8.754  -4.233 -0.12 +0.00    +0.000 OA
DOCKED: ENDROOT
DOCKED: BRANCH   6  32
DOCKED: ATOM     32  C   UNL d   1       1.583  -8.571 -10.505 -0.08 +0.02    +0.052 C 
DOCKED: BRANCH  32  33
DOCKED: ATOM     33  C   UNL d   1       0.887  -7.677 -11.526 -0.06 +0.05    +0.115 C 
DOCKED: BRANCH  33  34
DOCKED: ATOM     34  C   UNL d   1      -0.284  -6.932 -10.934 +0.03 +0.16    +0.139 C 
DOCKED: ATOM     35  O   UNL d   1      -0.165  -5.751 -10.648 -0.42 -1.01    -0.650 OA
DOCKED: BRANCH  34  36
DOCKED: ATOM     36  O   UNL d   1      -1.458  -7.548 -10.687 +0.07 -1.18    -0.776 OA
DOCKED: ATOM     37  H   UNL d   1      -1.501  -8.465 -10.389 +0.02 +0.17    +0.167 HD
DOCKED: ENDBRANCH  34  36
DOCKED: ENDBRANCH  33  34
DOCKED: ENDBRANCH  32  33
DOCKED: ENDBRANCH   6  32
DOCKED: BRANCH  22  38
DOCKED: ATOM     38  C   UNL d   1      -1.620 -11.578  -7.262 -0.13 +0.01    +0.052 C 
DOCKED: BRANCH  38  39
DOCKED: ATOM     39  C   UNL d   1      -0.846 -11.560  -8.578 -0.08 +0.02    +0.115 C 
DOCKED: BRANCH  39  40
DOCKED: ATOM     40  C   UNL d   1      -1.476 -10.653  -9.605 -0.08 +0.05    +0.139 C 
DOCKED: ATOM     41  O   UNL d   1      -2.512 -10.065  -9.340 -0.02 -0.35    -0.650 OA
DOCKED: BRANCH  40  42
DOCKED: ATOM     42  O   UNL d   1      -0.888 -10.438 -10.798 +0.02 -0.25    -0.776 OA
DOCKED: ATOM     43  H   UNL d   1      -0.937  -9.581 -11.237 +0.01 +0.07    +0.167 HD
DOCKED: ENDBRANCH  40  42
DOCKED: ENDBRANCH  39  40
DOCKED: ENDBRANCH  38  39
DOCKED: ENDBRANCH  22  38
DOCKED: BRANCH  12  44
DOCKED: ATOM     44  C   UNL d   1       4.359  -2.986  -2.881 -0.53 +0.00    +0.004 C 
DOCKED: ATOM     45  C   UNL d   1       4.818  -3.101  -1.636 -0.55 +0.00    +0.012 C 
DOCKED: ENDBRANCH  12  44
DOCKED: BRANCH  17  46
DOCKED: ATOM     46  C   UNL d   1      -0.213  -9.089   0.098 -0.57 -0.00    +0.004 C 
DOCKED: ATOM     47  C   UNL d   1       0.259  -9.471   1.292 -0.66 -0.00    +0.012 C 
DOCKED: ENDBRANCH  17  46
DOCKED: TORSDOF 10
DOCKED: TER
DOCKED: ENDMDL
________________________________________________________________________________


	BEGINNING GENETIC ALGORITHM DOCKING 36 of 100
Run: 36 Seed: 789628868 330980357 [ Run 36 of 100 GA/GALS ]
Beginning LAMARCKIAN GENETIC ALGORITHM (LGA), with a maximum of 25000000 energy evaluations.

Final-Value: -19.557


	FINAL GENETIC ALGORITHM DOCKED STATE
	_______________________________________________


Detailed state:  trans 8.166 12.206 28.388 quatxyzw 0.755044 -0.366243 -0.537552 -0.082540 center 8.287 34.468 -0.670 ntor 10 -108.8520 -113.6316 -11.1356 -103.6743 119.3090 -150.3306 27.4724 38.5736 -20.3812 125.5817
State:	  8.166  12.206  28.388   0.758 -0.367 -0.539 -170.531   -108.85 -113.63  -11.14 -103.67  119.31 -150.33   27.47   38.57  -20.38  125.58

DOCKED: MODEL       36
DOCKED: USER    Run = 36
DOCKED: USER    DPF = D:/Protein_go_brrr/autodock/final/1A3N/heme_O2/dock.dpf
DOCKED: USER  
DOCKED: USER    Estimated Free Energy of Binding    =  -14.09 kcal/mol  [=(1)+(2)+(3)-(4)]
DOCKED: USER    Estimated Inhibition Constant, Ki   =   46.92 pM (picomolar)  [Temperature = 298.15 K]
DOCKED: USER    
DOCKED: USER    (1) Final Intermolecular Energy     =  -17.07 kcal/mol
DOCKED: USER        vdW + Hbond + desolv Energy     =  -15.18 kcal/mol
DOCKED: USER        Electrostatic Energy            =   -1.89 kcal/mol
DOCKED: USER    (2) Final Total Internal Energy     =   -2.48 kcal/mol
DOCKED: USER    (3) Torsional Free Energy           =   +2.98 kcal/mol
DOCKED: USER    (4) Unbound System's Energy  [=(2)] =   -2.48 kcal/mol
DOCKED: USER    
DOCKED: USER    
DOCKED: USER    NEWDPF move heme_O2_opt.pdbqt
DOCKED: USER    NEWDPF about 8.287000 34.468000 -0.670000
DOCKED: USER    NEWDPF tran0 8.166294 12.205627 28.387968
DOCKED: USER    NEWDPF quaternion0 0.755044 -0.366243 -0.537552 -0.082540
DOCKED: USER    NEWDPF axisangle0 0.757629 -0.367497 -0.539392 -170.530847
DOCKED: USER    NEWDPF quat0 0.757629 -0.367497 -0.539392 -170.530847
DOCKED: USER    NEWDPF dihe0 -108.85 -113.63 -11.14 -103.67 119.31 -150.33 27.47 38.57 -20.38 125.58 
DOCKED: USER  keepresnum = 1 
DOCKED: USER  
DOCKED: REMARK  10 active torsions:
DOCKED: REMARK  status: ('A' for Active; 'I' for Inactive)
DOCKED: REMARK    1  A    between atoms: C_6  and  C_10 
DOCKED: REMARK    2  A    between atoms: C_10  and  C_11 
DOCKED: REMARK    3  A    between atoms: C_11  and  C_12 
DOCKED: REMARK    4  A    between atoms: C_12  and  O_14 
DOCKED: REMARK    5  A    between atoms: C_17  and  C_20 
DOCKED: REMARK    6  A    between atoms: C_24  and  C_27 
DOCKED: REMARK    7  A    between atoms: C_31  and  C_34 
DOCKED: REMARK    8  A    between atoms: C_34  and  C_35 
DOCKED: REMARK    9  A    between atoms: C_35  and  C_36 
DOCKED: REMARK   10  A    between atoms: C_36  and  O_38 
DOCKED: USER                              x       y       z     vdW  Elec       q    Type
DOCKED: USER                           _______ _______ _______ _____ _____    ______ ____
DOCKED: ROOT
DOCKED: ATOM      1  C   UNL d   1       8.297  12.758  30.432 -0.09 +0.02    +0.064 A 
DOCKED: ATOM      2  C   UNL d   1       6.511  14.960  26.621 -0.41 +0.01    +0.064 A 
DOCKED: ATOM      3  C   UNL d   1       7.800  11.299  23.787 -0.32 +0.00    +0.064 C 
DOCKED: ATOM      4  C   UNL d   1       9.212   8.816  27.775 -0.39 +0.01    +0.064 A 
DOCKED: ATOM      5  C   UNL d   1       7.704  13.655  29.627 -0.20 +0.02    +0.066 A 
DOCKED: ATOM      6  C   UNL d   1       7.203  14.886  30.061 -0.35 -0.01    -0.021 A 
DOCKED: ATOM      7  C   UNL d   1       6.647  15.505  28.966 -0.43 -0.00    -0.025 A 
DOCKED: ATOM      8  C   UNL d   1       6.867  14.657  27.884 -0.39 +0.01    +0.066 A 
DOCKED: ATOM      9  C   UNL d   1       5.921  16.832  28.999 -0.42 +0.01    +0.051 C 
DOCKED: ATOM     10  C   UNL d   1       6.735  14.121  25.443 -0.37 +0.01    +0.066 A 
DOCKED: ATOM     11  C   UNL d   1       6.494  14.554  24.134 -0.39 -0.00    -0.021 A 
DOCKED: ATOM     12  C   UNL d   1       6.877  13.518  23.301 -0.34 +0.00    +0.000 A 
DOCKED: ATOM     13  C   UNL d   1       7.328  12.486  24.169 -0.35 +0.00    +0.070 A 
DOCKED: ATOM     14  C   UNL d   1       5.948  15.907  23.695 -0.55 +0.00    +0.052 C 
DOCKED: ATOM     15  C   UNL d   1       8.233  10.215  24.635 -0.35 +0.00    +0.066 A 
DOCKED: ATOM     16  C   UNL d   1       8.562   8.938  24.179 -0.51 -0.00    -0.021 A 
DOCKED: ATOM     17  C   UNL d   1       8.967   8.212  25.299 -0.48 +0.00    +0.000 A 
DOCKED: ATOM     18  C   UNL d   1       8.855   9.112  26.368 -0.38 +0.01    +0.070 A 
DOCKED: ATOM     19  C   UNL d   1       8.409   8.514  22.740 -0.54 +0.00    +0.052 C 
DOCKED: ATOM     20  C   UNL d   1       9.077   9.642  28.831 -0.39 +0.01    +0.066 A 
DOCKED: ATOM     21  C   UNL d   1       9.447   9.312  30.132 -0.43 -0.01    -0.025 A 
DOCKED: ATOM     22  C   UNL d   1       9.219  10.433  30.898 -0.37 -0.01    -0.021 A 
DOCKED: ATOM     23  C   UNL d   1       8.699  11.403  30.035 -0.32 +0.02    +0.066 A 
DOCKED: ATOM     24  C   UNL d   1       9.988   7.993  30.620 -0.54 +0.01    +0.051 C 
DOCKED: ATOM     25  N   UNL d   1       7.460  13.489  28.304 -0.22 -0.03    -0.248 N 
DOCKED: ATOM     26  N   UNL d   1       7.234  12.859  25.470 -0.23 -0.01    -0.248 N 
DOCKED: ATOM     27  N   UNL d   1       8.338  10.299  25.958 -0.22 -0.02    -0.248 N 
DOCKED: ATOM     28  N   UNL d   1       8.572  10.903  28.789 -0.24 -0.04    -0.248 N 
DOCKED: ATOM     29 FE   UNL d   1       7.908  11.872  27.140 -0.08 +0.00    +0.000 Fe
DOCKED: ATOM     30  O   UNL d   1       6.381  12.091  27.350 -0.27 +0.00    +0.000 OA
DOCKED: ATOM     31  O   UNL d   1       6.970  10.630  27.368 -0.66 +0.00    +0.000 OA
DOCKED: ENDROOT
DOCKED: BRANCH   6  32
DOCKED: ATOM     32  C   UNL d   1       7.124  15.404  31.474 -0.33 +0.02    +0.052 C 
DOCKED: BRANCH  32  33
DOCKED: ATOM     33  C   UNL d   1       8.497  15.589  32.114 -0.19 +0.05    +0.115 C 
DOCKED: BRANCH  33  34
DOCKED: ATOM     34  C   UNL d   1       8.445  15.506  33.619 -0.16 +0.10    +0.139 C 
DOCKED: ATOM     35  O   UNL d   1       7.446  15.883  34.210 -0.28 -0.79    -0.650 OA
DOCKED: BRANCH  34  36
DOCKED: ATOM     36  O   UNL d   1       9.494  15.050  34.335 +0.05 -0.50    -0.776 OA
DOCKED: ATOM     37  H   UNL d   1       9.476  14.193  34.777 +0.05 +0.12    +0.167 HD
DOCKED: ENDBRANCH  34  36
DOCKED: ENDBRANCH  33  34
DOCKED: ENDBRANCH  32  33
DOCKED: ENDBRANCH   6  32
DOCKED: BRANCH  22  38
DOCKED: ATOM     38  C   UNL d   1       9.430  10.538  32.386 -0.29 +0.02    +0.052 C 
DOCKED: BRANCH  38  39
DOCKED: ATOM     39  C   UNL d   1       8.239  11.173  33.100 -0.30 +0.06    +0.115 C 
DOCKED: BRANCH  39  40
DOCKED: ATOM     40  C   UNL d   1       8.659  12.072  34.235 -0.18 +0.09    +0.139 C 
DOCKED: ATOM     41  O   UNL d   1       9.835  12.137  34.553 -0.03 -0.58    -0.650 OA
DOCKED: BRANCH  40  42
DOCKED: ATOM     42  O   UNL d   1       7.764  12.849  34.876 +0.09 -0.68    -0.776 OA
DOCKED: ATOM     43  H   UNL d   1       7.776  13.809  34.790 +0.05 +0.18    +0.167 HD
DOCKED: ENDBRANCH  40  42
DOCKED: ENDBRANCH  39  40
DOCKED: ENDBRANCH  38  39
DOCKED: ENDBRANCH  22  38
DOCKED: BRANCH  12  44
DOCKED: ATOM     44  C   UNL d   1       6.771  13.618  21.793 -0.52 +0.00    +0.004 C 
DOCKED: ATOM     45  C   UNL d   1       7.349  12.841  20.879 -0.65 -0.00    +0.012 C 
DOCKED: ENDBRANCH  12  44
DOCKED: BRANCH  17  46
DOCKED: ATOM     46  C   UNL d   1       9.379   6.772  25.446 -0.58 +0.00    +0.004 C 
DOCKED: ATOM     47  C   UNL d   1       8.722   5.780  26.062 -0.70 +0.00    +0.012 C 
DOCKED: ENDBRANCH  17  46
DOCKED: TORSDOF 10
DOCKED: TER
DOCKED: ENDMDL
________________________________________________________________________________


	BEGINNING GENETIC ALGORITHM DOCKING 37 of 100
Run: 37 Seed: 347667802 437328238 [ Run 37 of 100 GA/GALS ]
Beginning LAMARCKIAN GENETIC ALGORITHM (LGA), with a maximum of 25000000 energy evaluations.

Final-Value: -16.200


	FINAL GENETIC ALGORITHM DOCKED STATE
	_______________________________________________


Detailed state:  trans 7.325 13.742 30.362 quatxyzw 0.164544 0.754550 -0.180280 -0.609163 center 8.287 34.468 -0.670 ntor 10 6.3700 -157.7742 61.1932 17.8263 -170.1789 35.3768 81.9378 60.5491 -161.1594 149.8478
State:	  7.325  13.742  30.362   0.207  0.951 -0.227 -104.942      6.37 -157.77   61.19   17.83 -170.18   35.38   81.94   60.55 -161.16  149.85

DOCKED: MODEL       37
DOCKED: USER    Run = 37
DOCKED: USER    DPF = D:/Protein_go_brrr/autodock/final/1A3N/heme_O2/dock.dpf
DOCKED: USER  
DOCKED: USER    Estimated Free Energy of Binding    =  -12.54 kcal/mol  [=(1)+(2)+(3)-(4)]
DOCKED: USER    Estimated Inhibition Constant, Ki   =  640.94 pM (picomolar)  [Temperature = 298.15 K]
DOCKED: USER    
DOCKED: USER    (1) Final Intermolecular Energy     =  -15.52 kcal/mol
DOCKED: USER        vdW + Hbond + desolv Energy     =  -12.61 kcal/mol
DOCKED: USER        Electrostatic Energy            =   -2.91 kcal/mol
DOCKED: USER    (2) Final Total Internal Energy     =   -0.68 kcal/mol
DOCKED: USER    (3) Torsional Free Energy           =   +2.98 kcal/mol
DOCKED: USER    (4) Unbound System's Energy  [=(2)] =   -0.68 kcal/mol
DOCKED: USER    
DOCKED: USER    
DOCKED: USER    NEWDPF move heme_O2_opt.pdbqt
DOCKED: USER    NEWDPF about 8.287000 34.468000 -0.670000
DOCKED: USER    NEWDPF tran0 7.325407 13.741724 30.362059
DOCKED: USER    NEWDPF quaternion0 0.164544 0.754550 -0.180280 -0.609163
DOCKED: USER    NEWDPF axisangle0 0.207483 0.951459 -0.227326 -104.941993
DOCKED: USER    NEWDPF quat0 0.207483 0.951459 -0.227326 -104.941993
DOCKED: USER    NEWDPF dihe0 6.37 -157.77 61.19 17.83 -170.18 35.38 81.94 60.55 -161.16 149.85 
DOCKED: USER  keepresnum = 1 
DOCKED: USER  
DOCKED: REMARK  10 active torsions:
DOCKED: REMARK  status: ('A' for Active; 'I' for Inactive)
DOCKED: REMARK    1  A    between atoms: C_6  and  C_10 
DOCKED: REMARK    2  A    between atoms: C_10  and  C_11 
DOCKED: REMARK    3  A    between atoms: C_11  and  C_12 
DOCKED: REMARK    4  A    between atoms: C_12  and  O_14 
DOCKED: REMARK    5  A    between atoms: C_17  and  C_20 
DOCKED: REMARK    6  A    between atoms: C_24  and  C_27 
DOCKED: REMARK    7  A    between atoms: C_31  and  C_34 
DOCKED: REMARK    8  A    between atoms: C_34  and  C_35 
DOCKED: REMARK    9  A    between atoms: C_35  and  C_36 
DOCKED: REMARK   10  A    between atoms: C_36  and  O_38 
DOCKED: USER                              x       y       z     vdW  Elec       q    Type
DOCKED: USER                           _______ _______ _______ _____ _____    ______ ____
DOCKED: ROOT
DOCKED: ATOM      1  C   UNL d   1       7.300  14.596  32.303 -0.26 +0.04    +0.064 A 
DOCKED: ATOM      2  C   UNL d   1       8.972  10.476  30.634 -0.35 +0.02    +0.064 A 
DOCKED: ATOM      3  C   UNL d   1       7.464  11.554  26.200 -0.40 +0.00    +0.064 C 
DOCKED: ATOM      4  C   UNL d   1       6.165  16.002  27.812 -0.45 +0.01    +0.064 A 
DOCKED: ATOM      5  C   UNL d   1       7.880  13.389  32.211 -0.22 +0.03    +0.066 A 
DOCKED: ATOM      6  C   UNL d   1       8.432  12.700  33.295 -0.23 -0.01    -0.021 A 
DOCKED: ATOM      7  C   UNL d   1       8.955  11.526  32.805 -0.27 -0.01    -0.025 A 
DOCKED: ATOM      8  C   UNL d   1       8.665  11.508  31.443 -0.28 +0.02    +0.066 A 
DOCKED: ATOM      9  C   UNL d   1       9.716  10.509  33.626 -0.22 +0.03    +0.051 C 
DOCKED: ATOM     10  C   UNL d   1       8.674  10.390  29.203 -0.37 +0.01    +0.066 A 
DOCKED: ATOM     11  C   UNL d   1       8.868   9.230  28.446 -0.41 -0.00    -0.021 A 
DOCKED: ATOM     12  C   UNL d   1       8.422   9.515  27.168 -0.42 +0.00    +0.000 A 
DOCKED: ATOM     13  C   UNL d   1       7.983  10.867  27.217 -0.34 +0.01    +0.070 A 
DOCKED: ATOM     14  C   UNL d   1       9.429   7.897  28.926 -0.26 +0.01    +0.052 C 
DOCKED: ATOM     15  C   UNL d   1       7.040  12.934  26.200 -0.34 +0.00    +0.066 A 
DOCKED: ATOM     16  C   UNL d   1       6.659  13.644  25.062 -0.38 -0.00    -0.021 A 
DOCKED: ATOM     17  C   UNL d   1       6.285  14.915  25.497 -0.45 +0.00    +0.000 A 
DOCKED: ATOM     18  C   UNL d   1       6.467  14.885  26.886 -0.40 +0.01    +0.070 A 
DOCKED: ATOM     19  C   UNL d   1       6.736  13.069  23.670 -0.41 +0.00    +0.052 C 
DOCKED: ATOM     20  C   UNL d   1       6.369  16.022  29.143 -0.40 +0.01    +0.066 A 
DOCKED: ATOM     21  C   UNL d   1       6.048  17.098  29.966 -0.34 -0.01    -0.025 A 
DOCKED: ATOM     22  C   UNL d   1       6.339  16.705  31.253 -0.23 -0.01    -0.021 A 
DOCKED: ATOM     23  C   UNL d   1       6.846  15.405  31.166 -0.30 +0.03    +0.066 A 
DOCKED: ATOM     24  C   UNL d   1       5.495  18.435  29.545 -0.40 +0.00    +0.051 C 
DOCKED: ATOM     25  N   UNL d   1       8.061  12.685  31.066 -0.11 -0.09    -0.248 N 
DOCKED: ATOM     26  N   UNL d   1       8.144  11.393  28.458 -0.22 -0.04    -0.248 N 
DOCKED: ATOM     27  N   UNL d   1       6.997  13.700  27.286 -0.24 -0.03    -0.248 N 
DOCKED: ATOM     28  N   UNL d   1       6.904  15.010  29.877 -0.23 -0.06    -0.248 N 
DOCKED: ATOM     29 FE   UNL d   1       7.519  13.216  29.170 -0.08 +0.00    +0.000 Fe
DOCKED: ATOM     30  O   UNL d   1       9.059  13.165  29.393 -0.09 +0.00    +0.000 OA
DOCKED: ATOM     31  O   UNL d   1       8.434  14.318  28.519 +0.33 +0.00    +0.000 OA
DOCKED: ENDROOT
DOCKED: BRANCH   6  32
DOCKED: ATOM     32  C   UNL d   1       8.586  13.184  34.713 -0.16 +0.04    +0.052 C 
DOCKED: BRANCH  32  33
DOCKED: ATOM     33  C   UNL d   1       9.751  14.154  34.884 -0.16 +0.09    +0.115 C 
DOCKED: BRANCH  33  34
DOCKED: ATOM     34  C   UNL d   1      10.976  13.487  35.459 -0.15 +0.16    +0.139 C 
DOCKED: ATOM     35  O   UNL d   1      11.271  12.357  35.103 -0.51 -1.29    -0.650 OA
DOCKED: BRANCH  34  36
DOCKED: ATOM     36  O   UNL d   1      11.743  14.101  36.383 -0.03 -0.80    -0.776 OA
DOCKED: ATOM     37  H   UNL d   1      11.490  14.943  36.780 +0.03 +0.11    +0.167 HD
DOCKED: ENDBRANCH  34  36
DOCKED: ENDBRANCH  33  34
DOCKED: ENDBRANCH  32  33
DOCKED: ENDBRANCH   6  32
DOCKED: BRANCH  22  38
DOCKED: ATOM     38  C   UNL d   1       6.197  17.560  32.486 +0.04 +0.03    +0.052 C 
DOCKED: BRANCH  38  39
DOCKED: ATOM     39  C   UNL d   1       7.547  17.990  33.055 -0.16 +0.05    +0.115 C 
DOCKED: BRANCH  39  40
DOCKED: ATOM     40  C   UNL d   1       7.751  17.521  34.474 -0.12 +0.10    +0.139 C 
DOCKED: ATOM     41  O   UNL d   1       8.788  17.791  35.058 +0.01 -0.32    -0.650 OA
DOCKED: BRANCH  40  42
DOCKED: ATOM     42  O   UNL d   1       6.785  16.850  35.130 -0.51 -1.39    -0.776 OA
DOCKED: ATOM     43  H   UNL d   1       6.734  16.852  36.093 +0.00 +0.31    +0.167 HD
DOCKED: ENDBRANCH  40  42
DOCKED: ENDBRANCH  39  40
DOCKED: ENDBRANCH  38  39
DOCKED: ENDBRANCH  22  38
DOCKED: BRANCH  12  44
DOCKED: ATOM     44  C   UNL d   1       8.464   8.490  26.055 -0.50 +0.00    +0.004 C 
DOCKED: ATOM     45  C   UNL d   1       9.064   8.592  24.869 -0.58 +0.00    +0.012 C 
DOCKED: ENDBRANCH  12  44
DOCKED: BRANCH  17  46
DOCKED: ATOM     46  C   UNL d   1       5.841  16.132  24.728 -0.47 +0.00    +0.004 C 
DOCKED: ATOM     47  C   UNL d   1       5.505  16.218  23.435 -0.61 +0.00    +0.012 C 
DOCKED: ENDBRANCH  17  46
DOCKED: TORSDOF 10
DOCKED: TER
DOCKED: ENDMDL
________________________________________________________________________________


	BEGINNING GENETIC ALGORITHM DOCKING 38 of 100
Run: 38 Seed: 109235379 1465433008 [ Run 38 of 100 GA/GALS ]
Beginning LAMARCKIAN GENETIC ALGORITHM (LGA), with a maximum of 25000000 energy evaluations.

Final-Value: -14.848


	FINAL GENETIC ALGORITHM DOCKED STATE
	_______________________________________________


Detailed state:  trans 1.169 -7.687 -5.963 quatxyzw -0.675657 -0.092031 -0.729694 -0.050648 center 8.287 34.468 -0.670 ntor 10 10.5255 45.6040 51.7755 8.3113 146.0325 -178.4097 -97.5547 48.8043 -57.9165 43.3859
State:	  1.169  -7.687  -5.963  -0.677 -0.092 -0.731 -174.194     10.53   45.60   51.78    8.31  146.03 -178.41  -97.55   48.80  -57.92   43.39

DOCKED: MODEL       38
DOCKED: USER    Run = 38
DOCKED: USER    DPF = D:/Protein_go_brrr/autodock/final/1A3N/heme_O2/dock.dpf
DOCKED: USER  
DOCKED: USER    Estimated Free Energy of Binding    =  -10.59 kcal/mol  [=(1)+(2)+(3)-(4)]
DOCKED: USER    Estimated Inhibition Constant, Ki   =   17.32 nM (nanomolar)  [Temperature = 298.15 K]
DOCKED: USER    
DOCKED: USER    (1) Final Intermolecular Energy     =  -13.57 kcal/mol
DOCKED: USER        vdW + Hbond + desolv Energy     =  -11.63 kcal/mol
DOCKED: USER        Electrostatic Energy            =   -1.94 kcal/mol
DOCKED: USER    (2) Final Total Internal Energy     =   -1.28 kcal/mol
DOCKED: USER    (3) Torsional Free Energy           =   +2.98 kcal/mol
DOCKED: USER    (4) Unbound System's Energy  [=(2)] =   -1.28 kcal/mol
DOCKED: USER    
DOCKED: USER    
DOCKED: USER    NEWDPF move heme_O2_opt.pdbqt
DOCKED: USER    NEWDPF about 8.287000 34.468000 -0.670000
DOCKED: USER    NEWDPF tran0 1.169133 -7.687093 -5.962681
DOCKED: USER    NEWDPF quaternion0 -0.675657 -0.092031 -0.729694 -0.050648
DOCKED: USER    NEWDPF axisangle0 -0.676525 -0.092150 -0.730632 -174.193727
DOCKED: USER    NEWDPF quat0 -0.676525 -0.092150 -0.730632 -174.193727
DOCKED: USER    NEWDPF dihe0 10.53 45.60 51.78 8.31 146.03 -178.41 -97.55 48.80 -57.92 43.39 
DOCKED: USER  keepresnum = 1 
DOCKED: USER  
DOCKED: REMARK  10 active torsions:
DOCKED: REMARK  status: ('A' for Active; 'I' for Inactive)
DOCKED: REMARK    1  A    between atoms: C_6  and  C_10 
DOCKED: REMARK    2  A    between atoms: C_10  and  C_11 
DOCKED: REMARK    3  A    between atoms: C_11  and  C_12 
DOCKED: REMARK    4  A    between atoms: C_12  and  O_14 
DOCKED: REMARK    5  A    between atoms: C_17  and  C_20 
DOCKED: REMARK    6  A    between atoms: C_24  and  C_27 
DOCKED: REMARK    7  A    between atoms: C_31  and  C_34 
DOCKED: REMARK    8  A    between atoms: C_34  and  C_35 
DOCKED: REMARK    9  A    between atoms: C_35  and  C_36 
DOCKED: REMARK   10  A    between atoms: C_36  and  O_38 
DOCKED: USER                              x       y       z     vdW  Elec       q    Type
DOCKED: USER                           _______ _______ _______ _____ _____    ______ ____
DOCKED: ROOT
DOCKED: ATOM      1  C   UNL d   1       0.660  -8.532  -7.840 -0.20 +0.03    +0.064 A 
DOCKED: ATOM      2  C   UNL d   1       3.644  -5.055  -6.591 -0.33 +0.01    +0.064 A 
DOCKED: ATOM      3  C   UNL d   1       2.443  -5.560  -1.965 -0.39 +0.00    +0.064 C 
DOCKED: ATOM      4  C   UNL d   1      -0.274  -9.460  -3.181 -0.40 +0.00    +0.064 A 
DOCKED: ATOM      5  C   UNL d   1       1.571  -7.546  -7.878 -0.22 +0.03    +0.066 A 
DOCKED: ATOM      6  C   UNL d   1       2.162  -7.070  -9.052 -0.19 -0.01    -0.021 A 
DOCKED: ATOM      7  C   UNL d   1       3.058  -6.093  -8.687 -0.21 -0.01    -0.025 A 
DOCKED: ATOM      8  C   UNL d   1       2.955  -5.965  -7.305 -0.26 +0.02    +0.066 A 
DOCKED: ATOM      9  C   UNL d   1       3.974  -5.359  -9.642 -0.16 +0.01    +0.051 C 
DOCKED: ATOM     10  C   UNL d   1       3.561  -4.858  -5.143 -0.37 +0.01    +0.066 A 
DOCKED: ATOM     11  C   UNL d   1       4.173  -3.792  -4.474 -0.45 -0.00    -0.021 A 
DOCKED: ATOM     12  C   UNL d   1       3.824  -3.911  -3.142 -0.44 +0.00    +0.000 A 
DOCKED: ATOM     13  C   UNL d   1       3.010  -5.075  -3.069 -0.32 +0.01    +0.070 A 
DOCKED: ATOM     14  C   UNL d   1       5.033  -2.692  -5.085 -0.36 +0.01    +0.052 C 
DOCKED: ATOM     15  C   UNL d   1       1.642  -6.755  -1.844 -0.30 +0.00    +0.066 A 
DOCKED: ATOM     16  C   UNL d   1       1.213  -7.300  -0.634 -0.33 -0.00    -0.021 A 
DOCKED: ATOM     17  C   UNL d   1       0.438  -8.413  -0.956 -0.46 +0.00    +0.000 A 
DOCKED: ATOM     18  C   UNL d   1       0.449  -8.463  -2.357 -0.38 +0.01    +0.070 A 
DOCKED: ATOM     19  C   UNL d   1       1.624  -6.748   0.708 -0.43 +0.00    +0.052 C 
DOCKED: ATOM     20  C   UNL d   1      -0.249  -9.563  -4.524 -0.31 +0.01    +0.066 A 
DOCKED: ATOM     21  C   UNL d   1      -0.966 -10.513  -5.248 -0.22 -0.00    -0.025 A 
DOCKED: ATOM     22  C   UNL d   1      -0.733 -10.246  -6.578 -0.18 -0.01    -0.021 A 
DOCKED: ATOM     23  C   UNL d   1       0.135  -9.151  -6.618 -0.21 +0.02    +0.066 A 
DOCKED: ATOM     24  C   UNL d   1      -1.826 -11.620  -4.697 -0.26 +0.00    +0.051 C 
DOCKED: ATOM     25  N   UNL d   1       2.087  -6.906  -6.800 -0.13 -0.08    -0.248 N 
DOCKED: ATOM     26  N   UNL d   1       2.859  -5.648  -4.291 -0.22 -0.05    -0.248 N 
DOCKED: ATOM     27  N   UNL d   1       1.246  -7.494  -2.876 -0.22 -0.02    -0.248 N 
DOCKED: ATOM     28  N   UNL d   1       0.462  -8.767  -5.366 -0.19 -0.06    -0.248 N 
DOCKED: ATOM     29 FE   UNL d   1       1.651  -7.220  -4.830 -0.08 +0.00    +0.000 Fe
DOCKED: ATOM     30  O   UNL d   1       3.100  -7.627  -5.225 -0.20 +0.00    +0.000 OA
DOCKED: ATOM     31  O   UNL d   1       2.280  -8.529  -4.227 -0.11 +0.00    +0.000 OA
DOCKED: ENDROOT
DOCKED: BRANCH   6  32
DOCKED: ATOM     32  C   UNL d   1       1.995  -7.604 -10.451 -0.10 +0.02    +0.052 C 
DOCKED: BRANCH  32  33
DOCKED: ATOM     33  C   UNL d   1       0.666  -8.324 -10.656 -0.09 +0.06    +0.115 C 
DOCKED: BRANCH  33  34
DOCKED: ATOM     34  C   UNL d   1      -0.477  -7.367 -10.891 +0.10 +0.16    +0.139 C 
DOCKED: ATOM     35  O   UNL d   1      -0.283  -6.165 -10.809 -0.45 -0.98    -0.650 OA
DOCKED: BRANCH  34  36
DOCKED: ATOM     36  O   UNL d   1      -1.721  -7.811 -11.163 +0.03 -0.87    -0.776 OA
DOCKED: ATOM     37  H   UNL d   1      -1.965  -8.739 -11.068 +0.01 +0.13    +0.167 HD
DOCKED: ENDBRANCH  34  36
DOCKED: ENDBRANCH  33  34
DOCKED: ENDBRANCH  32  33
DOCKED: ENDBRANCH   6  32
DOCKED: BRANCH  22  38
DOCKED: ATOM     38  C   UNL d   1      -1.266 -11.044  -7.740 -0.14 +0.01    +0.052 C 
DOCKED: BRANCH  38  39
DOCKED: ATOM     39  C   UNL d   1      -1.586 -10.168  -8.950 -0.11 +0.05    +0.115 C 
DOCKED: BRANCH  39  40
DOCKED: ATOM     40  C   UNL d   1      -2.944 -10.465  -9.533 -0.08 +0.06    +0.139 C 
DOCKED: ATOM     41  O   UNL d   1      -3.378 -11.605  -9.510 +0.00 -0.15    -0.650 OA
DOCKED: BRANCH  40  42
DOCKED: ATOM     42  O   UNL d   1      -3.715  -9.481 -10.037 +0.02 -0.49    -0.776 OA
DOCKED: ATOM     43  H   UNL d   1      -3.362  -8.829 -10.654 +0.02 +0.13    +0.167 HD
DOCKED: ENDBRANCH  40  42
DOCKED: ENDBRANCH  39  40
DOCKED: ENDBRANCH  38  39
DOCKED: ENDBRANCH  22  38
DOCKED: BRANCH  12  44
DOCKED: ATOM     44  C   UNL d   1       4.296  -2.922  -2.096 -0.51 +0.00    +0.004 C 
DOCKED: ATOM     45  C   UNL d   1       4.828  -3.184  -0.903 -0.56 +0.00    +0.012 C 
DOCKED: ENDBRANCH  12  44
DOCKED: BRANCH  17  46
DOCKED: ATOM     46  C   UNL d   1      -0.241  -9.432  -0.079 -0.55 -0.00    +0.004 C 
DOCKED: ATOM     47  C   UNL d   1      -0.277  -9.480   1.259 -0.68 -0.00    +0.012 C 
DOCKED: ENDBRANCH  17  46
DOCKED: TORSDOF 10
DOCKED: TER
DOCKED: ENDMDL
________________________________________________________________________________


	BEGINNING GENETIC ALGORITHM DOCKING 39 of 100
Run: 39 Seed: 1342991247 1804633122 [ Run 39 of 100 GA/GALS ]
Beginning LAMARCKIAN GENETIC ALGORITHM (LGA), with a maximum of 25000000 energy evaluations.

Final-Value: -14.614


	FINAL GENETIC ALGORITHM DOCKED STATE
	_______________________________________________


Detailed state:  trans 22.976 5.974 -6.677 quatxyzw -0.243021 -0.211997 0.349496 -0.879688 center 8.287 34.468 -0.670 ntor 10 17.2481 -35.2471 42.8598 29.4039 -61.6472 -50.9187 81.2594 154.7762 -158.8841 -13.1086
State:	 22.976   5.974  -6.677  -0.511 -0.446  0.735 -56.791     17.25  -35.25   42.86   29.40  -61.65  -50.92   81.26  154.78 -158.88  -13.11

DOCKED: MODEL       39
DOCKED: USER    Run = 39
DOCKED: USER    DPF = D:/Protein_go_brrr/autodock/final/1A3N/heme_O2/dock.dpf
DOCKED: USER  
DOCKED: USER    Estimated Free Energy of Binding    =  -10.89 kcal/mol  [=(1)+(2)+(3)-(4)]
DOCKED: USER    Estimated Inhibition Constant, Ki   =   10.46 nM (nanomolar)  [Temperature = 298.15 K]
DOCKED: USER    
DOCKED: USER    (1) Final Intermolecular Energy     =  -13.87 kcal/mol
DOCKED: USER        vdW + Hbond + desolv Energy     =  -12.08 kcal/mol
DOCKED: USER        Electrostatic Energy            =   -1.79 kcal/mol
DOCKED: USER    (2) Final Total Internal Energy     =   -0.74 kcal/mol
DOCKED: USER    (3) Torsional Free Energy           =   +2.98 kcal/mol
DOCKED: USER    (4) Unbound System's Energy  [=(2)] =   -0.74 kcal/mol
DOCKED: USER    
DOCKED: USER    
DOCKED: USER    NEWDPF move heme_O2_opt.pdbqt
DOCKED: USER    NEWDPF about 8.287000 34.468000 -0.670000
DOCKED: USER    NEWDPF tran0 22.975753 5.973823 -6.677190
DOCKED: USER    NEWDPF quaternion0 -0.243021 -0.211997 0.349496 -0.879688
DOCKED: USER    NEWDPF axisangle0 -0.511029 -0.445792 0.734928 -56.790583
DOCKED: USER    NEWDPF quat0 -0.511029 -0.445792 0.734928 -56.790583
DOCKED: USER    NEWDPF dihe0 17.25 -35.25 42.86 29.40 -61.65 -50.92 81.26 154.78 -158.88 -13.11 
DOCKED: USER  keepresnum = 1 
DOCKED: USER  
DOCKED: REMARK  10 active torsions:
DOCKED: REMARK  status: ('A' for Active; 'I' for Inactive)
DOCKED: REMARK    1  A    between atoms: C_6  and  C_10 
DOCKED: REMARK    2  A    between atoms: C_10  and  C_11 
DOCKED: REMARK    3  A    between atoms: C_11  and  C_12 
DOCKED: REMARK    4  A    between atoms: C_12  and  O_14 
DOCKED: REMARK    5  A    between atoms: C_17  and  C_20 
DOCKED: REMARK    6  A    between atoms: C_24  and  C_27 
DOCKED: REMARK    7  A    between atoms: C_31  and  C_34 
DOCKED: REMARK    8  A    between atoms: C_34  and  C_35 
DOCKED: REMARK    9  A    between atoms: C_35  and  C_36 
DOCKED: REMARK   10  A    between atoms: C_36  and  O_38 
DOCKED: USER                              x       y       z     vdW  Elec       q    Type
DOCKED: USER                           _______ _______ _______ _____ _____    ______ ____
DOCKED: ROOT
DOCKED: ATOM      1  C   UNL d   1      21.857   4.792  -8.037 -0.29 +0.02    +0.064 A 
DOCKED: ATOM      2  C   UNL d   1      22.023   4.932  -3.293 -0.37 +0.01    +0.064 A 
DOCKED: ATOM      3  C   UNL d   1      25.366   8.382  -3.420 -0.40 +0.01    +0.064 C 
DOCKED: ATOM      4  C   UNL d   1      24.858   8.582  -8.295 -0.23 +0.06    +0.064 A 
DOCKED: ATOM      5  C   UNL d   1      21.628   4.550  -6.736 -0.34 +0.01    +0.066 A 
DOCKED: ATOM      6  C   UNL d   1      20.731   3.587  -6.265 -0.43 -0.00    -0.021 A 
DOCKED: ATOM      7  C   UNL d   1      20.746   3.656  -4.892 -0.38 -0.00    -0.025 A 
DOCKED: ATOM      8  C   UNL d   1      21.688   4.627  -4.561 -0.37 +0.01    +0.066 A 
DOCKED: ATOM      9  C   UNL d   1      19.864   2.838  -3.974 -0.33 +0.01    +0.051 C 
DOCKED: ATOM     10  C   UNL d   1      23.019   5.924  -2.884 -0.34 +0.01    +0.066 A 
DOCKED: ATOM     11  C   UNL d   1      23.446   6.085  -1.561 -0.37 -0.00    -0.021 A 
DOCKED: ATOM     12  C   UNL d   1      24.423   7.063  -1.580 -0.36 +0.00    +0.000 A 
DOCKED: ATOM     13  C   UNL d   1      24.530   7.460  -2.941 -0.31 +0.01    +0.070 A 
DOCKED: ATOM     14  C   UNL d   1      22.961   5.320  -0.335 -0.34 +0.00    +0.052 C 
DOCKED: ATOM     15  C   UNL d   1      25.481   8.837  -4.784 -0.40 +0.01    +0.066 A 
DOCKED: ATOM     16  C   UNL d   1      26.259   9.919  -5.194 -0.42 -0.00    -0.021 A 
DOCKED: ATOM     17  C   UNL d   1      26.129   9.996  -6.580 -0.34 +0.00    +0.000 A 
DOCKED: ATOM     18  C   UNL d   1      25.272   8.939  -6.917 -0.31 +0.03    +0.070 A 
DOCKED: ATOM     19  C   UNL d   1      27.004  10.808  -4.230 -0.10 +0.00    +0.052 C 
DOCKED: ATOM     20  C   UNL d   1      24.003   7.603  -8.650 -0.23 +0.05    +0.066 A 
DOCKED: ATOM     21  C   UNL d   1      23.665   7.301  -9.966 -0.13 -0.02    -0.025 A 
DOCKED: ATOM     22  C   UNL d   1      22.832   6.206  -9.913 -0.16 -0.01    -0.021 A 
DOCKED: ATOM     23  C   UNL d   1      22.678   5.890  -8.560 -0.22 +0.03    +0.066 A 
DOCKED: ATOM     24  C   UNL d   1      24.111   8.024 -11.211 +0.01 +0.07    +0.051 C 
DOCKED: ATOM     25  N   UNL d   1      22.183   5.222  -5.698 -0.24 -0.04    -0.248 N 
DOCKED: ATOM     26  N   UNL d   1      23.669   6.765  -3.727 -0.17 -0.03    -0.248 N 
DOCKED: ATOM     27  N   UNL d   1      24.829   8.294  -5.808 -0.20 -0.07    -0.248 N 
DOCKED: ATOM     28  N   UNL d   1      23.356   6.769  -7.793 -0.15 -0.11    -0.248 N 
DOCKED: ATOM     29 FE   UNL d   1      23.513   6.769  -5.775 -0.07 +0.00    +0.000 Fe
DOCKED: ATOM     30  O   UNL d   1      22.112   7.172  -5.230 -0.13 +0.00    +0.000 OA
DOCKED: ATOM     31  O   UNL d   1      22.882   8.146  -6.200 -0.41 +0.00    +0.000 OA
DOCKED: ENDROOT
DOCKED: BRANCH   6  32
DOCKED: ATOM     32  C   UNL d   1      19.792   2.727  -7.072 -0.47 +0.00    +0.052 C 
DOCKED: BRANCH  32  33
DOCKED: ATOM     33  C   UNL d   1      18.581   3.498  -7.590 -0.12 +0.03    +0.115 C 
DOCKED: BRANCH  33  34
DOCKED: ATOM     34  C   UNL d   1      17.345   3.251  -6.761 -0.45 +0.06    +0.139 C 
DOCKED: ATOM     35  O   UNL d   1      16.522   4.143  -6.625 -0.13 -0.45    -0.650 OA
DOCKED: BRANCH  34  36
DOCKED: ATOM     36  O   UNL d   1      17.138   2.071  -6.141 +0.07 -0.37    -0.776 OA
DOCKED: ATOM     37  H   UNL d   1      17.852   1.442  -5.989 -0.41 +0.01    +0.167 HD
DOCKED: ENDBRANCH  34  36
DOCKED: ENDBRANCH  33  34
DOCKED: ENDBRANCH  32  33
DOCKED: ENDBRANCH   6  32
DOCKED: BRANCH  22  38
DOCKED: ATOM     38  C   UNL d   1      22.173   5.546 -11.097 -0.13 +0.02    +0.052 C 
DOCKED: BRANCH  38  39
DOCKED: ATOM     39  C   UNL d   1      23.043   4.453 -11.713 -0.16 +0.05    +0.115 C 
DOCKED: BRANCH  39  40
DOCKED: ATOM     40  C   UNL d   1      24.514   4.682 -11.469 -0.18 +0.11    +0.139 C 
DOCKED: ATOM     41  O   UNL d   1      25.057   4.161 -10.508 -0.01 -0.45    -0.650 OA
DOCKED: BRANCH  40  42
DOCKED: ATOM     42  O   UNL d   1      25.256   5.411 -12.324 -0.15 -0.98    -0.776 OA
DOCKED: ATOM     43  H   UNL d   1      25.069   5.423 -13.271 +0.03 +0.14    +0.167 HD
DOCKED: ENDBRANCH  40  42
DOCKED: ENDBRANCH  39  40
DOCKED: ENDBRANCH  38  39
DOCKED: ENDBRANCH  22  38
DOCKED: BRANCH  12  44
DOCKED: ATOM     44  C   UNL d   1      25.136   7.511  -0.321 -0.41 +0.00    +0.004 C 
DOCKED: ATOM     45  C   UNL d   1      25.508   8.746   0.014 -0.45 +0.00    +0.012 C 
DOCKED: ENDBRANCH  12  44
DOCKED: BRANCH  17  46
DOCKED: ATOM     46  C   UNL d   1      26.681  10.986  -7.571 -0.27 +0.00    +0.004 C 
DOCKED: ATOM     47  C   UNL d   1      27.748  11.785  -7.438 -0.30 +0.00    +0.012 C 
DOCKED: ENDBRANCH  17  46
DOCKED: TORSDOF 10
DOCKED: TER
DOCKED: ENDMDL
________________________________________________________________________________


	BEGINNING GENETIC ALGORITHM DOCKING 40 of 100
Run: 40 Seed: 263024160 511898056 [ Run 40 of 100 GA/GALS ]
Beginning LAMARCKIAN GENETIC ALGORITHM (LGA), with a maximum of 25000000 energy evaluations.

Final-Value: -14.424


	FINAL GENETIC ALGORITHM DOCKED STATE
	_______________________________________________


Detailed state:  trans 2.128 -6.270 -6.255 quatxyzw 0.242149 -0.248897 0.858197 0.378037 center 8.287 34.468 -0.670 ntor 10 52.0535 -8.3222 53.4899 119.2363 -21.8730 -53.5508 -49.7018 167.6445 -173.3937 -12.6515
State:	  2.128  -6.270  -6.255   0.262 -0.269  0.927 135.576     52.05   -8.32   53.49  119.24  -21.87  -53.55  -49.70  167.64 -173.39  -12.65

DOCKED: MODEL       40
DOCKED: USER    Run = 40
DOCKED: USER    DPF = D:/Protein_go_brrr/autodock/final/1A3N/heme_O2/dock.dpf
DOCKED: USER  
DOCKED: USER    Estimated Free Energy of Binding    =  -10.73 kcal/mol  [=(1)+(2)+(3)-(4)]
DOCKED: USER    Estimated Inhibition Constant, Ki   =   13.63 nM (nanomolar)  [Temperature = 298.15 K]
DOCKED: USER    
DOCKED: USER    (1) Final Intermolecular Energy     =  -13.71 kcal/mol
DOCKED: USER        vdW + Hbond + desolv Energy     =  -12.14 kcal/mol
DOCKED: USER        Electrostatic Energy            =   -1.57 kcal/mol
DOCKED: USER    (2) Final Total Internal Energy     =   -0.71 kcal/mol
DOCKED: USER    (3) Torsional Free Energy           =   +2.98 kcal/mol
DOCKED: USER    (4) Unbound System's Energy  [=(2)] =   -0.71 kcal/mol
DOCKED: USER    
DOCKED: USER    
DOCKED: USER    NEWDPF move heme_O2_opt.pdbqt
DOCKED: USER    NEWDPF about 8.287000 34.468000 -0.670000
DOCKED: USER    NEWDPF tran0 2.128293 -6.270329 -6.255029
DOCKED: USER    NEWDPF quaternion0 0.242149 -0.248897 0.858197 0.378037
DOCKED: USER    NEWDPF axisangle0 0.261559 -0.268848 0.926988 135.575689
DOCKED: USER    NEWDPF quat0 0.261559 -0.268848 0.926988 135.575689
DOCKED: USER    NEWDPF dihe0 52.05 -8.32 53.49 119.24 -21.87 -53.55 -49.70 167.64 -173.39 -12.65 
DOCKED: USER  keepresnum = 1 
DOCKED: USER  
DOCKED: REMARK  10 active torsions:
DOCKED: REMARK  status: ('A' for Active; 'I' for Inactive)
DOCKED: REMARK    1  A    between atoms: C_6  and  C_10 
DOCKED: REMARK    2  A    between atoms: C_10  and  C_11 
DOCKED: REMARK    3  A    between atoms: C_11  and  C_12 
DOCKED: REMARK    4  A    between atoms: C_12  and  O_14 
DOCKED: REMARK    5  A    between atoms: C_17  and  C_20 
DOCKED: REMARK    6  A    between atoms: C_24  and  C_27 
DOCKED: REMARK    7  A    between atoms: C_31  and  C_34 
DOCKED: REMARK    8  A    between atoms: C_34  and  C_35 
DOCKED: REMARK    9  A    between atoms: C_35  and  C_36 
DOCKED: REMARK   10  A    between atoms: C_36  and  O_38 
DOCKED: USER                              x       y       z     vdW  Elec       q    Type
DOCKED: USER                           _______ _______ _______ _____ _____    ______ ____
DOCKED: ROOT
DOCKED: ATOM      1  C   UNL d   1       3.080  -4.992  -7.655 -0.29 +0.02    +0.064 A 
DOCKED: ATOM      2  C   UNL d   1       3.176  -5.191  -2.910 -0.20 +0.00    +0.064 A 
DOCKED: ATOM      3  C   UNL d   1       0.106  -8.888  -2.911 -0.46 +0.01    +0.064 C 
DOCKED: ATOM      4  C   UNL d   1       0.370  -9.001  -7.809 -0.19 +0.03    +0.064 A 
DOCKED: ATOM      5  C   UNL d   1       3.358  -4.745  -6.364 -0.31 +0.01    +0.066 A 
DOCKED: ATOM      6  C   UNL d   1       4.201  -3.720  -5.927 -0.45 -0.00    -0.021 A 
DOCKED: ATOM      7  C   UNL d   1       4.264  -3.804  -4.556 -0.45 -0.00    -0.025 A 
DOCKED: ATOM      8  C   UNL d   1       3.419  -4.848  -4.190 -0.33 +0.01    +0.066 A 
DOCKED: ATOM      9  C   UNL d   1       5.128  -2.929  -3.674 -0.50 +0.00    +0.051 C 
DOCKED: ATOM     10  C   UNL d   1       2.282  -6.261  -2.464 -0.21 +0.00    +0.066 A 
DOCKED: ATOM     11  C   UNL d   1       1.939  -6.468  -1.123 -0.35 -0.00    -0.021 A 
DOCKED: ATOM     12  C   UNL d   1       1.041  -7.519  -1.105 -0.38 +0.00    +0.000 A 
DOCKED: ATOM     13  C   UNL d   1       0.892  -7.909  -2.465 -0.31 +0.01    +0.070 A 
DOCKED: ATOM     14  C   UNL d   1       2.427  -5.679   0.086 -0.43 +0.00    +0.052 C 
DOCKED: ATOM     15  C   UNL d   1      -0.046  -9.337  -4.274 -0.34 +0.01    +0.066 A 
DOCKED: ATOM     16  C   UNL d   1      -0.758 -10.473  -4.658 -0.29 -0.00    -0.021 A 
DOCKED: ATOM     17  C   UNL d   1      -0.696 -10.526  -6.050 -0.21 +0.00    +0.000 A 
DOCKED: ATOM     18  C   UNL d   1       0.058  -9.403  -6.417 -0.22 +0.02    +0.070 A 
DOCKED: ATOM     19  C   UNL d   1      -1.381 -11.426  -3.669 -0.31 +0.00    +0.052 C 
DOCKED: ATOM     20  C   UNL d   1       1.126  -7.955  -8.194 -0.21 +0.03    +0.066 A 
DOCKED: ATOM     21  C   UNL d   1       1.371  -7.615  -9.522 -0.16 -0.01    -0.025 A 
DOCKED: ATOM     22  C   UNL d   1       2.118  -6.459  -9.497 -0.17 -0.01    -0.021 A 
DOCKED: ATOM     23  C   UNL d   1       2.319  -6.145  -8.149 -0.22 +0.03    +0.066 A 
DOCKED: ATOM     24  C   UNL d   1       0.916  -8.358 -10.751 -0.09 +0.02    +0.051 C 
DOCKED: ATOM     25  N   UNL d   1       2.912  -5.469  -5.308 -0.18 -0.06    -0.248 N 
DOCKED: ATOM     26  N   UNL d   1       1.654  -7.142  -3.284 -0.22 -0.02    -0.248 N 
DOCKED: ATOM     27  N   UNL d   1       0.507  -8.735  -5.323 -0.20 -0.06    -0.248 N 
DOCKED: ATOM     28  N   UNL d   1       1.752  -7.081  -7.361 -0.13 -0.10    -0.248 N 
DOCKED: ATOM     29 FE   UNL d   1       1.702  -7.114  -5.338 -0.07 +0.00    +0.000 Fe
DOCKED: ATOM     30  O   UNL d   1       3.157  -7.412  -4.871 -0.18 +0.00    +0.000 OA
DOCKED: ATOM     31  O   UNL d   1       2.414  -8.433  -5.813 -0.39 +0.00    +0.000 OA
DOCKED: ENDROOT
DOCKED: BRANCH   6  32
DOCKED: ATOM     32  C   UNL d   1       5.028  -2.783  -6.769 -0.41 +0.00    +0.052 C 
DOCKED: BRANCH  32  33
DOCKED: ATOM     33  C   UNL d   1       6.422  -3.327  -7.067 -0.47 +0.00    +0.115 C 
DOCKED: BRANCH  33  34
DOCKED: ATOM     34  C   UNL d   1       6.746  -3.302  -8.540 -0.38 -0.00    +0.139 C 
DOCKED: ATOM     35  O   UNL d   1       7.772  -3.827  -8.941 -0.05 +0.04    -0.650 OA
DOCKED: BRANCH  34  36
DOCKED: ATOM     36  O   UNL d   1       5.938  -2.686  -9.428 +0.12 +0.08    -0.776 OA
DOCKED: ATOM     37  H   UNL d   1       5.654  -1.772  -9.312 -0.47 -0.08    +0.167 HD
DOCKED: ENDBRANCH  34  36
DOCKED: ENDBRANCH  33  34
DOCKED: ENDBRANCH  32  33
DOCKED: ENDBRANCH   6  32
DOCKED: BRANCH  22  38
DOCKED: ATOM     38  C   UNL d   1       2.661  -5.739 -10.704 -0.11 +0.02    +0.052 C 
DOCKED: BRANCH  38  39
DOCKED: ATOM     39  C   UNL d   1       1.682  -4.703 -11.252 -0.12 +0.05    +0.115 C 
DOCKED: BRANCH  39  40
DOCKED: ATOM     40  C   UNL d   1       0.296  -4.860 -10.679 -0.18 +0.14    +0.139 C 
DOCKED: ATOM     41  O   UNL d   1      -0.015  -4.251  -9.668 -0.12 -0.82    -0.650 OA
DOCKED: BRANCH  40  42
DOCKED: ATOM     42  O   UNL d   1      -0.628  -5.624 -11.294 -0.19 -1.07    -0.776 OA
DOCKED: ATOM     43  H   UNL d   1      -0.459  -6.027 -12.154 +0.03 +0.13    +0.167 HD
DOCKED: ENDBRANCH  40  42
DOCKED: ENDBRANCH  39  40
DOCKED: ENDBRANCH  38  39
DOCKED: ENDBRANCH  22  38
DOCKED: BRANCH  12  44
DOCKED: ATOM     44  C   UNL d   1       0.432  -8.033   0.183 -0.45 +0.00    +0.004 C 
DOCKED: ATOM     45  C   UNL d   1       0.350  -9.295   0.603 -0.61 -0.00    +0.012 C 
DOCKED: ENDBRANCH  12  44
DOCKED: BRANCH  17  46
DOCKED: ATOM     46  C   UNL d   1      -1.222 -11.546  -7.025 -0.16 +0.00    +0.004 C 
DOCKED: ATOM     47  C   UNL d   1      -2.203 -11.403  -7.925 -0.13 +0.00    +0.012 C 
DOCKED: ENDBRANCH  17  46
DOCKED: TORSDOF 10
DOCKED: TER
DOCKED: ENDMDL
________________________________________________________________________________


	BEGINNING GENETIC ALGORITHM DOCKING 41 of 100
Run: 41 Seed: 777309061 1545263316 [ Run 41 of 100 GA/GALS ]
Beginning LAMARCKIAN GENETIC ALGORITHM (LGA), with a maximum of 25000000 energy evaluations.

Final-Value: -18.828


	FINAL GENETIC ALGORITHM DOCKED STATE
	_______________________________________________


Detailed state:  trans 22.785 6.579 -3.538 quatxyzw -0.589276 0.089290 -0.781523 -0.184397 center 8.287 34.468 -0.670 ntor 10 -62.5278 -5.0556 -27.9983 -112.4129 179.9669 168.4111 75.4572 -1.0387 -106.2001 136.2642
State:	 22.785   6.579  -3.538  -0.600  0.091 -0.795 -158.748    -62.53   -5.06  -28.00 -112.41  179.97  168.41   75.46   -1.04 -106.20  136.26

DOCKED: MODEL       41
DOCKED: USER    Run = 41
DOCKED: USER    DPF = D:/Protein_go_brrr/autodock/final/1A3N/heme_O2/dock.dpf
DOCKED: USER  
DOCKED: USER    Estimated Free Energy of Binding    =  -14.34 kcal/mol  [=(1)+(2)+(3)-(4)]
DOCKED: USER    Estimated Inhibition Constant, Ki   =   30.62 pM (picomolar)  [Temperature = 298.15 K]
DOCKED: USER    
DOCKED: USER    (1) Final Intermolecular Energy     =  -17.33 kcal/mol
DOCKED: USER        vdW + Hbond + desolv Energy     =  -15.47 kcal/mol
DOCKED: USER        Electrostatic Energy            =   -1.86 kcal/mol
DOCKED: USER    (2) Final Total Internal Energy     =   -1.50 kcal/mol
DOCKED: USER    (3) Torsional Free Energy           =   +2.98 kcal/mol
DOCKED: USER    (4) Unbound System's Energy  [=(2)] =   -1.50 kcal/mol
DOCKED: USER    
DOCKED: USER    
DOCKED: USER    NEWDPF move heme_O2_opt.pdbqt
DOCKED: USER    NEWDPF about 8.287000 34.468000 -0.670000
DOCKED: USER    NEWDPF tran0 22.785291 6.579454 -3.538000
DOCKED: USER    NEWDPF quaternion0 -0.589276 0.089290 -0.781523 -0.184397
DOCKED: USER    NEWDPF axisangle0 -0.599557 0.090848 -0.795159 -158.748084
DOCKED: USER    NEWDPF quat0 -0.599557 0.090848 -0.795159 -158.748084
DOCKED: USER    NEWDPF dihe0 -62.53 -5.06 -28.00 -112.41 179.97 168.41 75.46 -1.04 -106.20 136.26 
DOCKED: USER  keepresnum = 1 
DOCKED: USER  
DOCKED: REMARK  10 active torsions:
DOCKED: REMARK  status: ('A' for Active; 'I' for Inactive)
DOCKED: REMARK    1  A    between atoms: C_6  and  C_10 
DOCKED: REMARK    2  A    between atoms: C_10  and  C_11 
DOCKED: REMARK    3  A    between atoms: C_11  and  C_12 
DOCKED: REMARK    4  A    between atoms: C_12  and  O_14 
DOCKED: REMARK    5  A    between atoms: C_17  and  C_20 
DOCKED: REMARK    6  A    between atoms: C_24  and  C_27 
DOCKED: REMARK    7  A    between atoms: C_31  and  C_34 
DOCKED: REMARK    8  A    between atoms: C_34  and  C_35 
DOCKED: REMARK    9  A    between atoms: C_35  and  C_36 
DOCKED: REMARK   10  A    between atoms: C_36  and  O_38 
DOCKED: USER                              x       y       z     vdW  Elec       q    Type
DOCKED: USER                           _______ _______ _______ _____ _____    ______ ____
DOCKED: ROOT
DOCKED: ATOM      1  C   UNL d   1      22.576   6.702  -5.645 -0.19 +0.01    +0.064 A 
DOCKED: ATOM      2  C   UNL d   1      25.335   9.026  -2.555 -0.40 +0.01    +0.064 A 
DOCKED: ATOM      3  C   UNL d   1      23.418   6.597   1.123 -0.37 +0.00    +0.064 C 
DOCKED: ATOM      4  C   UNL d   1      20.918   3.862  -2.092 -0.38 +0.01    +0.064 A 
DOCKED: ATOM      5  C   UNL d   1      23.484   7.530  -5.105 -0.26 +0.01    +0.066 A 
DOCKED: ATOM      6  C   UNL d   1      24.253   8.436  -5.841 -0.34 -0.01    -0.021 A 
DOCKED: ATOM      7  C   UNL d   1      25.083   9.079  -4.953 -0.39 -0.01    -0.025 A 
DOCKED: ATOM      8  C   UNL d   1      24.764   8.583  -3.692 -0.37 +0.01    +0.066 A 
DOCKED: ATOM      9  C   UNL d   1      26.141  10.092  -5.334 -0.41 +0.01    +0.051 C 
DOCKED: ATOM     10  C   UNL d   1      25.025   8.560  -1.203 -0.37 +0.00    +0.066 A 
DOCKED: ATOM     11  C   UNL d   1      25.527   9.167  -0.046 -0.40 -0.00    -0.021 A 
DOCKED: ATOM     12  C   UNL d   1      24.972   8.493   1.025 -0.38 +0.00    +0.000 A 
DOCKED: ATOM     13  C   UNL d   1      24.154   7.482   0.449 -0.34 +0.00    +0.070 A 
DOCKED: ATOM     14  C   UNL d   1      26.475  10.358   0.034 -0.56 +0.00    +0.052 C 
DOCKED: ATOM     15  C   UNL d   1      22.605   5.537   0.578 -0.32 +0.00    +0.066 A 
DOCKED: ATOM     16  C   UNL d   1      21.991   4.542   1.337 -0.53 -0.00    -0.021 A 
DOCKED: ATOM     17  C   UNL d   1      21.272   3.750   0.442 -0.52 +0.00    +0.000 A 
DOCKED: ATOM     18  C   UNL d   1      21.504   4.330  -0.814 -0.37 +0.00    +0.070 A 
DOCKED: ATOM     19  C   UNL d   1      22.186   4.405   2.826 -0.30 +0.00    +0.052 C 
DOCKED: ATOM     20  C   UNL d   1      21.153   4.369  -3.318 -0.38 +0.01    +0.066 A 
DOCKED: ATOM     21  C   UNL d   1      20.557   3.897  -4.484 -0.43 -0.00    -0.025 A 
DOCKED: ATOM     22  C   UNL d   1      20.997   4.712  -5.503 -0.37 -0.00    -0.021 A 
DOCKED: ATOM     23  C   UNL d   1      21.863   5.643  -4.921 -0.29 +0.01    +0.066 A 
DOCKED: ATOM     24  C   UNL d   1      19.618   2.727  -4.620 -0.43 +0.01    +0.051 C 
DOCKED: ATOM     25  N   UNL d   1      23.825   7.582  -3.794 -0.20 -0.02    -0.248 N 
DOCKED: ATOM     26  N   UNL d   1      24.196   7.527  -0.907 -0.23 -0.01    -0.248 N 
DOCKED: ATOM     27  N   UNL d   1      22.375   5.367  -0.721 -0.21 -0.01    -0.248 N 
DOCKED: ATOM     28  N   UNL d   1      21.990   5.402  -3.600 -0.25 -0.03    -0.248 N 
DOCKED: ATOM     29 FE   UNL d   1      23.084   6.455  -2.261 -0.08 +0.00    +0.000 Fe
DOCKED: ATOM     30  O   UNL d   1      24.576   6.162  -2.592 -0.43 +0.00    +0.000 OA
DOCKED: ATOM     31  O   UNL d   1      23.607   4.972  -2.236 -0.71 +0.00    +0.000 OA
DOCKED: ENDROOT
DOCKED: BRANCH   6  32
DOCKED: ATOM     32  C   UNL d   1      24.308   8.597  -7.339 -0.32 +0.03    +0.052 C 
DOCKED: BRANCH  32  33
DOCKED: ATOM     33  C   UNL d   1      23.853   7.347  -8.086 -0.26 +0.07    +0.115 C 
DOCKED: BRANCH  33  34
DOCKED: ATOM     34  C   UNL d   1      25.003   6.606  -8.721 +0.07 +0.17    +0.139 C 
DOCKED: ATOM     35  O   UNL d   1      26.112   6.666  -8.216 -0.26 -0.78    -0.650 OA
DOCKED: BRANCH  34  36
DOCKED: ATOM     36  O   UNL d   1      24.841   5.896  -9.857 -0.19 -1.09    -0.776 OA
DOCKED: ATOM     37  H   UNL d   1      24.248   5.137  -9.905 +0.07 +0.13    +0.167 HD
DOCKED: ENDBRANCH  34  36
DOCKED: ENDBRANCH  33  34
DOCKED: ENDBRANCH  32  33
DOCKED: ENDBRANCH   6  32
DOCKED: BRANCH  22  38
DOCKED: ATOM     38  C   UNL d   1      20.652   4.558  -6.962 -0.20 +0.01    +0.052 C 
DOCKED: BRANCH  38  39
DOCKED: ATOM     39  C   UNL d   1      21.890   4.383  -7.838 -0.35 +0.03    +0.115 C 
DOCKED: BRANCH  39  40
DOCKED: ATOM     40  C   UNL d   1      21.544   4.177  -9.291 -0.26 +0.05    +0.139 C 
DOCKED: ATOM     41  O   UNL d   1      20.675   3.377  -9.600 -0.23 -0.26    -0.650 OA
DOCKED: BRANCH  40  42
DOCKED: ATOM     42  O   UNL d   1      22.141   4.899 -10.259 +0.04 -0.30    -0.776 OA
DOCKED: ATOM     43  H   UNL d   1      22.782   5.589 -10.050 +0.06 +0.08    +0.167 HD
DOCKED: ENDBRANCH  40  42
DOCKED: ENDBRANCH  39  40
DOCKED: ENDBRANCH  38  39
DOCKED: ENDBRANCH  22  38
DOCKED: BRANCH  12  44
DOCKED: ATOM     44  C   UNL d   1      25.276   8.872   2.460 -0.50 +0.00    +0.004 C 
DOCKED: ATOM     45  C   UNL d   1      24.472   8.783   3.518 -0.64 -0.00    +0.012 C 
DOCKED: ENDBRANCH  12  44
DOCKED: BRANCH  17  46
DOCKED: ATOM     46  C   UNL d   1      20.461   2.500   0.658 -0.58 +0.00    +0.004 C 
DOCKED: ATOM     47  C   UNL d   1      20.656   1.284   0.131 -0.71 +0.00    +0.012 C 
DOCKED: ENDBRANCH  17  46
DOCKED: TORSDOF 10
DOCKED: TER
DOCKED: ENDMDL
________________________________________________________________________________


	BEGINNING GENETIC ALGORITHM DOCKING 42 of 100
Run: 42 Seed: 1156327571 2137981953 [ Run 42 of 100 GA/GALS ]
Beginning LAMARCKIAN GENETIC ALGORITHM (LGA), with a maximum of 25000000 energy evaluations.

Final-Value: -16.627


	FINAL GENETIC ALGORITHM DOCKED STATE
	_______________________________________________


Detailed state:  trans 23.633 -7.790 32.696 quatxyzw 0.417272 0.743424 0.072676 -0.517613 center 8.287 34.468 -0.670 ntor 10 80.2593 -12.1488 112.9874 6.9928 -156.3452 -163.7752 -38.0336 -107.5060 -168.7580 120.5014
State:	 23.633  -7.790  32.696   0.488  0.869  0.085 -117.655     80.26  -12.15  112.99    6.99 -156.35 -163.78  -38.03 -107.51 -168.76  120.50

DOCKED: MODEL       42
DOCKED: USER    Run = 42
DOCKED: USER    DPF = D:/Protein_go_brrr/autodock/final/1A3N/heme_O2/dock.dpf
DOCKED: USER  
DOCKED: USER    Estimated Free Energy of Binding    =  -12.16 kcal/mol  [=(1)+(2)+(3)-(4)]
DOCKED: USER    Estimated Inhibition Constant, Ki   =    1.22 nM (nanomolar)  [Temperature = 298.15 K]
DOCKED: USER    
DOCKED: USER    (1) Final Intermolecular Energy     =  -15.14 kcal/mol
DOCKED: USER        vdW + Hbond + desolv Energy     =  -13.03 kcal/mol
DOCKED: USER        Electrostatic Energy            =   -2.11 kcal/mol
DOCKED: USER    (2) Final Total Internal Energy     =   -1.48 kcal/mol
DOCKED: USER    (3) Torsional Free Energy           =   +2.98 kcal/mol
DOCKED: USER    (4) Unbound System's Energy  [=(2)] =   -1.48 kcal/mol
DOCKED: USER    
DOCKED: USER    
DOCKED: USER    NEWDPF move heme_O2_opt.pdbqt
DOCKED: USER    NEWDPF about 8.287000 34.468000 -0.670000
DOCKED: USER    NEWDPF tran0 23.632677 -7.790126 32.695552
DOCKED: USER    NEWDPF quaternion0 0.417272 0.743424 0.072676 -0.517613
DOCKED: USER    NEWDPF axisangle0 0.487687 0.868877 0.084940 -117.655465
DOCKED: USER    NEWDPF quat0 0.487687 0.868877 0.084940 -117.655465
DOCKED: USER    NEWDPF dihe0 80.26 -12.15 112.99 6.99 -156.35 -163.78 -38.03 -107.51 -168.76 120.50 
DOCKED: USER  keepresnum = 1 
DOCKED: USER  
DOCKED: REMARK  10 active torsions:
DOCKED: REMARK  status: ('A' for Active; 'I' for Inactive)
DOCKED: REMARK    1  A    between atoms: C_6  and  C_10 
DOCKED: REMARK    2  A    between atoms: C_10  and  C_11 
DOCKED: REMARK    3  A    between atoms: C_11  and  C_12 
DOCKED: REMARK    4  A    between atoms: C_12  and  O_14 
DOCKED: REMARK    5  A    between atoms: C_17  and  C_20 
DOCKED: REMARK    6  A    between atoms: C_24  and  C_27 
DOCKED: REMARK    7  A    between atoms: C_31  and  C_34 
DOCKED: REMARK    8  A    between atoms: C_34  and  C_35 
DOCKED: REMARK    9  A    between atoms: C_35  and  C_36 
DOCKED: REMARK   10  A    between atoms: C_36  and  O_38 
DOCKED: USER                              x       y       z     vdW  Elec       q    Type
DOCKED: USER                           _______ _______ _______ _____ _____    ______ ____
DOCKED: ROOT
DOCKED: ATOM      1  C   UNL d   1      23.513  -8.446  34.709 -0.27 +0.02    +0.064 A 
DOCKED: ATOM      2  C   UNL d   1      24.968 -10.578  30.722 -0.37 +0.00    +0.064 A 
DOCKED: ATOM      3  C   UNL d   1      23.942  -6.656  28.141 -0.44 +0.00    +0.064 C 
DOCKED: ATOM      4  C   UNL d   1      22.891  -4.289  32.307 -0.38 +0.01    +0.064 A 
DOCKED: ATOM      5  C   UNL d   1      23.995  -9.345  33.836 -0.29 +0.01    +0.066 A 
DOCKED: ATOM      6  C   UNL d   1      24.391 -10.640  34.183 -0.23 -0.00    -0.021 A 
DOCKED: ATOM      7  C   UNL d   1      24.853 -11.243  33.037 -0.23 -0.00    -0.025 A 
DOCKED: ATOM      8  C   UNL d   1      24.681 -10.317  32.012 -0.32 +0.01    +0.066 A 
DOCKED: ATOM      9  C   UNL d   1      25.453 -12.631  32.971 -0.26 +0.00    +0.051 C 
DOCKED: ATOM     10  C   UNL d   1      24.787  -9.655  29.600 -0.43 +0.00    +0.066 A 
DOCKED: ATOM     11  C   UNL d   1      24.947 -10.031  28.262 -0.51 -0.00    -0.021 A 
DOCKED: ATOM     12  C   UNL d   1      24.638  -8.919  27.501 -0.46 +0.00    +0.000 A 
DOCKED: ATOM     13  C   UNL d   1      24.312  -7.901  28.440 -0.37 +0.00    +0.070 A 
DOCKED: ATOM     14  C   UNL d   1      25.350 -11.402  27.730 -0.50 -0.00    +0.052 C 
DOCKED: ATOM     15  C   UNL d   1      23.638  -5.587  29.062 -0.37 +0.00    +0.066 A 
DOCKED: ATOM     16  C   UNL d   1      23.417  -4.262  28.689 -0.42 -0.00    -0.021 A 
DOCKED: ATOM     17  C   UNL d   1      23.116  -3.568  29.861 -0.45 +0.00    +0.000 A 
DOCKED: ATOM     18  C   UNL d   1      23.175  -4.535  30.874 -0.36 +0.01    +0.070 A 
DOCKED: ATOM     19  C   UNL d   1      23.565  -3.770  27.271 -0.53 +0.00    +0.052 C 
DOCKED: ATOM     20  C   UNL d   1      22.980  -5.183  33.311 -0.33 +0.01    +0.066 A 
DOCKED: ATOM     21  C   UNL d   1      22.682  -4.897  34.640 -0.22 -0.00    -0.025 A 
DOCKED: ATOM     22  C   UNL d   1      22.828  -6.077  35.335 -0.16 -0.00    -0.021 A 
DOCKED: ATOM     23  C   UNL d   1      23.229  -7.039  34.403 -0.22 +0.01    +0.066 A 
DOCKED: ATOM     24  C   UNL d   1      22.283  -3.565  35.219 -0.33 +0.01    +0.051 C 
DOCKED: ATOM     25  N   UNL d   1      24.213  -9.126  32.516 -0.22 -0.03    -0.248 N 
DOCKED: ATOM     26  N   UNL d   1      24.410  -8.357  29.715 -0.23 -0.01    -0.248 N 
DOCKED: ATOM     27  N   UNL d   1      23.566  -5.738  30.381 -0.20 -0.00    -0.248 N 
DOCKED: ATOM     28  N   UNL d   1      23.363  -6.481  33.182 -0.23 -0.03    -0.248 N 
DOCKED: ATOM     29 FE   UNL d   1      23.883  -7.410  31.460 -0.09 -0.00    +0.000 Fe
DOCKED: ATOM     30  O   UNL d   1      25.388  -7.780  31.602 -0.11 +0.00    +0.000 OA
DOCKED: ATOM     31  O   UNL d   1      24.939  -6.274  31.721 +0.05 +0.00    +0.000 OA
DOCKED: ENDROOT
DOCKED: BRANCH   6  32
DOCKED: ATOM     32  C   UNL d   1      24.464 -11.244  35.562 -0.19 +0.01    +0.052 C 
DOCKED: BRANCH  32  33
DOCKED: ATOM     33  C   UNL d   1      25.775 -10.930  36.277 -0.09 +0.06    +0.115 C 
DOCKED: BRANCH  33  34
DOCKED: ATOM     34  C   UNL d   1      25.572 -10.621  37.740 -0.10 +0.09    +0.139 C 
DOCKED: ATOM     35  O   UNL d   1      24.952 -11.404  38.442 +0.01 -0.24    -0.650 OA
DOCKED: BRANCH  34  36
DOCKED: ATOM     36  O   UNL d   1      26.039  -9.480  38.288 -0.34 -1.08    -0.776 OA
DOCKED: ATOM     37  H   UNL d   1      25.569  -8.643  38.203 +0.01 +0.24    +0.167 HD
DOCKED: ENDBRANCH  34  36
DOCKED: ENDBRANCH  33  34
DOCKED: ENDBRANCH  32  33
DOCKED: ENDBRANCH   6  32
DOCKED: BRANCH  22  38
DOCKED: ATOM     38  C   UNL d   1      22.653  -6.248  36.822 -0.08 +0.01    +0.052 C 
DOCKED: BRANCH  38  39
DOCKED: ATOM     39  C   UNL d   1      23.735  -7.134  37.436 -0.15 +0.05    +0.115 C 
DOCKED: BRANCH  39  40
DOCKED: ATOM     40  C   UNL d   1      25.081  -6.455  37.477 -0.16 +0.11    +0.139 C 
DOCKED: ATOM     41  O   UNL d   1      25.299  -5.497  36.754 -0.01 -0.38    -0.650 OA
DOCKED: BRANCH  40  42
DOCKED: ATOM     42  O   UNL d   1      26.037  -6.856  38.338 -0.20 -1.23    -0.776 OA
DOCKED: ATOM     43  H   UNL d   1      25.850  -7.492  39.039 +0.01 +0.23    +0.167 HD
DOCKED: ENDBRANCH  40  42
DOCKED: ENDBRANCH  39  40
DOCKED: ENDBRANCH  38  39
DOCKED: ENDBRANCH  22  38
DOCKED: BRANCH  12  44
DOCKED: ATOM     44  C   UNL d   1      24.687  -8.941  25.988 -0.46 +0.00    +0.004 C 
DOCKED: ATOM     45  C   UNL d   1      25.765  -8.990  25.205 -0.59 +0.00    +0.012 C 
DOCKED: ENDBRANCH  12  44
DOCKED: BRANCH  17  46
DOCKED: ATOM     46  C   UNL d   1      22.844  -2.107  30.102 -0.59 +0.00    +0.004 C 
DOCKED: ATOM     47  C   UNL d   1      22.824  -1.109  29.208 -0.63 +0.00    +0.012 C 
DOCKED: ENDBRANCH  17  46
DOCKED: TORSDOF 10
DOCKED: TER
DOCKED: ENDMDL
________________________________________________________________________________


	BEGINNING GENETIC ALGORITHM DOCKING 43 of 100
Run: 43 Seed: 1753724123 1686087013 [ Run 43 of 100 GA/GALS ]
Beginning LAMARCKIAN GENETIC ALGORITHM (LGA), with a maximum of 25000000 energy evaluations.

Final-Value: -16.839


	FINAL GENETIC ALGORITHM DOCKED STATE
	_______________________________________________


Detailed state:  trans 7.553 13.726 31.007 quatxyzw -0.118347 -0.737764 0.199491 0.633957 center 8.287 34.468 -0.670 ntor 10 -22.6664 59.9466 -52.0991 39.8602 -105.3238 -157.6768 115.6306 76.4434 -173.0186 143.9953
State:	  7.553  13.726  31.007  -0.153 -0.954  0.258 101.315    -22.67   59.95  -52.10   39.86 -105.32 -157.68  115.63   76.44 -173.02  144.00

DOCKED: MODEL       43
DOCKED: USER    Run = 43
DOCKED: USER    DPF = D:/Protein_go_brrr/autodock/final/1A3N/heme_O2/dock.dpf
DOCKED: USER  
DOCKED: USER    Estimated Free Energy of Binding    =  -13.10 kcal/mol  [=(1)+(2)+(3)-(4)]
DOCKED: USER    Estimated Inhibition Constant, Ki   =  249.46 pM (picomolar)  [Temperature = 298.15 K]
DOCKED: USER    
DOCKED: USER    (1) Final Intermolecular Energy     =  -16.08 kcal/mol
DOCKED: USER        vdW + Hbond + desolv Energy     =  -13.13 kcal/mol
DOCKED: USER        Electrostatic Energy            =   -2.96 kcal/mol
DOCKED: USER    (2) Final Total Internal Energy     =   -0.76 kcal/mol
DOCKED: USER    (3) Torsional Free Energy           =   +2.98 kcal/mol
DOCKED: USER    (4) Unbound System's Energy  [=(2)] =   -0.76 kcal/mol
DOCKED: USER    
DOCKED: USER    
DOCKED: USER    NEWDPF move heme_O2_opt.pdbqt
DOCKED: USER    NEWDPF about 8.287000 34.468000 -0.670000
DOCKED: USER    NEWDPF tran0 7.552557 13.725753 31.007201
DOCKED: USER    NEWDPF quaternion0 -0.118347 -0.737764 0.199491 0.633957
DOCKED: USER    NEWDPF axisangle0 -0.153028 -0.953962 0.257951 101.314608
DOCKED: USER    NEWDPF quat0 -0.153028 -0.953962 0.257951 101.314608
DOCKED: USER    NEWDPF dihe0 -22.67 59.95 -52.10 39.86 -105.32 -157.68 115.63 76.44 -173.02 144.00 
DOCKED: USER  keepresnum = 1 
DOCKED: USER  
DOCKED: REMARK  10 active torsions:
DOCKED: REMARK  status: ('A' for Active; 'I' for Inactive)
DOCKED: REMARK    1  A    between atoms: C_6  and  C_10 
DOCKED: REMARK    2  A    between atoms: C_10  and  C_11 
DOCKED: REMARK    3  A    between atoms: C_11  and  C_12 
DOCKED: REMARK    4  A    between atoms: C_12  and  O_14 
DOCKED: REMARK    5  A    between atoms: C_17  and  C_20 
DOCKED: REMARK    6  A    between atoms: C_24  and  C_27 
DOCKED: REMARK    7  A    between atoms: C_31  and  C_34 
DOCKED: REMARK    8  A    between atoms: C_34  and  C_35 
DOCKED: REMARK    9  A    between atoms: C_35  and  C_36 
DOCKED: REMARK   10  A    between atoms: C_36  and  O_38 
DOCKED: USER                              x       y       z     vdW  Elec       q    Type
DOCKED: USER                           _______ _______ _______ _____ _____    ______ ____
DOCKED: ROOT
DOCKED: ATOM      1  C   UNL d   1       7.414  14.765  32.851 -0.23 +0.05    +0.064 A 
DOCKED: ATOM      2  C   UNL d   1       9.343  10.592  31.658 -0.30 +0.03    +0.064 A 
DOCKED: ATOM      3  C   UNL d   1       7.951  11.149  27.092 -0.38 +0.01    +0.064 C 
DOCKED: ATOM      4  C   UNL d   1       6.381  15.662  28.207 -0.43 +0.01    +0.064 A 
DOCKED: ATOM      5  C   UNL d   1       8.054  13.585  32.899 -0.21 +0.04    +0.066 A 
DOCKED: ATOM      6  C   UNL d   1       8.597  13.036  34.064 -0.18 -0.01    -0.021 A 
DOCKED: ATOM      7  C   UNL d   1       9.194  11.848  33.711 -0.22 -0.02    -0.025 A 
DOCKED: ATOM      8  C   UNL d   1       8.956  11.681  32.350 -0.25 +0.03    +0.066 A 
DOCKED: ATOM      9  C   UNL d   1       9.972  10.957  34.655 -0.25 +0.05    +0.051 C 
DOCKED: ATOM     10  C   UNL d   1       9.103  10.350  30.234 -0.37 +0.02    +0.066 A 
DOCKED: ATOM     11  C   UNL d   1       9.380   9.133  29.603 -0.43 -0.01    -0.021 A 
DOCKED: ATOM     12  C   UNL d   1       8.969   9.267  28.290 -0.43 +0.00    +0.000 A 
DOCKED: ATOM     13  C   UNL d   1       8.464  10.593  28.189 -0.33 +0.01    +0.070 A 
DOCKED: ATOM     14  C   UNL d   1       9.986   7.884  30.233 -0.52 +0.01    +0.052 C 
DOCKED: ATOM     15  C   UNL d   1       7.462  12.499  26.940 -0.32 +0.00    +0.066 A 
DOCKED: ATOM     16  C   UNL d   1       7.089  13.072  25.725 -0.38 -0.00    -0.021 A 
DOCKED: ATOM     17  C   UNL d   1       6.639  14.359  26.018 -0.42 +0.00    +0.000 A 
DOCKED: ATOM     18  C   UNL d   1       6.771  14.475  27.409 -0.38 +0.01    +0.070 A 
DOCKED: ATOM     19  C   UNL d   1       7.247  12.368  24.400 -0.41 +0.00    +0.052 C 
DOCKED: ATOM     20  C   UNL d   1       6.534  15.823  29.536 -0.38 +0.01    +0.066 A 
DOCKED: ATOM     21  C   UNL d   1       6.132  16.957  30.236 -0.34 -0.01    -0.025 A 
DOCKED: ATOM     22  C   UNL d   1       6.393  16.708  31.564 -0.19 -0.01    -0.021 A 
DOCKED: ATOM     23  C   UNL d   1       6.964  15.433  31.624 -0.28 +0.03    +0.066 A 
DOCKED: ATOM     24  C   UNL d   1       5.531  18.215  29.665 -0.40 +0.01    +0.051 C 
DOCKED: ATOM     25  N   UNL d   1       8.311  12.783  31.837 -0.16 -0.10    -0.248 N 
DOCKED: ATOM     26  N   UNL d   1       8.553  11.247  29.376 -0.21 -0.05    -0.248 N 
DOCKED: ATOM     27  N   UNL d   1       7.341  13.365  27.942 -0.23 -0.03    -0.248 N 
DOCKED: ATOM     28  N   UNL d   1       7.090  14.917  30.384 -0.21 -0.08    -0.248 N 
DOCKED: ATOM     29 FE   UNL d   1       7.816  13.096  29.881 -0.08 +0.00    +0.000 Fe
DOCKED: ATOM     30  O   UNL d   1       9.347  13.147  30.157 -0.37 +0.00    +0.000 OA
DOCKED: ATOM     31  O   UNL d   1       8.700  14.174  29.153 -0.29 +0.00    +0.000 OA
DOCKED: ENDROOT
DOCKED: BRANCH   6  32
DOCKED: ATOM     32  C   UNL d   1       8.676  13.664  35.431 -0.12 +0.04    +0.052 C 
DOCKED: BRANCH  32  33
DOCKED: ATOM     33  C   UNL d   1       9.947  14.483  35.635 -0.12 +0.08    +0.115 C 
DOCKED: BRANCH  33  34
DOCKED: ATOM     34  C   UNL d   1      11.188  13.625  35.641 -0.18 +0.16    +0.139 C 
DOCKED: ATOM     35  O   UNL d   1      11.913  13.606  34.659 -0.36 -0.91    -0.650 OA
DOCKED: BRANCH  34  36
DOCKED: ATOM     36  O   UNL d   1      11.504  12.853  36.701 -0.01 -1.16    -0.776 OA
DOCKED: ATOM     37  H   UNL d   1      11.165  13.035  37.585 +0.03 +0.16    +0.167 HD
DOCKED: ENDBRANCH  34  36
DOCKED: ENDBRANCH  33  34
DOCKED: ENDBRANCH  32  33
DOCKED: ENDBRANCH   6  32
DOCKED: BRANCH  22  38
DOCKED: ATOM     38  C   UNL d   1       6.164  17.671  32.700 +0.14 +0.03    +0.052 C 
DOCKED: BRANCH  38  39
DOCKED: ATOM     39  C   UNL d   1       7.468  18.114  33.359 -0.15 +0.06    +0.115 C 
DOCKED: BRANCH  39  40
DOCKED: ATOM     40  C   UNL d   1       7.694  17.450  34.694 -0.11 +0.11    +0.139 C 
DOCKED: ATOM     41  O   UNL d   1       6.779  16.850  35.235 -0.53 -1.18    -0.650 OA
DOCKED: BRANCH  40  42
DOCKED: ATOM     42  O   UNL d   1       8.907  17.461  35.281 +0.02 -0.41    -0.776 OA
DOCKED: ATOM     43  H   UNL d   1       9.330  18.285  35.550 +0.02 +0.06    +0.167 HD
DOCKED: ENDBRANCH  40  42
DOCKED: ENDBRANCH  39  40
DOCKED: ENDBRANCH  38  39
DOCKED: ENDBRANCH  22  38
DOCKED: BRANCH  12  44
DOCKED: ATOM     44  C   UNL d   1       9.101   8.141  27.287 -0.51 +0.00    +0.004 C 
DOCKED: ATOM     45  C   UNL d   1       8.139   7.580  26.554 -0.53 +0.00    +0.012 C 
DOCKED: ENDBRANCH  12  44
DOCKED: BRANCH  17  46
DOCKED: ATOM     46  C   UNL d   1       6.167  15.470  25.117 -0.55 +0.00    +0.004 C 
DOCKED: ATOM     47  C   UNL d   1       5.503  15.371  23.958 -0.59 +0.00    +0.012 C 
DOCKED: ENDBRANCH  17  46
DOCKED: TORSDOF 10
DOCKED: TER
DOCKED: ENDMDL
________________________________________________________________________________


	BEGINNING GENETIC ALGORITHM DOCKING 44 of 100
Run: 44 Seed: 881605041 1108666206 [ Run 44 of 100 GA/GALS ]
Beginning LAMARCKIAN GENETIC ALGORITHM (LGA), with a maximum of 25000000 energy evaluations.

Final-Value: -19.137


	FINAL GENETIC ALGORITHM DOCKED STATE
	_______________________________________________


Detailed state:  trans 8.243 12.124 28.360 quatxyzw -0.757426 0.407623 0.491712 0.135532 center 8.287 34.468 -0.670 ntor 10 -108.8371 128.8886 41.9436 -72.9909 70.4125 56.3036 -35.7927 -36.0795 -120.5047 165.8585
State:	  8.243  12.124  28.360  -0.764  0.411  0.496 164.421   -108.84  128.89   41.94  -72.99   70.41   56.30  -35.79  -36.08 -120.50  165.86

DOCKED: MODEL       44
DOCKED: USER    Run = 44
DOCKED: USER    DPF = D:/Protein_go_brrr/autodock/final/1A3N/heme_O2/dock.dpf
DOCKED: USER  
DOCKED: USER    Estimated Free Energy of Binding    =  -15.66 kcal/mol  [=(1)+(2)+(3)-(4)]
DOCKED: USER    Estimated Inhibition Constant, Ki   =    3.30 pM (picomolar)  [Temperature = 298.15 K]
DOCKED: USER    
DOCKED: USER    (1) Final Intermolecular Energy     =  -18.65 kcal/mol
DOCKED: USER        vdW + Hbond + desolv Energy     =  -16.51 kcal/mol
DOCKED: USER        Electrostatic Energy            =   -2.14 kcal/mol
DOCKED: USER    (2) Final Total Internal Energy     =   -0.49 kcal/mol
DOCKED: USER    (3) Torsional Free Energy           =   +2.98 kcal/mol
DOCKED: USER    (4) Unbound System's Energy  [=(2)] =   -0.49 kcal/mol
DOCKED: USER    
DOCKED: USER    
DOCKED: USER    NEWDPF move heme_O2_opt.pdbqt
DOCKED: USER    NEWDPF about 8.287000 34.468000 -0.670000
DOCKED: USER    NEWDPF tran0 8.242519 12.124356 28.359791
DOCKED: USER    NEWDPF quaternion0 -0.757426 0.407623 0.491712 0.135532
DOCKED: USER    NEWDPF axisangle0 -0.764480 0.411419 0.496291 164.421231
DOCKED: USER    NEWDPF quat0 -0.764480 0.411419 0.496291 164.421231
DOCKED: USER    NEWDPF dihe0 -108.84 128.89 41.94 -72.99 70.41 56.30 -35.79 -36.08 -120.50 165.86 
DOCKED: USER  keepresnum = 1 
DOCKED: USER  
DOCKED: REMARK  10 active torsions:
DOCKED: REMARK  status: ('A' for Active; 'I' for Inactive)
DOCKED: REMARK    1  A    between atoms: C_6  and  C_10 
DOCKED: REMARK    2  A    between atoms: C_10  and  C_11 
DOCKED: REMARK    3  A    between atoms: C_11  and  C_12 
DOCKED: REMARK    4  A    between atoms: C_12  and  O_14 
DOCKED: REMARK    5  A    between atoms: C_17  and  C_20 
DOCKED: REMARK    6  A    between atoms: C_24  and  C_27 
DOCKED: REMARK    7  A    between atoms: C_31  and  C_34 
DOCKED: REMARK    8  A    between atoms: C_34  and  C_35 
DOCKED: REMARK    9  A    between atoms: C_35  and  C_36 
DOCKED: REMARK   10  A    between atoms: C_36  and  O_38 
DOCKED: USER                              x       y       z     vdW  Elec       q    Type
DOCKED: USER                           _______ _______ _______ _____ _____    ______ ____
DOCKED: ROOT
DOCKED: ATOM      1  C   UNL d   1       8.291  12.992  30.295 -0.20 +0.02    +0.064 A 
DOCKED: ATOM      2  C   UNL d   1       6.657  14.555  26.118 -0.39 +0.01    +0.064 A 
DOCKED: ATOM      3  C   UNL d   1       8.061  10.504  23.948 -0.40 +0.00    +0.064 C 
DOCKED: ATOM      4  C   UNL d   1       9.314   8.688  28.329 -0.39 +0.01    +0.064 A 
DOCKED: ATOM      5  C   UNL d   1       7.730  13.747  29.336 -0.26 +0.01    +0.066 A 
DOCKED: ATOM      6  C   UNL d   1       7.211  15.027  29.551 -0.37 -0.00    -0.021 A 
DOCKED: ATOM      7  C   UNL d   1       6.699  15.463  28.352 -0.44 -0.00    -0.025 A 
DOCKED: ATOM      8  C   UNL d   1       6.962  14.457  27.426 -0.38 +0.01    +0.066 A 
DOCKED: ATOM      9  C   UNL d   1       5.971  16.774  28.147 -0.42 +0.00    +0.051 C 
DOCKED: ATOM     10  C   UNL d   1       6.929  13.544  25.096 -0.35 +0.00    +0.066 A 
DOCKED: ATOM     11  C   UNL d   1       6.740  13.763  23.727 -0.37 -0.00    -0.021 A 
DOCKED: ATOM     12  C   UNL d   1       7.156  12.613  23.083 -0.39 +0.00    +0.000 A 
DOCKED: ATOM     13  C   UNL d   1       7.573  11.732  24.119 -0.33 +0.00    +0.070 A 
DOCKED: ATOM     14  C   UNL d   1       6.211  15.027  23.059 -0.44 +0.00    +0.052 C 
DOCKED: ATOM     15  C   UNL d   1       8.461   9.569  24.972 -0.39 +0.01    +0.066 A 
DOCKED: ATOM     16  C   UNL d   1       8.808   8.239  24.736 -0.51 -0.00    -0.021 A 
DOCKED: ATOM     17  C   UNL d   1       9.168   7.701  25.971 -0.46 +0.00    +0.000 A 
DOCKED: ATOM     18  C   UNL d   1       9.014   8.757  26.880 -0.38 +0.01    +0.070 A 
DOCKED: ATOM     19  C   UNL d   1       8.713   7.593  23.377 -0.61 +0.00    +0.052 C 
DOCKED: ATOM     20  C   UNL d   1       9.136   9.668  29.236 -0.39 +0.01    +0.066 A 
DOCKED: ATOM     21  C   UNL d   1       9.455   9.550  30.586 -0.42 -0.01    -0.025 A 
DOCKED: ATOM     22  C   UNL d   1       9.195  10.776  31.156 -0.32 -0.01    -0.021 A 
DOCKED: ATOM     23  C   UNL d   1       8.709  11.595  30.133 -0.31 +0.02    +0.066 A 
DOCKED: ATOM     24  C   UNL d   1       9.976   8.328  31.296 -0.53 +0.02    +0.051 C 
DOCKED: ATOM     25  N   UNL d   1       7.539  13.373  28.047 -0.20 -0.03    -0.248 N 
DOCKED: ATOM     26  N   UNL d   1       7.427  12.305  25.341 -0.23 -0.01    -0.248 N 
DOCKED: ATOM     27  N   UNL d   1       8.512   9.861  26.268 -0.22 -0.02    -0.248 N 
DOCKED: ATOM     28  N   UNL d   1       8.632  10.904  28.976 -0.25 -0.04    -0.248 N 
DOCKED: ATOM     29 FE   UNL d   1       8.035  11.597  27.171 -0.08 +0.00    +0.000 Fe
DOCKED: ATOM     30  O   UNL d   1       6.501  11.836  27.283 -0.38 +0.00    +0.000 OA
DOCKED: ATOM     31  O   UNL d   1       7.089  10.400  27.554 -0.68 +0.00    +0.000 OA
DOCKED: ENDROOT
DOCKED: BRANCH   6  32
DOCKED: ATOM     32  C   UNL d   1       7.076  15.760  30.861 -0.35 +0.02    +0.052 C 
DOCKED: BRANCH  32  33
DOCKED: ATOM     33  C   UNL d   1       6.714  14.838  32.021 -0.29 +0.07    +0.115 C 
DOCKED: BRANCH  33  34
DOCKED: ATOM     34  C   UNL d   1       7.414  15.222  33.301 -0.20 +0.13    +0.139 C 
DOCKED: ATOM     35  O   UNL d   1       8.572  14.879  33.481 +0.02 -0.44    -0.650 OA
DOCKED: BRANCH  34  36
DOCKED: ATOM     36  O   UNL d   1       6.780  15.914  34.270 -0.14 -1.41    -0.776 OA
DOCKED: ATOM     37  H   UNL d   1       6.985  16.837  34.456 +0.02 +0.22    +0.167 HD
DOCKED: ENDBRANCH  34  36
DOCKED: ENDBRANCH  33  34
DOCKED: ENDBRANCH  32  33
DOCKED: ENDBRANCH   6  32
DOCKED: BRANCH  22  38
DOCKED: ATOM     38  C   UNL d   1       9.347  11.114  32.617 -0.29 +0.03    +0.052 C 
DOCKED: BRANCH  38  39
DOCKED: ATOM     39  C   UNL d   1       8.053  10.902  33.401 -0.32 +0.06    +0.115 C 
DOCKED: BRANCH  39  40
DOCKED: ATOM     40  C   UNL d   1       8.301  10.360  34.786 -0.23 +0.09    +0.139 C 
DOCKED: ATOM     41  O   UNL d   1       7.403   9.788  35.383 -0.44 -0.39    -0.650 OA
DOCKED: BRANCH  40  42
DOCKED: ATOM     42  O   UNL d   1       9.516  10.450  35.361 -0.24 -0.65    -0.776 OA
DOCKED: ATOM     43  H   UNL d   1       9.625  10.776  36.262 +0.05 +0.14    +0.167 HD
DOCKED: ENDBRANCH  40  42
DOCKED: ENDBRANCH  39  40
DOCKED: ENDBRANCH  38  39
DOCKED: ENDBRANCH  22  38
DOCKED: BRANCH  12  44
DOCKED: ATOM     44  C   UNL d   1       7.111  12.474  21.575 -0.57 +0.00    +0.004 C 
DOCKED: ATOM     45  C   UNL d   1       6.803  11.391  20.862 -0.71 -0.00    +0.012 C 
DOCKED: ENDBRANCH  12  44
DOCKED: BRANCH  17  46
DOCKED: ATOM     46  C   UNL d   1       9.576   6.304  26.359 -0.60 +0.00    +0.004 C 
DOCKED: ATOM     47  C   UNL d   1       8.790   5.242  26.578 -0.75 +0.00    +0.012 C 
DOCKED: ENDBRANCH  17  46
DOCKED: TORSDOF 10
DOCKED: TER
DOCKED: ENDMDL
________________________________________________________________________________


	BEGINNING GENETIC ALGORITHM DOCKING 45 of 100
Run: 45 Seed: 986490527 443443017 [ Run 45 of 100 GA/GALS ]
Beginning LAMARCKIAN GENETIC ALGORITHM (LGA), with a maximum of 25000000 energy evaluations.

Final-Value: -16.526


	FINAL GENETIC ALGORITHM DOCKED STATE
	_______________________________________________


Detailed state:  trans 7.534 13.693 30.988 quatxyzw 0.126367 0.735883 -0.193235 -0.636528 center 8.287 34.468 -0.670 ntor 10 -21.1990 63.6856 -63.0893 44.5189 -102.5622 -178.7824 110.1778 64.7027 -175.1946 141.3626
State:	  7.534  13.693  30.988   0.164  0.954 -0.251 -100.933    -21.20   63.69  -63.09   44.52 -102.56 -178.78  110.18   64.70 -175.19  141.36

DOCKED: MODEL       45
DOCKED: USER    Run = 45
DOCKED: USER    DPF = D:/Protein_go_brrr/autodock/final/1A3N/heme_O2/dock.dpf
DOCKED: USER  
DOCKED: USER    Estimated Free Energy of Binding    =  -12.84 kcal/mol  [=(1)+(2)+(3)-(4)]
DOCKED: USER    Estimated Inhibition Constant, Ki   =  389.37 pM (picomolar)  [Temperature = 298.15 K]
DOCKED: USER    
DOCKED: USER    (1) Final Intermolecular Energy     =  -15.82 kcal/mol
DOCKED: USER        vdW + Hbond + desolv Energy     =  -12.87 kcal/mol
DOCKED: USER        Electrostatic Energy            =   -2.95 kcal/mol
DOCKED: USER    (2) Final Total Internal Energy     =   -0.71 kcal/mol
DOCKED: USER    (3) Torsional Free Energy           =   +2.98 kcal/mol
DOCKED: USER    (4) Unbound System's Energy  [=(2)] =   -0.71 kcal/mol
DOCKED: USER    
DOCKED: USER    
DOCKED: USER    NEWDPF move heme_O2_opt.pdbqt
DOCKED: USER    NEWDPF about 8.287000 34.468000 -0.670000
DOCKED: USER    NEWDPF tran0 7.533553 13.693424 30.987754
DOCKED: USER    NEWDPF quaternion0 0.126367 0.735883 -0.193235 -0.636528
DOCKED: USER    NEWDPF axisangle0 0.163846 0.954139 -0.250546 -100.933230
DOCKED: USER    NEWDPF quat0 0.163846 0.954139 -0.250546 -100.933230
DOCKED: USER    NEWDPF dihe0 -21.20 63.69 -63.09 44.52 -102.56 -178.78 110.18 64.70 -175.19 141.36 
DOCKED: USER  keepresnum = 1 
DOCKED: USER  
DOCKED: REMARK  10 active torsions:
DOCKED: REMARK  status: ('A' for Active; 'I' for Inactive)
DOCKED: REMARK    1  A    between atoms: C_6  and  C_10 
DOCKED: REMARK    2  A    between atoms: C_10  and  C_11 
DOCKED: REMARK    3  A    between atoms: C_11  and  C_12 
DOCKED: REMARK    4  A    between atoms: C_12  and  O_14 
DOCKED: REMARK    5  A    between atoms: C_17  and  C_20 
DOCKED: REMARK    6  A    between atoms: C_24  and  C_27 
DOCKED: REMARK    7  A    between atoms: C_31  and  C_34 
DOCKED: REMARK    8  A    between atoms: C_34  and  C_35 
DOCKED: REMARK    9  A    between atoms: C_35  and  C_36 
DOCKED: REMARK   10  A    between atoms: C_36  and  O_38 
DOCKED: USER                              x       y       z     vdW  Elec       q    Type
DOCKED: USER                           _______ _______ _______ _____ _____    ______ ____
DOCKED: ROOT
DOCKED: ATOM      1  C   UNL d   1       7.378  14.700  32.849 -0.23 +0.05    +0.064 A 
DOCKED: ATOM      2  C   UNL d   1       9.307  10.542  31.601 -0.31 +0.02    +0.064 A 
DOCKED: ATOM      3  C   UNL d   1       7.966  11.187  27.031 -0.38 +0.01    +0.064 C 
DOCKED: ATOM      4  C   UNL d   1       6.399  15.684  28.210 -0.43 +0.01    +0.064 A 
DOCKED: ATOM      5  C   UNL d   1       8.014  13.517  32.882 -0.22 +0.04    +0.066 A 
DOCKED: ATOM      6  C   UNL d   1       8.543  12.945  34.042 -0.18 -0.01    -0.021 A 
DOCKED: ATOM      7  C   UNL d   1       9.139  11.762  33.675 -0.22 -0.02    -0.025 A 
DOCKED: ATOM      8  C   UNL d   1       8.916  11.620  32.308 -0.25 +0.03    +0.066 A 
DOCKED: ATOM      9  C   UNL d   1       9.904  10.851  34.610 -0.26 +0.05    +0.051 C 
DOCKED: ATOM     10  C   UNL d   1       9.081  10.327  30.171 -0.37 +0.02    +0.066 A 
DOCKED: ATOM     11  C   UNL d   1       9.361   9.120  29.521 -0.43 -0.00    -0.021 A 
DOCKED: ATOM     12  C   UNL d   1       8.965   9.280  28.206 -0.43 +0.00    +0.000 A 
DOCKED: ATOM     13  C   UNL d   1       8.465  10.609  28.124 -0.33 +0.01    +0.070 A 
DOCKED: ATOM     14  C   UNL d   1       9.957   7.858  30.135 -0.48 +0.01    +0.052 C 
DOCKED: ATOM     15  C   UNL d   1       7.483  12.540  26.898 -0.30 +0.00    +0.066 A 
DOCKED: ATOM     16  C   UNL d   1       7.126  13.137  25.689 -0.38 -0.00    -0.021 A 
DOCKED: ATOM     17  C   UNL d   1       6.677  14.420  26.001 -0.42 +0.00    +0.000 A 
DOCKED: ATOM     18  C   UNL d   1       6.793  14.510  27.395 -0.39 +0.01    +0.070 A 
DOCKED: ATOM     19  C   UNL d   1       7.295  12.456  24.354 -0.41 +0.00    +0.052 C 
DOCKED: ATOM     20  C   UNL d   1       6.538  15.820  29.543 -0.38 +0.01    +0.066 A 
DOCKED: ATOM     21  C   UNL d   1       6.131  16.943  30.259 -0.34 -0.01    -0.025 A 
DOCKED: ATOM     22  C   UNL d   1       6.378  16.669  31.586 -0.18 -0.01    -0.021 A 
DOCKED: ATOM     23  C   UNL d   1       6.944  15.391  31.629 -0.28 +0.03    +0.066 A 
DOCKED: ATOM     24  C   UNL d   1       5.542  18.213  29.705 -0.40 +0.01    +0.051 C 
DOCKED: ATOM     25  N   UNL d   1       8.280  12.733  31.808 -0.16 -0.10    -0.248 N 
DOCKED: ATOM     26  N   UNL d   1       8.544  11.241  29.323 -0.21 -0.05    -0.248 N 
DOCKED: ATOM     27  N   UNL d   1       7.354  13.389  27.914 -0.23 -0.03    -0.248 N 
DOCKED: ATOM     28  N   UNL d   1       7.081  14.897  30.381 -0.21 -0.08    -0.248 N 
DOCKED: ATOM     29 FE   UNL d   1       7.807  13.083  29.853 -0.08 +0.00    +0.000 Fe
DOCKED: ATOM     30  O   UNL d   1       9.335  13.124  30.147 -0.37 +0.00    +0.000 OA
DOCKED: ATOM     31  O   UNL d   1       8.702  14.171  29.154 -0.29 +0.00    +0.000 OA
DOCKED: ENDROOT
DOCKED: BRANCH   6  32
DOCKED: ATOM     32  C   UNL d   1       8.608  13.548  35.422 -0.13 +0.04    +0.052 C 
DOCKED: BRANCH  32  33
DOCKED: ATOM     33  C   UNL d   1       9.903  14.315  35.672 -0.12 +0.08    +0.115 C 
DOCKED: BRANCH  33  34
DOCKED: ATOM     34  C   UNL d   1      11.092  13.399  35.827 -0.11 +0.17    +0.139 C 
DOCKED: ATOM     35  O   UNL d   1      11.913  13.318  34.927 -0.30 -1.18    -0.650 OA
DOCKED: BRANCH  34  36
DOCKED: ATOM     36  O   UNL d   1      11.258  12.641  36.931 -0.06 -1.02    -0.776 OA
DOCKED: ATOM     37  H   UNL d   1      10.822  12.852  37.765 +0.03 +0.14    +0.167 HD
DOCKED: ENDBRANCH  34  36
DOCKED: ENDBRANCH  33  34
DOCKED: ENDBRANCH  32  33
DOCKED: ENDBRANCH   6  32
DOCKED: BRANCH  22  38
DOCKED: ATOM     38  C   UNL d   1       6.140  17.612  32.737 +0.22 +0.03    +0.052 C 
DOCKED: BRANCH  38  39
DOCKED: ATOM     39  C   UNL d   1       7.432  17.989  33.458 -0.15 +0.06    +0.115 C 
DOCKED: BRANCH  39  40
DOCKED: ATOM     40  C   UNL d   1       7.451  17.515  34.890 -0.11 +0.12    +0.139 C 
DOCKED: ATOM     41  O   UNL d   1       6.415  17.491  35.535 -0.42 -0.97    -0.650 OA
DOCKED: BRANCH  40  42
DOCKED: ATOM     42  O   UNL d   1       8.587  17.067  35.459 -0.00 -0.51    -0.776 OA
DOCKED: ATOM     43  H   UNL d   1       9.336  17.653  35.621 +0.02 +0.07    +0.167 HD
DOCKED: ENDBRANCH  40  42
DOCKED: ENDBRANCH  39  40
DOCKED: ENDBRANCH  38  39
DOCKED: ENDBRANCH  22  38
DOCKED: BRANCH  12  44
DOCKED: ATOM     44  C   UNL d   1       9.104   8.171  27.184 -0.51 +0.00    +0.004 C 
DOCKED: ATOM     45  C   UNL d   1       8.133   7.490  26.578 -0.54 +0.00    +0.012 C 
DOCKED: ENDBRANCH  12  44
DOCKED: BRANCH  17  46
DOCKED: ATOM     46  C   UNL d   1       6.218  15.548  25.116 -0.55 +0.00    +0.004 C 
DOCKED: ATOM     47  C   UNL d   1       5.493  15.477  23.992 -0.60 +0.00    +0.012 C 
DOCKED: ENDBRANCH  17  46
DOCKED: TORSDOF 10
DOCKED: TER
DOCKED: ENDMDL
________________________________________________________________________________


	BEGINNING GENETIC ALGORITHM DOCKING 46 of 100
Run: 46 Seed: 49982312 1940142805 [ Run 46 of 100 GA/GALS ]
Beginning LAMARCKIAN GENETIC ALGORITHM (LGA), with a maximum of 25000000 energy evaluations.

Final-Value: -18.827


	FINAL GENETIC ALGORITHM DOCKED STATE
	_______________________________________________


Detailed state:  trans 23.203 6.826 -3.839 quatxyzw 0.479606 -0.142338 0.834287 0.231694 center 8.287 34.468 -0.670 ntor 10 58.2845 -54.9734 36.0831 -57.3905 -31.9894 36.2901 45.1604 81.7744 -1.9413 176.8923
State:	 23.203   6.826  -3.839   0.493 -0.146  0.858 153.206     58.28  -54.97   36.08  -57.39  -31.99   36.29   45.16   81.77   -1.94  176.89

DOCKED: MODEL       46
DOCKED: USER    Run = 46
DOCKED: USER    DPF = D:/Protein_go_brrr/autodock/final/1A3N/heme_O2/dock.dpf
DOCKED: USER  
DOCKED: USER    Estimated Free Energy of Binding    =  -14.22 kcal/mol  [=(1)+(2)+(3)-(4)]
DOCKED: USER    Estimated Inhibition Constant, Ki   =   37.54 pM (picomolar)  [Temperature = 298.15 K]
DOCKED: USER    
DOCKED: USER    (1) Final Intermolecular Energy     =  -17.21 kcal/mol
DOCKED: USER        vdW + Hbond + desolv Energy     =  -15.38 kcal/mol
DOCKED: USER        Electrostatic Energy            =   -1.82 kcal/mol
DOCKED: USER    (2) Final Total Internal Energy     =   -1.62 kcal/mol
DOCKED: USER    (3) Torsional Free Energy           =   +2.98 kcal/mol
DOCKED: USER    (4) Unbound System's Energy  [=(2)] =   -1.62 kcal/mol
DOCKED: USER    
DOCKED: USER    
DOCKED: USER    NEWDPF move heme_O2_opt.pdbqt
DOCKED: USER    NEWDPF about 8.287000 34.468000 -0.670000
DOCKED: USER    NEWDPF tran0 23.202895 6.826398 -3.839336
DOCKED: USER    NEWDPF quaternion0 0.479606 -0.142338 0.834287 0.231694
DOCKED: USER    NEWDPF axisangle0 0.493022 -0.146319 0.857625 153.206295
DOCKED: USER    NEWDPF quat0 0.493022 -0.146319 0.857625 153.206295
DOCKED: USER    NEWDPF dihe0 58.28 -54.97 36.08 -57.39 -31.99 36.29 45.16 81.77 -1.94 176.89 
DOCKED: USER  keepresnum = 1 
DOCKED: USER  
DOCKED: REMARK  10 active torsions:
DOCKED: REMARK  status: ('A' for Active; 'I' for Inactive)
DOCKED: REMARK    1  A    between atoms: C_6  and  C_10 
DOCKED: REMARK    2  A    between atoms: C_10  and  C_11 
DOCKED: REMARK    3  A    between atoms: C_11  and  C_12 
DOCKED: REMARK    4  A    between atoms: C_12  and  O_14 
DOCKED: REMARK    5  A    between atoms: C_17  and  C_20 
DOCKED: REMARK    6  A    between atoms: C_24  and  C_27 
DOCKED: REMARK    7  A    between atoms: C_31  and  C_34 
DOCKED: REMARK    8  A    between atoms: C_34  and  C_35 
DOCKED: REMARK    9  A    between atoms: C_35  and  C_36 
DOCKED: REMARK   10  A    between atoms: C_36  and  O_38 
DOCKED: USER                              x       y       z     vdW  Elec       q    Type
DOCKED: USER                           _______ _______ _______ _____ _____    ______ ____
DOCKED: ROOT
DOCKED: ATOM      1  C   UNL d   1      23.469   7.304  -5.889 -0.19 +0.02    +0.064 A 
DOCKED: ATOM      2  C   UNL d   1      25.490   8.956  -1.921 -0.39 +0.01    +0.064 A 
DOCKED: ATOM      3  C   UNL d   1      22.783   6.046   0.780 -0.41 +0.00    +0.064 C 
DOCKED: ATOM      4  C   UNL d   1      21.037   3.997  -3.321 -0.38 +0.01    +0.064 A 
DOCKED: ATOM      5  C   UNL d   1      24.241   7.989  -5.030 -0.30 +0.01    +0.066 A 
DOCKED: ATOM      6  C   UNL d   1      25.163   8.968  -5.415 -0.39 -0.01    -0.021 A 
DOCKED: ATOM      7  C   UNL d   1      25.780   9.416  -4.271 -0.44 -0.00    -0.025 A 
DOCKED: ATOM      8  C   UNL d   1      25.183   8.734  -3.213 -0.38 +0.01    +0.066 A 
DOCKED: ATOM      9  C   UNL d   1      26.903  10.428  -4.233 -0.41 +0.00    +0.051 C 
DOCKED: ATOM     10  C   UNL d   1      24.883   8.289  -0.768 -0.36 +0.00    +0.066 A 
DOCKED: ATOM     11  C   UNL d   1      25.120   8.673   0.556 -0.32 -0.00    -0.021 A 
DOCKED: ATOM     12  C   UNL d   1      24.335   7.857   1.349 -0.41 +0.00    +0.000 A 
DOCKED: ATOM     13  C   UNL d   1      23.657   6.994   0.444 -0.32 +0.00    +0.070 A 
DOCKED: ATOM     14  C   UNL d   1      26.037   9.790   1.043 -0.47 +0.00    +0.052 C 
DOCKED: ATOM     15  C   UNL d   1      22.102   5.129  -0.102 -0.37 +0.00    +0.066 A 
DOCKED: ATOM     16  C   UNL d   1      21.326   4.052   0.323 -0.48 -0.00    -0.021 A 
DOCKED: ATOM     17  C   UNL d   1      20.818   3.452  -0.829 -0.44 +0.00    +0.000 A 
DOCKED: ATOM     18  C   UNL d   1      21.329   4.220  -1.886 -0.36 +0.01    +0.070 A 
DOCKED: ATOM     19  C   UNL d   1      21.183   3.662   1.773 -0.57 +0.00    +0.052 C 
DOCKED: ATOM     20  C   UNL d   1      21.544   4.687  -4.362 -0.39 +0.01    +0.066 A 
DOCKED: ATOM     21  C   UNL d   1      21.219   4.443  -5.693 -0.39 -0.00    -0.025 A 
DOCKED: ATOM     22  C   UNL d   1      21.882   5.393  -6.437 -0.30 -0.00    -0.021 A 
DOCKED: ATOM     23  C   UNL d   1      22.604   6.174  -5.530 -0.09 +0.01    +0.066 A 
DOCKED: ATOM     24  C   UNL d   1      20.324   3.355  -6.228 -0.51 +0.01    +0.051 C 
DOCKED: ATOM     25  N   UNL d   1      24.282   7.809  -3.687 -0.23 -0.03    -0.248 N 
DOCKED: ATOM     26  N   UNL d   1      24.000   7.261  -0.842 -0.23 -0.01    -0.248 N 
DOCKED: ATOM     27  N   UNL d   1      22.166   5.187  -1.430 -0.21 -0.02    -0.248 N 
DOCKED: ATOM     28  N   UNL d   1      22.432   5.714  -4.274 -0.23 -0.03    -0.248 N 
DOCKED: ATOM     29 FE   UNL d   1      23.209   6.479  -2.569 -0.08 +0.00    +0.000 Fe
DOCKED: ATOM     30  O   UNL d   1      24.735   6.176  -2.612 -0.42 +0.00    +0.000 OA
DOCKED: ATOM     31  O   UNL d   1      23.700   4.990  -2.684 -0.60 +0.00    +0.000 OA
DOCKED: ENDROOT
DOCKED: BRANCH   6  32
DOCKED: ATOM     32  C   UNL d   1      25.551   9.370  -6.814 -0.36 +0.02    +0.052 C 
DOCKED: BRANCH  32  33
DOCKED: ATOM     33  C   UNL d   1      24.566  10.352  -7.443 -0.21 +0.05    +0.115 C 
DOCKED: BRANCH  33  34
DOCKED: ATOM     34  C   UNL d   1      24.255  10.014  -8.880 -0.20 +0.09    +0.139 C 
DOCKED: ATOM     35  O   UNL d   1      23.440  10.683  -9.494 +0.02 -0.31    -0.650 OA
DOCKED: BRANCH  34  36
DOCKED: ATOM     36  O   UNL d   1      24.839   8.967  -9.498 +0.02 -1.05    -0.776 OA
DOCKED: ATOM     37  H   UNL d   1      24.756   8.066  -9.166 +0.05 +0.25    +0.167 HD
DOCKED: ENDBRANCH  34  36
DOCKED: ENDBRANCH  33  34
DOCKED: ENDBRANCH  32  33
DOCKED: ENDBRANCH   6  32
DOCKED: BRANCH  22  38
DOCKED: ATOM     38  C   UNL d   1      21.868   5.498  -7.940 -0.29 +0.01    +0.052 C 
DOCKED: BRANCH  38  39
DOCKED: ATOM     39  C   UNL d   1      22.847   4.530  -8.600 -0.33 +0.04    +0.115 C 
DOCKED: BRANCH  39  40
DOCKED: ATOM     40  C   UNL d   1      24.140   5.198  -8.996 -0.26 +0.08    +0.139 C 
DOCKED: ATOM     41  O   UNL d   1      25.013   4.550  -9.549 -0.07 -0.44    -0.650 OA
DOCKED: BRANCH  40  42
DOCKED: ATOM     42  O   UNL d   1      24.332   6.517  -8.794 -0.21 -0.70    -0.776 OA
DOCKED: ATOM     43  H   UNL d   1      23.698   7.173  -9.108 +0.06 +0.14    +0.167 HD
DOCKED: ENDBRANCH  40  42
DOCKED: ENDBRANCH  39  40
DOCKED: ENDBRANCH  38  39
DOCKED: ENDBRANCH  22  38
DOCKED: BRANCH  12  44
DOCKED: ATOM     44  C   UNL d   1      24.315   7.981   2.858 -0.57 -0.00    +0.004 C 
DOCKED: ATOM     45  C   UNL d   1      24.126   7.015   3.757 -0.70 -0.00    +0.012 C 
DOCKED: ENDBRANCH  12  44
DOCKED: BRANCH  17  46
DOCKED: ATOM     46  C   UNL d   1      19.969   2.223  -1.011 -0.54 +0.00    +0.004 C 
DOCKED: ATOM     47  C   UNL d   1      20.278   0.952  -0.724 -0.72 -0.00    +0.012 C 
DOCKED: ENDBRANCH  17  46
DOCKED: TORSDOF 10
DOCKED: TER
DOCKED: ENDMDL
________________________________________________________________________________


	BEGINNING GENETIC ALGORITHM DOCKING 47 of 100
Run: 47 Seed: 533335558 1095772029 [ Run 47 of 100 GA/GALS ]
Beginning LAMARCKIAN GENETIC ALGORITHM (LGA), with a maximum of 25000000 energy evaluations.

Final-Value: -19.716


	FINAL GENETIC ALGORITHM DOCKED STATE
	_______________________________________________


Detailed state:  trans 8.456 11.724 28.405 quatxyzw -0.743585 0.418317 0.505630 0.128179 center 8.287 34.468 -0.670 ntor 10 110.9927 -12.9843 40.7138 -74.5547 -174.9362 -150.9993 -44.7313 -34.6052 -159.5372 137.0535
State:	  8.456  11.724  28.405  -0.750  0.422  0.510 165.271    110.99  -12.98   40.71  -74.55 -174.94 -151.00  -44.73  -34.61 -159.54  137.05

DOCKED: MODEL       47
DOCKED: USER    Run = 47
DOCKED: USER    DPF = D:/Protein_go_brrr/autodock/final/1A3N/heme_O2/dock.dpf
DOCKED: USER  
DOCKED: USER    Estimated Free Energy of Binding    =  -15.03 kcal/mol  [=(1)+(2)+(3)-(4)]
DOCKED: USER    Estimated Inhibition Constant, Ki   =    9.59 pM (picomolar)  [Temperature = 298.15 K]
DOCKED: USER    
DOCKED: USER    (1) Final Intermolecular Energy     =  -18.01 kcal/mol
DOCKED: USER        vdW + Hbond + desolv Energy     =  -15.83 kcal/mol
DOCKED: USER        Electrostatic Energy            =   -2.18 kcal/mol
DOCKED: USER    (2) Final Total Internal Energy     =   -1.70 kcal/mol
DOCKED: USER    (3) Torsional Free Energy           =   +2.98 kcal/mol
DOCKED: USER    (4) Unbound System's Energy  [=(2)] =   -1.70 kcal/mol
DOCKED: USER    
DOCKED: USER    
DOCKED: USER    NEWDPF move heme_O2_opt.pdbqt
DOCKED: USER    NEWDPF about 8.287000 34.468000 -0.670000
DOCKED: USER    NEWDPF tran0 8.455816 11.723903 28.405040
DOCKED: USER    NEWDPF quaternion0 -0.743585 0.418317 0.505630 0.128179
DOCKED: USER    NEWDPF axisangle0 -0.749770 0.421797 0.509835 165.271245
DOCKED: USER    NEWDPF quat0 -0.749770 0.421797 0.509835 165.271245
DOCKED: USER    NEWDPF dihe0 110.99 -12.98 40.71 -74.55 -174.94 -151.00 -44.73 -34.61 -159.54 137.05 
DOCKED: USER  keepresnum = 1 
DOCKED: USER  
DOCKED: REMARK  10 active torsions:
DOCKED: REMARK  status: ('A' for Active; 'I' for Inactive)
DOCKED: REMARK    1  A    between atoms: C_6  and  C_10 
DOCKED: REMARK    2  A    between atoms: C_10  and  C_11 
DOCKED: REMARK    3  A    between atoms: C_11  and  C_12 
DOCKED: REMARK    4  A    between atoms: C_12  and  O_14 
DOCKED: REMARK    5  A    between atoms: C_17  and  C_20 
DOCKED: REMARK    6  A    between atoms: C_24  and  C_27 
DOCKED: REMARK    7  A    between atoms: C_31  and  C_34 
DOCKED: REMARK    8  A    between atoms: C_34  and  C_35 
DOCKED: REMARK    9  A    between atoms: C_35  and  C_36 
DOCKED: REMARK   10  A    between atoms: C_36  and  O_38 
DOCKED: USER                              x       y       z     vdW  Elec       q    Type
DOCKED: USER                           _______ _______ _______ _____ _____    ______ ____
DOCKED: ROOT
DOCKED: ATOM      1  C   UNL d   1       8.587  12.572  30.345 -0.22 +0.02    +0.064 A 
DOCKED: ATOM      2  C   UNL d   1       6.908  14.233  26.224 -0.37 +0.01    +0.064 A 
DOCKED: ATOM      3  C   UNL d   1       8.099  10.150  23.987 -0.40 +0.00    +0.064 C 
DOCKED: ATOM      4  C   UNL d   1       9.393   8.249  28.320 -0.37 +0.01    +0.064 A 
DOCKED: ATOM      5  C   UNL d   1       8.032  13.357  29.407 -0.24 +0.01    +0.066 A 
DOCKED: ATOM      6  C   UNL d   1       7.568  14.654  29.645 -0.35 -0.01    -0.021 A 
DOCKED: ATOM      7  C   UNL d   1       7.043  15.119  28.463 -0.41 -0.00    -0.025 A 
DOCKED: ATOM      8  C   UNL d   1       7.243  14.112  27.523 -0.35 +0.01    +0.066 A 
DOCKED: ATOM      9  C   UNL d   1       6.361  16.459  28.287 -0.44 +0.01    +0.051 C 
DOCKED: ATOM     10  C   UNL d   1       7.115  13.221  25.187 -0.35 +0.00    +0.066 A 
DOCKED: ATOM     11  C   UNL d   1       6.900  13.460  23.825 -0.35 -0.00    -0.021 A 
DOCKED: ATOM     12  C   UNL d   1       7.254  12.300  23.162 -0.39 +0.00    +0.000 A 
DOCKED: ATOM     13  C   UNL d   1       7.663  11.395  24.181 -0.26 +0.00    +0.070 A 
DOCKED: ATOM     14  C   UNL d   1       6.403  14.749  23.182 -0.37 +0.00    +0.052 C 
DOCKED: ATOM     15  C   UNL d   1       8.488   9.192  24.993 -0.40 +0.01    +0.066 A 
DOCKED: ATOM     16  C   UNL d   1       8.778   7.851  24.738 -0.52 -0.00    -0.021 A 
DOCKED: ATOM     17  C   UNL d   1       9.149   7.289  25.959 -0.49 +0.00    +0.000 A 
DOCKED: ATOM     18  C   UNL d   1       9.058   8.343  26.879 -0.38 +0.01    +0.070 A 
DOCKED: ATOM     19  C   UNL d   1       8.623   7.221  23.377 -0.52 +0.00    +0.052 C 
DOCKED: ATOM     20  C   UNL d   1       9.276   9.228  29.238 -0.39 +0.01    +0.066 A 
DOCKED: ATOM     21  C   UNL d   1       9.624   9.085  30.579 -0.43 -0.01    -0.025 A 
DOCKED: ATOM     22  C   UNL d   1       9.427  10.315  31.165 -0.34 -0.01    -0.021 A 
DOCKED: ATOM     23  C   UNL d   1       8.947  11.161  30.161 -0.28 +0.02    +0.066 A 
DOCKED: ATOM     24  C   UNL d   1      10.116   7.838  31.266 -0.54 +0.01    +0.051 C 
DOCKED: ATOM     25  N   UNL d   1       7.793  13.002  28.120 -0.16 -0.02    -0.248 N 
DOCKED: ATOM     26  N   UNL d   1       7.571  11.962  25.410 -0.22 -0.01    -0.248 N 
DOCKED: ATOM     27  N   UNL d   1       8.584   9.470  26.290 -0.22 -0.03    -0.248 N 
DOCKED: ATOM     28  N   UNL d   1       8.814  10.484  29.002 -0.27 -0.05    -0.248 N 
DOCKED: ATOM     29 FE   UNL d   1       8.197  11.215  27.218 -0.08 +0.00    +0.000 Fe
DOCKED: ATOM     30  O   UNL d   1       6.677  11.512  27.372 -0.44 +0.00    +0.000 OA
DOCKED: ATOM     31  O   UNL d   1       7.216  10.052  27.616 -0.77 +0.00    +0.000 OA
DOCKED: ENDROOT
DOCKED: BRANCH   6  32
DOCKED: ATOM     32  C   UNL d   1       7.495  15.380  30.964 -0.33 +0.02    +0.052 C 
DOCKED: BRANCH  32  33
DOCKED: ATOM     33  C   UNL d   1       6.345  14.898  31.842 -0.26 +0.07    +0.115 C 
DOCKED: BRANCH  33  34
DOCKED: ATOM     34  C   UNL d   1       6.776  14.642  33.265 -0.18 +0.15    +0.139 C 
DOCKED: ATOM     35  O   UNL d   1       7.639  15.342  33.769 -0.06 -0.65    -0.650 OA
DOCKED: BRANCH  34  36
DOCKED: ATOM     36  O   UNL d   1       6.247  13.634  33.990 -0.15 -1.24    -0.776 OA
DOCKED: ATOM     37  H   UNL d   1       6.765  12.862  34.245 +0.07 +0.17    +0.167 HD
DOCKED: ENDBRANCH  34  36
DOCKED: ENDBRANCH  33  34
DOCKED: ENDBRANCH  32  33
DOCKED: ENDBRANCH   6  32
DOCKED: BRANCH  22  38
DOCKED: ATOM     38  C   UNL d   1       9.629  10.635  32.624 -0.13 +0.03    +0.052 C 
DOCKED: BRANCH  38  39
DOCKED: ATOM     39  C   UNL d   1       8.355  11.152  33.288 -0.29 +0.06    +0.115 C 
DOCKED: BRANCH  39  40
DOCKED: ATOM     40  C   UNL d   1       8.220  10.686  34.716 -0.26 +0.09    +0.139 C 
DOCKED: ATOM     41  O   UNL d   1       9.018   9.883  35.170 -0.32 -0.52    -0.650 OA
DOCKED: BRANCH  40  42
DOCKED: ATOM     42  O   UNL d   1       7.259  11.181  35.521 +0.04 -0.51    -0.776 OA
DOCKED: ATOM     43  H   UNL d   1       6.727  11.943  35.263 +0.07 +0.14    +0.167 HD
DOCKED: ENDBRANCH  40  42
DOCKED: ENDBRANCH  39  40
DOCKED: ENDBRANCH  38  39
DOCKED: ENDBRANCH  22  38
DOCKED: BRANCH  12  44
DOCKED: ATOM     44  C   UNL d   1       7.165  12.176  21.655 -0.58 +0.00    +0.004 C 
DOCKED: ATOM     45  C   UNL d   1       6.819  11.105  20.941 -0.71 -0.00    +0.012 C 
DOCKED: ENDBRANCH  12  44
DOCKED: BRANCH  17  46
DOCKED: ATOM     46  C   UNL d   1       9.512   5.875  26.326 -0.68 +0.00    +0.004 C 
DOCKED: ATOM     47  C   UNL d   1       8.691   4.849  26.585 -0.74 +0.00    +0.012 C 
DOCKED: ENDBRANCH  17  46
DOCKED: TORSDOF 10
DOCKED: TER
DOCKED: ENDMDL
________________________________________________________________________________


	BEGINNING GENETIC ALGORITHM DOCKING 48 of 100
Run: 48 Seed: 1225971485 963288561 [ Run 48 of 100 GA/GALS ]
Beginning LAMARCKIAN GENETIC ALGORITHM (LGA), with a maximum of 25000000 energy evaluations.

Final-Value: -18.759


	FINAL GENETIC ALGORITHM DOCKED STATE
	_______________________________________________


Detailed state:  trans 23.050 6.744 -3.371 quatxyzw 0.492134 -0.160031 0.819599 0.245868 center 8.287 34.468 -0.670 ntor 10 -58.0514 -121.2434 26.9871 -57.7354 -119.3932 57.5315 -39.8797 72.7920 -126.3187 -163.6449
State:	 23.050   6.744  -3.371   0.508 -0.165  0.846 151.534    -58.05 -121.24   26.99  -57.74 -119.39   57.53  -39.88   72.79 -126.32 -163.64

DOCKED: MODEL       48
DOCKED: USER    Run = 48
DOCKED: USER    DPF = D:/Protein_go_brrr/autodock/final/1A3N/heme_O2/dock.dpf
DOCKED: USER  
DOCKED: USER    Estimated Free Energy of Binding    =  -14.23 kcal/mol  [=(1)+(2)+(3)-(4)]
DOCKED: USER    Estimated Inhibition Constant, Ki   =   37.00 pM (picomolar)  [Temperature = 298.15 K]
DOCKED: USER    
DOCKED: USER    (1) Final Intermolecular Energy     =  -17.21 kcal/mol
DOCKED: USER        vdW + Hbond + desolv Energy     =  -15.51 kcal/mol
DOCKED: USER        Electrostatic Energy            =   -1.70 kcal/mol
DOCKED: USER    (2) Final Total Internal Energy     =   -1.54 kcal/mol
DOCKED: USER    (3) Torsional Free Energy           =   +2.98 kcal/mol
DOCKED: USER    (4) Unbound System's Energy  [=(2)] =   -1.54 kcal/mol
DOCKED: USER    
DOCKED: USER    
DOCKED: USER    NEWDPF move heme_O2_opt.pdbqt
DOCKED: USER    NEWDPF about 8.287000 34.468000 -0.670000
DOCKED: USER    NEWDPF tran0 23.049986 6.743566 -3.371354
DOCKED: USER    NEWDPF quaternion0 0.492134 -0.160031 0.819599 0.245868
DOCKED: USER    NEWDPF axisangle0 0.507720 -0.165099 0.845555 151.533725
DOCKED: USER    NEWDPF quat0 0.507720 -0.165099 0.845555 151.533725
DOCKED: USER    NEWDPF dihe0 -58.05 -121.24 26.99 -57.74 -119.39 57.53 -39.88 72.79 -126.32 -163.64 
DOCKED: USER  keepresnum = 1 
DOCKED: USER  
DOCKED: REMARK  10 active torsions:
DOCKED: REMARK  status: ('A' for Active; 'I' for Inactive)
DOCKED: REMARK    1  A    between atoms: C_6  and  C_10 
DOCKED: REMARK    2  A    between atoms: C_10  and  C_11 
DOCKED: REMARK    3  A    between atoms: C_11  and  C_12 
DOCKED: REMARK    4  A    between atoms: C_12  and  O_14 
DOCKED: REMARK    5  A    between atoms: C_17  and  C_20 
DOCKED: REMARK    6  A    between atoms: C_24  and  C_27 
DOCKED: REMARK    7  A    between atoms: C_31  and  C_34 
DOCKED: REMARK    8  A    between atoms: C_34  and  C_35 
DOCKED: REMARK    9  A    between atoms: C_35  and  C_36 
DOCKED: REMARK   10  A    between atoms: C_36  and  O_38 
DOCKED: USER                              x       y       z     vdW  Elec       q    Type
DOCKED: USER                           _______ _______ _______ _____ _____    ______ ____
DOCKED: ROOT
DOCKED: ATOM      1  C   UNL d   1      23.228   7.310  -5.408 -0.24 +0.01    +0.064 A 
DOCKED: ATOM      2  C   UNL d   1      25.376   8.833  -1.456 -0.38 +0.00    +0.064 A 
DOCKED: ATOM      3  C   UNL d   1      22.825   5.767   1.224 -0.37 +0.00    +0.064 C 
DOCKED: ATOM      4  C   UNL d   1      20.953   3.857  -2.889 -0.37 +0.01    +0.064 A 
DOCKED: ATOM      5  C   UNL d   1      24.021   7.973  -4.552 -0.31 +0.01    +0.066 A 
DOCKED: ATOM      6  C   UNL d   1      24.911   8.982  -4.931 -0.39 -0.00    -0.021 A 
DOCKED: ATOM      7  C   UNL d   1      25.565   9.394  -3.794 -0.43 -0.00    -0.025 A 
DOCKED: ATOM      8  C   UNL d   1      25.022   8.659  -2.743 -0.37 +0.01    +0.066 A 
DOCKED: ATOM      9  C   UNL d   1      26.673  10.424  -3.757 -0.39 +0.01    +0.051 C 
DOCKED: ATOM     10  C   UNL d   1      24.826   8.108  -0.309 -0.35 +0.00    +0.066 A 
DOCKED: ATOM     11  C   UNL d   1      25.109   8.442   1.020 -0.38 -0.00    -0.021 A 
DOCKED: ATOM     12  C   UNL d   1      24.369   7.580   1.808 -0.40 +0.00    +0.000 A 
DOCKED: ATOM     13  C   UNL d   1      23.670   6.743   0.895 -0.23 +0.00    +0.070 A 
DOCKED: ATOM     14  C   UNL d   1      26.026   9.554   1.517 -0.47 +0.00    +0.052 C 
DOCKED: ATOM     15  C   UNL d   1      22.126   4.875   0.331 -0.39 +0.00    +0.066 A 
DOCKED: ATOM     16  C   UNL d   1      21.384   3.767   0.741 -0.53 -0.00    -0.021 A 
DOCKED: ATOM     17  C   UNL d   1      20.841   3.206  -0.415 -0.46 +0.00    +0.000 A 
DOCKED: ATOM     18  C   UNL d   1      21.297   4.026  -1.457 -0.36 +0.01    +0.070 A 
DOCKED: ATOM     19  C   UNL d   1      21.305   3.316   2.178 -0.38 -0.00    +0.052 C 
DOCKED: ATOM     20  C   UNL d   1      21.407   4.599  -3.918 -0.39 +0.01    +0.066 A 
DOCKED: ATOM     21  C   UNL d   1      21.033   4.403  -5.245 -0.41 -0.00    -0.025 A 
DOCKED: ATOM     22  C   UNL d   1      21.651   5.395  -5.973 -0.28 -0.00    -0.021 A 
DOCKED: ATOM     23  C   UNL d   1      22.395   6.151  -5.063 -0.23 +0.01    +0.066 A 
DOCKED: ATOM     24  C   UNL d   1      20.136   3.323  -5.790 -0.53 +0.01    +0.051 C 
DOCKED: ATOM     25  N   UNL d   1      24.118   7.738  -3.220 -0.23 -0.02    -0.248 N 
DOCKED: ATOM     26  N   UNL d   1      23.958   7.069  -0.391 -0.22 -0.01    -0.248 N 
DOCKED: ATOM     27  N   UNL d   1      22.135   4.988  -0.994 -0.20 -0.01    -0.248 N 
DOCKED: ATOM     28  N   UNL d   1      22.280   5.636  -3.821 -0.24 -0.03    -0.248 N 
DOCKED: ATOM     29 FE   UNL d   1      23.112   6.345  -2.118 -0.07 +0.00    +0.000 Fe
DOCKED: ATOM     30  O   UNL d   1      24.640   6.071  -2.232 -0.44 +0.00    +0.000 OA
DOCKED: ATOM     31  O   UNL d   1      23.622   4.870  -2.314 -0.79 +0.00    +0.000 OA
DOCKED: ENDROOT
DOCKED: BRANCH   6  32
DOCKED: ATOM     32  C   UNL d   1      25.237   9.449  -6.326 -0.36 +0.02    +0.052 C 
DOCKED: BRANCH  32  33
DOCKED: ATOM     33  C   UNL d   1      25.400   8.298  -7.313 -0.33 +0.07    +0.115 C 
DOCKED: BRANCH  33  34
DOCKED: ATOM     34  C   UNL d   1      24.745   8.582  -8.642 -0.22 +0.14    +0.139 C 
DOCKED: ATOM     35  O   UNL d   1      25.385   9.132  -9.525 +0.09 -1.07    -0.650 OA
DOCKED: BRANCH  34  36
DOCKED: ATOM     36  O   UNL d   1      23.454   8.267  -8.872 +0.04 -0.51    -0.776 OA
DOCKED: ATOM     37  H   UNL d   1      23.124   7.365  -8.782 +0.07 +0.10    +0.167 HD
DOCKED: ENDBRANCH  34  36
DOCKED: ENDBRANCH  33  34
DOCKED: ENDBRANCH  32  33
DOCKED: ENDBRANCH   6  32
DOCKED: BRANCH  22  38
DOCKED: ATOM     38  C   UNL d   1      21.576   5.562  -7.469 -0.27 +0.01    +0.052 C 
DOCKED: BRANCH  38  39
DOCKED: ATOM     39  C   UNL d   1      22.155   4.363  -8.218 -0.35 +0.03    +0.115 C 
DOCKED: BRANCH  39  40
DOCKED: ATOM     40  C   UNL d   1      23.473   4.678  -8.879 -0.31 +0.06    +0.139 C 
DOCKED: ATOM     41  O   UNL d   1      23.858   4.000  -9.817 -0.02 -0.29    -0.650 OA
DOCKED: BRANCH  40  42
DOCKED: ATOM     42  O   UNL d   1      24.215   5.731  -8.484 +0.06 -0.45    -0.776 OA
DOCKED: ATOM     43  H   UNL d   1      24.423   6.456  -9.086 +0.06 +0.18    +0.167 HD
DOCKED: ENDBRANCH  40  42
DOCKED: ENDBRANCH  39  40
DOCKED: ENDBRANCH  38  39
DOCKED: ENDBRANCH  22  38
DOCKED: BRANCH  12  44
DOCKED: ATOM     44  C   UNL d   1      24.407   7.641   3.321 -0.63 -0.00    +0.004 C 
DOCKED: ATOM     45  C   UNL d   1      24.107   6.674   4.187 -0.74 -0.00    +0.012 C 
DOCKED: ENDBRANCH  12  44
DOCKED: BRANCH  17  46
DOCKED: ATOM     46  C   UNL d   1      20.005   1.970  -0.615 -0.61 +0.00    +0.004 C 
DOCKED: ATOM     47  C   UNL d   1      20.348   0.694  -0.399 -0.75 -0.00    +0.012 C 
DOCKED: ENDBRANCH  17  46
DOCKED: TORSDOF 10
DOCKED: TER
DOCKED: ENDMDL
________________________________________________________________________________


	BEGINNING GENETIC ALGORITHM DOCKING 49 of 100
Run: 49 Seed: 1827105422 1237834901 [ Run 49 of 100 GA/GALS ]
Beginning LAMARCKIAN GENETIC ALGORITHM (LGA), with a maximum of 25000000 energy evaluations.

Final-Value: -19.540


	FINAL GENETIC ALGORITHM DOCKED STATE
	_______________________________________________


Detailed state:  trans 22.987 6.780 -3.395 quatxyzw -0.570677 0.101394 -0.788677 -0.205027 center 8.287 34.468 -0.670 ntor 10 131.7186 -78.7023 -1.4212 -112.5852 120.9106 146.0008 -60.8194 13.3924 -149.8940 175.1495
State:	 22.987   6.780  -3.395  -0.583  0.104 -0.806 -156.338    131.72  -78.70   -1.42 -112.59  120.91  146.00  -60.82   13.39 -149.89  175.15

DOCKED: MODEL       49
DOCKED: USER    Run = 49
DOCKED: USER    DPF = D:/Protein_go_brrr/autodock/final/1A3N/heme_O2/dock.dpf
DOCKED: USER  
DOCKED: USER    Estimated Free Energy of Binding    =  -14.41 kcal/mol  [=(1)+(2)+(3)-(4)]
DOCKED: USER    Estimated Inhibition Constant, Ki   =   27.27 pM (picomolar)  [Temperature = 298.15 K]
DOCKED: USER    
DOCKED: USER    (1) Final Intermolecular Energy     =  -17.40 kcal/mol
DOCKED: USER        vdW + Hbond + desolv Energy     =  -15.69 kcal/mol
DOCKED: USER        Electrostatic Energy            =   -1.70 kcal/mol
DOCKED: USER    (2) Final Total Internal Energy     =   -2.15 kcal/mol
DOCKED: USER    (3) Torsional Free Energy           =   +2.98 kcal/mol
DOCKED: USER    (4) Unbound System's Energy  [=(2)] =   -2.15 kcal/mol
DOCKED: USER    
DOCKED: USER    
DOCKED: USER    NEWDPF move heme_O2_opt.pdbqt
DOCKED: USER    NEWDPF about 8.287000 34.468000 -0.670000
DOCKED: USER    NEWDPF tran0 22.987034 6.780423 -3.395037
DOCKED: USER    NEWDPF quaternion0 -0.570677 0.101394 -0.788677 -0.205027
DOCKED: USER    NEWDPF axisangle0 -0.583063 0.103594 -0.805795 -156.337884
DOCKED: USER    NEWDPF quat0 -0.583063 0.103594 -0.805795 -156.337884
DOCKED: USER    NEWDPF dihe0 131.72 -78.70 -1.42 -112.59 120.91 146.00 -60.82 13.39 -149.89 175.15 
DOCKED: USER  keepresnum = 1 
DOCKED: USER  
DOCKED: REMARK  10 active torsions:
DOCKED: REMARK  status: ('A' for Active; 'I' for Inactive)
DOCKED: REMARK    1  A    between atoms: C_6  and  C_10 
DOCKED: REMARK    2  A    between atoms: C_10  and  C_11 
DOCKED: REMARK    3  A    between atoms: C_11  and  C_12 
DOCKED: REMARK    4  A    between atoms: C_12  and  O_14 
DOCKED: REMARK    5  A    between atoms: C_17  and  C_20 
DOCKED: REMARK    6  A    between atoms: C_24  and  C_27 
DOCKED: REMARK    7  A    between atoms: C_31  and  C_34 
DOCKED: REMARK    8  A    between atoms: C_34  and  C_35 
DOCKED: REMARK    9  A    between atoms: C_35  and  C_36 
DOCKED: REMARK   10  A    between atoms: C_36  and  O_38 
DOCKED: USER                              x       y       z     vdW  Elec       q    Type
DOCKED: USER                           _______ _______ _______ _____ _____    ______ ____
DOCKED: ROOT
DOCKED: ATOM      1  C   UNL d   1      22.853   7.003  -5.500 -0.26 +0.01    +0.064 A 
DOCKED: ATOM      2  C   UNL d   1      25.467   9.204  -2.201 -0.42 +0.01    +0.064 A 
DOCKED: ATOM      3  C   UNL d   1      23.450   6.577   1.281 -0.36 +0.00    +0.064 C 
DOCKED: ATOM      4  C   UNL d   1      21.103   3.975  -2.153 -0.37 +0.01    +0.064 A 
DOCKED: ATOM      5  C   UNL d   1      23.730   7.815  -4.887 -0.30 +0.01    +0.066 A 
DOCKED: ATOM      6  C   UNL d   1      24.514   8.764  -5.550 -0.36 -0.01    -0.021 A 
DOCKED: ATOM      7  C   UNL d   1      25.303   9.372  -4.601 -0.38 -0.00    -0.025 A 
DOCKED: ATOM      8  C   UNL d   1      24.944   8.811  -3.378 -0.38 +0.01    +0.066 A 
DOCKED: ATOM      9  C   UNL d   1      26.360  10.414  -4.893 -0.41 +0.01    +0.051 C 
DOCKED: ATOM     10  C   UNL d   1      25.115   8.669  -0.885 -0.37 +0.00    +0.066 A 
DOCKED: ATOM     11  C   UNL d   1      25.566   9.224   0.318 -0.38 -0.00    -0.021 A 
DOCKED: ATOM     12  C   UNL d   1      24.981   8.492   1.334 -0.39 +0.00    +0.000 A 
DOCKED: ATOM     13  C   UNL d   1      24.198   7.501   0.679 -0.34 +0.00    +0.070 A 
DOCKED: ATOM     14  C   UNL d   1      26.495  10.420   0.490 -0.55 +0.00    +0.052 C 
DOCKED: ATOM     15  C   UNL d   1      22.671   5.536   0.656 -0.31 +0.00    +0.066 A 
DOCKED: ATOM     16  C   UNL d   1      22.042   4.498   1.343 -0.53 -0.00    -0.021 A 
DOCKED: ATOM     17  C   UNL d   1      21.367   3.743   0.384 -0.50 +0.00    +0.000 A 
DOCKED: ATOM     18  C   UNL d   1      21.637   4.386  -0.832 -0.37 +0.00    +0.070 A 
DOCKED: ATOM     19  C   UNL d   1      22.185   4.290   2.829 -0.26 +0.00    +0.052 C 
DOCKED: ATOM     20  C   UNL d   1      21.377   4.543  -3.343 -0.38 +0.01    +0.066 A 
DOCKED: ATOM     21  C   UNL d   1      20.830   4.123  -4.552 -0.43 -0.00    -0.025 A 
DOCKED: ATOM     22  C   UNL d   1      21.296   4.992  -5.514 -0.33 -0.00    -0.021 A 
DOCKED: ATOM     23  C   UNL d   1      22.128   5.902  -4.855 -0.32 +0.01    +0.066 A 
DOCKED: ATOM     24  C   UNL d   1      19.912   2.950  -4.779 -0.48 +0.01    +0.051 C 
DOCKED: ATOM     25  N   UNL d   1      24.023   7.806  -3.563 -0.21 -0.02    -0.248 N 
DOCKED: ATOM     26  N   UNL d   1      24.288   7.614  -0.671 -0.23 -0.01    -0.248 N 
DOCKED: ATOM     27  N   UNL d   1      22.490   5.427  -0.658 -0.21 -0.01    -0.248 N 
DOCKED: ATOM     28  N   UNL d   1      22.210   5.599  -3.543 -0.25 -0.02    -0.248 N 
DOCKED: ATOM     29 FE   UNL d   1      23.241   6.597  -2.116 -0.07 +0.00    +0.000 Fe
DOCKED: ATOM     30  O   UNL d   1      24.748   6.337  -2.405 -0.41 +0.00    +0.000 OA
DOCKED: ATOM     31  O   UNL d   1      23.781   5.120  -2.143 -0.66 +0.00    +0.000 OA
DOCKED: ENDROOT
DOCKED: BRANCH   6  32
DOCKED: ATOM     32  C   UNL d   1      24.621   8.999  -7.034 -0.34 +0.02    +0.052 C 
DOCKED: BRANCH  32  33
DOCKED: ATOM     33  C   UNL d   1      25.252   7.824  -7.776 -0.29 +0.10    +0.115 C 
DOCKED: BRANCH  33  34
DOCKED: ATOM     34  C   UNL d   1      24.303   7.190  -8.762 -0.18 +0.14    +0.139 C 
DOCKED: ATOM     35  O   UNL d   1      23.102   7.211  -8.544 +0.01 -0.35    -0.650 OA
DOCKED: BRANCH  34  36
DOCKED: ATOM     36  O   UNL d   1      24.753   6.572  -9.874 -0.15 -1.40    -0.776 OA
DOCKED: ATOM     37  H   UNL d   1      24.442   5.697 -10.133 +0.06 +0.18    +0.167 HD
DOCKED: ENDBRANCH  34  36
DOCKED: ENDBRANCH  33  34
DOCKED: ENDBRANCH  32  33
DOCKED: ENDBRANCH   6  32
DOCKED: BRANCH  22  38
DOCKED: ATOM     38  C   UNL d   1      21.006   4.906  -6.990 -0.22 +0.01    +0.052 C 
DOCKED: BRANCH  38  39
DOCKED: ATOM     39  C   UNL d   1      21.928   3.923  -7.708 -0.39 +0.02    +0.115 C 
DOCKED: BRANCH  39  40
DOCKED: ATOM     40  C   UNL d   1      21.846   4.048  -9.209 -0.29 +0.05    +0.139 C 
DOCKED: ATOM     41  O   UNL d   1      20.833   3.698  -9.792 -0.28 -0.26    -0.650 OA
DOCKED: BRANCH  40  42
DOCKED: ATOM     42  O   UNL d   1      22.856   4.589  -9.918 +0.04 -0.33    -0.776 OA
DOCKED: ATOM     43  H   UNL d   1      23.005   5.542  -9.937 +0.06 +0.09    +0.167 HD
DOCKED: ENDBRANCH  40  42
DOCKED: ENDBRANCH  39  40
DOCKED: ENDBRANCH  38  39
DOCKED: ENDBRANCH  22  38
DOCKED: BRANCH  12  44
DOCKED: ATOM     44  C   UNL d   1      25.228   8.804   2.795 -0.55 +0.00    +0.004 C 
DOCKED: ATOM     45  C   UNL d   1      24.649   8.250   3.860 -0.67 -0.00    +0.012 C 
DOCKED: ENDBRANCH  12  44
DOCKED: BRANCH  17  46
DOCKED: ATOM     46  C   UNL d   1      20.565   2.475   0.509 -0.60 +0.00    +0.004 C 
DOCKED: ATOM     47  C   UNL d   1      20.792   1.289  -0.071 -0.70 +0.00    +0.012 C 
DOCKED: ENDBRANCH  17  46
DOCKED: TORSDOF 10
DOCKED: TER
DOCKED: ENDMDL
________________________________________________________________________________


	BEGINNING GENETIC ALGORITHM DOCKING 50 of 100
Run: 50 Seed: 899562133 2137680102 [ Run 50 of 100 GA/GALS ]
Beginning LAMARCKIAN GENETIC ALGORITHM (LGA), with a maximum of 25000000 energy evaluations.

Final-Value: -14.347


	FINAL GENETIC ALGORITHM DOCKED STATE
	_______________________________________________


Detailed state:  trans 2.121 -6.444 -6.315 quatxyzw 0.249863 -0.225624 0.859223 0.385224 center 8.287 34.468 -0.670 ntor 10 -143.2467 -16.6716 53.7931 -100.8434 168.0777 -40.7456 69.9098 164.5387 -128.0899 -9.9750
State:	  2.121  -6.444  -6.315   0.271 -0.244  0.931 134.685   -143.25  -16.67   53.79 -100.84  168.08  -40.75   69.91  164.54 -128.09   -9.97

DOCKED: MODEL       50
DOCKED: USER    Run = 50
DOCKED: USER    DPF = D:/Protein_go_brrr/autodock/final/1A3N/heme_O2/dock.dpf
DOCKED: USER  
DOCKED: USER    Estimated Free Energy of Binding    =  -10.62 kcal/mol  [=(1)+(2)+(3)-(4)]
DOCKED: USER    Estimated Inhibition Constant, Ki   =   16.47 nM (nanomolar)  [Temperature = 298.15 K]
DOCKED: USER    
DOCKED: USER    (1) Final Intermolecular Energy     =  -13.60 kcal/mol
DOCKED: USER        vdW + Hbond + desolv Energy     =  -12.01 kcal/mol
DOCKED: USER        Electrostatic Energy            =   -1.59 kcal/mol
DOCKED: USER    (2) Final Total Internal Energy     =   -0.75 kcal/mol
DOCKED: USER    (3) Torsional Free Energy           =   +2.98 kcal/mol
DOCKED: USER    (4) Unbound System's Energy  [=(2)] =   -0.75 kcal/mol
DOCKED: USER    
DOCKED: USER    
DOCKED: USER    NEWDPF move heme_O2_opt.pdbqt
DOCKED: USER    NEWDPF about 8.287000 34.468000 -0.670000
DOCKED: USER    NEWDPF tran0 2.120816 -6.443526 -6.315382
DOCKED: USER    NEWDPF quaternion0 0.249863 -0.225624 0.859223 0.385224
DOCKED: USER    NEWDPF axisangle0 0.270759 -0.244493 0.931081 134.684682
DOCKED: USER    NEWDPF quat0 0.270759 -0.244493 0.931081 134.684682
DOCKED: USER    NEWDPF dihe0 -143.25 -16.67 53.79 -100.84 168.08 -40.75 69.91 164.54 -128.09 -9.97 
DOCKED: USER  keepresnum = 1 
DOCKED: USER  
DOCKED: REMARK  10 active torsions:
DOCKED: REMARK  status: ('A' for Active; 'I' for Inactive)
DOCKED: REMARK    1  A    between atoms: C_6  and  C_10 
DOCKED: REMARK    2  A    between atoms: C_10  and  C_11 
DOCKED: REMARK    3  A    between atoms: C_11  and  C_12 
DOCKED: REMARK    4  A    between atoms: C_12  and  O_14 
DOCKED: REMARK    5  A    between atoms: C_17  and  C_20 
DOCKED: REMARK    6  A    between atoms: C_24  and  C_27 
DOCKED: REMARK    7  A    between atoms: C_31  and  C_34 
DOCKED: REMARK    8  A    between atoms: C_34  and  C_35 
DOCKED: REMARK    9  A    between atoms: C_35  and  C_36 
DOCKED: REMARK   10  A    between atoms: C_36  and  O_38 
DOCKED: USER                              x       y       z     vdW  Elec       q    Type
DOCKED: USER                           _______ _______ _______ _____ _____    ______ ____
DOCKED: ROOT
DOCKED: ATOM      1  C   UNL d   1       3.050  -5.201  -7.761 -0.27 +0.02    +0.064 A 
DOCKED: ATOM      2  C   UNL d   1       3.109  -5.195  -3.012 -0.23 +0.00    +0.064 A 
DOCKED: ATOM      3  C   UNL d   1       0.138  -8.970  -2.878 -0.46 +0.01    +0.064 C 
DOCKED: ATOM      4  C   UNL d   1       0.450  -9.284  -7.764 -0.18 +0.03    +0.064 A 
DOCKED: ATOM      5  C   UNL d   1       3.310  -4.892  -6.480 -0.30 +0.01    +0.066 A 
DOCKED: ATOM      6  C   UNL d   1       4.123  -3.827  -6.081 -0.44 -0.00    -0.021 A 
DOCKED: ATOM      7  C   UNL d   1       4.175  -3.851  -4.707 -0.45 -0.00    -0.025 A 
DOCKED: ATOM      8  C   UNL d   1       3.355  -4.900  -4.303 -0.30 +0.01    +0.066 A 
DOCKED: ATOM      9  C   UNL d   1       5.007  -2.916  -3.856 -0.51 +0.00    +0.051 C 
DOCKED: ATOM     10  C   UNL d   1       2.240  -6.268  -2.527 -0.20 +0.00    +0.066 A 
DOCKED: ATOM     11  C   UNL d   1       1.891  -6.427  -1.182 -0.34 -0.00    -0.021 A 
DOCKED: ATOM     12  C   UNL d   1       1.020  -7.500  -1.125 -0.38 +0.00    +0.000 A 
DOCKED: ATOM     13  C   UNL d   1       0.894  -7.952  -2.468 -0.31 +0.00    +0.070 A 
DOCKED: ATOM     14  C   UNL d   1       2.347  -5.574  -0.003 -0.43 +0.00    +0.052 C 
DOCKED: ATOM     15  C   UNL d   1       0.011  -9.480  -4.222 -0.33 +0.01    +0.066 A 
DOCKED: ATOM     16  C   UNL d   1      -0.668 -10.650  -4.562 -0.29 -0.00    -0.021 A 
DOCKED: ATOM     17  C   UNL d   1      -0.592 -10.761  -5.950 -0.22 +0.00    +0.000 A 
DOCKED: ATOM     18  C   UNL d   1       0.136  -9.634  -6.359 -0.22 +0.02    +0.070 A 
DOCKED: ATOM     19  C   UNL d   1      -1.274 -11.577  -3.538 -0.26 +0.00    +0.052 C 
DOCKED: ATOM     20  C   UNL d   1       1.181  -8.235  -8.188 -0.20 +0.03    +0.066 A 
DOCKED: ATOM     21  C   UNL d   1       1.428  -7.946  -9.527 -0.15 -0.01    -0.025 A 
DOCKED: ATOM     22  C   UNL d   1       2.145  -6.771  -9.546 -0.16 -0.01    -0.021 A 
DOCKED: ATOM     23  C   UNL d   1       2.325  -6.394  -8.212 -0.22 +0.03    +0.066 A 
DOCKED: ATOM     24  C   UNL d   1       1.005  -8.753 -10.727 -0.07 +0.02    +0.051 C 
DOCKED: ATOM     25  N   UNL d   1       2.874  -5.582  -5.398 -0.16 -0.06    -0.248 N 
DOCKED: ATOM     26  N   UNL d   1       1.644  -7.200  -3.314 -0.23 -0.02    -0.248 N 
DOCKED: ATOM     27  N   UNL d   1       0.557  -8.909  -5.292 -0.19 -0.06    -0.248 N 
DOCKED: ATOM     28  N   UNL d   1       1.776  -7.311  -7.388 -0.15 -0.10    -0.248 N 
DOCKED: ATOM     29 FE   UNL d   1       1.709  -7.258  -5.366 -0.07 +0.00    +0.000 Fe
DOCKED: ATOM     30  O   UNL d   1       3.167  -7.497  -4.876 -0.14 -0.00    +0.000 OA
DOCKED: ATOM     31  O   UNL d   1       2.460  -8.577  -5.779 -0.39 +0.00    +0.000 OA
DOCKED: ENDROOT
DOCKED: BRANCH   6  32
DOCKED: ATOM     32  C   UNL d   1       4.931  -2.904  -6.956 -0.44 +0.00    +0.052 C 
DOCKED: BRANCH  32  33
DOCKED: ATOM     33  C   UNL d   1       5.689  -3.643  -8.055 -0.38 +0.00    +0.115 C 
DOCKED: BRANCH  33  34
DOCKED: ATOM     34  C   UNL d   1       7.183  -3.599  -7.852 -0.44 -0.00    +0.139 C 
DOCKED: ATOM     35  O   UNL d   1       7.636  -3.302  -6.758 -0.01 +0.03    -0.650 OA
DOCKED: BRANCH  34  36
DOCKED: ATOM     36  O   UNL d   1       8.038  -3.855  -8.865 +0.02 +0.07    -0.776 OA
DOCKED: ATOM     37  H   UNL d   1       8.865  -4.332  -8.727 -0.45 -0.05    +0.167 HD
DOCKED: ENDBRANCH  34  36
DOCKED: ENDBRANCH  33  34
DOCKED: ENDBRANCH  32  33
DOCKED: ENDBRANCH   6  32
DOCKED: BRANCH  22  38
DOCKED: ATOM     38  C   UNL d   1       2.680  -6.088 -10.779 -0.10 +0.02    +0.052 C 
DOCKED: BRANCH  38  39
DOCKED: ATOM     39  C   UNL d   1       1.705  -5.056 -11.341 -0.10 +0.05    +0.115 C 
DOCKED: BRANCH  39  40
DOCKED: ATOM     40  C   UNL d   1       0.307  -5.230 -10.802 -0.13 +0.14    +0.139 C 
DOCKED: ATOM     41  O   UNL d   1      -0.111  -4.469  -9.945 -0.15 -0.92    -0.650 OA
DOCKED: BRANCH  40  42
DOCKED: ATOM     42  O   UNL d   1      -0.512  -6.182 -11.288 -0.28 -0.99    -0.776 OA
DOCKED: ATOM     43  H   UNL d   1      -0.316  -6.645 -12.112 +0.02 +0.12    +0.167 HD
DOCKED: ENDBRANCH  40  42
DOCKED: ENDBRANCH  39  40
DOCKED: ENDBRANCH  38  39
DOCKED: ENDBRANCH  22  38
DOCKED: BRANCH  12  44
DOCKED: ATOM     44  C   UNL d   1       0.414  -7.974   0.179 -0.42 +0.00    +0.004 C 
DOCKED: ATOM     45  C   UNL d   1       0.366  -9.218   0.654 -0.61 -0.00    +0.012 C 
DOCKED: ENDBRANCH  12  44
DOCKED: BRANCH  17  46
DOCKED: ATOM     46  C   UNL d   1      -1.081 -11.836  -6.884 -0.15 +0.00    +0.004 C 
DOCKED: ATOM     47  C   UNL d   1      -0.359 -12.740  -7.558 -0.11 +0.00    +0.012 C 
DOCKED: ENDBRANCH  17  46
DOCKED: TORSDOF 10
DOCKED: TER
DOCKED: ENDMDL
________________________________________________________________________________


	BEGINNING GENETIC ALGORITHM DOCKING 51 of 100
Run: 51 Seed: 55411723 46486892 [ Run 51 of 100 GA/GALS ]
Beginning LAMARCKIAN GENETIC ALGORITHM (LGA), with a maximum of 25000000 energy evaluations.

Final-Value: -13.662


	FINAL GENETIC ALGORITHM DOCKED STATE
	_______________________________________________


Detailed state:  trans 23.818 -5.776 34.383 quatxyzw 0.789135 -0.365915 -0.492461 -0.029242 center 8.287 34.468 -0.670 ntor 10 -118.7509 64.1784 -109.2422 160.8190 70.6309 119.7342 -130.3555 -125.0521 -4.5902 -3.0029
State:	 23.818  -5.776  34.383   0.789 -0.366 -0.493 -176.649   -118.75   64.18 -109.24  160.82   70.63  119.73 -130.36 -125.05   -4.59   -3.00

DOCKED: MODEL       51
DOCKED: USER    Run = 51
DOCKED: USER    DPF = D:/Protein_go_brrr/autodock/final/1A3N/heme_O2/dock.dpf
DOCKED: USER  
DOCKED: USER    Estimated Free Energy of Binding    =  -10.23 kcal/mol  [=(1)+(2)+(3)-(4)]
DOCKED: USER    Estimated Inhibition Constant, Ki   =   31.53 nM (nanomolar)  [Temperature = 298.15 K]
DOCKED: USER    
DOCKED: USER    (1) Final Intermolecular Energy     =  -13.22 kcal/mol
DOCKED: USER        vdW + Hbond + desolv Energy     =  -12.30 kcal/mol
DOCKED: USER        Electrostatic Energy            =   -0.91 kcal/mol
DOCKED: USER    (2) Final Total Internal Energy     =   -0.45 kcal/mol
DOCKED: USER    (3) Torsional Free Energy           =   +2.98 kcal/mol
DOCKED: USER    (4) Unbound System's Energy  [=(2)] =   -0.45 kcal/mol
DOCKED: USER    
DOCKED: USER    
DOCKED: USER    NEWDPF move heme_O2_opt.pdbqt
DOCKED: USER    NEWDPF about 8.287000 34.468000 -0.670000
DOCKED: USER    NEWDPF tran0 23.817609 -5.776398 34.382884
DOCKED: USER    NEWDPF quaternion0 0.789135 -0.365915 -0.492461 -0.029242
DOCKED: USER    NEWDPF axisangle0 0.789472 -0.366072 -0.492671 -176.648630
DOCKED: USER    NEWDPF quat0 0.789472 -0.366072 -0.492671 -176.648630
DOCKED: USER    NEWDPF dihe0 -118.75 64.18 -109.24 160.82 70.63 119.73 -130.36 -125.05 -4.59 -3.00 
DOCKED: USER  keepresnum = 1 
DOCKED: USER  
DOCKED: REMARK  10 active torsions:
DOCKED: REMARK  status: ('A' for Active; 'I' for Inactive)
DOCKED: REMARK    1  A    between atoms: C_6  and  C_10 
DOCKED: REMARK    2  A    between atoms: C_10  and  C_11 
DOCKED: REMARK    3  A    between atoms: C_11  and  C_12 
DOCKED: REMARK    4  A    between atoms: C_12  and  O_14 
DOCKED: REMARK    5  A    between atoms: C_17  and  C_20 
DOCKED: REMARK    6  A    between atoms: C_24  and  C_27 
DOCKED: REMARK    7  A    between atoms: C_31  and  C_34 
DOCKED: REMARK    8  A    between atoms: C_34  and  C_35 
DOCKED: REMARK    9  A    between atoms: C_35  and  C_36 
DOCKED: REMARK   10  A    between atoms: C_36  and  O_38 
DOCKED: USER                              x       y       z     vdW  Elec       q    Type
DOCKED: USER                           _______ _______ _______ _____ _____    ______ ____
DOCKED: ROOT
DOCKED: ATOM      1  C   UNL d   1      23.664  -5.334  36.452 -0.18 +0.02    +0.064 A 
DOCKED: ATOM      2  C   UNL d   1      22.490  -2.889  32.552 -0.45 +0.01    +0.064 A 
DOCKED: ATOM      3  C   UNL d   1      24.099  -6.434  29.734 -0.35 +0.00    +0.064 C 
DOCKED: ATOM      4  C   UNL d   1      24.871  -9.158  33.740 -0.27 +0.02    +0.064 A 
DOCKED: ATOM      5  C   UNL d   1      23.212  -4.380  35.621 -0.24 +0.01    +0.066 A 
DOCKED: ATOM      6  C   UNL d   1      22.679  -3.160  36.046 -0.25 -0.00    -0.021 A 
DOCKED: ATOM      7  C   UNL d   1      22.299  -2.470  34.919 -0.39 -0.00    -0.025 A 
DOCKED: ATOM      8  C   UNL d   1      22.654  -3.267  33.835 -0.40 +0.01    +0.066 A 
DOCKED: ATOM      9  C   UNL d   1      21.603  -1.126  34.921 -0.32 +0.00    +0.051 C 
DOCKED: ATOM     10  C   UNL d   1      22.865  -3.672  31.373 -0.41 +0.01    +0.066 A 
DOCKED: ATOM     11  C   UNL d   1      22.824  -3.166  30.069 -0.45 -0.00    -0.021 A 
DOCKED: ATOM     12  C   UNL d   1      23.301  -4.167  29.244 -0.44 +0.00    +0.000 A 
DOCKED: ATOM     13  C   UNL d   1      23.601  -5.256  30.109 -0.34 +0.00    +0.070 A 
DOCKED: ATOM     14  C   UNL d   1      22.374  -1.777  29.632 -0.57 +0.00    +0.052 C 
DOCKED: ATOM     15  C   UNL d   1      24.383  -7.572  30.574 +0.05 +0.00    +0.066 A 
DOCKED: ATOM     16  C   UNL d   1      24.748  -8.833  30.100 -0.39 -0.00    -0.021 A 
DOCKED: ATOM     17  C   UNL d   1      24.972  -9.627  31.225 -0.44 +0.00    +0.000 A 
DOCKED: ATOM     18  C   UNL d   1      24.727  -8.779  32.314 -0.36 +0.01    +0.070 A 
DOCKED: ATOM     19  C   UNL d   1      24.795  -9.178  28.633 -0.50 +0.00    +0.052 C 
DOCKED: ATOM     20  C   UNL d   1      24.602  -8.384  34.809 -0.24 +0.03    +0.066 A 
DOCKED: ATOM     21  C   UNL d   1      24.775  -8.791  36.130 -0.18 -0.02    -0.025 A 
DOCKED: ATOM     22  C   UNL d   1      24.461  -7.705  36.916 -0.18 -0.01    -0.021 A 
DOCKED: ATOM     23  C   UNL d   1      24.091  -6.677  36.043 -0.21 +0.03    +0.066 A 
DOCKED: ATOM     24  C   UNL d   1      25.212 -10.148  36.616 -0.15 +0.03    +0.051 C 
DOCKED: ATOM     25  N   UNL d   1      23.157  -4.471  34.270 -0.21 -0.04    -0.248 N 
DOCKED: ATOM     26  N   UNL d   1      23.328  -4.947  31.402 -0.25 -0.03    -0.248 N 
DOCKED: ATOM     27  N   UNL d   1      24.298  -7.560  31.901 -0.23 -0.02    -0.248 N 
DOCKED: ATOM     28  N   UNL d   1      24.134  -7.109  34.765 -0.17 -0.08    -0.248 N 
DOCKED: ATOM     29 FE   UNL d   1      23.735  -6.038  33.095 -0.08 +0.00    +0.000 Fe
DOCKED: ATOM     30  O   UNL d   1      22.199  -5.787  33.096 -0.35 +0.00    +0.000 OA
DOCKED: ATOM     31  O   UNL d   1      22.749  -7.263  33.117 -0.27 +0.00    +0.000 OA
DOCKED: ENDROOT
DOCKED: BRANCH   6  32
DOCKED: ATOM     32  C   UNL d   1      22.408  -2.714  37.460 -0.17 +0.01    +0.052 C 
DOCKED: BRANCH  32  33
DOCKED: ATOM     33  C   UNL d   1      23.664  -2.232  38.180 -0.13 +0.02    +0.115 C 
DOCKED: BRANCH  33  34
DOCKED: ATOM     34  C   UNL d   1      24.475  -1.274  37.343 -0.29 +0.01    +0.139 C 
DOCKED: ATOM     35  O   UNL d   1      25.217  -1.708  36.477 -0.06 -0.07    -0.650 OA
DOCKED: BRANCH  34  36
DOCKED: ATOM     36  O   UNL d   1      24.421   0.058  37.549 +0.03 +0.07    -0.776 OA
DOCKED: ATOM     37  H   UNL d   1      24.113   0.668  36.869 -0.48 -0.10    +0.167 HD
DOCKED: ENDBRANCH  34  36
DOCKED: ENDBRANCH  33  34
DOCKED: ENDBRANCH  32  33
DOCKED: ENDBRANCH   6  32
DOCKED: BRANCH  22  38
DOCKED: ATOM     38  C   UNL d   1      24.458  -7.683  38.422 -0.11 +0.03    +0.052 C 
DOCKED: BRANCH  38  39
DOCKED: ATOM     39  C   UNL d   1      25.734  -7.071  38.998 +0.13 +0.14    +0.115 C 
DOCKED: BRANCH  39  40
DOCKED: ATOM     40  C   UNL d   1      26.020  -5.701  38.437 -0.12 +0.13    +0.139 C 
DOCKED: ATOM     41  O   UNL d   1      26.782  -5.580  37.491 -0.10 -0.83    -0.650 OA
DOCKED: BRANCH  40  42
DOCKED: ATOM     42  O   UNL d   1      25.409  -4.606  38.928 +0.06 -0.35    -0.776 OA
DOCKED: ATOM     43  H   UNL d   1      25.580  -4.291  39.824 +0.03 +0.06    +0.167 HD
DOCKED: ENDBRANCH  40  42
DOCKED: ENDBRANCH  39  40
DOCKED: ENDBRANCH  38  39
DOCKED: ENDBRANCH  22  38
DOCKED: BRANCH  12  44
DOCKED: ATOM     44  C   UNL d   1      23.415  -3.987  27.745 -0.52 +0.00    +0.004 C 
DOCKED: ATOM     45  C   UNL d   1      24.221  -3.161  27.078 -0.57 +0.00    +0.012 C 
DOCKED: ENDBRANCH  12  44
DOCKED: BRANCH  17  46
DOCKED: ATOM     46  C   UNL d   1      25.330 -11.084  31.350 -0.39 +0.00    +0.004 C 
DOCKED: ATOM     47  C   UNL d   1      25.978 -11.694  32.350 -0.39 +0.00    +0.012 C 
DOCKED: ENDBRANCH  17  46
DOCKED: TORSDOF 10
DOCKED: TER
DOCKED: ENDMDL
________________________________________________________________________________


	BEGINNING GENETIC ALGORITHM DOCKING 52 of 100
Run: 52 Seed: 1794419898 1389930116 [ Run 52 of 100 GA/GALS ]
Beginning LAMARCKIAN GENETIC ALGORITHM (LGA), with a maximum of 25000000 energy evaluations.

Final-Value: -19.912


	FINAL GENETIC ALGORITHM DOCKED STATE
	_______________________________________________


Detailed state:  trans 22.850 6.500 -3.724 quatxyzw -0.522096 0.124740 -0.813326 -0.224403 center 8.287 34.468 -0.670 ntor 10 108.6753 -82.9925 21.0765 -40.3253 -30.6322 75.7267 55.6023 52.6643 -40.1877 -164.6216
State:	 22.850   6.500  -3.724  -0.536  0.128 -0.835 -154.064    108.68  -82.99   21.08  -40.33  -30.63   75.73   55.60   52.66  -40.19 -164.62

DOCKED: MODEL       52
DOCKED: USER    Run = 52
DOCKED: USER    DPF = D:/Protein_go_brrr/autodock/final/1A3N/heme_O2/dock.dpf
DOCKED: USER  
DOCKED: USER    Estimated Free Energy of Binding    =  -15.02 kcal/mol  [=(1)+(2)+(3)-(4)]
DOCKED: USER    Estimated Inhibition Constant, Ki   =    9.74 pM (picomolar)  [Temperature = 298.15 K]
DOCKED: USER    
DOCKED: USER    (1) Final Intermolecular Energy     =  -18.01 kcal/mol
DOCKED: USER        vdW + Hbond + desolv Energy     =  -16.24 kcal/mol
DOCKED: USER        Electrostatic Energy            =   -1.76 kcal/mol
DOCKED: USER    (2) Final Total Internal Energy     =   -1.91 kcal/mol
DOCKED: USER    (3) Torsional Free Energy           =   +2.98 kcal/mol
DOCKED: USER    (4) Unbound System's Energy  [=(2)] =   -1.91 kcal/mol
DOCKED: USER    
DOCKED: USER    
DOCKED: USER    NEWDPF move heme_O2_opt.pdbqt
DOCKED: USER    NEWDPF about 8.287000 34.468000 -0.670000
DOCKED: USER    NEWDPF tran0 22.849968 6.500122 -3.724434
DOCKED: USER    NEWDPF quaternion0 -0.522096 0.124740 -0.813326 -0.224403
DOCKED: USER    NEWDPF axisangle0 -0.535760 0.128005 -0.834611 -154.064457
DOCKED: USER    NEWDPF quat0 -0.535760 0.128005 -0.834611 -154.064457
DOCKED: USER    NEWDPF dihe0 108.68 -82.99 21.08 -40.33 -30.63 75.73 55.60 52.66 -40.19 -164.62 
DOCKED: USER  keepresnum = 1 
DOCKED: USER  
DOCKED: REMARK  10 active torsions:
DOCKED: REMARK  status: ('A' for Active; 'I' for Inactive)
DOCKED: REMARK    1  A    between atoms: C_6  and  C_10 
DOCKED: REMARK    2  A    between atoms: C_10  and  C_11 
DOCKED: REMARK    3  A    between atoms: C_11  and  C_12 
DOCKED: REMARK    4  A    between atoms: C_12  and  O_14 
DOCKED: REMARK    5  A    between atoms: C_17  and  C_20 
DOCKED: REMARK    6  A    between atoms: C_24  and  C_27 
DOCKED: REMARK    7  A    between atoms: C_31  and  C_34 
DOCKED: REMARK    8  A    between atoms: C_34  and  C_35 
DOCKED: REMARK    9  A    between atoms: C_35  and  C_36 
DOCKED: REMARK   10  A    between atoms: C_36  and  O_38 
DOCKED: USER                              x       y       z     vdW  Elec       q    Type
DOCKED: USER                           _______ _______ _______ _____ _____    ______ ____
DOCKED: ROOT
DOCKED: ATOM      1  C   UNL d   1      22.929   6.879  -5.810 -0.15 +0.01    +0.064 A 
DOCKED: ATOM      2  C   UNL d   1      25.229   8.781  -2.115 -0.38 +0.01    +0.064 A 
DOCKED: ATOM      3  C   UNL d   1      22.842   5.947   0.947 -0.40 +0.00    +0.064 C 
DOCKED: ATOM      4  C   UNL d   1      20.818   3.649  -2.886 -0.35 +0.01    +0.064 A 
DOCKED: ATOM      5  C   UNL d   1      23.751   7.626  -5.055 -0.18 +0.01    +0.066 A 
DOCKED: ATOM      6  C   UNL d   1      24.608   8.605  -5.565 -0.36 -0.01    -0.021 A 
DOCKED: ATOM      7  C   UNL d   1      25.306   9.126  -4.500 -0.41 -0.00    -0.025 A 
DOCKED: ATOM      8  C   UNL d   1      24.821   8.485  -3.364 -0.37 +0.01    +0.066 A 
DOCKED: ATOM      9  C   UNL d   1      26.400  10.166  -4.608 -0.45 +0.01    +0.051 C 
DOCKED: ATOM     10  C   UNL d   1      24.740   8.158  -0.883 -0.36 +0.00    +0.066 A 
DOCKED: ATOM     11  C   UNL d   1      25.077   8.615   0.395 -0.34 -0.00    -0.021 A 
DOCKED: ATOM     12  C   UNL d   1      24.384   7.822   1.292 -0.40 +0.00    +0.000 A 
DOCKED: ATOM     13  C   UNL d   1      23.658   6.898   0.491 -0.31 +0.00    +0.070 A 
DOCKED: ATOM     14  C   UNL d   1      25.999   9.777   0.747 -0.46 +0.00    +0.052 C 
DOCKED: ATOM     15  C   UNL d   1      22.117   4.970   0.171 -0.38 +0.00    +0.066 A 
DOCKED: ATOM     16  C   UNL d   1      21.410   3.897   0.714 -0.52 -0.00    -0.021 A 
DOCKED: ATOM     17  C   UNL d   1      20.824   3.227  -0.360 -0.46 +0.00    +0.000 A 
DOCKED: ATOM     18  C   UNL d   1      21.222   3.952  -1.492 -0.37 +0.01    +0.070 A 
DOCKED: ATOM     19  C   UNL d   1      21.401   3.579   2.188 -0.51 -0.00    +0.052 C 
DOCKED: ATOM     20  C   UNL d   1      21.215   4.297  -3.998 -0.37 +0.01    +0.066 A 
DOCKED: ATOM     21  C   UNL d   1      20.786   3.977  -5.283 -0.43 -0.00    -0.025 A 
DOCKED: ATOM     22  C   UNL d   1      21.356   4.904  -6.126 -0.33 -0.00    -0.021 A 
DOCKED: ATOM     23  C   UNL d   1      22.130   5.748  -5.323 -0.30 +0.01    +0.066 A 
DOCKED: ATOM     24  C   UNL d   1      19.881   2.842  -5.686 -0.53 +0.00    +0.051 C 
DOCKED: ATOM     25  N   UNL d   1      23.910   7.515  -3.713 -0.21 -0.02    -0.248 N 
DOCKED: ATOM     26  N   UNL d   1      23.884   7.107  -0.831 -0.22 -0.01    -0.248 N 
DOCKED: ATOM     27  N   UNL d   1      22.066   4.961  -1.158 -0.21 -0.02    -0.248 N 
DOCKED: ATOM     28  N   UNL d   1      22.077   5.348  -4.036 -0.26 -0.03    -0.248 N 
DOCKED: ATOM     29 FE   UNL d   1      22.973   6.219  -2.444 -0.07 +0.00    +0.000 Fe
DOCKED: ATOM     30  O   UNL d   1      24.498   5.951  -2.602 -0.45 +0.00    +0.000 OA
DOCKED: ATOM     31  O   UNL d   1      23.495   4.738  -2.527 -0.81 +0.00    +0.000 OA
DOCKED: ENDROOT
DOCKED: BRANCH   6  32
DOCKED: ATOM     32  C   UNL d   1      24.865   8.945  -7.010 -0.35 +0.02    +0.052 C 
DOCKED: BRANCH  32  33
DOCKED: ATOM     33  C   UNL d   1      23.587   9.007  -7.840 -0.21 +0.05    +0.115 C 
DOCKED: BRANCH  33  34
DOCKED: ATOM     34  C   UNL d   1      23.655   8.131  -9.067 -0.20 +0.11    +0.139 C 
DOCKED: ATOM     35  O   UNL d   1      22.690   8.058  -9.811 +0.01 -0.38    -0.650 OA
DOCKED: BRANCH  34  36
DOCKED: ATOM     36  O   UNL d   1      24.752   7.399  -9.348 -0.33 -1.32    -0.776 OA
DOCKED: ATOM     37  H   UNL d   1      24.760   6.438  -9.268 +0.05 +0.23    +0.167 HD
DOCKED: ENDBRANCH  34  36
DOCKED: ENDBRANCH  33  34
DOCKED: ENDBRANCH  32  33
DOCKED: ENDBRANCH   6  32
DOCKED: BRANCH  22  38
DOCKED: ATOM     38  C   UNL d   1      21.213   4.932  -7.626 -0.22 +0.01    +0.052 C 
DOCKED: BRANCH  38  39
DOCKED: ATOM     39  C   UNL d   1      21.797   3.687  -8.290 -0.38 +0.03    +0.115 C 
DOCKED: BRANCH  39  40
DOCKED: ATOM     40  C   UNL d   1      22.759   4.023  -9.402 -0.30 +0.05    +0.139 C 
DOCKED: ATOM     41  O   UNL d   1      22.749   3.367 -10.431 -0.46 -0.27    -0.650 OA
DOCKED: BRANCH  40  42
DOCKED: ATOM     42  O   UNL d   1      23.599   5.071  -9.301 +0.05 -0.40    -0.776 OA
DOCKED: ATOM     43  H   UNL d   1      23.305   5.973  -9.475 +0.07 +0.10    +0.167 HD
DOCKED: ENDBRANCH  40  42
DOCKED: ENDBRANCH  39  40
DOCKED: ENDBRANCH  38  39
DOCKED: ENDBRANCH  22  38
DOCKED: BRANCH  12  44
DOCKED: ATOM     44  C   UNL d   1      24.488   8.023   2.789 -0.56 -0.00    +0.004 C 
DOCKED: ATOM     45  C   UNL d   1      24.139   7.173   3.755 -0.70 -0.00    +0.012 C 
DOCKED: ENDBRANCH  12  44
DOCKED: BRANCH  17  46
DOCKED: ATOM     46  C   UNL d   1      19.998   1.970  -0.409 -0.61 +0.00    +0.004 C 
DOCKED: ATOM     47  C   UNL d   1      20.240   0.796   0.189 -0.76 -0.00    +0.012 C 
DOCKED: ENDBRANCH  17  46
DOCKED: TORSDOF 10
DOCKED: TER
DOCKED: ENDMDL
________________________________________________________________________________


	BEGINNING GENETIC ALGORITHM DOCKING 53 of 100
Run: 53 Seed: 203367393 2032624471 [ Run 53 of 100 GA/GALS ]
Beginning LAMARCKIAN GENETIC ALGORITHM (LGA), with a maximum of 25000000 energy evaluations.

Final-Value: -19.720


	FINAL GENETIC ALGORITHM DOCKED STATE
	_______________________________________________


Detailed state:  trans 23.182 6.751 -3.466 quatxyzw 0.485423 -0.139238 0.830876 0.233716 center 8.287 34.468 -0.670 ntor 10 -41.0302 -132.2706 32.2034 -62.4801 94.5660 -174.0298 5.0372 56.8527 -20.6898 135.4644
State:	 23.182   6.751  -3.466   0.499 -0.143  0.855 152.968    -41.03 -132.27   32.20  -62.48   94.57 -174.03    5.04   56.85  -20.69  135.46

DOCKED: MODEL       53
DOCKED: USER    Run = 53
DOCKED: USER    DPF = D:/Protein_go_brrr/autodock/final/1A3N/heme_O2/dock.dpf
DOCKED: USER  
DOCKED: USER    Estimated Free Energy of Binding    =  -14.55 kcal/mol  [=(1)+(2)+(3)-(4)]
DOCKED: USER    Estimated Inhibition Constant, Ki   =   21.53 pM (picomolar)  [Temperature = 298.15 K]
DOCKED: USER    
DOCKED: USER    (1) Final Intermolecular Energy     =  -17.54 kcal/mol
DOCKED: USER        vdW + Hbond + desolv Energy     =  -15.76 kcal/mol
DOCKED: USER        Electrostatic Energy            =   -1.77 kcal/mol
DOCKED: USER    (2) Final Total Internal Energy     =   -2.18 kcal/mol
DOCKED: USER    (3) Torsional Free Energy           =   +2.98 kcal/mol
DOCKED: USER    (4) Unbound System's Energy  [=(2)] =   -2.18 kcal/mol
DOCKED: USER    
DOCKED: USER    
DOCKED: USER    NEWDPF move heme_O2_opt.pdbqt
DOCKED: USER    NEWDPF about 8.287000 34.468000 -0.670000
DOCKED: USER    NEWDPF tran0 23.181960 6.750500 -3.465581
DOCKED: USER    NEWDPF quaternion0 0.485423 -0.139238 0.830876 0.233716
DOCKED: USER    NEWDPF axisangle0 0.499249 -0.143204 0.854542 152.968083
DOCKED: USER    NEWDPF quat0 0.499249 -0.143204 0.854542 152.968083
DOCKED: USER    NEWDPF dihe0 -41.03 -132.27 32.20 -62.48 94.57 -174.03 5.04 56.85 -20.69 135.46 
DOCKED: USER  keepresnum = 1 
DOCKED: USER  
DOCKED: REMARK  10 active torsions:
DOCKED: REMARK  status: ('A' for Active; 'I' for Inactive)
DOCKED: REMARK    1  A    between atoms: C_6  and  C_10 
DOCKED: REMARK    2  A    between atoms: C_10  and  C_11 
DOCKED: REMARK    3  A    between atoms: C_11  and  C_12 
DOCKED: REMARK    4  A    between atoms: C_12  and  O_14 
DOCKED: REMARK    5  A    between atoms: C_17  and  C_20 
DOCKED: REMARK    6  A    between atoms: C_24  and  C_27 
DOCKED: REMARK    7  A    between atoms: C_31  and  C_34 
DOCKED: REMARK    8  A    between atoms: C_34  and  C_35 
DOCKED: REMARK    9  A    between atoms: C_35  and  C_36 
DOCKED: REMARK   10  A    between atoms: C_36  and  O_38 
DOCKED: USER                              x       y       z     vdW  Elec       q    Type
DOCKED: USER                           _______ _______ _______ _____ _____    ______ ____
DOCKED: ROOT
DOCKED: ATOM      1  C   UNL d   1      23.421   7.220  -5.520 -0.18 +0.01    +0.064 A 
DOCKED: ATOM      2  C   UNL d   1      25.470   8.912  -1.583 -0.39 +0.01    +0.064 A 
DOCKED: ATOM      3  C   UNL d   1      22.820   5.989   1.162 -0.41 +0.00    +0.064 C 
DOCKED: ATOM      4  C   UNL d   1      21.050   3.904  -2.910 -0.37 +0.01    +0.064 A 
DOCKED: ATOM      5  C   UNL d   1      24.196   7.917  -4.673 -0.32 +0.01    +0.066 A 
DOCKED: ATOM      6  C   UNL d   1      25.104   8.902  -5.073 -0.39 -0.00    -0.021 A 
DOCKED: ATOM      7  C   UNL d   1      25.729   9.362  -3.938 -0.44 -0.00    -0.025 A 
DOCKED: ATOM      8  C   UNL d   1      25.151   8.680  -2.871 -0.38 +0.01    +0.066 A 
DOCKED: ATOM      9  C   UNL d   1      26.843  10.386  -3.917 -0.34 +0.00    +0.051 C 
DOCKED: ATOM     10  C   UNL d   1      24.882   8.244  -0.420 -0.35 +0.00    +0.066 A 
DOCKED: ATOM     11  C   UNL d   1      25.130   8.638   0.899 -0.32 -0.00    -0.021 A 
DOCKED: ATOM     12  C   UNL d   1      24.360   7.818   1.705 -0.42 +0.00    +0.000 A 
DOCKED: ATOM     13  C   UNL d   1      23.681   6.944   0.812 -0.29 +0.00    +0.070 A 
DOCKED: ATOM     14  C   UNL d   1      26.041   9.765   1.371 -0.48 +0.00    +0.052 C 
DOCKED: ATOM     15  C   UNL d   1      22.139   5.062   0.292 -0.39 +0.00    +0.066 A 
DOCKED: ATOM     16  C   UNL d   1      21.377   3.979   0.731 -0.53 -0.00    -0.021 A 
DOCKED: ATOM     17  C   UNL d   1      20.863   3.369  -0.413 -0.45 +0.00    +0.000 A 
DOCKED: ATOM     18  C   UNL d   1      21.354   4.136  -1.479 -0.36 +0.01    +0.070 A 
DOCKED: ATOM     19  C   UNL d   1      21.255   3.595   2.184 -0.45 -0.00    +0.052 C 
DOCKED: ATOM     20  C   UNL d   1      21.538   4.593  -3.959 -0.38 +0.01    +0.066 A 
DOCKED: ATOM     21  C   UNL d   1      21.201   4.339  -5.286 -0.40 -0.00    -0.025 A 
DOCKED: ATOM     22  C   UNL d   1      21.846   5.292  -6.041 -0.33 -0.00    -0.021 A 
DOCKED: ATOM     23  C   UNL d   1      22.571   6.084  -5.146 -0.14 +0.01    +0.066 A 
DOCKED: ATOM     24  C   UNL d   1      20.310   3.240  -5.806 -0.51 +0.01    +0.051 C 
DOCKED: ATOM     25  N   UNL d   1      24.253   7.744  -3.330 -0.23 -0.02    -0.248 N 
DOCKED: ATOM     26  N   UNL d   1      24.008   7.208  -0.479 -0.22 -0.01    -0.248 N 
DOCKED: ATOM     27  N   UNL d   1      22.187   5.113  -1.037 -0.20 -0.01    -0.248 N 
DOCKED: ATOM     28  N   UNL d   1      22.417   5.628  -3.886 -0.24 -0.03    -0.248 N 
DOCKED: ATOM     29 FE   UNL d   1      23.205   6.410  -2.193 -0.07 +0.00    +0.000 Fe
DOCKED: ATOM     30  O   UNL d   1      24.733   6.121  -2.252 -0.43 +0.00    +0.000 OA
DOCKED: ATOM     31  O   UNL d   1      23.710   4.925  -2.307 -0.78 +0.00    +0.000 OA
DOCKED: ENDROOT
DOCKED: BRANCH   6  32
DOCKED: ATOM     32  C   UNL d   1      25.472   9.302  -6.479 -0.38 +0.02    +0.052 C 
DOCKED: BRANCH  32  33
DOCKED: ATOM     33  C   UNL d   1      24.295   9.879  -7.259 -0.23 +0.05    +0.115 C 
DOCKED: BRANCH  33  34
DOCKED: ATOM     34  C   UNL d   1      24.658  10.212  -8.684 -0.21 +0.09    +0.139 C 
DOCKED: ATOM     35  O   UNL d   1      25.585  10.974  -8.909 -0.02 -0.39    -0.650 OA
DOCKED: BRANCH  34  36
DOCKED: ATOM     36  O   UNL d   1      23.960   9.709  -9.724 +0.02 -0.58    -0.776 OA
DOCKED: ATOM     37  H   UNL d   1      23.653   8.795  -9.738 +0.04 +0.14    +0.167 HD
DOCKED: ENDBRANCH  34  36
DOCKED: ENDBRANCH  33  34
DOCKED: ENDBRANCH  32  33
DOCKED: ENDBRANCH   6  32
DOCKED: BRANCH  22  38
DOCKED: ATOM     38  C   UNL d   1      21.815   5.389  -7.545 -0.31 +0.01    +0.052 C 
DOCKED: BRANCH  38  39
DOCKED: ATOM     39  C   UNL d   1      23.212   5.334  -8.160 -0.26 +0.04    +0.115 C 
DOCKED: BRANCH  39  40
DOCKED: ATOM     40  C   UNL d   1      23.503   6.527  -9.037 -0.21 +0.09    +0.139 C 
DOCKED: ATOM     41  O   UNL d   1      22.589   7.088  -9.620 +0.02 -0.35    -0.650 OA
DOCKED: BRANCH  40  42
DOCKED: ATOM     42  O   UNL d   1      24.751   7.019  -9.150 -0.43 -1.16    -0.776 OA
DOCKED: ATOM     43  H   UNL d   1      24.936   7.958  -9.030 +0.05 +0.27    +0.167 HD
DOCKED: ENDBRANCH  40  42
DOCKED: ENDBRANCH  39  40
DOCKED: ENDBRANCH  38  39
DOCKED: ENDBRANCH  22  38
DOCKED: BRANCH  12  44
DOCKED: ATOM     44  C   UNL d   1      24.356   7.949   3.214 -0.61 -0.00    +0.004 C 
DOCKED: ATOM     45  C   UNL d   1      24.116   7.000   4.117 -0.75 -0.00    +0.012 C 
DOCKED: ENDBRANCH  12  44
DOCKED: BRANCH  17  46
DOCKED: ATOM     46  C   UNL d   1      20.023   2.130  -0.580 -0.57 +0.00    +0.004 C 
DOCKED: ATOM     47  C   UNL d   1      20.378   0.855  -0.377 -0.76 -0.00    +0.012 C 
DOCKED: ENDBRANCH  17  46
DOCKED: TORSDOF 10
DOCKED: TER
DOCKED: ENDMDL
________________________________________________________________________________


	BEGINNING GENETIC ALGORITHM DOCKING 54 of 100
Run: 54 Seed: 1237922366 443500233 [ Run 54 of 100 GA/GALS ]
Beginning LAMARCKIAN GENETIC ALGORITHM (LGA), with a maximum of 25000000 energy evaluations.

Final-Value: -19.454


	FINAL GENETIC ALGORITHM DOCKED STATE
	_______________________________________________


Detailed state:  trans 8.477 11.768 28.645 quatxyzw -0.736466 0.356861 0.571820 0.057358 center 8.287 34.468 -0.670 ntor 10 -144.8666 113.0424 -13.4728 -109.6900 -34.5197 -32.1474 -77.6714 74.6904 -179.9587 -164.0574
State:	  8.477  11.768  28.645  -0.738  0.357  0.573 173.424   -144.87  113.04  -13.47 -109.69  -34.52  -32.15  -77.67   74.69 -179.96 -164.06

DOCKED: MODEL       54
DOCKED: USER    Run = 54
DOCKED: USER    DPF = D:/Protein_go_brrr/autodock/final/1A3N/heme_O2/dock.dpf
DOCKED: USER  
DOCKED: USER    Estimated Free Energy of Binding    =  -14.51 kcal/mol  [=(1)+(2)+(3)-(4)]
DOCKED: USER    Estimated Inhibition Constant, Ki   =   22.93 pM (picomolar)  [Temperature = 298.15 K]
DOCKED: USER    
DOCKED: USER    (1) Final Intermolecular Energy     =  -17.50 kcal/mol
DOCKED: USER        vdW + Hbond + desolv Energy     =  -15.75 kcal/mol
DOCKED: USER        Electrostatic Energy            =   -1.75 kcal/mol
DOCKED: USER    (2) Final Total Internal Energy     =   -1.96 kcal/mol
DOCKED: USER    (3) Torsional Free Energy           =   +2.98 kcal/mol
DOCKED: USER    (4) Unbound System's Energy  [=(2)] =   -1.96 kcal/mol
DOCKED: USER    
DOCKED: USER    
DOCKED: USER    NEWDPF move heme_O2_opt.pdbqt
DOCKED: USER    NEWDPF about 8.287000 34.468000 -0.670000
DOCKED: USER    NEWDPF tran0 8.477424 11.767819 28.645185
DOCKED: USER    NEWDPF quaternion0 -0.736466 0.356861 0.571820 0.057358
DOCKED: USER    NEWDPF axisangle0 -0.737681 0.357449 0.572763 173.423618
DOCKED: USER    NEWDPF quat0 -0.737681 0.357449 0.572763 173.423618
DOCKED: USER    NEWDPF dihe0 -144.87 113.04 -13.47 -109.69 -34.52 -32.15 -77.67 74.69 -179.96 -164.06 
DOCKED: USER  keepresnum = 1 
DOCKED: USER  
DOCKED: REMARK  10 active torsions:
DOCKED: REMARK  status: ('A' for Active; 'I' for Inactive)
DOCKED: REMARK    1  A    between atoms: C_6  and  C_10 
DOCKED: REMARK    2  A    between atoms: C_10  and  C_11 
DOCKED: REMARK    3  A    between atoms: C_11  and  C_12 
DOCKED: REMARK    4  A    between atoms: C_12  and  O_14 
DOCKED: REMARK    5  A    between atoms: C_17  and  C_20 
DOCKED: REMARK    6  A    between atoms: C_24  and  C_27 
DOCKED: REMARK    7  A    between atoms: C_31  and  C_34 
DOCKED: REMARK    8  A    between atoms: C_34  and  C_35 
DOCKED: REMARK    9  A    between atoms: C_35  and  C_36 
DOCKED: REMARK   10  A    between atoms: C_36  and  O_38 
DOCKED: USER                              x       y       z     vdW  Elec       q    Type
DOCKED: USER                           _______ _______ _______ _____ _____    ______ ____
DOCKED: ROOT
DOCKED: ATOM      1  C   UNL d   1       8.736  12.170  30.712 -0.27 +0.02    +0.064 A 
DOCKED: ATOM      2  C   UNL d   1       6.824  14.689  27.168 -0.40 +0.01    +0.064 A 
DOCKED: ATOM      3  C   UNL d   1       7.834  11.202  24.020 -0.33 +0.00    +0.064 C 
DOCKED: ATOM      4  C   UNL d   1       9.373   8.400  27.742 -0.38 +0.01    +0.064 A 
DOCKED: ATOM      5  C   UNL d   1       8.132  13.139  30.005 -0.21 +0.02    +0.066 A 
DOCKED: ATOM      6  C   UNL d   1       7.697  14.350  30.551 -0.32 -0.01    -0.021 A 
DOCKED: ATOM      7  C   UNL d   1       7.104  15.062  29.535 -0.38 -0.01    -0.025 A 
DOCKED: ATOM      8  C   UNL d   1       7.237  14.287  28.386 -0.36 +0.01    +0.066 A 
DOCKED: ATOM      9  C   UNL d   1       6.427  16.405  29.700 -0.42 +0.01    +0.051 C 
DOCKED: ATOM     10  C   UNL d   1       6.956  13.930  25.924 -0.36 +0.01    +0.066 A 
DOCKED: ATOM     11  C   UNL d   1       6.660  14.461  24.664 -0.40 -0.00    -0.021 A 
DOCKED: ATOM     12  C   UNL d   1       6.962  13.477  23.741 -0.35 +0.00    +0.000 A 
DOCKED: ATOM     13  C   UNL d   1       7.424  12.372  24.509 -0.35 +0.00    +0.070 A 
DOCKED: ATOM     14  C   UNL d   1       6.138  15.858  24.351 -0.53 +0.00    +0.052 C 
DOCKED: ATOM     15  C   UNL d   1       8.275  10.047  24.765 -0.36 +0.00    +0.066 A 
DOCKED: ATOM     16  C   UNL d   1       8.535   8.797  24.205 -0.52 -0.00    -0.021 A 
DOCKED: ATOM     17  C   UNL d   1       8.974   7.981  25.247 -0.49 +0.00    +0.000 A 
DOCKED: ATOM     18  C   UNL d   1       8.951   8.806  26.380 -0.38 +0.01    +0.070 A 
DOCKED: ATOM     19  C   UNL d   1       8.291   8.480  22.751 -0.53 +0.00    +0.052 C 
DOCKED: ATOM     20  C   UNL d   1       9.323   9.152  28.858 -0.40 +0.01    +0.066 A 
DOCKED: ATOM     21  C   UNL d   1       9.751   8.721  30.110 -0.42 -0.01    -0.025 A 
DOCKED: ATOM     22  C   UNL d   1       9.602   9.791  30.963 -0.39 -0.01    -0.021 A 
DOCKED: ATOM     23  C   UNL d   1       9.070  10.835  30.201 -0.31 +0.02    +0.066 A 
DOCKED: ATOM     24  C   UNL d   1      10.272   7.355  30.475 -0.08 +0.01    +0.051 C 
DOCKED: ATOM     25  N   UNL d   1       7.811  13.075  28.690 -0.17 -0.04    -0.248 N 
DOCKED: ATOM     26  N   UNL d   1       7.413  12.655  25.836 -0.23 -0.01    -0.248 N 
DOCKED: ATOM     27  N   UNL d   1       8.453  10.034  26.083 -0.22 -0.02    -0.248 N 
DOCKED: ATOM     28  N   UNL d   1       8.859  10.428  28.932 -0.27 -0.05    -0.248 N 
DOCKED: ATOM     29 FE   UNL d   1       8.141  11.531  27.394 -0.08 +0.00    +0.000 Fe
DOCKED: ATOM     30  O   UNL d   1       6.637  11.781  27.703 -0.30 +0.00    +0.000 OA
DOCKED: ATOM     31  O   UNL d   1       7.175  10.305  27.587 -0.71 +0.00    +0.000 OA
DOCKED: ENDROOT
DOCKED: BRANCH   6  32
DOCKED: ATOM     32  C   UNL d   1       7.712  14.769  31.998 -0.30 +0.03    +0.052 C 
DOCKED: BRANCH  32  33
DOCKED: ATOM     33  C   UNL d   1       6.379  14.525  32.699 -0.12 +0.10    +0.115 C 
DOCKED: BRANCH  33  34
DOCKED: ATOM     34  C   UNL d   1       6.388  13.266  33.530 -0.21 +0.14    +0.139 C 
DOCKED: ATOM     35  O   UNL d   1       5.424  12.996  34.228 -0.57 -1.11    -0.650 OA
DOCKED: BRANCH  34  36
DOCKED: ATOM     36  O   UNL d   1       7.455  12.440  33.544 +0.08 -0.50    -0.776 OA
DOCKED: ATOM     37  H   UNL d   1       7.359  11.483  33.611 +0.09 +0.09    +0.167 HD
DOCKED: ENDBRANCH  34  36
DOCKED: ENDBRANCH  33  34
DOCKED: ENDBRANCH  32  33
DOCKED: ENDBRANCH   6  32
DOCKED: BRANCH  22  38
DOCKED: ATOM     38  C   UNL d   1       9.896   9.784  32.441 -0.31 +0.03    +0.052 C 
DOCKED: BRANCH  38  39
DOCKED: ATOM     39  C   UNL d   1       9.018   8.795  33.205 -0.40 +0.04    +0.115 C 
DOCKED: BRANCH  39  40
DOCKED: ATOM     40  C   UNL d   1       7.949   9.483  34.017 -0.35 +0.06    +0.139 C 
DOCKED: ATOM     41  O   UNL d   1       6.775   9.353  33.709 -0.07 -0.22    -0.650 OA
DOCKED: BRANCH  40  42
DOCKED: ATOM     42  O   UNL d   1       8.262  10.200  35.114 -0.36 -0.53    -0.776 OA
DOCKED: ATOM     43  H   UNL d   1       8.106  11.151  35.156 +0.07 +0.11    +0.167 HD
DOCKED: ENDBRANCH  40  42
DOCKED: ENDBRANCH  39  40
DOCKED: ENDBRANCH  38  39
DOCKED: ENDBRANCH  22  38
DOCKED: BRANCH  12  44
DOCKED: ATOM     44  C   UNL d   1       6.779  13.686  22.253 -0.47 +0.00    +0.004 C 
DOCKED: ATOM     45  C   UNL d   1       7.315  12.984  21.255 -0.60 -0.00    +0.012 C 
DOCKED: ENDBRANCH  12  44
DOCKED: BRANCH  17  46
DOCKED: ATOM     46  C   UNL d   1       9.345   6.522  25.272 -0.63 +0.00    +0.004 C 
DOCKED: ATOM     47  C   UNL d   1       8.751   5.527  25.942 -0.72 +0.00    +0.012 C 
DOCKED: ENDBRANCH  17  46
DOCKED: TORSDOF 10
DOCKED: TER
DOCKED: ENDMDL
________________________________________________________________________________


	BEGINNING GENETIC ALGORITHM DOCKING 55 of 100
Run: 55 Seed: 2076535145 371040433 [ Run 55 of 100 GA/GALS ]
Beginning LAMARCKIAN GENETIC ALGORITHM (LGA), with a maximum of 25000000 energy evaluations.

Final-Value: -16.774


	FINAL GENETIC ALGORITHM DOCKED STATE
	_______________________________________________


Detailed state:  trans 23.668 -7.821 32.727 quatxyzw -0.415771 -0.756627 -0.073860 0.499195 center 8.287 34.468 -0.670 ntor 10 74.7780 86.7293 111.1053 -5.1817 170.5645 -53.1808 -19.2664 102.4623 -157.3461 -180.0000
State:	 23.668  -7.821  32.727  -0.480 -0.873 -0.085 120.107     74.78   86.73  111.11   -5.18  170.56  -53.18  -19.27  102.46 -157.35 -180.00

DOCKED: MODEL       55
DOCKED: USER    Run = 55
DOCKED: USER    DPF = D:/Protein_go_brrr/autodock/final/1A3N/heme_O2/dock.dpf
DOCKED: USER  
DOCKED: USER    Estimated Free Energy of Binding    =  -12.14 kcal/mol  [=(1)+(2)+(3)-(4)]
DOCKED: USER    Estimated Inhibition Constant, Ki   =    1.27 nM (nanomolar)  [Temperature = 298.15 K]
DOCKED: USER    
DOCKED: USER    (1) Final Intermolecular Energy     =  -15.12 kcal/mol
DOCKED: USER        vdW + Hbond + desolv Energy     =  -13.09 kcal/mol
DOCKED: USER        Electrostatic Energy            =   -2.03 kcal/mol
DOCKED: USER    (2) Final Total Internal Energy     =   -1.65 kcal/mol
DOCKED: USER    (3) Torsional Free Energy           =   +2.98 kcal/mol
DOCKED: USER    (4) Unbound System's Energy  [=(2)] =   -1.65 kcal/mol
DOCKED: USER    
DOCKED: USER    
DOCKED: USER    NEWDPF move heme_O2_opt.pdbqt
DOCKED: USER    NEWDPF about 8.287000 34.468000 -0.670000
DOCKED: USER    NEWDPF tran0 23.668102 -7.820990 32.727246
DOCKED: USER    NEWDPF quaternion0 -0.415771 -0.756627 -0.073860 0.499195
DOCKED: USER    NEWDPF axisangle0 -0.479834 -0.873209 -0.085241 120.106549
DOCKED: USER    NEWDPF quat0 -0.479834 -0.873209 -0.085241 120.106549
DOCKED: USER    NEWDPF dihe0 74.78 86.73 111.11 -5.18 170.56 -53.18 -19.27 102.46 -157.35 -180.00 
DOCKED: USER  keepresnum = 1 
DOCKED: USER  
DOCKED: REMARK  10 active torsions:
DOCKED: REMARK  status: ('A' for Active; 'I' for Inactive)
DOCKED: REMARK    1  A    between atoms: C_6  and  C_10 
DOCKED: REMARK    2  A    between atoms: C_10  and  C_11 
DOCKED: REMARK    3  A    between atoms: C_11  and  C_12 
DOCKED: REMARK    4  A    between atoms: C_12  and  O_14 
DOCKED: REMARK    5  A    between atoms: C_17  and  C_20 
DOCKED: REMARK    6  A    between atoms: C_24  and  C_27 
DOCKED: REMARK    7  A    between atoms: C_31  and  C_34 
DOCKED: REMARK    8  A    between atoms: C_34  and  C_35 
DOCKED: REMARK    9  A    between atoms: C_35  and  C_36 
DOCKED: REMARK   10  A    between atoms: C_36  and  O_38 
DOCKED: USER                              x       y       z     vdW  Elec       q    Type
DOCKED: USER                           _______ _______ _______ _____ _____    ______ ____
DOCKED: ROOT
DOCKED: ATOM      1  C   UNL d   1      23.641  -8.505  34.735 -0.27 +0.02    +0.064 A 
DOCKED: ATOM      2  C   UNL d   1      24.971 -10.558  30.664 -0.37 +0.00    +0.064 A 
DOCKED: ATOM      3  C   UNL d   1      23.776  -6.621  28.180 -0.44 +0.00    +0.064 C 
DOCKED: ATOM      4  C   UNL d   1      22.852  -4.328  32.418 -0.39 +0.01    +0.064 A 
DOCKED: ATOM      5  C   UNL d   1      24.101  -9.384  33.830 -0.28 +0.01    +0.066 A 
DOCKED: ATOM      6  C   UNL d   1      24.534 -10.676  34.144 -0.24 -0.00    -0.021 A 
DOCKED: ATOM      7  C   UNL d   1      24.960 -11.257  32.972 -0.24 -0.00    -0.025 A 
DOCKED: ATOM      8  C   UNL d   1      24.731 -10.320  31.967 -0.33 +0.01    +0.066 A 
DOCKED: ATOM      9  C   UNL d   1      25.579 -12.633  32.863 -0.26 +0.00    +0.051 C 
DOCKED: ATOM     10  C   UNL d   1      24.730  -9.624  29.563 -0.43 +0.00    +0.066 A 
DOCKED: ATOM     11  C   UNL d   1      24.842  -9.980  28.214 -0.51 -0.00    -0.021 A 
DOCKED: ATOM     12  C   UNL d   1      24.484  -8.863  27.482 -0.45 +0.00    +0.000 A 
DOCKED: ATOM     13  C   UNL d   1      24.178  -7.863  28.447 -0.39 +0.00    +0.070 A 
DOCKED: ATOM     14  C   UNL d   1      25.246 -11.336  27.647 -0.55 -0.00    +0.052 C 
DOCKED: ATOM     15  C   UNL d   1      23.491  -5.570  29.127 -0.37 +0.00    +0.066 A 
DOCKED: ATOM     16  C   UNL d   1      23.233  -4.244  28.782 -0.42 -0.00    -0.021 A 
DOCKED: ATOM     17  C   UNL d   1      22.967  -3.571  29.975 -0.46 +0.00    +0.000 A 
DOCKED: ATOM     18  C   UNL d   1      23.083  -4.550  30.971 -0.35 +0.01    +0.070 A 
DOCKED: ATOM     19  C   UNL d   1      23.316  -3.731  27.367 -0.52 +0.00    +0.052 C 
DOCKED: ATOM     20  C   UNL d   1      22.997  -5.234  33.404 -0.32 +0.01    +0.066 A 
DOCKED: ATOM     21  C   UNL d   1      22.748  -4.971  34.748 -0.24 -0.00    -0.025 A 
DOCKED: ATOM     22  C   UNL d   1      22.941  -6.157  35.420 -0.18 -0.00    -0.021 A 
DOCKED: ATOM     23  C   UNL d   1      23.320  -7.100  34.459 -0.25 +0.01    +0.066 A 
DOCKED: ATOM     24  C   UNL d   1      22.349  -3.654  35.361 -0.31 +0.01    +0.051 C 
DOCKED: ATOM     25  N   UNL d   1      24.263  -9.144  32.506 -0.22 -0.03    -0.248 N 
DOCKED: ATOM     26  N   UNL d   1      24.335  -8.334  29.710 -0.24 -0.01    -0.248 N 
DOCKED: ATOM     27  N   UNL d   1      23.475  -5.740  30.446 -0.18 -0.00    -0.248 N 
DOCKED: ATOM     28  N   UNL d   1      23.396  -6.524  33.242 -0.23 -0.03    -0.248 N 
DOCKED: ATOM     29 FE   UNL d   1      23.862  -7.420  31.488 -0.09 -0.00    +0.000 Fe
DOCKED: ATOM     30  O   UNL d   1      25.378  -7.766  31.565 -0.04 +0.00    +0.000 OA
DOCKED: ATOM     31  O   UNL d   1      24.909  -6.270  31.723 -0.02 +0.00    +0.000 OA
DOCKED: ENDROOT
DOCKED: BRANCH   6  32
DOCKED: ATOM     32  C   UNL d   1      24.672 -11.297  35.510 -0.19 +0.01    +0.052 C 
DOCKED: BRANCH  32  33
DOCKED: ATOM     33  C   UNL d   1      25.866 -10.755  36.289 -0.06 +0.07    +0.115 C 
DOCKED: BRANCH  33  34
DOCKED: ATOM     34  C   UNL d   1      25.723 -10.958  37.777 -0.10 +0.08    +0.139 C 
DOCKED: ATOM     35  O   UNL d   1      24.941 -11.795  38.199 +0.01 -0.21    -0.650 OA
DOCKED: BRANCH  34  36
DOCKED: ATOM     36  O   UNL d   1      26.421 -10.213  38.659 -0.08 -0.83    -0.776 OA
DOCKED: ATOM     37  H   UNL d   1      26.190  -9.296  38.849 +0.00 +0.24    +0.167 HD
DOCKED: ENDBRANCH  34  36
DOCKED: ENDBRANCH  33  34
DOCKED: ENDBRANCH  32  33
DOCKED: ENDBRANCH   6  32
DOCKED: BRANCH  22  38
DOCKED: ATOM     38  C   UNL d   1      22.829  -6.351  36.910 -0.19 +0.01    +0.052 C 
DOCKED: BRANCH  38  39
DOCKED: ATOM     39  C   UNL d   1      24.059  -5.842  37.657 -0.13 +0.05    +0.115 C 
DOCKED: BRANCH  39  40
DOCKED: ATOM     40  C   UNL d   1      25.217  -6.806  37.586 -0.14 +0.13    +0.139 C 
DOCKED: ATOM     41  O   UNL d   1      26.037  -6.703  36.688 -0.10 -0.85    -0.650 OA
DOCKED: BRANCH  40  42
DOCKED: ATOM     42  O   UNL d   1      25.393  -7.753  38.528 -0.48 -0.91    -0.776 OA
DOCKED: ATOM     43  H   UNL d   1      24.992  -8.626  38.447 +0.02 +0.15    +0.167 HD
DOCKED: ENDBRANCH  40  42
DOCKED: ENDBRANCH  39  40
DOCKED: ENDBRANCH  38  39
DOCKED: ENDBRANCH  22  38
DOCKED: BRANCH  12  44
DOCKED: ATOM     44  C   UNL d   1      24.473  -8.863  25.967 -0.30 +0.00    +0.004 C 
DOCKED: ATOM     45  C   UNL d   1      25.519  -8.849  25.142 -0.57 +0.00    +0.012 C 
DOCKED: ENDBRANCH  12  44
DOCKED: BRANCH  17  46
DOCKED: ATOM     46  C   UNL d   1      22.681  -2.118  30.247 -0.59 +0.00    +0.004 C 
DOCKED: ATOM     47  C   UNL d   1      22.823  -1.076  29.417 -0.59 +0.00    +0.012 C 
DOCKED: ENDBRANCH  17  46
DOCKED: TORSDOF 10
DOCKED: TER
DOCKED: ENDMDL
________________________________________________________________________________


	BEGINNING GENETIC ALGORITHM DOCKING 56 of 100
Run: 56 Seed: 1342958161 114334084 [ Run 56 of 100 GA/GALS ]
Beginning LAMARCKIAN GENETIC ALGORITHM (LGA), with a maximum of 25000000 energy evaluations.

Final-Value: -20.142


	FINAL GENETIC ALGORITHM DOCKED STATE
	_______________________________________________


Detailed state:  trans 8.260 11.871 28.254 quatxyzw 0.754384 -0.416445 -0.487044 -0.142360 center 8.287 34.468 -0.670 ntor 10 119.7820 -55.6831 41.4443 -69.4587 131.1930 123.3086 -67.0993 15.8762 -149.0296 -169.1929
State:	  8.260  11.871  28.254   0.762 -0.421 -0.492 -163.631    119.78  -55.68   41.44  -69.46  131.19  123.31  -67.10   15.88 -149.03 -169.19

DOCKED: MODEL       56
DOCKED: USER    Run = 56
DOCKED: USER    DPF = D:/Protein_go_brrr/autodock/final/1A3N/heme_O2/dock.dpf
DOCKED: USER  
DOCKED: USER    Estimated Free Energy of Binding    =  -15.06 kcal/mol  [=(1)+(2)+(3)-(4)]
DOCKED: USER    Estimated Inhibition Constant, Ki   =    9.21 pM (picomolar)  [Temperature = 298.15 K]
DOCKED: USER    
DOCKED: USER    (1) Final Intermolecular Energy     =  -18.04 kcal/mol
DOCKED: USER        vdW + Hbond + desolv Energy     =  -15.83 kcal/mol
DOCKED: USER        Electrostatic Energy            =   -2.20 kcal/mol
DOCKED: USER    (2) Final Total Internal Energy     =   -2.10 kcal/mol
DOCKED: USER    (3) Torsional Free Energy           =   +2.98 kcal/mol
DOCKED: USER    (4) Unbound System's Energy  [=(2)] =   -2.10 kcal/mol
DOCKED: USER    
DOCKED: USER    
DOCKED: USER    NEWDPF move heme_O2_opt.pdbqt
DOCKED: USER    NEWDPF about 8.287000 34.468000 -0.670000
DOCKED: USER    NEWDPF tran0 8.259724 11.870878 28.254238
DOCKED: USER    NEWDPF quaternion0 0.754384 -0.416445 -0.487044 -0.142360
DOCKED: USER    NEWDPF axisangle0 0.762147 -0.420730 -0.492056 -163.631078
DOCKED: USER    NEWDPF quat0 0.762147 -0.420730 -0.492056 -163.631078
DOCKED: USER    NEWDPF dihe0 119.78 -55.68 41.44 -69.46 131.19 123.31 -67.10 15.88 -149.03 -169.19 
DOCKED: USER  keepresnum = 1 
DOCKED: USER  
DOCKED: REMARK  10 active torsions:
DOCKED: REMARK  status: ('A' for Active; 'I' for Inactive)
DOCKED: REMARK    1  A    between atoms: C_6  and  C_10 
DOCKED: REMARK    2  A    between atoms: C_10  and  C_11 
DOCKED: REMARK    3  A    between atoms: C_11  and  C_12 
DOCKED: REMARK    4  A    between atoms: C_12  and  O_14 
DOCKED: REMARK    5  A    between atoms: C_17  and  C_20 
DOCKED: REMARK    6  A    between atoms: C_24  and  C_27 
DOCKED: REMARK    7  A    between atoms: C_31  and  C_34 
DOCKED: REMARK    8  A    between atoms: C_34  and  C_35 
DOCKED: REMARK    9  A    between atoms: C_35  and  C_36 
DOCKED: REMARK   10  A    between atoms: C_36  and  O_38 
DOCKED: USER                              x       y       z     vdW  Elec       q    Type
DOCKED: USER                           _______ _______ _______ _____ _____    ______ ____
DOCKED: ROOT
DOCKED: ATOM      1  C   UNL d   1       8.313  12.784  30.168 -0.13 +0.02    +0.064 A 
DOCKED: ATOM      2  C   UNL d   1       6.695  14.261  25.954 -0.37 +0.01    +0.064 A 
DOCKED: ATOM      3  C   UNL d   1       8.069  10.148  23.882 -0.40 +0.00    +0.064 C 
DOCKED: ATOM      4  C   UNL d   1       9.304   8.426  28.306 -0.37 +0.01    +0.064 A 
DOCKED: ATOM      5  C   UNL d   1       7.760  13.520  29.191 -0.20 +0.01    +0.066 A 
DOCKED: ATOM      6  C   UNL d   1       7.251  14.809  29.376 -0.37 -0.00    -0.021 A 
DOCKED: ATOM      7  C   UNL d   1       6.742  15.221  28.166 -0.43 -0.00    -0.025 A 
DOCKED: ATOM      8  C   UNL d   1       6.999  14.191  27.265 -0.36 +0.01    +0.066 A 
DOCKED: ATOM      9  C   UNL d   1       6.025  16.532  27.929 -0.45 +0.00    +0.051 C 
DOCKED: ATOM     10  C   UNL d   1       6.960  13.223  24.956 -0.35 +0.00    +0.066 A 
DOCKED: ATOM     11  C   UNL d   1       6.774  13.411  23.582 -0.37 -0.00    -0.021 A 
DOCKED: ATOM     12  C   UNL d   1       7.182  12.243  22.966 -0.39 +0.00    +0.000 A 
DOCKED: ATOM     13  C   UNL d   1       7.591  11.384  24.024 -0.23 +0.00    +0.070 A 
DOCKED: ATOM     14  C   UNL d   1       6.255  14.664  22.885 -0.42 +0.00    +0.052 C 
DOCKED: ATOM     15  C   UNL d   1       8.460   9.234  24.928 -0.40 +0.01    +0.066 A 
DOCKED: ATOM     16  C   UNL d   1       8.797   7.897  24.724 -0.52 -0.00    -0.021 A 
DOCKED: ATOM     17  C   UNL d   1       9.152   7.385  25.972 -0.48 +0.00    +0.000 A 
DOCKED: ATOM     18  C   UNL d   1       9.005   8.464  26.855 -0.38 +0.01    +0.070 A 
DOCKED: ATOM     19  C   UNL d   1       8.698   7.219  23.380 -0.52 +0.00    +0.052 C 
DOCKED: ATOM     20  C   UNL d   1       9.133   9.429  29.189 -0.38 +0.01    +0.066 A 
DOCKED: ATOM     21  C   UNL d   1       9.450   9.340  30.542 -0.42 -0.01    -0.025 A 
DOCKED: ATOM     22  C   UNL d   1       9.199  10.581  31.083 -0.34 -0.01    -0.021 A 
DOCKED: ATOM     23  C   UNL d   1       8.721  11.380  30.040 -0.32 +0.02    +0.066 A 
DOCKED: ATOM     24  C   UNL d   1       9.961   8.131  31.281 -0.53 +0.01    +0.051 C 
DOCKED: ATOM     25  N   UNL d   1       7.566  13.118  27.911 -0.19 -0.02    -0.248 N 
DOCKED: ATOM     26  N   UNL d   1       7.448  11.987  25.231 -0.22 -0.01    -0.248 N 
DOCKED: ATOM     27  N   UNL d   1       8.513   9.556  26.217 -0.22 -0.03    -0.248 N 
DOCKED: ATOM     28  N   UNL d   1       8.640  10.662  28.900 -0.25 -0.05    -0.248 N 
DOCKED: ATOM     29 FE   UNL d   1       8.049  11.317  27.078 -0.08 +0.00    +0.000 Fe
DOCKED: ATOM     30  O   UNL d   1       6.516  11.570  27.183 -0.46 +0.00    +0.000 OA
DOCKED: ATOM     31  O   UNL d   1       7.093  10.137  27.488 -0.75 +0.00    +0.000 OA
DOCKED: ENDROOT
DOCKED: BRANCH   6  32
DOCKED: ATOM     32  C   UNL d   1       7.120  15.574  30.667 -0.36 +0.02    +0.052 C 
DOCKED: BRANCH  32  33
DOCKED: ATOM     33  C   UNL d   1       6.137  14.930  31.640 -0.30 +0.06    +0.115 C 
DOCKED: BRANCH  33  34
DOCKED: ATOM     34  C   UNL d   1       6.824  14.342  32.848 -0.26 +0.12    +0.139 C 
DOCKED: ATOM     35  O   UNL d   1       8.017  14.090  32.800 +0.03 -0.40    -0.650 OA
DOCKED: BRANCH  34  36
DOCKED: ATOM     36  O   UNL d   1       6.142  14.061  33.977 +0.30 -1.50    -0.776 OA
DOCKED: ATOM     37  H   UNL d   1       6.097  13.167  34.338 +0.06 +0.27    +0.167 HD
DOCKED: ENDBRANCH  34  36
DOCKED: ENDBRANCH  33  34
DOCKED: ENDBRANCH  32  33
DOCKED: ENDBRANCH   6  32
DOCKED: BRANCH  22  38
DOCKED: ATOM     38  C   UNL d   1       9.352  10.953  32.535 -0.30 +0.03    +0.052 C 
DOCKED: BRANCH  38  39
DOCKED: ATOM     39  C   UNL d   1       8.340  10.240  33.428 -0.36 +0.05    +0.115 C 
DOCKED: BRANCH  39  40
DOCKED: ATOM     40  C   UNL d   1       8.246  10.858  34.801 -0.24 +0.09    +0.139 C 
DOCKED: ATOM     41  O   UNL d   1       8.943  10.430  35.707 -0.51 -0.50    -0.650 OA
DOCKED: BRANCH  40  42
DOCKED: ATOM     42  O   UNL d   1       7.442  11.913  35.036 +0.09 -0.58    -0.776 OA
DOCKED: ATOM     43  H   UNL d   1       7.488  12.713  34.499 +0.07 +0.14    +0.167 HD
DOCKED: ENDBRANCH  40  42
DOCKED: ENDBRANCH  39  40
DOCKED: ENDBRANCH  38  39
DOCKED: ENDBRANCH  22  38
DOCKED: BRANCH  12  44
DOCKED: ATOM     44  C   UNL d   1       7.136  12.069  21.462 -0.60 -0.00    +0.004 C 
DOCKED: ATOM     45  C   UNL d   1       6.830  10.970  20.774 -0.73 -0.00    +0.012 C 
DOCKED: ENDBRANCH  12  44
DOCKED: BRANCH  17  46
DOCKED: ATOM     46  C   UNL d   1       9.549   5.995  26.393 -0.66 +0.00    +0.004 C 
DOCKED: ATOM     47  C   UNL d   1       8.760   4.928  26.574 -0.74 +0.00    +0.012 C 
DOCKED: ENDBRANCH  17  46
DOCKED: TORSDOF 10
DOCKED: TER
DOCKED: ENDMDL
________________________________________________________________________________


	BEGINNING GENETIC ALGORITHM DOCKING 57 of 100
Run: 57 Seed: 499645659 220046010 [ Run 57 of 100 GA/GALS ]
Beginning LAMARCKIAN GENETIC ALGORITHM (LGA), with a maximum of 25000000 energy evaluations.

Final-Value: -13.701


	FINAL GENETIC ALGORITHM DOCKED STATE
	_______________________________________________


Detailed state:  trans 2.547 -5.904 -6.361 quatxyzw -0.520545 0.054752 -0.831793 -0.184811 center 8.287 34.468 -0.670 ntor 10 -57.1468 26.4227 -114.6673 139.6222 -170.0256 108.1105 85.5079 -128.2361 33.4135 145.9746
State:	  2.547  -5.904  -6.361  -0.530  0.056 -0.846 -158.700    -57.15   26.42 -114.67  139.62 -170.03  108.11   85.51 -128.24   33.41  145.97

DOCKED: MODEL       57
DOCKED: USER    Run = 57
DOCKED: USER    DPF = D:/Protein_go_brrr/autodock/final/1A3N/heme_O2/dock.dpf
DOCKED: USER  
DOCKED: USER    Estimated Free Energy of Binding    =   -9.93 kcal/mol  [=(1)+(2)+(3)-(4)]
DOCKED: USER    Estimated Inhibition Constant, Ki   =   52.21 nM (nanomolar)  [Temperature = 298.15 K]
DOCKED: USER    
DOCKED: USER    (1) Final Intermolecular Energy     =  -12.92 kcal/mol
DOCKED: USER        vdW + Hbond + desolv Energy     =  -12.42 kcal/mol
DOCKED: USER        Electrostatic Energy            =   -0.50 kcal/mol
DOCKED: USER    (2) Final Total Internal Energy     =   -0.78 kcal/mol
DOCKED: USER    (3) Torsional Free Energy           =   +2.98 kcal/mol
DOCKED: USER    (4) Unbound System's Energy  [=(2)] =   -0.78 kcal/mol
DOCKED: USER    
DOCKED: USER    
DOCKED: USER    NEWDPF move heme_O2_opt.pdbqt
DOCKED: USER    NEWDPF about 8.287000 34.468000 -0.670000
DOCKED: USER    NEWDPF tran0 2.547189 -5.904108 -6.360998
DOCKED: USER    NEWDPF quaternion0 -0.520545 0.054752 -0.831793 -0.184811
DOCKED: USER    NEWDPF axisangle0 -0.529669 0.055711 -0.846373 -158.699773
DOCKED: USER    NEWDPF quat0 -0.529669 0.055711 -0.846373 -158.699773
DOCKED: USER    NEWDPF dihe0 -57.15 26.42 -114.67 139.62 -170.03 108.11 85.51 -128.24 33.41 145.97 
DOCKED: USER  keepresnum = 1 
DOCKED: USER  
DOCKED: REMARK  10 active torsions:
DOCKED: REMARK  status: ('A' for Active; 'I' for Inactive)
DOCKED: REMARK    1  A    between atoms: C_6  and  C_10 
DOCKED: REMARK    2  A    between atoms: C_10  and  C_11 
DOCKED: REMARK    3  A    between atoms: C_11  and  C_12 
DOCKED: REMARK    4  A    between atoms: C_12  and  O_14 
DOCKED: REMARK    5  A    between atoms: C_17  and  C_20 
DOCKED: REMARK    6  A    between atoms: C_24  and  C_27 
DOCKED: REMARK    7  A    between atoms: C_31  and  C_34 
DOCKED: REMARK    8  A    between atoms: C_34  and  C_35 
DOCKED: REMARK    9  A    between atoms: C_35  and  C_36 
DOCKED: REMARK   10  A    between atoms: C_36  and  O_38 
DOCKED: USER                              x       y       z     vdW  Elec       q    Type
DOCKED: USER                           _______ _______ _______ _____ _____    ______ ____
DOCKED: ROOT
DOCKED: ATOM      1  C   UNL d   1       2.718  -5.861  -8.475 -0.22 +0.02    +0.064 A 
DOCKED: ATOM      2  C   UNL d   1       4.862  -3.389  -5.032 -0.45 +0.01    +0.064 A 
DOCKED: ATOM      3  C   UNL d   1       2.336  -5.709  -1.666 -0.40 +0.00    +0.064 C 
DOCKED: ATOM      4  C   UNL d   1       0.471  -8.593  -5.169 -0.31 +0.02    +0.064 A 
DOCKED: ATOM      5  C   UNL d   1       3.508  -5.001  -7.813 -0.28 +0.01    +0.066 A 
DOCKED: ATOM      6  C   UNL d   1       4.390  -4.112  -8.434 -0.30 -0.00    -0.021 A 
DOCKED: ATOM      7  C   UNL d   1       5.043  -3.426  -7.437 -0.42 -0.00    -0.025 A 
DOCKED: ATOM      8  C   UNL d   1       4.507  -3.881  -6.235 -0.42 +0.01    +0.066 A 
DOCKED: ATOM      9  C   UNL d   1       6.144  -2.412  -7.661 -0.03 -0.00    +0.051 C 
DOCKED: ATOM     10  C   UNL d   1       4.319  -3.810  -3.740 -0.41 +0.01    +0.066 A 
DOCKED: ATOM     11  C   UNL d   1       4.601  -3.155  -2.536 -0.45 -0.00    -0.021 A 
DOCKED: ATOM     12  C   UNL d   1       3.868  -3.798  -1.556 -0.42 +0.00    +0.000 A 
DOCKED: ATOM     13  C   UNL d   1       3.174  -4.840  -2.231 -0.36 +0.00    +0.070 A 
DOCKED: ATOM     14  C   UNL d   1       5.511  -1.948  -2.334 -0.58 +0.00    +0.052 C 
DOCKED: ATOM     15  C   UNL d   1       1.641  -6.800  -2.307 -0.28 +0.00    +0.066 A 
DOCKED: ATOM     16  C   UNL d   1       0.908  -7.775  -1.633 -0.34 -0.00    -0.021 A 
DOCKED: ATOM     17  C   UNL d   1       0.367  -8.609  -2.611 -0.43 +0.00    +0.000 A 
DOCKED: ATOM     18  C   UNL d   1       0.816  -8.072  -3.826 -0.35 +0.01    +0.070 A 
DOCKED: ATOM     19  C   UNL d   1       0.834  -7.856  -0.128 -0.42 +0.00    +0.052 C 
DOCKED: ATOM     20  C   UNL d   1       0.918  -8.128  -6.352 -0.24 +0.02    +0.066 A 
DOCKED: ATOM     21  C   UNL d   1       0.544  -8.649  -7.587 -0.22 -0.01    -0.025 A 
DOCKED: ATOM     22  C   UNL d   1       1.153  -7.866  -8.542 -0.21 -0.01    -0.021 A 
DOCKED: ATOM     23  C   UNL d   1       1.894  -6.903  -7.850 -0.19 +0.03    +0.066 A 
DOCKED: ATOM     24  C   UNL d   1      -0.347  -9.837  -7.844 -0.18 +0.02    +0.051 C 
DOCKED: ATOM     25  N   UNL d   1       3.609  -4.897  -6.465 -0.23 -0.04    -0.248 N 
DOCKED: ATOM     26  N   UNL d   1       3.457  -4.843  -3.558 -0.25 -0.03    -0.248 N 
DOCKED: ATOM     27  N   UNL d   1       1.648  -7.019  -3.619 -0.24 -0.03    -0.248 N 
DOCKED: ATOM     28  N   UNL d   1       1.784  -7.094  -6.519 -0.09 -0.09    -0.248 N 
DOCKED: ATOM     29 FE   UNL d   1       2.614  -5.978  -5.048 -0.08 +0.00    +0.000 Fe
DOCKED: ATOM     30  O   UNL d   1       4.143  -6.263  -5.096 -0.22 +0.00    +0.000 OA
DOCKED: ATOM     31  O   UNL d   1       3.134  -7.452  -4.873 -0.19 +0.00    +0.000 OA
DOCKED: ENDROOT
DOCKED: BRANCH   6  32
DOCKED: ATOM     32  C   UNL d   1       4.711  -4.004  -9.903 -0.21 +0.00    +0.052 C 
DOCKED: BRANCH  32  33
DOCKED: ATOM     33  C   UNL d   1       4.320  -2.654 -10.497 -0.22 +0.00    +0.115 C 
DOCKED: BRANCH  33  34
DOCKED: ATOM     34  C   UNL d   1       2.974  -2.693 -11.177 -0.23 +0.03    +0.139 C 
DOCKED: ATOM     35  O   UNL d   1       2.065  -3.339 -10.679 +0.03 -0.21    -0.650 OA
DOCKED: BRANCH  34  36
DOCKED: ATOM     36  O   UNL d   1       2.756  -2.051 -12.343 +0.07 -0.19    -0.776 OA
DOCKED: ATOM     37  H   UNL d   1       2.907  -1.104 -12.441 -0.25 +0.02    +0.167 HD
DOCKED: ENDBRANCH  34  36
DOCKED: ENDBRANCH  33  34
DOCKED: ENDBRANCH  32  33
DOCKED: ENDBRANCH   6  32
DOCKED: BRANCH  22  38
DOCKED: ATOM     38  C   UNL d   1       1.075  -8.077 -10.032 -0.13 +0.03    +0.052 C 
DOCKED: BRANCH  38  39
DOCKED: ATOM     39  C   UNL d   1       2.415  -8.499 -10.630 -0.08 +0.03    +0.115 C 
DOCKED: BRANCH  39  40
DOCKED: ATOM     40  C   UNL d   1       3.035  -9.660  -9.894 -0.16 +0.03    +0.139 C 
DOCKED: ATOM     41  O   UNL d   1       4.008  -9.476  -9.181 -0.04 -0.10    -0.650 OA
DOCKED: BRANCH  40  42
DOCKED: ATOM     42  O   UNL d   1       2.502 -10.895  -9.967 +0.02 -0.12    -0.776 OA
DOCKED: ATOM     43  H   UNL d   1       2.016 -11.190 -10.747 +0.02 +0.03    +0.167 HD
DOCKED: ENDBRANCH  40  42
DOCKED: ENDBRANCH  39  40
DOCKED: ENDBRANCH  38  39
DOCKED: ENDBRANCH  22  38
DOCKED: BRANCH  12  44
DOCKED: ATOM     44  C   UNL d   1       3.908  -3.363  -0.106 -0.54 +0.00    +0.004 C 
DOCKED: ATOM     45  C   UNL d   1       3.553  -2.184   0.405 -0.61 +0.00    +0.012 C 
DOCKED: ENDBRANCH  12  44
DOCKED: BRANCH  17  46
DOCKED: ATOM     46  C   UNL d   1      -0.461  -9.861  -2.495 -0.46 +0.00    +0.004 C 
DOCKED: ATOM     47  C   UNL d   1      -1.584 -10.176  -3.153 -0.40 -0.00    +0.012 C 
DOCKED: ENDBRANCH  17  46
DOCKED: TORSDOF 10
DOCKED: TER
DOCKED: ENDMDL
________________________________________________________________________________


	BEGINNING GENETIC ALGORITHM DOCKING 58 of 100
Run: 58 Seed: 1053278033 1479762793 [ Run 58 of 100 GA/GALS ]
Beginning LAMARCKIAN GENETIC ALGORITHM (LGA), with a maximum of 25000000 energy evaluations.

Final-Value: -19.041


	FINAL GENETIC ALGORITHM DOCKED STATE
	_______________________________________________


Detailed state:  trans 8.234 12.178 28.275 quatxyzw -0.757401 0.409621 0.487329 0.145135 center 8.287 34.468 -0.670 ntor 10 -113.6803 149.7237 42.4516 -70.2696 73.9601 -7.3665 -35.9338 -4.8805 -118.8296 -150.5141
State:	  8.234  12.178  28.275  -0.766  0.414  0.493 163.310   -113.68  149.72   42.45  -70.27   73.96   -7.37  -35.93   -4.88 -118.83 -150.51

DOCKED: MODEL       58
DOCKED: USER    Run = 58
DOCKED: USER    DPF = D:/Protein_go_brrr/autodock/final/1A3N/heme_O2/dock.dpf
DOCKED: USER  
DOCKED: USER    Estimated Free Energy of Binding    =  -15.79 kcal/mol  [=(1)+(2)+(3)-(4)]
DOCKED: USER    Estimated Inhibition Constant, Ki   =    2.65 pM (picomolar)  [Temperature = 298.15 K]
DOCKED: USER    
DOCKED: USER    (1) Final Intermolecular Energy     =  -18.78 kcal/mol
DOCKED: USER        vdW + Hbond + desolv Energy     =  -16.56 kcal/mol
DOCKED: USER        Electrostatic Energy            =   -2.21 kcal/mol
DOCKED: USER    (2) Final Total Internal Energy     =   -0.27 kcal/mol
DOCKED: USER    (3) Torsional Free Energy           =   +2.98 kcal/mol
DOCKED: USER    (4) Unbound System's Energy  [=(2)] =   -0.27 kcal/mol
DOCKED: USER    
DOCKED: USER    
DOCKED: USER    NEWDPF move heme_O2_opt.pdbqt
DOCKED: USER    NEWDPF about 8.287000 34.468000 -0.670000
DOCKED: USER    NEWDPF tran0 8.233591 12.178334 28.274746
DOCKED: USER    NEWDPF quaternion0 -0.757401 0.409621 0.487329 0.145135
DOCKED: USER    NEWDPF axisangle0 -0.765506 0.414005 0.492545 163.309757
DOCKED: USER    NEWDPF quat0 -0.765506 0.414005 0.492545 163.309757
DOCKED: USER    NEWDPF dihe0 -113.68 149.72 42.45 -70.27 73.96 -7.37 -35.93 -4.88 -118.83 -150.51 
DOCKED: USER  keepresnum = 1 
DOCKED: USER  
DOCKED: REMARK  10 active torsions:
DOCKED: REMARK  status: ('A' for Active; 'I' for Inactive)
DOCKED: REMARK    1  A    between atoms: C_6  and  C_10 
DOCKED: REMARK    2  A    between atoms: C_10  and  C_11 
DOCKED: REMARK    3  A    between atoms: C_11  and  C_12 
DOCKED: REMARK    4  A    between atoms: C_12  and  O_14 
DOCKED: REMARK    5  A    between atoms: C_17  and  C_20 
DOCKED: REMARK    6  A    between atoms: C_24  and  C_27 
DOCKED: REMARK    7  A    between atoms: C_31  and  C_34 
DOCKED: REMARK    8  A    between atoms: C_34  and  C_35 
DOCKED: REMARK    9  A    between atoms: C_35  and  C_36 
DOCKED: REMARK   10  A    between atoms: C_36  and  O_38 
DOCKED: USER                              x       y       z     vdW  Elec       q    Type
DOCKED: USER                           _______ _______ _______ _____ _____    ______ ____
DOCKED: ROOT
DOCKED: ATOM      1  C   UNL d   1       8.277  13.085  30.192 -0.22 +0.02    +0.064 A 
DOCKED: ATOM      2  C   UNL d   1       6.628  14.552  25.986 -0.39 +0.01    +0.064 A 
DOCKED: ATOM      3  C   UNL d   1       8.062  10.468  23.896 -0.40 +0.00    +0.064 C 
DOCKED: ATOM      4  C   UNL d   1       9.331   8.750  28.312 -0.39 +0.01    +0.064 A 
DOCKED: ATOM      5  C   UNL d   1       7.710  13.816  29.219 -0.27 +0.01    +0.066 A 
DOCKED: ATOM      6  C   UNL d   1       7.181  15.097  29.408 -0.38 -0.00    -0.021 A 
DOCKED: ATOM      7  C   UNL d   1       6.665  15.505  28.201 -0.44 -0.00    -0.025 A 
DOCKED: ATOM      8  C   UNL d   1       6.935  14.482  27.296 -0.38 +0.01    +0.066 A 
DOCKED: ATOM      9  C   UNL d   1       5.927  16.805  27.970 -0.39 +0.00    +0.051 C 
DOCKED: ATOM     10  C   UNL d   1       6.907  13.522  24.984 -0.35 +0.00    +0.066 A 
DOCKED: ATOM     11  C   UNL d   1       6.716  13.712  23.611 -0.37 -0.00    -0.021 A 
DOCKED: ATOM     12  C   UNL d   1       7.141  12.552  22.990 -0.40 +0.00    +0.000 A 
DOCKED: ATOM     13  C   UNL d   1       7.565  11.696  24.044 -0.32 +0.00    +0.070 A 
DOCKED: ATOM     14  C   UNL d   1       6.177  14.959  22.919 -0.46 +0.00    +0.052 C 
DOCKED: ATOM     15  C   UNL d   1       8.469   9.557  24.939 -0.39 +0.01    +0.066 A 
DOCKED: ATOM     16  C   UNL d   1       8.826   8.225  24.729 -0.51 -0.00    -0.021 A 
DOCKED: ATOM     17  C   UNL d   1       9.191   7.715  25.975 -0.46 +0.00    +0.000 A 
DOCKED: ATOM     18  C   UNL d   1       9.029   8.788  26.862 -0.38 +0.01    +0.070 A 
DOCKED: ATOM     19  C   UNL d   1       8.735   7.551  23.383 -0.59 +0.00    +0.052 C 
DOCKED: ATOM     20  C   UNL d   1       9.146   9.747  29.199 -0.40 +0.01    +0.066 A 
DOCKED: ATOM     21  C   UNL d   1       9.466   9.658  30.551 -0.41 -0.01    -0.025 A 
DOCKED: ATOM     22  C   UNL d   1       9.198  10.893  31.097 -0.30 -0.01    -0.021 A 
DOCKED: ATOM     23  C   UNL d   1       8.705  11.688  30.057 -0.30 +0.02    +0.066 A 
DOCKED: ATOM     24  C   UNL d   1       9.998   8.455  31.285 -0.53 +0.02    +0.051 C 
DOCKED: ATOM     25  N   UNL d   1       7.520  13.416  27.938 -0.20 -0.03    -0.248 N 
DOCKED: ATOM     26  N   UNL d   1       7.415  12.292  25.254 -0.23 -0.01    -0.248 N 
DOCKED: ATOM     27  N   UNL d   1       8.519   9.875  26.229 -0.22 -0.02    -0.248 N 
DOCKED: ATOM     28  N   UNL d   1       8.633  10.973  28.915 -0.25 -0.04    -0.248 N 
DOCKED: ATOM     29 FE   UNL d   1       8.029  11.625  27.097 -0.08 +0.00    +0.000 Fe
DOCKED: ATOM     30  O   UNL d   1       6.493  11.855  27.205 -0.39 +0.00    +0.000 OA
DOCKED: ATOM     31  O   UNL d   1       7.093  10.429  27.504 -0.68 +0.00    +0.000 OA
DOCKED: ENDROOT
DOCKED: BRANCH   6  32
DOCKED: ATOM     32  C   UNL d   1       7.041  15.855  30.703 -0.35 +0.02    +0.052 C 
DOCKED: BRANCH  32  33
DOCKED: ATOM     33  C   UNL d   1       6.727  14.948  31.889 -0.30 +0.07    +0.115 C 
DOCKED: BRANCH  33  34
DOCKED: ATOM     34  C   UNL d   1       7.435  15.382  33.148 -0.21 +0.12    +0.139 C 
DOCKED: ATOM     35  O   UNL d   1       8.623  15.136  33.287 +0.02 -0.41    -0.650 OA
DOCKED: BRANCH  34  36
DOCKED: ATOM     36  O   UNL d   1       6.779  16.014  34.143 -0.17 -1.31    -0.776 OA
DOCKED: ATOM     37  H   UNL d   1       6.963  16.931  34.375 +0.02 +0.21    +0.167 HD
DOCKED: ENDBRANCH  34  36
DOCKED: ENDBRANCH  33  34
DOCKED: ENDBRANCH  32  33
DOCKED: ENDBRANCH   6  32
DOCKED: BRANCH  22  38
DOCKED: ATOM     38  C   UNL d   1       9.348  11.263  32.550 -0.29 +0.03    +0.052 C 
DOCKED: BRANCH  38  39
DOCKED: ATOM     39  C   UNL d   1       8.700  10.240  33.481 -0.33 +0.06    +0.115 C 
DOCKED: BRANCH  39  40
DOCKED: ATOM     40  C   UNL d   1       8.973  10.529  34.935 -0.23 +0.10    +0.139 C 
DOCKED: ATOM     41  O   UNL d   1       8.073  10.425  35.753 -0.57 -0.45    -0.650 OA
DOCKED: BRANCH  40  42
DOCKED: ATOM     42  O   UNL d   1      10.210  10.853  35.360 -0.07 -0.85    -0.776 OA
DOCKED: ATOM     43  H   UNL d   1      10.347  11.400  36.143 +0.04 +0.20    +0.167 HD
DOCKED: ENDBRANCH  40  42
DOCKED: ENDBRANCH  39  40
DOCKED: ENDBRANCH  38  39
DOCKED: ENDBRANCH  22  38
DOCKED: BRANCH  12  44
DOCKED: ATOM     44  C   UNL d   1       7.095  12.383  21.486 -0.59 -0.00    +0.004 C 
DOCKED: ATOM     45  C   UNL d   1       6.787  11.286  20.794 -0.73 -0.00    +0.012 C 
DOCKED: ENDBRANCH  12  44
DOCKED: BRANCH  17  46
DOCKED: ATOM     46  C   UNL d   1       9.610   6.330  26.391 -0.59 +0.00    +0.004 C 
DOCKED: ATOM     47  C   UNL d   1       8.837   5.253  26.584 -0.75 +0.00    +0.012 C 
DOCKED: ENDBRANCH  17  46
DOCKED: TORSDOF 10
DOCKED: TER
DOCKED: ENDMDL
________________________________________________________________________________


	BEGINNING GENETIC ALGORITHM DOCKING 59 of 100
Run: 59 Seed: 1254447854 1659479575 [ Run 59 of 100 GA/GALS ]
Beginning LAMARCKIAN GENETIC ALGORITHM (LGA), with a maximum of 25000000 energy evaluations.

Final-Value: -15.005


	FINAL GENETIC ALGORITHM DOCKED STATE
	_______________________________________________


Detailed state:  trans 23.696 -8.931 34.115 quatxyzw 0.501395 0.735171 0.218641 -0.400404 center 8.287 34.468 -0.670 ntor 10 150.6678 -15.7395 9.7477 102.0464 -168.2120 -36.0064 -89.1959 164.2944 -176.8303 180.0000
State:	 23.696  -8.931  34.115   0.547  0.802  0.239 -132.793    150.67  -15.74    9.75  102.05 -168.21  -36.01  -89.20  164.29 -176.83  180.00

DOCKED: MODEL       59
DOCKED: USER    Run = 59
DOCKED: USER    DPF = D:/Protein_go_brrr/autodock/final/1A3N/heme_O2/dock.dpf
DOCKED: USER  
DOCKED: USER    Estimated Free Energy of Binding    =   -9.67 kcal/mol  [=(1)+(2)+(3)-(4)]
DOCKED: USER    Estimated Inhibition Constant, Ki   =   82.05 nM (nanomolar)  [Temperature = 298.15 K]
DOCKED: USER    
DOCKED: USER    (1) Final Intermolecular Energy     =  -12.65 kcal/mol
DOCKED: USER        vdW + Hbond + desolv Energy     =  -10.37 kcal/mol
DOCKED: USER        Electrostatic Energy            =   -2.28 kcal/mol
DOCKED: USER    (2) Final Total Internal Energy     =   -2.36 kcal/mol
DOCKED: USER    (3) Torsional Free Energy           =   +2.98 kcal/mol
DOCKED: USER    (4) Unbound System's Energy  [=(2)] =   -2.36 kcal/mol
DOCKED: USER    
DOCKED: USER    
DOCKED: USER    NEWDPF move heme_O2_opt.pdbqt
DOCKED: USER    NEWDPF about 8.287000 34.468000 -0.670000
DOCKED: USER    NEWDPF tran0 23.695612 -8.930812 34.115229
DOCKED: USER    NEWDPF quaternion0 0.501395 0.735171 0.218641 -0.400404
DOCKED: USER    NEWDPF axisangle0 0.547172 0.802291 0.238603 -132.793165
DOCKED: USER    NEWDPF quat0 0.547172 0.802291 0.238603 -132.793165
DOCKED: USER    NEWDPF dihe0 150.67 -15.74 9.75 102.05 -168.21 -36.01 -89.20 164.29 -176.83 180.00 
DOCKED: USER  keepresnum = 1 
DOCKED: USER  
DOCKED: REMARK  10 active torsions:
DOCKED: REMARK  status: ('A' for Active; 'I' for Inactive)
DOCKED: REMARK    1  A    between atoms: C_6  and  C_10 
DOCKED: REMARK    2  A    between atoms: C_10  and  C_11 
DOCKED: REMARK    3  A    between atoms: C_11  and  C_12 
DOCKED: REMARK    4  A    between atoms: C_12  and  O_14 
DOCKED: REMARK    5  A    between atoms: C_17  and  C_20 
DOCKED: REMARK    6  A    between atoms: C_24  and  C_27 
DOCKED: REMARK    7  A    between atoms: C_31  and  C_34 
DOCKED: REMARK    8  A    between atoms: C_34  and  C_35 
DOCKED: REMARK    9  A    between atoms: C_35  and  C_36 
DOCKED: REMARK   10  A    between atoms: C_36  and  O_38 
DOCKED: USER                              x       y       z     vdW  Elec       q    Type
DOCKED: USER                           _______ _______ _______ _____ _____    ______ ____
DOCKED: ROOT
DOCKED: ATOM      1  C   UNL d   1      23.718 -10.331  35.708 -0.18 +0.02    +0.064 A 
DOCKED: ATOM      2  C   UNL d   1      24.973 -10.651  31.139 -0.36 +0.00    +0.064 A 
DOCKED: ATOM      3  C   UNL d   1      23.693  -6.083  30.372 -0.06 -0.00    +0.064 C 
DOCKED: ATOM      4  C   UNL d   1      22.847  -5.598  35.180 -0.19 +0.01    +0.064 A 
DOCKED: ATOM      5  C   UNL d   1      24.165 -10.790  34.528 -0.20 +0.01    +0.066 A 
DOCKED: ATOM      6  C   UNL d   1      24.614 -12.097  34.316 -0.12 -0.00    -0.021 A 
DOCKED: ATOM      7  C   UNL d   1      25.018 -12.179  33.004 -0.12 -0.00    -0.025 A 
DOCKED: ATOM      8  C   UNL d   1      24.760 -10.933  32.439 -0.26 +0.01    +0.066 A 
DOCKED: ATOM      9  C   UNL d   1      25.645 -13.399  32.366 -0.20 +0.00    +0.051 C 
DOCKED: ATOM     10  C   UNL d   1      24.700  -9.371  30.483 -0.39 +0.00    +0.066 A 
DOCKED: ATOM     11  C   UNL d   1      24.785  -9.182  29.099 -0.45 -0.00    -0.021 A 
DOCKED: ATOM     12  C   UNL d   1      24.402  -7.875  28.857 -0.35 +0.00    +0.000 A 
DOCKED: ATOM     13  C   UNL d   1      24.111  -7.326  30.136 -0.23 -0.00    +0.070 A 
DOCKED: ATOM     14  C   UNL d   1      25.187 -10.212  28.050 -0.57 -0.00    +0.052 C 
DOCKED: ATOM     15  C   UNL d   1      23.422  -5.478  31.654 -0.24 +0.01    +0.066 A 
DOCKED: ATOM     16  C   UNL d   1      23.146  -4.125  31.847 -0.35 -0.00    -0.021 A 
DOCKED: ATOM     17  C   UNL d   1      22.902  -3.963  33.211 -0.42 +0.00    +0.000 A 
DOCKED: ATOM     18  C   UNL d   1      23.047  -5.247  33.754 -0.29 +0.01    +0.070 A 
DOCKED: ATOM     19  C   UNL d   1      23.193  -3.108  30.734 -0.50 +0.01    +0.052 C 
DOCKED: ATOM     20  C   UNL d   1      23.020  -6.810  35.742 -0.18 +0.02    +0.066 A 
DOCKED: ATOM     21  C   UNL d   1      22.799  -7.085  37.089 -0.18 -0.01    -0.025 A 
DOCKED: ATOM     22  C   UNL d   1      23.016  -8.434  37.252 -0.17 -0.01    -0.021 A 
DOCKED: ATOM     23  C   UNL d   1      23.381  -8.932  35.997 -0.19 +0.02    +0.066 A 
DOCKED: ATOM     24  C   UNL d   1      22.404  -6.108  38.166 -0.11 +0.01    +0.051 C 
DOCKED: ATOM     25  N   UNL d   1      24.296 -10.059  33.394 -0.18 -0.05    -0.248 N 
DOCKED: ATOM     26  N   UNL d   1      24.299  -8.241  31.120 -0.21 -0.01    -0.248 N 
DOCKED: ATOM     27  N   UNL d   1      23.436  -6.139  32.808 -0.23 -0.03    -0.248 N 
DOCKED: ATOM     28  N   UNL d   1      23.426  -7.933  35.092 -0.16 -0.07    -0.248 N 
DOCKED: ATOM     29 FE   UNL d   1      23.859  -8.083  33.120 -0.07 +0.00    +0.000 Fe
DOCKED: ATOM     30  O   UNL d   1      25.379  -8.409  33.033 -0.43 +0.00    +0.000 OA
DOCKED: ATOM     31  O   UNL d   1      24.902  -7.094  33.759 +0.18 +0.00    +0.000 OA
DOCKED: ENDROOT
DOCKED: BRANCH   6  32
DOCKED: ATOM     32  C   UNL d   1      24.787 -13.191  35.338 -0.13 +0.01    +0.052 C 
DOCKED: BRANCH  32  33
DOCKED: ATOM     33  C   UNL d   1      26.199 -13.245  35.914 -0.09 +0.02    +0.115 C 
DOCKED: BRANCH  33  34
DOCKED: ATOM     34  C   UNL d   1      26.362 -12.355  37.122 -0.09 +0.05    +0.139 C 
DOCKED: ATOM     35  O   UNL d   1      25.471 -12.298  37.954 +0.01 -0.20    -0.650 OA
DOCKED: BRANCH  34  36
DOCKED: ATOM     36  O   UNL d   1      27.463 -11.594  37.291 +0.03 -0.54    -0.776 OA
DOCKED: ATOM     37  H   UNL d   1      27.438 -10.761  37.775 +0.01 +0.19    +0.167 HD
DOCKED: ENDBRANCH  34  36
DOCKED: ENDBRANCH  33  34
DOCKED: ENDBRANCH  32  33
DOCKED: ENDBRANCH   6  32
DOCKED: BRANCH  22  38
DOCKED: ATOM     38  C   UNL d   1      22.938  -9.185  38.556 -0.11 +0.01    +0.052 C 
DOCKED: BRANCH  38  39
DOCKED: ATOM     39  C   UNL d   1      24.181  -8.981  39.420 -0.05 +0.05    +0.115 C 
DOCKED: BRANCH  39  40
DOCKED: ATOM     40  C   UNL d   1      25.346  -8.433  38.633 -0.03 +0.15    +0.139 C 
DOCKED: ATOM     41  O   UNL d   1      25.704  -7.279  38.806 -0.30 -0.85    -0.650 OA
DOCKED: BRANCH  40  42
DOCKED: ATOM     42  O   UNL d   1      26.034  -9.211  37.776 -0.24 -1.30    -0.776 OA
DOCKED: ATOM     43  H   UNL d   1      25.932 -10.171  37.772 +0.01 +0.16    +0.167 HD
DOCKED: ENDBRANCH  40  42
DOCKED: ENDBRANCH  39  40
DOCKED: ENDBRANCH  38  39
DOCKED: ENDBRANCH  22  38
DOCKED: BRANCH  12  44
DOCKED: ATOM     44  C   UNL d   1      24.358  -7.297  27.458 -0.47 +0.00    +0.004 C 
DOCKED: ATOM     45  C   UNL d   1      24.105  -6.039  27.099 -0.47 +0.00    +0.012 C 
DOCKED: ENDBRANCH  12  44
DOCKED: BRANCH  17  46
DOCKED: ATOM     46  C   UNL d   1      22.611  -2.729  34.023 -0.51 +0.00    +0.004 C 
DOCKED: ATOM     47  C   UNL d   1      21.419  -2.237  34.384 -0.52 +0.00    +0.012 C 
DOCKED: ENDBRANCH  17  46
DOCKED: TORSDOF 10
DOCKED: TER
DOCKED: ENDMDL
________________________________________________________________________________


	BEGINNING GENETIC ALGORITHM DOCKING 60 of 100
Run: 60 Seed: 2037409325 51072910 [ Run 60 of 100 GA/GALS ]
Beginning LAMARCKIAN GENETIC ALGORITHM (LGA), with a maximum of 25000000 energy evaluations.

Final-Value: -16.649


	FINAL GENETIC ALGORITHM DOCKED STATE
	_______________________________________________


Detailed state:  trans 23.685 -7.827 32.731 quatxyzw 0.412019 0.758535 0.075212 -0.499208 center 8.287 34.468 -0.670 ntor 10 -72.3433 46.6522 112.1691 -8.1267 43.1601 -51.9520 63.3982 114.7422 -11.8766 169.9710
State:	 23.685  -7.827  32.731   0.476  0.875  0.087 -120.105    -72.34   46.65  112.17   -8.13   43.16  -51.95   63.40  114.74  -11.88  169.97

DOCKED: MODEL       60
DOCKED: USER    Run = 60
DOCKED: USER    DPF = D:/Protein_go_brrr/autodock/final/1A3N/heme_O2/dock.dpf
DOCKED: USER  
DOCKED: USER    Estimated Free Energy of Binding    =  -11.76 kcal/mol  [=(1)+(2)+(3)-(4)]
DOCKED: USER    Estimated Inhibition Constant, Ki   =    2.39 nM (nanomolar)  [Temperature = 298.15 K]
DOCKED: USER    
DOCKED: USER    (1) Final Intermolecular Energy     =  -14.74 kcal/mol
DOCKED: USER        vdW + Hbond + desolv Energy     =  -13.07 kcal/mol
DOCKED: USER        Electrostatic Energy            =   -1.67 kcal/mol
DOCKED: USER    (2) Final Total Internal Energy     =   -1.90 kcal/mol
DOCKED: USER    (3) Torsional Free Energy           =   +2.98 kcal/mol
DOCKED: USER    (4) Unbound System's Energy  [=(2)] =   -1.90 kcal/mol
DOCKED: USER    
DOCKED: USER    
DOCKED: USER    NEWDPF move heme_O2_opt.pdbqt
DOCKED: USER    NEWDPF about 8.287000 34.468000 -0.670000
DOCKED: USER    NEWDPF tran0 23.684936 -7.826703 32.730825
DOCKED: USER    NEWDPF quaternion0 0.412019 0.758535 0.075212 -0.499208
DOCKED: USER    NEWDPF axisangle0 0.475508 0.875419 0.086802 -120.104762
DOCKED: USER    NEWDPF quat0 0.475508 0.875419 0.086802 -120.104762
DOCKED: USER    NEWDPF dihe0 -72.34 46.65 112.17 -8.13 43.16 -51.95 63.40 114.74 -11.88 169.97 
DOCKED: USER  keepresnum = 1 
DOCKED: USER  
DOCKED: REMARK  10 active torsions:
DOCKED: REMARK  status: ('A' for Active; 'I' for Inactive)
DOCKED: REMARK    1  A    between atoms: C_6  and  C_10 
DOCKED: REMARK    2  A    between atoms: C_10  and  C_11 
DOCKED: REMARK    3  A    between atoms: C_11  and  C_12 
DOCKED: REMARK    4  A    between atoms: C_12  and  O_14 
DOCKED: REMARK    5  A    between atoms: C_17  and  C_20 
DOCKED: REMARK    6  A    between atoms: C_24  and  C_27 
DOCKED: REMARK    7  A    between atoms: C_31  and  C_34 
DOCKED: REMARK    8  A    between atoms: C_34  and  C_35 
DOCKED: REMARK    9  A    between atoms: C_35  and  C_36 
DOCKED: REMARK   10  A    between atoms: C_36  and  O_38 
DOCKED: USER                              x       y       z     vdW  Elec       q    Type
DOCKED: USER                           _______ _______ _______ _____ _____    ______ ____
DOCKED: ROOT
DOCKED: ATOM      1  C   UNL d   1      23.664  -8.507  34.740 -0.27 +0.02    +0.064 A 
DOCKED: ATOM      2  C   UNL d   1      25.011 -10.557  30.672 -0.37 +0.00    +0.064 A 
DOCKED: ATOM      3  C   UNL d   1      23.781  -6.635  28.182 -0.44 +0.00    +0.064 C 
DOCKED: ATOM      4  C   UNL d   1      22.839  -4.342  32.415 -0.39 +0.01    +0.064 A 
DOCKED: ATOM      5  C   UNL d   1      24.132  -9.384  33.837 -0.28 +0.01    +0.066 A 
DOCKED: ATOM      6  C   UNL d   1      24.575 -10.672  34.153 -0.24 -0.00    -0.021 A 
DOCKED: ATOM      7  C   UNL d   1      25.006 -11.250  32.982 -0.25 -0.00    -0.025 A 
DOCKED: ATOM      8  C   UNL d   1      24.769 -10.318  31.976 -0.34 +0.01    +0.066 A 
DOCKED: ATOM      9  C   UNL d   1      25.637 -12.622  32.875 -0.27 +0.00    +0.051 C 
DOCKED: ATOM     10  C   UNL d   1      24.761  -9.627  29.570 -0.43 +0.00    +0.066 A 
DOCKED: ATOM     11  C   UNL d   1      24.876  -9.984  28.221 -0.51 -0.00    -0.021 A 
DOCKED: ATOM     12  C   UNL d   1      24.508  -8.872  27.487 -0.46 +0.00    +0.000 A 
DOCKED: ATOM     13  C   UNL d   1      24.195  -7.873  28.451 -0.39 +0.00    +0.070 A 
DOCKED: ATOM     14  C   UNL d   1      25.292 -11.338  27.658 -0.54 -0.00    +0.052 C 
DOCKED: ATOM     15  C   UNL d   1      23.488  -5.585  29.127 -0.37 +0.00    +0.066 A 
DOCKED: ATOM     16  C   UNL d   1      23.218  -4.261  28.779 -0.42 -0.00    -0.021 A 
DOCKED: ATOM     17  C   UNL d   1      22.947  -3.588  29.970 -0.46 +0.00    +0.000 A 
DOCKED: ATOM     18  C   UNL d   1      23.072  -4.565  30.968 -0.35 +0.01    +0.070 A 
DOCKED: ATOM     19  C   UNL d   1      23.296  -3.751  27.362 -0.52 +0.00    +0.052 C 
DOCKED: ATOM     20  C   UNL d   1      22.992  -5.245  33.403 -0.32 +0.01    +0.066 A 
DOCKED: ATOM     21  C   UNL d   1      22.740  -4.981  34.746 -0.24 -0.00    -0.025 A 
DOCKED: ATOM     22  C   UNL d   1      22.944  -6.164  35.420 -0.18 -0.00    -0.021 A 
DOCKED: ATOM     23  C   UNL d   1      23.331  -7.105  34.462 -0.25 +0.01    +0.066 A 
DOCKED: ATOM     24  C   UNL d   1      22.330  -3.666  35.357 -0.31 +0.01    +0.051 C 
DOCKED: ATOM     25  N   UNL d   1      24.291  -9.145  32.512 -0.22 -0.03    -0.248 N 
DOCKED: ATOM     26  N   UNL d   1      24.356  -8.340  29.715 -0.24 -0.01    -0.248 N 
DOCKED: ATOM     27  N   UNL d   1      23.473  -5.752  30.446 -0.18 -0.00    -0.248 N 
DOCKED: ATOM     28  N   UNL d   1      23.402  -6.531  33.243 -0.23 -0.03    -0.248 N 
DOCKED: ATOM     29 FE   UNL d   1      23.875  -7.426  31.491 -0.09 -0.00    +0.000 Fe
DOCKED: ATOM     30  O   UNL d   1      25.394  -7.759  31.568 -0.03 +0.00    +0.000 OA
DOCKED: ATOM     31  O   UNL d   1      24.912  -6.267  31.723 -0.02 +0.00    +0.000 OA
DOCKED: ENDROOT
DOCKED: BRANCH   6  32
DOCKED: ATOM     32  C   UNL d   1      24.719 -11.289  35.520 -0.19 +0.01    +0.052 C 
DOCKED: BRANCH  32  33
DOCKED: ATOM     33  C   UNL d   1      23.377 -11.618  36.166 -0.14 +0.02    +0.115 C 
DOCKED: BRANCH  33  34
DOCKED: ATOM     34  C   UNL d   1      23.160 -10.867  37.456 -0.11 +0.03    +0.139 C 
DOCKED: ATOM     35  O   UNL d   1      23.215 -11.465  38.519 +0.01 -0.13    -0.650 OA
DOCKED: BRANCH  34  36
DOCKED: ATOM     36  O   UNL d   1      22.877  -9.548  37.464 +0.04 -0.21    -0.776 OA
DOCKED: ATOM     37  H   UNL d   1      23.539  -8.882  37.248 +0.04 +0.06    +0.167 HD
DOCKED: ENDBRANCH  34  36
DOCKED: ENDBRANCH  33  34
DOCKED: ENDBRANCH  32  33
DOCKED: ENDBRANCH   6  32
DOCKED: BRANCH  22  38
DOCKED: ATOM     38  C   UNL d   1      22.834  -6.356  36.911 -0.19 +0.01    +0.052 C 
DOCKED: BRANCH  38  39
DOCKED: ATOM     39  C   UNL d   1      24.147  -6.065  37.634 -0.13 +0.05    +0.115 C 
DOCKED: BRANCH  39  40
DOCKED: ATOM     40  C   UNL d   1      25.228  -7.057  37.287 -0.13 +0.14    +0.139 C 
DOCKED: ATOM     41  O   UNL d   1      26.000  -6.817  36.372 -0.06 -0.78    -0.650 OA
DOCKED: BRANCH  40  42
DOCKED: ATOM     42  O   UNL d   1      25.393  -8.186  38.003 -0.58 -1.01    -0.776 OA
DOCKED: ATOM     43  H   UNL d   1      24.650  -8.767  38.207 +0.03 +0.12    +0.167 HD
DOCKED: ENDBRANCH  40  42
DOCKED: ENDBRANCH  39  40
DOCKED: ENDBRANCH  38  39
DOCKED: ENDBRANCH  22  38
DOCKED: BRANCH  12  44
DOCKED: ATOM     44  C   UNL d   1      24.498  -8.876  25.973 -0.32 +0.00    +0.004 C 
DOCKED: ATOM     45  C   UNL d   1      25.543  -8.873  25.147 -0.58 +0.00    +0.012 C 
DOCKED: ENDBRANCH  12  44
DOCKED: BRANCH  17  46
DOCKED: ATOM     46  C   UNL d   1      22.648  -2.137  30.239 -0.59 +0.00    +0.004 C 
DOCKED: ATOM     47  C   UNL d   1      22.832  -1.089  29.426 -0.60 +0.00    +0.012 C 
DOCKED: ENDBRANCH  17  46
DOCKED: TORSDOF 10
DOCKED: TER
DOCKED: ENDMDL
________________________________________________________________________________


	BEGINNING GENETIC ALGORITHM DOCKING 61 of 100
Run: 61 Seed: 67674399 734511722 [ Run 61 of 100 GA/GALS ]
Beginning LAMARCKIAN GENETIC ALGORITHM (LGA), with a maximum of 25000000 energy evaluations.

Final-Value: -19.468


	FINAL GENETIC ALGORITHM DOCKED STATE
	_______________________________________________


Detailed state:  trans 8.474 11.679 28.464 quatxyzw 0.740257 -0.417979 -0.512069 -0.122876 center 8.287 34.468 -0.670 ntor 10 63.5574 41.9484 36.9024 -75.9339 179.8894 121.8294 -71.6997 5.1033 178.3418 144.1405
State:	  8.474  11.679  28.464   0.746 -0.421 -0.516 -165.884     63.56   41.95   36.90  -75.93  179.89  121.83  -71.70    5.10  178.34  144.14

DOCKED: MODEL       61
DOCKED: USER    Run = 61
DOCKED: USER    DPF = D:/Protein_go_brrr/autodock/final/1A3N/heme_O2/dock.dpf
DOCKED: USER  
DOCKED: USER    Estimated Free Energy of Binding    =  -15.51 kcal/mol  [=(1)+(2)+(3)-(4)]
DOCKED: USER    Estimated Inhibition Constant, Ki   =    4.30 pM (picomolar)  [Temperature = 298.15 K]
DOCKED: USER    
DOCKED: USER    (1) Final Intermolecular Energy     =  -18.49 kcal/mol
DOCKED: USER        vdW + Hbond + desolv Energy     =  -16.36 kcal/mol
DOCKED: USER        Electrostatic Energy            =   -2.13 kcal/mol
DOCKED: USER    (2) Final Total Internal Energy     =   -0.98 kcal/mol
DOCKED: USER    (3) Torsional Free Energy           =   +2.98 kcal/mol
DOCKED: USER    (4) Unbound System's Energy  [=(2)] =   -0.98 kcal/mol
DOCKED: USER    
DOCKED: USER    
DOCKED: USER    NEWDPF move heme_O2_opt.pdbqt
DOCKED: USER    NEWDPF about 8.287000 34.468000 -0.670000
DOCKED: USER    NEWDPF tran0 8.473780 11.678964 28.463773
DOCKED: USER    NEWDPF quaternion0 0.740257 -0.417979 -0.512069 -0.122876
DOCKED: USER    NEWDPF axisangle0 0.745909 -0.421171 -0.515979 -165.883764
DOCKED: USER    NEWDPF quat0 0.745909 -0.421171 -0.515979 -165.883764
DOCKED: USER    NEWDPF dihe0 63.56 41.95 36.90 -75.93 179.89 121.83 -71.70 5.10 178.34 144.14 
DOCKED: USER  keepresnum = 1 
DOCKED: USER  
DOCKED: REMARK  10 active torsions:
DOCKED: REMARK  status: ('A' for Active; 'I' for Inactive)
DOCKED: REMARK    1  A    between atoms: C_6  and  C_10 
DOCKED: REMARK    2  A    between atoms: C_10  and  C_11 
DOCKED: REMARK    3  A    between atoms: C_11  and  C_12 
DOCKED: REMARK    4  A    between atoms: C_12  and  O_14 
DOCKED: REMARK    5  A    between atoms: C_17  and  C_20 
DOCKED: REMARK    6  A    between atoms: C_24  and  C_27 
DOCKED: REMARK    7  A    between atoms: C_31  and  C_34 
DOCKED: REMARK    8  A    between atoms: C_34  and  C_35 
DOCKED: REMARK    9  A    between atoms: C_35  and  C_36 
DOCKED: REMARK   10  A    between atoms: C_36  and  O_38 
DOCKED: USER                              x       y       z     vdW  Elec       q    Type
DOCKED: USER                           _______ _______ _______ _____ _____    ______ ____
DOCKED: ROOT
DOCKED: ATOM      1  C   UNL d   1       8.630  12.501  30.413 -0.24 +0.02    +0.064 A 
DOCKED: ATOM      2  C   UNL d   1       6.931  14.230  26.328 -0.37 +0.01    +0.064 A 
DOCKED: ATOM      3  C   UNL d   1       8.064  10.165  24.029 -0.40 +0.00    +0.064 C 
DOCKED: ATOM      4  C   UNL d   1       9.378   8.197  28.327 -0.37 +0.01    +0.064 A 
DOCKED: ATOM      5  C   UNL d   1       8.074  13.302  29.490 -0.26 +0.01    +0.066 A 
DOCKED: ATOM      6  C   UNL d   1       7.624  14.601  29.749 -0.35 -0.01    -0.021 A 
DOCKED: ATOM      7  C   UNL d   1       7.093  15.086  28.577 -0.40 -0.00    -0.025 A 
DOCKED: ATOM      8  C   UNL d   1       7.276  14.090  27.623 -0.35 +0.01    +0.066 A 
DOCKED: ATOM      9  C   UNL d   1       6.422  16.434  28.424 -0.43 +0.01    +0.051 C 
DOCKED: ATOM     10  C   UNL d   1       7.119  13.230  25.277 -0.35 +0.00    +0.066 A 
DOCKED: ATOM     11  C   UNL d   1       6.895  13.487  23.920 -0.36 -0.00    -0.021 A 
DOCKED: ATOM     12  C   UNL d   1       7.233  12.333  23.239 -0.39 +0.00    +0.000 A 
DOCKED: ATOM     13  C   UNL d   1       7.642  11.411  24.242 -0.27 +0.00    +0.070 A 
DOCKED: ATOM     14  C   UNL d   1       6.404  14.789  23.297 -0.38 +0.00    +0.052 C 
DOCKED: ATOM     15  C   UNL d   1       8.453   9.190  25.019 -0.40 +0.01    +0.066 A 
DOCKED: ATOM     16  C   UNL d   1       8.728   7.851  24.745 -0.52 -0.00    -0.021 A 
DOCKED: ATOM     17  C   UNL d   1       9.104   7.269  25.956 -0.49 +0.00    +0.000 A 
DOCKED: ATOM     18  C   UNL d   1       9.031   8.312  26.890 -0.38 +0.01    +0.070 A 
DOCKED: ATOM     19  C   UNL d   1       8.556   7.240  23.377 -0.53 +0.00    +0.052 C 
DOCKED: ATOM     20  C   UNL d   1       9.278   9.165  29.258 -0.39 +0.01    +0.066 A 
DOCKED: ATOM     21  C   UNL d   1       9.636   9.002  30.594 -0.42 -0.01    -0.025 A 
DOCKED: ATOM     22  C   UNL d   1       9.455  10.226  31.197 -0.34 -0.01    -0.021 A 
DOCKED: ATOM     23  C   UNL d   1       8.974  11.089  30.208 -0.29 +0.02    +0.066 A 
DOCKED: ATOM     24  C   UNL d   1      10.122   7.742  31.261 -0.49 +0.01    +0.051 C 
DOCKED: ATOM     25  N   UNL d   1       7.821  12.966  28.201 -0.16 -0.02    -0.248 N 
DOCKED: ATOM     26  N   UNL d   1       7.565  11.964  25.480 -0.22 -0.01    -0.248 N 
DOCKED: ATOM     27  N   UNL d   1       8.563   9.451  26.319 -0.22 -0.03    -0.248 N 
DOCKED: ATOM     28  N   UNL d   1       8.826  10.428  29.042 -0.27 -0.05    -0.248 N 
DOCKED: ATOM     29 FE   UNL d   1       8.200  11.188  27.273 -0.08 +0.00    +0.000 Fe
DOCKED: ATOM     30  O   UNL d   1       6.684  11.496  27.443 -0.42 +0.00    +0.000 OA
DOCKED: ATOM     31  O   UNL d   1       7.212  10.029  27.664 -0.77 +0.00    +0.000 OA
DOCKED: ENDROOT
DOCKED: BRANCH   6  32
DOCKED: ATOM     32  C   UNL d   1       7.569  15.310  31.077 -0.33 +0.02    +0.052 C 
DOCKED: BRANCH  32  33
DOCKED: ATOM     33  C   UNL d   1       6.188  15.252  31.722 -0.22 +0.07    +0.115 C 
DOCKED: BRANCH  33  34
DOCKED: ATOM     34  C   UNL d   1       6.138  14.297  32.889 -0.14 +0.14    +0.139 C 
DOCKED: ATOM     35  O   UNL d   1       7.147  14.091  33.544 -0.03 -0.66    -0.650 OA
DOCKED: BRANCH  34  36
DOCKED: ATOM     36  O   UNL d   1       5.005  13.638  33.210 -0.15 -1.01    -0.776 OA
DOCKED: ATOM     37  H   UNL d   1       4.600  12.998  32.614 -0.46 +0.07    +0.167 HD
DOCKED: ENDBRANCH  34  36
DOCKED: ENDBRANCH  33  34
DOCKED: ENDBRANCH  32  33
DOCKED: ENDBRANCH   6  32
DOCKED: BRANCH  22  38
DOCKED: ATOM     38  C   UNL d   1       9.673  10.526  32.658 -0.14 +0.03    +0.052 C 
DOCKED: BRANCH  38  39
DOCKED: ATOM     39  C   UNL d   1       8.374  10.879  33.379 -0.31 +0.06    +0.115 C 
DOCKED: BRANCH  39  40
DOCKED: ATOM     40  C   UNL d   1       8.602  11.272  34.818 -0.20 +0.09    +0.139 C 
DOCKED: ATOM     41  O   UNL d   1       8.516  10.429  35.697 -0.56 -0.47    -0.650 OA
DOCKED: BRANCH  40  42
DOCKED: ATOM     42  O   UNL d   1       8.950  12.530  35.149 +0.09 -0.60    -0.776 OA
DOCKED: ATOM     43  H   UNL d   1       8.510  13.295  34.758 +0.06 +0.13    +0.167 HD
DOCKED: ENDBRANCH  40  42
DOCKED: ENDBRANCH  39  40
DOCKED: ENDBRANCH  38  39
DOCKED: ENDBRANCH  22  38
DOCKED: BRANCH  12  44
DOCKED: ATOM     44  C   UNL d   1       7.129  12.229  21.732 -0.56 +0.00    +0.004 C 
DOCKED: ATOM     45  C   UNL d   1       6.835  11.153  21.003 -0.70 -0.00    +0.012 C 
DOCKED: ENDBRANCH  12  44
DOCKED: BRANCH  17  46
DOCKED: ATOM     46  C   UNL d   1       9.457   5.847  26.301 -0.69 +0.00    +0.004 C 
DOCKED: ATOM     47  C   UNL d   1       8.629   4.832  26.579 -0.73 +0.00    +0.012 C 
DOCKED: ENDBRANCH  17  46
DOCKED: TORSDOF 10
DOCKED: TER
DOCKED: ENDMDL
________________________________________________________________________________


	BEGINNING GENETIC ALGORITHM DOCKING 62 of 100
Run: 62 Seed: 1597911289 1946750213 [ Run 62 of 100 GA/GALS ]
Beginning LAMARCKIAN GENETIC ALGORITHM (LGA), with a maximum of 25000000 energy evaluations.

Final-Value: -17.873


	FINAL GENETIC ALGORITHM DOCKED STATE
	_______________________________________________


Detailed state:  trans 2.684 -6.785 -4.512 quatxyzw -0.143798 -0.483215 0.306561 -0.807370 center 8.287 34.468 -0.670 ntor 10 99.0471 12.1626 106.3633 -42.1531 -101.5350 -144.0081 -51.7445 -97.7531 171.4453 121.5209
State:	  2.684  -6.785  -4.512  -0.244 -0.819  0.520 -72.320     99.05   12.16  106.36  -42.15 -101.54 -144.01  -51.74  -97.75  171.45  121.52

DOCKED: MODEL       62
DOCKED: USER    Run = 62
DOCKED: USER    DPF = D:/Protein_go_brrr/autodock/final/1A3N/heme_O2/dock.dpf
DOCKED: USER  
DOCKED: USER    Estimated Free Energy of Binding    =  -13.44 kcal/mol  [=(1)+(2)+(3)-(4)]
DOCKED: USER    Estimated Inhibition Constant, Ki   =  141.79 pM (picomolar)  [Temperature = 298.15 K]
DOCKED: USER    
DOCKED: USER    (1) Final Intermolecular Energy     =  -16.42 kcal/mol
DOCKED: USER        vdW + Hbond + desolv Energy     =  -14.54 kcal/mol
DOCKED: USER        Electrostatic Energy            =   -1.88 kcal/mol
DOCKED: USER    (2) Final Total Internal Energy     =   -1.45 kcal/mol
DOCKED: USER    (3) Torsional Free Energy           =   +2.98 kcal/mol
DOCKED: USER    (4) Unbound System's Energy  [=(2)] =   -1.45 kcal/mol
DOCKED: USER    
DOCKED: USER    
DOCKED: USER    NEWDPF move heme_O2_opt.pdbqt
DOCKED: USER    NEWDPF about 8.287000 34.468000 -0.670000
DOCKED: USER    NEWDPF tran0 2.684445 -6.784936 -4.512100
DOCKED: USER    NEWDPF quaternion0 -0.143798 -0.483215 0.306561 -0.807370
DOCKED: USER    NEWDPF axisangle0 -0.243706 -0.818944 0.519555 -72.320493
DOCKED: USER    NEWDPF quat0 -0.243706 -0.818944 0.519555 -72.320493
DOCKED: USER    NEWDPF dihe0 99.05 12.16 106.36 -42.15 -101.54 -144.01 -51.74 -97.75 171.45 121.52 
DOCKED: USER  keepresnum = 1 
DOCKED: USER  
DOCKED: REMARK  10 active torsions:
DOCKED: REMARK  status: ('A' for Active; 'I' for Inactive)
DOCKED: REMARK    1  A    between atoms: C_6  and  C_10 
DOCKED: REMARK    2  A    between atoms: C_10  and  C_11 
DOCKED: REMARK    3  A    between atoms: C_11  and  C_12 
DOCKED: REMARK    4  A    between atoms: C_12  and  O_14 
DOCKED: REMARK    5  A    between atoms: C_17  and  C_20 
DOCKED: REMARK    6  A    between atoms: C_24  and  C_27 
DOCKED: REMARK    7  A    between atoms: C_31  and  C_34 
DOCKED: REMARK    8  A    between atoms: C_34  and  C_35 
DOCKED: REMARK    9  A    between atoms: C_35  and  C_36 
DOCKED: REMARK   10  A    between atoms: C_36  and  O_38 
DOCKED: USER                              x       y       z     vdW  Elec       q    Type
DOCKED: USER                           _______ _______ _______ _____ _____    ______ ____
DOCKED: ROOT
DOCKED: ATOM      1  C   UNL d   1       2.520  -7.455  -6.518 -0.23 +0.01    +0.064 A 
DOCKED: ATOM      2  C   UNL d   1       0.677  -9.050  -2.441 -0.38 +0.00    +0.064 A 
DOCKED: ATOM      3  C   UNL d   1       2.917  -5.591   0.032 -0.42 +0.00    +0.064 C 
DOCKED: ATOM      4  C   UNL d   1       4.436  -3.654  -4.212 -0.42 +0.01    +0.064 A 
DOCKED: ATOM      5  C   UNL d   1       1.834  -8.170  -5.611 -0.32 +0.01    +0.066 A 
DOCKED: ATOM      6  C   UNL d   1       1.061  -9.293  -5.921 -0.29 -0.00    -0.021 A 
DOCKED: ATOM      7  C   UNL d   1       0.492  -9.729  -4.747 -0.31 -0.00    -0.025 A 
DOCKED: ATOM      8  C   UNL d   1       0.972  -8.890  -3.745 -0.34 +0.01    +0.066 A 
DOCKED: ATOM      9  C   UNL d   1      -0.484 -10.880  -4.634 -0.29 +0.01    +0.051 C 
DOCKED: ATOM     10  C   UNL d   1       1.168  -8.216  -1.343 -0.37 +0.00    +0.066 A 
DOCKED: ATOM     11  C   UNL d   1       0.963  -8.523   0.007 -0.47 -0.00    -0.021 A 
DOCKED: ATOM     12  C   UNL d   1       1.617  -7.547   0.736 -0.44 +0.00    +0.000 A 
DOCKED: ATOM     13  C   UNL d   1       2.186  -6.674  -0.232 -0.39 +0.00    +0.070 A 
DOCKED: ATOM     14  C   UNL d   1       0.199  -9.712   0.577 -0.55 -0.00    +0.052 C 
DOCKED: ATOM     15  C   UNL d   1       3.481  -4.662  -0.918 -0.36 +0.00    +0.066 A 
DOCKED: ATOM     16  C   UNL d   1       4.097  -3.458  -0.577 -0.45 -0.00    -0.021 A 
DOCKED: ATOM     17  C   UNL d   1       4.537  -2.888  -1.771 -0.47 +0.00    +0.000 A 
DOCKED: ATOM     18  C   UNL d   1       4.154  -3.800  -2.765 -0.39 +0.01    +0.070 A 
DOCKED: ATOM     19  C   UNL d   1       4.161  -2.939   0.838 -0.59 +0.00    +0.052 C 
DOCKED: ATOM     20  C   UNL d   1       4.045  -4.487  -5.196 -0.40 +0.01    +0.066 A 
DOCKED: ATOM     21  C   UNL d   1       4.356  -4.307  -6.541 -0.41 -0.00    -0.025 A 
DOCKED: ATOM     22  C   UNL d   1       3.841  -5.395  -7.209 -0.25 -0.00    -0.021 A 
DOCKED: ATOM     23  C   UNL d   1       3.217  -6.193  -6.246 -0.15 +0.01    +0.066 A 
DOCKED: ATOM     24  C   UNL d   1       5.104  -3.152  -7.157 -0.49 +0.00    +0.051 C 
DOCKED: ATOM     25  N   UNL d   1       1.746  -7.891  -4.287 -0.19 -0.03    -0.248 N 
DOCKED: ATOM     26  N   UNL d   1       1.904  -7.086  -1.494 -0.20 +0.00    -0.248 N 
DOCKED: ATOM     27  N   UNL d   1       3.449  -4.833  -2.237 -0.23 -0.01    -0.248 N 
DOCKED: ATOM     28  N   UNL d   1       3.304  -5.615  -5.030 -0.25 -0.04    -0.248 N 
DOCKED: ATOM     29 FE   UNL d   1       2.610  -6.342  -3.274 -0.09 -0.00    +0.000 Fe
DOCKED: ATOM     30  O   UNL d   1       1.058  -6.255  -3.350 -0.20 +0.00    +0.000 OA
DOCKED: ATOM     31  O   UNL d   1       1.922  -4.948  -3.512 -0.54 +0.00    +0.000 OA
DOCKED: ENDROOT
DOCKED: BRANCH   6  32
DOCKED: ATOM     32  C   UNL d   1       0.755  -9.854  -7.285 -0.22 +0.01    +0.052 C 
DOCKED: BRANCH  32  33
DOCKED: ATOM     33  C   UNL d   1      -0.666  -9.546  -7.748 -0.11 +0.06    +0.115 C 
DOCKED: BRANCH  33  34
DOCKED: ATOM     34  C   UNL d   1      -0.698  -8.875  -9.099 +0.01 +0.11    +0.139 C 
DOCKED: ATOM     35  O   UNL d   1      -1.080  -9.501 -10.074 -0.02 -0.37    -0.650 OA
DOCKED: BRANCH  34  36
DOCKED: ATOM     36  O   UNL d   1      -0.286  -7.601  -9.261 -0.24 -1.03    -0.776 OA
DOCKED: ATOM     37  H   UNL d   1       0.592  -7.387  -9.599 +0.04 +0.15    +0.167 HD
DOCKED: ENDBRANCH  34  36
DOCKED: ENDBRANCH  33  34
DOCKED: ENDBRANCH  32  33
DOCKED: ENDBRANCH   6  32
DOCKED: BRANCH  22  38
DOCKED: ATOM     38  C   UNL d   1       3.894  -5.616  -8.699 -0.17 +0.01    +0.052 C 
DOCKED: BRANCH  38  39
DOCKED: ATOM     39  C   UNL d   1       2.568  -6.124  -9.259 -0.18 +0.04    +0.115 C 
DOCKED: BRANCH  39  40
DOCKED: ATOM     40  C   UNL d   1       1.572  -5.013  -9.480 -0.24 +0.08    +0.139 C 
DOCKED: ATOM     41  O   UNL d   1       1.882  -3.861  -9.222 -0.04 -0.26    -0.650 OA
DOCKED: BRANCH  40  42
DOCKED: ATOM     42  O   UNL d   1       0.357  -5.262 -10.007 -0.41 -0.97    -0.776 OA
DOCKED: ATOM     43  H   UNL d   1       0.005  -6.158 -10.062 +0.04 +0.30    +0.167 HD
DOCKED: ENDBRANCH  40  42
DOCKED: ENDBRANCH  39  40
DOCKED: ENDBRANCH  38  39
DOCKED: ENDBRANCH  22  38
DOCKED: BRANCH  12  44
DOCKED: ATOM     44  C   UNL d   1       1.628  -7.547   2.251 -0.24 +0.00    +0.004 C 
DOCKED: ATOM     45  C   UNL d   1       0.657  -7.159   3.076 -0.56 +0.00    +0.012 C 
DOCKED: ENDBRANCH  12  44
DOCKED: BRANCH  17  46
DOCKED: ATOM     46  C   UNL d   1       5.214  -1.572  -2.047 -0.63 +0.00    +0.004 C 
DOCKED: ATOM     47  C   UNL d   1       4.862  -0.353  -1.619 -0.70 +0.00    +0.012 C 
DOCKED: ENDBRANCH  17  46
DOCKED: TORSDOF 10
DOCKED: TER
DOCKED: ENDMDL
________________________________________________________________________________


	BEGINNING GENETIC ALGORITHM DOCKING 63 of 100
Run: 63 Seed: 610614541 2144574284 [ Run 63 of 100 GA/GALS ]
Beginning LAMARCKIAN GENETIC ALGORITHM (LGA), with a maximum of 25000000 energy evaluations.

Final-Value: -19.897


	FINAL GENETIC ALGORITHM DOCKED STATE
	_______________________________________________


Detailed state:  trans 8.243 11.993 28.258 quatxyzw -0.755651 0.414169 0.486760 0.143252 center 8.287 34.468 -0.670 ntor 10 129.7856 84.7640 43.1119 -69.4450 135.9110 48.6467 -64.8166 22.0266 -138.7713 170.8818
State:	  8.243  11.993  28.258  -0.764  0.418  0.492 163.528    129.79   84.76   43.11  -69.45  135.91   48.65  -64.82   22.03 -138.77  170.88

DOCKED: MODEL       63
DOCKED: USER    Run = 63
DOCKED: USER    DPF = D:/Protein_go_brrr/autodock/final/1A3N/heme_O2/dock.dpf
DOCKED: USER  
DOCKED: USER    Estimated Free Energy of Binding    =  -14.50 kcal/mol  [=(1)+(2)+(3)-(4)]
DOCKED: USER    Estimated Inhibition Constant, Ki   =   23.34 pM (picomolar)  [Temperature = 298.15 K]
DOCKED: USER    
DOCKED: USER    (1) Final Intermolecular Energy     =  -17.49 kcal/mol
DOCKED: USER        vdW + Hbond + desolv Energy     =  -15.55 kcal/mol
DOCKED: USER        Electrostatic Energy            =   -1.94 kcal/mol
DOCKED: USER    (2) Final Total Internal Energy     =   -2.41 kcal/mol
DOCKED: USER    (3) Torsional Free Energy           =   +2.98 kcal/mol
DOCKED: USER    (4) Unbound System's Energy  [=(2)] =   -2.41 kcal/mol
DOCKED: USER    
DOCKED: USER    
DOCKED: USER    NEWDPF move heme_O2_opt.pdbqt
DOCKED: USER    NEWDPF about 8.287000 34.468000 -0.670000
DOCKED: USER    NEWDPF tran0 8.242711 11.993378 28.257716
DOCKED: USER    NEWDPF quaternion0 -0.755651 0.414169 0.486760 0.143252
DOCKED: USER    NEWDPF axisangle0 -0.763526 0.418485 0.491832 163.527884
DOCKED: USER    NEWDPF quat0 -0.763526 0.418485 0.491832 163.527884
DOCKED: USER    NEWDPF dihe0 129.79 84.76 43.11 -69.45 135.91 48.65 -64.82 22.03 -138.77 170.88 
DOCKED: USER  keepresnum = 1 
DOCKED: USER  
DOCKED: REMARK  10 active torsions:
DOCKED: REMARK  status: ('A' for Active; 'I' for Inactive)
DOCKED: REMARK    1  A    between atoms: C_6  and  C_10 
DOCKED: REMARK    2  A    between atoms: C_10  and  C_11 
DOCKED: REMARK    3  A    between atoms: C_11  and  C_12 
DOCKED: REMARK    4  A    between atoms: C_12  and  O_14 
DOCKED: REMARK    5  A    between atoms: C_17  and  C_20 
DOCKED: REMARK    6  A    between atoms: C_24  and  C_27 
DOCKED: REMARK    7  A    between atoms: C_31  and  C_34 
DOCKED: REMARK    8  A    between atoms: C_34  and  C_35 
DOCKED: REMARK    9  A    between atoms: C_35  and  C_36 
DOCKED: REMARK   10  A    between atoms: C_36  and  O_38 
DOCKED: USER                              x       y       z     vdW  Elec       q    Type
DOCKED: USER                           _______ _______ _______ _____ _____    ______ ____
DOCKED: ROOT
DOCKED: ATOM      1  C   UNL d   1       8.291  12.905  30.173 -0.17 +0.02    +0.064 A 
DOCKED: ATOM      2  C   UNL d   1       6.666  14.377  25.960 -0.38 +0.01    +0.064 A 
DOCKED: ATOM      3  C   UNL d   1       8.062  10.274  23.883 -0.40 +0.00    +0.064 C 
DOCKED: ATOM      4  C   UNL d   1       9.306   8.554  28.306 -0.38 +0.01    +0.064 A 
DOCKED: ATOM      5  C   UNL d   1       7.733  13.639  29.196 -0.26 +0.01    +0.066 A 
DOCKED: ATOM      6  C   UNL d   1       7.217  14.925  29.382 -0.38 -0.00    -0.021 A 
DOCKED: ATOM      7  C   UNL d   1       6.707  15.335  28.172 -0.44 -0.00    -0.025 A 
DOCKED: ATOM      8  C   UNL d   1       6.969  14.308  27.270 -0.37 +0.01    +0.066 A 
DOCKED: ATOM      9  C   UNL d   1       5.983  16.642  27.937 -0.42 +0.00    +0.051 C 
DOCKED: ATOM     10  C   UNL d   1       6.936  13.342  24.961 -0.35 +0.00    +0.066 A 
DOCKED: ATOM     11  C   UNL d   1       6.750  13.531  23.587 -0.37 -0.00    -0.021 A 
DOCKED: ATOM     12  C   UNL d   1       7.164  12.365  22.970 -0.41 +0.00    +0.000 A 
DOCKED: ATOM     13  C   UNL d   1       7.578  11.507  24.026 -0.26 +0.00    +0.070 A 
DOCKED: ATOM     14  C   UNL d   1       6.225  14.780  22.890 -0.43 +0.00    +0.052 C 
DOCKED: ATOM     15  C   UNL d   1       8.459   9.361  24.929 -0.39 +0.01    +0.066 A 
DOCKED: ATOM     16  C   UNL d   1       8.803   8.026  24.723 -0.52 -0.00    -0.021 A 
DOCKED: ATOM     17  C   UNL d   1       9.160   7.514  25.971 -0.47 +0.00    +0.000 A 
DOCKED: ATOM     18  C   UNL d   1       9.007   8.592  26.855 -0.38 +0.01    +0.070 A 
DOCKED: ATOM     19  C   UNL d   1       8.708   7.349  23.379 -0.55 +0.00    +0.052 C 
DOCKED: ATOM     20  C   UNL d   1       9.129   9.555  29.190 -0.38 +0.01    +0.066 A 
DOCKED: ATOM     21  C   UNL d   1       9.446   9.467  30.543 -0.42 -0.01    -0.025 A 
DOCKED: ATOM     22  C   UNL d   1       9.189  10.706  31.085 -0.33 -0.01    -0.021 A 
DOCKED: ATOM     23  C   UNL d   1       8.706  11.503  30.043 -0.32 +0.02    +0.066 A 
DOCKED: ATOM     24  C   UNL d   1       9.964   8.260  31.281 -0.53 +0.02    +0.051 C 
DOCKED: ATOM     25  N   UNL d   1       7.543  13.237  27.916 -0.20 -0.03    -0.248 N 
DOCKED: ATOM     26  N   UNL d   1       7.431  12.108  25.235 -0.22 -0.01    -0.248 N 
DOCKED: ATOM     27  N   UNL d   1       8.509   9.682  26.218 -0.22 -0.03    -0.248 N 
DOCKED: ATOM     28  N   UNL d   1       8.629  10.786  28.902 -0.25 -0.04    -0.248 N 
DOCKED: ATOM     29 FE   UNL d   1       8.035  11.439  27.081 -0.08 +0.00    +0.000 Fe
DOCKED: ATOM     30  O   UNL d   1       6.501  11.685  27.186 -0.43 +0.00    +0.000 OA
DOCKED: ATOM     31  O   UNL d   1       7.086  10.254  27.489 -0.72 +0.00    +0.000 OA
DOCKED: ENDROOT
DOCKED: BRANCH   6  32
DOCKED: ATOM     32  C   UNL d   1       7.082  15.688  30.674 -0.36 +0.02    +0.052 C 
DOCKED: BRANCH  32  33
DOCKED: ATOM     33  C   UNL d   1       6.304  14.918  31.738 -0.29 +0.07    +0.115 C 
DOCKED: BRANCH  33  34
DOCKED: ATOM     34  C   UNL d   1       7.169  14.520  32.908 -0.24 +0.11    +0.139 C 
DOCKED: ATOM     35  O   UNL d   1       8.384  14.572  32.805 +0.03 -0.38    -0.650 OA
DOCKED: BRANCH  34  36
DOCKED: ATOM     36  O   UNL d   1       6.629  14.080  34.063 +0.09 -1.24    -0.776 OA
DOCKED: ATOM     37  H   UNL d   1       6.927  13.267  34.489 +0.06 +0.20    +0.167 HD
DOCKED: ENDBRANCH  34  36
DOCKED: ENDBRANCH  33  34
DOCKED: ENDBRANCH  32  33
DOCKED: ENDBRANCH   6  32
DOCKED: BRANCH  22  38
DOCKED: ATOM     38  C   UNL d   1       9.339  11.078  32.538 -0.30 +0.03    +0.052 C 
DOCKED: BRANCH  38  39
DOCKED: ATOM     39  C   UNL d   1       8.083  10.772  33.350 -0.33 +0.05    +0.115 C 
DOCKED: BRANCH  39  40
DOCKED: ATOM     40  C   UNL d   1       8.017  11.566  34.631 -0.20 +0.09    +0.139 C 
DOCKED: ATOM     41  O   UNL d   1       7.209  11.259  35.493 -0.01 -0.44    -0.650 OA
DOCKED: BRANCH  40  42
DOCKED: ATOM     42  O   UNL d   1       8.872  12.580  34.865 +0.10 -0.59    -0.776 OA
DOCKED: ATOM     43  H   UNL d   1       8.682  13.479  34.569 +0.06 +0.13    +0.167 HD
DOCKED: ENDBRANCH  40  42
DOCKED: ENDBRANCH  39  40
DOCKED: ENDBRANCH  38  39
DOCKED: ENDBRANCH  22  38
DOCKED: BRANCH  12  44
DOCKED: ATOM     44  C   UNL d   1       7.120  12.192  21.466 -0.60 -0.00    +0.004 C 
DOCKED: ATOM     45  C   UNL d   1       6.790  11.100  20.776 -0.74 -0.00    +0.012 C 
DOCKED: ENDBRANCH  12  44
DOCKED: BRANCH  17  46
DOCKED: ATOM     46  C   UNL d   1       9.564   6.126  26.391 -0.64 +0.00    +0.004 C 
DOCKED: ATOM     47  C   UNL d   1       8.782   5.054  26.571 -0.74 +0.00    +0.012 C 
DOCKED: ENDBRANCH  17  46
DOCKED: TORSDOF 10
DOCKED: TER
DOCKED: ENDMDL
________________________________________________________________________________


	BEGINNING GENETIC ALGORITHM DOCKING 64 of 100
Run: 64 Seed: 1615295490 2007504369 [ Run 64 of 100 GA/GALS ]
Beginning LAMARCKIAN GENETIC ALGORITHM (LGA), with a maximum of 25000000 energy evaluations.

Final-Value: -16.594


	FINAL GENETIC ALGORITHM DOCKED STATE
	_______________________________________________


Detailed state:  trans 7.555 13.596 30.690 quatxyzw 0.127425 0.741341 -0.189221 -0.631167 center 8.287 34.468 -0.670 ntor 10 -18.8763 80.6298 -90.9127 67.9775 -135.7398 -166.8520 92.4343 73.5270 -164.5195 145.8668
State:	  7.555  13.596  30.690   0.164  0.956 -0.244 -101.727    -18.88   80.63  -90.91   67.98 -135.74 -166.85   92.43   73.53 -164.52  145.87

DOCKED: MODEL       64
DOCKED: USER    Run = 64
DOCKED: USER    DPF = D:/Protein_go_brrr/autodock/final/1A3N/heme_O2/dock.dpf
DOCKED: USER  
DOCKED: USER    Estimated Free Energy of Binding    =  -12.85 kcal/mol  [=(1)+(2)+(3)-(4)]
DOCKED: USER    Estimated Inhibition Constant, Ki   =  383.56 pM (picomolar)  [Temperature = 298.15 K]
DOCKED: USER    
DOCKED: USER    (1) Final Intermolecular Energy     =  -15.83 kcal/mol
DOCKED: USER        vdW + Hbond + desolv Energy     =  -12.85 kcal/mol
DOCKED: USER        Electrostatic Energy            =   -2.97 kcal/mol
DOCKED: USER    (2) Final Total Internal Energy     =   -0.76 kcal/mol
DOCKED: USER    (3) Torsional Free Energy           =   +2.98 kcal/mol
DOCKED: USER    (4) Unbound System's Energy  [=(2)] =   -0.76 kcal/mol
DOCKED: USER    
DOCKED: USER    
DOCKED: USER    NEWDPF move heme_O2_opt.pdbqt
DOCKED: USER    NEWDPF about 8.287000 34.468000 -0.670000
DOCKED: USER    NEWDPF tran0 7.554523 13.595986 30.690007
DOCKED: USER    NEWDPF quaternion0 0.127425 0.741341 -0.189221 -0.631167
DOCKED: USER    NEWDPF axisangle0 0.164282 0.955771 -0.243952 -101.727403
DOCKED: USER    NEWDPF quat0 0.164282 0.955771 -0.243952 -101.727403
DOCKED: USER    NEWDPF dihe0 -18.88 80.63 -90.91 67.98 -135.74 -166.85 92.43 73.53 -164.52 145.87 
DOCKED: USER  keepresnum = 1 
DOCKED: USER  
DOCKED: REMARK  10 active torsions:
DOCKED: REMARK  status: ('A' for Active; 'I' for Inactive)
DOCKED: REMARK    1  A    between atoms: C_6  and  C_10 
DOCKED: REMARK    2  A    between atoms: C_10  and  C_11 
DOCKED: REMARK    3  A    between atoms: C_11  and  C_12 
DOCKED: REMARK    4  A    between atoms: C_12  and  O_14 
DOCKED: REMARK    5  A    between atoms: C_17  and  C_20 
DOCKED: REMARK    6  A    between atoms: C_24  and  C_27 
DOCKED: REMARK    7  A    between atoms: C_31  and  C_34 
DOCKED: REMARK    8  A    between atoms: C_34  and  C_35 
DOCKED: REMARK    9  A    between atoms: C_35  and  C_36 
DOCKED: REMARK   10  A    between atoms: C_36  and  O_38 
DOCKED: USER                              x       y       z     vdW  Elec       q    Type
DOCKED: USER                           _______ _______ _______ _____ _____    ______ ____
DOCKED: ROOT
DOCKED: ATOM      1  C   UNL d   1       7.421  14.582  32.563 -0.25 +0.04    +0.064 A 
DOCKED: ATOM      2  C   UNL d   1       9.344  10.444  31.246 -0.33 +0.02    +0.064 A 
DOCKED: ATOM      3  C   UNL d   1       7.941  11.133  26.701 -0.39 +0.00    +0.064 C 
DOCKED: ATOM      4  C   UNL d   1       6.377  15.612  27.950 -0.44 +0.01    +0.064 A 
DOCKED: ATOM      5  C   UNL d   1       8.060  13.401  32.575 -0.23 +0.04    +0.066 A 
DOCKED: ATOM      6  C   UNL d   1       8.607  12.818  33.723 -0.20 -0.01    -0.021 A 
DOCKED: ATOM      7  C   UNL d   1       9.202  11.640  33.335 -0.24 -0.02    -0.025 A 
DOCKED: ATOM      8  C   UNL d   1       8.960  11.513  31.969 -0.25 +0.03    +0.066 A 
DOCKED: ATOM      9  C   UNL d   1       9.981  10.722  34.250 -0.25 +0.04    +0.051 C 
DOCKED: ATOM     10  C   UNL d   1       9.100  10.243  29.816 -0.38 +0.02    +0.066 A 
DOCKED: ATOM     11  C   UNL d   1       9.375   9.044  29.150 -0.42 -0.00    -0.021 A 
DOCKED: ATOM     12  C   UNL d   1       8.961   9.217  27.842 -0.43 +0.00    +0.000 A 
DOCKED: ATOM     13  C   UNL d   1       8.456  10.545  27.781 -0.34 +0.01    +0.070 A 
DOCKED: ATOM     14  C   UNL d   1       9.982   7.777  29.742 -0.44 +0.01    +0.052 C 
DOCKED: ATOM     15  C   UNL d   1       7.452  12.486  26.589 -0.33 +0.00    +0.066 A 
DOCKED: ATOM     16  C   UNL d   1       7.077  13.095  25.392 -0.38 -0.00    -0.021 A 
DOCKED: ATOM     17  C   UNL d   1       6.629  14.373  25.723 -0.42 +0.00    +0.000 A 
DOCKED: ATOM     18  C   UNL d   1       6.764  14.449  27.116 -0.38 +0.01    +0.070 A 
DOCKED: ATOM     19  C   UNL d   1       7.231  12.429  24.048 -0.41 +0.00    +0.052 C 
DOCKED: ATOM     20  C   UNL d   1       6.534  15.735  29.282 -0.39 +0.01    +0.066 A 
DOCKED: ATOM     21  C   UNL d   1       6.134  16.849  30.015 -0.37 -0.01    -0.025 A 
DOCKED: ATOM     22  C   UNL d   1       6.399  16.561  31.336 -0.22 -0.01    -0.021 A 
DOCKED: ATOM     23  C   UNL d   1       6.969  15.285  31.357 -0.29 +0.03    +0.066 A 
DOCKED: ATOM     24  C   UNL d   1       5.533  18.124  29.483 -0.40 +0.00    +0.051 C 
DOCKED: ATOM     25  N   UNL d   1       8.314  12.629  31.490 -0.16 -0.09    -0.248 N 
DOCKED: ATOM     26  N   UNL d   1       8.550  11.164  28.985 -0.23 -0.04    -0.248 N 
DOCKED: ATOM     27  N   UNL d   1       7.335  13.324  27.616 -0.23 -0.03    -0.248 N 
DOCKED: ATOM     28  N   UNL d   1       7.091  14.805  30.102 -0.21 -0.07    -0.248 N 
DOCKED: ATOM     29 FE   UNL d   1       7.814  12.999  29.545 -0.08 +0.00    +0.000 Fe
DOCKED: ATOM     30  O   UNL d   1       9.346  13.041  29.819 -0.38 +0.00    +0.000 OA
DOCKED: ATOM     31  O   UNL d   1       8.697  14.097  28.846 +0.23 +0.00    +0.000 OA
DOCKED: ENDROOT
DOCKED: BRANCH   6  32
DOCKED: ATOM     32  C   UNL d   1       8.689  13.407  35.107 -0.14 +0.04    +0.052 C 
DOCKED: BRANCH  32  33
DOCKED: ATOM     33  C   UNL d   1       9.850  14.383  35.268 -0.14 +0.08    +0.115 C 
DOCKED: BRANCH  33  34
DOCKED: ATOM     34  C   UNL d   1      11.117  13.700  35.720 -0.18 +0.15    +0.139 C 
DOCKED: ATOM     35  O   UNL d   1      11.742  13.005  34.935 -0.30 -1.30    -0.650 OA
DOCKED: BRANCH  34  36
DOCKED: ATOM     36  O   UNL d   1      11.565  13.817  36.988 +0.01 -0.76    -0.776 OA
DOCKED: ATOM     37  H   UNL d   1      11.267  14.523  37.572 +0.02 +0.11    +0.167 HD
DOCKED: ENDBRANCH  34  36
DOCKED: ENDBRANCH  33  34
DOCKED: ENDBRANCH  32  33
DOCKED: ENDBRANCH   6  32
DOCKED: BRANCH  22  38
DOCKED: ATOM     38  C   UNL d   1       6.173  17.492  32.499 +0.09 +0.03    +0.052 C 
DOCKED: BRANCH  38  39
DOCKED: ATOM     39  C   UNL d   1       7.482  17.951  33.139 -0.16 +0.06    +0.115 C 
DOCKED: BRANCH  39  40
DOCKED: ATOM     40  C   UNL d   1       7.720  17.314  34.485 -0.12 +0.11    +0.139 C 
DOCKED: ATOM     41  O   UNL d   1       6.777  16.870  35.121 -0.54 -1.15    -0.650 OA
DOCKED: BRANCH  40  42
DOCKED: ATOM     42  O   UNL d   1       8.966  17.177  34.979 +0.02 -0.43    -0.776 OA
DOCKED: ATOM     43  H   UNL d   1       9.406  17.898  35.444 +0.02 +0.07    +0.167 HD
DOCKED: ENDBRANCH  40  42
DOCKED: ENDBRANCH  39  40
DOCKED: ENDBRANCH  38  39
DOCKED: ENDBRANCH  22  38
DOCKED: BRANCH  12  44
DOCKED: ATOM     44  C   UNL d   1       9.089   8.119  26.806 -0.51 +0.00    +0.004 C 
DOCKED: ATOM     45  C   UNL d   1       8.246   7.115  26.568 -0.56 +0.00    +0.012 C 
DOCKED: ENDBRANCH  12  44
DOCKED: BRANCH  17  46
DOCKED: ATOM     46  C   UNL d   1       6.155  15.510  24.856 -0.56 +0.00    +0.004 C 
DOCKED: ATOM     47  C   UNL d   1       5.106  15.535  24.024 -0.59 +0.00    +0.012 C 
DOCKED: ENDBRANCH  17  46
DOCKED: TORSDOF 10
DOCKED: TER
DOCKED: ENDMDL
________________________________________________________________________________


	BEGINNING GENETIC ALGORITHM DOCKING 65 of 100
Run: 65 Seed: 775044235 1765109901 [ Run 65 of 100 GA/GALS ]
Beginning LAMARCKIAN GENETIC ALGORITHM (LGA), with a maximum of 25000000 energy evaluations.

Final-Value: -13.944


	FINAL GENETIC ALGORITHM DOCKED STATE
	_______________________________________________


Detailed state:  trans 0.478 -8.446 -5.727 quatxyzw 0.720775 0.117143 0.683187 0.004174 center 8.287 34.468 -0.670 ntor 10 -12.7331 -104.5246 51.5019 15.2012 56.4500 -18.5266 -117.8282 105.5767 13.4810 166.8784
State:	  0.478  -8.446  -5.727   0.721  0.117  0.683 179.522    -12.73 -104.52   51.50   15.20   56.45  -18.53 -117.83  105.58   13.48  166.88

DOCKED: MODEL       65
DOCKED: USER    Run = 65
DOCKED: USER    DPF = D:/Protein_go_brrr/autodock/final/1A3N/heme_O2/dock.dpf
DOCKED: USER  
DOCKED: USER    Estimated Free Energy of Binding    =  -10.16 kcal/mol  [=(1)+(2)+(3)-(4)]
DOCKED: USER    Estimated Inhibition Constant, Ki   =   35.87 nM (nanomolar)  [Temperature = 298.15 K]
DOCKED: USER    
DOCKED: USER    (1) Final Intermolecular Energy     =  -13.14 kcal/mol
DOCKED: USER        vdW + Hbond + desolv Energy     =  -11.78 kcal/mol
DOCKED: USER        Electrostatic Energy            =   -1.36 kcal/mol
DOCKED: USER    (2) Final Total Internal Energy     =   -0.80 kcal/mol
DOCKED: USER    (3) Torsional Free Energy           =   +2.98 kcal/mol
DOCKED: USER    (4) Unbound System's Energy  [=(2)] =   -0.80 kcal/mol
DOCKED: USER    
DOCKED: USER    
DOCKED: USER    NEWDPF move heme_O2_opt.pdbqt
DOCKED: USER    NEWDPF about 8.287000 34.468000 -0.670000
DOCKED: USER    NEWDPF tran0 0.477751 -8.446464 -5.726507
DOCKED: USER    NEWDPF quaternion0 0.720775 0.117143 0.683187 0.004174
DOCKED: USER    NEWDPF axisangle0 0.720781 0.117144 0.683193 179.521664
DOCKED: USER    NEWDPF quat0 0.720781 0.117144 0.683193 179.521664
DOCKED: USER    NEWDPF dihe0 -12.73 -104.52 51.50 15.20 56.45 -18.53 -117.83 105.58 13.48 166.88 
DOCKED: USER  keepresnum = 1 
DOCKED: USER  
DOCKED: REMARK  10 active torsions:
DOCKED: REMARK  status: ('A' for Active; 'I' for Inactive)
DOCKED: REMARK    1  A    between atoms: C_6  and  C_10 
DOCKED: REMARK    2  A    between atoms: C_10  and  C_11 
DOCKED: REMARK    3  A    between atoms: C_11  and  C_12 
DOCKED: REMARK    4  A    between atoms: C_12  and  O_14 
DOCKED: REMARK    5  A    between atoms: C_17  and  C_20 
DOCKED: REMARK    6  A    between atoms: C_24  and  C_27 
DOCKED: REMARK    7  A    between atoms: C_31  and  C_34 
DOCKED: REMARK    8  A    between atoms: C_34  and  C_35 
DOCKED: REMARK    9  A    between atoms: C_35  and  C_36 
DOCKED: REMARK   10  A    between atoms: C_36  and  O_38 
DOCKED: USER                              x       y       z     vdW  Elec       q    Type
DOCKED: USER                           _______ _______ _______ _____ _____    ______ ____
DOCKED: ROOT
DOCKED: ATOM      1  C   UNL d   1      -0.277  -9.470  -7.424 -0.17 +0.03    +0.064 A 
DOCKED: ATOM      2  C   UNL d   1       2.940  -6.010  -6.932 -0.27 +0.02    +0.064 A 
DOCKED: ATOM      3  C   UNL d   1       2.284  -5.951  -2.172 -0.35 +0.00    +0.064 C 
DOCKED: ATOM      4  C   UNL d   1      -0.677  -9.838  -2.613 -0.36 +0.00    +0.064 A 
DOCKED: ATOM      5  C   UNL d   1       0.653  -8.535  -7.679 -0.21 +0.03    +0.066 A 
DOCKED: ATOM      6  C   UNL d   1       1.113  -8.217  -8.960 -0.18 -0.01    -0.021 A 
DOCKED: ATOM      7  C   UNL d   1       2.076  -7.246  -8.815 -0.20 -0.01    -0.025 A 
DOCKED: ATOM      8  C   UNL d   1       2.142  -6.963  -7.453 -0.21 +0.02    +0.066 A 
DOCKED: ATOM      9  C   UNL d   1       2.894  -6.663  -9.946 -0.14 +0.01    +0.051 C 
DOCKED: ATOM     10  C   UNL d   1       3.036  -5.653  -5.516 -0.28 +0.01    +0.066 A 
DOCKED: ATOM     11  C   UNL d   1       3.756  -4.548  -5.049 -0.42 -0.00    -0.021 A 
DOCKED: ATOM     12  C   UNL d   1       3.565  -4.503  -3.681 -0.42 +0.00    +0.000 A 
DOCKED: ATOM     13  C   UNL d   1       2.730  -5.615  -3.382 -0.25 +0.01    +0.070 A 
DOCKED: ATOM     14  C   UNL d   1       4.570  -3.560  -5.877 -0.50 +0.01    +0.052 C 
DOCKED: ATOM     15  C   UNL d   1       1.467  -7.088  -1.823 -0.24 +0.00    +0.066 A 
DOCKED: ATOM     16  C   UNL d   1       1.169  -7.478  -0.518 -0.38 -0.00    -0.021 A 
DOCKED: ATOM     17  C   UNL d   1       0.327  -8.585  -0.619 -0.47 +0.00    +0.000 A 
DOCKED: ATOM     18  C   UNL d   1       0.170  -8.789  -1.997 -0.41 +0.00    +0.070 A 
DOCKED: ATOM     19  C   UNL d   1       1.754  -6.800   0.696 -0.45 +0.00    +0.052 C 
DOCKED: ATOM     20  C   UNL d   1      -0.816 -10.089  -3.930 -0.34 +0.01    +0.066 A 
DOCKED: ATOM     21  C   UNL d   1      -1.642 -11.080  -4.452 -0.27 -0.00    -0.025 A 
DOCKED: ATOM     22  C   UNL d   1      -1.562 -10.972  -5.822 -0.15 -0.00    -0.021 A 
DOCKED: ATOM     23  C   UNL d   1      -0.672  -9.926  -6.086 -0.15 +0.02    +0.066 A 
DOCKED: ATOM     24  C   UNL d   1      -2.464 -12.081  -3.683 -0.27 -0.00    +0.051 C 
DOCKED: ATOM     25  N   UNL d   1       1.313  -7.803  -6.748 -0.16 -0.10    -0.248 N 
DOCKED: ATOM     26  N   UNL d   1       2.417  -6.312  -4.504 -0.22 -0.04    -0.248 N 
DOCKED: ATOM     27  N   UNL d   1       0.928  -7.919  -2.711 -0.24 -0.02    -0.248 N 
DOCKED: ATOM     28  N   UNL d   1      -0.186  -9.422  -4.933 -0.19 -0.05    -0.248 N 
DOCKED: ATOM     29 FE   UNL d   1       1.106  -7.879  -4.717 -0.07 +0.00    +0.000 Fe
DOCKED: ATOM     30  O   UNL d   1       2.484  -8.391  -5.228 -0.37 +0.00    +0.000 OA
DOCKED: ATOM     31  O   UNL d   1       1.761  -9.141  -4.046 -0.21 +0.00    +0.000 OA
DOCKED: ENDROOT
DOCKED: BRANCH   6  32
DOCKED: ATOM     32  C   UNL d   1       0.764  -8.894 -10.260 -0.10 +0.02    +0.052 C 
DOCKED: BRANCH  32  33
DOCKED: ATOM     33  C   UNL d   1      -0.334  -8.167 -11.030 -0.09 +0.08    +0.115 C 
DOCKED: BRANCH  33  34
DOCKED: ATOM     34  C   UNL d   1       0.051  -6.752 -11.383 -0.09 +0.12    +0.139 C 
DOCKED: ATOM     35  O   UNL d   1      -0.283  -5.835 -10.650 -0.43 -1.08    -0.650 OA
DOCKED: BRANCH  34  36
DOCKED: ATOM     36  O   UNL d   1       0.735  -6.470 -12.511 +0.04 -0.36    -0.776 OA
DOCKED: ATOM     37  H   UNL d   1       1.155  -7.158 -13.039 +0.01 +0.05    +0.167 HD
DOCKED: ENDBRANCH  34  36
DOCKED: ENDBRANCH  33  34
DOCKED: ENDBRANCH  32  33
DOCKED: ENDBRANCH   6  32
DOCKED: BRANCH  22  38
DOCKED: ATOM     38  C   UNL d   1      -2.254 -11.868  -6.816 -0.12 +0.01    +0.052 C 
DOCKED: BRANCH  38  39
DOCKED: ATOM     39  C   UNL d   1      -1.393 -13.063  -7.221 -0.07 +0.01    +0.115 C 
DOCKED: BRANCH  39  40
DOCKED: ATOM     40  C   UNL d   1      -0.292 -12.681  -8.178 -0.07 +0.02    +0.139 C 
DOCKED: ATOM     41  O   UNL d   1       0.865 -12.968  -7.917 -0.00 -0.06    -0.650 OA
DOCKED: BRANCH  40  42
DOCKED: ATOM     42  O   UNL d   1      -0.567 -12.071  -9.348 +0.03 -0.13    -0.776 OA
DOCKED: ATOM     43  H   UNL d   1      -0.571 -12.557 -10.181 +0.01 +0.02    +0.167 HD
DOCKED: ENDBRANCH  40  42
DOCKED: ENDBRANCH  39  40
DOCKED: ENDBRANCH  38  39
DOCKED: ENDBRANCH  22  38
DOCKED: BRANCH  12  44
DOCKED: ATOM     44  C   UNL d   1       4.189  -3.427  -2.816 -0.51 +0.00    +0.004 C 
DOCKED: ATOM     45  C   UNL d   1       4.847  -3.579  -1.668 -0.53 +0.00    +0.012 C 
DOCKED: ENDBRANCH  12  44
DOCKED: BRANCH  17  46
DOCKED: ATOM     46  C   UNL d   1      -0.273  -9.470   0.441 -0.60 -0.00    +0.004 C 
DOCKED: ATOM     47  C   UNL d   1      -0.257  -9.300   1.770 -0.70 -0.00    +0.012 C 
DOCKED: ENDBRANCH  17  46
DOCKED: TORSDOF 10
DOCKED: TER
DOCKED: ENDMDL
________________________________________________________________________________


	BEGINNING GENETIC ALGORITHM DOCKING 66 of 100
Run: 66 Seed: 1562449813 267684166 [ Run 66 of 100 GA/GALS ]
Beginning LAMARCKIAN GENETIC ALGORITHM (LGA), with a maximum of 25000000 energy evaluations.

Final-Value: -18.544


	FINAL GENETIC ALGORITHM DOCKED STATE
	_______________________________________________


Detailed state:  trans 23.147 6.740 -3.442 quatxyzw -0.487542 0.142534 -0.827823 -0.238110 center 8.287 34.468 -0.670 ntor 10 -166.8769 20.0144 29.5265 -59.1585 -12.3172 117.0440 -36.2954 -66.8446 -115.5717 172.1150
State:	 23.147   6.740  -3.442  -0.502  0.147 -0.852 -152.450   -166.88   20.01   29.53  -59.16  -12.32  117.04  -36.30  -66.84 -115.57  172.11

DOCKED: MODEL       66
DOCKED: USER    Run = 66
DOCKED: USER    DPF = D:/Protein_go_brrr/autodock/final/1A3N/heme_O2/dock.dpf
DOCKED: USER  
DOCKED: USER    Estimated Free Energy of Binding    =  -15.03 kcal/mol  [=(1)+(2)+(3)-(4)]
DOCKED: USER    Estimated Inhibition Constant, Ki   =    9.59 pM (picomolar)  [Temperature = 298.15 K]
DOCKED: USER    
DOCKED: USER    (1) Final Intermolecular Energy     =  -18.01 kcal/mol
DOCKED: USER        vdW + Hbond + desolv Energy     =  -16.45 kcal/mol
DOCKED: USER        Electrostatic Energy            =   -1.57 kcal/mol
DOCKED: USER    (2) Final Total Internal Energy     =   -0.53 kcal/mol
DOCKED: USER    (3) Torsional Free Energy           =   +2.98 kcal/mol
DOCKED: USER    (4) Unbound System's Energy  [=(2)] =   -0.53 kcal/mol
DOCKED: USER    
DOCKED: USER    
DOCKED: USER    NEWDPF move heme_O2_opt.pdbqt
DOCKED: USER    NEWDPF about 8.287000 34.468000 -0.670000
DOCKED: USER    NEWDPF tran0 23.147089 6.739861 -3.442243
DOCKED: USER    NEWDPF quaternion0 -0.487542 0.142534 -0.827823 -0.238110
DOCKED: USER    NEWDPF axisangle0 -0.501979 0.146754 -0.852338 -152.449956
DOCKED: USER    NEWDPF quat0 -0.501979 0.146754 -0.852338 -152.449956
DOCKED: USER    NEWDPF dihe0 -166.88 20.01 29.53 -59.16 -12.32 117.04 -36.30 -66.84 -115.57 172.11 
DOCKED: USER  keepresnum = 1 
DOCKED: USER  
DOCKED: REMARK  10 active torsions:
DOCKED: REMARK  status: ('A' for Active; 'I' for Inactive)
DOCKED: REMARK    1  A    between atoms: C_6  and  C_10 
DOCKED: REMARK    2  A    between atoms: C_10  and  C_11 
DOCKED: REMARK    3  A    between atoms: C_11  and  C_12 
DOCKED: REMARK    4  A    between atoms: C_12  and  O_14 
DOCKED: REMARK    5  A    between atoms: C_17  and  C_20 
DOCKED: REMARK    6  A    between atoms: C_24  and  C_27 
DOCKED: REMARK    7  A    between atoms: C_31  and  C_34 
DOCKED: REMARK    8  A    between atoms: C_34  and  C_35 
DOCKED: REMARK    9  A    between atoms: C_35  and  C_36 
DOCKED: REMARK   10  A    between atoms: C_36  and  O_38 
DOCKED: USER                              x       y       z     vdW  Elec       q    Type
DOCKED: USER                           _______ _______ _______ _____ _____    ______ ____
DOCKED: ROOT
DOCKED: ATOM      1  C   UNL d   1      23.370   7.231  -5.494 -0.19 +0.01    +0.064 A 
DOCKED: ATOM      2  C   UNL d   1      25.434   8.897  -1.554 -0.39 +0.01    +0.064 A 
DOCKED: ATOM      3  C   UNL d   1      22.821   5.932   1.180 -0.41 +0.00    +0.064 C 
DOCKED: ATOM      4  C   UNL d   1      21.036   3.875  -2.900 -0.36 +0.01    +0.064 A 
DOCKED: ATOM      5  C   UNL d   1      24.146   7.925  -4.646 -0.32 +0.01    +0.066 A 
DOCKED: ATOM      6  C   UNL d   1      25.045   8.919  -5.042 -0.39 -0.00    -0.021 A 
DOCKED: ATOM      7  C   UNL d   1      25.675   9.372  -3.907 -0.44 -0.00    -0.025 A 
DOCKED: ATOM      8  C   UNL d   1      25.108   8.676  -2.842 -0.38 +0.01    +0.066 A 
DOCKED: ATOM      9  C   UNL d   1      26.783  10.402  -3.884 -0.36 +0.00    +0.051 C 
DOCKED: ATOM     10  C   UNL d   1      24.858   8.215  -0.394 -0.35 +0.00    +0.066 A 
DOCKED: ATOM     11  C   UNL d   1      25.113   8.597   0.927 -0.33 -0.00    -0.021 A 
DOCKED: ATOM     12  C   UNL d   1      24.354   7.765   1.730 -0.41 +0.00    +0.000 A 
DOCKED: ATOM     13  C   UNL d   1      23.674   6.896   0.833 -0.27 +0.00    +0.070 A 
DOCKED: ATOM     14  C   UNL d   1      26.020   9.726   1.403 -0.46 +0.00    +0.052 C 
DOCKED: ATOM     15  C   UNL d   1      22.140   5.009   0.305 -0.39 +0.00    +0.066 A 
DOCKED: ATOM     16  C   UNL d   1      21.388   3.917   0.739 -0.53 -0.00    -0.021 A 
DOCKED: ATOM     17  C   UNL d   1      20.869   3.315  -0.407 -0.46 +0.00    +0.000 A 
DOCKED: ATOM     18  C   UNL d   1      21.349   4.095  -1.468 -0.36 +0.01    +0.070 A 
DOCKED: ATOM     19  C   UNL d   1      21.278   3.519   2.190 -0.43 -0.00    +0.052 C 
DOCKED: ATOM     20  C   UNL d   1      21.513   4.577  -3.945 -0.38 +0.01    +0.066 A 
DOCKED: ATOM     21  C   UNL d   1      21.168   4.334  -5.272 -0.41 -0.00    -0.025 A 
DOCKED: ATOM     22  C   UNL d   1      21.803   5.298  -6.023 -0.33 -0.00    -0.021 A 
DOCKED: ATOM     23  C   UNL d   1      22.529   6.086  -5.125 -0.16 +0.01    +0.066 A 
DOCKED: ATOM     24  C   UNL d   1      20.281   3.235  -5.797 -0.52 +0.01    +0.051 C 
DOCKED: ATOM     25  N   UNL d   1      24.213   7.738  -3.304 -0.23 -0.02    -0.248 N 
DOCKED: ATOM     26  N   UNL d   1      23.990   7.173  -0.457 -0.22 -0.01    -0.248 N 
DOCKED: ATOM     27  N   UNL d   1      22.179   5.073  -1.022 -0.20 -0.01    -0.248 N 
DOCKED: ATOM     28  N   UNL d   1      22.386   5.617  -3.868 -0.24 -0.03    -0.248 N 
DOCKED: ATOM     29 FE   UNL d   1      23.181   6.387  -2.174 -0.07 +0.00    +0.000 Fe
DOCKED: ATOM     30  O   UNL d   1      24.711   6.108  -2.245 -0.43 +0.00    +0.000 OA
DOCKED: ATOM     31  O   UNL d   1      23.694   4.906  -2.305 -0.78 +0.00    +0.000 OA
DOCKED: ENDROOT
DOCKED: BRANCH   6  32
DOCKED: ATOM     32  C   UNL d   1      25.401   9.334  -6.446 -0.37 +0.02    +0.052 C 
DOCKED: BRANCH  32  33
DOCKED: ATOM     33  C   UNL d   1      25.329   8.180  -7.441 -0.33 +0.08    +0.115 C 
DOCKED: BRANCH  33  34
DOCKED: ATOM     34  C   UNL d   1      24.770   8.606  -8.776 -0.18 +0.15    +0.139 C 
DOCKED: ATOM     35  O   UNL d   1      24.368   7.761  -9.560 -0.16 -0.93    -0.650 OA
DOCKED: BRANCH  34  36
DOCKED: ATOM     36  O   UNL d   1      24.730   9.905  -9.140 +0.02 -0.63    -0.776 OA
DOCKED: ATOM     37  H   UNL d   1      24.212  10.209  -9.894 +0.04 +0.12    +0.167 HD
DOCKED: ENDBRANCH  34  36
DOCKED: ENDBRANCH  33  34
DOCKED: ENDBRANCH  32  33
DOCKED: ENDBRANCH   6  32
DOCKED: BRANCH  22  38
DOCKED: ATOM     38  C   UNL d   1      21.761   5.409  -7.525 -0.30 +0.01    +0.052 C 
DOCKED: BRANCH  38  39
DOCKED: ATOM     39  C   UNL d   1      22.823   4.546  -8.203 -0.35 +0.03    +0.115 C 
DOCKED: BRANCH  39  40
DOCKED: ATOM     40  C   UNL d   1      22.225   3.398  -8.976 -0.31 +0.05    +0.139 C 
DOCKED: ATOM     41  O   UNL d   1      22.180   2.287  -8.473 -0.20 -0.16    -0.650 OA
DOCKED: BRANCH  40  42
DOCKED: ATOM     42  O   UNL d   1      21.689   3.586 -10.198 -0.41 -0.38    -0.776 OA
DOCKED: ATOM     43  H   UNL d   1      21.941   4.336 -10.749 +0.06 +0.06    +0.167 HD
DOCKED: ENDBRANCH  40  42
DOCKED: ENDBRANCH  39  40
DOCKED: ENDBRANCH  38  39
DOCKED: ENDBRANCH  22  38
DOCKED: BRANCH  12  44
DOCKED: ATOM     44  C   UNL d   1      24.360   7.882   3.240 -0.61 -0.00    +0.004 C 
DOCKED: ATOM     45  C   UNL d   1      24.084   6.934   4.136 -0.74 -0.00    +0.012 C 
DOCKED: ENDBRANCH  12  44
DOCKED: BRANCH  17  46
DOCKED: ATOM     46  C   UNL d   1      20.036   2.073  -0.580 -0.60 +0.00    +0.004 C 
DOCKED: ATOM     47  C   UNL d   1      20.382   0.803  -0.334 -0.76 -0.00    +0.012 C 
DOCKED: ENDBRANCH  17  46
DOCKED: TORSDOF 10
DOCKED: TER
DOCKED: ENDMDL
________________________________________________________________________________


	BEGINNING GENETIC ALGORITHM DOCKING 67 of 100
Run: 67 Seed: 642280441 85382056 [ Run 67 of 100 GA/GALS ]
Beginning LAMARCKIAN GENETIC ALGORITHM (LGA), with a maximum of 25000000 energy evaluations.

Final-Value: -17.271


	FINAL GENETIC ALGORITHM DOCKED STATE
	_______________________________________________


Detailed state:  trans 3.010 -6.179 -4.546 quatxyzw 0.154132 0.500269 -0.297034 0.798589 center 8.287 34.468 -0.670 ntor 10 -65.3347 -55.0425 -0.3726 -48.7306 -69.5566 131.1785 59.4075 -142.7555 -108.6823 166.3339
State:	  3.010  -6.179  -4.546   0.256  0.831 -0.494 74.009    -65.33  -55.04   -0.37  -48.73  -69.56  131.18   59.41 -142.76 -108.68  166.33

DOCKED: MODEL       67
DOCKED: USER    Run = 67
DOCKED: USER    DPF = D:/Protein_go_brrr/autodock/final/1A3N/heme_O2/dock.dpf
DOCKED: USER  
DOCKED: USER    Estimated Free Energy of Binding    =  -13.92 kcal/mol  [=(1)+(2)+(3)-(4)]
DOCKED: USER    Estimated Inhibition Constant, Ki   =   62.88 pM (picomolar)  [Temperature = 298.15 K]
DOCKED: USER    
DOCKED: USER    (1) Final Intermolecular Energy     =  -16.90 kcal/mol
DOCKED: USER        vdW + Hbond + desolv Energy     =  -15.27 kcal/mol
DOCKED: USER        Electrostatic Energy            =   -1.63 kcal/mol
DOCKED: USER    (2) Final Total Internal Energy     =   -0.37 kcal/mol
DOCKED: USER    (3) Torsional Free Energy           =   +2.98 kcal/mol
DOCKED: USER    (4) Unbound System's Energy  [=(2)] =   -0.37 kcal/mol
DOCKED: USER    
DOCKED: USER    
DOCKED: USER    NEWDPF move heme_O2_opt.pdbqt
DOCKED: USER    NEWDPF about 8.287000 34.468000 -0.670000
DOCKED: USER    NEWDPF tran0 3.009628 -6.178768 -4.545948
DOCKED: USER    NEWDPF quaternion0 0.154132 0.500269 -0.297034 0.798589
DOCKED: USER    NEWDPF axisangle0 0.256085 0.831183 -0.493513 74.008810
DOCKED: USER    NEWDPF quat0 0.256085 0.831183 -0.493513 74.008810
DOCKED: USER    NEWDPF dihe0 -65.33 -55.04 -0.37 -48.73 -69.56 131.18 59.41 -142.76 -108.68 166.33 
DOCKED: USER  keepresnum = 1 
DOCKED: USER  
DOCKED: REMARK  10 active torsions:
DOCKED: REMARK  status: ('A' for Active; 'I' for Inactive)
DOCKED: REMARK    1  A    between atoms: C_6  and  C_10 
DOCKED: REMARK    2  A    between atoms: C_10  and  C_11 
DOCKED: REMARK    3  A    between atoms: C_11  and  C_12 
DOCKED: REMARK    4  A    between atoms: C_12  and  O_14 
DOCKED: REMARK    5  A    between atoms: C_17  and  C_20 
DOCKED: REMARK    6  A    between atoms: C_24  and  C_27 
DOCKED: REMARK    7  A    between atoms: C_31  and  C_34 
DOCKED: REMARK    8  A    between atoms: C_34  and  C_35 
DOCKED: REMARK    9  A    between atoms: C_35  and  C_36 
DOCKED: REMARK   10  A    between atoms: C_36  and  O_38 
DOCKED: USER                              x       y       z     vdW  Elec       q    Type
DOCKED: USER                           _______ _______ _______ _____ _____    ______ ____
DOCKED: ROOT
DOCKED: ATOM      1  C   UNL d   1       2.925  -6.846  -6.558 -0.22 +0.01    +0.064 A 
DOCKED: ATOM      2  C   UNL d   1       0.877  -8.413  -2.569 -0.36 +0.00    +0.064 A 
DOCKED: ATOM      3  C   UNL d   1       3.056  -4.989   0.005 -0.37 +0.00    +0.064 C 
DOCKED: ATOM      4  C   UNL d   1       4.793  -3.074  -4.165 -0.45 +0.01    +0.064 A 
DOCKED: ATOM      5  C   UNL d   1       2.189  -7.551  -5.683 -0.32 +0.01    +0.066 A 
DOCKED: ATOM      6  C   UNL d   1       1.414  -8.661  -6.028 -0.31 -0.01    -0.021 A 
DOCKED: ATOM      7  C   UNL d   1       0.786  -9.090  -4.882 -0.33 -0.00    -0.025 A 
DOCKED: ATOM      8  C   UNL d   1       1.233  -8.258  -3.859 -0.29 +0.01    +0.066 A 
DOCKED: ATOM      9  C   UNL d   1      -0.212 -10.225  -4.814 -0.31 +0.01    +0.051 C 
DOCKED: ATOM     10  C   UNL d   1       1.330  -7.587  -1.449 -0.34 +0.00    +0.066 A 
DOCKED: ATOM     11  C   UNL d   1       1.060  -7.891  -0.110 -0.43 -0.00    -0.021 A 
DOCKED: ATOM     12  C   UNL d   1       1.696  -6.925   0.648 -0.43 +0.00    +0.000 A 
DOCKED: ATOM     13  C   UNL d   1       2.321  -6.061  -0.292 -0.38 +0.00    +0.070 A 
DOCKED: ATOM     14  C   UNL d   1       0.254  -9.069   0.424 -0.56 -0.00    +0.052 C 
DOCKED: ATOM     15  C   UNL d   1       3.675  -4.069  -0.918 -0.37 +0.00    +0.066 A 
DOCKED: ATOM     16  C   UNL d   1       4.293  -2.874  -0.548 -0.47 -0.00    -0.021 A 
DOCKED: ATOM     17  C   UNL d   1       4.795  -2.311  -1.721 -0.51 +0.00    +0.000 A 
DOCKED: ATOM     18  C   UNL d   1       4.443  -3.216  -2.732 -0.41 +0.01    +0.070 A 
DOCKED: ATOM     19  C   UNL d   1       4.301  -2.356   0.868 -0.52 +0.00    +0.052 C 
DOCKED: ATOM     20  C   UNL d   1       4.434  -3.902  -5.166 -0.43 +0.01    +0.066 A 
DOCKED: ATOM     21  C   UNL d   1       4.808  -3.726  -6.495 -0.45 -0.00    -0.025 A 
DOCKED: ATOM     22  C   UNL d   1       4.308  -4.806  -7.187 -0.34 -0.00    -0.021 A 
DOCKED: ATOM     23  C   UNL d   1       3.629  -5.595  -6.254 -0.27 +0.01    +0.066 A 
DOCKED: ATOM     24  C   UNL d   1       5.600  -2.583  -7.076 -0.10 -0.00    +0.051 C 
DOCKED: ATOM     25  N   UNL d   1       2.046  -7.270  -4.364 -0.19 -0.03    -0.248 N 
DOCKED: ATOM     26  N   UNL d   1       2.089  -6.468  -1.566 -0.22 +0.00    -0.248 N 
DOCKED: ATOM     27  N   UNL d   1       3.700  -4.239  -2.237 -0.23 -0.01    -0.248 N 
DOCKED: ATOM     28  N   UNL d   1       3.670  -5.018  -5.035 -0.26 -0.04    -0.248 N 
DOCKED: ATOM     29 FE   UNL d   1       2.886  -5.735  -3.312 -0.08 +0.00    +0.000 Fe
DOCKED: ATOM     30  O   UNL d   1       1.341  -5.625  -3.458 -0.16 +0.00    +0.000 OA
DOCKED: ATOM     31  O   UNL d   1       2.231  -4.331  -3.579 -0.77 +0.00    +0.000 OA
DOCKED: ENDROOT
DOCKED: BRANCH   6  32
DOCKED: ATOM     32  C   UNL d   1       1.161  -9.218  -7.406 -0.24 +0.02    +0.052 C 
DOCKED: BRANCH  32  33
DOCKED: ATOM     33  C   UNL d   1       1.322  -8.174  -8.506 -0.20 +0.05    +0.115 C 
DOCKED: BRANCH  33  34
DOCKED: ATOM     34  C   UNL d   1       0.077  -8.024  -9.344 -0.09 +0.13    +0.139 C 
DOCKED: ATOM     35  O   UNL d   1      -0.284  -6.912  -9.695 -0.36 -1.21    -0.650 OA
DOCKED: BRANCH  34  36
DOCKED: ATOM     36  O   UNL d   1      -0.667  -9.094  -9.695 +0.01 -0.52    -0.776 OA
DOCKED: ATOM     37  H   UNL d   1      -0.327  -9.785 -10.274 +0.02 +0.07    +0.167 HD
DOCKED: ENDBRANCH  34  36
DOCKED: ENDBRANCH  33  34
DOCKED: ENDBRANCH  32  33
DOCKED: ENDBRANCH   6  32
DOCKED: BRANCH  22  38
DOCKED: ATOM     38  C   UNL d   1       4.424  -5.027  -8.673 -0.19 +0.01    +0.052 C 
DOCKED: BRANCH  38  39
DOCKED: ATOM     39  C   UNL d   1       3.235  -4.456  -9.442 -0.21 +0.03    +0.115 C 
DOCKED: BRANCH  39  40
DOCKED: ATOM     40  C   UNL d   1       2.724  -3.171  -8.840 -0.36 +0.03    +0.139 C 
DOCKED: ATOM     41  O   UNL d   1       1.934  -3.209  -7.911 -0.05 -0.17    -0.650 OA
DOCKED: BRANCH  40  42
DOCKED: ATOM     42  O   UNL d   1       3.163  -1.975  -9.278 +0.06 +0.01    -0.776 OA
DOCKED: ATOM     43  H   UNL d   1       4.105  -1.773  -9.334 -0.42 -0.05    +0.167 HD
DOCKED: ENDBRANCH  40  42
DOCKED: ENDBRANCH  39  40
DOCKED: ENDBRANCH  38  39
DOCKED: ENDBRANCH  22  38
DOCKED: BRANCH  12  44
DOCKED: ATOM     44  C   UNL d   1       1.638  -6.925   2.162 -0.48 +0.00    +0.004 C 
DOCKED: ATOM     45  C   UNL d   1       2.272  -6.111   3.005 -0.56 +0.00    +0.012 C 
DOCKED: ENDBRANCH  12  44
DOCKED: BRANCH  17  46
DOCKED: ATOM     46  C   UNL d   1       5.504  -1.005  -1.965 -0.62 +0.00    +0.004 C 
DOCKED: ATOM     47  C   UNL d   1       5.092   0.232  -1.657 -0.72 -0.00    +0.012 C 
DOCKED: ENDBRANCH  17  46
DOCKED: TORSDOF 10
DOCKED: TER
DOCKED: ENDMDL
________________________________________________________________________________


	BEGINNING GENETIC ALGORITHM DOCKING 68 of 100
Run: 68 Seed: 277145671 641879331 [ Run 68 of 100 GA/GALS ]
Beginning LAMARCKIAN GENETIC ALGORITHM (LGA), with a maximum of 25000000 energy evaluations.

Final-Value: -16.785


	FINAL GENETIC ALGORITHM DOCKED STATE
	_______________________________________________


Detailed state:  trans 2.601 -6.836 -4.313 quatxyzw 0.155177 0.472051 -0.309404 0.810776 center 8.287 34.468 -0.670 ntor 10 34.6790 128.1368 39.7180 -43.7262 -132.6899 -179.9175 -8.7609 -68.6288 -180.0000 62.0519
State:	  2.601  -6.836  -4.313   0.265  0.806 -0.529 71.656     34.68  128.14   39.72  -43.73 -132.69 -179.92   -8.76  -68.63 -180.00   62.05

DOCKED: MODEL       68
DOCKED: USER    Run = 68
DOCKED: USER    DPF = D:/Protein_go_brrr/autodock/final/1A3N/heme_O2/dock.dpf
DOCKED: USER  
DOCKED: USER    Estimated Free Energy of Binding    =  -11.93 kcal/mol  [=(1)+(2)+(3)-(4)]
DOCKED: USER    Estimated Inhibition Constant, Ki   =    1.81 nM (nanomolar)  [Temperature = 298.15 K]
DOCKED: USER    
DOCKED: USER    (1) Final Intermolecular Energy     =  -14.91 kcal/mol
DOCKED: USER        vdW + Hbond + desolv Energy     =  -13.84 kcal/mol
DOCKED: USER        Electrostatic Energy            =   -1.07 kcal/mol
DOCKED: USER    (2) Final Total Internal Energy     =   -1.87 kcal/mol
DOCKED: USER    (3) Torsional Free Energy           =   +2.98 kcal/mol
DOCKED: USER    (4) Unbound System's Energy  [=(2)] =   -1.87 kcal/mol
DOCKED: USER    
DOCKED: USER    
DOCKED: USER    NEWDPF move heme_O2_opt.pdbqt
DOCKED: USER    NEWDPF about 8.287000 34.468000 -0.670000
DOCKED: USER    NEWDPF tran0 2.601182 -6.835937 -4.312582
DOCKED: USER    NEWDPF quaternion0 0.155177 0.472051 -0.309404 0.810776
DOCKED: USER    NEWDPF axisangle0 0.265097 0.806433 -0.528573 71.656434
DOCKED: USER    NEWDPF quat0 0.265097 0.806433 -0.528573 71.656434
DOCKED: USER    NEWDPF dihe0 34.68 128.14 39.72 -43.73 -132.69 -179.92 -8.76 -68.63 -180.00 62.05 
DOCKED: USER  keepresnum = 1 
DOCKED: USER  
DOCKED: REMARK  10 active torsions:
DOCKED: REMARK  status: ('A' for Active; 'I' for Inactive)
DOCKED: REMARK    1  A    between atoms: C_6  and  C_10 
DOCKED: REMARK    2  A    between atoms: C_10  and  C_11 
DOCKED: REMARK    3  A    between atoms: C_11  and  C_12 
DOCKED: REMARK    4  A    between atoms: C_12  and  O_14 
DOCKED: REMARK    5  A    between atoms: C_17  and  C_20 
DOCKED: REMARK    6  A    between atoms: C_24  and  C_27 
DOCKED: REMARK    7  A    between atoms: C_31  and  C_34 
DOCKED: REMARK    8  A    between atoms: C_34  and  C_35 
DOCKED: REMARK    9  A    between atoms: C_35  and  C_36 
DOCKED: REMARK   10  A    between atoms: C_36  and  O_38 
DOCKED: USER                              x       y       z     vdW  Elec       q    Type
DOCKED: USER                           _______ _______ _______ _____ _____    ______ ____
DOCKED: ROOT
DOCKED: ATOM      1  C   UNL d   1       2.398  -7.558  -6.297 -0.27 +0.01    +0.064 A 
DOCKED: ATOM      2  C   UNL d   1       0.599  -9.020  -2.151 -0.40 +0.00    +0.064 A 
DOCKED: ATOM      3  C   UNL d   1       2.918  -5.523   0.193 -0.41 +0.00    +0.064 C 
DOCKED: ATOM      4  C   UNL d   1       4.393  -3.719  -4.124 -0.42 +0.01    +0.064 A 
DOCKED: ATOM      5  C   UNL d   1       1.718  -8.240  -5.361 -0.32 +0.01    +0.066 A 
DOCKED: ATOM      6  C   UNL d   1       0.928  -9.361  -5.628 -0.30 -0.00    -0.021 A 
DOCKED: ATOM      7  C   UNL d   1       0.372  -9.759  -4.435 -0.32 -0.00    -0.025 A 
DOCKED: ATOM      8  C   UNL d   1       0.877  -8.899  -3.464 -0.34 +0.01    +0.066 A 
DOCKED: ATOM      9  C   UNL d   1      -0.616 -10.895  -4.276 -0.31 +0.00    +0.051 C 
DOCKED: ATOM     10  C   UNL d   1       1.117  -8.163  -1.083 -0.39 +0.00    +0.066 A 
DOCKED: ATOM     11  C   UNL d   1       0.930  -8.431   0.277 -0.47 -0.00    -0.021 A 
DOCKED: ATOM     12  C   UNL d   1       1.606  -7.444   0.970 -0.43 +0.00    +0.000 A 
DOCKED: ATOM     13  C   UNL d   1       2.170  -6.604  -0.030 -0.38 +0.00    +0.070 A 
DOCKED: ATOM     14  C   UNL d   1       0.161  -9.596   0.891 -0.60 -0.00    +0.052 C 
DOCKED: ATOM     15  C   UNL d   1       3.477  -4.627  -0.790 -0.36 +0.00    +0.066 A 
DOCKED: ATOM     16  C   UNL d   1       4.112  -3.422  -0.490 -0.45 -0.00    -0.021 A 
DOCKED: ATOM     17  C   UNL d   1       4.540  -2.889  -1.706 -0.47 +0.00    +0.000 A 
DOCKED: ATOM     18  C   UNL d   1       4.131  -3.823  -2.669 -0.39 +0.01    +0.070 A 
DOCKED: ATOM     19  C   UNL d   1       4.203  -2.866   0.908 -0.59 +0.00    +0.052 C 
DOCKED: ATOM     20  C   UNL d   1       3.977  -4.574  -5.079 -0.40 +0.01    +0.066 A 
DOCKED: ATOM     21  C   UNL d   1       4.270  -4.433  -6.433 -0.40 -0.00    -0.025 A 
DOCKED: ATOM     22  C   UNL d   1       3.733  -5.532  -7.064 -0.24 -0.00    -0.021 A 
DOCKED: ATOM     23  C   UNL d   1       3.114  -6.297  -6.070 -0.18 +0.01    +0.066 A 
DOCKED: ATOM     24  C   UNL d   1       5.021  -3.305  -7.091 -0.48 +0.00    +0.051 C 
DOCKED: ATOM     25  N   UNL d   1       1.654  -7.924  -4.044 -0.20 -0.03    -0.248 N 
DOCKED: ATOM     26  N   UNL d   1       1.864  -7.046  -1.276 -0.23 +0.00    -0.248 N 
DOCKED: ATOM     27  N   UNL d   1       3.422  -4.833  -2.103 -0.23 -0.01    -0.248 N 
DOCKED: ATOM     28  N   UNL d   1       3.226  -5.688  -4.872 -0.25 -0.04    -0.248 N 
DOCKED: ATOM     29 FE   UNL d   1       2.551  -6.359  -3.086 -0.09 -0.00    +0.000 Fe
DOCKED: ATOM     30  O   UNL d   1       0.999  -6.256  -3.141 +0.01 +0.00    +0.000 OA
DOCKED: ATOM     31  O   UNL d   1       1.876  -4.964  -3.351 -0.58 +0.00    +0.000 OA
DOCKED: ENDROOT
DOCKED: BRANCH   6  32
DOCKED: ATOM     32  C   UNL d   1       0.594  -9.956  -6.972 -0.23 +0.01    +0.052 C 
DOCKED: BRANCH  32  33
DOCKED: ATOM     33  C   UNL d   1      -0.747  -9.475  -7.516 -0.07 +0.06    +0.115 C 
DOCKED: BRANCH  33  34
DOCKED: ATOM     34  C   UNL d   1      -0.953  -9.858  -8.961 -0.11 +0.07    +0.139 C 
DOCKED: ATOM     35  O   UNL d   1      -1.249 -11.008  -9.244 +0.00 -0.19    -0.650 OA
DOCKED: BRANCH  34  36
DOCKED: ATOM     36  O   UNL d   1      -0.789  -8.962  -9.957 -0.00 -0.56    -0.776 OA
DOCKED: ATOM     37  H   UNL d   1      -0.119  -8.271  -9.916 +0.03 +0.14    +0.167 HD
DOCKED: ENDBRANCH  34  36
DOCKED: ENDBRANCH  33  34
DOCKED: ENDBRANCH  32  33
DOCKED: ENDBRANCH   6  32
DOCKED: BRANCH  22  38
DOCKED: ATOM     38  C   UNL d   1       3.760  -5.794  -8.547 -0.14 +0.01    +0.052 C 
DOCKED: BRANCH  38  39
DOCKED: ATOM     39  C   UNL d   1       3.436  -7.247  -8.888 -0.07 +0.03    +0.115 C 
DOCKED: BRANCH  39  40
DOCKED: ATOM     40  C   UNL d   1       2.094  -7.395  -9.562 -0.14 +0.06    +0.139 C 
DOCKED: ATOM     41  O   UNL d   1       1.169  -6.669  -9.237 -0.12 -0.49    -0.650 OA
DOCKED: BRANCH  40  42
DOCKED: ATOM     42  O   UNL d   1       1.910  -8.284 -10.557 +0.05 -0.26    -0.776 OA
DOCKED: ATOM     43  H   UNL d   1       1.166  -8.898 -10.555 +0.03 +0.06    +0.167 HD
DOCKED: ENDBRANCH  40  42
DOCKED: ENDBRANCH  39  40
DOCKED: ENDBRANCH  38  39
DOCKED: ENDBRANCH  22  38
DOCKED: BRANCH  12  44
DOCKED: ATOM     44  C   UNL d   1       1.640  -7.403   2.483 -0.26 +0.00    +0.004 C 
DOCKED: ATOM     45  C   UNL d   1       1.639  -6.330   3.274 -0.56 +0.00    +0.012 C 
DOCKED: ENDBRANCH  12  44
DOCKED: BRANCH  17  46
DOCKED: ATOM     46  C   UNL d   1       5.228  -1.589  -2.028 -0.63 +0.00    +0.004 C 
DOCKED: ATOM     47  C   UNL d   1       4.880  -0.352  -1.651 -0.70 +0.00    +0.012 C 
DOCKED: ENDBRANCH  17  46
DOCKED: TORSDOF 10
DOCKED: TER
DOCKED: ENDMDL
________________________________________________________________________________


	BEGINNING GENETIC ALGORITHM DOCKING 69 of 100
Run: 69 Seed: 1457658236 263190407 [ Run 69 of 100 GA/GALS ]
Beginning LAMARCKIAN GENETIC ALGORITHM (LGA), with a maximum of 25000000 energy evaluations.

Final-Value: -11.132


	FINAL GENETIC ALGORITHM DOCKED STATE
	_______________________________________________


Detailed state:  trans 17.686 -20.663 12.208 quatxyzw 0.646384 -0.059538 0.193780 -0.735590 center 8.287 34.468 -0.670 ntor 10 -42.9302 -70.8864 -29.3696 124.1401 67.2519 142.2281 113.3008 -56.7980 -0.0284 179.9873
State:	 17.686 -20.663  12.208   0.954 -0.088  0.286 -85.286    -42.93  -70.89  -29.37  124.14   67.25  142.23  113.30  -56.80   -0.03  179.99

DOCKED: MODEL       69
DOCKED: USER    Run = 69
DOCKED: USER    DPF = D:/Protein_go_brrr/autodock/final/1A3N/heme_O2/dock.dpf
DOCKED: USER  
DOCKED: USER    Estimated Free Energy of Binding    =   -7.45 kcal/mol  [=(1)+(2)+(3)-(4)]
DOCKED: USER    Estimated Inhibition Constant, Ki   =    3.45 uM (micromolar)  [Temperature = 298.15 K]
DOCKED: USER    
DOCKED: USER    (1) Final Intermolecular Energy     =  -10.44 kcal/mol
DOCKED: USER        vdW + Hbond + desolv Energy     =   -8.34 kcal/mol
DOCKED: USER        Electrostatic Energy            =   -2.09 kcal/mol
DOCKED: USER    (2) Final Total Internal Energy     =   -0.70 kcal/mol
DOCKED: USER    (3) Torsional Free Energy           =   +2.98 kcal/mol
DOCKED: USER    (4) Unbound System's Energy  [=(2)] =   -0.70 kcal/mol
DOCKED: USER    
DOCKED: USER    
DOCKED: USER    NEWDPF move heme_O2_opt.pdbqt
DOCKED: USER    NEWDPF about 8.287000 34.468000 -0.670000
DOCKED: USER    NEWDPF tran0 17.686473 -20.663272 12.208191
DOCKED: USER    NEWDPF quaternion0 0.646384 -0.059538 0.193780 -0.735590
DOCKED: USER    NEWDPF axisangle0 0.954175 -0.087889 0.286053 -85.285806
DOCKED: USER    NEWDPF quat0 0.954175 -0.087889 0.286053 -85.285806
DOCKED: USER    NEWDPF dihe0 -42.93 -70.89 -29.37 124.14 67.25 142.23 113.30 -56.80 -0.03 179.99 
DOCKED: USER  keepresnum = 1 
DOCKED: USER  
DOCKED: REMARK  10 active torsions:
DOCKED: REMARK  status: ('A' for Active; 'I' for Inactive)
DOCKED: REMARK    1  A    between atoms: C_6  and  C_10 
DOCKED: REMARK    2  A    between atoms: C_10  and  C_11 
DOCKED: REMARK    3  A    between atoms: C_11  and  C_12 
DOCKED: REMARK    4  A    between atoms: C_12  and  O_14 
DOCKED: REMARK    5  A    between atoms: C_17  and  C_20 
DOCKED: REMARK    6  A    between atoms: C_24  and  C_27 
DOCKED: REMARK    7  A    between atoms: C_31  and  C_34 
DOCKED: REMARK    8  A    between atoms: C_34  and  C_35 
DOCKED: REMARK    9  A    between atoms: C_35  and  C_36 
DOCKED: REMARK   10  A    between atoms: C_36  and  O_38 
DOCKED: USER                              x       y       z     vdW  Elec       q    Type
DOCKED: USER                           _______ _______ _______ _____ _____    ______ ____
DOCKED: ROOT
DOCKED: ATOM      1  C   UNL d   1      15.622 -20.219  12.009 -0.10 +0.01    +0.064 A 
DOCKED: ATOM      2  C   UNL d   1      18.292 -23.829  10.459 -0.12 -0.00    +0.064 A 
DOCKED: ATOM      3  C   UNL d   1      22.226 -21.878  12.411 -0.43 -0.02    +0.064 C 
DOCKED: ATOM      4  C   UNL d   1      19.407 -18.402  14.420 -0.17 +0.01    +0.064 A 
DOCKED: ATOM      5  C   UNL d   1      16.027 -21.361  11.429 -0.08 +0.01    +0.066 A 
DOCKED: ATOM      6  C   UNL d   1      15.182 -22.223  10.724 -0.09 -0.00    -0.021 A 
DOCKED: ATOM      7  C   UNL d   1      15.945 -23.290  10.312 -0.09 -0.00    -0.025 A 
DOCKED: ATOM      8  C   UNL d   1      17.245 -23.027  10.735 -0.11 -0.00    +0.066 A 
DOCKED: ATOM      9  C   UNL d   1      15.415 -24.501   9.575 -0.05 +0.00    +0.051 C 
DOCKED: ATOM     10  C   UNL d   1      19.680 -23.594  10.856 -0.15 -0.01    +0.066 A 
DOCKED: ATOM     11  C   UNL d   1      20.752 -24.372  10.404 -0.13 +0.00    -0.021 A 
DOCKED: ATOM     12  C   UNL d   1      21.898 -23.814  10.942 -0.24 -0.00    +0.000 A 
DOCKED: ATOM     13  C   UNL d   1      21.448 -22.711  11.719 -0.26 -0.02    +0.070 A 
DOCKED: ATOM     14  C   UNL d   1      20.689 -25.580   9.476 -0.06 -0.01    +0.052 C 
DOCKED: ATOM     15  C   UNL d   1      21.808 -20.772  13.237 -0.39 -0.01    +0.066 A 
DOCKED: ATOM     16  C   UNL d   1      22.657 -20.040  14.067 -0.47 -0.00    -0.021 A 
DOCKED: ATOM     17  C   UNL d   1      21.875 -19.044  14.651 -0.36 -0.00    +0.000 A 
DOCKED: ATOM     18  C   UNL d   1      20.591 -19.244  14.125 -0.28 +0.00    +0.070 A 
DOCKED: ATOM     19  C   UNL d   1      24.110 -20.387  14.269 -0.26 +0.02    +0.052 C 
DOCKED: ATOM     20  C   UNL d   1      18.152 -18.592  13.967 -0.10 +0.01    +0.066 A 
DOCKED: ATOM     21  C   UNL d   1      17.080 -17.755  14.264 -0.05 -0.01    -0.025 A 
DOCKED: ATOM     22  C   UNL d   1      15.999 -18.242  13.564 -0.04 -0.01    -0.021 A 
DOCKED: ATOM     23  C   UNL d   1      16.449 -19.373  12.876 -0.09 +0.01    +0.066 A 
DOCKED: ATOM     24  C   UNL d   1      17.086 -16.554  15.174 -0.09 +0.02    +0.051 C 
DOCKED: ATOM     25  N   UNL d   1      17.282 -21.871  11.480 -0.08 -0.00    -0.248 N 
DOCKED: ATOM     26  N   UNL d   1      20.098 -22.587  11.665 -0.07 +0.04    -0.248 N 
DOCKED: ATOM     27  N   UNL d   1      20.553 -20.342  13.328 -0.17 -0.01    -0.248 N 
DOCKED: ATOM     28  N   UNL d   1      17.747 -19.608  13.160 -0.09 -0.04    -0.248 N 
DOCKED: ATOM     29 FE   UNL d   1      18.916 -21.086  12.419 -0.05 +0.00    +0.000 Fe
DOCKED: ATOM     30  O   UNL d   1      18.401 -22.409  13.057 -0.15 -0.00    +0.000 OA
DOCKED: ATOM     31  O   UNL d   1      18.899 -21.237  13.985 -0.20 -0.00    +0.000 OA
DOCKED: ENDROOT
DOCKED: BRANCH   6  32
DOCKED: ATOM     32  C   UNL d   1      13.688 -22.121  10.559 -0.07 +0.01    +0.052 C 
DOCKED: BRANCH  32  33
DOCKED: ATOM     33  C   UNL d   1      13.280 -21.191   9.420 -0.13 +0.04    +0.115 C 
DOCKED: BRANCH  33  34
DOCKED: ATOM     34  C   UNL d   1      13.587 -19.745   9.721 -0.06 +0.07    +0.139 C 
DOCKED: ATOM     35  O   UNL d   1      12.798 -19.085  10.379 -0.17 -0.43    -0.650 OA
DOCKED: BRANCH  34  36
DOCKED: ATOM     36  O   UNL d   1      14.705 -19.151   9.254 -0.50 -0.34    -0.776 OA
DOCKED: ATOM     37  H   UNL d   1      15.562 -19.593   9.268 -0.21 +0.02    +0.167 HD
DOCKED: ENDBRANCH  34  36
DOCKED: ENDBRANCH  33  34
DOCKED: ENDBRANCH  32  33
DOCKED: ENDBRANCH   6  32
DOCKED: BRANCH  22  38
DOCKED: ATOM     38  C   UNL d   1      14.600 -17.684  13.609 -0.03 +0.03    +0.052 C 
DOCKED: BRANCH  38  39
DOCKED: ATOM     39  C   UNL d   1      13.847 -18.104  14.869 -0.05 +0.09    +0.115 C 
DOCKED: BRANCH  39  40
DOCKED: ATOM     40  C   UNL d   1      13.371 -16.922  15.676 -0.05 +0.17    +0.139 C 
DOCKED: ATOM     41  O   UNL d   1      14.174 -16.261  16.314 -0.03 -0.76    -0.650 OA
DOCKED: BRANCH  40  42
DOCKED: ATOM     42  O   UNL d   1      12.076 -16.549  15.667 -0.45 -1.17    -0.776 OA
DOCKED: ATOM     43  H   UNL d   1      11.664 -16.178  14.877 +0.02 +0.19    +0.167 HD
DOCKED: ENDBRANCH  40  42
DOCKED: ENDBRANCH  39  40
DOCKED: ENDBRANCH  38  39
DOCKED: ENDBRANCH  22  38
DOCKED: BRANCH  12  44
DOCKED: ATOM     44  C   UNL d   1      23.274 -24.383  10.667 -0.32 -0.00    +0.004 C 
DOCKED: ATOM     45  C   UNL d   1      24.425 -23.722  10.552 -0.41 -0.00    +0.012 C 
DOCKED: ENDBRANCH  12  44
DOCKED: BRANCH  17  46
DOCKED: ATOM     46  C   UNL d   1      22.215 -17.992  15.673 -0.39 -0.00    +0.004 C 
DOCKED: ATOM     47  C   UNL d   1      22.184 -16.660  15.534 -0.50 +0.00    +0.012 C 
DOCKED: ENDBRANCH  17  46
DOCKED: TORSDOF 10
DOCKED: TER
DOCKED: ENDMDL
________________________________________________________________________________


	BEGINNING GENETIC ALGORITHM DOCKING 70 of 100
Run: 70 Seed: 417014205 1049032788 [ Run 70 of 100 GA/GALS ]
Beginning LAMARCKIAN GENETIC ALGORITHM (LGA), with a maximum of 25000000 energy evaluations.

Final-Value: -16.807


	FINAL GENETIC ALGORITHM DOCKED STATE
	_______________________________________________


Detailed state:  trans 7.554 13.687 30.977 quatxyzw -0.126257 -0.741726 0.191686 0.630205 center 8.287 34.468 -0.670 ntor 10 -22.6487 32.6666 -66.0453 43.0048 -108.6549 -132.7076 112.2552 61.3755 -167.7813 145.2727
State:	  7.554  13.687  30.977  -0.163 -0.955  0.247 101.870    -22.65   32.67  -66.05   43.00 -108.65 -132.71  112.26   61.38 -167.78  145.27

DOCKED: MODEL       70
DOCKED: USER    Run = 70
DOCKED: USER    DPF = D:/Protein_go_brrr/autodock/final/1A3N/heme_O2/dock.dpf
DOCKED: USER  
DOCKED: USER    Estimated Free Energy of Binding    =  -13.01 kcal/mol  [=(1)+(2)+(3)-(4)]
DOCKED: USER    Estimated Inhibition Constant, Ki   =  290.77 pM (picomolar)  [Temperature = 298.15 K]
DOCKED: USER    
DOCKED: USER    (1) Final Intermolecular Energy     =  -15.99 kcal/mol
DOCKED: USER        vdW + Hbond + desolv Energy     =  -13.09 kcal/mol
DOCKED: USER        Electrostatic Energy            =   -2.90 kcal/mol
DOCKED: USER    (2) Final Total Internal Energy     =   -0.81 kcal/mol
DOCKED: USER    (3) Torsional Free Energy           =   +2.98 kcal/mol
DOCKED: USER    (4) Unbound System's Energy  [=(2)] =   -0.81 kcal/mol
DOCKED: USER    
DOCKED: USER    
DOCKED: USER    NEWDPF move heme_O2_opt.pdbqt
DOCKED: USER    NEWDPF about 8.287000 34.468000 -0.670000
DOCKED: USER    NEWDPF tran0 7.553779 13.687071 30.976533
DOCKED: USER    NEWDPF quaternion0 -0.126257 -0.741726 0.191686 0.630205
DOCKED: USER    NEWDPF axisangle0 -0.162612 -0.955304 0.246882 101.869513
DOCKED: USER    NEWDPF quat0 -0.162612 -0.955304 0.246882 101.869513
DOCKED: USER    NEWDPF dihe0 -22.65 32.67 -66.05 43.00 -108.65 -132.71 112.26 61.38 -167.78 145.27 
DOCKED: USER  keepresnum = 1 
DOCKED: USER  
DOCKED: REMARK  10 active torsions:
DOCKED: REMARK  status: ('A' for Active; 'I' for Inactive)
DOCKED: REMARK    1  A    between atoms: C_6  and  C_10 
DOCKED: REMARK    2  A    between atoms: C_10  and  C_11 
DOCKED: REMARK    3  A    between atoms: C_11  and  C_12 
DOCKED: REMARK    4  A    between atoms: C_12  and  O_14 
DOCKED: REMARK    5  A    between atoms: C_17  and  C_20 
DOCKED: REMARK    6  A    between atoms: C_24  and  C_27 
DOCKED: REMARK    7  A    between atoms: C_31  and  C_34 
DOCKED: REMARK    8  A    between atoms: C_34  and  C_35 
DOCKED: REMARK    9  A    between atoms: C_35  and  C_36 
DOCKED: REMARK   10  A    between atoms: C_36  and  O_38 
DOCKED: USER                              x       y       z     vdW  Elec       q    Type
DOCKED: USER                           _______ _______ _______ _____ _____    ______ ____
DOCKED: ROOT
DOCKED: ATOM      1  C   UNL d   1       7.428  14.682  32.846 -0.23 +0.05    +0.064 A 
DOCKED: ATOM      2  C   UNL d   1       9.340  10.534  31.542 -0.31 +0.02    +0.064 A 
DOCKED: ATOM      3  C   UNL d   1       7.924  11.205  26.999 -0.38 +0.01    +0.064 C 
DOCKED: ATOM      4  C   UNL d   1       6.372  15.692  28.230 -0.43 +0.01    +0.064 A 
DOCKED: ATOM      5  C   UNL d   1       8.065  13.500  32.861 -0.22 +0.04    +0.066 A 
DOCKED: ATOM      6  C   UNL d   1       8.614  12.922  34.010 -0.18 -0.01    -0.021 A 
DOCKED: ATOM      7  C   UNL d   1       9.206  11.741  33.625 -0.22 -0.02    -0.025 A 
DOCKED: ATOM      8  C   UNL d   1       8.960  11.608  32.262 -0.25 +0.03    +0.066 A 
DOCKED: ATOM      9  C   UNL d   1       9.986  10.826  34.543 -0.25 +0.05    +0.051 C 
DOCKED: ATOM     10  C   UNL d   1       9.091  10.328  30.114 -0.37 +0.02    +0.066 A 
DOCKED: ATOM     11  C   UNL d   1       9.362   9.125  29.452 -0.43 -0.00    -0.021 A 
DOCKED: ATOM     12  C   UNL d   1       8.944   9.292  28.145 -0.43 +0.00    +0.000 A 
DOCKED: ATOM     13  C   UNL d   1       8.442  10.621  28.079 -0.33 +0.01    +0.070 A 
DOCKED: ATOM     14  C   UNL d   1       9.969   7.860  30.049 -0.50 +0.01    +0.052 C 
DOCKED: ATOM     15  C   UNL d   1       7.438  12.558  26.882 -0.33 +0.00    +0.066 A 
DOCKED: ATOM     16  C   UNL d   1       7.060  13.162  25.682 -0.38 -0.00    -0.021 A 
DOCKED: ATOM     17  C   UNL d   1       6.614  14.442  26.009 -0.42 +0.00    +0.000 A 
DOCKED: ATOM     18  C   UNL d   1       6.754  14.525  27.401 -0.38 +0.01    +0.070 A 
DOCKED: ATOM     19  C   UNL d   1       7.208  12.489  24.341 -0.41 +0.00    +0.052 C 
DOCKED: ATOM     20  C   UNL d   1       6.532  15.821  29.562 -0.38 +0.01    +0.066 A 
DOCKED: ATOM     21  C   UNL d   1       6.136  16.939  30.291 -0.34 -0.01    -0.025 A 
DOCKED: ATOM     22  C   UNL d   1       6.405  16.657  31.612 -0.18 -0.01    -0.021 A 
DOCKED: ATOM     23  C   UNL d   1       6.973  15.380  31.638 -0.28 +0.03    +0.066 A 
DOCKED: ATOM     24  C   UNL d   1       5.536  18.212  29.754 -0.40 +0.01    +0.051 C 
DOCKED: ATOM     25  N   UNL d   1       8.315  12.723  31.779 -0.17 -0.10    -0.248 N 
DOCKED: ATOM     26  N   UNL d   1       8.540  11.246  29.280 -0.21 -0.05    -0.248 N 
DOCKED: ATOM     27  N   UNL d   1       7.325  13.401  27.905 -0.23 -0.03    -0.248 N 
DOCKED: ATOM     28  N   UNL d   1       7.090  14.894  30.385 -0.21 -0.08    -0.248 N 
DOCKED: ATOM     29 FE   UNL d   1       7.809  13.084  29.834 -0.08 +0.00    +0.000 Fe
DOCKED: ATOM     30  O   UNL d   1       9.342  13.125  30.103 -0.38 +0.00    +0.000 OA
DOCKED: ATOM     31  O   UNL d   1       8.692  14.177  29.127 -0.24 +0.00    +0.000 OA
DOCKED: ENDROOT
DOCKED: BRANCH   6  32
DOCKED: ATOM     32  C   UNL d   1       8.701  13.517  35.391 -0.13 +0.04    +0.052 C 
DOCKED: BRANCH  32  33
DOCKED: ATOM     33  C   UNL d   1       9.910  14.430  35.567 -0.12 +0.08    +0.115 C 
DOCKED: BRANCH  33  34
DOCKED: ATOM     34  C   UNL d   1      11.211  13.667  35.577 -0.19 +0.16    +0.139 C 
DOCKED: ATOM     35  O   UNL d   1      11.898  13.632  34.568 -0.36 -0.88    -0.650 OA
DOCKED: BRANCH  34  36
DOCKED: ATOM     36  O   UNL d   1      11.624  12.994  36.671 -0.04 -1.16    -0.776 OA
DOCKED: ATOM     37  H   UNL d   1      11.306  13.212  37.555 +0.02 +0.16    +0.167 HD
DOCKED: ENDBRANCH  34  36
DOCKED: ENDBRANCH  33  34
DOCKED: ENDBRANCH  32  33
DOCKED: ENDBRANCH   6  32
DOCKED: BRANCH  22  38
DOCKED: ATOM     38  C   UNL d   1       6.184  17.594  32.771 +0.22 +0.03    +0.052 C 
DOCKED: BRANCH  38  39
DOCKED: ATOM     39  C   UNL d   1       7.495  18.043  33.414 -0.15 +0.06    +0.115 C 
DOCKED: BRANCH  39  40
DOCKED: ATOM     40  C   UNL d   1       7.589  17.649  34.867 -0.11 +0.11    +0.139 C 
DOCKED: ATOM     41  O   UNL d   1       6.783  16.860  35.334 -0.53 -1.19    -0.650 OA
DOCKED: BRANCH  40  42
DOCKED: ATOM     42  O   UNL d   1       8.581  18.113  35.651 +0.02 -0.38    -0.776 OA
DOCKED: ATOM     43  H   UNL d   1       8.931  19.006  35.546 +0.02 +0.06    +0.167 HD
DOCKED: ENDBRANCH  40  42
DOCKED: ENDBRANCH  39  40
DOCKED: ENDBRANCH  38  39
DOCKED: ENDBRANCH  22  38
DOCKED: BRANCH  12  44
DOCKED: ATOM     44  C   UNL d   1       9.068   8.190  27.114 -0.51 +0.00    +0.004 C 
DOCKED: ATOM     45  C   UNL d   1       8.091   7.474  26.560 -0.54 +0.00    +0.012 C 
DOCKED: ENDBRANCH  12  44
DOCKED: BRANCH  17  46
DOCKED: ATOM     46  C   UNL d   1       6.140  15.575  25.138 -0.56 +0.00    +0.004 C 
DOCKED: ATOM     47  C   UNL d   1       5.420  15.509  24.011 -0.60 +0.00    +0.012 C 
DOCKED: ENDBRANCH  17  46
DOCKED: TORSDOF 10
DOCKED: TER
DOCKED: ENDMDL
________________________________________________________________________________


	BEGINNING GENETIC ALGORITHM DOCKING 71 of 100
Run: 71 Seed: 99980648 1414133743 [ Run 71 of 100 GA/GALS ]
Beginning LAMARCKIAN GENETIC ALGORITHM (LGA), with a maximum of 25000000 energy evaluations.

Final-Value: -19.272


	FINAL GENETIC ALGORITHM DOCKED STATE
	_______________________________________________


Detailed state:  trans 22.966 6.583 -3.600 quatxyzw 0.579059 -0.087037 0.790056 0.181458 center 8.287 34.468 -0.670 ntor 10 68.1482 -149.1597 -23.0272 -113.1193 157.1252 140.0233 -19.1176 50.9486 -121.6376 180.0000
State:	 22.966   6.583  -3.600   0.589 -0.089  0.803 159.091     68.15 -149.16  -23.03 -113.12  157.13  140.02  -19.12   50.95 -121.64  180.00

DOCKED: MODEL       71
DOCKED: USER    Run = 71
DOCKED: USER    DPF = D:/Protein_go_brrr/autodock/final/1A3N/heme_O2/dock.dpf
DOCKED: USER  
DOCKED: USER    Estimated Free Energy of Binding    =  -14.36 kcal/mol  [=(1)+(2)+(3)-(4)]
DOCKED: USER    Estimated Inhibition Constant, Ki   =   29.71 pM (picomolar)  [Temperature = 298.15 K]
DOCKED: USER    
DOCKED: USER    (1) Final Intermolecular Energy     =  -17.34 kcal/mol
DOCKED: USER        vdW + Hbond + desolv Energy     =  -15.87 kcal/mol
DOCKED: USER        Electrostatic Energy            =   -1.47 kcal/mol
DOCKED: USER    (2) Final Total Internal Energy     =   -1.93 kcal/mol
DOCKED: USER    (3) Torsional Free Energy           =   +2.98 kcal/mol
DOCKED: USER    (4) Unbound System's Energy  [=(2)] =   -1.93 kcal/mol
DOCKED: USER    
DOCKED: USER    
DOCKED: USER    NEWDPF move heme_O2_opt.pdbqt
DOCKED: USER    NEWDPF about 8.287000 34.468000 -0.670000
DOCKED: USER    NEWDPF tran0 22.966166 6.582599 -3.599926
DOCKED: USER    NEWDPF quaternion0 0.579059 -0.087037 0.790056 0.181458
DOCKED: USER    NEWDPF axisangle0 0.588834 -0.088506 0.803393 159.090597
DOCKED: USER    NEWDPF quat0 0.588834 -0.088506 0.803393 159.090597
DOCKED: USER    NEWDPF dihe0 68.15 -149.16 -23.03 -113.12 157.13 140.02 -19.12 50.95 -121.64 180.00 
DOCKED: USER  keepresnum = 1 
DOCKED: USER  
DOCKED: REMARK  10 active torsions:
DOCKED: REMARK  status: ('A' for Active; 'I' for Inactive)
DOCKED: REMARK    1  A    between atoms: C_6  and  C_10 
DOCKED: REMARK    2  A    between atoms: C_10  and  C_11 
DOCKED: REMARK    3  A    between atoms: C_11  and  C_12 
DOCKED: REMARK    4  A    between atoms: C_12  and  O_14 
DOCKED: REMARK    5  A    between atoms: C_17  and  C_20 
DOCKED: REMARK    6  A    between atoms: C_24  and  C_27 
DOCKED: REMARK    7  A    between atoms: C_31  and  C_34 
DOCKED: REMARK    8  A    between atoms: C_34  and  C_35 
DOCKED: REMARK    9  A    between atoms: C_35  and  C_36 
DOCKED: REMARK   10  A    between atoms: C_36  and  O_38 
DOCKED: USER                              x       y       z     vdW  Elec       q    Type
DOCKED: USER                           _______ _______ _______ _____ _____    ______ ____
DOCKED: ROOT
DOCKED: ATOM      1  C   UNL d   1      22.814   6.696  -5.713 -0.24 +0.01    +0.064 A 
DOCKED: ATOM      2  C   UNL d   1      25.506   9.016  -2.562 -0.40 +0.01    +0.064 A 
DOCKED: ATOM      3  C   UNL d   1      23.477   6.619   1.076 -0.37 +0.00    +0.064 C 
DOCKED: ATOM      4  C   UNL d   1      21.042   3.886  -2.191 -0.37 +0.01    +0.064 A 
DOCKED: ATOM      5  C   UNL d   1      23.713   7.521  -5.152 -0.13 +0.01    +0.066 A 
DOCKED: ATOM      6  C   UNL d   1      24.507   8.418  -5.873 -0.34 -0.01    -0.021 A 
DOCKED: ATOM      7  C   UNL d   1      25.318   9.059  -4.966 -0.41 -0.01    -0.025 A 
DOCKED: ATOM      8  C   UNL d   1      24.962   8.571  -3.711 -0.38 +0.01    +0.066 A 
DOCKED: ATOM      9  C   UNL d   1      26.392  10.064  -5.323 -0.44 +0.01    +0.051 C 
DOCKED: ATOM     10  C   UNL d   1      25.157   8.559  -1.215 -0.37 +0.00    +0.066 A 
DOCKED: ATOM     11  C   UNL d   1      25.633   9.168  -0.049 -0.41 -0.00    -0.021 A 
DOCKED: ATOM     12  C   UNL d   1      25.045   8.503   1.011 -0.39 +0.00    +0.000 A 
DOCKED: ATOM     13  C   UNL d   1      24.235   7.495   0.417 -0.34 +0.00    +0.070 A 
DOCKED: ATOM     14  C   UNL d   1      26.587  10.353   0.050 -0.57 +0.00    +0.052 C 
DOCKED: ATOM     15  C   UNL d   1      22.671   5.562   0.514 -0.32 +0.00    +0.066 A 
DOCKED: ATOM     16  C   UNL d   1      22.029   4.574   1.262 -0.52 -0.00    -0.021 A 
DOCKED: ATOM     17  C   UNL d   1      21.329   3.783   0.351 -0.50 +0.00    +0.000 A 
DOCKED: ATOM     18  C   UNL d   1      21.598   4.355  -0.900 -0.37 +0.00    +0.070 A 
DOCKED: ATOM     19  C   UNL d   1      22.184   4.443   2.756 -0.35 +0.00    +0.052 C 
DOCKED: ATOM     20  C   UNL d   1      21.314   4.384  -3.413 -0.38 +0.01    +0.066 A 
DOCKED: ATOM     21  C   UNL d   1      20.745   3.911  -4.592 -0.42 -0.00    -0.025 A 
DOCKED: ATOM     22  C   UNL d   1      21.218   4.718  -5.603 -0.38 -0.00    -0.021 A 
DOCKED: ATOM     23  C   UNL d   1      22.074   5.646  -5.003 -0.32 +0.01    +0.066 A 
DOCKED: ATOM     24  C   UNL d   1      19.802   2.746  -4.747 -0.45 +0.01    +0.051 C 
DOCKED: ATOM     25  N   UNL d   1      24.020   7.577  -3.833 -0.21 -0.03    -0.248 N 
DOCKED: ATOM     26  N   UNL d   1      24.313   7.533  -0.937 -0.23 -0.01    -0.248 N 
DOCKED: ATOM     27  N   UNL d   1      22.473   5.387  -0.789 -0.20 -0.01    -0.248 N 
DOCKED: ATOM     28  N   UNL d   1      22.165   5.411  -3.677 -0.25 -0.03    -0.248 N 
DOCKED: ATOM     29 FE   UNL d   1      23.230   6.462  -2.315 -0.07 +0.00    +0.000 Fe
DOCKED: ATOM     30  O   UNL d   1      24.729   6.157  -2.605 -0.42 +0.00    +0.000 OA
DOCKED: ATOM     31  O   UNL d   1      23.742   4.976  -2.269 -0.75 +0.00    +0.000 OA
DOCKED: ENDROOT
DOCKED: BRANCH   6  32
DOCKED: ATOM     32  C   UNL d   1      24.602   8.571  -7.369 -0.34 +0.03    +0.052 C 
DOCKED: BRANCH  32  33
DOCKED: ATOM     33  C   UNL d   1      24.527   7.238  -8.107 -0.27 +0.09    +0.115 C 
DOCKED: BRANCH  33  34
DOCKED: ATOM     34  C   UNL d   1      24.109   7.401  -9.547 -0.14 +0.16    +0.139 C 
DOCKED: ATOM     35  O   UNL d   1      23.988   8.521 -10.017 -0.04 -0.72    -0.650 OA
DOCKED: BRANCH  34  36
DOCKED: ATOM     36  O   UNL d   1      23.838   6.333 -10.326 -0.00 -0.77    -0.776 OA
DOCKED: ATOM     37  H   UNL d   1      23.066   5.775 -10.176 +0.06 +0.10    +0.167 HD
DOCKED: ENDBRANCH  34  36
DOCKED: ENDBRANCH  33  34
DOCKED: ENDBRANCH  32  33
DOCKED: ENDBRANCH   6  32
DOCKED: BRANCH  22  38
DOCKED: ATOM     38  C   UNL d   1      20.909   4.560  -7.069 -0.33 +0.01    +0.052 C 
DOCKED: BRANCH  38  39
DOCKED: ATOM     39  C   UNL d   1      21.722   3.440  -7.717 -0.42 +0.02    +0.115 C 
DOCKED: BRANCH  39  40
DOCKED: ATOM     40  C   UNL d   1      22.402   3.883  -8.989 -0.33 +0.05    +0.139 C 
DOCKED: ATOM     41  O   UNL d   1      21.748   4.021 -10.010 -0.46 -0.25    -0.650 OA
DOCKED: BRANCH  40  42
DOCKED: ATOM     42  O   UNL d   1      23.715   4.181  -9.007 +0.02 -0.29    -0.776 OA
DOCKED: ATOM     43  H   UNL d   1      24.069   4.870  -9.583 +0.07 +0.10    +0.167 HD
DOCKED: ENDBRANCH  40  42
DOCKED: ENDBRANCH  39  40
DOCKED: ENDBRANCH  38  39
DOCKED: ENDBRANCH  22  38
DOCKED: BRANCH  12  44
DOCKED: ATOM     44  C   UNL d   1      25.314   8.887   2.450 -0.51 +0.00    +0.004 C 
DOCKED: ATOM     45  C   UNL d   1      24.515   8.725   3.504 -0.64 -0.00    +0.012 C 
DOCKED: ENDBRANCH  12  44
DOCKED: BRANCH  17  46
DOCKED: ATOM     46  C   UNL d   1      20.504   2.540   0.553 -0.59 +0.00    +0.004 C 
DOCKED: ATOM     47  C   UNL d   1      20.697   1.323   0.026 -0.70 +0.00    +0.012 C 
DOCKED: ENDBRANCH  17  46
DOCKED: TORSDOF 10
DOCKED: TER
DOCKED: ENDMDL
________________________________________________________________________________


	BEGINNING GENETIC ALGORITHM DOCKING 72 of 100
Run: 72 Seed: 62715854 815764170 [ Run 72 of 100 GA/GALS ]
Beginning LAMARCKIAN GENETIC ALGORITHM (LGA), with a maximum of 25000000 energy evaluations.

Final-Value: -16.339


	FINAL GENETIC ALGORITHM DOCKED STATE
	_______________________________________________


Detailed state:  trans 7.544 13.686 30.664 quatxyzw -0.121622 -0.738911 0.193953 0.633720 center 8.287 34.468 -0.670 ntor 10 106.6097 -61.6045 -84.2402 72.2506 -127.0669 -32.3097 -156.3625 53.5994 -11.2595 126.5442
State:	  7.544  13.686  30.664  -0.157 -0.955  0.251 101.350    106.61  -61.60  -84.24   72.25 -127.07  -32.31 -156.36   53.60  -11.26  126.54

DOCKED: MODEL       72
DOCKED: USER    Run = 72
DOCKED: USER    DPF = D:/Protein_go_brrr/autodock/final/1A3N/heme_O2/dock.dpf
DOCKED: USER  
DOCKED: USER    Estimated Free Energy of Binding    =  -12.69 kcal/mol  [=(1)+(2)+(3)-(4)]
DOCKED: USER    Estimated Inhibition Constant, Ki   =  498.37 pM (picomolar)  [Temperature = 298.15 K]
DOCKED: USER    
DOCKED: USER    (1) Final Intermolecular Energy     =  -15.67 kcal/mol
DOCKED: USER        vdW + Hbond + desolv Energy     =  -13.07 kcal/mol
DOCKED: USER        Electrostatic Energy            =   -2.60 kcal/mol
DOCKED: USER    (2) Final Total Internal Energy     =   -0.67 kcal/mol
DOCKED: USER    (3) Torsional Free Energy           =   +2.98 kcal/mol
DOCKED: USER    (4) Unbound System's Energy  [=(2)] =   -0.67 kcal/mol
DOCKED: USER    
DOCKED: USER    
DOCKED: USER    NEWDPF move heme_O2_opt.pdbqt
DOCKED: USER    NEWDPF about 8.287000 34.468000 -0.670000
DOCKED: USER    NEWDPF tran0 7.544034 13.685770 30.664233
DOCKED: USER    NEWDPF quaternion0 -0.121622 -0.738911 0.193953 0.633720
DOCKED: USER    NEWDPF axisangle0 -0.157223 -0.955205 0.250726 101.349774
DOCKED: USER    NEWDPF quat0 -0.157223 -0.955205 0.250726 101.349774
DOCKED: USER    NEWDPF dihe0 106.61 -61.60 -84.24 72.25 -127.07 -32.31 -156.36 53.60 -11.26 126.54 
DOCKED: USER  keepresnum = 1 
DOCKED: USER  
DOCKED: REMARK  10 active torsions:
DOCKED: REMARK  status: ('A' for Active; 'I' for Inactive)
DOCKED: REMARK    1  A    between atoms: C_6  and  C_10 
DOCKED: REMARK    2  A    between atoms: C_10  and  C_11 
DOCKED: REMARK    3  A    between atoms: C_11  and  C_12 
DOCKED: REMARK    4  A    between atoms: C_12  and  O_14 
DOCKED: REMARK    5  A    between atoms: C_17  and  C_20 
DOCKED: REMARK    6  A    between atoms: C_24  and  C_27 
DOCKED: REMARK    7  A    between atoms: C_31  and  C_34 
DOCKED: REMARK    8  A    between atoms: C_34  and  C_35 
DOCKED: REMARK    9  A    between atoms: C_35  and  C_36 
DOCKED: REMARK   10  A    between atoms: C_36  and  O_38 
DOCKED: USER                              x       y       z     vdW  Elec       q    Type
DOCKED: USER                           _______ _______ _______ _____ _____    ______ ____
DOCKED: ROOT
DOCKED: ATOM      1  C   UNL d   1       7.401  14.701  32.521 -0.25 +0.04    +0.064 A 
DOCKED: ATOM      2  C   UNL d   1       9.341  10.548  31.276 -0.31 +0.02    +0.064 A 
DOCKED: ATOM      3  C   UNL d   1       7.951  11.161  26.717 -0.39 +0.00    +0.064 C 
DOCKED: ATOM      4  C   UNL d   1       6.371  15.655  27.888 -0.44 +0.01    +0.064 A 
DOCKED: ATOM      5  C   UNL d   1       8.044  13.522  32.554 -0.23 +0.04    +0.066 A 
DOCKED: ATOM      6  C   UNL d   1       8.588  12.959  33.712 -0.20 -0.01    -0.021 A 
DOCKED: ATOM      7  C   UNL d   1       9.188  11.777  33.345 -0.23 -0.02    -0.025 A 
DOCKED: ATOM      8  C   UNL d   1       8.952  11.627  31.981 -0.25 +0.03    +0.066 A 
DOCKED: ATOM      9  C   UNL d   1       9.967  10.876  34.278 -0.24 +0.04    +0.051 C 
DOCKED: ATOM     10  C   UNL d   1       9.103  10.324  29.849 -0.38 +0.02    +0.066 A 
DOCKED: ATOM     11  C   UNL d   1       9.383   9.115  29.203 -0.43 -0.00    -0.021 A 
DOCKED: ATOM     12  C   UNL d   1       8.973   9.266  27.891 -0.43 +0.00    +0.000 A 
DOCKED: ATOM     13  C   UNL d   1       8.465  10.592  27.807 -0.33 +0.01    +0.070 A 
DOCKED: ATOM     14  C   UNL d   1       9.992   7.860  29.817 -0.52 +0.01    +0.052 C 
DOCKED: ATOM     15  C   UNL d   1       7.459  12.511  26.581 -0.33 +0.00    +0.066 A 
DOCKED: ATOM     16  C   UNL d   1       7.087  13.099  25.373 -0.38 -0.00    -0.021 A 
DOCKED: ATOM     17  C   UNL d   1       6.633  14.381  25.682 -0.42 +0.00    +0.000 A 
DOCKED: ATOM     18  C   UNL d   1       6.763  14.480  27.075 -0.38 +0.01    +0.070 A 
DOCKED: ATOM     19  C   UNL d   1       7.247  12.412  24.040 -0.41 +0.00    +0.052 C 
DOCKED: ATOM     20  C   UNL d   1       6.522  15.799  29.219 -0.39 +0.01    +0.066 A 
DOCKED: ATOM     21  C   UNL d   1       6.116  16.923  29.933 -0.37 -0.01    -0.025 A 
DOCKED: ATOM     22  C   UNL d   1       6.377  16.658  31.259 -0.23 -0.01    -0.021 A 
DOCKED: ATOM     23  C   UNL d   1       6.951  15.384  31.303 -0.29 +0.03    +0.066 A 
DOCKED: ATOM     24  C   UNL d   1       5.513  18.187  29.378 -0.40 +0.00    +0.051 C 
DOCKED: ATOM     25  N   UNL d   1       8.304  12.734  31.482 -0.16 -0.09    -0.248 N 
DOCKED: ATOM     26  N   UNL d   1       8.552  11.230  29.002 -0.22 -0.04    -0.248 N 
DOCKED: ATOM     27  N   UNL d   1       7.336  13.364  27.594 -0.23 -0.03    -0.248 N 
DOCKED: ATOM     28  N   UNL d   1       7.079  14.884  30.056 -0.22 -0.07    -0.248 N 
DOCKED: ATOM     29 FE   UNL d   1       7.810  13.071  29.530 -0.08 +0.00    +0.000 Fe
DOCKED: ATOM     30  O   UNL d   1       9.340  13.122  29.808 -0.39 +0.00    +0.000 OA
DOCKED: ATOM     31  O   UNL d   1       8.692  14.160  28.817 +0.29 +0.00    +0.000 OA
DOCKED: ENDROOT
DOCKED: BRANCH   6  32
DOCKED: ATOM     32  C   UNL d   1       8.664  13.570  35.088 -0.14 +0.04    +0.052 C 
DOCKED: BRANCH  32  33
DOCKED: ATOM     33  C   UNL d   1       7.310  13.620  35.789 -0.02 +0.15    +0.115 C 
DOCKED: BRANCH  33  34
DOCKED: ATOM     34  C   UNL d   1       6.330  12.625  35.219 +0.01 +0.18    +0.139 C 
DOCKED: ATOM     35  O   UNL d   1       6.371  11.461  35.584 -0.01 -0.50    -0.650 OA
DOCKED: BRANCH  34  36
DOCKED: ATOM     36  O   UNL d   1       5.421  12.986  34.290 -0.50 -1.36    -0.776 OA
DOCKED: ATOM     37  H   UNL d   1       5.503  12.724  33.366 -0.09 +0.14    +0.167 HD
DOCKED: ENDBRANCH  34  36
DOCKED: ENDBRANCH  33  34
DOCKED: ENDBRANCH  32  33
DOCKED: ENDBRANCH   6  32
DOCKED: BRANCH  22  38
DOCKED: ATOM     38  C   UNL d   1       6.145  17.606  32.407 -0.01 +0.03    +0.052 C 
DOCKED: BRANCH  38  39
DOCKED: ATOM     39  C   UNL d   1       7.358  17.712  33.328 -0.16 +0.07    +0.115 C 
DOCKED: BRANCH  39  40
DOCKED: ATOM     40  C   UNL d   1       7.005  17.472  34.775 -0.05 +0.15    +0.139 C 
DOCKED: ATOM     41  O   UNL d   1       7.420  16.474  35.342 -0.56 -0.91    -0.650 OA
DOCKED: BRANCH  40  42
DOCKED: ATOM     42  O   UNL d   1       6.279  18.367  35.472 -0.12 -0.69    -0.776 OA
DOCKED: ATOM     43  H   UNL d   1       6.577  19.277  35.588 +0.01 +0.09    +0.167 HD
DOCKED: ENDBRANCH  40  42
DOCKED: ENDBRANCH  39  40
DOCKED: ENDBRANCH  38  39
DOCKED: ENDBRANCH  22  38
DOCKED: BRANCH  12  44
DOCKED: ATOM     44  C   UNL d   1       9.109   8.153  26.874 -0.51 +0.00    +0.004 C 
DOCKED: ATOM     45  C   UNL d   1       8.216   7.213  26.564 -0.55 +0.00    +0.012 C 
DOCKED: ENDBRANCH  12  44
DOCKED: BRANCH  17  46
DOCKED: ATOM     46  C   UNL d   1       6.159  15.502  24.796 -0.56 +0.00    +0.004 C 
DOCKED: ATOM     47  C   UNL d   1       5.069  15.539  24.019 -0.59 +0.00    +0.012 C 
DOCKED: ENDBRANCH  17  46
DOCKED: TORSDOF 10
DOCKED: TER
DOCKED: ENDMDL
________________________________________________________________________________


	BEGINNING GENETIC ALGORITHM DOCKING 73 of 100
Run: 73 Seed: 212998578 218758187 [ Run 73 of 100 GA/GALS ]
Beginning LAMARCKIAN GENETIC ALGORITHM (LGA), with a maximum of 25000000 energy evaluations.

Final-Value: -19.803


	FINAL GENETIC ALGORITHM DOCKED STATE
	_______________________________________________


Detailed state:  trans 8.239 12.036 28.229 quatxyzw -0.755849 0.413968 0.485657 0.146492 center 8.287 34.468 -0.670 ntor 10 89.6538 31.0523 43.0066 -68.6822 151.4886 95.3445 -45.4428 -2.8251 -133.0992 165.0159
State:	  8.239  12.036  28.229  -0.764  0.418  0.491 163.153     89.65   31.05   43.01  -68.68  151.49   95.34  -45.44   -2.83 -133.10  165.02

DOCKED: MODEL       73
DOCKED: USER    Run = 73
DOCKED: USER    DPF = D:/Protein_go_brrr/autodock/final/1A3N/heme_O2/dock.dpf
DOCKED: USER  
DOCKED: USER    Estimated Free Energy of Binding    =  -15.11 kcal/mol  [=(1)+(2)+(3)-(4)]
DOCKED: USER    Estimated Inhibition Constant, Ki   =    8.38 pM (picomolar)  [Temperature = 298.15 K]
DOCKED: USER    
DOCKED: USER    (1) Final Intermolecular Energy     =  -18.09 kcal/mol
DOCKED: USER        vdW + Hbond + desolv Energy     =  -16.12 kcal/mol
DOCKED: USER        Electrostatic Energy            =   -1.97 kcal/mol
DOCKED: USER    (2) Final Total Internal Energy     =   -1.71 kcal/mol
DOCKED: USER    (3) Torsional Free Energy           =   +2.98 kcal/mol
DOCKED: USER    (4) Unbound System's Energy  [=(2)] =   -1.71 kcal/mol
DOCKED: USER    
DOCKED: USER    
DOCKED: USER    NEWDPF move heme_O2_opt.pdbqt
DOCKED: USER    NEWDPF about 8.287000 34.468000 -0.670000
DOCKED: USER    NEWDPF tran0 8.238841 12.036043 28.229000
DOCKED: USER    NEWDPF quaternion0 -0.755849 0.413968 0.485657 0.146492
DOCKED: USER    NEWDPF axisangle0 -0.764092 0.418483 0.490954 163.152575
DOCKED: USER    NEWDPF quat0 -0.764092 0.418483 0.490954 163.152575
DOCKED: USER    NEWDPF dihe0 89.65 31.05 43.01 -68.68 151.49 95.34 -45.44 -2.83 -133.10 165.02 
DOCKED: USER  keepresnum = 1 
DOCKED: USER  
DOCKED: REMARK  10 active torsions:
DOCKED: REMARK  status: ('A' for Active; 'I' for Inactive)
DOCKED: REMARK    1  A    between atoms: C_6  and  C_10 
DOCKED: REMARK    2  A    between atoms: C_10  and  C_11 
DOCKED: REMARK    3  A    between atoms: C_11  and  C_12 
DOCKED: REMARK    4  A    between atoms: C_12  and  O_14 
DOCKED: REMARK    5  A    between atoms: C_17  and  C_20 
DOCKED: REMARK    6  A    between atoms: C_24  and  C_27 
DOCKED: REMARK    7  A    between atoms: C_31  and  C_34 
DOCKED: REMARK    8  A    between atoms: C_34  and  C_35 
DOCKED: REMARK    9  A    between atoms: C_35  and  C_36 
DOCKED: REMARK   10  A    between atoms: C_36  and  O_38 
DOCKED: USER                              x       y       z     vdW  Elec       q    Type
DOCKED: USER                           _______ _______ _______ _____ _____    ______ ____
DOCKED: ROOT
DOCKED: ATOM      1  C   UNL d   1       8.285  12.958  30.139 -0.19 +0.02    +0.064 A 
DOCKED: ATOM      2  C   UNL d   1       6.651  14.400  25.919 -0.38 +0.01    +0.064 A 
DOCKED: ATOM      3  C   UNL d   1       8.061  10.292  23.864 -0.40 +0.00    +0.064 C 
DOCKED: ATOM      4  C   UNL d   1       9.316   8.601  28.296 -0.39 +0.01    +0.064 A 
DOCKED: ATOM      5  C   UNL d   1       7.724  13.685  29.159 -0.27 +0.01    +0.066 A 
DOCKED: ATOM      6  C   UNL d   1       7.203  14.970  29.338 -0.38 -0.00    -0.021 A 
DOCKED: ATOM      7  C   UNL d   1       6.690  15.371  28.126 -0.44 -0.00    -0.025 A 
DOCKED: ATOM      8  C   UNL d   1       6.956  14.340  27.230 -0.37 +0.01    +0.066 A 
DOCKED: ATOM      9  C   UNL d   1       5.961  16.674  27.884 -0.41 +0.00    +0.051 C 
DOCKED: ATOM     10  C   UNL d   1       6.924  13.361  24.926 -0.35 +0.00    +0.066 A 
DOCKED: ATOM     11  C   UNL d   1       6.736  13.541  23.551 -0.37 -0.00    -0.021 A 
DOCKED: ATOM     12  C   UNL d   1       7.154  12.374  22.940 -0.41 +0.00    +0.000 A 
DOCKED: ATOM     13  C   UNL d   1       7.572  11.524  24.001 -0.27 +0.00    +0.070 A 
DOCKED: ATOM     14  C   UNL d   1       6.205  14.785  22.848 -0.44 +0.00    +0.052 C 
DOCKED: ATOM     15  C   UNL d   1       8.462   9.386  24.914 -0.39 +0.01    +0.066 A 
DOCKED: ATOM     16  C   UNL d   1       8.812   8.051  24.716 -0.52 -0.00    -0.021 A 
DOCKED: ATOM     17  C   UNL d   1       9.172   7.548  25.966 -0.47 +0.00    +0.000 A 
DOCKED: ATOM     18  C   UNL d   1       9.016   8.630  26.845 -0.38 +0.01    +0.070 A 
DOCKED: ATOM     19  C   UNL d   1       8.718   7.366  23.376 -0.54 +0.00    +0.052 C 
DOCKED: ATOM     20  C   UNL d   1       9.136   9.607  29.174 -0.39 +0.01    +0.066 A 
DOCKED: ATOM     21  C   UNL d   1       9.454   9.527  30.527 -0.42 -0.01    -0.025 A 
DOCKED: ATOM     22  C   UNL d   1       9.192  10.768  31.063 -0.32 -0.01    -0.021 A 
DOCKED: ATOM     23  C   UNL d   1       8.705  11.557  30.016 -0.31 +0.02    +0.066 A 
DOCKED: ATOM     24  C   UNL d   1       9.977   8.326  31.272 -0.54 +0.02    +0.051 C 
DOCKED: ATOM     25  N   UNL d   1       7.534  13.275  27.881 -0.20 -0.03    -0.248 N 
DOCKED: ATOM     26  N   UNL d   1       7.424  12.130  25.206 -0.22 -0.01    -0.248 N 
DOCKED: ATOM     27  N   UNL d   1       8.513   9.715  26.202 -0.22 -0.03    -0.248 N 
DOCKED: ATOM     28  N   UNL d   1       8.630  10.834  28.880 -0.25 -0.04    -0.248 N 
DOCKED: ATOM     29 FE   UNL d   1       8.032  11.475  27.055 -0.08 +0.00    +0.000 Fe
DOCKED: ATOM     30  O   UNL d   1       6.498  11.714  27.160 -0.42 +0.00    +0.000 OA
DOCKED: ATOM     31  O   UNL d   1       7.088  10.287  27.471 -0.72 +0.00    +0.000 OA
DOCKED: ENDROOT
DOCKED: BRANCH   6  32
DOCKED: ATOM     32  C   UNL d   1       7.066  15.739  30.626 -0.36 +0.02    +0.052 C 
DOCKED: BRANCH  32  33
DOCKED: ATOM     33  C   UNL d   1       6.414  14.922  31.737 -0.30 +0.06    +0.115 C 
DOCKED: BRANCH  33  34
DOCKED: ATOM     34  C   UNL d   1       7.173  15.012  33.038 -0.21 +0.12    +0.139 C 
DOCKED: ATOM     35  O   UNL d   1       8.181  15.696  33.102 +0.01 -0.42    -0.650 OA
DOCKED: BRANCH  34  36
DOCKED: ATOM     36  O   UNL d   1       6.777  14.328  34.132 +0.04 -1.23    -0.776 OA
DOCKED: ATOM     37  H   UNL d   1       7.092  13.436  34.318 +0.06 +0.19    +0.167 HD
DOCKED: ENDBRANCH  34  36
DOCKED: ENDBRANCH  33  34
DOCKED: ENDBRANCH  32  33
DOCKED: ENDBRANCH   6  32
DOCKED: BRANCH  22  38
DOCKED: ATOM     38  C   UNL d   1       9.343  11.148  32.513 -0.30 +0.03    +0.052 C 
DOCKED: BRANCH  38  39
DOCKED: ATOM     39  C   UNL d   1       8.044  10.976  33.298 -0.32 +0.05    +0.115 C 
DOCKED: BRANCH  39  40
DOCKED: ATOM     40  C   UNL d   1       8.216  11.264  34.768 -0.22 +0.09    +0.139 C 
DOCKED: ATOM     41  O   UNL d   1       7.978  10.392  35.589 -0.55 -0.44    -0.650 OA
DOCKED: BRANCH  40  42
DOCKED: ATOM     42  O   UNL d   1       8.679  12.455  35.194 +0.10 -0.59    -0.776 OA
DOCKED: ATOM     43  H   UNL d   1       8.475  13.273  34.725 +0.06 +0.13    +0.167 HD
DOCKED: ENDBRANCH  40  42
DOCKED: ENDBRANCH  39  40
DOCKED: ENDBRANCH  38  39
DOCKED: ENDBRANCH  22  38
DOCKED: BRANCH  12  44
DOCKED: ATOM     44  C   UNL d   1       7.109  12.192  21.437 -0.60 -0.00    +0.004 C 
DOCKED: ATOM     45  C   UNL d   1       6.785  11.095  20.754 -0.74 -0.00    +0.012 C 
DOCKED: ENDBRANCH  12  44
DOCKED: BRANCH  17  46
DOCKED: ATOM     46  C   UNL d   1       9.582   6.164  26.394 -0.63 +0.00    +0.004 C 
DOCKED: ATOM     47  C   UNL d   1       8.805   5.086  26.567 -0.74 +0.00    +0.012 C 
DOCKED: ENDBRANCH  17  46
DOCKED: TORSDOF 10
DOCKED: TER
DOCKED: ENDMDL
________________________________________________________________________________


	BEGINNING GENETIC ALGORITHM DOCKING 74 of 100
Run: 74 Seed: 2100841952 774603474 [ Run 74 of 100 GA/GALS ]
Beginning LAMARCKIAN GENETIC ALGORITHM (LGA), with a maximum of 25000000 energy evaluations.

Final-Value: -15.389


	FINAL GENETIC ALGORITHM DOCKED STATE
	_______________________________________________


Detailed state:  trans 2.011 -6.598 -6.610 quatxyzw -0.504392 0.058840 -0.838909 -0.195851 center 8.287 34.468 -0.670 ntor 10 -45.1987 -114.6409 -125.2673 135.6943 -135.4552 80.1807 179.9766 -83.2714 -10.3978 -22.2615
State:	  2.011  -6.598  -6.610  -0.514  0.060 -0.855 -157.411    -45.20 -114.64 -125.27  135.69 -135.46   80.18  179.98  -83.27  -10.40  -22.26

DOCKED: MODEL       74
DOCKED: USER    Run = 74
DOCKED: USER    DPF = D:/Protein_go_brrr/autodock/final/1A3N/heme_O2/dock.dpf
DOCKED: USER  
DOCKED: USER    Estimated Free Energy of Binding    =  -10.52 kcal/mol  [=(1)+(2)+(3)-(4)]
DOCKED: USER    Estimated Inhibition Constant, Ki   =   19.50 nM (nanomolar)  [Temperature = 298.15 K]
DOCKED: USER    
DOCKED: USER    (1) Final Intermolecular Energy     =  -13.50 kcal/mol
DOCKED: USER        vdW + Hbond + desolv Energy     =  -11.66 kcal/mol
DOCKED: USER        Electrostatic Energy            =   -1.84 kcal/mol
DOCKED: USER    (2) Final Total Internal Energy     =   -1.89 kcal/mol
DOCKED: USER    (3) Torsional Free Energy           =   +2.98 kcal/mol
DOCKED: USER    (4) Unbound System's Energy  [=(2)] =   -1.89 kcal/mol
DOCKED: USER    
DOCKED: USER    
DOCKED: USER    NEWDPF move heme_O2_opt.pdbqt
DOCKED: USER    NEWDPF about 8.287000 34.468000 -0.670000
DOCKED: USER    NEWDPF tran0 2.010661 -6.597994 -6.610419
DOCKED: USER    NEWDPF quaternion0 -0.504392 0.058840 -0.838909 -0.195851
DOCKED: USER    NEWDPF axisangle0 -0.514353 0.060002 -0.855477 -157.411172
DOCKED: USER    NEWDPF quat0 -0.514353 0.060002 -0.855477 -157.411172
DOCKED: USER    NEWDPF dihe0 -45.20 -114.64 -125.27 135.69 -135.46 80.18 179.98 -83.27 -10.40 -22.26 
DOCKED: USER  keepresnum = 1 
DOCKED: USER  
DOCKED: REMARK  10 active torsions:
DOCKED: REMARK  status: ('A' for Active; 'I' for Inactive)
DOCKED: REMARK    1  A    between atoms: C_6  and  C_10 
DOCKED: REMARK    2  A    between atoms: C_10  and  C_11 
DOCKED: REMARK    3  A    between atoms: C_11  and  C_12 
DOCKED: REMARK    4  A    between atoms: C_12  and  O_14 
DOCKED: REMARK    5  A    between atoms: C_17  and  C_20 
DOCKED: REMARK    6  A    between atoms: C_24  and  C_27 
DOCKED: REMARK    7  A    between atoms: C_31  and  C_34 
DOCKED: REMARK    8  A    between atoms: C_34  and  C_35 
DOCKED: REMARK    9  A    between atoms: C_35  and  C_36 
DOCKED: REMARK   10  A    between atoms: C_36  and  O_38 
DOCKED: USER                              x       y       z     vdW  Elec       q    Type
DOCKED: USER                           _______ _______ _______ _____ _____    ______ ____
DOCKED: ROOT
DOCKED: ATOM      1  C   UNL d   1       2.252  -6.503  -8.716 -0.20 +0.03    +0.064 A 
DOCKED: ATOM      2  C   UNL d   1       4.254  -4.094  -5.145 -0.42 +0.01    +0.064 A 
DOCKED: ATOM      3  C   UNL d   1       1.639  -6.516  -1.922 -0.31 +0.00    +0.064 C 
DOCKED: ATOM      4  C   UNL d   1      -0.078  -9.333  -5.553 -0.26 +0.02    +0.064 A 
DOCKED: ATOM      5  C   UNL d   1       3.011  -5.651  -8.007 -0.24 +0.02    +0.066 A 
DOCKED: ATOM      6  C   UNL d   1       3.905  -4.740  -8.577 -0.26 -0.00    -0.021 A 
DOCKED: ATOM      7  C   UNL d   1       4.517  -4.072  -7.542 -0.37 -0.00    -0.025 A 
DOCKED: ATOM      8  C   UNL d   1       3.945  -4.560  -6.371 -0.37 +0.01    +0.066 A 
DOCKED: ATOM      9  C   UNL d   1       5.614  -3.043  -7.705 -0.44 -0.00    +0.051 C 
DOCKED: ATOM     10  C   UNL d   1       3.671  -4.550  -3.882 -0.38 +0.01    +0.066 A 
DOCKED: ATOM     11  C   UNL d   1       3.906  -3.921  -2.655 -0.42 -0.00    -0.021 A 
DOCKED: ATOM     12  C   UNL d   1       3.147  -4.594  -1.716 -0.41 +0.00    +0.000 A 
DOCKED: ATOM     13  C   UNL d   1       2.486  -5.626  -2.438 -0.30 +0.00    +0.070 A 
DOCKED: ATOM     14  C   UNL d   1       4.796  -2.711  -2.394 -0.52 +0.00    +0.052 C 
DOCKED: ATOM     15  C   UNL d   1       0.977  -7.598  -2.612 -0.30 +0.01    +0.066 A 
DOCKED: ATOM     16  C   UNL d   1       0.231  -8.596  -1.985 -0.42 -0.00    -0.021 A 
DOCKED: ATOM     17  C   UNL d   1      -0.268  -9.411  -3.001 -0.45 +0.00    +0.000 A 
DOCKED: ATOM     18  C   UNL d   1       0.216  -8.841  -4.187 -0.36 +0.01    +0.070 A 
DOCKED: ATOM     19  C   UNL d   1       0.108  -8.713  -0.487 -0.50 -0.00    +0.052 C 
DOCKED: ATOM     20  C   UNL d   1       0.405  -8.836  -6.709 -0.24 +0.03    +0.066 A 
DOCKED: ATOM     21  C   UNL d   1       0.078  -9.332  -7.968 -0.18 -0.01    -0.025 A 
DOCKED: ATOM     22  C   UNL d   1       0.711  -8.520  -8.882 -0.17 -0.01    -0.021 A 
DOCKED: ATOM     23  C   UNL d   1       1.419  -7.567  -8.144 -0.22 +0.03    +0.066 A 
DOCKED: ATOM     24  C   UNL d   1      -0.792 -10.521  -8.283 -0.14 +0.02    +0.051 C 
DOCKED: ATOM     25  N   UNL d   1       3.065  -5.579  -6.655 -0.20 -0.06    -0.248 N 
DOCKED: ATOM     26  N   UNL d   1       2.814  -5.595  -3.754 -0.22 -0.03    -0.248 N 
DOCKED: ATOM     27  N   UNL d   1       1.031  -7.786  -3.927 -0.24 -0.04    -0.248 N 
DOCKED: ATOM     28  N   UNL d   1       1.266  -7.791  -6.822 -0.15 -0.10    -0.248 N 
DOCKED: ATOM     29 FE   UNL d   1       2.033  -6.703  -5.298 -0.08 +0.00    +0.000 Fe
DOCKED: ATOM     30  O   UNL d   1       3.566  -6.972  -5.300 -0.18 +0.00    +0.000 OA
DOCKED: ATOM     31  O   UNL d   1       2.562  -8.175  -5.140 -0.37 +0.00    +0.000 OA
DOCKED: ENDROOT
DOCKED: BRANCH   6  32
DOCKED: ATOM     32  C   UNL d   1       4.274  -4.595 -10.031 -0.18 +0.01    +0.052 C 
DOCKED: BRANCH  32  33
DOCKED: ATOM     33  C   UNL d   1       3.167  -3.952 -10.861 -0.14 +0.02    +0.115 C 
DOCKED: BRANCH  33  34
DOCKED: ATOM     34  C   UNL d   1       1.933  -3.657 -10.045 -0.24 +0.05    +0.139 C 
DOCKED: ATOM     35  O   UNL d   1       1.942  -2.729  -9.252 +0.03 -0.18    -0.650 OA
DOCKED: BRANCH  34  36
DOCKED: ATOM     36  O   UNL d   1       0.822  -4.415 -10.151 -0.02 -0.60    -0.776 OA
DOCKED: ATOM     37  H   UNL d   1       0.470  -4.689 -11.006 +0.05 +0.14    +0.167 HD
DOCKED: ENDBRANCH  34  36
DOCKED: ENDBRANCH  33  34
DOCKED: ENDBRANCH  32  33
DOCKED: ENDBRANCH   6  32
DOCKED: BRANCH  22  38
DOCKED: ATOM     38  C   UNL d   1       0.686  -8.697 -10.379 -0.10 +0.02    +0.052 C 
DOCKED: BRANCH  38  39
DOCKED: ATOM     39  C   UNL d   1      -0.601  -8.166 -11.006 -0.09 +0.09    +0.115 C 
DOCKED: BRANCH  39  40
DOCKED: ATOM     40  C   UNL d   1      -0.453  -6.756 -11.521 -0.05 +0.14    +0.139 C 
DOCKED: ATOM     41  O   UNL d   1      -1.323  -5.932 -11.293 +0.02 -1.14    -0.650 OA
DOCKED: BRANCH  40  42
DOCKED: ATOM     42  O   UNL d   1       0.652  -6.373 -12.190 +0.03 -0.41    -0.776 OA
DOCKED: ATOM     43  H   UNL d   1       1.277  -5.741 -11.813 +0.03 +0.08    +0.167 HD
DOCKED: ENDBRANCH  40  42
DOCKED: ENDBRANCH  39  40
DOCKED: ENDBRANCH  38  39
DOCKED: ENDBRANCH  22  38
DOCKED: BRANCH  12  44
DOCKED: ATOM     44  C   UNL d   1       3.133  -4.192  -0.256 -0.47 +0.00    +0.004 C 
DOCKED: ATOM     45  C   UNL d   1       2.937  -2.979   0.258 -0.53 +0.00    +0.012 C 
DOCKED: ENDBRANCH  12  44
DOCKED: BRANCH  17  46
DOCKED: ATOM     46  C   UNL d   1      -1.086 -10.673  -2.943 -0.32 +0.00    +0.004 C 
DOCKED: ATOM     47  C   UNL d   1      -2.223 -10.955  -3.593 -0.37 -0.00    +0.012 C 
DOCKED: ENDBRANCH  17  46
DOCKED: TORSDOF 10
DOCKED: TER
DOCKED: ENDMDL
________________________________________________________________________________


	BEGINNING GENETIC ALGORITHM DOCKING 75 of 100
Run: 75 Seed: 1385380533 368111040 [ Run 75 of 100 GA/GALS ]
Beginning LAMARCKIAN GENETIC ALGORITHM (LGA), with a maximum of 25000000 energy evaluations.

Final-Value: -19.860


	FINAL GENETIC ALGORITHM DOCKED STATE
	_______________________________________________


Detailed state:  trans 8.615 11.398 28.718 quatxyzw -0.735506 0.403167 0.534299 0.104937 center 8.287 34.468 -0.670 ntor 10 93.6479 125.2409 18.1355 -84.3806 -165.6323 -55.1476 -49.6226 88.6104 -172.8527 -169.4816
State:	  8.615  11.398  28.718  -0.740  0.405  0.537 167.953     93.65  125.24   18.14  -84.38 -165.63  -55.15  -49.62   88.61 -172.85 -169.48

DOCKED: MODEL       75
DOCKED: USER    Run = 75
DOCKED: USER    DPF = D:/Protein_go_brrr/autodock/final/1A3N/heme_O2/dock.dpf
DOCKED: USER  
DOCKED: USER    Estimated Free Energy of Binding    =  -14.70 kcal/mol  [=(1)+(2)+(3)-(4)]
DOCKED: USER    Estimated Inhibition Constant, Ki   =   16.69 pM (picomolar)  [Temperature = 298.15 K]
DOCKED: USER    
DOCKED: USER    (1) Final Intermolecular Energy     =  -17.69 kcal/mol
DOCKED: USER        vdW + Hbond + desolv Energy     =  -15.83 kcal/mol
DOCKED: USER        Electrostatic Energy            =   -1.86 kcal/mol
DOCKED: USER    (2) Final Total Internal Energy     =   -2.17 kcal/mol
DOCKED: USER    (3) Torsional Free Energy           =   +2.98 kcal/mol
DOCKED: USER    (4) Unbound System's Energy  [=(2)] =   -2.17 kcal/mol
DOCKED: USER    
DOCKED: USER    
DOCKED: USER    NEWDPF move heme_O2_opt.pdbqt
DOCKED: USER    NEWDPF about 8.287000 34.468000 -0.670000
DOCKED: USER    NEWDPF tran0 8.615152 11.398203 28.718136
DOCKED: USER    NEWDPF quaternion0 -0.735506 0.403167 0.534299 0.104937
DOCKED: USER    NEWDPF axisangle0 -0.739589 0.405405 0.537266 167.952895
DOCKED: USER    NEWDPF quat0 -0.739589 0.405405 0.537266 167.952895
DOCKED: USER    NEWDPF dihe0 93.65 125.24 18.14 -84.38 -165.63 -55.15 -49.62 88.61 -172.85 -169.48 
DOCKED: USER  keepresnum = 1 
DOCKED: USER  
DOCKED: REMARK  10 active torsions:
DOCKED: REMARK  status: ('A' for Active; 'I' for Inactive)
DOCKED: REMARK    1  A    between atoms: C_6  and  C_10 
DOCKED: REMARK    2  A    between atoms: C_10  and  C_11 
DOCKED: REMARK    3  A    between atoms: C_11  and  C_12 
DOCKED: REMARK    4  A    between atoms: C_12  and  O_14 
DOCKED: REMARK    5  A    between atoms: C_17  and  C_20 
DOCKED: REMARK    6  A    between atoms: C_24  and  C_27 
DOCKED: REMARK    7  A    between atoms: C_31  and  C_34 
DOCKED: REMARK    8  A    between atoms: C_34  and  C_35 
DOCKED: REMARK    9  A    between atoms: C_35  and  C_36 
DOCKED: REMARK   10  A    between atoms: C_36  and  O_38 
DOCKED: USER                              x       y       z     vdW  Elec       q    Type
DOCKED: USER                           _______ _______ _______ _____ _____    ______ ____
DOCKED: ROOT
DOCKED: ATOM      1  C   UNL d   1       8.828  12.103  30.708 -0.20 +0.02    +0.064 A 
DOCKED: ATOM      2  C   UNL d   1       7.034  14.079  26.779 -0.36 +0.01    +0.064 A 
DOCKED: ATOM      3  C   UNL d   1       8.079  10.152  24.214 -0.40 +0.00    +0.064 C 
DOCKED: ATOM      4  C   UNL d   1       9.492   7.926  28.352 -0.33 +0.01    +0.064 A 
DOCKED: ATOM      5  C   UNL d   1       8.253  12.960  29.849 -0.20 +0.02    +0.066 A 
DOCKED: ATOM      6  C   UNL d   1       7.819  14.243  30.196 -0.33 -0.01    -0.021 A 
DOCKED: ATOM      7  C   UNL d   1       7.260  14.800  29.069 -0.38 -0.01    -0.025 A 
DOCKED: ATOM      8  C   UNL d   1       7.412  13.860  28.053 -0.34 +0.01    +0.066 A 
DOCKED: ATOM      9  C   UNL d   1       6.595  16.158  29.014 -0.44 +0.01    +0.051 C 
DOCKED: ATOM     10  C   UNL d   1       7.188  13.142  25.666 -0.35 +0.00    +0.066 A 
DOCKED: ATOM     11  C   UNL d   1       6.930  13.480  24.333 -0.37 -0.00    -0.021 A 
DOCKED: ATOM     12  C   UNL d   1       7.242  12.366  23.576 -0.39 +0.00    +0.000 A 
DOCKED: ATOM     13  C   UNL d   1       7.671  11.385  24.512 -0.29 +0.00    +0.070 A 
DOCKED: ATOM     14  C   UNL d   1       6.432  14.819  23.801 -0.42 +0.00    +0.052 C 
DOCKED: ATOM     15  C   UNL d   1       8.488   9.118  25.135 -0.40 +0.01    +0.066 A 
DOCKED: ATOM     16  C   UNL d   1       8.746   7.796  24.774 -0.52 -0.00    -0.021 A 
DOCKED: ATOM     17  C   UNL d   1       9.150   7.142  25.938 -0.50 +0.00    +0.000 A 
DOCKED: ATOM     18  C   UNL d   1       9.109   8.127  26.934 -0.39 +0.01    +0.070 A 
DOCKED: ATOM     19  C   UNL d   1       8.534   7.267  23.378 -0.54 +0.00    +0.052 C 
DOCKED: ATOM     20  C   UNL d   1       9.423   8.837  29.341 -0.36 +0.02    +0.066 A 
DOCKED: ATOM     21  C   UNL d   1       9.815   8.594  30.655 -0.44 -0.01    -0.025 A 
DOCKED: ATOM     22  C   UNL d   1       9.658   9.781  31.334 -0.37 -0.01    -0.021 A 
DOCKED: ATOM     23  C   UNL d   1       9.157  10.704  30.411 -0.31 +0.02    +0.066 A 
DOCKED: ATOM     24  C   UNL d   1      10.310   7.294  31.233 -0.20 +0.01    +0.051 C 
DOCKED: ATOM     25  N   UNL d   1       7.964  12.702  28.549 -0.19 -0.03    -0.248 N 
DOCKED: ATOM     26  N   UNL d   1       7.631  11.864  25.781 -0.22 -0.01    -0.248 N 
DOCKED: ATOM     27  N   UNL d   1       8.633   9.301  26.444 -0.22 -0.03    -0.248 N 
DOCKED: ATOM     28  N   UNL d   1       8.974  10.114  29.212 -0.27 -0.05    -0.248 N 
DOCKED: ATOM     29 FE   UNL d   1       8.307  10.980  27.508 -0.08 +0.00    +0.000 Fe
DOCKED: ATOM     30  O   UNL d   1       6.798  11.285  27.737 -0.42 +0.00    +0.000 OA
DOCKED: ATOM     31  O   UNL d   1       7.322   9.804  27.856 -0.89 +0.00    +0.000 OA
DOCKED: ENDROOT
DOCKED: BRANCH   6  32
DOCKED: ATOM     32  C   UNL d   1       7.803  14.873  31.564 -0.31 +0.02    +0.052 C 
DOCKED: BRANCH  32  33
DOCKED: ATOM     33  C   UNL d   1       6.511  14.599  32.327 -0.24 +0.08    +0.115 C 
DOCKED: BRANCH  33  34
DOCKED: ATOM     34  C   UNL d   1       6.765  14.043  33.707 -0.15 +0.17    +0.139 C 
DOCKED: ATOM     35  O   UNL d   1       7.642  14.531  34.402 -0.03 -0.76    -0.650 OA
DOCKED: BRANCH  34  36
DOCKED: ATOM     36  O   UNL d   1       6.060  12.996  34.183 -0.38 -1.07    -0.776 OA
DOCKED: ATOM     37  H   UNL d   1       6.376  12.089  34.103 +0.07 +0.13    +0.167 HD
DOCKED: ENDBRANCH  34  36
DOCKED: ENDBRANCH  33  34
DOCKED: ENDBRANCH  32  33
DOCKED: ENDBRANCH   6  32
DOCKED: BRANCH  22  38
DOCKED: ATOM     38  C   UNL d   1       9.916   9.993  32.804 -0.21 +0.03    +0.052 C 
DOCKED: BRANCH  38  39
DOCKED: ATOM     39  C   UNL d   1       8.921   9.239  33.683 -0.38 +0.06    +0.115 C 
DOCKED: BRANCH  39  40
DOCKED: ATOM     40  C   UNL d   1       7.727  10.082  34.055 -0.37 +0.07    +0.139 C 
DOCKED: ATOM     41  O   UNL d   1       6.742  10.091  33.334 -0.10 -0.23    -0.650 OA
DOCKED: BRANCH  40  42
DOCKED: ATOM     42  O   UNL d   1       7.705  10.791  35.201 -0.10 -0.49    -0.776 OA
DOCKED: ATOM     43  H   UNL d   1       7.495  11.733  35.208 +0.07 +0.12    +0.167 HD
DOCKED: ENDBRANCH  40  42
DOCKED: ENDBRANCH  39  40
DOCKED: ENDBRANCH  38  39
DOCKED: ENDBRANCH  22  38
DOCKED: BRANCH  12  44
DOCKED: ATOM     44  C   UNL d   1       7.098  12.353  22.068 -0.53 +0.00    +0.004 C 
DOCKED: ATOM     45  C   UNL d   1       7.119  11.299  21.254 -0.65 -0.00    +0.012 C 
DOCKED: ENDBRANCH  12  44
DOCKED: BRANCH  17  46
DOCKED: ATOM     46  C   UNL d   1       9.503   5.700  26.190 -0.68 +0.00    +0.004 C 
DOCKED: ATOM     47  C   UNL d   1       8.695   4.705  26.579 -0.74 +0.00    +0.012 C 
DOCKED: ENDBRANCH  17  46
DOCKED: TORSDOF 10
DOCKED: TER
DOCKED: ENDMDL
________________________________________________________________________________


	BEGINNING GENETIC ALGORITHM DOCKING 76 of 100
Run: 76 Seed: 1962346437 1157961536 [ Run 76 of 100 GA/GALS ]
Beginning LAMARCKIAN GENETIC ALGORITHM (LGA), with a maximum of 25000000 energy evaluations.

Final-Value: -19.974


	FINAL GENETIC ALGORITHM DOCKED STATE
	_______________________________________________


Detailed state:  trans 8.234 12.050 28.437 quatxyzw 0.762951 -0.396859 -0.492780 -0.132579 center 8.287 34.468 -0.670 ntor 10 90.8475 132.1589 43.2299 -73.2069 29.7882 -14.8418 40.7288 65.8763 -63.9647 180.0000
State:	  8.234  12.050  28.437   0.770 -0.400 -0.497 -164.763     90.85  132.16   43.23  -73.21   29.79  -14.84   40.73   65.88  -63.96  180.00

DOCKED: MODEL       76
DOCKED: USER    Run = 76
DOCKED: USER    DPF = D:/Protein_go_brrr/autodock/final/1A3N/heme_O2/dock.dpf
DOCKED: USER  
DOCKED: USER    Estimated Free Energy of Binding    =  -14.97 kcal/mol  [=(1)+(2)+(3)-(4)]
DOCKED: USER    Estimated Inhibition Constant, Ki   =   10.64 pM (picomolar)  [Temperature = 298.15 K]
DOCKED: USER    
DOCKED: USER    (1) Final Intermolecular Energy     =  -17.95 kcal/mol
DOCKED: USER        vdW + Hbond + desolv Energy     =  -15.72 kcal/mol
DOCKED: USER        Electrostatic Energy            =   -2.23 kcal/mol
DOCKED: USER    (2) Final Total Internal Energy     =   -2.02 kcal/mol
DOCKED: USER    (3) Torsional Free Energy           =   +2.98 kcal/mol
DOCKED: USER    (4) Unbound System's Energy  [=(2)] =   -2.02 kcal/mol
DOCKED: USER    
DOCKED: USER    
DOCKED: USER    NEWDPF move heme_O2_opt.pdbqt
DOCKED: USER    NEWDPF about 8.287000 34.468000 -0.670000
DOCKED: USER    NEWDPF tran0 8.233962 12.049546 28.436834
DOCKED: USER    NEWDPF quaternion0 0.762951 -0.396859 -0.492780 -0.132579
DOCKED: USER    NEWDPF axisangle0 0.769746 -0.400394 -0.497169 -164.762737
DOCKED: USER    NEWDPF quat0 0.769746 -0.400394 -0.497169 -164.762737
DOCKED: USER    NEWDPF dihe0 90.85 132.16 43.23 -73.21 29.79 -14.84 40.73 65.88 -63.96 180.00 
DOCKED: USER  keepresnum = 1 
DOCKED: USER  
DOCKED: REMARK  10 active torsions:
DOCKED: REMARK  status: ('A' for Active; 'I' for Inactive)
DOCKED: REMARK    1  A    between atoms: C_6  and  C_10 
DOCKED: REMARK    2  A    between atoms: C_10  and  C_11 
DOCKED: REMARK    3  A    between atoms: C_11  and  C_12 
DOCKED: REMARK    4  A    between atoms: C_12  and  O_14 
DOCKED: REMARK    5  A    between atoms: C_17  and  C_20 
DOCKED: REMARK    6  A    between atoms: C_24  and  C_27 
DOCKED: REMARK    7  A    between atoms: C_31  and  C_34 
DOCKED: REMARK    8  A    between atoms: C_34  and  C_35 
DOCKED: REMARK    9  A    between atoms: C_35  and  C_36 
DOCKED: REMARK   10  A    between atoms: C_36  and  O_38 
DOCKED: USER                              x       y       z     vdW  Elec       q    Type
DOCKED: USER                           _______ _______ _______ _____ _____    ______ ____
DOCKED: ROOT
DOCKED: ATOM      1  C   UNL d   1       8.261  12.884  30.387 -0.13 +0.02    +0.064 A 
DOCKED: ATOM      2  C   UNL d   1       6.613  14.491  26.232 -0.38 +0.01    +0.064 A 
DOCKED: ATOM      3  C   UNL d   1       8.095  10.503  23.997 -0.40 +0.00    +0.064 C 
DOCKED: ATOM      4  C   UNL d   1       9.366   8.633  28.350 -0.39 +0.01    +0.064 A 
DOCKED: ATOM      5  C   UNL d   1       7.690  13.646  29.440 -0.22 +0.01    +0.066 A 
DOCKED: ATOM      6  C   UNL d   1       7.148  14.912  29.675 -0.37 -0.01    -0.021 A 
DOCKED: ATOM      7  C   UNL d   1       6.632  15.360  28.482 -0.44 -0.00    -0.025 A 
DOCKED: ATOM      8  C   UNL d   1       6.916  14.376  27.540 -0.38 +0.01    +0.066 A 
DOCKED: ATOM      9  C   UNL d   1       5.882  16.662  28.297 -0.43 +0.00    +0.051 C 
DOCKED: ATOM     10  C   UNL d   1       6.906  13.502  25.194 -0.35 +0.00    +0.066 A 
DOCKED: ATOM     11  C   UNL d   1       6.718  13.742  23.828 -0.37 -0.00    -0.021 A 
DOCKED: ATOM     12  C   UNL d   1       7.156  12.611  23.165 -0.39 +0.00    +0.000 A 
DOCKED: ATOM     13  C   UNL d   1       7.585  11.720  24.188 -0.33 +0.00    +0.070 A 
DOCKED: ATOM     14  C   UNL d   1       6.168  15.008  23.181 -0.47 +0.00    +0.052 C 
DOCKED: ATOM     15  C   UNL d   1       8.508   9.558  25.006 -0.39 +0.01    +0.066 A 
DOCKED: ATOM     16  C   UNL d   1       8.879   8.239  24.748 -0.51 -0.00    -0.021 A 
DOCKED: ATOM     17  C   UNL d   1       9.245   7.685  25.975 -0.46 +0.00    +0.000 A 
DOCKED: ATOM     18  C   UNL d   1       9.069   8.723  26.901 -0.38 +0.01    +0.070 A 
DOCKED: ATOM     19  C   UNL d   1       8.800   7.614  23.377 -0.59 +0.00    +0.052 C 
DOCKED: ATOM     20  C   UNL d   1       9.168   9.594  29.273 -0.39 +0.01    +0.066 A 
DOCKED: ATOM     21  C   UNL d   1       9.484   9.458  30.622 -0.42 -0.01    -0.025 A 
DOCKED: ATOM     22  C   UNL d   1       9.201  10.669  31.213 -0.33 -0.01    -0.021 A 
DOCKED: ATOM     23  C   UNL d   1       8.704  11.497  30.202 -0.31 +0.02    +0.066 A 
DOCKED: ATOM     24  C   UNL d   1      10.025   8.233  31.313 -0.54 +0.02    +0.051 C 
DOCKED: ATOM     25  N   UNL d   1       7.510  13.291  28.144 -0.21 -0.03    -0.248 N 
DOCKED: ATOM     26  N   UNL d   1       7.425  12.269  25.419 -0.23 -0.01    -0.248 N 
DOCKED: ATOM     27  N   UNL d   1       8.550   9.828  26.307 -0.22 -0.03    -0.248 N 
DOCKED: ATOM     28  N   UNL d   1       8.643  10.826  29.033 -0.25 -0.05    -0.248 N 
DOCKED: ATOM     29 FE   UNL d   1       8.039  11.539  27.238 -0.08 +0.00    +0.000 Fe
DOCKED: ATOM     30  O   UNL d   1       6.501  11.749  27.349 -0.36 +0.00    +0.000 OA
DOCKED: ATOM     31  O   UNL d   1       7.114  10.319  27.597 -0.69 +0.00    +0.000 OA
DOCKED: ENDROOT
DOCKED: BRANCH   6  32
DOCKED: ATOM     32  C   UNL d   1       6.996  15.620  30.997 -0.35 +0.02    +0.052 C 
DOCKED: BRANCH  32  33
DOCKED: ATOM     33  C   UNL d   1       7.918  15.062  32.077 -0.25 +0.06    +0.115 C 
DOCKED: BRANCH  33  34
DOCKED: ATOM     34  C   UNL d   1       7.252  15.009  33.430 -0.17 +0.14    +0.139 C 
DOCKED: ATOM     35  O   UNL d   1       7.742  15.618  34.368 -0.18 -0.74    -0.650 OA
DOCKED: BRANCH  34  36
DOCKED: ATOM     36  O   UNL d   1       6.137  14.278  33.637 -0.00 -1.27    -0.776 OA
DOCKED: ATOM     37  H   UNL d   1       6.175  13.361  33.932 +0.05 +0.24    +0.167 HD
DOCKED: ENDBRANCH  34  36
DOCKED: ENDBRANCH  33  34
DOCKED: ENDBRANCH  32  33
DOCKED: ENDBRANCH   6  32
DOCKED: BRANCH  22  38
DOCKED: ATOM     38  C   UNL d   1       9.342  10.985  32.679 -0.30 +0.03    +0.052 C 
DOCKED: BRANCH  38  39
DOCKED: ATOM     39  C   UNL d   1       8.190  10.423  33.509 -0.35 +0.05    +0.115 C 
DOCKED: BRANCH  39  40
DOCKED: ATOM     40  C   UNL d   1       7.357  11.507  34.147 -0.27 +0.08    +0.139 C 
DOCKED: ATOM     41  O   UNL d   1       6.143  11.488  34.026 -0.07 -0.40    -0.650 OA
DOCKED: BRANCH  40  42
DOCKED: ATOM     42  O   UNL d   1       7.926  12.472  34.894 +0.10 -0.61    -0.776 OA
DOCKED: ATOM     43  H   UNL d   1       7.681  13.400  34.792 +0.06 +0.17    +0.167 HD
DOCKED: ENDBRANCH  40  42
DOCKED: ENDBRANCH  39  40
DOCKED: ENDBRANCH  38  39
DOCKED: ENDBRANCH  22  38
DOCKED: BRANCH  12  44
DOCKED: ATOM     44  C   UNL d   1       7.117  12.498  21.656 -0.57 +0.00    +0.004 C 
DOCKED: ATOM     45  C   UNL d   1       6.809  11.429  20.922 -0.70 -0.00    +0.012 C 
DOCKED: ENDBRANCH  12  44
DOCKED: BRANCH  17  46
DOCKED: ATOM     46  C   UNL d   1       9.676   6.290  26.340 -0.57 +0.00    +0.004 C 
DOCKED: ATOM     47  C   UNL d   1       8.908   5.211  26.542 -0.74 +0.00    +0.012 C 
DOCKED: ENDBRANCH  17  46
DOCKED: TORSDOF 10
DOCKED: TER
DOCKED: ENDMDL
________________________________________________________________________________


	BEGINNING GENETIC ALGORITHM DOCKING 77 of 100
Run: 77 Seed: 2037797697 751806516 [ Run 77 of 100 GA/GALS ]
Beginning LAMARCKIAN GENETIC ALGORITHM (LGA), with a maximum of 25000000 energy evaluations.

Final-Value: -15.422


	FINAL GENETIC ALGORITHM DOCKED STATE
	_______________________________________________


Detailed state:  trans 23.229 -6.780 32.662 quatxyzw 0.396755 0.712999 -0.018390 -0.577823 center 8.287 34.468 -0.670 ntor 10 -69.4702 114.0476 114.5419 -50.7208 108.3266 -87.9271 -73.3320 -78.1103 170.3759 -168.4447
State:	 23.229  -6.780  32.662   0.486  0.874 -0.023 -109.405    -69.47  114.05  114.54  -50.72  108.33  -87.93  -73.33  -78.11  170.38 -168.44

DOCKED: MODEL       77
DOCKED: USER    Run = 77
DOCKED: USER    DPF = D:/Protein_go_brrr/autodock/final/1A3N/heme_O2/dock.dpf
DOCKED: USER  
DOCKED: USER    Estimated Free Energy of Binding    =  -11.83 kcal/mol  [=(1)+(2)+(3)-(4)]
DOCKED: USER    Estimated Inhibition Constant, Ki   =    2.14 nM (nanomolar)  [Temperature = 298.15 K]
DOCKED: USER    
DOCKED: USER    (1) Final Intermolecular Energy     =  -14.81 kcal/mol
DOCKED: USER        vdW + Hbond + desolv Energy     =  -13.26 kcal/mol
DOCKED: USER        Electrostatic Energy            =   -1.55 kcal/mol
DOCKED: USER    (2) Final Total Internal Energy     =   -0.61 kcal/mol
DOCKED: USER    (3) Torsional Free Energy           =   +2.98 kcal/mol
DOCKED: USER    (4) Unbound System's Energy  [=(2)] =   -0.61 kcal/mol
DOCKED: USER    
DOCKED: USER    
DOCKED: USER    NEWDPF move heme_O2_opt.pdbqt
DOCKED: USER    NEWDPF about 8.287000 34.468000 -0.670000
DOCKED: USER    NEWDPF tran0 23.228543 -6.779798 32.661593
DOCKED: USER    NEWDPF quaternion0 0.396755 0.712999 -0.018390 -0.577823
DOCKED: USER    NEWDPF axisangle0 0.486123 0.873600 -0.022532 -109.404864
DOCKED: USER    NEWDPF quat0 0.486123 0.873600 -0.022532 -109.404864
DOCKED: USER    NEWDPF dihe0 -69.47 114.05 114.54 -50.72 108.33 -87.93 -73.33 -78.11 170.38 -168.44 
DOCKED: USER  keepresnum = 1 
DOCKED: USER  
DOCKED: REMARK  10 active torsions:
DOCKED: REMARK  status: ('A' for Active; 'I' for Inactive)
DOCKED: REMARK    1  A    between atoms: C_6  and  C_10 
DOCKED: REMARK    2  A    between atoms: C_10  and  C_11 
DOCKED: REMARK    3  A    between atoms: C_11  and  C_12 
DOCKED: REMARK    4  A    between atoms: C_12  and  O_14 
DOCKED: REMARK    5  A    between atoms: C_17  and  C_20 
DOCKED: REMARK    6  A    between atoms: C_24  and  C_27 
DOCKED: REMARK    7  A    between atoms: C_31  and  C_34 
DOCKED: REMARK    8  A    between atoms: C_34  and  C_35 
DOCKED: REMARK    9  A    between atoms: C_35  and  C_36 
DOCKED: REMARK   10  A    between atoms: C_36  and  O_38 
DOCKED: USER                              x       y       z     vdW  Elec       q    Type
DOCKED: USER                           _______ _______ _______ _____ _____    ______ ____
DOCKED: ROOT
DOCKED: ATOM      1  C   UNL d   1      22.967  -6.998  34.755 -0.13 +0.01    +0.064 A 
DOCKED: ATOM      2  C   UNL d   1      24.346 -10.022  31.362 -0.34 +0.01    +0.064 A 
DOCKED: ATOM      3  C   UNL d   1      23.823  -6.630  27.998 -0.44 +0.00    +0.064 C 
DOCKED: ATOM      4  C   UNL d   1      22.863  -3.377  31.543 -0.43 +0.01    +0.064 A 
DOCKED: ATOM      5  C   UNL d   1      23.386  -8.097  34.107 -0.30 +0.01    +0.066 A 
DOCKED: ATOM      6  C   UNL d   1      23.636  -9.325  34.727 -0.27 -0.01    -0.021 A 
DOCKED: ATOM      7  C   UNL d   1      24.076 -10.189  33.753 -0.26 -0.00    -0.025 A 
DOCKED: ATOM      8  C   UNL d   1      24.038  -9.479  32.556 -0.28 +0.01    +0.066 A 
DOCKED: ATOM      9  C   UNL d   1      24.533 -11.610  33.998 -0.06 +0.01    +0.051 C 
DOCKED: ATOM     10  C   UNL d   1      24.303  -9.334  30.071 -0.38 +0.00    +0.066 A 
DOCKED: ATOM     11  C   UNL d   1      24.473  -9.988  28.845 -0.49 -0.00    -0.021 A 
DOCKED: ATOM     12  C   UNL d   1      24.308  -9.030  27.862 -0.47 +0.00    +0.000 A 
DOCKED: ATOM     13  C   UNL d   1      24.053  -7.817  28.559 -0.40 +0.00    +0.070 A 
DOCKED: ATOM     14  C   UNL d   1      24.754 -11.469  28.620 -0.32 +0.00    +0.052 C 
DOCKED: ATOM     15  C   UNL d   1      23.596  -5.372  28.669 -0.38 +0.00    +0.066 A 
DOCKED: ATOM     16  C   UNL d   1      23.525  -4.136  28.028 -0.43 -0.00    -0.021 A 
DOCKED: ATOM     17  C   UNL d   1      23.253  -3.193  29.019 -0.45 +0.00    +0.000 A 
DOCKED: ATOM     18  C   UNL d   1      23.175  -3.935  30.206 -0.39 +0.01    +0.070 A 
DOCKED: ATOM     19  C   UNL d   1      23.776  -3.959  26.552 -0.54 +0.00    +0.052 C 
DOCKED: ATOM     20  C   UNL d   1      22.823  -4.053  32.708 -0.40 +0.01    +0.066 A 
DOCKED: ATOM     21  C   UNL d   1      22.506  -3.477  33.934 -0.41 -0.00    -0.025 A 
DOCKED: ATOM     22  C   UNL d   1      22.504  -4.499  34.857 -0.23 -0.00    -0.021 A 
DOCKED: ATOM     23  C   UNL d   1      22.839  -5.663  34.159 -0.22 +0.01    +0.066 A 
DOCKED: ATOM     24  C   UNL d   1      22.223  -2.023  34.213 -0.47 +0.00    +0.051 C 
DOCKED: ATOM     25  N   UNL d   1      23.676  -8.172  32.785 -0.15 -0.03    -0.248 N 
DOCKED: ATOM     26  N   UNL d   1      24.056  -8.010  29.903 -0.19 +0.00    -0.248 N 
DOCKED: ATOM     27  N   UNL d   1      23.460  -5.244  29.986 -0.25 -0.01    -0.248 N 
DOCKED: ATOM     28  N   UNL d   1      23.076  -5.380  32.862 -0.25 -0.03    -0.248 N 
DOCKED: ATOM     29 FE   UNL d   1      23.563  -6.683  31.391 -0.09 -0.00    +0.000 Fe
DOCKED: ATOM     30  O   UNL d   1      25.016  -7.154  31.691 -0.16 +0.00    +0.000 OA
DOCKED: ATOM     31  O   UNL d   1      24.719  -5.621  31.482 -0.03 +0.00    +0.000 OA
DOCKED: ENDROOT
DOCKED: BRANCH   6  32
DOCKED: ATOM     32  C   UNL d   1      23.594  -9.640  36.200 -0.20 +0.02    +0.052 C 
DOCKED: BRANCH  32  33
DOCKED: ATOM     33  C   UNL d   1      24.983  -9.802  36.810 -0.14 +0.07    +0.115 C 
DOCKED: BRANCH  33  34
DOCKED: ATOM     34  C   UNL d   1      25.393  -8.606  37.634 +0.02 +0.17    +0.139 C 
DOCKED: ATOM     35  O   UNL d   1      25.167  -7.481  37.218 -0.29 -0.68    -0.650 OA
DOCKED: BRANCH  34  36
DOCKED: ATOM     36  O   UNL d   1      26.032  -8.750  38.813 -0.40 -1.26    -0.776 OA
DOCKED: ATOM     37  H   UNL d   1      25.593  -9.113  39.592 +0.01 +0.14    +0.167 HD
DOCKED: ENDBRANCH  34  36
DOCKED: ENDBRANCH  33  34
DOCKED: ENDBRANCH  32  33
DOCKED: ENDBRANCH   6  32
DOCKED: BRANCH  22  38
DOCKED: ATOM     38  C   UNL d   1      22.257  -4.347  36.335 +0.01 +0.01    +0.052 C 
DOCKED: BRANCH  38  39
DOCKED: ATOM     39  C   UNL d   1      23.362  -3.557  37.032 -0.16 +0.02    +0.115 C 
DOCKED: BRANCH  39  40
DOCKED: ATOM     40  C   UNL d   1      22.972  -2.122  37.288 -0.18 +0.01    +0.139 C 
DOCKED: ATOM     41  O   UNL d   1      21.965  -1.874  37.932 +0.04 -0.05    -0.650 OA
DOCKED: BRANCH  40  42
DOCKED: ATOM     42  O   UNL d   1      23.745  -1.105  36.861 +0.06 +0.01    -0.776 OA
DOCKED: ATOM     43  H   UNL d   1      23.426  -0.467  36.211 -0.36 -0.04    +0.167 HD
DOCKED: ENDBRANCH  40  42
DOCKED: ENDBRANCH  39  40
DOCKED: ENDBRANCH  38  39
DOCKED: ENDBRANCH  22  38
DOCKED: BRANCH  12  44
DOCKED: ATOM     44  C   UNL d   1      24.413  -9.363  26.388 -0.18 +0.00    +0.004 C 
DOCKED: ATOM     45  C   UNL d   1      25.504  -9.698  25.700 -0.63 +0.00    +0.012 C 
DOCKED: ENDBRANCH  12  44
DOCKED: BRANCH  17  46
DOCKED: ATOM     46  C   UNL d   1      23.123  -1.695  28.949 -0.60 +0.00    +0.004 C 
DOCKED: ATOM     47  C   UNL d   1      24.024  -0.805  28.512 -0.64 +0.00    +0.012 C 
DOCKED: ENDBRANCH  17  46
DOCKED: TORSDOF 10
DOCKED: TER
DOCKED: ENDMDL
________________________________________________________________________________


	BEGINNING GENETIC ALGORITHM DOCKING 78 of 100
Run: 78 Seed: 273193812 293904738 [ Run 78 of 100 GA/GALS ]
Beginning LAMARCKIAN GENETIC ALGORITHM (LGA), with a maximum of 25000000 energy evaluations.

Final-Value: -19.833


	FINAL GENETIC ALGORITHM DOCKED STATE
	_______________________________________________


Detailed state:  trans 8.264 12.071 28.279 quatxyzw 0.749386 -0.382529 -0.533463 -0.086656 center 8.287 34.468 -0.670 ntor 10 75.6235 -120.3986 22.1142 -107.9399 -178.3271 137.1927 -28.7166 62.8963 -148.8111 -168.6860
State:	  8.264  12.071  28.279   0.752 -0.384 -0.535 -170.057     75.62 -120.40   22.11 -107.94 -178.33  137.19  -28.72   62.90 -148.81 -168.69

DOCKED: MODEL       78
DOCKED: USER    Run = 78
DOCKED: USER    DPF = D:/Protein_go_brrr/autodock/final/1A3N/heme_O2/dock.dpf
DOCKED: USER  
DOCKED: USER    Estimated Free Energy of Binding    =  -14.78 kcal/mol  [=(1)+(2)+(3)-(4)]
DOCKED: USER    Estimated Inhibition Constant, Ki   =   14.66 pM (picomolar)  [Temperature = 298.15 K]
DOCKED: USER    
DOCKED: USER    (1) Final Intermolecular Energy     =  -17.76 kcal/mol
DOCKED: USER        vdW + Hbond + desolv Energy     =  -15.60 kcal/mol
DOCKED: USER        Electrostatic Energy            =   -2.17 kcal/mol
DOCKED: USER    (2) Final Total Internal Energy     =   -2.07 kcal/mol
DOCKED: USER    (3) Torsional Free Energy           =   +2.98 kcal/mol
DOCKED: USER    (4) Unbound System's Energy  [=(2)] =   -2.07 kcal/mol
DOCKED: USER    
DOCKED: USER    
DOCKED: USER    NEWDPF move heme_O2_opt.pdbqt
DOCKED: USER    NEWDPF about 8.287000 34.468000 -0.670000
DOCKED: USER    NEWDPF tran0 8.264189 12.071383 28.278750
DOCKED: USER    NEWDPF quaternion0 0.749386 -0.382529 -0.533463 -0.086656
DOCKED: USER    NEWDPF axisangle0 0.752216 -0.383973 -0.535477 -170.057502
DOCKED: USER    NEWDPF quat0 0.752216 -0.383973 -0.535477 -170.057502
DOCKED: USER    NEWDPF dihe0 75.62 -120.40 22.11 -107.94 -178.33 137.19 -28.72 62.90 -148.81 -168.69 
DOCKED: USER  keepresnum = 1 
DOCKED: USER  
DOCKED: REMARK  10 active torsions:
DOCKED: REMARK  status: ('A' for Active; 'I' for Inactive)
DOCKED: REMARK    1  A    between atoms: C_6  and  C_10 
DOCKED: REMARK    2  A    between atoms: C_10  and  C_11 
DOCKED: REMARK    3  A    between atoms: C_11  and  C_12 
DOCKED: REMARK    4  A    between atoms: C_12  and  O_14 
DOCKED: REMARK    5  A    between atoms: C_17  and  C_20 
DOCKED: REMARK    6  A    between atoms: C_24  and  C_27 
DOCKED: REMARK    7  A    between atoms: C_31  and  C_34 
DOCKED: REMARK    8  A    between atoms: C_34  and  C_35 
DOCKED: REMARK    9  A    between atoms: C_35  and  C_36 
DOCKED: REMARK   10  A    between atoms: C_36  and  O_38 
DOCKED: USER                              x       y       z     vdW  Elec       q    Type
DOCKED: USER                           _______ _______ _______ _____ _____    ______ ____
DOCKED: ROOT
DOCKED: ATOM      1  C   UNL d   1       8.409  12.677  30.306 -0.13 +0.02    +0.064 A 
DOCKED: ATOM      2  C   UNL d   1       6.673  14.814  26.436 -0.40 +0.01    +0.064 A 
DOCKED: ATOM      3  C   UNL d   1       7.874  11.047  23.705 -0.30 +0.00    +0.064 C 
DOCKED: ATOM      4  C   UNL d   1       9.229   8.642  27.760 -0.39 +0.01    +0.064 A 
DOCKED: ATOM      5  C   UNL d   1       7.837  13.565  29.477 -0.19 +0.01    +0.066 A 
DOCKED: ATOM      6  C   UNL d   1       7.366  14.819  29.877 -0.35 -0.01    -0.021 A 
DOCKED: ATOM      7  C   UNL d   1       6.823  15.421  28.766 -0.42 -0.00    -0.025 A 
DOCKED: ATOM      8  C   UNL d   1       7.022  14.538  27.708 -0.37 +0.01    +0.066 A 
DOCKED: ATOM      9  C   UNL d   1       6.129  16.765  28.762 -0.48 +0.01    +0.051 C 
DOCKED: ATOM     10  C   UNL d   1       6.877  13.938  25.281 -0.36 +0.00    +0.066 A 
DOCKED: ATOM     11  C   UNL d   1       6.646  14.340  23.961 -0.37 -0.00    -0.021 A 
DOCKED: ATOM     12  C   UNL d   1       7.003  13.273  23.157 -0.33 +0.00    +0.000 A 
DOCKED: ATOM     13  C   UNL d   1       7.430  12.255  24.053 -0.34 +0.00    +0.070 A 
DOCKED: ATOM     14  C   UNL d   1       6.131  15.693  23.485 -0.53 +0.00    +0.052 C 
DOCKED: ATOM     15  C   UNL d   1       8.282   9.976  24.582 -0.36 +0.00    +0.066 A 
DOCKED: ATOM     16  C   UNL d   1       8.580   8.680  24.162 -0.54 -0.00    -0.021 A 
DOCKED: ATOM     17  C   UNL d   1       8.968   7.976  25.301 -0.48 +0.00    +0.000 A 
DOCKED: ATOM     18  C   UNL d   1       8.879   8.908  26.345 -0.38 +0.01    +0.070 A 
DOCKED: ATOM     19  C   UNL d   1       8.416   8.220  22.735 -0.41 +0.00    +0.052 C 
DOCKED: ATOM     20  C   UNL d   1       9.114   9.500  28.792 -0.39 +0.01    +0.066 A 
DOCKED: ATOM     21  C   UNL d   1       9.477   9.198  30.102 -0.43 -0.01    -0.025 A 
DOCKED: ATOM     22  C   UNL d   1       9.276  10.345  30.836 -0.38 -0.01    -0.021 A 
DOCKED: ATOM     23  C   UNL d   1       8.778  11.303  29.948 -0.31 +0.02    +0.066 A 
DOCKED: ATOM     24  C   UNL d   1       9.987   7.880  30.626 -0.54 +0.01    +0.051 C 
DOCKED: ATOM     25  N   UNL d   1       7.588  13.368  28.159 -0.19 -0.03    -0.248 N 
DOCKED: ATOM     26  N   UNL d   1       7.346  12.666  25.344 -0.23 -0.01    -0.248 N 
DOCKED: ATOM     27  N   UNL d   1       8.389  10.094  25.902 -0.22 -0.02    -0.248 N 
DOCKED: ATOM     28  N   UNL d   1       8.639  10.771  28.716 -0.25 -0.04    -0.248 N 
DOCKED: ATOM     29 FE   UNL d   1       7.997  11.709  27.041 -0.08 +0.00    +0.000 Fe
DOCKED: ATOM     30  O   UNL d   1       6.476  11.970  27.244 -0.36 +0.00    +0.000 OA
DOCKED: ATOM     31  O   UNL d   1       7.031  10.497  27.302 -0.71 +0.00    +0.000 OA
DOCKED: ENDROOT
DOCKED: BRANCH   6  32
DOCKED: ATOM     32  C   UNL d   1       7.300  15.377  31.275 -0.33 +0.02    +0.052 C 
DOCKED: BRANCH  32  33
DOCKED: ATOM     33  C   UNL d   1       6.342  14.605  32.177 -0.22 +0.08    +0.115 C 
DOCKED: BRANCH  33  34
DOCKED: ATOM     34  C   UNL d   1       6.777  14.617  33.622 -0.11 +0.18    +0.139 C 
DOCKED: ATOM     35  O   UNL d   1       7.391  15.577  34.059 -0.19 -0.80    -0.650 OA
DOCKED: BRANCH  34  36
DOCKED: ATOM     36  O   UNL d   1       6.526  13.574  34.440 -0.02 -1.28    -0.776 OA
DOCKED: ATOM     37  H   UNL d   1       7.033  12.756  34.395 +0.07 +0.16    +0.167 HD
DOCKED: ENDBRANCH  34  36
DOCKED: ENDBRANCH  33  34
DOCKED: ENDBRANCH  32  33
DOCKED: ENDBRANCH   6  32
DOCKED: BRANCH  22  38
DOCKED: ATOM     38  C   UNL d   1       9.491  10.486  32.321 -0.26 +0.02    +0.052 C 
DOCKED: BRANCH  38  39
DOCKED: ATOM     39  C   UNL d   1       8.503   9.651  33.134 -0.39 +0.05    +0.115 C 
DOCKED: BRANCH  39  40
DOCKED: ATOM     40  C   UNL d   1       7.627  10.499  34.022 -0.35 +0.07    +0.139 C 
DOCKED: ATOM     41  O   UNL d   1       8.070  10.937  35.071 -0.11 -0.42    -0.650 OA
DOCKED: BRANCH  40  42
DOCKED: ATOM     42  O   UNL d   1       6.373  10.827  33.654 +0.01 -0.35    -0.776 OA
DOCKED: ATOM     43  H   UNL d   1       6.111  11.745  33.517 +0.06 +0.09    +0.167 HD
DOCKED: ENDBRANCH  40  42
DOCKED: ENDBRANCH  39  40
DOCKED: ENDBRANCH  38  39
DOCKED: ENDBRANCH  22  38
DOCKED: BRANCH  12  44
DOCKED: ATOM     44  C   UNL d   1       6.899  13.334  21.648 -0.52 +0.00    +0.004 C 
DOCKED: ATOM     45  C   UNL d   1       6.891  12.318  20.786 -0.66 -0.00    +0.012 C 
DOCKED: ENDBRANCH  12  44
DOCKED: BRANCH  17  46
DOCKED: ATOM     46  C   UNL d   1       9.347   6.531  25.489 -0.63 +0.00    +0.004 C 
DOCKED: ATOM     47  C   UNL d   1       8.706   5.591  26.196 -0.72 +0.00    +0.012 C 
DOCKED: ENDBRANCH  17  46
DOCKED: TORSDOF 10
DOCKED: TER
DOCKED: ENDMDL
________________________________________________________________________________


	BEGINNING GENETIC ALGORITHM DOCKING 79 of 100
Run: 79 Seed: 1293198262 764215594 [ Run 79 of 100 GA/GALS ]
Beginning LAMARCKIAN GENETIC ALGORITHM (LGA), with a maximum of 25000000 energy evaluations.

Final-Value: -16.830


	FINAL GENETIC ALGORITHM DOCKED STATE
	_______________________________________________


Detailed state:  trans 7.551 13.703 31.003 quatxyzw 0.122714 0.738398 -0.196284 -0.633389 center 8.287 34.468 -0.670 ntor 10 -28.4030 34.6470 -59.3812 40.9624 -105.5774 -138.5969 112.9346 66.3158 -170.0513 145.1459
State:	  7.551  13.703  31.003   0.159  0.954 -0.254 -101.399    -28.40   34.65  -59.38   40.96 -105.58 -138.60  112.93   66.32 -170.05  145.15

DOCKED: MODEL       79
DOCKED: USER    Run = 79
DOCKED: USER    DPF = D:/Protein_go_brrr/autodock/final/1A3N/heme_O2/dock.dpf
DOCKED: USER  
DOCKED: USER    Estimated Free Energy of Binding    =  -13.04 kcal/mol  [=(1)+(2)+(3)-(4)]
DOCKED: USER    Estimated Inhibition Constant, Ki   =  274.19 pM (picomolar)  [Temperature = 298.15 K]
DOCKED: USER    
DOCKED: USER    (1) Final Intermolecular Energy     =  -16.03 kcal/mol
DOCKED: USER        vdW + Hbond + desolv Energy     =  -13.13 kcal/mol
DOCKED: USER        Electrostatic Energy            =   -2.90 kcal/mol
DOCKED: USER    (2) Final Total Internal Energy     =   -0.80 kcal/mol
DOCKED: USER    (3) Torsional Free Energy           =   +2.98 kcal/mol
DOCKED: USER    (4) Unbound System's Energy  [=(2)] =   -0.80 kcal/mol
DOCKED: USER    
DOCKED: USER    
DOCKED: USER    NEWDPF move heme_O2_opt.pdbqt
DOCKED: USER    NEWDPF about 8.287000 34.468000 -0.670000
DOCKED: USER    NEWDPF tran0 7.550765 13.703142 31.002556
DOCKED: USER    NEWDPF quaternion0 0.122714 0.738398 -0.196284 -0.633389
DOCKED: USER    NEWDPF axisangle0 0.158579 0.954208 -0.253652 -101.398819
DOCKED: USER    NEWDPF quat0 0.158579 0.954208 -0.253652 -101.398819
DOCKED: USER    NEWDPF dihe0 -28.40 34.65 -59.38 40.96 -105.58 -138.60 112.93 66.32 -170.05 145.15 
DOCKED: USER  keepresnum = 1 
DOCKED: USER  
DOCKED: REMARK  10 active torsions:
DOCKED: REMARK  status: ('A' for Active; 'I' for Inactive)
DOCKED: REMARK    1  A    between atoms: C_6  and  C_10 
DOCKED: REMARK    2  A    between atoms: C_10  and  C_11 
DOCKED: REMARK    3  A    between atoms: C_11  and  C_12 
DOCKED: REMARK    4  A    between atoms: C_12  and  O_14 
DOCKED: REMARK    5  A    between atoms: C_17  and  C_20 
DOCKED: REMARK    6  A    between atoms: C_24  and  C_27 
DOCKED: REMARK    7  A    between atoms: C_31  and  C_34 
DOCKED: REMARK    8  A    between atoms: C_34  and  C_35 
DOCKED: REMARK    9  A    between atoms: C_35  and  C_36 
DOCKED: REMARK   10  A    between atoms: C_36  and  O_38 
DOCKED: USER                              x       y       z     vdW  Elec       q    Type
DOCKED: USER                           _______ _______ _______ _____ _____    ______ ____
DOCKED: ROOT
DOCKED: ATOM      1  C   UNL d   1       7.413  14.723  32.857 -0.23 +0.05    +0.064 A 
DOCKED: ATOM      2  C   UNL d   1       9.333  10.558  31.621 -0.31 +0.02    +0.064 A 
DOCKED: ATOM      3  C   UNL d   1       7.946  11.168  27.061 -0.38 +0.01    +0.064 C 
DOCKED: ATOM      4  C   UNL d   1       6.387  15.672  28.222 -0.43 +0.01    +0.064 A 
DOCKED: ATOM      5  C   UNL d   1       8.050  13.541  32.893 -0.22 +0.04    +0.066 A 
DOCKED: ATOM      6  C   UNL d   1       8.591  12.978  34.052 -0.18 -0.01    -0.021 A 
DOCKED: ATOM      7  C   UNL d   1       9.185  11.793  33.688 -0.22 -0.02    -0.025 A 
DOCKED: ATOM      8  C   UNL d   1       8.948  11.641  32.324 -0.25 +0.03    +0.066 A 
DOCKED: ATOM      9  C   UNL d   1       9.960  10.890  34.622 -0.25 +0.05    +0.051 C 
DOCKED: ATOM     10  C   UNL d   1       9.093  10.332  30.195 -0.37 +0.02    +0.066 A 
DOCKED: ATOM     11  C   UNL d   1       9.368   9.121  29.551 -0.43 -0.00    -0.021 A 
DOCKED: ATOM     12  C   UNL d   1       8.958   9.271  28.239 -0.43 +0.00    +0.000 A 
DOCKED: ATOM     13  C   UNL d   1       8.457  10.599  28.152 -0.33 +0.01    +0.070 A 
DOCKED: ATOM     14  C   UNL d   1       9.971   7.864  30.168 -0.50 +0.01    +0.052 C 
DOCKED: ATOM     15  C   UNL d   1       7.461  12.520  26.922 -0.32 +0.00    +0.066 A 
DOCKED: ATOM     16  C   UNL d   1       7.091  13.107  25.713 -0.38 -0.00    -0.021 A 
DOCKED: ATOM     17  C   UNL d   1       6.643  14.392  26.019 -0.42 +0.00    +0.000 A 
DOCKED: ATOM     18  C   UNL d   1       6.774  14.493  27.411 -0.39 +0.01    +0.070 A 
DOCKED: ATOM     19  C   UNL d   1       7.247  12.417  24.381 -0.41 +0.00    +0.052 C 
DOCKED: ATOM     20  C   UNL d   1       6.539  15.818  29.553 -0.38 +0.01    +0.066 A 
DOCKED: ATOM     21  C   UNL d   1       6.138  16.946  30.264 -0.34 -0.01    -0.025 A 
DOCKED: ATOM     22  C   UNL d   1       6.398  16.682  31.590 -0.18 -0.01    -0.021 A 
DOCKED: ATOM     23  C   UNL d   1       6.966  15.405  31.637 -0.28 +0.03    +0.066 A 
DOCKED: ATOM     24  C   UNL d   1       5.542  18.212  29.707 -0.40 +0.01    +0.051 C 
DOCKED: ATOM     25  N   UNL d   1       8.306  12.749  31.823 -0.16 -0.10    -0.248 N 
DOCKED: ATOM     26  N   UNL d   1       8.547  11.239  29.346 -0.21 -0.05    -0.248 N 
DOCKED: ATOM     27  N   UNL d   1       7.341  13.376  27.933 -0.23 -0.03    -0.248 N 
DOCKED: ATOM     28  N   UNL d   1       7.091  14.902  30.392 -0.21 -0.08    -0.248 N 
DOCKED: ATOM     29 FE   UNL d   1       7.813  13.085  29.870 -0.08 +0.00    +0.000 Fe
DOCKED: ATOM     30  O   UNL d   1       9.344  13.129  30.148 -0.37 +0.00    +0.000 OA
DOCKED: ATOM     31  O   UNL d   1       8.701  14.168  29.154 -0.29 +0.00    +0.000 OA
DOCKED: ENDROOT
DOCKED: BRANCH   6  32
DOCKED: ATOM     32  C   UNL d   1       8.670  13.592  35.426 -0.12 +0.04    +0.052 C 
DOCKED: BRANCH  32  33
DOCKED: ATOM     33  C   UNL d   1       9.907  14.464  35.616 -0.12 +0.08    +0.115 C 
DOCKED: BRANCH  33  34
DOCKED: ATOM     34  C   UNL d   1      11.181  13.655  35.650 -0.19 +0.16    +0.139 C 
DOCKED: ATOM     35  O   UNL d   1      11.909  13.636  34.671 -0.37 -0.89    -0.650 OA
DOCKED: BRANCH  34  36
DOCKED: ATOM     36  O   UNL d   1      11.522  12.926  36.733 -0.03 -1.12    -0.776 OA
DOCKED: ATOM     37  H   UNL d   1      11.238  13.169  37.622 +0.02 +0.15    +0.167 HD
DOCKED: ENDBRANCH  34  36
DOCKED: ENDBRANCH  33  34
DOCKED: ENDBRANCH  32  33
DOCKED: ENDBRANCH   6  32
DOCKED: BRANCH  22  38
DOCKED: ATOM     38  C   UNL d   1       6.171  17.634  32.736 +0.19 +0.03    +0.052 C 
DOCKED: BRANCH  38  39
DOCKED: ATOM     39  C   UNL d   1       7.477  18.088  33.383 -0.15 +0.06    +0.115 C 
DOCKED: BRANCH  39  40
DOCKED: ATOM     40  C   UNL d   1       7.611  17.611  34.808 -0.11 +0.11    +0.139 C 
DOCKED: ATOM     41  O   UNL d   1       6.779  16.849  35.273 -0.53 -1.19    -0.650 OA
DOCKED: BRANCH  40  42
DOCKED: ATOM     42  O   UNL d   1       8.666  17.969  35.565 +0.02 -0.39    -0.776 OA
DOCKED: ATOM     43  H   UNL d   1       9.051  18.852  35.509 +0.02 +0.06    +0.167 HD
DOCKED: ENDBRANCH  40  42
DOCKED: ENDBRANCH  39  40
DOCKED: ENDBRANCH  38  39
DOCKED: ENDBRANCH  22  38
DOCKED: BRANCH  12  44
DOCKED: ATOM     44  C   UNL d   1       9.089   8.154  27.224 -0.51 +0.00    +0.004 C 
DOCKED: ATOM     45  C   UNL d   1       8.113   7.513  26.582 -0.53 +0.00    +0.012 C 
DOCKED: ENDBRANCH  12  44
DOCKED: BRANCH  17  46
DOCKED: ATOM     46  C   UNL d   1       6.175  15.513  25.130 -0.55 +0.00    +0.004 C 
DOCKED: ATOM     47  C   UNL d   1       5.494  15.430  23.980 -0.59 +0.00    +0.012 C 
DOCKED: ENDBRANCH  17  46
DOCKED: TORSDOF 10
DOCKED: TER
DOCKED: ENDMDL
________________________________________________________________________________


	BEGINNING GENETIC ALGORITHM DOCKING 80 of 100
Run: 80 Seed: 1035911842 933465802 [ Run 80 of 100 GA/GALS ]
Beginning LAMARCKIAN GENETIC ALGORITHM (LGA), with a maximum of 25000000 energy evaluations.

Final-Value: -17.937


	FINAL GENETIC ALGORITHM DOCKED STATE
	_______________________________________________


Detailed state:  trans 3.025 -6.192 -4.603 quatxyzw -0.148187 -0.501940 0.283013 -0.803742 center 8.287 34.468 -0.670 ntor 10 180.0000 17.9945 5.1796 -53.3217 161.3096 102.0726 -76.1639 9.9755 -155.2530 180.0000
State:	  3.025  -6.192  -4.603  -0.249 -0.844  0.476 -73.022    180.00   17.99    5.18  -53.32  161.31  102.07  -76.16    9.98 -155.25  180.00

DOCKED: MODEL       80
DOCKED: USER    Run = 80
DOCKED: USER    DPF = D:/Protein_go_brrr/autodock/final/1A3N/heme_O2/dock.dpf
DOCKED: USER  
DOCKED: USER    Estimated Free Energy of Binding    =  -12.76 kcal/mol  [=(1)+(2)+(3)-(4)]
DOCKED: USER    Estimated Inhibition Constant, Ki   =  444.25 pM (picomolar)  [Temperature = 298.15 K]
DOCKED: USER    
DOCKED: USER    (1) Final Intermolecular Energy     =  -15.74 kcal/mol
DOCKED: USER        vdW + Hbond + desolv Energy     =  -14.67 kcal/mol
DOCKED: USER        Electrostatic Energy            =   -1.07 kcal/mol
DOCKED: USER    (2) Final Total Internal Energy     =   -2.19 kcal/mol
DOCKED: USER    (3) Torsional Free Energy           =   +2.98 kcal/mol
DOCKED: USER    (4) Unbound System's Energy  [=(2)] =   -2.19 kcal/mol
DOCKED: USER    
DOCKED: USER    
DOCKED: USER    NEWDPF move heme_O2_opt.pdbqt
DOCKED: USER    NEWDPF about 8.287000 34.468000 -0.670000
DOCKED: USER    NEWDPF tran0 3.024853 -6.192047 -4.603456
DOCKED: USER    NEWDPF quaternion0 -0.148187 -0.501940 0.283013 -0.803742
DOCKED: USER    NEWDPF axisangle0 -0.249062 -0.843627 0.475670 -73.022192
DOCKED: USER    NEWDPF quat0 -0.249062 -0.843627 0.475670 -73.022192
DOCKED: USER    NEWDPF dihe0 180.00 17.99 5.18 -53.32 161.31 102.07 -76.16 9.98 -155.25 180.00 
DOCKED: USER  keepresnum = 1 
DOCKED: USER  
DOCKED: REMARK  10 active torsions:
DOCKED: REMARK  status: ('A' for Active; 'I' for Inactive)
DOCKED: REMARK    1  A    between atoms: C_6  and  C_10 
DOCKED: REMARK    2  A    between atoms: C_10  and  C_11 
DOCKED: REMARK    3  A    between atoms: C_11  and  C_12 
DOCKED: REMARK    4  A    between atoms: C_12  and  O_14 
DOCKED: REMARK    5  A    between atoms: C_17  and  C_20 
DOCKED: REMARK    6  A    between atoms: C_24  and  C_27 
DOCKED: REMARK    7  A    between atoms: C_31  and  C_34 
DOCKED: REMARK    8  A    between atoms: C_34  and  C_35 
DOCKED: REMARK    9  A    between atoms: C_35  and  C_36 
DOCKED: REMARK   10  A    between atoms: C_36  and  O_38 
DOCKED: USER                              x       y       z     vdW  Elec       q    Type
DOCKED: USER                           _______ _______ _______ _____ _____    ______ ____
DOCKED: ROOT
DOCKED: ATOM      1  C   UNL d   1       2.925  -6.805  -6.632 -0.22 +0.01    +0.064 A 
DOCKED: ATOM      2  C   UNL d   1       0.853  -8.436  -2.681 -0.36 +0.00    +0.064 A 
DOCKED: ATOM      3  C   UNL d   1       3.100  -5.123  -0.024 -0.33 +0.00    +0.064 C 
DOCKED: ATOM      4  C   UNL d   1       4.867  -3.133  -4.145 -0.45 +0.01    +0.064 A 
DOCKED: ATOM      5  C   UNL d   1       2.177  -7.518  -5.774 -0.31 +0.01    +0.066 A 
DOCKED: ATOM      6  C   UNL d   1       1.380  -8.604  -6.147 -0.30 -0.01    -0.021 A 
DOCKED: ATOM      7  C   UNL d   1       0.746  -9.050  -5.011 -0.33 -0.00    -0.025 A 
DOCKED: ATOM      8  C   UNL d   1       1.210  -8.255  -3.967 -0.30 +0.01    +0.066 A 
DOCKED: ATOM      9  C   UNL d   1      -0.273 -10.168  -4.971 -0.31 +0.01    +0.051 C 
DOCKED: ATOM     10  C   UNL d   1       1.324  -7.649  -1.541 -0.33 +0.00    +0.066 A 
DOCKED: ATOM     11  C   UNL d   1       1.050  -7.982  -0.210 -0.43 -0.00    -0.021 A 
DOCKED: ATOM     12  C   UNL d   1       1.704  -7.049   0.572 -0.43 +0.00    +0.000 A 
DOCKED: ATOM     13  C   UNL d   1       2.344  -6.172  -0.347 -0.38 +0.00    +0.070 A 
DOCKED: ATOM     14  C   UNL d   1       0.222  -9.158   0.295 -0.55 -0.00    +0.052 C 
DOCKED: ATOM     15  C   UNL d   1       3.736  -4.190  -0.923 -0.37 +0.00    +0.066 A 
DOCKED: ATOM     16  C   UNL d   1       4.377  -3.018  -0.523 -0.48 -0.00    -0.021 A 
DOCKED: ATOM     17  C   UNL d   1       4.888  -2.434  -1.682 -0.50 +0.00    +0.000 A 
DOCKED: ATOM     18  C   UNL d   1       4.517  -3.306  -2.715 -0.41 +0.01    +0.070 A 
DOCKED: ATOM     19  C   UNL d   1       4.396  -2.538   0.906 -0.46 +0.00    +0.052 C 
DOCKED: ATOM     20  C   UNL d   1       4.491  -3.927  -5.167 -0.43 +0.01    +0.066 A 
DOCKED: ATOM     21  C   UNL d   1       4.867  -3.723  -6.492 -0.45 -0.00    -0.025 A 
DOCKED: ATOM     22  C   UNL d   1       4.345  -4.775  -7.210 -0.33 -0.00    -0.021 A 
DOCKED: ATOM     23  C   UNL d   1       3.652  -5.575  -6.297 -0.26 +0.01    +0.066 A 
DOCKED: ATOM     24  C   UNL d   1       5.679  -2.581  -7.044 -0.07 +0.00    +0.051 C 
DOCKED: ATOM     25  N   UNL d   1       2.041  -7.269  -4.449 -0.20 -0.03    -0.248 N 
DOCKED: ATOM     26  N   UNL d   1       2.104  -6.542  -1.630 -0.21 +0.00    -0.248 N 
DOCKED: ATOM     27  N   UNL d   1       3.755  -4.326  -2.246 -0.23 -0.01    -0.248 N 
DOCKED: ATOM     28  N   UNL d   1       3.706  -5.032  -5.063 -0.26 -0.04    -0.248 N 
DOCKED: ATOM     29 FE   UNL d   1       2.912  -5.779  -3.358 -0.08 +0.00    +0.000 Fe
DOCKED: ATOM     30  O   UNL d   1       1.368  -5.635  -3.498 -0.24 +0.00    +0.000 OA
DOCKED: ATOM     31  O   UNL d   1       2.283  -4.356  -3.587 -0.95 +0.00    +0.000 OA
DOCKED: ENDROOT
DOCKED: BRANCH   6  32
DOCKED: ATOM     32  C   UNL d   1       1.115  -9.120  -7.538 -0.23 +0.02    +0.052 C 
DOCKED: BRANCH  32  33
DOCKED: ATOM     33  C   UNL d   1       0.222  -8.191  -8.354 -0.15 +0.08    +0.115 C 
DOCKED: BRANCH  33  34
DOCKED: ATOM     34  C   UNL d   1       1.006  -7.356  -9.336 -0.18 +0.10    +0.139 C 
DOCKED: ATOM     35  O   UNL d   1       2.183  -7.607  -9.537 +0.01 -0.24    -0.650 OA
DOCKED: BRANCH  34  36
DOCKED: ATOM     36  O   UNL d   1       0.442  -6.314  -9.981 -0.52 -0.95    -0.776 OA
DOCKED: ATOM     37  H   UNL d   1       0.934  -5.777 -10.613 +0.04 +0.13    +0.167 HD
DOCKED: ENDBRANCH  34  36
DOCKED: ENDBRANCH  33  34
DOCKED: ENDBRANCH  32  33
DOCKED: ENDBRANCH   6  32
DOCKED: BRANCH  22  38
DOCKED: ATOM     38  C   UNL d   1       4.455  -4.960  -8.702 -0.22 +0.01    +0.052 C 
DOCKED: BRANCH  38  39
DOCKED: ATOM     39  C   UNL d   1       3.476  -4.077  -9.472 -0.22 +0.02    +0.115 C 
DOCKED: BRANCH  39  40
DOCKED: ATOM     40  C   UNL d   1       3.432  -4.411 -10.942 -0.10 +0.03    +0.139 C 
DOCKED: ATOM     41  O   UNL d   1       3.839  -3.600 -11.759 +0.06 -0.11    -0.650 OA
DOCKED: BRANCH  40  42
DOCKED: ATOM     42  O   UNL d   1       2.998  -5.612 -11.371 +0.06 -0.20    -0.776 OA
DOCKED: ATOM     43  H   UNL d   1       2.441  -6.173 -10.819 +0.04 +0.06    +0.167 HD
DOCKED: ENDBRANCH  40  42
DOCKED: ENDBRANCH  39  40
DOCKED: ENDBRANCH  38  39
DOCKED: ENDBRANCH  22  38
DOCKED: BRANCH  12  44
DOCKED: ATOM     44  C   UNL d   1       1.649  -7.087   2.085 -0.42 +0.00    +0.004 C 
DOCKED: ATOM     45  C   UNL d   1       2.218  -6.246   2.947 -0.55 +0.00    +0.012 C 
DOCKED: ENDBRANCH  12  44
DOCKED: BRANCH  17  46
DOCKED: ATOM     46  C   UNL d   1       5.621  -1.136  -1.893 -0.59 +0.00    +0.004 C 
DOCKED: ATOM     47  C   UNL d   1       5.198   0.107  -1.629 -0.71 -0.00    +0.012 C 
DOCKED: ENDBRANCH  17  46
DOCKED: TORSDOF 10
DOCKED: TER
DOCKED: ENDMDL
________________________________________________________________________________


	BEGINNING GENETIC ALGORITHM DOCKING 81 of 100
Run: 81 Seed: 1376162827 1925961272 [ Run 81 of 100 GA/GALS ]
Beginning LAMARCKIAN GENETIC ALGORITHM (LGA), with a maximum of 25000000 energy evaluations.

Final-Value: -18.434


	FINAL GENETIC ALGORITHM DOCKED STATE
	_______________________________________________


Detailed state:  trans 22.746 6.450 -3.953 quatxyzw 0.535299 -0.123752 0.802093 0.234067 center 8.287 34.468 -0.670 ntor 10 -33.9798 105.0699 15.4055 -20.2000 -134.0055 -77.5205 -32.1739 89.7542 -125.4231 175.6070
State:	 22.746   6.450  -3.953   0.551 -0.127  0.825 152.927    -33.98  105.07   15.41  -20.20 -134.01  -77.52  -32.17   89.75 -125.42  175.61

DOCKED: MODEL       81
DOCKED: USER    Run = 81
DOCKED: USER    DPF = D:/Protein_go_brrr/autodock/final/1A3N/heme_O2/dock.dpf
DOCKED: USER  
DOCKED: USER    Estimated Free Energy of Binding    =  -13.80 kcal/mol  [=(1)+(2)+(3)-(4)]
DOCKED: USER    Estimated Inhibition Constant, Ki   =   76.58 pM (picomolar)  [Temperature = 298.15 K]
DOCKED: USER    
DOCKED: USER    (1) Final Intermolecular Energy     =  -16.78 kcal/mol
DOCKED: USER        vdW + Hbond + desolv Energy     =  -15.05 kcal/mol
DOCKED: USER        Electrostatic Energy            =   -1.74 kcal/mol
DOCKED: USER    (2) Final Total Internal Energy     =   -1.65 kcal/mol
DOCKED: USER    (3) Torsional Free Energy           =   +2.98 kcal/mol
DOCKED: USER    (4) Unbound System's Energy  [=(2)] =   -1.65 kcal/mol
DOCKED: USER    
DOCKED: USER    
DOCKED: USER    NEWDPF move heme_O2_opt.pdbqt
DOCKED: USER    NEWDPF about 8.287000 34.468000 -0.670000
DOCKED: USER    NEWDPF tran0 22.746274 6.449623 -3.953409
DOCKED: USER    NEWDPF quaternion0 0.535299 -0.123752 0.802093 0.234067
DOCKED: USER    NEWDPF axisangle0 0.550594 -0.127288 0.825011 152.926697
DOCKED: USER    NEWDPF quat0 0.550594 -0.127288 0.825011 152.926697
DOCKED: USER    NEWDPF dihe0 -33.98 105.07 15.41 -20.20 -134.01 -77.52 -32.17 89.75 -125.42 175.61 
DOCKED: USER  keepresnum = 1 
DOCKED: USER  
DOCKED: REMARK  10 active torsions:
DOCKED: REMARK  status: ('A' for Active; 'I' for Inactive)
DOCKED: REMARK    1  A    between atoms: C_6  and  C_10 
DOCKED: REMARK    2  A    between atoms: C_10  and  C_11 
DOCKED: REMARK    3  A    between atoms: C_11  and  C_12 
DOCKED: REMARK    4  A    between atoms: C_12  and  O_14 
DOCKED: REMARK    5  A    between atoms: C_17  and  C_20 
DOCKED: REMARK    6  A    between atoms: C_24  and  C_27 
DOCKED: REMARK    7  A    between atoms: C_31  and  C_34 
DOCKED: REMARK    8  A    between atoms: C_34  and  C_35 
DOCKED: REMARK    9  A    between atoms: C_35  and  C_36 
DOCKED: REMARK   10  A    between atoms: C_36  and  O_38 
DOCKED: USER                              x       y       z     vdW  Elec       q    Type
DOCKED: USER                           _______ _______ _______ _____ _____    ______ ____
DOCKED: ROOT
DOCKED: ATOM      1  C   UNL d   1      22.753   6.840  -6.038 -0.23 +0.01    +0.064 A 
DOCKED: ATOM      2  C   UNL d   1      25.115   8.781  -2.404 -0.38 +0.01    +0.064 A 
DOCKED: ATOM      3  C   UNL d   1      22.895   5.873   0.712 -0.33 +0.00    +0.064 C 
DOCKED: ATOM      4  C   UNL d   1      20.812   3.545  -3.070 -0.34 +0.01    +0.064 A 
DOCKED: ATOM      5  C   UNL d   1      23.578   7.604  -5.304 -0.22 +0.01    +0.066 A 
DOCKED: ATOM      6  C   UNL d   1      24.395   8.607  -5.834 -0.35 -0.01    -0.021 A 
DOCKED: ATOM      7  C   UNL d   1      25.111   9.141  -4.788 -0.40 -0.00    -0.025 A 
DOCKED: ATOM      8  C   UNL d   1      24.677   8.482  -3.641 -0.36 +0.01    +0.066 A 
DOCKED: ATOM      9  C   UNL d   1      26.175  10.208  -4.923 -0.40 +0.01    +0.051 C 
DOCKED: ATOM     10  C   UNL d   1      24.680   8.141  -1.162 -0.36 +0.00    +0.066 A 
DOCKED: ATOM     11  C   UNL d   1      25.044   8.600   0.109 -0.36 -0.00    -0.021 A 
DOCKED: ATOM     12  C   UNL d   1      24.399   7.785   1.022 -0.39 +0.00    +0.000 A 
DOCKED: ATOM     13  C   UNL d   1      23.672   6.847   0.238 -0.32 +0.00    +0.070 A 
DOCKED: ATOM     14  C   UNL d   1      25.947   9.783   0.439 -0.45 +0.00    +0.052 C 
DOCKED: ATOM     15  C   UNL d   1      22.170   4.882  -0.046 -0.37 +0.00    +0.066 A 
DOCKED: ATOM     16  C   UNL d   1      21.507   3.789   0.511 -0.49 -0.00    -0.021 A 
DOCKED: ATOM     17  C   UNL d   1      20.906   3.110  -0.548 -0.48 +0.00    +0.000 A 
DOCKED: ATOM     18  C   UNL d   1      21.251   3.850  -1.688 -0.37 +0.01    +0.070 A 
DOCKED: ATOM     19  C   UNL d   1      21.552   3.463   1.983 -0.58 -0.00    +0.052 C 
DOCKED: ATOM     20  C   UNL d   1      21.159   4.208  -4.190 -0.37 +0.01    +0.066 A 
DOCKED: ATOM     21  C   UNL d   1      20.700   3.884  -5.463 -0.43 -0.00    -0.025 A 
DOCKED: ATOM     22  C   UNL d   1      21.221   4.829  -6.318 -0.31 -0.00    -0.021 A 
DOCKED: ATOM     23  C   UNL d   1      21.997   5.688  -5.534 -0.24 +0.01    +0.066 A 
DOCKED: ATOM     24  C   UNL d   1      19.811   2.728  -5.845 -0.52 +0.00    +0.051 C 
DOCKED: ATOM     25  N   UNL d   1      23.780   7.491  -3.969 -0.20 -0.02    -0.248 N 
DOCKED: ATOM     26  N   UNL d   1      23.852   7.068  -1.089 -0.22 -0.01    -0.248 N 
DOCKED: ATOM     27  N   UNL d   1      22.080   4.878  -1.373 -0.20 -0.02    -0.248 N 
DOCKED: ATOM     28  N   UNL d   1      21.993   5.280  -4.248 -0.26 -0.03    -0.248 N 
DOCKED: ATOM     29 FE   UNL d   1      22.915   6.165  -2.678 -0.08 +0.00    +0.000 Fe
DOCKED: ATOM     30  O   UNL d   1      24.441   5.936  -2.885 -0.45 +0.00    +0.000 OA
DOCKED: ATOM     31  O   UNL d   1      23.471   4.698  -2.786 -0.82 +0.00    +0.000 OA
DOCKED: ENDROOT
DOCKED: BRANCH   6  32
DOCKED: ATOM     32  C   UNL d   1      24.599   8.961  -7.284 -0.33 +0.03    +0.052 C 
DOCKED: BRANCH  32  33
DOCKED: ATOM     33  C   UNL d   1      24.717   7.733  -8.182 -0.26 +0.10    +0.115 C 
DOCKED: BRANCH  33  34
DOCKED: ATOM     34  C   UNL d   1      24.113   7.958  -9.547 -0.14 +0.16    +0.139 C 
DOCKED: ATOM     35  O   UNL d   1      24.708   8.642 -10.364 +0.16 -1.16    -0.650 OA
DOCKED: BRANCH  34  36
DOCKED: ATOM     36  O   UNL d   1      22.912   7.442  -9.878 +0.05 -0.50    -0.776 OA
DOCKED: ATOM     37  H   UNL d   1      22.609   6.593  -9.536 +0.06 +0.09    +0.167 HD
DOCKED: ENDBRANCH  34  36
DOCKED: ENDBRANCH  33  34
DOCKED: ENDBRANCH  32  33
DOCKED: ENDBRANCH   6  32
DOCKED: BRANCH  22  38
DOCKED: ATOM     38  C   UNL d   1      21.031   4.860  -7.813 -0.19 +0.01    +0.052 C 
DOCKED: BRANCH  38  39
DOCKED: ATOM     39  C   UNL d   1      22.003   3.935  -8.542 -0.36 +0.03    +0.115 C 
DOCKED: BRANCH  39  40
DOCKED: ATOM     40  C   UNL d   1      23.277   4.636  -8.942 -0.30 +0.05    +0.139 C 
DOCKED: ATOM     41  O   UNL d   1      24.053   5.020  -8.081 +0.07 -0.23    -0.650 OA
DOCKED: BRANCH  40  42
DOCKED: ATOM     42  O   UNL d   1      23.602   4.803 -10.238 +0.06 -0.44    -0.776 OA
DOCKED: ATOM     43  H   UNL d   1      23.557   5.668 -10.663 +0.06 +0.12    +0.167 HD
DOCKED: ENDBRANCH  40  42
DOCKED: ENDBRANCH  39  40
DOCKED: ENDBRANCH  38  39
DOCKED: ENDBRANCH  22  38
DOCKED: BRANCH  12  44
DOCKED: ATOM     44  C   UNL d   1      24.544   7.980   2.516 -0.53 -0.00    +0.004 C 
DOCKED: ATOM     45  C   UNL d   1      24.150   7.161   3.491 -0.67 -0.00    +0.012 C 
DOCKED: ENDBRANCH  12  44
DOCKED: BRANCH  17  46
DOCKED: ATOM     46  C   UNL d   1      20.111   1.832  -0.579 -0.65 +0.00    +0.004 C 
DOCKED: ATOM     47  C   UNL d   1      20.177   0.795   0.265 -0.76 -0.00    +0.012 C 
DOCKED: ENDBRANCH  17  46
DOCKED: TORSDOF 10
DOCKED: TER
DOCKED: ENDMDL
________________________________________________________________________________


	BEGINNING GENETIC ALGORITHM DOCKING 82 of 100
Run: 82 Seed: 340371182 1128724600 [ Run 82 of 100 GA/GALS ]
Beginning LAMARCKIAN GENETIC ALGORITHM (LGA), with a maximum of 25000000 energy evaluations.

Final-Value: -18.876


	FINAL GENETIC ALGORITHM DOCKED STATE
	_______________________________________________


Detailed state:  trans 8.213 12.173 28.315 quatxyzw 0.760469 -0.402480 -0.488223 -0.146066 center 8.287 34.468 -0.670 ntor 10 94.1823 -28.5241 38.0652 -67.7382 65.0104 -179.8812 49.6081 -35.0750 -73.5549 -179.7837
State:	  8.213  12.173  28.315   0.769 -0.407 -0.494 -163.202     94.18  -28.52   38.07  -67.74   65.01 -179.88   49.61  -35.08  -73.55 -179.78

DOCKED: MODEL       82
DOCKED: USER    Run = 82
DOCKED: USER    DPF = D:/Protein_go_brrr/autodock/final/1A3N/heme_O2/dock.dpf
DOCKED: USER  
DOCKED: USER    Estimated Free Energy of Binding    =  -15.78 kcal/mol  [=(1)+(2)+(3)-(4)]
DOCKED: USER    Estimated Inhibition Constant, Ki   =    2.70 pM (picomolar)  [Temperature = 298.15 K]
DOCKED: USER    
DOCKED: USER    (1) Final Intermolecular Energy     =  -18.77 kcal/mol
DOCKED: USER        vdW + Hbond + desolv Energy     =  -16.43 kcal/mol
DOCKED: USER        Electrostatic Energy            =   -2.34 kcal/mol
DOCKED: USER    (2) Final Total Internal Energy     =   -0.11 kcal/mol
DOCKED: USER    (3) Torsional Free Energy           =   +2.98 kcal/mol
DOCKED: USER    (4) Unbound System's Energy  [=(2)] =   -0.11 kcal/mol
DOCKED: USER    
DOCKED: USER    
DOCKED: USER    NEWDPF move heme_O2_opt.pdbqt
DOCKED: USER    NEWDPF about 8.287000 34.468000 -0.670000
DOCKED: USER    NEWDPF tran0 8.212620 12.173427 28.314720
DOCKED: USER    NEWDPF quaternion0 0.760469 -0.402480 -0.488223 -0.146066
DOCKED: USER    NEWDPF axisangle0 0.768714 -0.406843 -0.493516 -163.201934
DOCKED: USER    NEWDPF quat0 0.768714 -0.406843 -0.493516 -163.201934
DOCKED: USER    NEWDPF dihe0 94.18 -28.52 38.07 -67.74 65.01 -179.88 49.61 -35.08 -73.55 -179.78 
DOCKED: USER  keepresnum = 1 
DOCKED: USER  
DOCKED: REMARK  10 active torsions:
DOCKED: REMARK  status: ('A' for Active; 'I' for Inactive)
DOCKED: REMARK    1  A    between atoms: C_6  and  C_10 
DOCKED: REMARK    2  A    between atoms: C_10  and  C_11 
DOCKED: REMARK    3  A    between atoms: C_11  and  C_12 
DOCKED: REMARK    4  A    between atoms: C_12  and  O_14 
DOCKED: REMARK    5  A    between atoms: C_17  and  C_20 
DOCKED: REMARK    6  A    between atoms: C_24  and  C_27 
DOCKED: REMARK    7  A    between atoms: C_31  and  C_34 
DOCKED: REMARK    8  A    between atoms: C_34  and  C_35 
DOCKED: REMARK    9  A    between atoms: C_35  and  C_36 
DOCKED: REMARK   10  A    between atoms: C_36  and  O_38 
DOCKED: USER                              x       y       z     vdW  Elec       q    Type
DOCKED: USER                           _______ _______ _______ _____ _____    ______ ____
DOCKED: ROOT
DOCKED: ATOM      1  C   UNL d   1       8.245  13.067  30.238 -0.20 +0.02    +0.064 A 
DOCKED: ATOM      2  C   UNL d   1       6.571  14.540  26.045 -0.38 +0.01    +0.064 A 
DOCKED: ATOM      3  C   UNL d   1       8.059  10.492  23.924 -0.40 +0.00    +0.064 C 
DOCKED: ATOM      4  C   UNL d   1       9.358   8.760  28.326 -0.39 +0.01    +0.064 A 
DOCKED: ATOM      5  C   UNL d   1       7.667  13.797  29.271 -0.26 +0.01    +0.066 A 
DOCKED: ATOM      6  C   UNL d   1       7.121  15.068  29.471 -0.38 -0.00    -0.021 A 
DOCKED: ATOM      7  C   UNL d   1       6.597  15.478  28.267 -0.45 -0.00    -0.025 A 
DOCKED: ATOM      8  C   UNL d   1       6.881  14.466  27.354 -0.38 +0.01    +0.066 A 
DOCKED: ATOM      9  C   UNL d   1       5.841  16.770  28.046 -0.39 +0.00    +0.051 C 
DOCKED: ATOM     10  C   UNL d   1       6.863  13.522  25.035 -0.35 +0.00    +0.066 A 
DOCKED: ATOM     11  C   UNL d   1       6.668  13.719  23.664 -0.37 -0.00    -0.021 A 
DOCKED: ATOM     12  C   UNL d   1       7.108  12.570  23.034 -0.40 +0.00    +0.000 A 
DOCKED: ATOM     13  C   UNL d   1       7.545  11.712  24.081 -0.32 +0.00    +0.070 A 
DOCKED: ATOM     14  C   UNL d   1       6.111  14.963  22.981 -0.48 +0.00    +0.052 C 
DOCKED: ATOM     15  C   UNL d   1       8.480   9.580  24.960 -0.39 +0.01    +0.066 A 
DOCKED: ATOM     16  C   UNL d   1       8.856   8.255  24.740 -0.51 -0.00    -0.021 A 
DOCKED: ATOM     17  C   UNL d   1       9.230   7.740  25.982 -0.46 +0.00    +0.000 A 
DOCKED: ATOM     18  C   UNL d   1       9.054   8.805  26.877 -0.38 +0.01    +0.070 A 
DOCKED: ATOM     19  C   UNL d   1       8.773   7.589  23.390 -0.59 +0.00    +0.052 C 
DOCKED: ATOM     20  C   UNL d   1       9.161   9.749  29.221 -0.40 +0.01    +0.066 A 
DOCKED: ATOM     21  C   UNL d   1       9.483   9.655  30.572 -0.41 -0.01    -0.025 A 
DOCKED: ATOM     22  C   UNL d   1       9.198  10.882  31.127 -0.30 -0.01    -0.021 A 
DOCKED: ATOM     23  C   UNL d   1       8.693  11.677  30.093 -0.29 +0.02    +0.066 A 
DOCKED: ATOM     24  C   UNL d   1      10.033   8.453  31.297 -0.53 +0.02    +0.051 C 
DOCKED: ATOM     25  N   UNL d   1       7.482  13.403  27.987 -0.21 -0.03    -0.248 N 
DOCKED: ATOM     26  N   UNL d   1       7.389  12.298  25.296 -0.23 -0.01    -0.248 N 
DOCKED: ATOM     27  N   UNL d   1       8.528   9.889  26.252 -0.22 -0.02    -0.248 N 
DOCKED: ATOM     28  N   UNL d   1       8.630  10.970  28.946 -0.25 -0.04    -0.248 N 
DOCKED: ATOM     29 FE   UNL d   1       8.014  11.626  27.133 -0.08 +0.00    +0.000 Fe
DOCKED: ATOM     30  O   UNL d   1       6.476  11.833  27.245 -0.39 +0.00    +0.000 OA
DOCKED: ATOM     31  O   UNL d   1       7.095  10.414  27.533 -0.68 +0.00    +0.000 OA
DOCKED: ENDROOT
DOCKED: BRANCH   6  32
DOCKED: ATOM     32  C   UNL d   1       6.972  15.815  30.771 -0.35 +0.02    +0.052 C 
DOCKED: BRANCH  32  33
DOCKED: ATOM     33  C   UNL d   1       7.722  15.154  31.923 -0.26 +0.06    +0.115 C 
DOCKED: BRANCH  33  34
DOCKED: ATOM     34  C   UNL d   1       6.875  15.029  33.165 -0.16 +0.15    +0.139 C 
DOCKED: ATOM     35  O   UNL d   1       6.815  15.961  33.951 -0.18 -0.99    -0.650 OA
DOCKED: BRANCH  34  36
DOCKED: ATOM     36  O   UNL d   1       6.199  13.895  33.444 -0.12 -1.01    -0.776 OA
DOCKED: ATOM     37  H   UNL d   1       6.565  13.209  34.014 +0.06 +0.20    +0.167 HD
DOCKED: ENDBRANCH  34  36
DOCKED: ENDBRANCH  33  34
DOCKED: ENDBRANCH  32  33
DOCKED: ENDBRANCH   6  32
DOCKED: BRANCH  22  38
DOCKED: ATOM     38  C   UNL d   1       9.345  11.243  32.582 -0.29 +0.03    +0.052 C 
DOCKED: BRANCH  38  39
DOCKED: ATOM     39  C   UNL d   1       8.202  10.697  33.435 -0.33 +0.06    +0.115 C 
DOCKED: BRANCH  39  40
DOCKED: ATOM     40  C   UNL d   1       8.662  10.255  34.802 -0.14 +0.09    +0.139 C 
DOCKED: ATOM     41  O   UNL d   1       9.763   9.745  34.935 -0.24 -0.53    -0.650 OA
DOCKED: BRANCH  40  42
DOCKED: ATOM     42  O   UNL d   1       7.899  10.460  35.893 -0.42 -0.52    -0.776 OA
DOCKED: ATOM     43  H   UNL d   1       7.253  11.176  35.930 +0.07 +0.11    +0.167 HD
DOCKED: ENDBRANCH  40  42
DOCKED: ENDBRANCH  39  40
DOCKED: ENDBRANCH  38  39
DOCKED: ENDBRANCH  22  38
DOCKED: BRANCH  12  44
DOCKED: ATOM     44  C   UNL d   1       7.063  12.411  21.529 -0.58 -0.00    +0.004 C 
DOCKED: ATOM     45  C   UNL d   1       6.847  11.297  20.829 -0.72 -0.00    +0.012 C 
DOCKED: ENDBRANCH  12  44
DOCKED: BRANCH  17  46
DOCKED: ATOM     46  C   UNL d   1       9.668   6.358  26.387 -0.56 +0.00    +0.004 C 
DOCKED: ATOM     47  C   UNL d   1       8.917   5.259  26.528 -0.74 +0.00    +0.012 C 
DOCKED: ENDBRANCH  17  46
DOCKED: TORSDOF 10
DOCKED: TER
DOCKED: ENDMDL
________________________________________________________________________________


	BEGINNING GENETIC ALGORITHM DOCKING 83 of 100
Run: 83 Seed: 1105560975 1933145234 [ Run 83 of 100 GA/GALS ]
Beginning LAMARCKIAN GENETIC ALGORITHM (LGA), with a maximum of 25000000 energy evaluations.

Final-Value: -15.522


	FINAL GENETIC ALGORITHM DOCKED STATE
	_______________________________________________


Detailed state:  trans 1.023 -7.975 -6.055 quatxyzw 0.713805 0.133016 0.687568 -0.006190 center 8.287 34.468 -0.670 ntor 10 30.1293 106.3468 26.3947 -89.2239 -122.7404 -128.7665 123.4952 -78.2781 42.4201 13.8578
State:	  1.023  -7.975  -6.055   0.714  0.133  0.688 -179.291     30.13  106.35   26.39  -89.22 -122.74 -128.77  123.50  -78.28   42.42   13.86

DOCKED: MODEL       83
DOCKED: USER    Run = 83
DOCKED: USER    DPF = D:/Protein_go_brrr/autodock/final/1A3N/heme_O2/dock.dpf
DOCKED: USER  
DOCKED: USER    Estimated Free Energy of Binding    =  -10.75 kcal/mol  [=(1)+(2)+(3)-(4)]
DOCKED: USER    Estimated Inhibition Constant, Ki   =   13.21 nM (nanomolar)  [Temperature = 298.15 K]
DOCKED: USER    
DOCKED: USER    (1) Final Intermolecular Energy     =  -13.73 kcal/mol
DOCKED: USER        vdW + Hbond + desolv Energy     =  -11.69 kcal/mol
DOCKED: USER        Electrostatic Energy            =   -2.04 kcal/mol
DOCKED: USER    (2) Final Total Internal Energy     =   -1.79 kcal/mol
DOCKED: USER    (3) Torsional Free Energy           =   +2.98 kcal/mol
DOCKED: USER    (4) Unbound System's Energy  [=(2)] =   -1.79 kcal/mol
DOCKED: USER    
DOCKED: USER    
DOCKED: USER    NEWDPF move heme_O2_opt.pdbqt
DOCKED: USER    NEWDPF about 8.287000 34.468000 -0.670000
DOCKED: USER    NEWDPF tran0 1.023004 -7.974817 -6.055174
DOCKED: USER    NEWDPF quaternion0 0.713805 0.133016 0.687568 -0.006190
DOCKED: USER    NEWDPF axisangle0 0.713819 0.133019 0.687581 -179.290717
DOCKED: USER    NEWDPF quat0 0.713819 0.133019 0.687581 -179.290717
DOCKED: USER    NEWDPF dihe0 30.13 106.35 26.39 -89.22 -122.74 -128.77 123.50 -78.28 42.42 13.86 
DOCKED: USER  keepresnum = 1 
DOCKED: USER  
DOCKED: REMARK  10 active torsions:
DOCKED: REMARK  status: ('A' for Active; 'I' for Inactive)
DOCKED: REMARK    1  A    between atoms: C_6  and  C_10 
DOCKED: REMARK    2  A    between atoms: C_10  and  C_11 
DOCKED: REMARK    3  A    between atoms: C_11  and  C_12 
DOCKED: REMARK    4  A    between atoms: C_12  and  O_14 
DOCKED: REMARK    5  A    between atoms: C_17  and  C_20 
DOCKED: REMARK    6  A    between atoms: C_24  and  C_27 
DOCKED: REMARK    7  A    between atoms: C_31  and  C_34 
DOCKED: REMARK    8  A    between atoms: C_34  and  C_35 
DOCKED: REMARK    9  A    between atoms: C_35  and  C_36 
DOCKED: REMARK   10  A    between atoms: C_36  and  O_38 
DOCKED: USER                              x       y       z     vdW  Elec       q    Type
DOCKED: USER                           _______ _______ _______ _____ _____    ______ ____
DOCKED: ROOT
DOCKED: ATOM      1  C   UNL d   1       0.310  -9.066  -7.729 -0.19 +0.03    +0.064 A 
DOCKED: ATOM      2  C   UNL d   1       3.483  -5.557  -7.302 -0.27 +0.01    +0.064 A 
DOCKED: ATOM      3  C   UNL d   1       2.738  -5.336  -2.559 -0.36 +0.00    +0.064 C 
DOCKED: ATOM      4  C   UNL d   1      -0.175  -9.267  -2.916 -0.41 +0.00    +0.064 A 
DOCKED: ATOM      5  C   UNL d   1       1.235  -8.131  -7.999 -0.21 +0.03    +0.066 A 
DOCKED: ATOM      6  C   UNL d   1       1.716  -7.854  -9.282 -0.16 -0.01    -0.021 A 
DOCKED: ATOM      7  C   UNL d   1       2.666  -6.868  -9.154 -0.18 -0.01    -0.025 A 
DOCKED: ATOM      8  C   UNL d   1       2.705  -6.536  -7.803 -0.22 +0.02    +0.066 A 
DOCKED: ATOM      9  C   UNL d   1       3.499  -6.316 -10.291 -0.13 +0.01    +0.051 C 
DOCKED: ATOM     10  C   UNL d   1       3.549  -5.148  -5.898 -0.35 +0.01    +0.066 A 
DOCKED: ATOM     11  C   UNL d   1       4.249  -4.020  -5.458 -0.45 -0.00    -0.021 A 
DOCKED: ATOM     12  C   UNL d   1       4.032  -3.929  -4.095 -0.45 +0.00    +0.000 A 
DOCKED: ATOM     13  C   UNL d   1       3.203  -5.039  -3.773 -0.31 +0.01    +0.070 A 
DOCKED: ATOM     14  C   UNL d   1       5.069  -3.053  -6.305 -0.52 +0.00    +0.052 C 
DOCKED: ATOM     15  C   UNL d   1       1.926  -6.469  -2.186 -0.15 +0.00    +0.066 A 
DOCKED: ATOM     16  C   UNL d   1       1.608  -6.815  -0.873 -0.37 -0.00    -0.021 A 
DOCKED: ATOM     17  C   UNL d   1       0.779  -7.934  -0.949 -0.39 +0.00    +0.000 A 
DOCKED: ATOM     18  C   UNL d   1       0.649  -8.188  -2.322 -0.36 +0.00    +0.070 A 
DOCKED: ATOM     19  C   UNL d   1       2.163  -6.088   0.327 -0.43 +0.00    +0.052 C 
DOCKED: ATOM     20  C   UNL d   1      -0.287  -9.566  -4.225 -0.33 +0.01    +0.066 A 
DOCKED: ATOM     21  C   UNL d   1      -1.094 -10.584  -4.726 -0.25 -0.00    -0.025 A 
DOCKED: ATOM     22  C   UNL d   1      -0.989 -10.523  -6.098 -0.16 -0.00    -0.021 A 
DOCKED: ATOM     23  C   UNL d   1      -0.105  -9.479  -6.383 -0.22 +0.02    +0.066 A 
DOCKED: ATOM     24  C   UNL d   1      -1.920 -11.566  -3.937 -0.30 -0.00    +0.051 C 
DOCKED: ATOM     25  N   UNL d   1       1.870  -7.359  -7.083 -0.15 -0.09    -0.248 N 
DOCKED: ATOM     26  N   UNL d   1       2.918  -5.778  -4.875 -0.23 -0.05    -0.248 N 
DOCKED: ATOM     27  N   UNL d   1       1.412  -7.336  -3.053 -0.21 -0.02    -0.248 N 
DOCKED: ATOM     28  N   UNL d   1       0.354  -8.929  -5.240 -0.19 -0.06    -0.248 N 
DOCKED: ATOM     29 FE   UNL d   1       1.626  -7.365  -5.056 -0.07 +0.00    +0.000 Fe
DOCKED: ATOM     30  O   UNL d   1       3.019  -7.880  -5.522 -0.32 +0.00    +0.000 OA
DOCKED: ATOM     31  O   UNL d   1       2.282  -8.595  -4.327 -0.14 +0.00    +0.000 OA
DOCKED: ENDROOT
DOCKED: BRANCH   6  32
DOCKED: ATOM     32  C   UNL d   1       1.398  -8.580 -10.564 -0.08 +0.02    +0.052 C 
DOCKED: BRANCH  32  33
DOCKED: ATOM     33  C   UNL d   1       0.901  -7.648 -11.665 -0.05 +0.05    +0.115 C 
DOCKED: BRANCH  33  34
DOCKED: ATOM     34  C   UNL d   1      -0.342  -6.894 -11.262 -0.06 +0.14    +0.139 C 
DOCKED: ATOM     35  O   UNL d   1      -0.239  -5.843 -10.650 -0.44 -1.05    -0.650 OA
DOCKED: BRANCH  34  36
DOCKED: ATOM     36  O   UNL d   1      -1.574  -7.370 -11.538 -0.02 -0.86    -0.776 OA
DOCKED: ATOM     37  H   UNL d   1      -1.757  -8.315 -11.589 +0.01 +0.12    +0.167 HD
DOCKED: ENDBRANCH  34  36
DOCKED: ENDBRANCH  33  34
DOCKED: ENDBRANCH  32  33
DOCKED: ENDBRANCH   6  32
DOCKED: BRANCH  22  38
DOCKED: ATOM     38  C   UNL d   1      -1.654 -11.462  -7.072 -0.14 +0.01    +0.052 C 
DOCKED: BRANCH  38  39
DOCKED: ATOM     39  C   UNL d   1      -2.671 -10.752  -7.963 -0.09 +0.04    +0.115 C 
DOCKED: BRANCH  39  40
DOCKED: ATOM     40  C   UNL d   1      -2.122 -10.449  -9.335 -0.09 +0.06    +0.139 C 
DOCKED: ATOM     41  O   UNL d   1      -1.110 -11.011  -9.720 +0.01 -0.19    -0.650 OA
DOCKED: BRANCH  40  42
DOCKED: ATOM     42  O   UNL d   1      -2.759  -9.604 -10.168 +0.01 -0.49    -0.776 OA
DOCKED: ATOM     43  H   UNL d   1      -2.402  -8.731 -10.372 +0.02 +0.16    +0.167 HD
DOCKED: ENDBRANCH  40  42
DOCKED: ENDBRANCH  39  40
DOCKED: ENDBRANCH  38  39
DOCKED: ENDBRANCH  22  38
DOCKED: BRANCH  12  44
DOCKED: ATOM     44  C   UNL d   1       4.629  -2.817  -3.258 -0.54 +0.00    +0.004 C 
DOCKED: ATOM     45  C   UNL d   1       4.850  -2.809  -1.944 -0.55 +0.00    +0.012 C 
DOCKED: ENDBRANCH  12  44
DOCKED: BRANCH  17  46
DOCKED: ATOM     46  C   UNL d   1       0.168  -8.787   0.130 -0.57 -0.00    +0.004 C 
DOCKED: ATOM     47  C   UNL d   1       0.626  -9.940   0.634 -0.60 -0.00    +0.012 C 
DOCKED: ENDBRANCH  17  46
DOCKED: TORSDOF 10
DOCKED: TER
DOCKED: ENDMDL
________________________________________________________________________________


	BEGINNING GENETIC ALGORITHM DOCKING 84 of 100
Run: 84 Seed: 173075685 1251939745 [ Run 84 of 100 GA/GALS ]
Beginning LAMARCKIAN GENETIC ALGORITHM (LGA), with a maximum of 25000000 energy evaluations.

Final-Value: -19.691


	FINAL GENETIC ALGORITHM DOCKED STATE
	_______________________________________________


Detailed state:  trans 8.273 12.044 28.194 quatxyzw 0.747272 -0.389306 -0.530079 -0.095083 center 8.287 34.468 -0.670 ntor 10 101.6171 1.6862 27.4111 -108.9654 -167.3063 170.1172 -24.1506 -6.0607 -147.5467 155.5326
State:	  8.273  12.044  28.194   0.751 -0.391 -0.532 -169.088    101.62    1.69   27.41 -108.97 -167.31  170.12  -24.15   -6.06 -147.55  155.53

DOCKED: MODEL       84
DOCKED: USER    Run = 84
DOCKED: USER    DPF = D:/Protein_go_brrr/autodock/final/1A3N/heme_O2/dock.dpf
DOCKED: USER  
DOCKED: USER    Estimated Free Energy of Binding    =  -15.06 kcal/mol  [=(1)+(2)+(3)-(4)]
DOCKED: USER    Estimated Inhibition Constant, Ki   =    9.13 pM (picomolar)  [Temperature = 298.15 K]
DOCKED: USER    
DOCKED: USER    (1) Final Intermolecular Energy     =  -18.04 kcal/mol
DOCKED: USER        vdW + Hbond + desolv Energy     =  -15.76 kcal/mol
DOCKED: USER        Electrostatic Energy            =   -2.28 kcal/mol
DOCKED: USER    (2) Final Total Internal Energy     =   -1.65 kcal/mol
DOCKED: USER    (3) Torsional Free Energy           =   +2.98 kcal/mol
DOCKED: USER    (4) Unbound System's Energy  [=(2)] =   -1.65 kcal/mol
DOCKED: USER    
DOCKED: USER    
DOCKED: USER    NEWDPF move heme_O2_opt.pdbqt
DOCKED: USER    NEWDPF about 8.287000 34.468000 -0.670000
DOCKED: USER    NEWDPF tran0 8.273151 12.043818 28.193644
DOCKED: USER    NEWDPF quaternion0 0.747272 -0.389306 -0.530079 -0.095083
DOCKED: USER    NEWDPF axisangle0 0.750673 -0.391078 -0.532492 -169.087800
DOCKED: USER    NEWDPF quat0 0.750673 -0.391078 -0.532492 -169.087800
DOCKED: USER    NEWDPF dihe0 101.62 1.69 27.41 -108.97 -167.31 170.12 -24.15 -6.06 -147.55 155.53 
DOCKED: USER  keepresnum = 1 
DOCKED: USER  
DOCKED: REMARK  10 active torsions:
DOCKED: REMARK  status: ('A' for Active; 'I' for Inactive)
DOCKED: REMARK    1  A    between atoms: C_6  and  C_10 
DOCKED: REMARK    2  A    between atoms: C_10  and  C_11 
DOCKED: REMARK    3  A    between atoms: C_11  and  C_12 
DOCKED: REMARK    4  A    between atoms: C_12  and  O_14 
DOCKED: REMARK    5  A    between atoms: C_17  and  C_20 
DOCKED: REMARK    6  A    between atoms: C_24  and  C_27 
DOCKED: REMARK    7  A    between atoms: C_31  and  C_34 
DOCKED: REMARK    8  A    between atoms: C_34  and  C_35 
DOCKED: REMARK    9  A    between atoms: C_35  and  C_36 
DOCKED: REMARK   10  A    between atoms: C_36  and  O_38 
DOCKED: USER                              x       y       z     vdW  Elec       q    Type
DOCKED: USER                           _______ _______ _______ _____ _____    ______ ____
DOCKED: ROOT
DOCKED: ATOM      1  C   UNL d   1       8.424  12.695  30.207 -0.15 +0.02    +0.064 A 
DOCKED: ATOM      2  C   UNL d   1       6.683  14.747  26.293 -0.40 +0.01    +0.064 A 
DOCKED: ATOM      3  C   UNL d   1       7.869  10.916  23.645 -0.25 +0.00    +0.064 C 
DOCKED: ATOM      4  C   UNL d   1       9.229   8.601  27.751 -0.39 +0.01    +0.064 A 
DOCKED: ATOM      5  C   UNL d   1       7.852  13.565  29.359 -0.22 +0.01    +0.066 A 
DOCKED: ATOM      6  C   UNL d   1       7.384  14.829  29.731 -0.36 -0.01    -0.021 A 
DOCKED: ATOM      7  C   UNL d   1       6.841  15.407  28.608 -0.42 -0.00    -0.025 A 
DOCKED: ATOM      8  C   UNL d   1       7.035  14.500  27.569 -0.37 +0.01    +0.066 A 
DOCKED: ATOM      9  C   UNL d   1       6.149  16.752  28.574 -0.48 +0.01    +0.051 C 
DOCKED: ATOM     10  C   UNL d   1       6.882  13.845  25.158 -0.36 +0.00    +0.066 A 
DOCKED: ATOM     11  C   UNL d   1       6.649  14.217  23.829 -0.36 -0.00    -0.021 A 
DOCKED: ATOM     12  C   UNL d   1       7.002  13.131  23.049 -0.36 +0.00    +0.000 A 
DOCKED: ATOM     13  C   UNL d   1       7.429  12.132  23.967 -0.34 +0.00    +0.070 A 
DOCKED: ATOM     14  C   UNL d   1       6.136  15.560  23.324 -0.51 +0.00    +0.052 C 
DOCKED: ATOM     15  C   UNL d   1       8.277   9.865  24.545 -0.36 +0.00    +0.066 A 
DOCKED: ATOM     16  C   UNL d   1       8.571   8.559  24.154 -0.55 -0.00    -0.021 A 
DOCKED: ATOM     17  C   UNL d   1       8.961   7.880  25.309 -0.49 +0.00    +0.000 A 
DOCKED: ATOM     18  C   UNL d   1       8.876   8.836  26.331 -0.38 +0.01    +0.070 A 
DOCKED: ATOM     19  C   UNL d   1       8.403   8.067  22.739 -0.34 +0.00    +0.052 C 
DOCKED: ATOM     20  C   UNL d   1       9.119   9.483  28.764 -0.39 +0.01    +0.066 A 
DOCKED: ATOM     21  C   UNL d   1       9.485   9.210  30.079 -0.43 -0.01    -0.025 A 
DOCKED: ATOM     22  C   UNL d   1       9.287  10.374  30.788 -0.38 -0.01    -0.021 A 
DOCKED: ATOM     23  C   UNL d   1       8.790  11.312  29.879 -0.31 +0.02    +0.066 A 
DOCKED: ATOM     24  C   UNL d   1       9.993   7.904  30.632 -0.54 +0.01    +0.051 C 
DOCKED: ATOM     25  N   UNL d   1       7.600  13.339  28.046 -0.18 -0.03    -0.248 N 
DOCKED: ATOM     26  N   UNL d   1       7.349  12.573  25.248 -0.23 -0.01    -0.248 N 
DOCKED: ATOM     27  N   UNL d   1       8.388  10.013  25.863 -0.22 -0.02    -0.248 N 
DOCKED: ATOM     28  N   UNL d   1       8.646  10.753  28.659 -0.25 -0.04    -0.248 N 
DOCKED: ATOM     29 FE   UNL d   1       8.002  11.654  26.965 -0.08 +0.00    +0.000 Fe
DOCKED: ATOM     30  O   UNL d   1       6.483  11.923  27.166 -0.38 +0.00    +0.000 OA
DOCKED: ATOM     31  O   UNL d   1       7.034  10.450  27.256 -0.73 +0.00    +0.000 OA
DOCKED: ENDROOT
DOCKED: BRANCH   6  32
DOCKED: ATOM     32  C   UNL d   1       7.323  15.419  31.116 -0.33 +0.02    +0.052 C 
DOCKED: BRANCH  32  33
DOCKED: ATOM     33  C   UNL d   1       6.390  14.651  32.047 -0.24 +0.07    +0.115 C 
DOCKED: BRANCH  33  34
DOCKED: ATOM     34  C   UNL d   1       6.777  14.797  33.497 -0.10 +0.18    +0.139 C 
DOCKED: ATOM     35  O   UNL d   1       7.124  15.887  33.923 -0.17 -0.85    -0.650 OA
DOCKED: BRANCH  34  36
DOCKED: ATOM     36  O   UNL d   1       6.774  13.739  34.335 -0.07 -1.13    -0.776 OA
DOCKED: ATOM     37  H   UNL d   1       7.587  13.288  34.590 +0.06 +0.16    +0.167 HD
DOCKED: ENDBRANCH  34  36
DOCKED: ENDBRANCH  33  34
DOCKED: ENDBRANCH  32  33
DOCKED: ENDBRANCH   6  32
DOCKED: BRANCH  22  38
DOCKED: ATOM     38  C   UNL d   1       9.506  10.548  32.268 -0.24 +0.02    +0.052 C 
DOCKED: BRANCH  38  39
DOCKED: ATOM     39  C   UNL d   1       8.197  10.539  33.055 -0.36 +0.05    +0.115 C 
DOCKED: BRANCH  39  40
DOCKED: ATOM     40  C   UNL d   1       8.421  10.539  34.546 -0.27 +0.09    +0.139 C 
DOCKED: ATOM     41  O   UNL d   1       9.252   9.790  35.034 -0.37 -0.51    -0.650 OA
DOCKED: BRANCH  40  42
DOCKED: ATOM     42  O   UNL d   1       7.754  11.389  35.350 +0.04 -0.53    -0.776 OA
DOCKED: ATOM     43  H   UNL d   1       7.071  11.977  35.007 +0.07 +0.13    +0.167 HD
DOCKED: ENDBRANCH  40  42
DOCKED: ENDBRANCH  39  40
DOCKED: ENDBRANCH  38  39
DOCKED: ENDBRANCH  22  38
DOCKED: BRANCH  12  44
DOCKED: ATOM     44  C   UNL d   1       6.894  13.158  21.539 -0.55 +0.00    +0.004 C 
DOCKED: ATOM     45  C   UNL d   1       6.785  12.122  20.707 -0.68 -0.00    +0.012 C 
DOCKED: ENDBRANCH  12  44
DOCKED: BRANCH  17  46
DOCKED: ATOM     46  C   UNL d   1       9.337   6.439  25.528 -0.64 +0.00    +0.004 C 
DOCKED: ATOM     47  C   UNL d   1       8.706   5.522  26.273 -0.73 +0.00    +0.012 C 
DOCKED: ENDBRANCH  17  46
DOCKED: TORSDOF 10
DOCKED: TER
DOCKED: ENDMDL
________________________________________________________________________________


	BEGINNING GENETIC ALGORITHM DOCKING 85 of 100
Run: 85 Seed: 2115296115 977164402 [ Run 85 of 100 GA/GALS ]
Beginning LAMARCKIAN GENETIC ALGORITHM (LGA), with a maximum of 25000000 energy evaluations.

Final-Value: -13.895


	FINAL GENETIC ALGORITHM DOCKED STATE
	_______________________________________________


Detailed state:  trans 23.803 -5.775 34.417 quatxyzw 0.790450 -0.366195 -0.490175 -0.028610 center 8.287 34.468 -0.670 ntor 10 61.8632 178.9120 -109.1124 155.9339 -175.6202 145.3438 -55.4069 45.2629 14.5752 8.5736
State:	 23.803  -5.775  34.417   0.791 -0.366 -0.490 -176.721     61.86  178.91 -109.11  155.93 -175.62  145.34  -55.41   45.26   14.58    8.57

DOCKED: MODEL       85
DOCKED: USER    Run = 85
DOCKED: USER    DPF = D:/Protein_go_brrr/autodock/final/1A3N/heme_O2/dock.dpf
DOCKED: USER  
DOCKED: USER    Estimated Free Energy of Binding    =  -10.33 kcal/mol  [=(1)+(2)+(3)-(4)]
DOCKED: USER    Estimated Inhibition Constant, Ki   =   26.90 nM (nanomolar)  [Temperature = 298.15 K]
DOCKED: USER    
DOCKED: USER    (1) Final Intermolecular Energy     =  -13.31 kcal/mol
DOCKED: USER        vdW + Hbond + desolv Energy     =  -12.13 kcal/mol
DOCKED: USER        Electrostatic Energy            =   -1.18 kcal/mol
DOCKED: USER    (2) Final Total Internal Energy     =   -0.58 kcal/mol
DOCKED: USER    (3) Torsional Free Energy           =   +2.98 kcal/mol
DOCKED: USER    (4) Unbound System's Energy  [=(2)] =   -0.58 kcal/mol
DOCKED: USER    
DOCKED: USER    
DOCKED: USER    NEWDPF move heme_O2_opt.pdbqt
DOCKED: USER    NEWDPF about 8.287000 34.468000 -0.670000
DOCKED: USER    NEWDPF tran0 23.802940 -5.775417 34.417068
DOCKED: USER    NEWDPF quaternion0 0.790450 -0.366195 -0.490175 -0.028610
DOCKED: USER    NEWDPF axisangle0 0.790774 -0.366345 -0.490376 -176.721119
DOCKED: USER    NEWDPF quat0 0.790774 -0.366345 -0.490376 -176.721119
DOCKED: USER    NEWDPF dihe0 61.86 178.91 -109.11 155.93 -175.62 145.34 -55.41 45.26 14.58 8.57 
DOCKED: USER  keepresnum = 1 
DOCKED: USER  
DOCKED: REMARK  10 active torsions:
DOCKED: REMARK  status: ('A' for Active; 'I' for Inactive)
DOCKED: REMARK    1  A    between atoms: C_6  and  C_10 
DOCKED: REMARK    2  A    between atoms: C_10  and  C_11 
DOCKED: REMARK    3  A    between atoms: C_11  and  C_12 
DOCKED: REMARK    4  A    between atoms: C_12  and  O_14 
DOCKED: REMARK    5  A    between atoms: C_17  and  C_20 
DOCKED: REMARK    6  A    between atoms: C_24  and  C_27 
DOCKED: REMARK    7  A    between atoms: C_31  and  C_34 
DOCKED: REMARK    8  A    between atoms: C_34  and  C_35 
DOCKED: REMARK    9  A    between atoms: C_35  and  C_36 
DOCKED: REMARK   10  A    between atoms: C_36  and  O_38 
DOCKED: USER                              x       y       z     vdW  Elec       q    Type
DOCKED: USER                           _______ _______ _______ _____ _____    ______ ____
DOCKED: ROOT
DOCKED: ATOM      1  C   UNL d   1      23.638  -5.331  36.485 -0.18 +0.02    +0.064 A 
DOCKED: ATOM      2  C   UNL d   1      22.485  -2.890  32.577 -0.45 +0.01    +0.064 A 
DOCKED: ATOM      3  C   UNL d   1      24.109  -6.437  29.770 -0.35 +0.00    +0.064 C 
DOCKED: ATOM      4  C   UNL d   1      24.860  -9.158  33.783 -0.27 +0.02    +0.064 A 
DOCKED: ATOM      5  C   UNL d   1      23.190  -4.378  35.651 -0.24 +0.01    +0.066 A 
DOCKED: ATOM      6  C   UNL d   1      22.655  -3.158  36.072 -0.25 -0.00    -0.021 A 
DOCKED: ATOM      7  C   UNL d   1      22.281  -2.468  34.943 -0.39 -0.00    -0.025 A 
DOCKED: ATOM      8  C   UNL d   1      22.643  -3.266  33.861 -0.39 +0.01    +0.066 A 
DOCKED: ATOM      9  C   UNL d   1      21.585  -1.125  34.939 -0.33 +0.00    +0.051 C 
DOCKED: ATOM     10  C   UNL d   1      22.866  -3.673  31.401 -0.41 +0.01    +0.066 A 
DOCKED: ATOM     11  C   UNL d   1      22.832  -3.169  30.096 -0.46 -0.00    -0.021 A 
DOCKED: ATOM     12  C   UNL d   1      23.314  -4.171  29.274 -0.44 +0.00    +0.000 A 
DOCKED: ATOM     13  C   UNL d   1      23.609  -5.259  30.142 -0.34 +0.00    +0.070 A 
DOCKED: ATOM     14  C   UNL d   1      22.385  -1.780  29.655 -0.57 +0.00    +0.052 C 
DOCKED: ATOM     15  C   UNL d   1      24.389  -7.575  30.612 +0.04 +0.00    +0.066 A 
DOCKED: ATOM     16  C   UNL d   1      24.756  -8.835  30.142 -0.39 -0.00    -0.021 A 
DOCKED: ATOM     17  C   UNL d   1      24.975  -9.628  31.268 -0.44 +0.00    +0.000 A 
DOCKED: ATOM     18  C   UNL d   1      24.723  -8.780  32.356 -0.35 +0.01    +0.070 A 
DOCKED: ATOM     19  C   UNL d   1      24.811  -9.182  28.675 -0.49 +0.00    +0.052 C 
DOCKED: ATOM     20  C   UNL d   1      24.585  -8.383  34.850 -0.24 +0.03    +0.066 A 
DOCKED: ATOM     21  C   UNL d   1      24.751  -8.788  36.171 -0.19 -0.02    -0.025 A 
DOCKED: ATOM     22  C   UNL d   1      24.433  -7.701  36.955 -0.18 -0.01    -0.021 A 
DOCKED: ATOM     23  C   UNL d   1      24.067  -6.675  36.079 -0.21 +0.03    +0.066 A 
DOCKED: ATOM     24  C   UNL d   1      25.186 -10.145  36.662 -0.15 +0.03    +0.051 C 
DOCKED: ATOM     25  N   UNL d   1      23.143  -4.470  34.299 -0.21 -0.04    -0.248 N 
DOCKED: ATOM     26  N   UNL d   1      23.330  -4.949  31.433 -0.25 -0.03    -0.248 N 
DOCKED: ATOM     27  N   UNL d   1      24.297  -7.561  31.939 -0.23 -0.02    -0.248 N 
DOCKED: ATOM     28  N   UNL d   1      24.118  -7.107  34.802 -0.17 -0.08    -0.248 N 
DOCKED: ATOM     29 FE   UNL d   1      23.727  -6.038  33.129 -0.08 +0.00    +0.000 Fe
DOCKED: ATOM     30  O   UNL d   1      22.191  -5.787  33.122 -0.34 +0.00    +0.000 OA
DOCKED: ATOM     31  O   UNL d   1      22.741  -7.263  33.147 -0.26 +0.00    +0.000 OA
DOCKED: ENDROOT
DOCKED: BRANCH   6  32
DOCKED: ATOM     32  C   UNL d   1      22.377  -2.710  37.484 -0.17 +0.01    +0.052 C 
DOCKED: BRANCH  32  33
DOCKED: ATOM     33  C   UNL d   1      23.476  -1.816  38.049 -0.16 +0.01    +0.115 C 
DOCKED: BRANCH  33  34
DOCKED: ATOM     34  C   UNL d   1      22.953  -0.472  38.493 -0.17 +0.00    +0.139 C 
DOCKED: ATOM     35  O   UNL d   1      21.827  -0.386  38.957 +0.05 -0.04    -0.650 OA
DOCKED: BRANCH  34  36
DOCKED: ATOM     36  O   UNL d   1      23.693   0.648  38.363 +0.04 +0.05    -0.776 OA
DOCKED: ATOM     37  H   UNL d   1      23.977   0.976  37.501 -0.47 -0.05    +0.167 HD
DOCKED: ENDBRANCH  34  36
DOCKED: ENDBRANCH  33  34
DOCKED: ENDBRANCH  32  33
DOCKED: ENDBRANCH   6  32
DOCKED: BRANCH  22  38
DOCKED: ATOM     38  C   UNL d   1      24.422  -7.678  38.461 -0.11 +0.03    +0.052 C 
DOCKED: BRANCH  38  39
DOCKED: ATOM     39  C   UNL d   1      25.548  -6.822  39.038 -0.05 +0.11    +0.115 C 
DOCKED: BRANCH  39  40
DOCKED: ATOM     40  C   UNL d   1      26.242  -7.489  40.199 -0.04 +0.13    +0.139 C 
DOCKED: ATOM     41  O   UNL d   1      25.657  -7.619  41.262 +0.01 -0.32    -0.650 OA
DOCKED: BRANCH  40  42
DOCKED: ATOM     42  O   UNL d   1      27.484  -7.994  40.069 +0.03 -1.28    -0.776 OA
DOCKED: ATOM     43  H   UNL d   1      27.926  -8.443  40.800 +0.00 +0.18    +0.167 HD
DOCKED: ENDBRANCH  40  42
DOCKED: ENDBRANCH  39  40
DOCKED: ENDBRANCH  38  39
DOCKED: ENDBRANCH  22  38
DOCKED: BRANCH  12  44
DOCKED: ATOM     44  C   UNL d   1      23.436  -3.992  27.775 -0.52 +0.00    +0.004 C 
DOCKED: ATOM     45  C   UNL d   1      24.247  -3.168  27.112 -0.56 +0.00    +0.012 C 
DOCKED: ENDBRANCH  12  44
DOCKED: BRANCH  17  46
DOCKED: ATOM     46  C   UNL d   1      25.332 -11.085  31.397 -0.39 +0.00    +0.004 C 
DOCKED: ATOM     47  C   UNL d   1      26.051 -11.680  32.357 -0.39 +0.00    +0.012 C 
DOCKED: ENDBRANCH  17  46
DOCKED: TORSDOF 10
DOCKED: TER
DOCKED: ENDMDL
________________________________________________________________________________


	BEGINNING GENETIC ALGORITHM DOCKING 86 of 100
Run: 86 Seed: 2046091709 1031342729 [ Run 86 of 100 GA/GALS ]
Beginning LAMARCKIAN GENETIC ALGORITHM (LGA), with a maximum of 25000000 energy evaluations.

Final-Value: -16.996


	FINAL GENETIC ALGORITHM DOCKED STATE
	_______________________________________________


Detailed state:  trans 24.303 8.081 -6.754 quatxyzw 0.060236 -0.628869 0.038491 -0.774218 center 8.287 34.468 -0.670 ntor 10 54.6258 179.8014 58.4478 39.9609 -77.9346 177.8423 77.7831 74.0699 36.7635 128.6488
State:	 24.303   8.081  -6.754   0.095 -0.994  0.061 -78.532     54.63  179.80   58.45   39.96  -77.93  177.84   77.78   74.07   36.76  128.65

DOCKED: MODEL       86
DOCKED: USER    Run = 86
DOCKED: USER    DPF = D:/Protein_go_brrr/autodock/final/1A3N/heme_O2/dock.dpf
DOCKED: USER  
DOCKED: USER    Estimated Free Energy of Binding    =  -11.98 kcal/mol  [=(1)+(2)+(3)-(4)]
DOCKED: USER    Estimated Inhibition Constant, Ki   =    1.65 nM (nanomolar)  [Temperature = 298.15 K]
DOCKED: USER    
DOCKED: USER    (1) Final Intermolecular Energy     =  -14.97 kcal/mol
DOCKED: USER        vdW + Hbond + desolv Energy     =  -12.31 kcal/mol
DOCKED: USER        Electrostatic Energy            =   -2.65 kcal/mol
DOCKED: USER    (2) Final Total Internal Energy     =   -2.03 kcal/mol
DOCKED: USER    (3) Torsional Free Energy           =   +2.98 kcal/mol
DOCKED: USER    (4) Unbound System's Energy  [=(2)] =   -2.03 kcal/mol
DOCKED: USER    
DOCKED: USER    
DOCKED: USER    NEWDPF move heme_O2_opt.pdbqt
DOCKED: USER    NEWDPF about 8.287000 34.468000 -0.670000
DOCKED: USER    NEWDPF tran0 24.302641 8.081436 -6.753636
DOCKED: USER    NEWDPF quaternion0 0.060236 -0.628869 0.038491 -0.774218
DOCKED: USER    NEWDPF axisangle0 0.095172 -0.993601 0.060815 -78.531542
DOCKED: USER    NEWDPF quat0 0.095172 -0.993601 0.060815 -78.531542
DOCKED: USER    NEWDPF dihe0 54.63 179.80 58.45 39.96 -77.93 177.84 77.78 74.07 36.76 128.65 
DOCKED: USER  keepresnum = 1 
DOCKED: USER  
DOCKED: REMARK  10 active torsions:
DOCKED: REMARK  status: ('A' for Active; 'I' for Inactive)
DOCKED: REMARK    1  A    between atoms: C_6  and  C_10 
DOCKED: REMARK    2  A    between atoms: C_10  and  C_11 
DOCKED: REMARK    3  A    between atoms: C_11  and  C_12 
DOCKED: REMARK    4  A    between atoms: C_12  and  O_14 
DOCKED: REMARK    5  A    between atoms: C_17  and  C_20 
DOCKED: REMARK    6  A    between atoms: C_24  and  C_27 
DOCKED: REMARK    7  A    between atoms: C_31  and  C_34 
DOCKED: REMARK    8  A    between atoms: C_34  and  C_35 
DOCKED: REMARK    9  A    between atoms: C_35  and  C_36 
DOCKED: REMARK   10  A    between atoms: C_36  and  O_38 
DOCKED: USER                              x       y       z     vdW  Elec       q    Type
DOCKED: USER                           _______ _______ _______ _____ _____    ______ ____
DOCKED: ROOT
DOCKED: ATOM      1  C   UNL d   1      24.611   8.821  -8.718 -0.21 +0.06    +0.064 A 
DOCKED: ATOM      2  C   UNL d   1      21.630   5.578  -6.942 -0.20 +0.01    +0.064 A 
DOCKED: ATOM      3  C   UNL d   1      23.440   6.192  -2.533 -0.39 +0.01    +0.064 C 
DOCKED: ATOM      4  C   UNL d   1      26.184   9.874  -4.262 -0.41 +0.01    +0.064 A 
DOCKED: ATOM      5  C   UNL d   1      23.651   7.890  -8.594 -0.22 +0.04    +0.066 A 
DOCKED: ATOM      6  C   UNL d   1      22.890   7.404  -9.661 -0.17 -0.01    -0.021 A 
DOCKED: ATOM      7  C   UNL d   1      21.997   6.496  -9.142 -0.19 -0.01    -0.025 A 
DOCKED: ATOM      8  C   UNL d   1      22.270   6.417  -7.779 -0.24 +0.02    +0.066 A 
DOCKED: ATOM      9  C   UNL d   1      20.928   5.781  -9.938 -0.17 +0.02    +0.051 C 
DOCKED: ATOM     10  C   UNL d   1      21.887   5.434  -5.509 -0.28 +0.01    +0.066 A 
DOCKED: ATOM     11  C   UNL d   1      21.310   4.433  -4.720 -0.41 -0.00    -0.021 A 
DOCKED: ATOM     12  C   UNL d   1      21.833   4.582  -3.449 -0.42 +0.00    +0.000 A 
DOCKED: ATOM     13  C   UNL d   1      22.711   5.698  -3.534 -0.33 +0.01    +0.070 A 
DOCKED: ATOM     14  C   UNL d   1      20.321   3.362  -5.166 -0.51 +0.01    +0.052 C 
DOCKED: ATOM     15  C   UNL d   1      24.313   7.341  -2.569 -0.32 +0.00    +0.066 A 
DOCKED: ATOM     16  C   UNL d   1      24.922   7.907  -1.450 -0.35 -0.00    -0.021 A 
DOCKED: ATOM     17  C   UNL d   1      25.709   8.959  -1.918 -0.41 +0.00    +0.000 A 
DOCKED: ATOM     18  C   UNL d   1      25.520   8.955  -3.307 -0.39 +0.01    +0.070 A 
DOCKED: ATOM     19  C   UNL d   1      24.658   7.433  -0.042 -0.39 +0.00    +0.052 C 
DOCKED: ATOM     20  C   UNL d   1      25.993   9.925  -5.594 -0.35 +0.02    +0.066 A 
DOCKED: ATOM     21  C   UNL d   1      26.660  10.802  -6.445 -0.33 -0.01    -0.025 A 
DOCKED: ATOM     22  C   UNL d   1      26.245  10.497  -7.722 -0.17 -0.01    -0.021 A 
DOCKED: ATOM     23  C   UNL d   1      25.322   9.454  -7.601 -0.27 +0.04    +0.066 A 
DOCKED: ATOM     24  C   UNL d   1      27.642  11.877  -6.059 -0.38 +0.01    +0.051 C 
DOCKED: ATOM     25  N   UNL d   1      23.245   7.324  -7.431 -0.17 -0.10    -0.248 N 
DOCKED: ATOM     26  N   UNL d   1      22.734   6.213  -4.789 -0.19 -0.04    -0.248 N 
DOCKED: ATOM     27  N   UNL d   1      24.613   8.015  -3.676 -0.24 -0.03    -0.248 N 
DOCKED: ATOM     28  N   UNL d   1      25.138   9.140  -6.302 -0.21 -0.09    -0.248 N 
DOCKED: ATOM     29 FE   UNL d   1      23.946   7.688  -5.548 -0.07 +0.00    +0.000 Fe
DOCKED: ATOM     30  O   UNL d   1      22.482   8.165  -5.777 -0.38 +0.00    +0.000 OA
DOCKED: ATOM     31  O   UNL d   1      23.470   9.055  -4.933 -0.41 +0.00    +0.000 OA
DOCKED: ENDROOT
DOCKED: BRANCH   6  32
DOCKED: ATOM     32  C   UNL d   1      22.904   7.872 -11.094 -0.12 +0.04    +0.052 C 
DOCKED: BRANCH  32  33
DOCKED: ATOM     33  C   UNL d   1      23.275   6.764 -12.075 -0.07 +0.08    +0.115 C 
DOCKED: BRANCH  33  34
DOCKED: ATOM     34  C   UNL d   1      24.687   6.900 -12.589 +0.12 +0.19    +0.139 C 
DOCKED: ATOM     35  O   UNL d   1      25.430   5.931 -12.575 -0.23 -1.04    -0.650 OA
DOCKED: BRANCH  34  36
DOCKED: ATOM     36  O   UNL d   1      25.161   8.080 -13.040 +0.06 -1.14    -0.776 OA
DOCKED: ATOM     37  H   UNL d   1      25.136   8.879 -12.502 +0.01 +0.28    +0.167 HD
DOCKED: ENDBRANCH  34  36
DOCKED: ENDBRANCH  33  34
DOCKED: ENDBRANCH  32  33
DOCKED: ENDBRANCH   6  32
DOCKED: BRANCH  22  38
DOCKED: ATOM     38  C   UNL d   1      26.667  11.216  -8.977 -0.04 +0.03    +0.052 C 
DOCKED: BRANCH  38  39
DOCKED: ATOM     39  C   UNL d   1      25.476  11.633  -9.837 -0.14 +0.06    +0.115 C 
DOCKED: BRANCH  39  40
DOCKED: ATOM     40  C   UNL d   1      25.341  10.792 -11.082 -0.10 +0.12    +0.139 C 
DOCKED: ATOM     41  O   UNL d   1      26.342  10.427 -11.678 -0.54 -0.83    -0.650 OA
DOCKED: BRANCH  40  42
DOCKED: ATOM     42  O   UNL d   1      24.133  10.391 -11.523 -0.01 -0.54    -0.776 OA
DOCKED: ATOM     43  H   UNL d   1      24.042   9.822 -12.297 +0.02 +0.12    +0.167 HD
DOCKED: ENDBRANCH  40  42
DOCKED: ENDBRANCH  39  40
DOCKED: ENDBRANCH  38  39
DOCKED: ENDBRANCH  22  38
DOCKED: BRANCH  12  44
DOCKED: ATOM     44  C   UNL d   1      21.446   3.665  -2.307 -0.46 +0.00    +0.004 C 
DOCKED: ATOM     45  C   UNL d   1      20.971   4.004  -1.110 -0.48 +0.00    +0.012 C 
DOCKED: ENDBRANCH  12  44
DOCKED: BRANCH  17  46
DOCKED: ATOM     46  C   UNL d   1      26.548   9.969  -1.182 -0.53 +0.00    +0.004 C 
DOCKED: ATOM     47  C   UNL d   1      27.234   9.804  -0.044 -0.60 +0.00    +0.012 C 
DOCKED: ENDBRANCH  17  46
DOCKED: TORSDOF 10
DOCKED: TER
DOCKED: ENDMDL
________________________________________________________________________________


	BEGINNING GENETIC ALGORITHM DOCKING 87 of 100
Run: 87 Seed: 76149938 1416607702 [ Run 87 of 100 GA/GALS ]
Beginning LAMARCKIAN GENETIC ALGORITHM (LGA), with a maximum of 25000000 energy evaluations.

Final-Value: -19.175


	FINAL GENETIC ALGORITHM DOCKED STATE
	_______________________________________________


Detailed state:  trans 22.833 6.512 -3.554 quatxyzw 0.508836 -0.142664 0.805208 0.269022 center 8.287 34.468 -0.670 ntor 10 132.2255 -15.5300 30.4575 15.2552 -179.6005 159.8102 -78.6595 -72.5161 179.7739 154.4011
State:	 22.833   6.512  -3.554   0.528 -0.148  0.836 148.788    132.23  -15.53   30.46   15.26 -179.60  159.81  -78.66  -72.52  179.77  154.40

DOCKED: MODEL       87
DOCKED: USER    Run = 87
DOCKED: USER    DPF = D:/Protein_go_brrr/autodock/final/1A3N/heme_O2/dock.dpf
DOCKED: USER  
DOCKED: USER    Estimated Free Energy of Binding    =  -15.54 kcal/mol  [=(1)+(2)+(3)-(4)]
DOCKED: USER    Estimated Inhibition Constant, Ki   =    4.08 pM (picomolar)  [Temperature = 298.15 K]
DOCKED: USER    
DOCKED: USER    (1) Final Intermolecular Energy     =  -18.52 kcal/mol
DOCKED: USER        vdW + Hbond + desolv Energy     =  -16.83 kcal/mol
DOCKED: USER        Electrostatic Energy            =   -1.69 kcal/mol
DOCKED: USER    (2) Final Total Internal Energy     =   -0.65 kcal/mol
DOCKED: USER    (3) Torsional Free Energy           =   +2.98 kcal/mol
DOCKED: USER    (4) Unbound System's Energy  [=(2)] =   -0.65 kcal/mol
DOCKED: USER    
DOCKED: USER    
DOCKED: USER    NEWDPF move heme_O2_opt.pdbqt
DOCKED: USER    NEWDPF about 8.287000 34.468000 -0.670000
DOCKED: USER    NEWDPF tran0 22.832815 6.512089 -3.554367
DOCKED: USER    NEWDPF quaternion0 0.508836 -0.142664 0.805208 0.269022
DOCKED: USER    NEWDPF axisangle0 0.528313 -0.148125 0.836029 148.787849
DOCKED: USER    NEWDPF quat0 0.528313 -0.148125 0.836029 148.787849
DOCKED: USER    NEWDPF dihe0 132.23 -15.53 30.46 15.26 -179.60 159.81 -78.66 -72.52 179.77 154.40 
DOCKED: USER  keepresnum = 1 
DOCKED: USER  
DOCKED: REMARK  10 active torsions:
DOCKED: REMARK  status: ('A' for Active; 'I' for Inactive)
DOCKED: REMARK    1  A    between atoms: C_6  and  C_10 
DOCKED: REMARK    2  A    between atoms: C_10  and  C_11 
DOCKED: REMARK    3  A    between atoms: C_11  and  C_12 
DOCKED: REMARK    4  A    between atoms: C_12  and  O_14 
DOCKED: REMARK    5  A    between atoms: C_17  and  C_20 
DOCKED: REMARK    6  A    between atoms: C_24  and  C_27 
DOCKED: REMARK    7  A    between atoms: C_31  and  C_34 
DOCKED: REMARK    8  A    between atoms: C_34  and  C_35 
DOCKED: REMARK    9  A    between atoms: C_35  and  C_36 
DOCKED: REMARK   10  A    between atoms: C_36  and  O_38 
DOCKED: USER                              x       y       z     vdW  Elec       q    Type
DOCKED: USER                           _______ _______ _______ _____ _____    ______ ____
DOCKED: ROOT
DOCKED: ATOM      1  C   UNL d   1      22.920   7.068  -5.599 -0.23 +0.01    +0.064 A 
DOCKED: ATOM      2  C   UNL d   1      25.060   8.773  -1.717 -0.38 +0.00    +0.064 A 
DOCKED: ATOM      3  C   UNL d   1      22.791   5.569   1.054 -0.33 +0.00    +0.064 C 
DOCKED: ATOM      4  C   UNL d   1      20.948   3.496  -2.993 -0.34 +0.01    +0.064 A 
DOCKED: ATOM      5  C   UNL d   1      23.689   7.792  -4.770 -0.29 +0.01    +0.066 A 
DOCKED: ATOM      6  C   UNL d   1      24.498   8.855  -5.180 -0.37 -0.00    -0.021 A 
DOCKED: ATOM      7  C   UNL d   1      25.152   9.322  -4.064 -0.39 -0.00    -0.025 A 
DOCKED: ATOM      8  C   UNL d   1      24.687   8.562  -2.994 -0.36 +0.01    +0.066 A 
DOCKED: ATOM      9  C   UNL d   1      26.188  10.424  -4.065 -0.32 +0.01    +0.051 C 
DOCKED: ATOM     10  C   UNL d   1      24.590   8.024  -0.551 -0.35 +0.00    +0.066 A 
DOCKED: ATOM     11  C   UNL d   1      24.883   8.390   0.768 -0.36 -0.00    -0.021 A 
DOCKED: ATOM     12  C   UNL d   1      24.223   7.488   1.582 -0.39 +0.00    +0.000 A 
DOCKED: ATOM     13  C   UNL d   1      23.559   6.597   0.694 -0.27 +0.00    +0.070 A 
DOCKED: ATOM     14  C   UNL d   1      25.735   9.565   1.231 -0.33 +0.00    +0.052 C 
DOCKED: ATOM     15  C   UNL d   1      22.131   4.623   0.187 -0.38 +0.00    +0.066 A 
DOCKED: ATOM     16  C   UNL d   1      21.476   3.472   0.625 -0.51 -0.00    -0.021 A 
DOCKED: ATOM     17  C   UNL d   1      20.943   2.864  -0.512 -0.49 +0.00    +0.000 A 
DOCKED: ATOM     18  C   UNL d   1      21.316   3.702  -1.572 -0.37 +0.01    +0.070 A 
DOCKED: ATOM     19  C   UNL d   1      21.464   3.031   2.067 -0.44 -0.00    +0.052 C 
DOCKED: ATOM     20  C   UNL d   1      21.325   4.256  -4.040 -0.36 +0.01    +0.066 A 
DOCKED: ATOM     21  C   UNL d   1      20.932   4.023  -5.355 -0.43 -0.00    -0.025 A 
DOCKED: ATOM     22  C   UNL d   1      21.462   5.046  -6.108 -0.33 -0.00    -0.021 A 
DOCKED: ATOM     23  C   UNL d   1      22.177   5.860  -5.223 -0.32 +0.01    +0.066 A 
DOCKED: ATOM     24  C   UNL d   1      20.096   2.879  -5.868 -0.52 +0.00    +0.051 C 
DOCKED: ATOM     25  N   UNL d   1      23.835   7.577  -3.439 -0.18 -0.01    -0.248 N 
DOCKED: ATOM     26  N   UNL d   1      23.792   6.928  -0.602 -0.22 -0.01    -0.248 N 
DOCKED: ATOM     27  N   UNL d   1      22.099   4.723  -1.139 -0.20 -0.02    -0.248 N 
DOCKED: ATOM     28  N   UNL d   1      22.129   5.351  -3.975 -0.25 -0.03    -0.248 N 
DOCKED: ATOM     29 FE   UNL d   1      22.953   6.131  -2.299 -0.07 +0.00    +0.000 Fe
DOCKED: ATOM     30  O   UNL d   1      24.492   5.959  -2.451 -0.45 +0.00    +0.000 OA
DOCKED: ATOM     31  O   UNL d   1      23.557   4.692  -2.496 -0.80 +0.00    +0.000 OA
DOCKED: ENDROOT
DOCKED: BRANCH   6  32
DOCKED: ATOM     32  C   UNL d   1      24.757   9.329  -6.587 -0.34 +0.02    +0.052 C 
DOCKED: BRANCH  32  33
DOCKED: ATOM     33  C   UNL d   1      26.041   8.756  -7.179 -0.28 +0.07    +0.115 C 
DOCKED: BRANCH  33  34
DOCKED: ATOM     34  C   UNL d   1      25.782   7.575  -8.082 -0.06 +0.16    +0.139 C 
DOCKED: ATOM     35  O   UNL d   1      24.727   7.502  -8.691 -0.48 -0.76    -0.650 OA
DOCKED: BRANCH  34  36
DOCKED: ATOM     36  O   UNL d   1      26.681   6.578  -8.211 +0.00 -0.95    -0.776 OA
DOCKED: ATOM     37  H   UNL d   1      26.426   5.650  -8.156 -0.46 +0.09    +0.167 HD
DOCKED: ENDBRANCH  34  36
DOCKED: ENDBRANCH  33  34
DOCKED: ENDBRANCH  32  33
DOCKED: ENDBRANCH   6  32
DOCKED: BRANCH  22  38
DOCKED: ATOM     38  C   UNL d   1      21.339   5.192  -7.602 -0.21 +0.01    +0.052 C 
DOCKED: BRANCH  38  39
DOCKED: ATOM     39  C   UNL d   1      22.623   4.806  -8.333 -0.31 +0.04    +0.115 C 
DOCKED: BRANCH  39  40
DOCKED: ATOM     40  C   UNL d   1      22.507   3.479  -9.040 -0.32 +0.05    +0.139 C 
DOCKED: ATOM     41  O   UNL d   1      22.183   2.484  -8.412 -0.24 -0.16    -0.650 OA
DOCKED: BRANCH  40  42
DOCKED: ATOM     42  O   UNL d   1      22.706   3.378 -10.368 -0.40 -0.33    -0.776 OA
DOCKED: ATOM     43  H   UNL d   1      22.747   4.160 -10.933 +0.06 +0.07    +0.167 HD
DOCKED: ENDBRANCH  40  42
DOCKED: ENDBRANCH  39  40
DOCKED: ENDBRANCH  38  39
DOCKED: ENDBRANCH  22  38
DOCKED: BRANCH  12  44
DOCKED: ATOM     44  C   UNL d   1      24.295   7.567   3.092 -0.60 -0.00    +0.004 C 
DOCKED: ATOM     45  C   UNL d   1      24.145   6.577   3.972 -0.73 -0.00    +0.012 C 
DOCKED: ENDBRANCH  12  44
DOCKED: BRANCH  17  46
DOCKED: ATOM     46  C   UNL d   1      20.188   1.573  -0.680 -0.69 +0.00    +0.004 C 
DOCKED: ATOM     47  C   UNL d   1      19.709   0.763   0.273 -0.70 -0.00    +0.012 C 
DOCKED: ENDBRANCH  17  46
DOCKED: TORSDOF 10
DOCKED: TER
DOCKED: ENDMDL
________________________________________________________________________________


	BEGINNING GENETIC ALGORITHM DOCKING 88 of 100
Run: 88 Seed: 278257912 2009812401 [ Run 88 of 100 GA/GALS ]
Beginning LAMARCKIAN GENETIC ALGORITHM (LGA), with a maximum of 25000000 energy evaluations.

Final-Value: -15.446


	FINAL GENETIC ALGORITHM DOCKED STATE
	_______________________________________________


Detailed state:  trans 0.958 -8.020 -5.970 quatxyzw 0.694870 0.111117 0.710159 0.021986 center 8.287 34.468 -0.670 ntor 10 78.5423 -167.7320 46.9258 -8.0981 -109.6249 -37.1147 118.9885 -57.4758 41.6042 -2.7789
State:	  0.958  -8.020  -5.970   0.695  0.111  0.710 177.480     78.54 -167.73   46.93   -8.10 -109.62  -37.11  118.99  -57.48   41.60   -2.78

DOCKED: MODEL       88
DOCKED: USER    Run = 88
DOCKED: USER    DPF = D:/Protein_go_brrr/autodock/final/1A3N/heme_O2/dock.dpf
DOCKED: USER  
DOCKED: USER    Estimated Free Energy of Binding    =  -10.86 kcal/mol  [=(1)+(2)+(3)-(4)]
DOCKED: USER    Estimated Inhibition Constant, Ki   =   10.89 nM (nanomolar)  [Temperature = 298.15 K]
DOCKED: USER    
DOCKED: USER    (1) Final Intermolecular Energy     =  -13.85 kcal/mol
DOCKED: USER        vdW + Hbond + desolv Energy     =  -11.79 kcal/mol
DOCKED: USER        Electrostatic Energy            =   -2.06 kcal/mol
DOCKED: USER    (2) Final Total Internal Energy     =   -1.60 kcal/mol
DOCKED: USER    (3) Torsional Free Energy           =   +2.98 kcal/mol
DOCKED: USER    (4) Unbound System's Energy  [=(2)] =   -1.60 kcal/mol
DOCKED: USER    
DOCKED: USER    
DOCKED: USER    NEWDPF move heme_O2_opt.pdbqt
DOCKED: USER    NEWDPF about 8.287000 34.468000 -0.670000
DOCKED: USER    NEWDPF tran0 0.957652 -8.019595 -5.970000
DOCKED: USER    NEWDPF quaternion0 0.694870 0.111117 0.710159 0.021986
DOCKED: USER    NEWDPF axisangle0 0.695038 0.111144 0.710330 177.480420
DOCKED: USER    NEWDPF quat0 0.695038 0.111144 0.710330 177.480420
DOCKED: USER    NEWDPF dihe0 78.54 -167.73 46.93 -8.10 -109.62 -37.11 118.99 -57.48 41.60 -2.78 
DOCKED: USER  keepresnum = 1 
DOCKED: USER  
DOCKED: REMARK  10 active torsions:
DOCKED: REMARK  status: ('A' for Active; 'I' for Inactive)
DOCKED: REMARK    1  A    between atoms: C_6  and  C_10 
DOCKED: REMARK    2  A    between atoms: C_10  and  C_11 
DOCKED: REMARK    3  A    between atoms: C_11  and  C_12 
DOCKED: REMARK    4  A    between atoms: C_12  and  O_14 
DOCKED: REMARK    5  A    between atoms: C_17  and  C_20 
DOCKED: REMARK    6  A    between atoms: C_24  and  C_27 
DOCKED: REMARK    7  A    between atoms: C_31  and  C_34 
DOCKED: REMARK    8  A    between atoms: C_34  and  C_35 
DOCKED: REMARK    9  A    between atoms: C_35  and  C_36 
DOCKED: REMARK   10  A    between atoms: C_36  and  O_38 
DOCKED: USER                              x       y       z     vdW  Elec       q    Type
DOCKED: USER                           _______ _______ _______ _____ _____    ______ ____
DOCKED: ROOT
DOCKED: ATOM      1  C   UNL d   1       0.346  -8.987  -7.756 -0.19 +0.03    +0.064 A 
DOCKED: ATOM      2  C   UNL d   1       3.441  -5.487  -6.902 -0.28 +0.01    +0.064 A 
DOCKED: ATOM      3  C   UNL d   1       2.454  -5.637  -2.201 -0.37 +0.00    +0.064 C 
DOCKED: ATOM      4  C   UNL d   1      -0.379  -9.561  -3.003 -0.41 +0.00    +0.064 A 
DOCKED: ATOM      5  C   UNL d   1       1.270  -8.024  -7.907 -0.21 +0.03    +0.066 A 
DOCKED: ATOM      6  C   UNL d   1       1.811  -7.645  -9.139 -0.17 -0.01    -0.021 A 
DOCKED: ATOM      7  C   UNL d   1       2.739  -6.661  -8.888 -0.20 -0.01    -0.025 A 
DOCKED: ATOM      8  C   UNL d   1       2.704  -6.433  -7.515 -0.23 +0.02    +0.066 A 
DOCKED: ATOM      9  C   UNL d   1       3.620  -6.015  -9.935 -0.14 +0.01    +0.051 C 
DOCKED: ATOM     10  C   UNL d   1       3.430  -5.186  -5.470 -0.31 +0.01    +0.066 A 
DOCKED: ATOM     11  C   UNL d   1       4.091  -4.087  -4.909 -0.45 -0.00    -0.021 A 
DOCKED: ATOM     12  C   UNL d   1       3.804  -4.103  -3.557 -0.44 +0.00    +0.000 A 
DOCKED: ATOM     13  C   UNL d   1       2.976  -5.243  -3.362 -0.28 +0.01    +0.070 A 
DOCKED: ATOM     14  C   UNL d   1       4.938  -3.050  -5.638 -0.53 +0.00    +0.052 C 
DOCKED: ATOM     15  C   UNL d   1       1.641  -6.804  -1.956 -0.30 +0.00    +0.066 A 
DOCKED: ATOM     16  C   UNL d   1       1.263  -7.252  -0.691 -0.33 -0.00    -0.021 A 
DOCKED: ATOM     17  C   UNL d   1       0.455  -8.371  -0.895 -0.46 +0.00    +0.000 A 
DOCKED: ATOM     18  C   UNL d   1       0.399  -8.522  -2.288 -0.39 +0.00    +0.070 A 
DOCKED: ATOM     19  C   UNL d   1       1.746  -6.614   0.587 -0.43 +0.00    +0.052 C 
DOCKED: ATOM     20  C   UNL d   1      -0.420  -9.760  -4.335 -0.32 +0.01    +0.066 A 
DOCKED: ATOM     21  C   UNL d   1      -1.185 -10.745  -4.953 -0.24 -0.00    -0.025 A 
DOCKED: ATOM     22  C   UNL d   1      -1.012 -10.579  -6.309 -0.16 -0.00    -0.021 A 
DOCKED: ATOM     23  C   UNL d   1      -0.130  -9.506  -6.468 -0.21 +0.02    +0.066 A 
DOCKED: ATOM     24  C   UNL d   1      -2.035 -11.794  -4.284 -0.28 -0.00    +0.051 C 
DOCKED: ATOM     25  N   UNL d   1       1.846  -7.318  -6.903 -0.14 -0.09    -0.248 N 
DOCKED: ATOM     26  N   UNL d   1       2.758  -5.899  -4.530 -0.16 -0.05    -0.248 N 
DOCKED: ATOM     27  N   UNL d   1       1.185  -7.608  -2.912 -0.23 -0.02    -0.248 N 
DOCKED: ATOM     28  N   UNL d   1       0.263  -9.040  -5.265 -0.19 -0.06    -0.248 N 
DOCKED: ATOM     29 FE   UNL d   1       1.501  -7.481  -4.897 -0.07 +0.00    +0.000 Fe
DOCKED: ATOM     30  O   UNL d   1       2.923  -7.944  -5.330 -0.38 +0.00    +0.000 OA
DOCKED: ATOM     31  O   UNL d   1       2.137  -8.756  -4.232 -0.12 +0.00    +0.000 OA
DOCKED: ENDROOT
DOCKED: BRANCH   6  32
DOCKED: ATOM     32  C   UNL d   1       1.569  -8.274 -10.486 -0.09 +0.02    +0.052 C 
DOCKED: BRANCH  32  33
DOCKED: ATOM     33  C   UNL d   1       1.095  -7.270 -11.533 -0.06 +0.05    +0.115 C 
DOCKED: BRANCH  33  34
DOCKED: ATOM     34  C   UNL d   1      -0.239  -6.660 -11.181 -0.00 +0.15    +0.139 C 
DOCKED: ATOM     35  O   UNL d   1      -0.279  -5.552 -10.669 -0.38 -1.06    -0.650 OA
DOCKED: BRANCH  34  36
DOCKED: ATOM     36  O   UNL d   1      -1.394  -7.323 -11.393 -0.06 -0.91    -0.776 OA
DOCKED: ATOM     37  H   UNL d   1      -1.702  -8.016 -10.798 +0.02 +0.20    +0.167 HD
DOCKED: ENDBRANCH  34  36
DOCKED: ENDBRANCH  33  34
DOCKED: ENDBRANCH  32  33
DOCKED: ENDBRANCH   6  32
DOCKED: BRANCH  22  38
DOCKED: ATOM     38  C   UNL d   1      -1.613 -11.448  -7.384 -0.13 +0.01    +0.052 C 
DOCKED: BRANCH  38  39
DOCKED: ATOM     39  C   UNL d   1      -2.865 -10.828  -8.001 -0.10 +0.04    +0.115 C 
DOCKED: BRANCH  39  40
DOCKED: ATOM     40  C   UNL d   1      -2.732 -10.622  -9.490 -0.09 +0.06    +0.139 C 
DOCKED: ATOM     41  O   UNL d   1      -3.351 -11.341 -10.258 +0.00 -0.17    -0.650 OA
DOCKED: BRANCH  40  42
DOCKED: ATOM     42  O   UNL d   1      -1.981  -9.623  -9.990 +0.00 -0.48    -0.776 OA
DOCKED: ATOM     43  H   UNL d   1      -2.055  -9.348 -10.912 +0.01 +0.10    +0.167 HD
DOCKED: ENDBRANCH  40  42
DOCKED: ENDBRANCH  39  40
DOCKED: ENDBRANCH  38  39
DOCKED: ENDBRANCH  22  38
DOCKED: BRANCH  12  44
DOCKED: ATOM     44  C   UNL d   1       4.341  -3.051  -2.609 -0.52 +0.00    +0.004 C 
DOCKED: ATOM     45  C   UNL d   1       4.845  -3.230  -1.388 -0.55 +0.00    +0.012 C 
DOCKED: ENDBRANCH  12  44
DOCKED: BRANCH  17  46
DOCKED: ATOM     46  C   UNL d   1      -0.197  -9.311   0.084 -0.57 -0.00    +0.004 C 
DOCKED: ATOM     47  C   UNL d   1       0.059  -9.454   1.391 -0.67 -0.00    +0.012 C 
DOCKED: ENDBRANCH  17  46
DOCKED: TORSDOF 10
DOCKED: TER
DOCKED: ENDMDL
________________________________________________________________________________


	BEGINNING GENETIC ALGORITHM DOCKING 89 of 100
Run: 89 Seed: 843769795 127519165 [ Run 89 of 100 GA/GALS ]
Beginning LAMARCKIAN GENETIC ALGORITHM (LGA), with a maximum of 25000000 energy evaluations.

Final-Value: -17.927


	FINAL GENETIC ALGORITHM DOCKED STATE
	_______________________________________________


Detailed state:  trans 3.016 -6.214 -4.576 quatxyzw 0.151510 0.501600 -0.285469 0.802465 center 8.287 34.468 -0.670 ntor 10 -143.4484 16.5253 0.1806 -54.0766 -9.3119 111.4129 -56.6173 25.1680 -169.2004 -179.9863
State:	  3.016  -6.214  -4.576   0.254  0.841 -0.478 73.268   -143.45   16.53    0.18  -54.08   -9.31  111.41  -56.62   25.17 -169.20 -179.99

DOCKED: MODEL       89
DOCKED: USER    Run = 89
DOCKED: USER    DPF = D:/Protein_go_brrr/autodock/final/1A3N/heme_O2/dock.dpf
DOCKED: USER  
DOCKED: USER    Estimated Free Energy of Binding    =  -12.97 kcal/mol  [=(1)+(2)+(3)-(4)]
DOCKED: USER    Estimated Inhibition Constant, Ki   =  313.45 pM (picomolar)  [Temperature = 298.15 K]
DOCKED: USER    
DOCKED: USER    (1) Final Intermolecular Energy     =  -15.95 kcal/mol
DOCKED: USER        vdW + Hbond + desolv Energy     =  -14.51 kcal/mol
DOCKED: USER        Electrostatic Energy            =   -1.44 kcal/mol
DOCKED: USER    (2) Final Total Internal Energy     =   -1.98 kcal/mol
DOCKED: USER    (3) Torsional Free Energy           =   +2.98 kcal/mol
DOCKED: USER    (4) Unbound System's Energy  [=(2)] =   -1.98 kcal/mol
DOCKED: USER    
DOCKED: USER    
DOCKED: USER    NEWDPF move heme_O2_opt.pdbqt
DOCKED: USER    NEWDPF about 8.287000 34.468000 -0.670000
DOCKED: USER    NEWDPF tran0 3.016477 -6.213938 -4.575847
DOCKED: USER    NEWDPF quaternion0 0.151510 0.501600 -0.285469 0.802465
DOCKED: USER    NEWDPF axisangle0 0.253913 0.840624 -0.478413 73.267783
DOCKED: USER    NEWDPF quat0 0.253913 0.840624 -0.478413 73.267783
DOCKED: USER    NEWDPF dihe0 -143.45 16.53 0.18 -54.08 -9.31 111.41 -56.62 25.17 -169.20 -179.99 
DOCKED: USER  keepresnum = 1 
DOCKED: USER  
DOCKED: REMARK  10 active torsions:
DOCKED: REMARK  status: ('A' for Active; 'I' for Inactive)
DOCKED: REMARK    1  A    between atoms: C_6  and  C_10 
DOCKED: REMARK    2  A    between atoms: C_10  and  C_11 
DOCKED: REMARK    3  A    between atoms: C_11  and  C_12 
DOCKED: REMARK    4  A    between atoms: C_12  and  O_14 
DOCKED: REMARK    5  A    between atoms: C_17  and  C_20 
DOCKED: REMARK    6  A    between atoms: C_24  and  C_27 
DOCKED: REMARK    7  A    between atoms: C_31  and  C_34 
DOCKED: REMARK    8  A    between atoms: C_34  and  C_35 
DOCKED: REMARK    9  A    between atoms: C_35  and  C_36 
DOCKED: REMARK   10  A    between atoms: C_36  and  O_38 
DOCKED: USER                              x       y       z     vdW  Elec       q    Type
DOCKED: USER                           _______ _______ _______ _____ _____    ______ ____
DOCKED: ROOT
DOCKED: ATOM      1  C   UNL d   1       2.921  -6.844  -6.599 -0.22 +0.01    +0.064 A 
DOCKED: ATOM      2  C   UNL d   1       0.843  -8.445  -2.639 -0.36 +0.00    +0.064 A 
DOCKED: ATOM      3  C   UNL d   1       3.082  -5.106  -0.005 -0.34 +0.00    +0.064 C 
DOCKED: ATOM      4  C   UNL d   1       4.854  -3.149  -4.139 -0.45 +0.01    +0.064 A 
DOCKED: ATOM      5  C   UNL d   1       2.172  -7.551  -5.737 -0.31 +0.01    +0.066 A 
DOCKED: ATOM      6  C   UNL d   1       1.377  -8.641  -6.102 -0.30 -0.01    -0.021 A 
DOCKED: ATOM      7  C   UNL d   1       0.742  -9.078  -4.964 -0.33 -0.00    -0.025 A 
DOCKED: ATOM      8  C   UNL d   1       1.203  -8.273  -3.926 -0.30 +0.01    +0.066 A 
DOCKED: ATOM      9  C   UNL d   1      -0.276 -10.197  -4.916 -0.31 +0.01    +0.051 C 
DOCKED: ATOM     10  C   UNL d   1       1.311  -7.647  -1.505 -0.33 +0.00    +0.066 A 
DOCKED: ATOM     11  C   UNL d   1       1.035  -7.970  -0.171 -0.43 -0.00    -0.021 A 
DOCKED: ATOM     12  C   UNL d   1       1.687  -7.029   0.604 -0.43 +0.00    +0.000 A 
DOCKED: ATOM     13  C   UNL d   1       2.328  -6.159  -0.321 -0.38 +0.00    +0.070 A 
DOCKED: ATOM     14  C   UNL d   1       0.208  -9.143   0.342 -0.56 -0.00    +0.052 C 
DOCKED: ATOM     15  C   UNL d   1       3.718  -4.181  -0.911 -0.37 +0.00    +0.066 A 
DOCKED: ATOM     16  C   UNL d   1       4.357  -3.004  -0.520 -0.48 -0.00    -0.021 A 
DOCKED: ATOM     17  C   UNL d   1       4.869  -2.429  -1.683 -0.50 +0.00    +0.000 A 
DOCKED: ATOM     18  C   UNL d   1       4.502  -3.310  -2.709 -0.41 +0.01    +0.070 A 
DOCKED: ATOM     19  C   UNL d   1       4.373  -2.512   0.905 -0.48 +0.00    +0.052 C 
DOCKED: ATOM     20  C   UNL d   1       4.481  -3.952  -5.155 -0.43 +0.01    +0.066 A 
DOCKED: ATOM     21  C   UNL d   1       4.859  -3.759  -6.481 -0.45 -0.00    -0.025 A 
DOCKED: ATOM     22  C   UNL d   1       4.340  -4.817  -7.192 -0.33 -0.00    -0.021 A 
DOCKED: ATOM     23  C   UNL d   1       3.647  -5.611  -6.273 -0.26 +0.01    +0.066 A 
DOCKED: ATOM     24  C   UNL d   1       5.671  -2.620  -7.042 -0.11 +0.00    +0.051 C 
DOCKED: ATOM     25  N   UNL d   1       2.033  -7.291  -4.414 -0.20 -0.03    -0.248 N 
DOCKED: ATOM     26  N   UNL d   1       2.090  -6.540  -1.602 -0.21 +0.00    -0.248 N 
DOCKED: ATOM     27  N   UNL d   1       3.740  -4.328  -2.233 -0.23 -0.01    -0.248 N 
DOCKED: ATOM     28  N   UNL d   1       3.697  -5.057  -5.044 -0.26 -0.04    -0.248 N 
DOCKED: ATOM     29 FE   UNL d   1       2.901  -5.790  -3.334 -0.08 +0.00    +0.000 Fe
DOCKED: ATOM     30  O   UNL d   1       1.357  -5.650  -3.478 -0.21 +0.00    +0.000 OA
DOCKED: ATOM     31  O   UNL d   1       2.270  -4.370  -3.577 -0.91 +0.00    +0.000 OA
DOCKED: ENDROOT
DOCKED: BRANCH   6  32
DOCKED: ATOM     32  C   UNL d   1       1.115  -9.169  -7.489 -0.24 +0.02    +0.052 C 
DOCKED: BRANCH  32  33
DOCKED: ATOM     33  C   UNL d   1      -0.028  -8.444  -8.193 -0.09 +0.08    +0.115 C 
DOCKED: BRANCH  33  34
DOCKED: ATOM     34  C   UNL d   1       0.408  -7.800  -9.486 -0.16 +0.12    +0.139 C 
DOCKED: ATOM     35  O   UNL d   1      -0.265  -6.905  -9.971 -0.48 -1.14    -0.650 OA
DOCKED: BRANCH  34  36
DOCKED: ATOM     36  O   UNL d   1       1.516  -8.212 -10.137 +0.04 -0.32    -0.776 OA
DOCKED: ATOM     37  H   UNL d   1       2.097  -7.595 -10.597 +0.03 +0.06    +0.167 HD
DOCKED: ENDBRANCH  34  36
DOCKED: ENDBRANCH  33  34
DOCKED: ENDBRANCH  32  33
DOCKED: ENDBRANCH   6  32
DOCKED: BRANCH  22  38
DOCKED: ATOM     38  C   UNL d   1       4.453  -5.015  -8.682 -0.19 +0.01    +0.052 C 
DOCKED: BRANCH  38  39
DOCKED: ATOM     39  C   UNL d   1       3.474  -4.139  -9.461 -0.22 +0.02    +0.115 C 
DOCKED: BRANCH  39  40
DOCKED: ATOM     40  C   UNL d   1       3.156  -4.702 -10.823 -0.10 +0.03    +0.139 C 
DOCKED: ATOM     41  O   UNL d   1       3.660  -4.206 -11.817 +0.05 -0.12    -0.650 OA
DOCKED: BRANCH  40  42
DOCKED: ATOM     42  O   UNL d   1       2.361  -5.781 -10.962 +0.06 -0.27    -0.776 OA
DOCKED: ATOM     43  H   UNL d   1       1.761  -6.060 -10.260 +0.05 +0.09    +0.167 HD
DOCKED: ENDBRANCH  40  42
DOCKED: ENDBRANCH  39  40
DOCKED: ENDBRANCH  38  39
DOCKED: ENDBRANCH  22  38
DOCKED: BRANCH  12  44
DOCKED: ATOM     44  C   UNL d   1       1.629  -7.055   2.117 -0.44 +0.00    +0.004 C 
DOCKED: ATOM     45  C   UNL d   1       2.269  -6.261   2.975 -0.55 +0.00    +0.012 C 
DOCKED: ENDBRANCH  12  44
DOCKED: BRANCH  17  46
DOCKED: ATOM     46  C   UNL d   1       5.601  -1.132  -1.903 -0.59 +0.00    +0.004 C 
DOCKED: ATOM     47  C   UNL d   1       5.171   0.114  -1.663 -0.71 -0.00    +0.012 C 
DOCKED: ENDBRANCH  17  46
DOCKED: TORSDOF 10
DOCKED: TER
DOCKED: ENDMDL
________________________________________________________________________________


	BEGINNING GENETIC ALGORITHM DOCKING 90 of 100
Run: 90 Seed: 1391154300 1760018373 [ Run 90 of 100 GA/GALS ]
Beginning LAMARCKIAN GENETIC ALGORITHM (LGA), with a maximum of 25000000 energy evaluations.

Final-Value: -15.061


	FINAL GENETIC ALGORITHM DOCKED STATE
	_______________________________________________


Detailed state:  trans 24.460 -7.680 34.605 quatxyzw -0.702387 0.221193 0.656868 -0.162022 center 8.287 34.468 -0.670 ntor 10 106.6082 150.2402 23.1527 39.0258 -97.6118 87.7399 73.4979 64.8570 29.1787 110.5816
State:	 24.460  -7.680  34.605  -0.712  0.224  0.666 -161.351    106.61  150.24   23.15   39.03  -97.61   87.74   73.50   64.86   29.18  110.58

DOCKED: MODEL       90
DOCKED: USER    Run = 90
DOCKED: USER    DPF = D:/Protein_go_brrr/autodock/final/1A3N/heme_O2/dock.dpf
DOCKED: USER  
DOCKED: USER    Estimated Free Energy of Binding    =   -9.74 kcal/mol  [=(1)+(2)+(3)-(4)]
DOCKED: USER    Estimated Inhibition Constant, Ki   =   72.57 nM (nanomolar)  [Temperature = 298.15 K]
DOCKED: USER    
DOCKED: USER    (1) Final Intermolecular Energy     =  -12.72 kcal/mol
DOCKED: USER        vdW + Hbond + desolv Energy     =  -10.43 kcal/mol
DOCKED: USER        Electrostatic Energy            =   -2.29 kcal/mol
DOCKED: USER    (2) Final Total Internal Energy     =   -2.34 kcal/mol
DOCKED: USER    (3) Torsional Free Energy           =   +2.98 kcal/mol
DOCKED: USER    (4) Unbound System's Energy  [=(2)] =   -2.34 kcal/mol
DOCKED: USER    
DOCKED: USER    
DOCKED: USER    NEWDPF move heme_O2_opt.pdbqt
DOCKED: USER    NEWDPF about 8.287000 34.468000 -0.670000
DOCKED: USER    NEWDPF tran0 24.459566 -7.679555 34.605153
DOCKED: USER    NEWDPF quaternion0 -0.702387 0.221193 0.656868 -0.162022
DOCKED: USER    NEWDPF axisangle0 -0.711792 0.224155 0.665663 -161.351446
DOCKED: USER    NEWDPF quat0 -0.711792 0.224155 0.665663 -161.351446
DOCKED: USER    NEWDPF dihe0 106.61 150.24 23.15 39.03 -97.61 87.74 73.50 64.86 29.18 110.58 
DOCKED: USER  keepresnum = 1 
DOCKED: USER  
DOCKED: REMARK  10 active torsions:
DOCKED: REMARK  status: ('A' for Active; 'I' for Inactive)
DOCKED: REMARK    1  A    between atoms: C_6  and  C_10 
DOCKED: REMARK    2  A    between atoms: C_10  and  C_11 
DOCKED: REMARK    3  A    between atoms: C_11  and  C_12 
DOCKED: REMARK    4  A    between atoms: C_12  and  O_14 
DOCKED: REMARK    5  A    between atoms: C_17  and  C_20 
DOCKED: REMARK    6  A    between atoms: C_24  and  C_27 
DOCKED: REMARK    7  A    between atoms: C_31  and  C_34 
DOCKED: REMARK    8  A    between atoms: C_34  and  C_35 
DOCKED: REMARK    9  A    between atoms: C_35  and  C_36 
DOCKED: REMARK   10  A    between atoms: C_36  and  O_38 
DOCKED: USER                              x       y       z     vdW  Elec       q    Type
DOCKED: USER                           _______ _______ _______ _____ _____    ______ ____
DOCKED: ROOT
DOCKED: ATOM      1  C   UNL d   1      24.752  -8.423  36.570 -0.17 +0.04    +0.064 A 
DOCKED: ATOM      2  C   UNL d   1      23.071  -4.300  34.917 -0.29 +0.01    +0.064 A 
DOCKED: ATOM      3  C   UNL d   1      23.771  -5.727  30.382 -0.30 +0.00    +0.064 C 
DOCKED: ATOM      4  C   UNL d   1      25.055 -10.155  32.060 -0.37 +0.01    +0.064 A 
DOCKED: ATOM      5  C   UNL d   1      24.236  -7.185  36.491 -0.19 +0.03    +0.066 A 
DOCKED: ATOM      6  C   UNL d   1      23.909  -6.400  37.600 -0.14 -0.01    -0.021 A 
DOCKED: ATOM      7  C   UNL d   1      23.382  -5.223  37.123 -0.15 -0.01    -0.025 A 
DOCKED: ATOM      8  C   UNL d   1      23.446  -5.302  35.734 -0.22 +0.02    +0.066 A 
DOCKED: ATOM      9  C   UNL d   1      22.825  -4.112  37.985 -0.12 +0.01    +0.051 C 
DOCKED: ATOM     10  C   UNL d   1      23.136  -4.315  33.455 -0.32 +0.01    +0.066 A 
DOCKED: ATOM     11  C   UNL d   1      22.889  -3.189  32.661 -0.46 -0.00    -0.021 A 
DOCKED: ATOM     12  C   UNL d   1      23.103  -3.576  31.351 -0.44 +0.00    +0.000 A 
DOCKED: ATOM     13  C   UNL d   1      23.465  -4.950  31.420 -0.31 +0.01    +0.070 A 
DOCKED: ATOM     14  C   UNL d   1      22.492  -1.796  33.135 -0.40 +0.01    +0.052 C 
DOCKED: ATOM     15  C   UNL d   1      24.108  -7.130  30.406 -0.19 -0.00    +0.066 A 
DOCKED: ATOM     16  C   UNL d   1      24.257  -7.928  29.272 -0.34 -0.00    -0.021 A 
DOCKED: ATOM     17  C   UNL d   1      24.622  -9.195  29.726 -0.44 +0.00    +0.000 A 
DOCKED: ATOM     18  C   UNL d   1      24.671  -9.073  31.121 -0.36 +0.01    +0.070 A 
DOCKED: ATOM     19  C   UNL d   1      23.986  -7.429  27.875 -0.47 +0.00    +0.052 C 
DOCKED: ATOM     20  C   UNL d   1      25.071 -10.085  33.405 -0.28 +0.01    +0.066 A 
DOCKED: ATOM     21  C   UNL d   1      25.459 -11.132  34.236 -0.22 -0.01    -0.025 A 
DOCKED: ATOM     22  C   UNL d   1      25.405 -10.648  35.524 -0.14 -0.01    -0.021 A 
DOCKED: ATOM     23  C   UNL d   1      24.967  -9.323  35.431 -0.04 +0.03    +0.066 A 
DOCKED: ATOM     24  C   UNL d   1      25.857 -12.525  33.823 -0.24 +0.01    +0.051 C 
DOCKED: ATOM     25  N   UNL d   1      23.911  -6.537  35.345 -0.15 -0.08    -0.248 N 
DOCKED: ATOM     26  N   UNL d   1      23.478  -5.393  32.703 -0.23 -0.04    -0.248 N 
DOCKED: ATOM     27  N   UNL d   1      24.284  -7.835  31.520 -0.21 -0.02    -0.248 N 
DOCKED: ATOM     28  N   UNL d   1      24.722  -8.999  34.145 -0.17 -0.08    -0.248 N 
DOCKED: ATOM     29 FE   UNL d   1      24.104  -7.210  33.427 -0.07 +0.00    +0.000 Fe
DOCKED: ATOM     30  O   UNL d   1      22.627  -7.043  33.888 -0.12 +0.00    +0.000 OA
DOCKED: ATOM     31  O   UNL d   1      23.034  -8.283  33.005 -0.24 +0.00    +0.000 OA
DOCKED: ENDROOT
DOCKED: BRANCH   6  32
DOCKED: ATOM     32  C   UNL d   1      23.960  -6.791  39.054 -0.07 +0.02    +0.052 C 
DOCKED: BRANCH  32  33
DOCKED: ATOM     33  C   UNL d   1      25.024  -6.027  39.836 -0.04 +0.06    +0.115 C 
DOCKED: BRANCH  33  34
DOCKED: ATOM     34  C   UNL d   1      26.194  -6.898  40.220 -0.05 +0.12    +0.139 C 
DOCKED: ATOM     35  O   UNL d   1      27.283  -6.709  39.702 +0.18 -1.00    -0.650 OA
DOCKED: BRANCH  34  36
DOCKED: ATOM     36  O   UNL d   1      26.059  -7.906  41.106 +0.01 -0.46    -0.776 OA
DOCKED: ATOM     37  H   UNL d   1      26.065  -8.831  40.833 +0.01 +0.11    +0.167 HD
DOCKED: ENDBRANCH  34  36
DOCKED: ENDBRANCH  33  34
DOCKED: ENDBRANCH  32  33
DOCKED: ENDBRANCH   6  32
DOCKED: BRANCH  22  38
DOCKED: ATOM     38  C   UNL d   1      25.696 -11.439  36.773 -0.14 +0.02    +0.052 C 
DOCKED: BRANCH  38  39
DOCKED: ATOM     39  C   UNL d   1      24.852 -10.983  37.961 -0.09 +0.05    +0.115 C 
DOCKED: BRANCH  39  40
DOCKED: ATOM     40  C   UNL d   1      25.690 -10.415  39.079 -0.08 +0.09    +0.139 C 
DOCKED: ATOM     41  O   UNL d   1      25.556 -10.842  40.214 +0.01 -0.26    -0.650 OA
DOCKED: BRANCH  40  42
DOCKED: ATOM     42  O   UNL d   1      26.625  -9.475  38.839 -0.06 -1.30    -0.776 OA
DOCKED: ATOM     43  H   UNL d   1      26.889  -8.842  39.517 +0.00 +0.30    +0.167 HD
DOCKED: ENDBRANCH  40  42
DOCKED: ENDBRANCH  39  40
DOCKED: ENDBRANCH  38  39
DOCKED: ENDBRANCH  22  38
DOCKED: BRANCH  12  44
DOCKED: ATOM     44  C   UNL d   1      22.940  -2.615  30.192 -0.56 +0.00    +0.004 C 
DOCKED: ATOM     45  C   UNL d   1      22.775  -2.908  28.903 -0.53 +0.00    +0.012 C 
DOCKED: ENDBRANCH  12  44
DOCKED: BRANCH  17  46
DOCKED: ATOM     46  C   UNL d   1      24.863 -10.480  28.980 -0.56 +0.00    +0.004 C 
DOCKED: ATOM     47  C   UNL d   1      25.355 -10.642  27.745 -0.64 -0.00    +0.012 C 
DOCKED: ENDBRANCH  17  46
DOCKED: TORSDOF 10
DOCKED: TER
DOCKED: ENDMDL
________________________________________________________________________________


	BEGINNING GENETIC ALGORITHM DOCKING 91 of 100
Run: 91 Seed: 1968073957 87130775 [ Run 91 of 100 GA/GALS ]
Beginning LAMARCKIAN GENETIC ALGORITHM (LGA), with a maximum of 25000000 energy evaluations.

Final-Value: -19.965


	FINAL GENETIC ALGORITHM DOCKED STATE
	_______________________________________________


Detailed state:  trans 8.528 11.737 28.726 quatxyzw 0.740672 -0.394322 -0.537720 -0.082291 center 8.287 34.468 -0.670 ntor 10 119.8561 129.1262 22.1939 -101.8992 -162.9601 -52.9507 -64.2850 96.7789 -179.1309 -173.7912
State:	  8.528  11.737  28.726   0.743 -0.396 -0.540 -170.559    119.86  129.13   22.19 -101.90 -162.96  -52.95  -64.29   96.78 -179.13 -173.79

DOCKED: MODEL       91
DOCKED: USER    Run = 91
DOCKED: USER    DPF = D:/Protein_go_brrr/autodock/final/1A3N/heme_O2/dock.dpf
DOCKED: USER  
DOCKED: USER    Estimated Free Energy of Binding    =  -14.35 kcal/mol  [=(1)+(2)+(3)-(4)]
DOCKED: USER    Estimated Inhibition Constant, Ki   =   30.36 pM (picomolar)  [Temperature = 298.15 K]
DOCKED: USER    
DOCKED: USER    (1) Final Intermolecular Energy     =  -17.33 kcal/mol
DOCKED: USER        vdW + Hbond + desolv Energy     =  -15.54 kcal/mol
DOCKED: USER        Electrostatic Energy            =   -1.79 kcal/mol
DOCKED: USER    (2) Final Total Internal Energy     =   -2.63 kcal/mol
DOCKED: USER    (3) Torsional Free Energy           =   +2.98 kcal/mol
DOCKED: USER    (4) Unbound System's Energy  [=(2)] =   -2.63 kcal/mol
DOCKED: USER    
DOCKED: USER    
DOCKED: USER    NEWDPF move heme_O2_opt.pdbqt
DOCKED: USER    NEWDPF about 8.287000 34.468000 -0.670000
DOCKED: USER    NEWDPF tran0 8.528037 11.737091 28.725645
DOCKED: USER    NEWDPF quaternion0 0.740672 -0.394322 -0.537720 -0.082291
DOCKED: USER    NEWDPF axisangle0 0.743193 -0.395664 -0.539550 -170.559476
DOCKED: USER    NEWDPF quat0 0.743193 -0.395664 -0.539550 -170.559476
DOCKED: USER    NEWDPF dihe0 119.86 129.13 22.19 -101.90 -162.96 -52.95 -64.29 96.78 -179.13 -173.79 
DOCKED: USER  keepresnum = 1 
DOCKED: USER  
DOCKED: REMARK  10 active torsions:
DOCKED: REMARK  status: ('A' for Active; 'I' for Inactive)
DOCKED: REMARK    1  A    between atoms: C_6  and  C_10 
DOCKED: REMARK    2  A    between atoms: C_10  and  C_11 
DOCKED: REMARK    3  A    between atoms: C_11  and  C_12 
DOCKED: REMARK    4  A    between atoms: C_12  and  O_14 
DOCKED: REMARK    5  A    between atoms: C_17  and  C_20 
DOCKED: REMARK    6  A    between atoms: C_24  and  C_27 
DOCKED: REMARK    7  A    between atoms: C_31  and  C_34 
DOCKED: REMARK    8  A    between atoms: C_34  and  C_35 
DOCKED: REMARK    9  A    between atoms: C_35  and  C_36 
DOCKED: REMARK   10  A    between atoms: C_36  and  O_38 
DOCKED: USER                              x       y       z     vdW  Elec       q    Type
DOCKED: USER                           _______ _______ _______ _____ _____    ______ ____
DOCKED: ROOT
DOCKED: ATOM      1  C   UNL d   1       8.712  12.347  30.749 -0.28 +0.02    +0.064 A 
DOCKED: ATOM      2  C   UNL d   1       7.000  14.518  26.887 -0.38 +0.01    +0.064 A 
DOCKED: ATOM      3  C   UNL d   1       8.060  10.706  24.160 -0.41 +0.00    +0.064 C 
DOCKED: ATOM      4  C   UNL d   1       9.385   8.278  28.212 -0.37 +0.01    +0.064 A 
DOCKED: ATOM      5  C   UNL d   1       8.158  13.248  29.922 -0.23 +0.02    +0.066 A 
DOCKED: ATOM      6  C   UNL d   1       7.728  14.516  30.321 -0.33 -0.01    -0.021 A 
DOCKED: ATOM      7  C   UNL d   1       7.192  15.130  29.212 -0.38 -0.01    -0.025 A 
DOCKED: ATOM      8  C   UNL d   1       7.354  14.237  28.156 -0.35 +0.01    +0.066 A 
DOCKED: ATOM      9  C   UNL d   1       6.538  16.494  29.209 -0.40 +0.01    +0.051 C 
DOCKED: ATOM     10  C   UNL d   1       7.166  13.632  25.734 -0.35 +0.00    +0.066 A 
DOCKED: ATOM     11  C   UNL d   1       6.933  14.035  24.415 -0.34 -0.00    -0.021 A 
DOCKED: ATOM     12  C   UNL d   1       7.250  12.955  23.612 -0.38 +0.00    +0.000 A 
DOCKED: ATOM     13  C   UNL d   1       7.656  11.927  24.508 -0.35 +0.00    +0.070 A 
DOCKED: ATOM     14  C   UNL d   1       6.454  15.401  23.938 -0.45 +0.00    +0.052 C 
DOCKED: ATOM     15  C   UNL d   1       8.445   9.627  25.038 -0.38 +0.01    +0.066 A 
DOCKED: ATOM     16  C   UNL d   1       8.700   8.321  24.621 -0.52 -0.00    -0.021 A 
DOCKED: ATOM     17  C   UNL d   1       9.079   7.610  25.759 -0.48 +0.00    +0.000 A 
DOCKED: ATOM     18  C   UNL d   1       9.028   8.549  26.800 -0.38 +0.01    +0.070 A 
DOCKED: ATOM     19  C   UNL d   1       8.508   7.860  23.198 -0.54 +0.00    +0.052 C 
DOCKED: ATOM     20  C   UNL d   1       9.306   9.143  29.242 -0.39 +0.01    +0.066 A 
DOCKED: ATOM     21  C   UNL d   1       9.674   8.836  30.549 -0.42 -0.01    -0.025 A 
DOCKED: ATOM     22  C   UNL d   1       9.514   9.992  31.281 -0.35 -0.01    -0.021 A 
DOCKED: ATOM     23  C   UNL d   1       9.036  10.960  30.393 -0.29 +0.02    +0.066 A 
DOCKED: ATOM     24  C   UNL d   1      10.150   7.506  31.074 -0.40 +0.01    +0.051 C 
DOCKED: ATOM     25  N   UNL d   1       7.890  13.053  28.607 -0.19 -0.03    -0.248 N 
DOCKED: ATOM     26  N   UNL d   1       7.597  12.347  25.798 -0.23 -0.01    -0.248 N 
DOCKED: ATOM     27  N   UNL d   1       8.570   9.748  26.357 -0.22 -0.03    -0.248 N 
DOCKED: ATOM     28  N   UNL d   1       8.869  10.428  29.165 -0.27 -0.05    -0.248 N 
DOCKED: ATOM     29 FE   UNL d   1       8.238  11.378  27.492 -0.08 +0.00    +0.000 Fe
DOCKED: ATOM     30  O   UNL d   1       6.727  11.685  27.710 -0.36 +0.00    +0.000 OA
DOCKED: ATOM     31  O   UNL d   1       7.238  10.196  27.769 -0.74 +0.00    +0.000 OA
DOCKED: ENDROOT
DOCKED: BRANCH   6  32
DOCKED: ATOM     32  C   UNL d   1       7.693  15.082  31.717 -0.30 +0.02    +0.052 C 
DOCKED: BRANCH  32  33
DOCKED: ATOM     33  C   UNL d   1       6.334  14.918  32.389 -0.10 +0.09    +0.115 C 
DOCKED: BRANCH  33  34
DOCKED: ATOM     34  C   UNL d   1       6.385  13.976  33.567 +0.02 +0.18    +0.139 C 
DOCKED: ATOM     35  O   UNL d   1       7.283  14.083  34.386 -0.00 -0.83    -0.650 OA
DOCKED: BRANCH  34  36
DOCKED: ATOM     36  O   UNL d   1       5.473  12.994  33.722 -0.51 -0.98    -0.776 OA
DOCKED: ATOM     37  H   UNL d   1       5.724  12.064  33.757 +0.04 +0.13    +0.167 HD
DOCKED: ENDBRANCH  34  36
DOCKED: ENDBRANCH  33  34
DOCKED: ENDBRANCH  32  33
DOCKED: ENDBRANCH   6  32
DOCKED: BRANCH  22  38
DOCKED: ATOM     38  C   UNL d   1       9.749  10.132  32.762 -0.22 +0.03    +0.052 C 
DOCKED: BRANCH  38  39
DOCKED: ATOM     39  C   UNL d   1       8.672   9.434  33.591 -0.39 +0.05    +0.115 C 
DOCKED: BRANCH  39  40
DOCKED: ATOM     40  C   UNL d   1       7.452  10.297  33.796 -0.39 +0.06    +0.139 C 
DOCKED: ATOM     41  O   UNL d   1       6.522  10.230  33.009 -0.07 -0.21    -0.650 OA
DOCKED: BRANCH  40  42
DOCKED: ATOM     42  O   UNL d   1       7.347  11.109  34.866 +0.05 -0.48    -0.776 OA
DOCKED: ATOM     43  H   UNL d   1       7.081  12.032  34.775 +0.07 +0.13    +0.167 HD
DOCKED: ENDBRANCH  40  42
DOCKED: ENDBRANCH  39  40
DOCKED: ENDBRANCH  38  39
DOCKED: ENDBRANCH  22  38
DOCKED: BRANCH  12  44
DOCKED: ATOM     44  C   UNL d   1       7.132  13.012  22.103 -0.49 +0.00    +0.004 C 
DOCKED: ATOM     45  C   UNL d   1       7.084  11.993  21.246 -0.63 -0.00    +0.012 C 
DOCKED: ENDBRANCH  12  44
DOCKED: BRANCH  17  46
DOCKED: ATOM     46  C   UNL d   1       9.417   6.155  25.949 -0.66 +0.00    +0.004 C 
DOCKED: ATOM     47  C   UNL d   1       8.700   5.213  26.575 -0.76 +0.00    +0.012 C 
DOCKED: ENDBRANCH  17  46
DOCKED: TORSDOF 10
DOCKED: TER
DOCKED: ENDMDL
________________________________________________________________________________


	BEGINNING GENETIC ALGORITHM DOCKING 92 of 100
Run: 92 Seed: 1590522914 85565063 [ Run 92 of 100 GA/GALS ]
Beginning LAMARCKIAN GENETIC ALGORITHM (LGA), with a maximum of 25000000 energy evaluations.

Final-Value: -16.694


	FINAL GENETIC ALGORITHM DOCKED STATE
	_______________________________________________


Detailed state:  trans 23.703 -8.094 32.665 quatxyzw -0.430914 -0.757623 -0.089233 0.482035 center 8.287 34.468 -0.670 ntor 10 126.9350 75.0462 116.7405 -4.4440 -175.3652 -22.7345 -41.8807 93.5727 -167.2421 -162.7980
State:	 23.703  -8.094  32.665  -0.492 -0.865 -0.102 122.363    126.94   75.05  116.74   -4.44 -175.37  -22.73  -41.88   93.57 -167.24 -162.80

DOCKED: MODEL       92
DOCKED: USER    Run = 92
DOCKED: USER    DPF = D:/Protein_go_brrr/autodock/final/1A3N/heme_O2/dock.dpf
DOCKED: USER  
DOCKED: USER    Estimated Free Energy of Binding    =  -12.24 kcal/mol  [=(1)+(2)+(3)-(4)]
DOCKED: USER    Estimated Inhibition Constant, Ki   =    1.07 nM (nanomolar)  [Temperature = 298.15 K]
DOCKED: USER    
DOCKED: USER    (1) Final Intermolecular Energy     =  -15.22 kcal/mol
DOCKED: USER        vdW + Hbond + desolv Energy     =  -12.89 kcal/mol
DOCKED: USER        Electrostatic Energy            =   -2.33 kcal/mol
DOCKED: USER    (2) Final Total Internal Energy     =   -1.47 kcal/mol
DOCKED: USER    (3) Torsional Free Energy           =   +2.98 kcal/mol
DOCKED: USER    (4) Unbound System's Energy  [=(2)] =   -1.47 kcal/mol
DOCKED: USER    
DOCKED: USER    
DOCKED: USER    NEWDPF move heme_O2_opt.pdbqt
DOCKED: USER    NEWDPF about 8.287000 34.468000 -0.670000
DOCKED: USER    NEWDPF tran0 23.702681 -8.094112 32.665224
DOCKED: USER    NEWDPF quaternion0 -0.430914 -0.757623 -0.089233 0.482035
DOCKED: USER    NEWDPF axisangle0 -0.491826 -0.864716 -0.101847 122.363257
DOCKED: USER    NEWDPF quat0 -0.491826 -0.864716 -0.101847 122.363257
DOCKED: USER    NEWDPF dihe0 126.94 75.05 116.74 -4.44 -175.37 -22.73 -41.88 93.57 -167.24 -162.80 
DOCKED: USER  keepresnum = 1 
DOCKED: USER  
DOCKED: REMARK  10 active torsions:
DOCKED: REMARK  status: ('A' for Active; 'I' for Inactive)
DOCKED: REMARK    1  A    between atoms: C_6  and  C_10 
DOCKED: REMARK    2  A    between atoms: C_10  and  C_11 
DOCKED: REMARK    3  A    between atoms: C_11  and  C_12 
DOCKED: REMARK    4  A    between atoms: C_12  and  O_14 
DOCKED: REMARK    5  A    between atoms: C_17  and  C_20 
DOCKED: REMARK    6  A    between atoms: C_24  and  C_27 
DOCKED: REMARK    7  A    between atoms: C_31  and  C_34 
DOCKED: REMARK    8  A    between atoms: C_34  and  C_35 
DOCKED: REMARK    9  A    between atoms: C_35  and  C_36 
DOCKED: REMARK   10  A    between atoms: C_36  and  O_38 
DOCKED: USER                              x       y       z     vdW  Elec       q    Type
DOCKED: USER                           _______ _______ _______ _____ _____    ______ ____
DOCKED: ROOT
DOCKED: ATOM      1  C   UNL d   1      23.705  -8.883  34.634 -0.27 +0.02    +0.064 A 
DOCKED: ATOM      2  C   UNL d   1      24.959 -10.724  30.440 -0.35 +0.00    +0.064 A 
DOCKED: ATOM      3  C   UNL d   1      23.742  -6.658  28.186 -0.44 +0.00    +0.064 C 
DOCKED: ATOM      4  C   UNL d   1      22.898  -4.587  32.553 -0.37 +0.01    +0.064 A 
DOCKED: ATOM      5  C   UNL d   1      24.147  -9.715  33.677 -0.28 +0.01    +0.066 A 
DOCKED: ATOM      6  C   UNL d   1      24.578 -11.023  33.916 -0.19 -0.00    -0.021 A 
DOCKED: ATOM      7  C   UNL d   1      24.982 -11.543  32.708 -0.20 -0.00    -0.025 A 
DOCKED: ATOM      8  C   UNL d   1      24.741 -10.554  31.758 -0.33 +0.01    +0.066 A 
DOCKED: ATOM      9  C   UNL d   1      25.593 -12.913  32.516 -0.24 +0.00    +0.051 C 
DOCKED: ATOM     10  C   UNL d   1      24.704  -9.733  29.393 -0.44 +0.00    +0.066 A 
DOCKED: ATOM     11  C   UNL d   1      24.792 -10.017  28.026 -0.52 -0.00    -0.021 A 
DOCKED: ATOM     12  C   UNL d   1      24.428  -8.862  27.360 -0.45 +0.00    +0.000 A 
DOCKED: ATOM     13  C   UNL d   1      24.143  -7.914  28.381 -0.40 +0.00    +0.070 A 
DOCKED: ATOM     14  C   UNL d   1      25.182 -11.343  27.383 -0.61 -0.00    +0.052 C 
DOCKED: ATOM     15  C   UNL d   1      23.477  -5.657  29.192 -0.37 +0.00    +0.066 A 
DOCKED: ATOM     16  C   UNL d   1      23.220  -4.313  28.921 -0.42 -0.00    -0.021 A 
DOCKED: ATOM     17  C   UNL d   1      22.977  -3.703  30.151 -0.45 +0.00    +0.000 A 
DOCKED: ATOM     18  C   UNL d   1      23.104  -4.734  31.093 -0.33 +0.01    +0.070 A 
DOCKED: ATOM     19  C   UNL d   1      23.282  -3.727  27.533 -0.51 +0.00    +0.052 C 
DOCKED: ATOM     20  C   UNL d   1      23.055  -5.544  33.488 -0.30 +0.01    +0.066 A 
DOCKED: ATOM     21  C   UNL d   1      22.829  -5.351  34.848 -0.24 -0.00    -0.025 A 
DOCKED: ATOM     22  C   UNL d   1      23.027  -6.572  35.453 -0.19 -0.00    -0.021 A 
DOCKED: ATOM     23  C   UNL d   1      23.386  -7.464  34.438 -0.27 +0.01    +0.066 A 
DOCKED: ATOM     24  C   UNL d   1      22.446  -4.066  35.535 -0.25 +0.01    +0.051 C 
DOCKED: ATOM     25  N   UNL d   1      24.288  -9.406  32.365 -0.22 -0.03    -0.248 N 
DOCKED: ATOM     26  N   UNL d   1      24.318  -8.451  29.615 -0.25 -0.01    -0.248 N 
DOCKED: ATOM     27  N   UNL d   1      23.482  -5.895  30.500 -0.12 +0.00    -0.248 N 
DOCKED: ATOM     28  N   UNL d   1      23.445  -6.825  33.252 -0.23 -0.03    -0.248 N 
DOCKED: ATOM     29 FE   UNL d   1      23.878  -7.629  31.446 -0.09 -0.00    +0.000 Fe
DOCKED: ATOM     30  O   UNL d   1      25.393  -7.984  31.479 -0.14 +0.00    +0.000 OA
DOCKED: ATOM     31  O   UNL d   1      24.934  -6.497  31.723 -0.06 +0.00    +0.000 OA
DOCKED: ENDROOT
DOCKED: BRANCH   6  32
DOCKED: ATOM     32  C   UNL d   1      24.736 -11.716  35.245 -0.18 +0.01    +0.052 C 
DOCKED: BRANCH  32  33
DOCKED: ATOM     33  C   UNL d   1      26.065 -11.400  35.923 -0.14 +0.05    +0.115 C 
DOCKED: BRANCH  33  34
DOCKED: ATOM     34  C   UNL d   1      25.905 -11.107  37.394 -0.11 +0.08    +0.139 C 
DOCKED: ATOM     35  O   UNL d   1      25.044 -11.688  38.035 +0.01 -0.23    -0.650 OA
DOCKED: BRANCH  34  36
DOCKED: ATOM     36  O   UNL d   1      26.678 -10.193  38.017 +0.01 -1.03    -0.776 OA
DOCKED: ATOM     37  H   UNL d   1      26.300  -9.476  38.539 +0.00 +0.26    +0.167 HD
DOCKED: ENDBRANCH  34  36
DOCKED: ENDBRANCH  33  34
DOCKED: ENDBRANCH  32  33
DOCKED: ENDBRANCH   6  32
DOCKED: BRANCH  22  38
DOCKED: ATOM     38  C   UNL d   1      22.938  -6.843  36.933 -0.20 +0.01    +0.052 C 
DOCKED: BRANCH  38  39
DOCKED: ATOM     39  C   UNL d   1      23.951  -6.029  37.735 -0.12 +0.05    +0.115 C 
DOCKED: BRANCH  39  40
DOCKED: ATOM     40  C   UNL d   1      25.284  -6.725  37.856 -0.12 +0.13    +0.139 C 
DOCKED: ATOM     41  O   UNL d   1      26.294  -6.175  37.448 -0.02 -0.93    -0.650 OA
DOCKED: BRANCH  40  42
DOCKED: ATOM     42  O   UNL d   1      25.389  -7.927  38.455 -0.51 -0.93    -0.776 OA
DOCKED: ATOM     43  H   UNL d   1      25.132  -8.740  38.004 +0.02 +0.17    +0.167 HD
DOCKED: ENDBRANCH  40  42
DOCKED: ENDBRANCH  39  40
DOCKED: ENDBRANCH  38  39
DOCKED: ENDBRANCH  22  38
DOCKED: BRANCH  12  44
DOCKED: ATOM     44  C   UNL d   1      24.393  -8.783  25.848 -0.27 +0.00    +0.004 C 
DOCKED: ATOM     45  C   UNL d   1      25.421  -8.832  25.001 -0.57 +0.00    +0.012 C 
DOCKED: ENDBRANCH  12  44
DOCKED: BRANCH  17  46
DOCKED: ATOM     46  C   UNL d   1      22.702  -2.265  30.504 -0.59 +0.00    +0.004 C 
DOCKED: ATOM     47  C   UNL d   1      22.823  -1.183  29.724 -0.59 +0.00    +0.012 C 
DOCKED: ENDBRANCH  17  46
DOCKED: TORSDOF 10
DOCKED: TER
DOCKED: ENDMDL
________________________________________________________________________________


	BEGINNING GENETIC ALGORITHM DOCKING 93 of 100
Run: 93 Seed: 1935655935 533630831 [ Run 93 of 100 GA/GALS ]
Beginning LAMARCKIAN GENETIC ALGORITHM (LGA), with a maximum of 25000000 energy evaluations.

Final-Value: -15.997


	FINAL GENETIC ALGORITHM DOCKED STATE
	_______________________________________________


Detailed state:  trans 24.642 8.082 -6.096 quatxyzw 0.035469 -0.643685 0.060324 -0.762085 center 8.287 34.468 -0.670 ntor 10 -1.1718 158.4152 52.1372 38.7846 -91.1974 178.1524 -2.0864 80.9450 179.9158 149.9874
State:	 24.642   8.082  -6.096   0.055 -0.994  0.093 -80.703     -1.17  158.42   52.14   38.78  -91.20  178.15   -2.09   80.94  179.92  149.99

DOCKED: MODEL       93
DOCKED: USER    Run = 93
DOCKED: USER    DPF = D:/Protein_go_brrr/autodock/final/1A3N/heme_O2/dock.dpf
DOCKED: USER  
DOCKED: USER    Estimated Free Energy of Binding    =  -10.75 kcal/mol  [=(1)+(2)+(3)-(4)]
DOCKED: USER    Estimated Inhibition Constant, Ki   =   13.29 nM (nanomolar)  [Temperature = 298.15 K]
DOCKED: USER    
DOCKED: USER    (1) Final Intermolecular Energy     =  -13.73 kcal/mol
DOCKED: USER        vdW + Hbond + desolv Energy     =  -12.35 kcal/mol
DOCKED: USER        Electrostatic Energy            =   -1.37 kcal/mol
DOCKED: USER    (2) Final Total Internal Energy     =   -2.27 kcal/mol
DOCKED: USER    (3) Torsional Free Energy           =   +2.98 kcal/mol
DOCKED: USER    (4) Unbound System's Energy  [=(2)] =   -2.27 kcal/mol
DOCKED: USER    
DOCKED: USER    
DOCKED: USER    NEWDPF move heme_O2_opt.pdbqt
DOCKED: USER    NEWDPF about 8.287000 34.468000 -0.670000
DOCKED: USER    NEWDPF tran0 24.641656 8.081738 -6.095569
DOCKED: USER    NEWDPF quaternion0 0.035469 -0.643685 0.060324 -0.762085
DOCKED: USER    NEWDPF axisangle0 0.054780 -0.994142 0.093167 -80.703373
DOCKED: USER    NEWDPF quat0 0.054780 -0.994142 0.093167 -80.703373
DOCKED: USER    NEWDPF dihe0 -1.17 158.42 52.14 38.78 -91.20 178.15 -2.09 80.94 179.92 149.99 
DOCKED: USER  keepresnum = 1 
DOCKED: USER  
DOCKED: REMARK  10 active torsions:
DOCKED: REMARK  status: ('A' for Active; 'I' for Inactive)
DOCKED: REMARK    1  A    between atoms: C_6  and  C_10 
DOCKED: REMARK    2  A    between atoms: C_10  and  C_11 
DOCKED: REMARK    3  A    between atoms: C_11  and  C_12 
DOCKED: REMARK    4  A    between atoms: C_12  and  O_14 
DOCKED: REMARK    5  A    between atoms: C_17  and  C_20 
DOCKED: REMARK    6  A    between atoms: C_24  and  C_27 
DOCKED: REMARK    7  A    between atoms: C_31  and  C_34 
DOCKED: REMARK    8  A    between atoms: C_34  and  C_35 
DOCKED: REMARK    9  A    between atoms: C_35  and  C_36 
DOCKED: REMARK   10  A    between atoms: C_36  and  O_38 
DOCKED: USER                              x       y       z     vdW  Elec       q    Type
DOCKED: USER                           _______ _______ _______ _____ _____    ______ ____
DOCKED: ROOT
DOCKED: ATOM      1  C   UNL d   1      25.033   8.697  -8.087 -0.26 +0.05    +0.064 A 
DOCKED: ATOM      2  C   UNL d   1      21.980   5.562  -6.239 -0.25 +0.01    +0.064 A 
DOCKED: ATOM      3  C   UNL d   1      23.601   6.460  -1.805 -0.39 +0.00    +0.064 C 
DOCKED: ATOM      4  C   UNL d   1      26.414  10.034  -3.644 -0.36 +0.01    +0.064 A 
DOCKED: ATOM      5  C   UNL d   1      24.070   7.772  -7.946 -0.25 +0.04    +0.066 A 
DOCKED: ATOM      6  C   UNL d   1      23.355   7.217  -9.012 -0.22 -0.01    -0.021 A 
DOCKED: ATOM      7  C   UNL d   1      22.441   6.342  -8.475 -0.23 -0.01    -0.025 A 
DOCKED: ATOM      8  C   UNL d   1      22.655   6.350  -7.099 -0.24 +0.02    +0.066 A 
DOCKED: ATOM      9  C   UNL d   1      21.407   5.574  -9.269 -0.20 +0.02    +0.051 C 
DOCKED: ATOM     10  C   UNL d   1      22.177   5.510  -4.790 -0.35 +0.01    +0.066 A 
DOCKED: ATOM     11  C   UNL d   1      21.566   4.559  -3.965 -0.41 -0.00    -0.021 A 
DOCKED: ATOM     12  C   UNL d   1      22.035   4.790  -2.685 -0.41 +0.00    +0.000 A 
DOCKED: ATOM     13  C   UNL d   1      22.915   5.901  -2.802 -0.34 +0.01    +0.070 A 
DOCKED: ATOM     14  C   UNL d   1      20.598   3.459  -4.384 -0.40 +0.01    +0.052 C 
DOCKED: ATOM     15  C   UNL d   1      24.474   7.607  -1.876 -0.33 +0.00    +0.066 A 
DOCKED: ATOM     16  C   UNL d   1      25.034   8.244  -0.769 -0.38 -0.00    -0.021 A 
DOCKED: ATOM     17  C   UNL d   1      25.839   9.267  -1.269 -0.46 +0.00    +0.000 A 
DOCKED: ATOM     18  C   UNL d   1      25.710   9.174  -2.662 -0.42 +0.01    +0.070 A 
DOCKED: ATOM     19  C   UNL d   1      24.710   7.859   0.652 -0.41 +0.00    +0.052 C 
DOCKED: ATOM     20  C   UNL d   1      26.280  10.000  -4.984 -0.38 +0.01    +0.066 A 
DOCKED: ATOM     21  C   UNL d   1      26.983  10.823  -5.859 -0.36 -0.00    -0.025 A 
DOCKED: ATOM     22  C   UNL d   1      26.622  10.438  -7.131 -0.26 -0.01    -0.021 A 
DOCKED: ATOM     23  C   UNL d   1      25.695   9.402  -6.984 -0.30 +0.03    +0.066 A 
DOCKED: ATOM     24  C   UNL d   1      27.947  11.924  -5.500 -0.37 +0.00    +0.051 C 
DOCKED: ATOM     25  N   UNL d   1      23.614   7.280  -6.769 -0.15 -0.09    -0.248 N 
DOCKED: ATOM     26  N   UNL d   1      22.992   6.336  -4.086 -0.18 -0.03    -0.248 N 
DOCKED: ATOM     27  N   UNL d   1      24.820   8.210  -3.010 -0.24 -0.02    -0.248 N 
DOCKED: ATOM     28  N   UNL d   1      25.456   9.169  -5.676 -0.23 -0.07    -0.248 N 
DOCKED: ATOM     29 FE   UNL d   1      24.234   7.764  -4.884 -0.08 +0.00    +0.000 Fe
DOCKED: ATOM     30  O   UNL d   1      22.781   8.221  -5.205 -0.36 +0.00    +0.000 OA
DOCKED: ATOM     31  O   UNL d   1      23.732   9.166  -4.377 -0.22 +0.00    +0.000 OA
DOCKED: ENDROOT
DOCKED: BRANCH   6  32
DOCKED: ATOM     32  C   UNL d   1      23.430   7.594 -10.469 -0.15 +0.05    +0.052 C 
DOCKED: BRANCH  32  33
DOCKED: ATOM     33  C   UNL d   1      22.343   8.581 -10.883 -0.12 +0.06    +0.115 C 
DOCKED: BRANCH  33  34
DOCKED: ATOM     34  C   UNL d   1      22.489   9.031 -12.315 -0.05 +0.07    +0.139 C 
DOCKED: ATOM     35  O   UNL d   1      21.605   8.784 -13.119 +0.02 -0.24    -0.650 OA
DOCKED: BRANCH  34  36
DOCKED: ATOM     36  O   UNL d   1      23.594   9.680 -12.739 +0.01 -0.47    -0.776 OA
DOCKED: ATOM     37  H   UNL d   1      24.322   9.891 -12.144 +0.01 +0.14    +0.167 HD
DOCKED: ENDBRANCH  34  36
DOCKED: ENDBRANCH  33  34
DOCKED: ENDBRANCH  32  33
DOCKED: ENDBRANCH   6  32
DOCKED: BRANCH  22  38
DOCKED: ATOM     38  C   UNL d   1      27.097  11.077  -8.410 +0.20 +0.03    +0.052 C 
DOCKED: BRANCH  38  39
DOCKED: ATOM     39  C   UNL d   1      26.002  11.891  -9.095 -0.15 +0.05    +0.115 C 
DOCKED: BRANCH  39  40
DOCKED: ATOM     40  C   UNL d   1      25.357  11.144 -10.236 -0.13 +0.10    +0.139 C 
DOCKED: ATOM     41  O   UNL d   1      26.037  10.429 -10.953 -0.45 -0.84    -0.650 OA
DOCKED: BRANCH  40  42
DOCKED: ATOM     42  O   UNL d   1      24.028  11.212 -10.449 +0.03 -0.39    -0.776 OA
DOCKED: ATOM     43  H   UNL d   1      23.641  10.974 -11.299 +0.02 +0.09    +0.167 HD
DOCKED: ENDBRANCH  40  42
DOCKED: ENDBRANCH  39  40
DOCKED: ENDBRANCH  38  39
DOCKED: ENDBRANCH  22  38
DOCKED: BRANCH  12  44
DOCKED: ATOM     44  C   UNL d   1      21.600   3.946  -1.505 -0.48 +0.00    +0.004 C 
DOCKED: ATOM     45  C   UNL d   1      21.181   4.362  -0.310 -0.51 +0.00    +0.012 C 
DOCKED: ENDBRANCH  12  44
DOCKED: BRANCH  17  46
DOCKED: ATOM     46  C   UNL d   1      26.646  10.324  -0.563 -0.57 +0.00    +0.004 C 
DOCKED: ATOM     47  C   UNL d   1      27.265  10.240   0.621 -0.60 +0.00    +0.012 C 
DOCKED: ENDBRANCH  17  46
DOCKED: TORSDOF 10
DOCKED: TER
DOCKED: ENDMDL
________________________________________________________________________________


	BEGINNING GENETIC ALGORITHM DOCKING 94 of 100
Run: 94 Seed: 74345526 2090072539 [ Run 94 of 100 GA/GALS ]
Beginning LAMARCKIAN GENETIC ALGORITHM (LGA), with a maximum of 25000000 energy evaluations.

Final-Value: -19.549


	FINAL GENETIC ALGORITHM DOCKED STATE
	_______________________________________________


Detailed state:  trans 23.015 6.659 -3.326 quatxyzw -0.491841 0.162256 -0.817499 -0.251915 center 8.287 34.468 -0.670 ntor 10 31.7696 104.6503 30.7390 -56.5210 176.1015 27.3386 -65.6090 -39.0626 -156.7464 178.2228
State:	 23.015   6.659  -3.326  -0.508  0.168 -0.845 -150.818     31.77  104.65   30.74  -56.52  176.10   27.34  -65.61  -39.06 -156.75  178.22

DOCKED: MODEL       94
DOCKED: USER    Run = 94
DOCKED: USER    DPF = D:/Protein_go_brrr/autodock/final/1A3N/heme_O2/dock.dpf
DOCKED: USER  
DOCKED: USER    Estimated Free Energy of Binding    =  -15.94 kcal/mol  [=(1)+(2)+(3)-(4)]
DOCKED: USER    Estimated Inhibition Constant, Ki   =    2.06 pM (picomolar)  [Temperature = 298.15 K]
DOCKED: USER    
DOCKED: USER    (1) Final Intermolecular Energy     =  -18.93 kcal/mol
DOCKED: USER        vdW + Hbond + desolv Energy     =  -17.11 kcal/mol
DOCKED: USER        Electrostatic Energy            =   -1.82 kcal/mol
DOCKED: USER    (2) Final Total Internal Energy     =   -0.62 kcal/mol
DOCKED: USER    (3) Torsional Free Energy           =   +2.98 kcal/mol
DOCKED: USER    (4) Unbound System's Energy  [=(2)] =   -0.62 kcal/mol
DOCKED: USER    
DOCKED: USER    
DOCKED: USER    NEWDPF move heme_O2_opt.pdbqt
DOCKED: USER    NEWDPF about 8.287000 34.468000 -0.670000
DOCKED: USER    NEWDPF tran0 23.014652 6.658515 -3.326143
DOCKED: USER    NEWDPF quaternion0 -0.491841 0.162256 -0.817499 -0.251915
DOCKED: USER    NEWDPF axisangle0 -0.508231 0.167663 -0.844742 -150.818220
DOCKED: USER    NEWDPF quat0 -0.508231 0.167663 -0.844742 -150.818220
DOCKED: USER    NEWDPF dihe0 31.77 104.65 30.74 -56.52 176.10 27.34 -65.61 -39.06 -156.75 178.22 
DOCKED: USER  keepresnum = 1 
DOCKED: USER  
DOCKED: REMARK  10 active torsions:
DOCKED: REMARK  status: ('A' for Active; 'I' for Inactive)
DOCKED: REMARK    1  A    between atoms: C_6  and  C_10 
DOCKED: REMARK    2  A    between atoms: C_10  and  C_11 
DOCKED: REMARK    3  A    between atoms: C_11  and  C_12 
DOCKED: REMARK    4  A    between atoms: C_12  and  O_14 
DOCKED: REMARK    5  A    between atoms: C_17  and  C_20 
DOCKED: REMARK    6  A    between atoms: C_24  and  C_27 
DOCKED: REMARK    7  A    between atoms: C_31  and  C_34 
DOCKED: REMARK    8  A    between atoms: C_34  and  C_35 
DOCKED: REMARK    9  A    between atoms: C_35  and  C_36 
DOCKED: REMARK   10  A    between atoms: C_36  and  O_38 
DOCKED: USER                              x       y       z     vdW  Elec       q    Type
DOCKED: USER                           _______ _______ _______ _____ _____    ______ ____
DOCKED: ROOT
DOCKED: ATOM      1  C   UNL d   1      23.186   7.247  -5.357 -0.24 +0.01    +0.064 A 
DOCKED: ATOM      2  C   UNL d   1      25.324   8.748  -1.390 -0.38 +0.00    +0.064 A 
DOCKED: ATOM      3  C   UNL d   1      22.802   5.632   1.259 -0.34 +0.00    +0.064 C 
DOCKED: ATOM      4  C   UNL d   1      20.943   3.749  -2.872 -0.37 +0.01    +0.064 A 
DOCKED: ATOM      5  C   UNL d   1      23.975   7.909  -4.494 -0.31 +0.01    +0.066 A 
DOCKED: ATOM      6  C   UNL d   1      24.855   8.930  -4.864 -0.39 -0.00    -0.021 A 
DOCKED: ATOM      7  C   UNL d   1      25.506   9.335  -3.723 -0.43 -0.00    -0.025 A 
DOCKED: ATOM      8  C   UNL d   1      24.971   8.584  -2.680 -0.37 +0.01    +0.066 A 
DOCKED: ATOM      9  C   UNL d   1      26.605  10.374  -3.676 -0.37 +0.01    +0.051 C 
DOCKED: ATOM     10  C   UNL d   1      24.782   8.007  -0.251 -0.35 +0.00    +0.066 A 
DOCKED: ATOM     11  C   UNL d   1      25.063   8.329   1.081 -0.38 -0.00    -0.021 A 
DOCKED: ATOM     12  C   UNL d   1      24.330   7.453   1.861 -0.40 +0.00    +0.000 A 
DOCKED: ATOM     13  C   UNL d   1      23.638   6.619   0.939 -0.21 +0.00    +0.070 A 
DOCKED: ATOM     14  C   UNL d   1      25.970   9.443   1.589 -0.45 +0.00    +0.052 C 
DOCKED: ATOM     15  C   UNL d   1      22.109   4.743   0.357 -0.40 +0.00    +0.066 A 
DOCKED: ATOM     16  C   UNL d   1      21.378   3.625   0.756 -0.53 -0.00    -0.021 A 
DOCKED: ATOM     17  C   UNL d   1      20.839   3.072  -0.405 -0.47 +0.00    +0.000 A 
DOCKED: ATOM     18  C   UNL d   1      21.287   3.906  -1.439 -0.37 +0.01    +0.070 A 
DOCKED: ATOM     19  C   UNL d   1      21.304   3.158   2.188 -0.31 -0.00    +0.052 C 
DOCKED: ATOM     20  C   UNL d   1      21.390   4.505  -3.894 -0.38 +0.01    +0.066 A 
DOCKED: ATOM     21  C   UNL d   1      21.017   4.321  -5.222 -0.41 -0.00    -0.025 A 
DOCKED: ATOM     22  C   UNL d   1      21.625   5.325  -5.941 -0.32 -0.00    -0.021 A 
DOCKED: ATOM     23  C   UNL d   1      22.364   6.078  -5.023 -0.24 +0.01    +0.066 A 
DOCKED: ATOM     24  C   UNL d   1      20.128   3.238  -5.778 -0.53 +0.01    +0.051 C 
DOCKED: ATOM     25  N   UNL d   1      24.075   7.660  -3.165 -0.22 -0.02    -0.248 N 
DOCKED: ATOM     26  N   UNL d   1      23.922   6.960  -0.344 -0.22 -0.01    -0.248 N 
DOCKED: ATOM     27  N   UNL d   1      22.117   4.870  -0.966 -0.20 -0.01    -0.248 N 
DOCKED: ATOM     28  N   UNL d   1      22.254   5.549  -3.787 -0.25 -0.03    -0.248 N 
DOCKED: ATOM     29 FE   UNL d   1      23.081   6.247  -2.077 -0.07 +0.00    +0.000 Fe
DOCKED: ATOM     30  O   UNL d   1      24.611   5.988  -2.195 -0.44 +0.00    +0.000 OA
DOCKED: ATOM     31  O   UNL d   1      23.604   4.779  -2.289 -0.82 +0.00    +0.000 OA
DOCKED: ENDROOT
DOCKED: BRANCH   6  32
DOCKED: ATOM     32  C   UNL d   1      25.176   9.414  -6.254 -0.36 +0.02    +0.052 C 
DOCKED: BRANCH  32  33
DOCKED: ATOM     33  C   UNL d   1      26.037   8.430  -7.040 -0.31 +0.07    +0.115 C 
DOCKED: BRANCH  33  34
DOCKED: ATOM     34  C   UNL d   1      25.292   7.809  -8.196 -0.07 +0.16    +0.139 C 
DOCKED: ATOM     35  O   UNL d   1      24.350   8.403  -8.695 -0.11 -0.59    -0.650 OA
DOCKED: BRANCH  34  36
DOCKED: ATOM     36  O   UNL d   1      25.627   6.594  -8.676 -0.46 -1.20    -0.776 OA
DOCKED: ATOM     37  H   UNL d   1      25.983   5.900  -8.109 -0.45 +0.10    +0.167 HD
DOCKED: ENDBRANCH  34  36
DOCKED: ENDBRANCH  33  34
DOCKED: ENDBRANCH  32  33
DOCKED: ENDBRANCH   6  32
DOCKED: BRANCH  22  38
DOCKED: ATOM     38  C   UNL d   1      21.548   5.507  -7.435 -0.28 +0.01    +0.052 C 
DOCKED: BRANCH  38  39
DOCKED: ATOM     39  C   UNL d   1      22.500   4.577  -8.184 -0.34 +0.03    +0.115 C 
DOCKED: BRANCH  39  40
DOCKED: ATOM     40  C   UNL d   1      21.882   4.006  -9.436 -0.27 +0.05    +0.139 C 
DOCKED: ATOM     41  O   UNL d   1      22.570   3.366 -10.214 -0.51 -0.28    -0.650 OA
DOCKED: BRANCH  40  42
DOCKED: ATOM     42  O   UNL d   1      20.566   4.146  -9.688 -0.12 -0.24    -0.776 OA
DOCKED: ATOM     43  H   UNL d   1      20.244   4.746 -10.371 +0.05 +0.05    +0.167 HD
DOCKED: ENDBRANCH  40  42
DOCKED: ENDBRANCH  39  40
DOCKED: ENDBRANCH  38  39
DOCKED: ENDBRANCH  22  38
DOCKED: BRANCH  12  44
DOCKED: ATOM     44  C   UNL d   1      24.369   7.498   3.374 -0.64 -0.00    +0.004 C 
DOCKED: ATOM     45  C   UNL d   1      24.145   6.501   4.229 -0.72 -0.00    +0.012 C 
DOCKED: ENDBRANCH  12  44
DOCKED: BRANCH  17  46
DOCKED: ATOM     46  C   UNL d   1      20.013   1.831  -0.618 -0.63 +0.00    +0.004 C 
DOCKED: ATOM     47  C   UNL d   1      20.360   0.557  -0.394 -0.73 -0.00    +0.012 C 
DOCKED: ENDBRANCH  17  46
DOCKED: TORSDOF 10
DOCKED: TER
DOCKED: ENDMDL
________________________________________________________________________________


	BEGINNING GENETIC ALGORITHM DOCKING 95 of 100
Run: 95 Seed: 1880053751 2145519286 [ Run 95 of 100 GA/GALS ]
Beginning LAMARCKIAN GENETIC ALGORITHM (LGA), with a maximum of 25000000 energy evaluations.

Final-Value: -18.318


	FINAL GENETIC ALGORITHM DOCKED STATE
	_______________________________________________


Detailed state:  trans 2.620 -6.830 -4.261 quatxyzw -0.156630 -0.473261 0.322301 -0.804744 center 8.287 34.468 -0.670 ntor 10 170.0962 115.6641 22.3752 -35.3517 -132.5249 8.7766 -65.7804 63.6392 -173.1986 -170.6443
State:	  2.620  -6.830  -4.261  -0.264 -0.797  0.543 -72.829    170.10  115.66   22.38  -35.35 -132.52    8.78  -65.78   63.64 -173.20 -170.64

DOCKED: MODEL       95
DOCKED: USER    Run = 95
DOCKED: USER    DPF = D:/Protein_go_brrr/autodock/final/1A3N/heme_O2/dock.dpf
DOCKED: USER  
DOCKED: USER    Estimated Free Energy of Binding    =  -12.88 kcal/mol  [=(1)+(2)+(3)-(4)]
DOCKED: USER    Estimated Inhibition Constant, Ki   =  363.19 pM (picomolar)  [Temperature = 298.15 K]
DOCKED: USER    
DOCKED: USER    (1) Final Intermolecular Energy     =  -15.86 kcal/mol
DOCKED: USER        vdW + Hbond + desolv Energy     =  -14.08 kcal/mol
DOCKED: USER        Electrostatic Energy            =   -1.78 kcal/mol
DOCKED: USER    (2) Final Total Internal Energy     =   -2.46 kcal/mol
DOCKED: USER    (3) Torsional Free Energy           =   +2.98 kcal/mol
DOCKED: USER    (4) Unbound System's Energy  [=(2)] =   -2.46 kcal/mol
DOCKED: USER    
DOCKED: USER    
DOCKED: USER    NEWDPF move heme_O2_opt.pdbqt
DOCKED: USER    NEWDPF about 8.287000 34.468000 -0.670000
DOCKED: USER    NEWDPF tran0 2.620238 -6.830499 -4.261228
DOCKED: USER    NEWDPF quaternion0 -0.156630 -0.473261 0.322301 -0.804744
DOCKED: USER    NEWDPF axisangle0 -0.263855 -0.797243 0.542941 -72.828911
DOCKED: USER    NEWDPF quat0 -0.263855 -0.797243 0.542941 -72.828911
DOCKED: USER    NEWDPF dihe0 170.10 115.66 22.38 -35.35 -132.52 8.78 -65.78 63.64 -173.20 -170.64 
DOCKED: USER  keepresnum = 1 
DOCKED: USER  
DOCKED: REMARK  10 active torsions:
DOCKED: REMARK  status: ('A' for Active; 'I' for Inactive)
DOCKED: REMARK    1  A    between atoms: C_6  and  C_10 
DOCKED: REMARK    2  A    between atoms: C_10  and  C_11 
DOCKED: REMARK    3  A    between atoms: C_11  and  C_12 
DOCKED: REMARK    4  A    between atoms: C_12  and  O_14 
DOCKED: REMARK    5  A    between atoms: C_17  and  C_20 
DOCKED: REMARK    6  A    between atoms: C_24  and  C_27 
DOCKED: REMARK    7  A    between atoms: C_31  and  C_34 
DOCKED: REMARK    8  A    between atoms: C_34  and  C_35 
DOCKED: REMARK    9  A    between atoms: C_35  and  C_36 
DOCKED: REMARK   10  A    between atoms: C_36  and  O_38 
DOCKED: USER                              x       y       z     vdW  Elec       q    Type
DOCKED: USER                           _______ _______ _______ _____ _____    ______ ____
DOCKED: ROOT
DOCKED: ATOM      1  C   UNL d   1       2.444  -7.588  -6.235 -0.26 +0.01    +0.064 A 
DOCKED: ATOM      2  C   UNL d   1       0.660  -9.027  -2.074 -0.39 +0.00    +0.064 A 
DOCKED: ATOM      3  C   UNL d   1       2.884  -5.440   0.225 -0.41 +0.00    +0.064 C 
DOCKED: ATOM      4  C   UNL d   1       4.337  -3.669  -4.114 -0.42 +0.01    +0.064 A 
DOCKED: ATOM      5  C   UNL d   1       1.776  -8.271  -5.291 -0.31 +0.01    +0.066 A 
DOCKED: ATOM      6  C   UNL d   1       1.013  -9.415  -5.545 -0.30 -0.00    -0.021 A 
DOCKED: ATOM      7  C   UNL d   1       0.461  -9.807  -4.348 -0.33 -0.00    -0.025 A 
DOCKED: ATOM      8  C   UNL d   1       0.941  -8.921  -3.387 -0.34 +0.01    +0.066 A 
DOCKED: ATOM      9  C   UNL d   1      -0.500 -10.963  -4.175 -0.29 +0.00    +0.051 C 
DOCKED: ATOM     10  C   UNL d   1       1.153  -8.142  -1.018 -0.39 +0.00    +0.066 A 
DOCKED: ATOM     11  C   UNL d   1       0.965  -8.393   0.346 -0.46 -0.00    -0.021 A 
DOCKED: ATOM     12  C   UNL d   1       1.614  -7.379   1.026 -0.43 +0.00    +0.000 A 
DOCKED: ATOM     13  C   UNL d   1       2.163  -6.542   0.015 -0.38 +0.00    +0.070 A 
DOCKED: ATOM     14  C   UNL d   1       0.221  -9.566   0.974 -0.61 -0.00    +0.052 C 
DOCKED: ATOM     15  C   UNL d   1       3.427  -4.547  -0.770 -0.36 +0.00    +0.066 A 
DOCKED: ATOM     16  C   UNL d   1       4.032  -3.322  -0.487 -0.45 -0.00    -0.021 A 
DOCKED: ATOM     17  C   UNL d   1       4.453  -2.799  -1.709 -0.47 +0.00    +0.000 A 
DOCKED: ATOM     18  C   UNL d   1       4.071  -3.756  -2.658 -0.39 +0.01    +0.070 A 
DOCKED: ATOM     19  C   UNL d   1       4.103  -2.742   0.904 -0.60 +0.00    +0.052 C 
DOCKED: ATOM     20  C   UNL d   1       3.946  -4.548  -5.057 -0.40 +0.01    +0.066 A 
DOCKED: ATOM     21  C   UNL d   1       4.242  -4.422  -6.411 -0.40 -0.00    -0.025 A 
DOCKED: ATOM     22  C   UNL d   1       3.734  -5.544  -7.027 -0.24 -0.00    -0.021 A 
DOCKED: ATOM     23  C   UNL d   1       3.128  -6.307  -6.024 -0.17 +0.01    +0.066 A 
DOCKED: ATOM     24  C   UNL d   1       4.969  -3.287  -7.084 -0.48 +0.00    +0.051 C 
DOCKED: ATOM     25  N   UNL d   1       1.698  -7.936  -3.980 -0.15 -0.02    -0.248 N 
DOCKED: ATOM     26  N   UNL d   1       1.873  -7.011  -1.225 -0.23 +0.00    -0.248 N 
DOCKED: ATOM     27  N   UNL d   1       3.383  -4.774  -2.080 -0.23 -0.01    -0.248 N 
DOCKED: ATOM     28  N   UNL d   1       3.221  -5.677  -4.835 -0.24 -0.04    -0.248 N 
DOCKED: ATOM     29 FE   UNL d   1       2.553  -6.336  -3.042 -0.09 -0.00    +0.000 Fe
DOCKED: ATOM     30  O   UNL d   1       0.999  -6.270  -3.106 +0.02 +0.00    +0.000 OA
DOCKED: ATOM     31  O   UNL d   1       1.846  -4.962  -3.332 -0.56 +0.00    +0.000 OA
DOCKED: ENDROOT
DOCKED: BRANCH   6  32
DOCKED: ATOM     32  C   UNL d   1       0.700 -10.038  -6.880 -0.23 +0.01    +0.052 C 
DOCKED: BRANCH  32  33
DOCKED: ATOM     33  C   UNL d   1      -0.568  -9.474  -7.515 -0.11 +0.06    +0.115 C 
DOCKED: BRANCH  33  34
DOCKED: ATOM     34  C   UNL d   1      -0.280  -8.665  -8.755 -0.12 +0.11    +0.139 C 
DOCKED: ATOM     35  O   UNL d   1      -0.013  -9.236  -9.800 -0.01 -0.34    -0.650 OA
DOCKED: BRANCH  34  36
DOCKED: ATOM     36  O   UNL d   1      -0.282  -7.316  -8.731 -0.07 -1.17    -0.776 OA
DOCKED: ATOM     37  H   UNL d   1       0.031  -6.791  -9.476 +0.04 +0.27    +0.167 HD
DOCKED: ENDBRANCH  34  36
DOCKED: ENDBRANCH  33  34
DOCKED: ENDBRANCH  32  33
DOCKED: ENDBRANCH   6  32
DOCKED: BRANCH  22  38
DOCKED: ATOM     38  C   UNL d   1       3.774  -5.828  -8.507 -0.12 +0.01    +0.052 C 
DOCKED: BRANCH  38  39
DOCKED: ATOM     39  C   UNL d   1       2.878  -4.884  -9.305 -0.21 +0.03    +0.115 C 
DOCKED: BRANCH  39  40
DOCKED: ATOM     40  C   UNL d   1       1.771  -5.612 -10.026 -0.16 +0.07    +0.139 C 
DOCKED: ATOM     41  O   UNL d   1       0.731  -5.030 -10.286 -0.18 -0.59    -0.650 OA
DOCKED: BRANCH  40  42
DOCKED: ATOM     42  O   UNL d   1       1.928  -6.886 -10.436 +0.05 -0.34    -0.776 OA
DOCKED: ATOM     43  H   UNL d   1       1.367  -7.596 -10.103 +0.04 +0.09    +0.167 HD
DOCKED: ENDBRANCH  40  42
DOCKED: ENDBRANCH  39  40
DOCKED: ENDBRANCH  38  39
DOCKED: ENDBRANCH  22  38
DOCKED: BRANCH  12  44
DOCKED: ATOM     44  C   UNL d   1       1.640  -7.314   2.539 -0.29 +0.00    +0.004 C 
DOCKED: ATOM     45  C   UNL d   1       1.925  -6.264   3.308 -0.58 +0.00    +0.012 C 
DOCKED: ENDBRANCH  12  44
DOCKED: BRANCH  17  46
DOCKED: ATOM     46  C   UNL d   1       5.112  -1.488  -2.048 -0.63 +0.00    +0.004 C 
DOCKED: ATOM     47  C   UNL d   1       4.826  -0.269  -1.571 -0.71 -0.00    +0.012 C 
DOCKED: ENDBRANCH  17  46
DOCKED: TORSDOF 10
DOCKED: TER
DOCKED: ENDMDL
________________________________________________________________________________


	BEGINNING GENETIC ALGORITHM DOCKING 96 of 100
Run: 96 Seed: 405943260 820278084 [ Run 96 of 100 GA/GALS ]
Beginning LAMARCKIAN GENETIC ALGORITHM (LGA), with a maximum of 25000000 energy evaluations.

Final-Value: -10.036


	FINAL GENETIC ALGORITHM DOCKED STATE
	_______________________________________________


Detailed state:  trans -6.559 27.261 11.973 quatxyzw -0.274158 -0.501052 0.731808 0.371808 center 8.287 34.468 -0.670 ntor 10 -90.8921 54.3332 113.5034 -105.2448 -94.0360 110.9221 80.1013 112.9369 -12.0931 -152.5744
State:	 -6.559  27.261  11.973  -0.295 -0.540  0.788 136.346    -90.89   54.33  113.50 -105.24  -94.04  110.92   80.10  112.94  -12.09 -152.57

DOCKED: MODEL       96
DOCKED: USER    Run = 96
DOCKED: USER    DPF = D:/Protein_go_brrr/autodock/final/1A3N/heme_O2/dock.dpf
DOCKED: USER  
DOCKED: USER    Estimated Free Energy of Binding    =   -6.48 kcal/mol  [=(1)+(2)+(3)-(4)]
DOCKED: USER    Estimated Inhibition Constant, Ki   =   17.65 uM (micromolar)  [Temperature = 298.15 K]
DOCKED: USER    
DOCKED: USER    (1) Final Intermolecular Energy     =   -9.47 kcal/mol
DOCKED: USER        vdW + Hbond + desolv Energy     =   -7.05 kcal/mol
DOCKED: USER        Electrostatic Energy            =   -2.41 kcal/mol
DOCKED: USER    (2) Final Total Internal Energy     =   -0.57 kcal/mol
DOCKED: USER    (3) Torsional Free Energy           =   +2.98 kcal/mol
DOCKED: USER    (4) Unbound System's Energy  [=(2)] =   -0.57 kcal/mol
DOCKED: USER    
DOCKED: USER    
DOCKED: USER    NEWDPF move heme_O2_opt.pdbqt
DOCKED: USER    NEWDPF about 8.287000 34.468000 -0.670000
DOCKED: USER    NEWDPF tran0 -6.559106 27.261456 11.972660
DOCKED: USER    NEWDPF quaternion0 -0.274158 -0.501052 0.731808 0.371808
DOCKED: USER    NEWDPF axisangle0 -0.295330 -0.539747 0.788323 136.345732
DOCKED: USER    NEWDPF quat0 -0.295330 -0.539747 0.788323 136.345732
DOCKED: USER    NEWDPF dihe0 -90.89 54.33 113.50 -105.24 -94.04 110.92 80.10 112.94 -12.09 -152.57 
DOCKED: USER  keepresnum = 1 
DOCKED: USER  
DOCKED: REMARK  10 active torsions:
DOCKED: REMARK  status: ('A' for Active; 'I' for Inactive)
DOCKED: REMARK    1  A    between atoms: C_6  and  C_10 
DOCKED: REMARK    2  A    between atoms: C_10  and  C_11 
DOCKED: REMARK    3  A    between atoms: C_11  and  C_12 
DOCKED: REMARK    4  A    between atoms: C_12  and  O_14 
DOCKED: REMARK    5  A    between atoms: C_17  and  C_20 
DOCKED: REMARK    6  A    between atoms: C_24  and  C_27 
DOCKED: REMARK    7  A    between atoms: C_31  and  C_34 
DOCKED: REMARK    8  A    between atoms: C_34  and  C_35 
DOCKED: REMARK    9  A    between atoms: C_35  and  C_36 
DOCKED: REMARK   10  A    between atoms: C_36  and  O_38 
DOCKED: USER                              x       y       z     vdW  Elec       q    Type
DOCKED: USER                           _______ _______ _______ _____ _____    ______ ____
DOCKED: ROOT
DOCKED: ATOM      1  C   UNL d   1      -4.971  28.382  12.823 -0.15 +0.03    +0.064 A 
DOCKED: ATOM      2  C   UNL d   1      -7.984  25.195  14.646 -0.28 -0.00    +0.064 A 
DOCKED: ATOM      3  C   UNL d   1     -10.178  24.703  10.399 -0.09 -0.00    +0.064 C 
DOCKED: ATOM      4  C   UNL d   1      -6.782  27.622   8.398 -0.03 +0.00    +0.064 A 
DOCKED: ATOM      5  C   UNL d   1      -5.611  27.554  13.665 -0.15 +0.02    +0.066 A 
DOCKED: ATOM      6  C   UNL d   1      -5.293  27.416  15.019 -0.17 -0.01    -0.021 A 
DOCKED: ATOM      7  C   UNL d   1      -6.136  26.461  15.538 -0.23 -0.00    -0.025 A 
DOCKED: ATOM      8  C   UNL d   1      -6.978  26.078  14.498 -0.22 +0.00    +0.066 A 
DOCKED: ATOM      9  C   UNL d   1      -6.088  25.944  16.959 -0.26 +0.00    +0.051 C 
DOCKED: ATOM     10  C   UNL d   1      -8.914  24.771  13.598 -0.15 +0.00    +0.066 A 
DOCKED: ATOM     11  C   UNL d   1     -10.041  23.978  13.844 -0.26 +0.00    -0.021 A 
DOCKED: ATOM     12  C   UNL d   1     -10.696  23.839  12.635 -0.17 -0.00    +0.000 A 
DOCKED: ATOM     13  C   UNL d   1      -9.909  24.562  11.696 -0.11 +0.00    +0.070 A 
DOCKED: ATOM     14  C   UNL d   1     -10.487  23.399  15.182 -0.29 -0.00    +0.052 C 
DOCKED: ATOM     15  C   UNL d   1      -9.389  25.396   9.410 -0.08 +0.00    +0.066 A 
DOCKED: ATOM     16  C   UNL d   1      -9.638  25.368   8.038 -0.05 +0.00    -0.021 A 
DOCKED: ATOM     17  C   UNL d   1      -8.682  26.193   7.446 -0.06 +0.00    +0.000 A 
DOCKED: ATOM     18  C   UNL d   1      -7.911  26.670   8.516 -0.07 +0.00    +0.070 A 
DOCKED: ATOM     19  C   UNL d   1     -10.721  24.523   7.416 -0.03 -0.00    +0.052 C 
DOCKED: ATOM     20  C   UNL d   1      -5.995  28.066   9.397 -0.11 +0.01    +0.066 A 
DOCKED: ATOM     21  C   UNL d   1      -4.956  28.977   9.227 -0.11 -0.00    -0.025 A 
DOCKED: ATOM     22  C   UNL d   1      -4.446  29.226  10.481 -0.11 -0.01    -0.021 A 
DOCKED: ATOM     23  C   UNL d   1      -5.184  28.440  11.372 -0.13 +0.02    +0.066 A 
DOCKED: ATOM     24  C   UNL d   1      -4.472  29.577   7.932 -0.09 +0.00    +0.051 C 
DOCKED: ATOM     25  N   UNL d   1      -6.611  26.703  13.329 -0.15 -0.03    -0.248 N 
DOCKED: ATOM     26  N   UNL d   1      -8.824  25.121  12.290 -0.10 -0.01    -0.248 N 
DOCKED: ATOM     27  N   UNL d   1      -8.307  26.117   9.691 -0.07 -0.01    -0.248 N 
DOCKED: ATOM     28  N   UNL d   1      -6.094  27.703  10.703 -0.08 -0.03    -0.248 N 
DOCKED: ATOM     29 FE   UNL d   1      -7.450  26.421  11.488 -0.04 +0.00    +0.000 Fe
DOCKED: ATOM     30  O   UNL d   1      -6.641  25.195  12.005 -0.39 +0.00    +0.000 OA
DOCKED: ATOM     31  O   UNL d   1      -6.554  25.605  10.486 -0.39 +0.00    +0.000 OA
DOCKED: ENDROOT
DOCKED: BRANCH   6  32
DOCKED: ATOM     32  C   UNL d   1      -4.151  28.052  15.769 -0.20 +0.02    +0.052 C 
DOCKED: BRANCH  32  33
DOCKED: ATOM     33  C   UNL d   1      -4.348  29.549  15.987 -0.09 +0.05    +0.115 C 
DOCKED: BRANCH  33  34
DOCKED: ATOM     34  C   UNL d   1      -3.533  30.383  15.029 -0.09 +0.10    +0.139 C 
DOCKED: ATOM     35  O   UNL d   1      -4.099  31.085  14.208 -0.03 -0.32    -0.650 OA
DOCKED: BRANCH  34  36
DOCKED: ATOM     36  O   UNL d   1      -2.184  30.349  15.040 -0.36 -1.27    -0.776 OA
DOCKED: ATOM     37  H   UNL d   1      -1.662  30.954  15.579 +0.02 +0.17    +0.167 HD
DOCKED: ENDBRANCH  34  36
DOCKED: ENDBRANCH  33  34
DOCKED: ENDBRANCH  32  33
DOCKED: ENDBRANCH   6  32
DOCKED: BRANCH  22  38
DOCKED: ATOM     38  C   UNL d   1      -3.274  30.120  10.791 -0.11 +0.03    +0.052 C 
DOCKED: BRANCH  38  39
DOCKED: ATOM     39  C   UNL d   1      -2.054  29.800   9.930 -0.13 +0.06    +0.115 C 
DOCKED: BRANCH  39  40
DOCKED: ATOM     40  C   UNL d   1      -1.450  28.458  10.261 -0.25 +0.11    +0.139 C 
DOCKED: ATOM     41  O   UNL d   1      -0.415  28.402  10.904 -0.24 -1.02    -0.650 OA
DOCKED: BRANCH  40  42
DOCKED: ATOM     42  O   UNL d   1      -2.062  27.313   9.904 +0.01 -0.30    -0.776 OA
DOCKED: ATOM     43  H   UNL d   1      -2.282  27.123   8.984 -0.41 -0.01    +0.167 HD
DOCKED: ENDBRANCH  40  42
DOCKED: ENDBRANCH  39  40
DOCKED: ENDBRANCH  38  39
DOCKED: ENDBRANCH  22  38
DOCKED: BRANCH  12  44
DOCKED: ATOM     44  C   UNL d   1     -11.979  23.045  12.502 -0.15 -0.00    +0.004 C 
DOCKED: ATOM     45  C   UNL d   1     -12.135  21.724  12.574 -0.26 -0.00    +0.012 C 
DOCKED: ENDBRANCH  12  44
DOCKED: BRANCH  17  46
DOCKED: ATOM     46  C   UNL d   1      -8.408  26.511   6.000 -0.05 -0.00    +0.004 C 
DOCKED: ATOM     47  C   UNL d   1      -7.344  26.167   5.263 -0.07 -0.00    +0.012 C 
DOCKED: ENDBRANCH  17  46
DOCKED: TORSDOF 10
DOCKED: TER
DOCKED: ENDMDL
________________________________________________________________________________


	BEGINNING GENETIC ALGORITHM DOCKING 97 of 100
Run: 97 Seed: 1730024396 355801977 [ Run 97 of 100 GA/GALS ]
Beginning LAMARCKIAN GENETIC ALGORITHM (LGA), with a maximum of 25000000 energy evaluations.

Final-Value: -14.287


	FINAL GENETIC ALGORITHM DOCKED STATE
	_______________________________________________


Detailed state:  trans 1.026 -7.913 -5.944 quatxyzw 0.713248 0.122897 0.690052 0.001370 center 8.287 34.468 -0.670 ntor 10 -22.4973 -51.1479 25.7845 -89.5916 -117.2825 -21.4365 119.7008 126.0787 45.0995 179.7993
State:	  1.026  -7.913  -5.944   0.713  0.123  0.690 179.843    -22.50  -51.15   25.78  -89.59 -117.28  -21.44  119.70  126.08   45.10  179.80

DOCKED: MODEL       97
DOCKED: USER    Run = 97
DOCKED: USER    DPF = D:/Protein_go_brrr/autodock/final/1A3N/heme_O2/dock.dpf
DOCKED: USER  
DOCKED: USER    Estimated Free Energy of Binding    =  -10.53 kcal/mol  [=(1)+(2)+(3)-(4)]
DOCKED: USER    Estimated Inhibition Constant, Ki   =   19.01 nM (nanomolar)  [Temperature = 298.15 K]
DOCKED: USER    
DOCKED: USER    (1) Final Intermolecular Energy     =  -13.52 kcal/mol
DOCKED: USER        vdW + Hbond + desolv Energy     =  -11.71 kcal/mol
DOCKED: USER        Electrostatic Energy            =   -1.80 kcal/mol
DOCKED: USER    (2) Final Total Internal Energy     =   -0.77 kcal/mol
DOCKED: USER    (3) Torsional Free Energy           =   +2.98 kcal/mol
DOCKED: USER    (4) Unbound System's Energy  [=(2)] =   -0.77 kcal/mol
DOCKED: USER    
DOCKED: USER    
DOCKED: USER    NEWDPF move heme_O2_opt.pdbqt
DOCKED: USER    NEWDPF about 8.287000 34.468000 -0.670000
DOCKED: USER    NEWDPF tran0 1.026377 -7.912564 -5.944407
DOCKED: USER    NEWDPF quaternion0 0.713248 0.122897 0.690052 0.001370
DOCKED: USER    NEWDPF axisangle0 0.713248 0.122897 0.690053 179.842998
DOCKED: USER    NEWDPF quat0 0.713248 0.122897 0.690053 179.842998
DOCKED: USER    NEWDPF dihe0 -22.50 -51.15 25.78 -89.59 -117.28 -21.44 119.70 126.08 45.10 179.80 
DOCKED: USER  keepresnum = 1 
DOCKED: USER  
DOCKED: REMARK  10 active torsions:
DOCKED: REMARK  status: ('A' for Active; 'I' for Inactive)
DOCKED: REMARK    1  A    between atoms: C_6  and  C_10 
DOCKED: REMARK    2  A    between atoms: C_10  and  C_11 
DOCKED: REMARK    3  A    between atoms: C_11  and  C_12 
DOCKED: REMARK    4  A    between atoms: C_12  and  O_14 
DOCKED: REMARK    5  A    between atoms: C_17  and  C_20 
DOCKED: REMARK    6  A    between atoms: C_24  and  C_27 
DOCKED: REMARK    7  A    between atoms: C_31  and  C_34 
DOCKED: REMARK    8  A    between atoms: C_34  and  C_35 
DOCKED: REMARK    9  A    between atoms: C_35  and  C_36 
DOCKED: REMARK   10  A    between atoms: C_36  and  O_38 
DOCKED: USER                              x       y       z     vdW  Elec       q    Type
DOCKED: USER                           _______ _______ _______ _____ _____    ______ ____
DOCKED: ROOT
DOCKED: ATOM      1  C   UNL d   1       0.313  -8.958  -7.647 -0.19 +0.03    +0.064 A 
DOCKED: ATOM      2  C   UNL d   1       3.498  -5.474  -7.124 -0.28 +0.01    +0.064 A 
DOCKED: ATOM      3  C   UNL d   1       2.742  -5.370  -2.379 -0.36 +0.00    +0.064 C 
DOCKED: ATOM      4  C   UNL d   1      -0.185  -9.279  -2.842 -0.41 +0.00    +0.064 A 
DOCKED: ATOM      5  C   UNL d   1       1.242  -8.020  -7.891 -0.21 +0.03    +0.066 A 
DOCKED: ATOM      6  C   UNL d   1       1.728  -7.712  -9.166 -0.17 -0.01    -0.021 A 
DOCKED: ATOM      7  C   UNL d   1       2.681  -6.734  -9.011 -0.19 -0.01    -0.025 A 
DOCKED: ATOM      8  C   UNL d   1       2.718  -6.436  -7.651 -0.23 +0.02    +0.066 A 
DOCKED: ATOM      9  C   UNL d   1       3.519  -6.157 -10.131 -0.14 +0.01    +0.051 C 
DOCKED: ATOM     10  C   UNL d   1       3.563  -5.101  -5.710 -0.36 +0.01    +0.066 A 
DOCKED: ATOM     11  C   UNL d   1       4.266  -3.987  -5.239 -0.45 -0.00    -0.021 A 
DOCKED: ATOM     12  C   UNL d   1       4.046  -3.929  -3.875 -0.45 +0.00    +0.000 A 
DOCKED: ATOM     13  C   UNL d   1       3.212  -5.044  -3.583 -0.32 +0.01    +0.070 A 
DOCKED: ATOM     14  C   UNL d   1       5.091  -3.002  -6.060 -0.49 +0.00    +0.052 C 
DOCKED: ATOM     15  C   UNL d   1       1.925  -6.509  -2.036 -0.17 +0.00    +0.066 A 
DOCKED: ATOM     16  C   UNL d   1       1.603  -6.887  -0.733 -0.38 -0.00    -0.021 A 
DOCKED: ATOM     17  C   UNL d   1       0.770  -8.000  -0.840 -0.41 +0.00    +0.000 A 
DOCKED: ATOM     18  C   UNL d   1       0.642  -8.219  -2.218 -0.37 +0.00    +0.070 A 
DOCKED: ATOM     19  C   UNL d   1       2.158  -6.193   0.486 -0.44 +0.00    +0.052 C 
DOCKED: ATOM     20  C   UNL d   1      -0.295  -9.544  -4.158 -0.34 +0.01    +0.066 A 
DOCKED: ATOM     21  C   UNL d   1      -1.104 -10.546  -4.687 -0.25 -0.00    -0.025 A 
DOCKED: ATOM     22  C   UNL d   1      -0.996 -10.451  -6.057 -0.15 -0.00    -0.021 A 
DOCKED: ATOM     23  C   UNL d   1      -0.107  -9.403  -6.313 -0.22 +0.02    +0.066 A 
DOCKED: ATOM     24  C   UNL d   1      -1.936 -11.545  -3.925 -0.30 -0.00    +0.051 C 
DOCKED: ATOM     25  N   UNL d   1       1.878  -7.275  -6.954 -0.14 -0.09    -0.248 N 
DOCKED: ATOM     26  N   UNL d   1       2.926  -5.754  -4.704 -0.24 -0.05    -0.248 N 
DOCKED: ATOM     27  N   UNL d   1       1.410  -7.352  -2.926 -0.21 -0.02    -0.248 N 
DOCKED: ATOM     28  N   UNL d   1       0.352  -8.884  -5.155 -0.20 -0.06    -0.248 N 
DOCKED: ATOM     29 FE   UNL d   1       1.630  -7.331  -4.928 -0.07 +0.00    +0.000 Fe
DOCKED: ATOM     30  O   UNL d   1       3.021  -7.839  -5.405 -0.30 +0.00    +0.000 OA
DOCKED: ATOM     31  O   UNL d   1       2.279  -8.581  -4.230 -0.10 +0.00    +0.000 OA
DOCKED: ENDROOT
DOCKED: BRANCH   6  32
DOCKED: ATOM     32  C   UNL d   1       1.410  -8.404 -10.466 -0.09 +0.02    +0.052 C 
DOCKED: BRANCH  32  33
DOCKED: ATOM     33  C   UNL d   1       0.981  -7.435 -11.564 -0.06 +0.05    +0.115 C 
DOCKED: BRANCH  33  34
DOCKED: ATOM     34  C   UNL d   1      -0.289  -6.700 -11.217 -0.03 +0.15    +0.139 C 
DOCKED: ATOM     35  O   UNL d   1      -0.226  -5.620 -10.650 -0.40 -1.05    -0.650 OA
DOCKED: BRANCH  34  36
DOCKED: ATOM     36  O   UNL d   1      -1.502  -7.221 -11.494 -0.04 -0.92    -0.776 OA
DOCKED: ATOM     37  H   UNL d   1      -1.626  -7.893 -12.175 +0.01 +0.11    +0.167 HD
DOCKED: ENDBRANCH  34  36
DOCKED: ENDBRANCH  33  34
DOCKED: ENDBRANCH  32  33
DOCKED: ENDBRANCH   6  32
DOCKED: BRANCH  22  38
DOCKED: ATOM     38  C   UNL d   1      -1.662 -11.362  -7.055 -0.14 +0.01    +0.052 C 
DOCKED: BRANCH  38  39
DOCKED: ATOM     39  C   UNL d   1      -0.940 -12.701  -7.194 -0.09 +0.01    +0.115 C 
DOCKED: BRANCH  39  40
DOCKED: ATOM     40  C   UNL d   1       0.520 -12.536  -7.536 -0.12 +0.02    +0.139 C 
DOCKED: ATOM     41  O   UNL d   1       1.371 -13.027  -6.812 +0.00 -0.05    -0.650 OA
DOCKED: BRANCH  40  42
DOCKED: ATOM     42  O   UNL d   1       0.904 -11.898  -8.658 +0.03 -0.11    -0.776 OA
DOCKED: ATOM     43  H   UNL d   1       0.512 -12.105  -9.515 +0.02 +0.02    +0.167 HD
DOCKED: ENDBRANCH  40  42
DOCKED: ENDBRANCH  39  40
DOCKED: ENDBRANCH  38  39
DOCKED: ENDBRANCH  22  38
DOCKED: BRANCH  12  44
DOCKED: ATOM     44  C   UNL d   1       4.645  -2.841  -3.009 -0.55 +0.00    +0.004 C 
DOCKED: ATOM     45  C   UNL d   1       4.852  -2.863  -1.693 -0.55 +0.00    +0.012 C 
DOCKED: ENDBRANCH  12  44
DOCKED: BRANCH  17  46
DOCKED: ATOM     46  C   UNL d   1       0.153  -8.878   0.217 -0.58 -0.00    +0.004 C 
DOCKED: ATOM     47  C   UNL d   1       0.602 -10.048   0.687 -0.61 -0.00    +0.012 C 
DOCKED: ENDBRANCH  17  46
DOCKED: TORSDOF 10
DOCKED: TER
DOCKED: ENDMDL
________________________________________________________________________________


	BEGINNING GENETIC ALGORITHM DOCKING 98 of 100
Run: 98 Seed: 1359055111 1940189222 [ Run 98 of 100 GA/GALS ]
Beginning LAMARCKIAN GENETIC ALGORITHM (LGA), with a maximum of 25000000 energy evaluations.

Final-Value: -20.138


	FINAL GENETIC ALGORITHM DOCKED STATE
	_______________________________________________


Detailed state:  trans 8.436 11.692 28.432 quatxyzw 0.749644 -0.419913 -0.497419 -0.119502 center 8.287 34.468 -0.670 ntor 10 125.4134 -28.4357 49.4148 -65.7309 -180.0000 -146.5288 -60.8386 -26.4667 -168.0312 119.1881
State:	  8.436  11.692  28.432   0.755 -0.423 -0.501 -166.273    125.41  -28.44   49.41  -65.73 -180.00 -146.53  -60.84  -26.47 -168.03  119.19

DOCKED: MODEL       98
DOCKED: USER    Run = 98
DOCKED: USER    DPF = D:/Protein_go_brrr/autodock/final/1A3N/heme_O2/dock.dpf
DOCKED: USER  
DOCKED: USER    Estimated Free Energy of Binding    =  -15.07 kcal/mol  [=(1)+(2)+(3)-(4)]
DOCKED: USER    Estimated Inhibition Constant, Ki   =    8.96 pM (picomolar)  [Temperature = 298.15 K]
DOCKED: USER    
DOCKED: USER    (1) Final Intermolecular Energy     =  -18.05 kcal/mol
DOCKED: USER        vdW + Hbond + desolv Energy     =  -15.95 kcal/mol
DOCKED: USER        Electrostatic Energy            =   -2.10 kcal/mol
DOCKED: USER    (2) Final Total Internal Energy     =   -2.08 kcal/mol
DOCKED: USER    (3) Torsional Free Energy           =   +2.98 kcal/mol
DOCKED: USER    (4) Unbound System's Energy  [=(2)] =   -2.08 kcal/mol
DOCKED: USER    
DOCKED: USER    
DOCKED: USER    NEWDPF move heme_O2_opt.pdbqt
DOCKED: USER    NEWDPF about 8.287000 34.468000 -0.670000
DOCKED: USER    NEWDPF tran0 8.435891 11.691556 28.432275
DOCKED: USER    NEWDPF quaternion0 0.749644 -0.419913 -0.497419 -0.119502
DOCKED: USER    NEWDPF axisangle0 0.755055 -0.422944 -0.501009 -166.273294
DOCKED: USER    NEWDPF quat0 0.755055 -0.422944 -0.501009 -166.273294
DOCKED: USER    NEWDPF dihe0 125.41 -28.44 49.41 -65.73 -180.00 -146.53 -60.84 -26.47 -168.03 119.19 
DOCKED: USER  keepresnum = 1 
DOCKED: USER  
DOCKED: REMARK  10 active torsions:
DOCKED: REMARK  status: ('A' for Active; 'I' for Inactive)
DOCKED: REMARK    1  A    between atoms: C_6  and  C_10 
DOCKED: REMARK    2  A    between atoms: C_10  and  C_11 
DOCKED: REMARK    3  A    between atoms: C_11  and  C_12 
DOCKED: REMARK    4  A    between atoms: C_12  and  O_14 
DOCKED: REMARK    5  A    between atoms: C_17  and  C_20 
DOCKED: REMARK    6  A    between atoms: C_24  and  C_27 
DOCKED: REMARK    7  A    between atoms: C_31  and  C_34 
DOCKED: REMARK    8  A    between atoms: C_34  and  C_35 
DOCKED: REMARK    9  A    between atoms: C_35  and  C_36 
DOCKED: REMARK   10  A    between atoms: C_36  and  O_38 
DOCKED: USER                              x       y       z     vdW  Elec       q    Type
DOCKED: USER                           _______ _______ _______ _____ _____    ______ ____
DOCKED: ROOT
DOCKED: ATOM      1  C   UNL d   1       8.520  12.528  30.380 -0.16 +0.02    +0.064 A 
DOCKED: ATOM      2  C   UNL d   1       6.955  14.220  26.227 -0.37 +0.01    +0.064 A 
DOCKED: ATOM      3  C   UNL d   1       8.188  10.145  23.997 -0.40 +0.00    +0.064 C 
DOCKED: ATOM      4  C   UNL d   1       9.361   8.213  28.351 -0.37 +0.01    +0.064 A 
DOCKED: ATOM      5  C   UNL d   1       7.992  13.320  29.433 -0.19 +0.01    +0.066 A 
DOCKED: ATOM      6  C   UNL d   1       7.528  14.617  29.667 -0.35 -0.01    -0.021 A 
DOCKED: ATOM      7  C   UNL d   1       7.035  15.092  28.474 -0.41 -0.00    -0.025 A 
DOCKED: ATOM      8  C   UNL d   1       7.256  14.090  27.534 -0.35 +0.01    +0.066 A 
DOCKED: ATOM      9  C   UNL d   1       6.363  16.436  28.288 -0.44 +0.01    +0.051 C 
DOCKED: ATOM     10  C   UNL d   1       7.185  13.213  25.190 -0.35 +0.00    +0.066 A 
DOCKED: ATOM     11  C   UNL d   1       7.006  13.461  23.824 -0.33 -0.00    -0.021 A 
DOCKED: ATOM     12  C   UNL d   1       7.373  12.303  23.163 -0.40 +0.00    +0.000 A 
DOCKED: ATOM     13  C   UNL d   1       7.752  11.391  24.187 -0.29 +0.00    +0.070 A 
DOCKED: ATOM     14  C   UNL d   1       6.531  14.756  23.176 -0.32 +0.00    +0.052 C 
DOCKED: ATOM     15  C   UNL d   1       8.547   9.179  25.007 -0.40 +0.01    +0.066 A 
DOCKED: ATOM     16  C   UNL d   1       8.838   7.840  24.751 -0.52 -0.00    -0.021 A 
DOCKED: ATOM     17  C   UNL d   1       9.175   7.268  25.978 -0.49 +0.00    +0.000 A 
DOCKED: ATOM     18  C   UNL d   1       9.065   8.317  26.903 -0.38 +0.01    +0.070 A 
DOCKED: ATOM     19  C   UNL d   1       8.716   7.218  23.383 -0.51 +0.00    +0.052 C 
DOCKED: ATOM     20  C   UNL d   1       9.225   9.187  29.272 -0.38 +0.01    +0.066 A 
DOCKED: ATOM     21  C   UNL d   1       9.537   9.035  30.620 -0.42 -0.01    -0.025 A 
DOCKED: ATOM     22  C   UNL d   1       9.329  10.263  31.208 -0.37 -0.01    -0.021 A 
DOCKED: ATOM     23  C   UNL d   1       8.879  11.116  30.197 -0.30 +0.02    +0.066 A 
DOCKED: ATOM     24  C   UNL d   1      10.006   7.782  31.312 -0.51 +0.01    +0.051 C 
DOCKED: ATOM     25  N   UNL d   1       7.786  12.974  28.138 -0.16 -0.02    -0.248 N 
DOCKED: ATOM     26  N   UNL d   1       7.630  11.951  25.417 -0.23 -0.01    -0.248 N 
DOCKED: ATOM     27  N   UNL d   1       8.610   9.449  26.308 -0.22 -0.03    -0.248 N 
DOCKED: ATOM     28  N   UNL d   1       8.774  10.447  29.031 -0.27 -0.05    -0.248 N 
DOCKED: ATOM     29 FE   UNL d   1       8.206  11.191  27.236 -0.08 +0.00    +0.000 Fe
DOCKED: ATOM     30  O   UNL d   1       6.684  11.493  27.352 -0.45 +0.00    +0.000 OA
DOCKED: ATOM     31  O   UNL d   1       7.211  10.029  27.601 -0.77 +0.00    +0.000 OA
DOCKED: ENDROOT
DOCKED: BRANCH   6  32
DOCKED: ATOM     32  C   UNL d   1       7.423  15.336  30.987 -0.33 +0.02    +0.052 C 
DOCKED: BRANCH  32  33
DOCKED: ATOM     33  C   UNL d   1       6.139  15.005  31.741 -0.26 +0.07    +0.115 C 
DOCKED: BRANCH  33  34
DOCKED: ATOM     34  C   UNL d   1       6.405  14.317  33.057 -0.13 +0.15    +0.139 C 
DOCKED: ATOM     35  O   UNL d   1       7.445  14.542  33.656 -0.01 -0.64    -0.650 OA
DOCKED: BRANCH  34  36
DOCKED: ATOM     36  O   UNL d   1       5.531  13.431  33.577 -0.32 -1.12    -0.776 OA
DOCKED: ATOM     37  H   UNL d   1       5.796  12.539  33.828 +0.04 +0.16    +0.167 HD
DOCKED: ENDBRANCH  34  36
DOCKED: ENDBRANCH  33  34
DOCKED: ENDBRANCH  32  33
DOCKED: ENDBRANCH   6  32
DOCKED: BRANCH  22  38
DOCKED: ATOM     38  C   UNL d   1       9.495  10.573  32.674 -0.24 +0.03    +0.052 C 
DOCKED: BRANCH  38  39
DOCKED: ATOM     39  C   UNL d   1       8.385  11.478  33.205 -0.27 +0.06    +0.115 C 
DOCKED: BRANCH  39  40
DOCKED: ATOM     40  C   UNL d   1       8.130  11.273  34.678 -0.22 +0.09    +0.139 C 
DOCKED: ATOM     41  O   UNL d   1       8.762  10.427  35.290 -0.46 -0.47    -0.650 OA
DOCKED: BRANCH  40  42
DOCKED: ATOM     42  O   UNL d   1       7.251  12.044  35.346 +0.08 -0.63    -0.776 OA
DOCKED: ATOM     43  H   UNL d   1       7.036  12.937  35.050 +0.06 +0.19    +0.167 HD
DOCKED: ENDBRANCH  40  42
DOCKED: ENDBRANCH  39  40
DOCKED: ENDBRANCH  38  39
DOCKED: ENDBRANCH  22  38
DOCKED: BRANCH  12  44
DOCKED: ATOM     44  C   UNL d   1       7.323  12.189  21.654 -0.58 +0.00    +0.004 C 
DOCKED: ATOM     45  C   UNL d   1       6.843  11.181  20.925 -0.71 -0.00    +0.012 C 
DOCKED: ENDBRANCH  12  44
DOCKED: BRANCH  17  46
DOCKED: ATOM     46  C   UNL d   1       9.523   5.850  26.346 -0.67 +0.00    +0.004 C 
DOCKED: ATOM     47  C   UNL d   1       8.708   4.790  26.421 -0.73 +0.00    +0.012 C 
DOCKED: ENDBRANCH  17  46
DOCKED: TORSDOF 10
DOCKED: TER
DOCKED: ENDMDL
________________________________________________________________________________


	BEGINNING GENETIC ALGORITHM DOCKING 99 of 100
Run: 99 Seed: 1511766801 971816777 [ Run 99 of 100 GA/GALS ]
Beginning LAMARCKIAN GENETIC ALGORITHM (LGA), with a maximum of 25000000 energy evaluations.

Final-Value: -16.313


	FINAL GENETIC ALGORITHM DOCKED STATE
	_______________________________________________


Detailed state:  trans 7.548 13.694 30.942 quatxyzw -0.125110 -0.738436 0.192228 0.634120 center 8.287 34.468 -0.670 ntor 10 135.4676 -124.0860 -65.4764 49.2736 -114.8091 7.6139 179.6379 81.3487 8.8972 148.2178
State:	  7.548  13.694  30.942  -0.162 -0.955  0.249 101.291    135.47 -124.09  -65.48   49.27 -114.81    7.61  179.64   81.35    8.90  148.22

DOCKED: MODEL       99
DOCKED: USER    Run = 99
DOCKED: USER    DPF = D:/Protein_go_brrr/autodock/final/1A3N/heme_O2/dock.dpf
DOCKED: USER  
DOCKED: USER    Estimated Free Energy of Binding    =  -12.59 kcal/mol  [=(1)+(2)+(3)-(4)]
DOCKED: USER    Estimated Inhibition Constant, Ki   =  590.20 pM (picomolar)  [Temperature = 298.15 K]
DOCKED: USER    
DOCKED: USER    (1) Final Intermolecular Energy     =  -15.57 kcal/mol
DOCKED: USER        vdW + Hbond + desolv Energy     =  -12.88 kcal/mol
DOCKED: USER        Electrostatic Energy            =   -2.69 kcal/mol
DOCKED: USER    (2) Final Total Internal Energy     =   -0.74 kcal/mol
DOCKED: USER    (3) Torsional Free Energy           =   +2.98 kcal/mol
DOCKED: USER    (4) Unbound System's Energy  [=(2)] =   -0.74 kcal/mol
DOCKED: USER    
DOCKED: USER    
DOCKED: USER    NEWDPF move heme_O2_opt.pdbqt
DOCKED: USER    NEWDPF about 8.287000 34.468000 -0.670000
DOCKED: USER    NEWDPF tran0 7.548154 13.693972 30.942144
DOCKED: USER    NEWDPF quaternion0 -0.125110 -0.738436 0.192228 0.634120
DOCKED: USER    NEWDPF axisangle0 -0.161800 -0.954996 0.248603 101.290535
DOCKED: USER    NEWDPF quat0 -0.161800 -0.954996 0.248603 101.290535
DOCKED: USER    NEWDPF dihe0 135.47 -124.09 -65.48 49.27 -114.81 7.61 179.64 81.35 8.90 148.22 
DOCKED: USER  keepresnum = 1 
DOCKED: USER  
DOCKED: REMARK  10 active torsions:
DOCKED: REMARK  status: ('A' for Active; 'I' for Inactive)
DOCKED: REMARK    1  A    between atoms: C_6  and  C_10 
DOCKED: REMARK    2  A    between atoms: C_10  and  C_11 
DOCKED: REMARK    3  A    between atoms: C_11  and  C_12 
DOCKED: REMARK    4  A    between atoms: C_12  and  O_14 
DOCKED: REMARK    5  A    between atoms: C_17  and  C_20 
DOCKED: REMARK    6  A    between atoms: C_24  and  C_27 
DOCKED: REMARK    7  A    between atoms: C_31  and  C_34 
DOCKED: REMARK    8  A    between atoms: C_34  and  C_35 
DOCKED: REMARK    9  A    between atoms: C_35  and  C_36 
DOCKED: REMARK   10  A    between atoms: C_36  and  O_38 
DOCKED: USER                              x       y       z     vdW  Elec       q    Type
DOCKED: USER                           _______ _______ _______ _____ _____    ______ ____
DOCKED: ROOT
DOCKED: ATOM      1  C   UNL d   1       7.403  14.697  32.805 -0.24 +0.05    +0.064 A 
DOCKED: ATOM      2  C   UNL d   1       9.334  10.547  31.538 -0.31 +0.02    +0.064 A 
DOCKED: ATOM      3  C   UNL d   1       7.960  11.194  26.979 -0.38 +0.01    +0.064 C 
DOCKED: ATOM      4  C   UNL d   1       6.389  15.685  28.176 -0.43 +0.01    +0.064 A 
DOCKED: ATOM      5  C   UNL d   1       8.042  13.516  32.832 -0.22 +0.04    +0.066 A 
DOCKED: ATOM      6  C   UNL d   1       8.581  12.944  33.988 -0.18 -0.01    -0.021 A 
DOCKED: ATOM      7  C   UNL d   1       9.178  11.763  33.615 -0.23 -0.02    -0.025 A 
DOCKED: ATOM      8  C   UNL d   1       8.946  11.623  32.250 -0.25 +0.03    +0.066 A 
DOCKED: ATOM      9  C   UNL d   1       9.952  10.853  34.544 -0.25 +0.05    +0.051 C 
DOCKED: ATOM     10  C   UNL d   1       9.099  10.333  30.110 -0.37 +0.02    +0.066 A 
DOCKED: ATOM     11  C   UNL d   1       9.379   9.128  29.456 -0.43 -0.00    -0.021 A 
DOCKED: ATOM     12  C   UNL d   1       8.972   9.289  28.144 -0.43 +0.00    +0.000 A 
DOCKED: ATOM     13  C   UNL d   1       8.469  10.617  28.067 -0.33 +0.01    +0.070 A 
DOCKED: ATOM     14  C   UNL d   1       9.982   7.867  30.063 -0.51 +0.01    +0.052 C 
DOCKED: ATOM     15  C   UNL d   1       7.472  12.546  26.851 -0.31 +0.00    +0.066 A 
DOCKED: ATOM     16  C   UNL d   1       7.105  13.144  25.646 -0.38 -0.00    -0.021 A 
DOCKED: ATOM     17  C   UNL d   1       6.654  14.425  25.962 -0.42 +0.00    +0.000 A 
DOCKED: ATOM     18  C   UNL d   1       6.780  14.514  27.356 -0.39 +0.01    +0.070 A 
DOCKED: ATOM     19  C   UNL d   1       7.267  12.466  24.309 -0.41 +0.00    +0.052 C 
DOCKED: ATOM     20  C   UNL d   1       6.536  15.820  29.508 -0.38 +0.01    +0.066 A 
DOCKED: ATOM     21  C   UNL d   1       6.132  16.940  30.229 -0.35 -0.01    -0.025 A 
DOCKED: ATOM     22  C   UNL d   1       6.388  16.665  31.553 -0.18 -0.01    -0.021 A 
DOCKED: ATOM     23  C   UNL d   1       6.959  15.389  31.590 -0.28 +0.03    +0.066 A 
DOCKED: ATOM     24  C   UNL d   1       5.534  18.210  29.680 -0.40 +0.01    +0.051 C 
DOCKED: ATOM     25  N   UNL d   1       8.303  12.734  31.756 -0.17 -0.10    -0.248 N 
DOCKED: ATOM     26  N   UNL d   1       8.554  11.247  29.266 -0.22 -0.05    -0.248 N 
DOCKED: ATOM     27  N   UNL d   1       7.348  13.393  27.869 -0.23 -0.03    -0.248 N 
DOCKED: ATOM     28  N   UNL d   1       7.088  14.897  30.341 -0.21 -0.07    -0.248 N 
DOCKED: ATOM     29 FE   UNL d   1       7.815  13.086  29.805 -0.08 +0.00    +0.000 Fe
DOCKED: ATOM     30  O   UNL d   1       9.345  13.131  30.088 -0.38 +0.00    +0.000 OA
DOCKED: ATOM     31  O   UNL d   1       8.703  14.178  29.101 -0.19 +0.00    +0.000 OA
DOCKED: ENDROOT
DOCKED: BRANCH   6  32
DOCKED: ATOM     32  C   UNL d   1       8.654  13.546  35.368 -0.13 +0.04    +0.052 C 
DOCKED: BRANCH  32  33
DOCKED: ATOM     33  C   UNL d   1       7.464  13.167  36.244 -0.11 +0.12    +0.115 C 
DOCKED: BRANCH  33  34
DOCKED: ATOM     34  C   UNL d   1       6.452  12.325  35.506 -0.20 +0.15    +0.139 C 
DOCKED: ATOM     35  O   UNL d   1       6.508  11.108  35.583 -0.00 -0.43    -0.650 OA
DOCKED: BRANCH  34  36
DOCKED: ATOM     36  O   UNL d   1       5.498  12.887  34.736 -0.13 -1.51    -0.776 OA
DOCKED: ATOM     37  H   UNL d   1       5.278  12.543  33.862 +0.01 +0.18    +0.167 HD
DOCKED: ENDBRANCH  34  36
DOCKED: ENDBRANCH  33  34
DOCKED: ENDBRANCH  32  33
DOCKED: ENDBRANCH   6  32
DOCKED: BRANCH  22  38
DOCKED: ATOM     38  C   UNL d   1       6.155  17.606  32.706 +0.19 +0.03    +0.052 C 
DOCKED: BRANCH  38  39
DOCKED: ATOM     39  C   UNL d   1       7.460  18.117  33.314 -0.15 +0.06    +0.115 C 
DOCKED: BRANCH  39  40
DOCKED: ATOM     40  C   UNL d   1       7.840  17.374  34.570 -0.12 +0.10    +0.139 C 
DOCKED: ATOM     41  O   UNL d   1       9.015  17.278  34.886 +0.00 -0.34    -0.650 OA
DOCKED: BRANCH  40  42
DOCKED: ATOM     42  O   UNL d   1       6.900  16.855  35.383 -0.52 -1.35    -0.776 OA
DOCKED: ATOM     43  H   UNL d   1       6.834  17.116  36.310 +0.00 +0.24    +0.167 HD
DOCKED: ENDBRANCH  40  42
DOCKED: ENDBRANCH  39  40
DOCKED: ENDBRANCH  38  39
DOCKED: ENDBRANCH  22  38
DOCKED: BRANCH  12  44
DOCKED: ATOM     44  C   UNL d   1       9.108   8.182  27.119 -0.51 +0.00    +0.004 C 
DOCKED: ATOM     45  C   UNL d   1       8.136   7.469  26.551 -0.54 +0.00    +0.012 C 
DOCKED: ENDBRANCH  12  44
DOCKED: BRANCH  17  46
DOCKED: ATOM     46  C   UNL d   1       6.186  15.554  25.082 -0.55 +0.00    +0.004 C 
DOCKED: ATOM     47  C   UNL d   1       5.382  15.491  24.013 -0.59 +0.00    +0.012 C 
DOCKED: ENDBRANCH  17  46
DOCKED: TORSDOF 10
DOCKED: TER
DOCKED: ENDMDL
________________________________________________________________________________


	BEGINNING GENETIC ALGORITHM DOCKING 100 of 100
Run: 100 Seed: 1571527900 1333221249 [ Run 100 of 100 GA/GALS ]
Beginning LAMARCKIAN GENETIC ALGORITHM (LGA), with a maximum of 25000000 energy evaluations.

Final-Value: -15.892


	FINAL GENETIC ALGORITHM DOCKED STATE
	_______________________________________________


Detailed state:  trans 7.981 11.947 31.218 quatxyzw 0.483079 0.808002 0.200594 -0.271163 center 8.287 34.468 -0.670 ntor 10 11.7921 -84.6283 5.9848 22.3464 -120.2560 115.0467 63.1576 -99.0349 -147.5222 146.7100
State:	  7.981  11.947  31.218   0.502  0.839  0.208 -148.533     11.79  -84.63    5.98   22.35 -120.26  115.05   63.16  -99.03 -147.52  146.71

DOCKED: MODEL      100
DOCKED: USER    Run = 100
DOCKED: USER    DPF = D:/Protein_go_brrr/autodock/final/1A3N/heme_O2/dock.dpf
DOCKED: USER  
DOCKED: USER    Estimated Free Energy of Binding    =  -12.17 kcal/mol  [=(1)+(2)+(3)-(4)]
DOCKED: USER    Estimated Inhibition Constant, Ki   =    1.20 nM (nanomolar)  [Temperature = 298.15 K]
DOCKED: USER    
DOCKED: USER    (1) Final Intermolecular Energy     =  -15.15 kcal/mol
DOCKED: USER        vdW + Hbond + desolv Energy     =  -12.95 kcal/mol
DOCKED: USER        Electrostatic Energy            =   -2.20 kcal/mol
DOCKED: USER    (2) Final Total Internal Energy     =   -0.74 kcal/mol
DOCKED: USER    (3) Torsional Free Energy           =   +2.98 kcal/mol
DOCKED: USER    (4) Unbound System's Energy  [=(2)] =   -0.74 kcal/mol
DOCKED: USER    
DOCKED: USER    
DOCKED: USER    NEWDPF move heme_O2_opt.pdbqt
DOCKED: USER    NEWDPF about 8.287000 34.468000 -0.670000
DOCKED: USER    NEWDPF tran0 7.981381 11.946662 31.218038
DOCKED: USER    NEWDPF quaternion0 0.483079 0.808002 0.200594 -0.271163
DOCKED: USER    NEWDPF axisangle0 0.501883 0.839454 0.208402 -148.533028
DOCKED: USER    NEWDPF quat0 0.501883 0.839454 0.208402 -148.533028
DOCKED: USER    NEWDPF dihe0 11.79 -84.63 5.98 22.35 -120.26 115.05 63.16 -99.03 -147.52 146.71 
DOCKED: USER  keepresnum = 1 
DOCKED: USER  
DOCKED: REMARK  10 active torsions:
DOCKED: REMARK  status: ('A' for Active; 'I' for Inactive)
DOCKED: REMARK    1  A    between atoms: C_6  and  C_10 
DOCKED: REMARK    2  A    between atoms: C_10  and  C_11 
DOCKED: REMARK    3  A    between atoms: C_11  and  C_12 
DOCKED: REMARK    4  A    between atoms: C_12  and  O_14 
DOCKED: REMARK    5  A    between atoms: C_17  and  C_20 
DOCKED: REMARK    6  A    between atoms: C_24  and  C_27 
DOCKED: REMARK    7  A    between atoms: C_31  and  C_34 
DOCKED: REMARK    8  A    between atoms: C_34  and  C_35 
DOCKED: REMARK    9  A    between atoms: C_35  and  C_36 
DOCKED: REMARK   10  A    between atoms: C_36  and  O_38 
DOCKED: USER                              x       y       z     vdW  Elec       q    Type
DOCKED: USER                           _______ _______ _______ _____ _____    ______ ____
DOCKED: ROOT
DOCKED: ATOM      1  C   UNL d   1       8.602  10.506  32.646 -0.33 +0.03    +0.064 A 
DOCKED: ATOM      2  C   UNL d   1       8.659  10.547  27.897 -0.34 +0.01    +0.064 A 
DOCKED: ATOM      3  C   UNL d   1       6.628  14.902  27.818 -0.46 +0.01    +0.064 C 
DOCKED: ATOM      4  C   UNL d   1       7.002  15.075  32.706 -0.22 +0.05    +0.064 A 
DOCKED: ATOM      5  C   UNL d   1       8.785  10.163  31.361 -0.36 +0.02    +0.066 A 
DOCKED: ATOM      6  C   UNL d   1       9.333   8.946  30.946 -0.39 -0.01    -0.021 A 
DOCKED: ATOM      7  C   UNL d   1       9.390   8.974  29.572 -0.40 -0.01    -0.025 A 
DOCKED: ATOM      8  C   UNL d   1       8.831  10.188  29.184 -0.38 +0.01    +0.066 A 
DOCKED: ATOM      9  C   UNL d   1       9.987   7.885  28.708 -0.42 +0.01    +0.051 C 
DOCKED: ATOM     10  C   UNL d   1       8.058  11.796  27.428 -0.22 +0.00    +0.066 A 
DOCKED: ATOM     11  C   UNL d   1       7.755  12.048  26.085 -0.34 -0.00    -0.021 A 
DOCKED: ATOM     12  C   UNL d   1       7.152  13.292  26.044 -0.39 +0.00    +0.000 A 
DOCKED: ATOM     13  C   UNL d   1       7.132  13.744  27.393 -0.34 +0.01    +0.070 A 
DOCKED: ATOM     14  C   UNL d   1       8.004  11.129  24.895 -0.41 +0.00    +0.052 C 
DOCKED: ATOM     15  C   UNL d   1       6.621  15.411  29.168 -0.39 +0.01    +0.066 A 
DOCKED: ATOM     16  C   UNL d   1       6.227  16.701  29.524 -0.40 -0.00    -0.021 A 
DOCKED: ATOM     17  C   UNL d   1       6.326  16.774  30.914 -0.29 +0.00    +0.000 A 
DOCKED: ATOM     18  C   UNL d   1       6.777  15.506  31.306 -0.30 +0.03    +0.070 A 
DOCKED: ATOM     19  C   UNL d   1       5.848  17.754  28.514 -0.24 +0.00    +0.052 C 
DOCKED: ATOM     20  C   UNL d   1       7.475  13.882  33.115 -0.23 +0.05    +0.066 A 
DOCKED: ATOM     21  C   UNL d   1       7.650  13.527  34.450 -0.18 -0.02    -0.025 A 
DOCKED: ATOM     22  C   UNL d   1       8.079  12.219  34.453 -0.19 -0.01    -0.021 A 
DOCKED: ATOM     23  C   UNL d   1       8.169  11.828  33.113 -0.24 +0.03    +0.066 A 
DOCKED: ATOM     24  C   UNL d   1       7.421  14.394  35.661 +0.05 +0.08    +0.051 C 
DOCKED: ATOM     25  N   UNL d   1       8.518  10.947  30.288 -0.16 -0.06    -0.248 N 
DOCKED: ATOM     26  N   UNL d   1       7.690  12.830  28.227 -0.17 -0.03    -0.248 N 
DOCKED: ATOM     27  N   UNL d   1       7.022  14.717  30.229 -0.21 -0.07    -0.248 N 
DOCKED: ATOM     28  N   UNL d   1       7.844  12.856  32.302 -0.14 -0.12    -0.248 N 
DOCKED: ATOM     29 FE   UNL d   1       7.767  12.846  30.280 -0.08 +0.00    +0.000 Fe
DOCKED: ATOM     30  O   UNL d   1       9.241  12.752  29.789 -0.38 +0.00    +0.000 OA
DOCKED: ATOM     31  O   UNL d   1       8.799  13.953  30.707 -0.39 +0.00    +0.000 OA
DOCKED: ENDROOT
DOCKED: BRANCH   6  32
DOCKED: ATOM     32  C   UNL d   1       9.910   7.852  31.807 -0.50 +0.01    +0.052 C 
DOCKED: BRANCH  32  33
DOCKED: ATOM     33  C   UNL d   1      11.146   8.298  32.583 -0.38 +0.06    +0.115 C 
DOCKED: BRANCH  33  34
DOCKED: ATOM     34  C   UNL d   1      12.371   7.494  32.225 -0.44 +0.09    +0.139 C 
DOCKED: ATOM     35  O   UNL d   1      13.080   7.855  31.299 -0.15 -0.53    -0.650 OA
DOCKED: BRANCH  34  36
DOCKED: ATOM     36  O   UNL d   1      12.689   6.363  32.888 +0.03 -0.58    -0.776 OA
DOCKED: ATOM     37  H   UNL d   1      12.071   5.934  33.491 -0.36 +0.03    +0.167 HD
DOCKED: ENDBRANCH  34  36
DOCKED: ENDBRANCH  33  34
DOCKED: ENDBRANCH  32  33
DOCKED: ENDBRANCH   6  32
DOCKED: BRANCH  22  38
DOCKED: ATOM     38  C   UNL d   1       8.443  11.417  35.675 -0.20 +0.04    +0.052 C 
DOCKED: BRANCH  38  39
DOCKED: ATOM     39  C   UNL d   1       9.938  11.115  35.749 -0.20 +0.11    +0.115 C 
DOCKED: BRANCH  39  40
DOCKED: ATOM     40  C   UNL d   1      10.738  12.284  36.268 +0.02 +0.18    +0.139 C 
DOCKED: ATOM     41  O   UNL d   1      11.338  13.003  35.485 -0.43 -1.06    -0.650 OA
DOCKED: BRANCH  40  42
DOCKED: ATOM     42  O   UNL d   1      10.761  12.583  37.581 +0.03 -0.70    -0.776 OA
DOCKED: ATOM     43  H   UNL d   1      10.054  13.090  37.996 +0.03 +0.11    +0.167 HD
DOCKED: ENDBRANCH  40  42
DOCKED: ENDBRANCH  39  40
DOCKED: ENDBRANCH  38  39
DOCKED: ENDBRANCH  22  38
DOCKED: BRANCH  12  44
DOCKED: ATOM     44  C   UNL d   1       6.670  13.909  24.748 -0.45 +0.00    +0.004 C 
DOCKED: ATOM     45  C   UNL d   1       6.105  15.102  24.570 -0.53 +0.00    +0.012 C 
DOCKED: ENDBRANCH  12  44
DOCKED: BRANCH  17  46
DOCKED: ATOM     46  C   UNL d   1       6.094  17.920  31.862 -0.21 +0.00    +0.004 C 
DOCKED: ATOM     47  C   UNL d   1       5.461  19.076  31.626 -0.26 +0.00    +0.012 C 
DOCKED: ENDBRANCH  17  46
DOCKED: TORSDOF 10
DOCKED: TER
DOCKED: ENDMDL
________________________________________________________________________________

DPF> analysis                             # perform a ranked cluster analysis


		CLUSTER ANALYSIS OF CONFORMATIONS
		_________________________________

Number of conformations = 100

RMSD cluster analysis will be performed using the ligand atoms only (47 / 47 total atoms).

Outputting structurally similar clusters, ranked in order of increasing energy.


________________________________________________________________________________

Number of distinct conformational clusters found = 14,  out of 100 runs,
Using an rmsd-tolerance of 2.0 A


	CLUSTERING HISTOGRAM
	____________________

________________________________________________________________________________
     |           |     |           |     |                                    
Clus | Lowest    | Run | Mean      | Num | Histogram                          
-ter | Binding   |     | Binding   | in  |                                    
Rank | Energy    |     | Energy    | Clus|    5    10   15   20   25   30   35
_____|___________|_____|___________|_____|____:____|____:____|____:____|____:___
   1 |    -15.94 |  94 |    -14.70 |  17 |#################
   2 |    -15.79 |  58 |    -15.01 |  28 |############################
   3 |    -13.92 |  67 |    -12.55 |  15 |###############
   4 |    -13.10 |  43 |    -12.84 |  10 |##########
   5 |    -12.24 |  92 |    -11.28 |   6 |######
   6 |    -12.17 | 100 |    -12.17 |   1 |#
   7 |    -11.98 |  86 |    -11.36 |   2 |##
   8 |    -11.83 |  77 |    -10.58 |   5 |#####
   9 |    -10.89 |  39 |    -10.89 |   1 |#
  10 |    -10.88 |  35 |    -10.23 |  10 |##########
  11 |    -10.73 |  40 |    -10.67 |   2 |##
  12 |     -8.43 |  24 |     -8.43 |   1 |#
  13 |     -7.45 |  69 |     -7.45 |   1 |#
  14 |     -6.48 |  96 |     -6.48 |   1 |#
_____|___________|_____|___________|_____|______________________________________


Number of multi-member conformational clusters found = 9, out of 100 runs.

	RMSD TABLE
	__________

_____________________________________________________________________
     |      |      |           |         |                 |
Rank | Sub- | Run  | Binding   | Cluster | Reference       | Grep
     | Rank |      | Energy    | RMSD    | RMSD            | Pattern
_____|______|______|___________|_________|_________________|___________
   1      1     94      -15.94      0.00     29.79           RANKING
   1      2     87      -15.54      0.66     29.99           RANKING
   1      3     18      -15.23      0.59     29.79           RANKING
   1      4     66      -15.03      0.95     29.63           RANKING
   1      5     52      -15.02      0.98     29.76           RANKING
   1      6      8      -14.76      1.15     29.45           RANKING
   1      7     19      -14.76      1.14     29.31           RANKING
   1      8     21      -14.64      0.77     29.80           RANKING
   1      9     20      -14.56      1.19     29.49           RANKING
   1     10     53      -14.55      1.12     29.28           RANKING
   1     11     30      -14.47      1.39     29.45           RANKING
   1     12     49      -14.41      1.08     29.60           RANKING
   1     13     71      -14.36      1.22     29.73           RANKING
   1     14     41      -14.34      1.15     29.71           RANKING
   1     15     48      -14.23      0.75     29.59           RANKING
   1     16     46      -14.22      1.09     29.44           RANKING
   1     17     81      -13.80      1.15     29.78           RANKING
   2      1     58      -15.79      0.00     33.08           RANKING
   2      2     82      -15.78      0.84     33.15           RANKING
   2      3     44      -15.66      0.31     33.16           RANKING
   2      4     61      -15.51      1.18     33.30           RANKING
   2      5     25      -15.46      1.02     33.11           RANKING
   2      6      9      -15.39      0.91     33.21           RANKING
   2      7     27      -15.37      0.93     33.22           RANKING
   2      8      7      -15.31      1.10     33.72           RANKING
   2      9      2      -15.18      0.97     33.14           RANKING
   2     10     29      -15.12      1.11     32.94           RANKING
   2     11     73      -15.11      0.84     33.05           RANKING
   2     12      6      -15.10      0.85     33.24           RANKING
   2     13     98      -15.07      1.18     33.31           RANKING
   2     14      3      -15.07      1.27     33.54           RANKING
   2     15     84      -15.06      1.02     33.00           RANKING
   2     16     56      -15.06      0.96     33.18           RANKING
   2     17     47      -15.03      1.06     33.36           RANKING
   2     18     76      -14.97      1.05     33.08           RANKING
   2     19     11      -14.80      0.81     33.21           RANKING
   2     20     78      -14.78      1.25     32.96           RANKING
   2     21     75      -14.70      1.31     33.68           RANKING
   2     22      5      -14.56      1.08     32.98           RANKING
   2     23     54      -14.51      1.37     33.41           RANKING
   2     24     63      -14.50      0.91     33.07           RANKING
   2     25     17      -14.45      1.36     33.37           RANKING
   2     26     13      -14.43      1.20     33.08           RANKING
   2     27     91      -14.35      1.39     33.42           RANKING
   2     28     36      -14.09      1.13     32.82           RANKING
   3      1     67      -13.92      0.00     38.64           RANKING
   3      2     31      -13.49      1.02     38.83           RANKING
   3      3     62      -13.44      1.10     39.42           RANKING
   3      4      4      -13.38      0.99     38.97           RANKING
   3      5     33      -13.25      1.09     39.63           RANKING
   3      6     12      -13.04      1.12     39.54           RANKING
   3      7     89      -12.97      1.13     38.88           RANKING
   3      8     15      -12.88      1.09     39.59           RANKING
   3      9     95      -12.88      1.11     39.42           RANKING
   3     10     80      -12.76      1.27     38.76           RANKING
   3     11     16      -12.69      1.06     38.83           RANKING
   3     12     68      -11.93      1.10     39.76           RANKING
   3     13     28      -10.88      1.85     39.00           RANKING
   3     14     22      -10.77      1.96     40.74           RANKING
   3     15     57       -9.93      1.97     39.44           RANKING
   4      1     43      -13.10      0.00     33.98           RANKING
   4      2     79      -13.04      0.14     33.97           RANKING
   4      3     70      -13.01      0.21     33.95           RANKING
   4      4     26      -12.94      0.31     33.87           RANKING
   4      5     64      -12.85      0.45     33.80           RANKING
   4      6     45      -12.84      0.22     34.03           RANKING
   4      7     10      -12.76      1.65     33.67           RANKING
   4      8     72      -12.69      1.62     33.68           RANKING
   4      9     99      -12.59      1.55     33.91           RANKING
   4     10     37      -12.54      1.01     33.42           RANKING
   5      1     92      -12.24      0.00     52.04           RANKING
   5      2     42      -12.16      0.58     51.83           RANKING
   5      3     55      -12.14      0.36     51.93           RANKING
   5      4     60      -11.76      0.83     51.79           RANKING
   5      5     90       -9.74      1.80     53.00           RANKING
   5      6     59       -9.67      1.51     53.31           RANKING
   6      1    100      -12.17      0.00     34.85           RANKING
   7      1     86      -11.98      0.00     29.35           RANKING
   7      2     93      -10.75      0.98     28.88           RANKING
   8      1     77      -11.83      0.00     50.72           RANKING
   8      2     23      -10.38      1.89     51.58           RANKING
   8      3     85      -10.33      1.80     51.32           RANKING
   8      4     51      -10.23      1.88     50.97           RANKING
   8      5     32      -10.16      1.78     50.97           RANKING
   9      1     39      -10.89      0.00     30.26           RANKING
  10      1     35      -10.88      0.00     41.22           RANKING
  10      2     88      -10.86      0.51     41.18           RANKING
  10      3     83      -10.75      0.53     41.10           RANKING
  10      4     38      -10.59      0.77     41.01           RANKING
  10      5     97      -10.53      1.14     41.23           RANKING
  10      6     74      -10.52      1.72     39.92           RANKING
  10      7     34      -10.24      1.41     41.81           RANKING
  10      8     65      -10.16      1.24     41.70           RANKING
  10      9     14       -9.16      0.81     41.41           RANKING
  10     10      1       -8.63      1.72     41.33           RANKING
  11      1     40      -10.73      0.00     40.11           RANKING
  11      2     50      -10.62      0.80     40.36           RANKING
  12      1     24       -8.43      0.00     30.87           RANKING
  13      1     69       -7.45      0.00     54.10           RANKING
  14      1     96       -6.48      0.00     17.58           RANKING
_______________________________________________________________________



	INFORMATION ENTROPY ANALYSIS FOR THIS CLUSTERING
	________________________________________________


Information entropy for this clustering = 0.46  (rmstol = 2.00 Angstrom)

_______________________________________________________________________


	STATISTICAL MECHANICAL ANALYSIS
	_______________________________


Partition function, Q =   102.22            at Temperature, T = 298.15 K
Free energy,        A ~ -2741.47 kcal/mol   at Temperature, T = 298.15 K
Internal energy,    U =   -13.00 kcal/mol   at Temperature, T = 298.15 K
Entropy,            S =     9.15 kcal/mol/K at Temperature, T = 298.15 K

_______________________________________________________________________


	LOWEST ENERGY DOCKED CONFORMATION from EACH CLUSTER
	___________________________________________________



Keeping original residue number (specified in the input PDBQ file) for outputting.

MODEL       94
USER    Run = 94
USER    Cluster Rank = 1
USER    Number of conformations in this cluster = 17
USER  
USER    RMSD from reference structure       = 29.789 A
USER  
USER    Estimated Free Energy of Binding    =  -15.94 kcal/mol  [=(1)+(2)+(3)-(4)]
USER    Estimated Inhibition Constant, Ki   =    2.06 pM (picomolar)  [Temperature = 298.15 K]
USER    
USER    (1) Final Intermolecular Energy     =  -18.93 kcal/mol
USER        vdW + Hbond + desolv Energy     =  -17.11 kcal/mol
USER        Electrostatic Energy            =   -1.82 kcal/mol
USER    (2) Final Total Internal Energy     =   -0.62 kcal/mol
USER    (3) Torsional Free Energy           =   +2.98 kcal/mol
USER    (4) Unbound System's Energy  [=(2)] =   -0.62 kcal/mol
USER    
USER    
USER  
USER    DPF = D:/Protein_go_brrr/autodock/final/1A3N/heme_O2/dock.dpf
USER    NEWDPF move	heme_O2_opt.pdbqt
USER    NEWDPF about	8.287000 34.468000 -0.670000
USER    NEWDPF tran0	23.014652 6.658515 -3.326143
USER    NEWDPF axisangle0	-0.508231 0.167663 -0.844742 -150.818220
USER    NEWDPF quaternion0	-0.491841 0.162256 -0.817499 -0.251915
USER    NEWDPF dihe0	31.77 104.65 30.74 -56.52 176.10 27.34 -65.61 -39.06 -156.75 178.22 
USER  
USER                              x       y       z    vdW   Elec        q     RMS 
ATOM      1  C   UNL d   1      23.186   7.247  -5.357 -0.24 +0.01    +0.064    29.789
ATOM      2  C   UNL d   1      25.324   8.748  -1.390 -0.38 +0.00    +0.064    29.789
ATOM      3  C   UNL d   1      22.802   5.632   1.259 -0.34 +0.00    +0.064    29.789
ATOM      4  C   UNL d   1      20.943   3.749  -2.872 -0.37 +0.01    +0.064    29.789
ATOM      5  C   UNL d   1      23.975   7.909  -4.494 -0.31 +0.01    +0.066    29.789
ATOM      6  C   UNL d   1      24.855   8.930  -4.864 -0.39 -0.00    -0.021    29.789
ATOM      7  C   UNL d   1      25.506   9.335  -3.723 -0.43 -0.00    -0.025    29.789
ATOM      8  C   UNL d   1      24.971   8.584  -2.680 -0.37 +0.01    +0.066    29.789
ATOM      9  C   UNL d   1      26.605  10.374  -3.676 -0.37 +0.01    +0.051    29.789
ATOM     10  C   UNL d   1      24.782   8.007  -0.251 -0.35 +0.00    +0.066    29.789
ATOM     11  C   UNL d   1      25.063   8.329   1.081 -0.38 -0.00    -0.021    29.789
ATOM     12  C   UNL d   1      24.330   7.453   1.861 -0.40 +0.00    +0.000    29.789
ATOM     13  C   UNL d   1      23.638   6.619   0.939 -0.21 +0.00    +0.070    29.789
ATOM     14  C   UNL d   1      25.970   9.443   1.589 -0.45 +0.00    +0.052    29.789
ATOM     15  C   UNL d   1      22.109   4.743   0.357 -0.40 +0.00    +0.066    29.789
ATOM     16  C   UNL d   1      21.378   3.625   0.756 -0.53 -0.00    -0.021    29.789
ATOM     17  C   UNL d   1      20.839   3.072  -0.405 -0.47 +0.00    +0.000    29.789
ATOM     18  C   UNL d   1      21.287   3.906  -1.439 -0.37 +0.01    +0.070    29.789
ATOM     19  C   UNL d   1      21.304   3.158   2.188 -0.31 -0.00    +0.052    29.789
ATOM     20  C   UNL d   1      21.390   4.505  -3.894 -0.38 +0.01    +0.066    29.789
ATOM     21  C   UNL d   1      21.017   4.321  -5.222 -0.41 -0.00    -0.025    29.789
ATOM     22  C   UNL d   1      21.625   5.325  -5.941 -0.32 -0.00    -0.021    29.789
ATOM     23  C   UNL d   1      22.364   6.078  -5.023 -0.24 +0.01    +0.066    29.789
ATOM     24  C   UNL d   1      20.128   3.238  -5.778 -0.53 +0.01    +0.051    29.789
ATOM     25  N   UNL d   1      24.075   7.660  -3.165 -0.22 -0.02    -0.248    29.789
ATOM     26  N   UNL d   1      23.922   6.960  -0.344 -0.22 -0.01    -0.248    29.789
ATOM     27  N   UNL d   1      22.117   4.870  -0.966 -0.20 -0.01    -0.248    29.789
ATOM     28  N   UNL d   1      22.254   5.549  -3.787 -0.25 -0.03    -0.248    29.789
ATOM     29 FE   UNL d   1      23.081   6.247  -2.077 -0.07 +0.00    +0.000    29.789
ATOM     30  O   UNL d   1      24.611   5.988  -2.195 -0.44 +0.00    +0.000    29.789
ATOM     31  O   UNL d   1      23.604   4.779  -2.289 -0.82 +0.00    +0.000    29.789
ATOM     32  C   UNL d   1      25.176   9.414  -6.254 -0.36 +0.02    +0.052    29.789
ATOM     33  C   UNL d   1      26.037   8.430  -7.040 -0.31 +0.07    +0.115    29.789
ATOM     34  C   UNL d   1      25.292   7.809  -8.196 -0.07 +0.16    +0.139    29.789
ATOM     35  O   UNL d   1      24.350   8.403  -8.695 -0.11 -0.59    -0.650    29.789
ATOM     36  O   UNL d   1      25.627   6.594  -8.676 -0.46 -1.20    -0.776    29.789
ATOM     37  H   UNL d   1      25.983   5.900  -8.109 -0.45 +0.10    +0.167    29.789
ATOM     38  C   UNL d   1      21.548   5.507  -7.435 -0.28 +0.01    +0.052    29.789
ATOM     39  C   UNL d   1      22.500   4.577  -8.184 -0.34 +0.03    +0.115    29.789
ATOM     40  C   UNL d   1      21.882   4.006  -9.436 -0.27 +0.05    +0.139    29.789
ATOM     41  O   UNL d   1      22.570   3.366 -10.214 -0.51 -0.28    -0.650    29.789
ATOM     42  O   UNL d   1      20.566   4.146  -9.688 -0.12 -0.24    -0.776    29.789
ATOM     43  H   UNL d   1      20.244   4.746 -10.371 +0.05 +0.05    +0.167    29.789
ATOM     44  C   UNL d   1      24.369   7.498   3.374 -0.64 -0.00    +0.004    29.789
ATOM     45  C   UNL d   1      24.145   6.501   4.229 -0.72 -0.00    +0.012    29.789
ATOM     46  C   UNL d   1      20.013   1.831  -0.618 -0.63 +0.00    +0.004    29.789
ATOM     47  C   UNL d   1      20.360   0.557  -0.394 -0.73 -0.00    +0.012    29.789
TER
ENDMDL
MODEL       58
USER    Run = 58
USER    Cluster Rank = 2
USER    Number of conformations in this cluster = 28
USER  
USER    RMSD from reference structure       = 33.076 A
USER  
USER    Estimated Free Energy of Binding    =  -15.79 kcal/mol  [=(1)+(2)+(3)-(4)]
USER    Estimated Inhibition Constant, Ki   =    2.65 pM (picomolar)  [Temperature = 298.15 K]
USER    
USER    (1) Final Intermolecular Energy     =  -18.78 kcal/mol
USER        vdW + Hbond + desolv Energy     =  -16.56 kcal/mol
USER        Electrostatic Energy            =   -2.21 kcal/mol
USER    (2) Final Total Internal Energy     =   -0.27 kcal/mol
USER    (3) Torsional Free Energy           =   +2.98 kcal/mol
USER    (4) Unbound System's Energy  [=(2)] =   -0.27 kcal/mol
USER    
USER    
USER  
USER    DPF = D:/Protein_go_brrr/autodock/final/1A3N/heme_O2/dock.dpf
USER    NEWDPF move	heme_O2_opt.pdbqt
USER    NEWDPF about	8.287000 34.468000 -0.670000
USER    NEWDPF tran0	8.233591 12.178334 28.274746
USER    NEWDPF axisangle0	-0.765506 0.414005 0.492545 163.309757
USER    NEWDPF quaternion0	-0.757401 0.409621 0.487329 0.145135
USER    NEWDPF dihe0	-113.68 149.72 42.45 -70.27 73.96 -7.37 -35.93 -4.88 -118.83 -150.51 
USER  
USER                              x       y       z    vdW   Elec        q     RMS 
ATOM      1  C   UNL d   1       8.277  13.085  30.192 -0.22 +0.02    +0.064    33.076
ATOM      2  C   UNL d   1       6.628  14.552  25.986 -0.39 +0.01    +0.064    33.076
ATOM      3  C   UNL d   1       8.062  10.468  23.896 -0.40 +0.00    +0.064    33.076
ATOM      4  C   UNL d   1       9.331   8.750  28.312 -0.39 +0.01    +0.064    33.076
ATOM      5  C   UNL d   1       7.710  13.816  29.219 -0.27 +0.01    +0.066    33.076
ATOM      6  C   UNL d   1       7.181  15.097  29.408 -0.38 -0.00    -0.021    33.076
ATOM      7  C   UNL d   1       6.665  15.505  28.201 -0.44 -0.00    -0.025    33.076
ATOM      8  C   UNL d   1       6.935  14.482  27.296 -0.38 +0.01    +0.066    33.076
ATOM      9  C   UNL d   1       5.927  16.805  27.970 -0.39 +0.00    +0.051    33.076
ATOM     10  C   UNL d   1       6.907  13.522  24.984 -0.35 +0.00    +0.066    33.076
ATOM     11  C   UNL d   1       6.716  13.712  23.611 -0.37 -0.00    -0.021    33.076
ATOM     12  C   UNL d   1       7.141  12.552  22.990 -0.40 +0.00    +0.000    33.076
ATOM     13  C   UNL d   1       7.565  11.696  24.044 -0.32 +0.00    +0.070    33.076
ATOM     14  C   UNL d   1       6.177  14.959  22.919 -0.46 +0.00    +0.052    33.076
ATOM     15  C   UNL d   1       8.469   9.557  24.939 -0.39 +0.01    +0.066    33.076
ATOM     16  C   UNL d   1       8.826   8.225  24.729 -0.51 -0.00    -0.021    33.076
ATOM     17  C   UNL d   1       9.191   7.715  25.975 -0.46 +0.00    +0.000    33.076
ATOM     18  C   UNL d   1       9.029   8.788  26.862 -0.38 +0.01    +0.070    33.076
ATOM     19  C   UNL d   1       8.735   7.551  23.383 -0.59 +0.00    +0.052    33.076
ATOM     20  C   UNL d   1       9.146   9.747  29.199 -0.40 +0.01    +0.066    33.076
ATOM     21  C   UNL d   1       9.466   9.658  30.551 -0.41 -0.01    -0.025    33.076
ATOM     22  C   UNL d   1       9.198  10.893  31.097 -0.30 -0.01    -0.021    33.076
ATOM     23  C   UNL d   1       8.705  11.688  30.057 -0.30 +0.02    +0.066    33.076
ATOM     24  C   UNL d   1       9.998   8.455  31.285 -0.53 +0.02    +0.051    33.076
ATOM     25  N   UNL d   1       7.520  13.416  27.938 -0.20 -0.03    -0.248    33.076
ATOM     26  N   UNL d   1       7.415  12.292  25.254 -0.23 -0.01    -0.248    33.076
ATOM     27  N   UNL d   1       8.519   9.875  26.229 -0.22 -0.02    -0.248    33.076
ATOM     28  N   UNL d   1       8.633  10.973  28.915 -0.25 -0.04    -0.248    33.076
ATOM     29 FE   UNL d   1       8.029  11.625  27.097 -0.08 +0.00    +0.000    33.076
ATOM     30  O   UNL d   1       6.493  11.855  27.205 -0.39 +0.00    +0.000    33.076
ATOM     31  O   UNL d   1       7.093  10.429  27.504 -0.68 +0.00    +0.000    33.076
ATOM     32  C   UNL d   1       7.041  15.855  30.703 -0.35 +0.02    +0.052    33.076
ATOM     33  C   UNL d   1       6.727  14.948  31.889 -0.30 +0.07    +0.115    33.076
ATOM     34  C   UNL d   1       7.435  15.382  33.148 -0.21 +0.12    +0.139    33.076
ATOM     35  O   UNL d   1       8.623  15.136  33.287 +0.02 -0.41    -0.650    33.076
ATOM     36  O   UNL d   1       6.779  16.014  34.143 -0.17 -1.31    -0.776    33.076
ATOM     37  H   UNL d   1       6.963  16.931  34.375 +0.02 +0.21    +0.167    33.076
ATOM     38  C   UNL d   1       9.348  11.263  32.550 -0.29 +0.03    +0.052    33.076
ATOM     39  C   UNL d   1       8.700  10.240  33.481 -0.33 +0.06    +0.115    33.076
ATOM     40  C   UNL d   1       8.973  10.529  34.935 -0.23 +0.10    +0.139    33.076
ATOM     41  O   UNL d   1       8.073  10.425  35.753 -0.57 -0.45    -0.650    33.076
ATOM     42  O   UNL d   1      10.210  10.853  35.360 -0.07 -0.85    -0.776    33.076
ATOM     43  H   UNL d   1      10.347  11.400  36.143 +0.04 +0.20    +0.167    33.076
ATOM     44  C   UNL d   1       7.095  12.383  21.486 -0.59 -0.00    +0.004    33.076
ATOM     45  C   UNL d   1       6.787  11.286  20.794 -0.73 -0.00    +0.012    33.076
ATOM     46  C   UNL d   1       9.610   6.330  26.391 -0.59 +0.00    +0.004    33.076
ATOM     47  C   UNL d   1       8.837   5.253  26.584 -0.75 +0.00    +0.012    33.076
TER
ENDMDL
MODEL       67
USER    Run = 67
USER    Cluster Rank = 3
USER    Number of conformations in this cluster = 15
USER  
USER    RMSD from reference structure       = 38.643 A
USER  
USER    Estimated Free Energy of Binding    =  -13.92 kcal/mol  [=(1)+(2)+(3)-(4)]
USER    Estimated Inhibition Constant, Ki   =   62.88 pM (picomolar)  [Temperature = 298.15 K]
USER    
USER    (1) Final Intermolecular Energy     =  -16.90 kcal/mol
USER        vdW + Hbond + desolv Energy     =  -15.27 kcal/mol
USER        Electrostatic Energy            =   -1.63 kcal/mol
USER    (2) Final Total Internal Energy     =   -0.37 kcal/mol
USER    (3) Torsional Free Energy           =   +2.98 kcal/mol
USER    (4) Unbound System's Energy  [=(2)] =   -0.37 kcal/mol
USER    
USER    
USER  
USER    DPF = D:/Protein_go_brrr/autodock/final/1A3N/heme_O2/dock.dpf
USER    NEWDPF move	heme_O2_opt.pdbqt
USER    NEWDPF about	8.287000 34.468000 -0.670000
USER    NEWDPF tran0	3.009628 -6.178768 -4.545948
USER    NEWDPF axisangle0	0.256085 0.831183 -0.493513 74.008810
USER    NEWDPF quaternion0	0.154132 0.500269 -0.297034 0.798589
USER    NEWDPF dihe0	-65.33 -55.04 -0.37 -48.73 -69.56 131.18 59.41 -142.76 -108.68 166.33 
USER  
USER                              x       y       z    vdW   Elec        q     RMS 
ATOM      1  C   UNL d   1       2.925  -6.846  -6.558 -0.22 +0.01    +0.064    38.643
ATOM      2  C   UNL d   1       0.877  -8.413  -2.569 -0.36 +0.00    +0.064    38.643
ATOM      3  C   UNL d   1       3.056  -4.989   0.005 -0.37 +0.00    +0.064    38.643
ATOM      4  C   UNL d   1       4.793  -3.074  -4.165 -0.45 +0.01    +0.064    38.643
ATOM      5  C   UNL d   1       2.189  -7.551  -5.683 -0.32 +0.01    +0.066    38.643
ATOM      6  C   UNL d   1       1.414  -8.661  -6.028 -0.31 -0.01    -0.021    38.643
ATOM      7  C   UNL d   1       0.786  -9.090  -4.882 -0.33 -0.00    -0.025    38.643
ATOM      8  C   UNL d   1       1.233  -8.258  -3.859 -0.29 +0.01    +0.066    38.643
ATOM      9  C   UNL d   1      -0.212 -10.225  -4.814 -0.31 +0.01    +0.051    38.643
ATOM     10  C   UNL d   1       1.330  -7.587  -1.449 -0.34 +0.00    +0.066    38.643
ATOM     11  C   UNL d   1       1.060  -7.891  -0.110 -0.43 -0.00    -0.021    38.643
ATOM     12  C   UNL d   1       1.696  -6.925   0.648 -0.43 +0.00    +0.000    38.643
ATOM     13  C   UNL d   1       2.321  -6.061  -0.292 -0.38 +0.00    +0.070    38.643
ATOM     14  C   UNL d   1       0.254  -9.069   0.424 -0.56 -0.00    +0.052    38.643
ATOM     15  C   UNL d   1       3.675  -4.069  -0.918 -0.37 +0.00    +0.066    38.643
ATOM     16  C   UNL d   1       4.293  -2.874  -0.548 -0.47 -0.00    -0.021    38.643
ATOM     17  C   UNL d   1       4.795  -2.311  -1.721 -0.51 +0.00    +0.000    38.643
ATOM     18  C   UNL d   1       4.443  -3.216  -2.732 -0.41 +0.01    +0.070    38.643
ATOM     19  C   UNL d   1       4.301  -2.356   0.868 -0.52 +0.00    +0.052    38.643
ATOM     20  C   UNL d   1       4.434  -3.902  -5.166 -0.43 +0.01    +0.066    38.643
ATOM     21  C   UNL d   1       4.808  -3.726  -6.495 -0.45 -0.00    -0.025    38.643
ATOM     22  C   UNL d   1       4.308  -4.806  -7.187 -0.34 -0.00    -0.021    38.643
ATOM     23  C   UNL d   1       3.629  -5.595  -6.254 -0.27 +0.01    +0.066    38.643
ATOM     24  C   UNL d   1       5.600  -2.583  -7.076 -0.10 -0.00    +0.051    38.643
ATOM     25  N   UNL d   1       2.046  -7.270  -4.364 -0.19 -0.03    -0.248    38.643
ATOM     26  N   UNL d   1       2.089  -6.468  -1.566 -0.22 +0.00    -0.248    38.643
ATOM     27  N   UNL d   1       3.700  -4.239  -2.237 -0.23 -0.01    -0.248    38.643
ATOM     28  N   UNL d   1       3.670  -5.018  -5.035 -0.26 -0.04    -0.248    38.643
ATOM     29 FE   UNL d   1       2.886  -5.735  -3.312 -0.08 +0.00    +0.000    38.643
ATOM     30  O   UNL d   1       1.341  -5.625  -3.458 -0.16 +0.00    +0.000    38.643
ATOM     31  O   UNL d   1       2.231  -4.331  -3.579 -0.77 +0.00    +0.000    38.643
ATOM     32  C   UNL d   1       1.161  -9.218  -7.406 -0.24 +0.02    +0.052    38.643
ATOM     33  C   UNL d   1       1.322  -8.174  -8.506 -0.20 +0.05    +0.115    38.643
ATOM     34  C   UNL d   1       0.077  -8.024  -9.344 -0.09 +0.13    +0.139    38.643
ATOM     35  O   UNL d   1      -0.284  -6.912  -9.695 -0.36 -1.21    -0.650    38.643
ATOM     36  O   UNL d   1      -0.667  -9.094  -9.695 +0.01 -0.52    -0.776    38.643
ATOM     37  H   UNL d   1      -0.327  -9.785 -10.274 +0.02 +0.07    +0.167    38.643
ATOM     38  C   UNL d   1       4.424  -5.027  -8.673 -0.19 +0.01    +0.052    38.643
ATOM     39  C   UNL d   1       3.235  -4.456  -9.442 -0.21 +0.03    +0.115    38.643
ATOM     40  C   UNL d   1       2.724  -3.171  -8.840 -0.36 +0.03    +0.139    38.643
ATOM     41  O   UNL d   1       1.934  -3.209  -7.911 -0.05 -0.17    -0.650    38.643
ATOM     42  O   UNL d   1       3.163  -1.975  -9.278 +0.06 +0.01    -0.776    38.643
ATOM     43  H   UNL d   1       4.105  -1.773  -9.334 -0.42 -0.05    +0.167    38.643
ATOM     44  C   UNL d   1       1.638  -6.925   2.162 -0.48 +0.00    +0.004    38.643
ATOM     45  C   UNL d   1       2.272  -6.111   3.005 -0.56 +0.00    +0.012    38.643
ATOM     46  C   UNL d   1       5.504  -1.005  -1.965 -0.62 +0.00    +0.004    38.643
ATOM     47  C   UNL d   1       5.092   0.232  -1.657 -0.72 -0.00    +0.012    38.643
TER
ENDMDL
MODEL       43
USER    Run = 43
USER    Cluster Rank = 4
USER    Number of conformations in this cluster = 10
USER  
USER    RMSD from reference structure       = 33.981 A
USER  
USER    Estimated Free Energy of Binding    =  -13.10 kcal/mol  [=(1)+(2)+(3)-(4)]
USER    Estimated Inhibition Constant, Ki   =  249.46 pM (picomolar)  [Temperature = 298.15 K]
USER    
USER    (1) Final Intermolecular Energy     =  -16.08 kcal/mol
USER        vdW + Hbond + desolv Energy     =  -13.13 kcal/mol
USER        Electrostatic Energy            =   -2.96 kcal/mol
USER    (2) Final Total Internal Energy     =   -0.76 kcal/mol
USER    (3) Torsional Free Energy           =   +2.98 kcal/mol
USER    (4) Unbound System's Energy  [=(2)] =   -0.76 kcal/mol
USER    
USER    
USER  
USER    DPF = D:/Protein_go_brrr/autodock/final/1A3N/heme_O2/dock.dpf
USER    NEWDPF move	heme_O2_opt.pdbqt
USER    NEWDPF about	8.287000 34.468000 -0.670000
USER    NEWDPF tran0	7.552557 13.725753 31.007201
USER    NEWDPF axisangle0	-0.153028 -0.953962 0.257951 101.314608
USER    NEWDPF quaternion0	-0.118347 -0.737764 0.199491 0.633957
USER    NEWDPF dihe0	-22.67 59.95 -52.10 39.86 -105.32 -157.68 115.63 76.44 -173.02 144.00 
USER  
USER                              x       y       z    vdW   Elec        q     RMS 
ATOM      1  C   UNL d   1       7.414  14.765  32.851 -0.23 +0.05    +0.064    33.981
ATOM      2  C   UNL d   1       9.343  10.592  31.658 -0.30 +0.03    +0.064    33.981
ATOM      3  C   UNL d   1       7.951  11.149  27.092 -0.38 +0.01    +0.064    33.981
ATOM      4  C   UNL d   1       6.381  15.662  28.207 -0.43 +0.01    +0.064    33.981
ATOM      5  C   UNL d   1       8.054  13.585  32.899 -0.21 +0.04    +0.066    33.981
ATOM      6  C   UNL d   1       8.597  13.036  34.064 -0.18 -0.01    -0.021    33.981
ATOM      7  C   UNL d   1       9.194  11.848  33.711 -0.22 -0.02    -0.025    33.981
ATOM      8  C   UNL d   1       8.956  11.681  32.350 -0.25 +0.03    +0.066    33.981
ATOM      9  C   UNL d   1       9.972  10.957  34.655 -0.25 +0.05    +0.051    33.981
ATOM     10  C   UNL d   1       9.103  10.350  30.234 -0.37 +0.02    +0.066    33.981
ATOM     11  C   UNL d   1       9.380   9.133  29.603 -0.43 -0.01    -0.021    33.981
ATOM     12  C   UNL d   1       8.969   9.267  28.290 -0.43 +0.00    +0.000    33.981
ATOM     13  C   UNL d   1       8.464  10.593  28.189 -0.33 +0.01    +0.070    33.981
ATOM     14  C   UNL d   1       9.986   7.884  30.233 -0.52 +0.01    +0.052    33.981
ATOM     15  C   UNL d   1       7.462  12.499  26.940 -0.32 +0.00    +0.066    33.981
ATOM     16  C   UNL d   1       7.089  13.072  25.725 -0.38 -0.00    -0.021    33.981
ATOM     17  C   UNL d   1       6.639  14.359  26.018 -0.42 +0.00    +0.000    33.981
ATOM     18  C   UNL d   1       6.771  14.475  27.409 -0.38 +0.01    +0.070    33.981
ATOM     19  C   UNL d   1       7.247  12.368  24.400 -0.41 +0.00    +0.052    33.981
ATOM     20  C   UNL d   1       6.534  15.823  29.536 -0.38 +0.01    +0.066    33.981
ATOM     21  C   UNL d   1       6.132  16.957  30.236 -0.34 -0.01    -0.025    33.981
ATOM     22  C   UNL d   1       6.393  16.708  31.564 -0.19 -0.01    -0.021    33.981
ATOM     23  C   UNL d   1       6.964  15.433  31.624 -0.28 +0.03    +0.066    33.981
ATOM     24  C   UNL d   1       5.531  18.215  29.665 -0.40 +0.01    +0.051    33.981
ATOM     25  N   UNL d   1       8.311  12.783  31.837 -0.16 -0.10    -0.248    33.981
ATOM     26  N   UNL d   1       8.553  11.247  29.376 -0.21 -0.05    -0.248    33.981
ATOM     27  N   UNL d   1       7.341  13.365  27.942 -0.23 -0.03    -0.248    33.981
ATOM     28  N   UNL d   1       7.090  14.917  30.384 -0.21 -0.08    -0.248    33.981
ATOM     29 FE   UNL d   1       7.816  13.096  29.881 -0.08 +0.00    +0.000    33.981
ATOM     30  O   UNL d   1       9.347  13.147  30.157 -0.37 +0.00    +0.000    33.981
ATOM     31  O   UNL d   1       8.700  14.174  29.153 -0.29 +0.00    +0.000    33.981
ATOM     32  C   UNL d   1       8.676  13.664  35.431 -0.12 +0.04    +0.052    33.981
ATOM     33  C   UNL d   1       9.947  14.483  35.635 -0.12 +0.08    +0.115    33.981
ATOM     34  C   UNL d   1      11.188  13.625  35.641 -0.18 +0.16    +0.139    33.981
ATOM     35  O   UNL d   1      11.913  13.606  34.659 -0.36 -0.91    -0.650    33.981
ATOM     36  O   UNL d   1      11.504  12.853  36.701 -0.01 -1.16    -0.776    33.981
ATOM     37  H   UNL d   1      11.165  13.035  37.585 +0.03 +0.16    +0.167    33.981
ATOM     38  C   UNL d   1       6.164  17.671  32.700 +0.14 +0.03    +0.052    33.981
ATOM     39  C   UNL d   1       7.468  18.114  33.359 -0.15 +0.06    +0.115    33.981
ATOM     40  C   UNL d   1       7.694  17.450  34.694 -0.11 +0.11    +0.139    33.981
ATOM     41  O   UNL d   1       6.779  16.850  35.235 -0.53 -1.18    -0.650    33.981
ATOM     42  O   UNL d   1       8.907  17.461  35.281 +0.02 -0.41    -0.776    33.981
ATOM     43  H   UNL d   1       9.330  18.285  35.550 +0.02 +0.06    +0.167    33.981
ATOM     44  C   UNL d   1       9.101   8.141  27.287 -0.51 +0.00    +0.004    33.981
ATOM     45  C   UNL d   1       8.139   7.580  26.554 -0.53 +0.00    +0.012    33.981
ATOM     46  C   UNL d   1       6.167  15.470  25.117 -0.55 +0.00    +0.004    33.981
ATOM     47  C   UNL d   1       5.503  15.371  23.958 -0.59 +0.00    +0.012    33.981
TER
ENDMDL
MODEL       92
USER    Run = 92
USER    Cluster Rank = 5
USER    Number of conformations in this cluster = 6
USER  
USER    RMSD from reference structure       = 52.035 A
USER  
USER    Estimated Free Energy of Binding    =  -12.24 kcal/mol  [=(1)+(2)+(3)-(4)]
USER    Estimated Inhibition Constant, Ki   =    1.07 nM (nanomolar)  [Temperature = 298.15 K]
USER    
USER    (1) Final Intermolecular Energy     =  -15.22 kcal/mol
USER        vdW + Hbond + desolv Energy     =  -12.89 kcal/mol
USER        Electrostatic Energy            =   -2.33 kcal/mol
USER    (2) Final Total Internal Energy     =   -1.47 kcal/mol
USER    (3) Torsional Free Energy           =   +2.98 kcal/mol
USER    (4) Unbound System's Energy  [=(2)] =   -1.47 kcal/mol
USER    
USER    
USER  
USER    DPF = D:/Protein_go_brrr/autodock/final/1A3N/heme_O2/dock.dpf
USER    NEWDPF move	heme_O2_opt.pdbqt
USER    NEWDPF about	8.287000 34.468000 -0.670000
USER    NEWDPF tran0	23.702681 -8.094112 32.665224
USER    NEWDPF axisangle0	-0.491826 -0.864716 -0.101847 122.363257
USER    NEWDPF quaternion0	-0.430914 -0.757623 -0.089233 0.482035
USER    NEWDPF dihe0	126.94 75.05 116.74 -4.44 -175.37 -22.73 -41.88 93.57 -167.24 -162.80 
USER  
USER                              x       y       z    vdW   Elec        q     RMS 
ATOM      1  C   UNL d   1      23.705  -8.883  34.634 -0.27 +0.02    +0.064    52.035
ATOM      2  C   UNL d   1      24.959 -10.724  30.440 -0.35 +0.00    +0.064    52.035
ATOM      3  C   UNL d   1      23.742  -6.658  28.186 -0.44 +0.00    +0.064    52.035
ATOM      4  C   UNL d   1      22.898  -4.587  32.553 -0.37 +0.01    +0.064    52.035
ATOM      5  C   UNL d   1      24.147  -9.715  33.677 -0.28 +0.01    +0.066    52.035
ATOM      6  C   UNL d   1      24.578 -11.023  33.916 -0.19 -0.00    -0.021    52.035
ATOM      7  C   UNL d   1      24.982 -11.543  32.708 -0.20 -0.00    -0.025    52.035
ATOM      8  C   UNL d   1      24.741 -10.554  31.758 -0.33 +0.01    +0.066    52.035
ATOM      9  C   UNL d   1      25.593 -12.913  32.516 -0.24 +0.00    +0.051    52.035
ATOM     10  C   UNL d   1      24.704  -9.733  29.393 -0.44 +0.00    +0.066    52.035
ATOM     11  C   UNL d   1      24.792 -10.017  28.026 -0.52 -0.00    -0.021    52.035
ATOM     12  C   UNL d   1      24.428  -8.862  27.360 -0.45 +0.00    +0.000    52.035
ATOM     13  C   UNL d   1      24.143  -7.914  28.381 -0.40 +0.00    +0.070    52.035
ATOM     14  C   UNL d   1      25.182 -11.343  27.383 -0.61 -0.00    +0.052    52.035
ATOM     15  C   UNL d   1      23.477  -5.657  29.192 -0.37 +0.00    +0.066    52.035
ATOM     16  C   UNL d   1      23.220  -4.313  28.921 -0.42 -0.00    -0.021    52.035
ATOM     17  C   UNL d   1      22.977  -3.703  30.151 -0.45 +0.00    +0.000    52.035
ATOM     18  C   UNL d   1      23.104  -4.734  31.093 -0.33 +0.01    +0.070    52.035
ATOM     19  C   UNL d   1      23.282  -3.727  27.533 -0.51 +0.00    +0.052    52.035
ATOM     20  C   UNL d   1      23.055  -5.544  33.488 -0.30 +0.01    +0.066    52.035
ATOM     21  C   UNL d   1      22.829  -5.351  34.848 -0.24 -0.00    -0.025    52.035
ATOM     22  C   UNL d   1      23.027  -6.572  35.453 -0.19 -0.00    -0.021    52.035
ATOM     23  C   UNL d   1      23.386  -7.464  34.438 -0.27 +0.01    +0.066    52.035
ATOM     24  C   UNL d   1      22.446  -4.066  35.535 -0.25 +0.01    +0.051    52.035
ATOM     25  N   UNL d   1      24.288  -9.406  32.365 -0.22 -0.03    -0.248    52.035
ATOM     26  N   UNL d   1      24.318  -8.451  29.615 -0.25 -0.01    -0.248    52.035
ATOM     27  N   UNL d   1      23.482  -5.895  30.500 -0.12 +0.00    -0.248    52.035
ATOM     28  N   UNL d   1      23.445  -6.825  33.252 -0.23 -0.03    -0.248    52.035
ATOM     29 FE   UNL d   1      23.878  -7.629  31.446 -0.09 -0.00    +0.000    52.035
ATOM     30  O   UNL d   1      25.393  -7.984  31.479 -0.14 +0.00    +0.000    52.035
ATOM     31  O   UNL d   1      24.934  -6.497  31.723 -0.06 +0.00    +0.000    52.035
ATOM     32  C   UNL d   1      24.736 -11.716  35.245 -0.18 +0.01    +0.052    52.035
ATOM     33  C   UNL d   1      26.065 -11.400  35.923 -0.14 +0.05    +0.115    52.035
ATOM     34  C   UNL d   1      25.905 -11.107  37.394 -0.11 +0.08    +0.139    52.035
ATOM     35  O   UNL d   1      25.044 -11.688  38.035 +0.01 -0.23    -0.650    52.035
ATOM     36  O   UNL d   1      26.678 -10.193  38.017 +0.01 -1.03    -0.776    52.035
ATOM     37  H   UNL d   1      26.300  -9.476  38.539 +0.00 +0.26    +0.167    52.035
ATOM     38  C   UNL d   1      22.938  -6.843  36.933 -0.20 +0.01    +0.052    52.035
ATOM     39  C   UNL d   1      23.951  -6.029  37.735 -0.12 +0.05    +0.115    52.035
ATOM     40  C   UNL d   1      25.284  -6.725  37.856 -0.12 +0.13    +0.139    52.035
ATOM     41  O   UNL d   1      26.294  -6.175  37.448 -0.02 -0.93    -0.650    52.035
ATOM     42  O   UNL d   1      25.389  -7.927  38.455 -0.51 -0.93    -0.776    52.035
ATOM     43  H   UNL d   1      25.132  -8.740  38.004 +0.02 +0.17    +0.167    52.035
ATOM     44  C   UNL d   1      24.393  -8.783  25.848 -0.27 +0.00    +0.004    52.035
ATOM     45  C   UNL d   1      25.421  -8.832  25.001 -0.57 +0.00    +0.012    52.035
ATOM     46  C   UNL d   1      22.702  -2.265  30.504 -0.59 +0.00    +0.004    52.035
ATOM     47  C   UNL d   1      22.823  -1.183  29.724 -0.59 +0.00    +0.012    52.035
TER
ENDMDL
MODEL      100
USER    Run = 100
USER    Cluster Rank = 6
USER    Number of conformations in this cluster = 1
USER  
USER    RMSD from reference structure       = 34.854 A
USER  
USER    Estimated Free Energy of Binding    =  -12.17 kcal/mol  [=(1)+(2)+(3)-(4)]
USER    Estimated Inhibition Constant, Ki   =    1.20 nM (nanomolar)  [Temperature = 298.15 K]
USER    
USER    (1) Final Intermolecular Energy     =  -15.15 kcal/mol
USER        vdW + Hbond + desolv Energy     =  -12.95 kcal/mol
USER        Electrostatic Energy            =   -2.20 kcal/mol
USER    (2) Final Total Internal Energy     =   -0.74 kcal/mol
USER    (3) Torsional Free Energy           =   +2.98 kcal/mol
USER    (4) Unbound System's Energy  [=(2)] =   -0.74 kcal/mol
USER    
USER    
USER  
USER    DPF = D:/Protein_go_brrr/autodock/final/1A3N/heme_O2/dock.dpf
USER    NEWDPF move	heme_O2_opt.pdbqt
USER    NEWDPF about	8.287000 34.468000 -0.670000
USER    NEWDPF tran0	7.981381 11.946662 31.218038
USER    NEWDPF axisangle0	0.501883 0.839454 0.208402 -148.533028
USER    NEWDPF quaternion0	0.483079 0.808002 0.200594 -0.271163
USER    NEWDPF dihe0	11.79 -84.63 5.98 22.35 -120.26 115.05 63.16 -99.03 -147.52 146.71 
USER  
USER                              x       y       z    vdW   Elec        q     RMS 
ATOM      1  C   UNL d   1       8.602  10.506  32.646 -0.33 +0.03    +0.064    34.854
ATOM      2  C   UNL d   1       8.659  10.547  27.897 -0.34 +0.01    +0.064    34.854
ATOM      3  C   UNL d   1       6.628  14.902  27.818 -0.46 +0.01    +0.064    34.854
ATOM      4  C   UNL d   1       7.002  15.075  32.706 -0.22 +0.05    +0.064    34.854
ATOM      5  C   UNL d   1       8.785  10.163  31.361 -0.36 +0.02    +0.066    34.854
ATOM      6  C   UNL d   1       9.333   8.946  30.946 -0.39 -0.01    -0.021    34.854
ATOM      7  C   UNL d   1       9.390   8.974  29.572 -0.40 -0.01    -0.025    34.854
ATOM      8  C   UNL d   1       8.831  10.188  29.184 -0.38 +0.01    +0.066    34.854
ATOM      9  C   UNL d   1       9.987   7.885  28.708 -0.42 +0.01    +0.051    34.854
ATOM     10  C   UNL d   1       8.058  11.796  27.428 -0.22 +0.00    +0.066    34.854
ATOM     11  C   UNL d   1       7.755  12.048  26.085 -0.34 -0.00    -0.021    34.854
ATOM     12  C   UNL d   1       7.152  13.292  26.044 -0.39 +0.00    +0.000    34.854
ATOM     13  C   UNL d   1       7.132  13.744  27.393 -0.34 +0.01    +0.070    34.854
ATOM     14  C   UNL d   1       8.004  11.129  24.895 -0.41 +0.00    +0.052    34.854
ATOM     15  C   UNL d   1       6.621  15.411  29.168 -0.39 +0.01    +0.066    34.854
ATOM     16  C   UNL d   1       6.227  16.701  29.524 -0.40 -0.00    -0.021    34.854
ATOM     17  C   UNL d   1       6.326  16.774  30.914 -0.29 +0.00    +0.000    34.854
ATOM     18  C   UNL d   1       6.777  15.506  31.306 -0.30 +0.03    +0.070    34.854
ATOM     19  C   UNL d   1       5.848  17.754  28.514 -0.24 +0.00    +0.052    34.854
ATOM     20  C   UNL d   1       7.475  13.882  33.115 -0.23 +0.05    +0.066    34.854
ATOM     21  C   UNL d   1       7.650  13.527  34.450 -0.18 -0.02    -0.025    34.854
ATOM     22  C   UNL d   1       8.079  12.219  34.453 -0.19 -0.01    -0.021    34.854
ATOM     23  C   UNL d   1       8.169  11.828  33.113 -0.24 +0.03    +0.066    34.854
ATOM     24  C   UNL d   1       7.421  14.394  35.661 +0.05 +0.08    +0.051    34.854
ATOM     25  N   UNL d   1       8.518  10.947  30.288 -0.16 -0.06    -0.248    34.854
ATOM     26  N   UNL d   1       7.690  12.830  28.227 -0.17 -0.03    -0.248    34.854
ATOM     27  N   UNL d   1       7.022  14.717  30.229 -0.21 -0.07    -0.248    34.854
ATOM     28  N   UNL d   1       7.844  12.856  32.302 -0.14 -0.12    -0.248    34.854
ATOM     29 FE   UNL d   1       7.767  12.846  30.280 -0.08 +0.00    +0.000    34.854
ATOM     30  O   UNL d   1       9.241  12.752  29.789 -0.38 +0.00    +0.000    34.854
ATOM     31  O   UNL d   1       8.799  13.953  30.707 -0.39 +0.00    +0.000    34.854
ATOM     32  C   UNL d   1       9.910   7.852  31.807 -0.50 +0.01    +0.052    34.854
ATOM     33  C   UNL d   1      11.146   8.298  32.583 -0.38 +0.06    +0.115    34.854
ATOM     34  C   UNL d   1      12.371   7.494  32.225 -0.44 +0.09    +0.139    34.854
ATOM     35  O   UNL d   1      13.080   7.855  31.299 -0.15 -0.53    -0.650    34.854
ATOM     36  O   UNL d   1      12.689   6.363  32.888 +0.03 -0.58    -0.776    34.854
ATOM     37  H   UNL d   1      12.071   5.934  33.491 -0.36 +0.03    +0.167    34.854
ATOM     38  C   UNL d   1       8.443  11.417  35.675 -0.20 +0.04    +0.052    34.854
ATOM     39  C   UNL d   1       9.938  11.115  35.749 -0.20 +0.11    +0.115    34.854
ATOM     40  C   UNL d   1      10.738  12.284  36.268 +0.02 +0.18    +0.139    34.854
ATOM     41  O   UNL d   1      11.338  13.003  35.485 -0.43 -1.06    -0.650    34.854
ATOM     42  O   UNL d   1      10.761  12.583  37.581 +0.03 -0.70    -0.776    34.854
ATOM     43  H   UNL d   1      10.054  13.090  37.996 +0.03 +0.11    +0.167    34.854
ATOM     44  C   UNL d   1       6.670  13.909  24.748 -0.45 +0.00    +0.004    34.854
ATOM     45  C   UNL d   1       6.105  15.102  24.570 -0.53 +0.00    +0.012    34.854
ATOM     46  C   UNL d   1       6.094  17.920  31.862 -0.21 +0.00    +0.004    34.854
ATOM     47  C   UNL d   1       5.461  19.076  31.626 -0.26 +0.00    +0.012    34.854
TER
ENDMDL
MODEL       86
USER    Run = 86
USER    Cluster Rank = 7
USER    Number of conformations in this cluster = 2
USER  
USER    RMSD from reference structure       = 29.349 A
USER  
USER    Estimated Free Energy of Binding    =  -11.98 kcal/mol  [=(1)+(2)+(3)-(4)]
USER    Estimated Inhibition Constant, Ki   =    1.65 nM (nanomolar)  [Temperature = 298.15 K]
USER    
USER    (1) Final Intermolecular Energy     =  -14.97 kcal/mol
USER        vdW + Hbond + desolv Energy     =  -12.31 kcal/mol
USER        Electrostatic Energy            =   -2.65 kcal/mol
USER    (2) Final Total Internal Energy     =   -2.03 kcal/mol
USER    (3) Torsional Free Energy           =   +2.98 kcal/mol
USER    (4) Unbound System's Energy  [=(2)] =   -2.03 kcal/mol
USER    
USER    
USER  
USER    DPF = D:/Protein_go_brrr/autodock/final/1A3N/heme_O2/dock.dpf
USER    NEWDPF move	heme_O2_opt.pdbqt
USER    NEWDPF about	8.287000 34.468000 -0.670000
USER    NEWDPF tran0	24.302641 8.081436 -6.753636
USER    NEWDPF axisangle0	0.095172 -0.993601 0.060815 -78.531542
USER    NEWDPF quaternion0	0.060236 -0.628869 0.038491 -0.774218
USER    NEWDPF dihe0	54.63 179.80 58.45 39.96 -77.93 177.84 77.78 74.07 36.76 128.65 
USER  
USER                              x       y       z    vdW   Elec        q     RMS 
ATOM      1  C   UNL d   1      24.611   8.821  -8.718 -0.21 +0.06    +0.064    29.349
ATOM      2  C   UNL d   1      21.630   5.578  -6.942 -0.20 +0.01    +0.064    29.349
ATOM      3  C   UNL d   1      23.440   6.192  -2.533 -0.39 +0.01    +0.064    29.349
ATOM      4  C   UNL d   1      26.184   9.874  -4.262 -0.41 +0.01    +0.064    29.349
ATOM      5  C   UNL d   1      23.651   7.890  -8.594 -0.22 +0.04    +0.066    29.349
ATOM      6  C   UNL d   1      22.890   7.404  -9.661 -0.17 -0.01    -0.021    29.349
ATOM      7  C   UNL d   1      21.997   6.496  -9.142 -0.19 -0.01    -0.025    29.349
ATOM      8  C   UNL d   1      22.270   6.417  -7.779 -0.24 +0.02    +0.066    29.349
ATOM      9  C   UNL d   1      20.928   5.781  -9.938 -0.17 +0.02    +0.051    29.349
ATOM     10  C   UNL d   1      21.887   5.434  -5.509 -0.28 +0.01    +0.066    29.349
ATOM     11  C   UNL d   1      21.310   4.433  -4.720 -0.41 -0.00    -0.021    29.349
ATOM     12  C   UNL d   1      21.833   4.582  -3.449 -0.42 +0.00    +0.000    29.349
ATOM     13  C   UNL d   1      22.711   5.698  -3.534 -0.33 +0.01    +0.070    29.349
ATOM     14  C   UNL d   1      20.321   3.362  -5.166 -0.51 +0.01    +0.052    29.349
ATOM     15  C   UNL d   1      24.313   7.341  -2.569 -0.32 +0.00    +0.066    29.349
ATOM     16  C   UNL d   1      24.922   7.907  -1.450 -0.35 -0.00    -0.021    29.349
ATOM     17  C   UNL d   1      25.709   8.959  -1.918 -0.41 +0.00    +0.000    29.349
ATOM     18  C   UNL d   1      25.520   8.955  -3.307 -0.39 +0.01    +0.070    29.349
ATOM     19  C   UNL d   1      24.658   7.433  -0.042 -0.39 +0.00    +0.052    29.349
ATOM     20  C   UNL d   1      25.993   9.925  -5.594 -0.35 +0.02    +0.066    29.349
ATOM     21  C   UNL d   1      26.660  10.802  -6.445 -0.33 -0.01    -0.025    29.349
ATOM     22  C   UNL d   1      26.245  10.497  -7.722 -0.17 -0.01    -0.021    29.349
ATOM     23  C   UNL d   1      25.322   9.454  -7.601 -0.27 +0.04    +0.066    29.349
ATOM     24  C   UNL d   1      27.642  11.877  -6.059 -0.38 +0.01    +0.051    29.349
ATOM     25  N   UNL d   1      23.245   7.324  -7.431 -0.17 -0.10    -0.248    29.349
ATOM     26  N   UNL d   1      22.734   6.213  -4.789 -0.19 -0.04    -0.248    29.349
ATOM     27  N   UNL d   1      24.613   8.015  -3.676 -0.24 -0.03    -0.248    29.349
ATOM     28  N   UNL d   1      25.138   9.140  -6.302 -0.21 -0.09    -0.248    29.349
ATOM     29 FE   UNL d   1      23.946   7.688  -5.548 -0.07 +0.00    +0.000    29.349
ATOM     30  O   UNL d   1      22.482   8.165  -5.777 -0.38 +0.00    +0.000    29.349
ATOM     31  O   UNL d   1      23.470   9.055  -4.933 -0.41 +0.00    +0.000    29.349
ATOM     32  C   UNL d   1      22.904   7.872 -11.094 -0.12 +0.04    +0.052    29.349
ATOM     33  C   UNL d   1      23.275   6.764 -12.075 -0.07 +0.08    +0.115    29.349
ATOM     34  C   UNL d   1      24.687   6.900 -12.589 +0.12 +0.19    +0.139    29.349
ATOM     35  O   UNL d   1      25.430   5.931 -12.575 -0.23 -1.04    -0.650    29.349
ATOM     36  O   UNL d   1      25.161   8.080 -13.040 +0.06 -1.14    -0.776    29.349
ATOM     37  H   UNL d   1      25.136   8.879 -12.502 +0.01 +0.28    +0.167    29.349
ATOM     38  C   UNL d   1      26.667  11.216  -8.977 -0.04 +0.03    +0.052    29.349
ATOM     39  C   UNL d   1      25.476  11.633  -9.837 -0.14 +0.06    +0.115    29.349
ATOM     40  C   UNL d   1      25.341  10.792 -11.082 -0.10 +0.12    +0.139    29.349
ATOM     41  O   UNL d   1      26.342  10.427 -11.678 -0.54 -0.83    -0.650    29.349
ATOM     42  O   UNL d   1      24.133  10.391 -11.523 -0.01 -0.54    -0.776    29.349
ATOM     43  H   UNL d   1      24.042   9.822 -12.297 +0.02 +0.12    +0.167    29.349
ATOM     44  C   UNL d   1      21.446   3.665  -2.307 -0.46 +0.00    +0.004    29.349
ATOM     45  C   UNL d   1      20.971   4.004  -1.110 -0.48 +0.00    +0.012    29.349
ATOM     46  C   UNL d   1      26.548   9.969  -1.182 -0.53 +0.00    +0.004    29.349
ATOM     47  C   UNL d   1      27.234   9.804  -0.044 -0.60 +0.00    +0.012    29.349
TER
ENDMDL
MODEL       77
USER    Run = 77
USER    Cluster Rank = 8
USER    Number of conformations in this cluster = 5
USER  
USER    RMSD from reference structure       = 50.721 A
USER  
USER    Estimated Free Energy of Binding    =  -11.83 kcal/mol  [=(1)+(2)+(3)-(4)]
USER    Estimated Inhibition Constant, Ki   =    2.14 nM (nanomolar)  [Temperature = 298.15 K]
USER    
USER    (1) Final Intermolecular Energy     =  -14.81 kcal/mol
USER        vdW + Hbond + desolv Energy     =  -13.26 kcal/mol
USER        Electrostatic Energy            =   -1.55 kcal/mol
USER    (2) Final Total Internal Energy     =   -0.61 kcal/mol
USER    (3) Torsional Free Energy           =   +2.98 kcal/mol
USER    (4) Unbound System's Energy  [=(2)] =   -0.61 kcal/mol
USER    
USER    
USER  
USER    DPF = D:/Protein_go_brrr/autodock/final/1A3N/heme_O2/dock.dpf
USER    NEWDPF move	heme_O2_opt.pdbqt
USER    NEWDPF about	8.287000 34.468000 -0.670000
USER    NEWDPF tran0	23.228543 -6.779798 32.661593
USER    NEWDPF axisangle0	0.486123 0.873600 -0.022532 -109.404864
USER    NEWDPF quaternion0	0.396755 0.712999 -0.018390 -0.577823
USER    NEWDPF dihe0	-69.47 114.05 114.54 -50.72 108.33 -87.93 -73.33 -78.11 170.38 -168.44 
USER  
USER                              x       y       z    vdW   Elec        q     RMS 
ATOM      1  C   UNL d   1      22.967  -6.998  34.755 -0.13 +0.01    +0.064    50.721
ATOM      2  C   UNL d   1      24.346 -10.022  31.362 -0.34 +0.01    +0.064    50.721
ATOM      3  C   UNL d   1      23.823  -6.630  27.998 -0.44 +0.00    +0.064    50.721
ATOM      4  C   UNL d   1      22.863  -3.377  31.543 -0.43 +0.01    +0.064    50.721
ATOM      5  C   UNL d   1      23.386  -8.097  34.107 -0.30 +0.01    +0.066    50.721
ATOM      6  C   UNL d   1      23.636  -9.325  34.727 -0.27 -0.01    -0.021    50.721
ATOM      7  C   UNL d   1      24.076 -10.189  33.753 -0.26 -0.00    -0.025    50.721
ATOM      8  C   UNL d   1      24.038  -9.479  32.556 -0.28 +0.01    +0.066    50.721
ATOM      9  C   UNL d   1      24.533 -11.610  33.998 -0.06 +0.01    +0.051    50.721
ATOM     10  C   UNL d   1      24.303  -9.334  30.071 -0.38 +0.00    +0.066    50.721
ATOM     11  C   UNL d   1      24.473  -9.988  28.845 -0.49 -0.00    -0.021    50.721
ATOM     12  C   UNL d   1      24.308  -9.030  27.862 -0.47 +0.00    +0.000    50.721
ATOM     13  C   UNL d   1      24.053  -7.817  28.559 -0.40 +0.00    +0.070    50.721
ATOM     14  C   UNL d   1      24.754 -11.469  28.620 -0.32 +0.00    +0.052    50.721
ATOM     15  C   UNL d   1      23.596  -5.372  28.669 -0.38 +0.00    +0.066    50.721
ATOM     16  C   UNL d   1      23.525  -4.136  28.028 -0.43 -0.00    -0.021    50.721
ATOM     17  C   UNL d   1      23.253  -3.193  29.019 -0.45 +0.00    +0.000    50.721
ATOM     18  C   UNL d   1      23.175  -3.935  30.206 -0.39 +0.01    +0.070    50.721
ATOM     19  C   UNL d   1      23.776  -3.959  26.552 -0.54 +0.00    +0.052    50.721
ATOM     20  C   UNL d   1      22.823  -4.053  32.708 -0.40 +0.01    +0.066    50.721
ATOM     21  C   UNL d   1      22.506  -3.477  33.934 -0.41 -0.00    -0.025    50.721
ATOM     22  C   UNL d   1      22.504  -4.499  34.857 -0.23 -0.00    -0.021    50.721
ATOM     23  C   UNL d   1      22.839  -5.663  34.159 -0.22 +0.01    +0.066    50.721
ATOM     24  C   UNL d   1      22.223  -2.023  34.213 -0.47 +0.00    +0.051    50.721
ATOM     25  N   UNL d   1      23.676  -8.172  32.785 -0.15 -0.03    -0.248    50.721
ATOM     26  N   UNL d   1      24.056  -8.010  29.903 -0.19 +0.00    -0.248    50.721
ATOM     27  N   UNL d   1      23.460  -5.244  29.986 -0.25 -0.01    -0.248    50.721
ATOM     28  N   UNL d   1      23.076  -5.380  32.862 -0.25 -0.03    -0.248    50.721
ATOM     29 FE   UNL d   1      23.563  -6.683  31.391 -0.09 -0.00    +0.000    50.721
ATOM     30  O   UNL d   1      25.016  -7.154  31.691 -0.16 +0.00    +0.000    50.721
ATOM     31  O   UNL d   1      24.719  -5.621  31.482 -0.03 +0.00    +0.000    50.721
ATOM     32  C   UNL d   1      23.594  -9.640  36.200 -0.20 +0.02    +0.052    50.721
ATOM     33  C   UNL d   1      24.983  -9.802  36.810 -0.14 +0.07    +0.115    50.721
ATOM     34  C   UNL d   1      25.393  -8.606  37.634 +0.02 +0.17    +0.139    50.721
ATOM     35  O   UNL d   1      25.167  -7.481  37.218 -0.29 -0.68    -0.650    50.721
ATOM     36  O   UNL d   1      26.032  -8.750  38.813 -0.40 -1.26    -0.776    50.721
ATOM     37  H   UNL d   1      25.593  -9.113  39.592 +0.01 +0.14    +0.167    50.721
ATOM     38  C   UNL d   1      22.257  -4.347  36.335 +0.01 +0.01    +0.052    50.721
ATOM     39  C   UNL d   1      23.362  -3.557  37.032 -0.16 +0.02    +0.115    50.721
ATOM     40  C   UNL d   1      22.972  -2.122  37.288 -0.18 +0.01    +0.139    50.721
ATOM     41  O   UNL d   1      21.965  -1.874  37.932 +0.04 -0.05    -0.650    50.721
ATOM     42  O   UNL d   1      23.745  -1.105  36.861 +0.06 +0.01    -0.776    50.721
ATOM     43  H   UNL d   1      23.426  -0.467  36.211 -0.36 -0.04    +0.167    50.721
ATOM     44  C   UNL d   1      24.413  -9.363  26.388 -0.18 +0.00    +0.004    50.721
ATOM     45  C   UNL d   1      25.504  -9.698  25.700 -0.63 +0.00    +0.012    50.721
ATOM     46  C   UNL d   1      23.123  -1.695  28.949 -0.60 +0.00    +0.004    50.721
ATOM     47  C   UNL d   1      24.024  -0.805  28.512 -0.64 +0.00    +0.012    50.721
TER
ENDMDL
MODEL       39
USER    Run = 39
USER    Cluster Rank = 9
USER    Number of conformations in this cluster = 1
USER  
USER    RMSD from reference structure       = 30.256 A
USER  
USER    Estimated Free Energy of Binding    =  -10.89 kcal/mol  [=(1)+(2)+(3)-(4)]
USER    Estimated Inhibition Constant, Ki   =   10.46 nM (nanomolar)  [Temperature = 298.15 K]
USER    
USER    (1) Final Intermolecular Energy     =  -13.87 kcal/mol
USER        vdW + Hbond + desolv Energy     =  -12.08 kcal/mol
USER        Electrostatic Energy            =   -1.79 kcal/mol
USER    (2) Final Total Internal Energy     =   -0.74 kcal/mol
USER    (3) Torsional Free Energy           =   +2.98 kcal/mol
USER    (4) Unbound System's Energy  [=(2)] =   -0.74 kcal/mol
USER    
USER    
USER  
USER    DPF = D:/Protein_go_brrr/autodock/final/1A3N/heme_O2/dock.dpf
USER    NEWDPF move	heme_O2_opt.pdbqt
USER    NEWDPF about	8.287000 34.468000 -0.670000
USER    NEWDPF tran0	22.975753 5.973823 -6.677190
USER    NEWDPF axisangle0	-0.511029 -0.445792 0.734928 -56.790583
USER    NEWDPF quaternion0	-0.243021 -0.211997 0.349496 -0.879688
USER    NEWDPF dihe0	17.25 -35.25 42.86 29.40 -61.65 -50.92 81.26 154.78 -158.88 -13.11 
USER  
USER                              x       y       z    vdW   Elec        q     RMS 
ATOM      1  C   UNL d   1      21.857   4.792  -8.037 -0.29 +0.02    +0.064    30.256
ATOM      2  C   UNL d   1      22.023   4.932  -3.293 -0.37 +0.01    +0.064    30.256
ATOM      3  C   UNL d   1      25.366   8.382  -3.420 -0.40 +0.01    +0.064    30.256
ATOM      4  C   UNL d   1      24.858   8.582  -8.295 -0.23 +0.06    +0.064    30.256
ATOM      5  C   UNL d   1      21.628   4.550  -6.736 -0.34 +0.01    +0.066    30.256
ATOM      6  C   UNL d   1      20.731   3.587  -6.265 -0.43 -0.00    -0.021    30.256
ATOM      7  C   UNL d   1      20.746   3.656  -4.892 -0.38 -0.00    -0.025    30.256
ATOM      8  C   UNL d   1      21.688   4.627  -4.561 -0.37 +0.01    +0.066    30.256
ATOM      9  C   UNL d   1      19.864   2.838  -3.974 -0.33 +0.01    +0.051    30.256
ATOM     10  C   UNL d   1      23.019   5.924  -2.884 -0.34 +0.01    +0.066    30.256
ATOM     11  C   UNL d   1      23.446   6.085  -1.561 -0.37 -0.00    -0.021    30.256
ATOM     12  C   UNL d   1      24.423   7.063  -1.580 -0.36 +0.00    +0.000    30.256
ATOM     13  C   UNL d   1      24.530   7.460  -2.941 -0.31 +0.01    +0.070    30.256
ATOM     14  C   UNL d   1      22.961   5.320  -0.335 -0.34 +0.00    +0.052    30.256
ATOM     15  C   UNL d   1      25.481   8.837  -4.784 -0.40 +0.01    +0.066    30.256
ATOM     16  C   UNL d   1      26.259   9.919  -5.194 -0.42 -0.00    -0.021    30.256
ATOM     17  C   UNL d   1      26.129   9.996  -6.580 -0.34 +0.00    +0.000    30.256
ATOM     18  C   UNL d   1      25.272   8.939  -6.917 -0.31 +0.03    +0.070    30.256
ATOM     19  C   UNL d   1      27.004  10.808  -4.230 -0.10 +0.00    +0.052    30.256
ATOM     20  C   UNL d   1      24.003   7.603  -8.650 -0.23 +0.05    +0.066    30.256
ATOM     21  C   UNL d   1      23.665   7.301  -9.966 -0.13 -0.02    -0.025    30.256
ATOM     22  C   UNL d   1      22.832   6.206  -9.913 -0.16 -0.01    -0.021    30.256
ATOM     23  C   UNL d   1      22.678   5.890  -8.560 -0.22 +0.03    +0.066    30.256
ATOM     24  C   UNL d   1      24.111   8.024 -11.211 +0.01 +0.07    +0.051    30.256
ATOM     25  N   UNL d   1      22.183   5.222  -5.698 -0.24 -0.04    -0.248    30.256
ATOM     26  N   UNL d   1      23.669   6.765  -3.727 -0.17 -0.03    -0.248    30.256
ATOM     27  N   UNL d   1      24.829   8.294  -5.808 -0.20 -0.07    -0.248    30.256
ATOM     28  N   UNL d   1      23.356   6.769  -7.793 -0.15 -0.11    -0.248    30.256
ATOM     29 FE   UNL d   1      23.513   6.769  -5.775 -0.07 +0.00    +0.000    30.256
ATOM     30  O   UNL d   1      22.112   7.172  -5.230 -0.13 +0.00    +0.000    30.256
ATOM     31  O   UNL d   1      22.882   8.146  -6.200 -0.41 +0.00    +0.000    30.256
ATOM     32  C   UNL d   1      19.792   2.727  -7.072 -0.47 +0.00    +0.052    30.256
ATOM     33  C   UNL d   1      18.581   3.498  -7.590 -0.12 +0.03    +0.115    30.256
ATOM     34  C   UNL d   1      17.345   3.251  -6.761 -0.45 +0.06    +0.139    30.256
ATOM     35  O   UNL d   1      16.522   4.143  -6.625 -0.13 -0.45    -0.650    30.256
ATOM     36  O   UNL d   1      17.138   2.071  -6.141 +0.07 -0.37    -0.776    30.256
ATOM     37  H   UNL d   1      17.852   1.442  -5.989 -0.41 +0.01    +0.167    30.256
ATOM     38  C   UNL d   1      22.173   5.546 -11.097 -0.13 +0.02    +0.052    30.256
ATOM     39  C   UNL d   1      23.043   4.453 -11.713 -0.16 +0.05    +0.115    30.256
ATOM     40  C   UNL d   1      24.514   4.682 -11.469 -0.18 +0.11    +0.139    30.256
ATOM     41  O   UNL d   1      25.057   4.161 -10.508 -0.01 -0.45    -0.650    30.256
ATOM     42  O   UNL d   1      25.256   5.411 -12.324 -0.15 -0.98    -0.776    30.256
ATOM     43  H   UNL d   1      25.069   5.423 -13.271 +0.03 +0.14    +0.167    30.256
ATOM     44  C   UNL d   1      25.136   7.511  -0.321 -0.41 +0.00    +0.004    30.256
ATOM     45  C   UNL d   1      25.508   8.746   0.014 -0.45 +0.00    +0.012    30.256
ATOM     46  C   UNL d   1      26.681  10.986  -7.571 -0.27 +0.00    +0.004    30.256
ATOM     47  C   UNL d   1      27.748  11.785  -7.438 -0.30 +0.00    +0.012    30.256
TER
ENDMDL
MODEL       35
USER    Run = 35
USER    Cluster Rank = 10
USER    Number of conformations in this cluster = 10
USER  
USER    RMSD from reference structure       = 41.222 A
USER  
USER    Estimated Free Energy of Binding    =  -10.88 kcal/mol  [=(1)+(2)+(3)-(4)]
USER    Estimated Inhibition Constant, Ki   =   10.65 nM (nanomolar)  [Temperature = 298.15 K]
USER    
USER    (1) Final Intermolecular Energy     =  -13.86 kcal/mol
USER        vdW + Hbond + desolv Energy     =  -11.56 kcal/mol
USER        Electrostatic Energy            =   -2.30 kcal/mol
USER    (2) Final Total Internal Energy     =   -1.92 kcal/mol
USER    (3) Torsional Free Energy           =   +2.98 kcal/mol
USER    (4) Unbound System's Energy  [=(2)] =   -1.92 kcal/mol
USER    
USER    
USER  
USER    DPF = D:/Protein_go_brrr/autodock/final/1A3N/heme_O2/dock.dpf
USER    NEWDPF move	heme_O2_opt.pdbqt
USER    NEWDPF about	8.287000 34.468000 -0.670000
USER    NEWDPF tran0	0.962028 -8.096539 -6.007889
USER    NEWDPF axisangle0	0.694540 0.126772 0.708197 179.588582
USER    NEWDPF quaternion0	0.694535 0.126771 0.708193 0.003590
USER    NEWDPF dihe0	35.14 -147.51 44.49 -29.47 -106.36 -146.44 136.38 82.91 31.48 99.94 
USER  
USER                              x       y       z    vdW   Elec        q     RMS 
ATOM      1  C   UNL d   1       0.351  -9.147  -7.747 -0.19 +0.03    +0.064    41.222
ATOM      2  C   UNL d   1       3.459  -5.622  -7.054 -0.27 +0.01    +0.064    41.222
ATOM      3  C   UNL d   1       2.460  -5.541  -2.354 -0.38 +0.00    +0.064    41.222
ATOM      4  C   UNL d   1      -0.388  -9.487  -2.974 -0.41 +0.00    +0.064    41.222
ATOM      5  C   UNL d   1       1.279  -8.196  -7.941 -0.21 +0.03    +0.066    41.222
ATOM      6  C   UNL d   1       1.824  -7.879  -9.189 -0.16 -0.01    -0.021    41.222
ATOM      7  C   UNL d   1       2.756  -6.888  -8.983 -0.19 -0.01    -0.025    41.222
ATOM      8  C   UNL d   1       2.719  -6.594  -7.623 -0.22 +0.02    +0.066    41.222
ATOM      9  C   UNL d   1       3.643  -6.297 -10.057 -0.12 +0.01    +0.051    41.222
ATOM     10  C   UNL d   1       3.446  -5.253  -5.638 -0.32 +0.01    +0.066    41.222
ATOM     11  C   UNL d   1       4.109  -4.130  -5.130 -0.45 -0.00    -0.021    41.222
ATOM     12  C   UNL d   1       3.819  -4.080  -3.779 -0.44 +0.00    +0.000    41.222
ATOM     13  C   UNL d   1       2.986  -5.206  -3.532 -0.30 +0.01    +0.070    41.222
ATOM     14  C   UNL d   1       4.962  -3.133  -5.905 -0.53 +0.00    +0.052    41.222
ATOM     15  C   UNL d   1       1.641  -6.691  -2.056 -0.28 +0.00    +0.066    41.222
ATOM     16  C   UNL d   1       1.258  -7.077  -0.771 -0.28 -0.00    -0.021    41.222
ATOM     17  C   UNL d   1       0.446  -8.201  -0.923 -0.45 +0.00    +0.000    41.222
ATOM     18  C   UNL d   1       0.392  -8.418  -2.307 -0.38 +0.01    +0.070    41.222
ATOM     19  C   UNL d   1       1.740  -6.379   0.475 -0.41 +0.00    +0.052    41.222
ATOM     20  C   UNL d   1      -0.427  -9.750  -4.295 -0.32 +0.01    +0.066    41.222
ATOM     21  C   UNL d   1      -1.195 -10.761  -4.867 -0.25 -0.00    -0.025    41.222
ATOM     22  C   UNL d   1      -1.018 -10.661  -6.228 -0.17 -0.00    -0.021    41.222
ATOM     23  C   UNL d   1      -0.131  -9.601  -6.437 -0.21 +0.02    +0.066    41.222
ATOM     24  C   UNL d   1      -2.051 -11.772  -4.150 -0.29 -0.00    +0.051    41.222
ATOM     25  N   UNL d   1       1.856  -7.445  -6.972 -0.16 -0.09    -0.248    41.222
ATOM     26  N   UNL d   1       2.768  -5.916  -4.668 -0.16 -0.05    -0.248    41.222
ATOM     27  N   UNL d   1       1.183  -7.539  -2.973 -0.23 -0.02    -0.248    41.222
ATOM     28  N   UNL d   1       0.261  -9.079  -5.256 -0.19 -0.06    -0.248    41.222
ATOM     29 FE   UNL d   1       1.505  -7.510  -4.961 -0.07 +0.00    +0.000    41.222
ATOM     30  O   UNL d   1       2.926  -7.999  -5.367 -0.38 +0.00    +0.000    41.222
ATOM     31  O   UNL d   1       2.134  -8.754  -4.233 -0.12 +0.00    +0.000    41.222
ATOM     32  C   UNL d   1       1.583  -8.571 -10.505 -0.08 +0.02    +0.052    41.222
ATOM     33  C   UNL d   1       0.887  -7.677 -11.526 -0.06 +0.05    +0.115    41.222
ATOM     34  C   UNL d   1      -0.284  -6.932 -10.934 +0.03 +0.16    +0.139    41.222
ATOM     35  O   UNL d   1      -0.165  -5.751 -10.648 -0.42 -1.01    -0.650    41.222
ATOM     36  O   UNL d   1      -1.458  -7.548 -10.687 +0.07 -1.18    -0.776    41.222
ATOM     37  H   UNL d   1      -1.501  -8.465 -10.389 +0.02 +0.17    +0.167    41.222
ATOM     38  C   UNL d   1      -1.620 -11.578  -7.262 -0.13 +0.01    +0.052    41.222
ATOM     39  C   UNL d   1      -0.846 -11.560  -8.578 -0.08 +0.02    +0.115    41.222
ATOM     40  C   UNL d   1      -1.476 -10.653  -9.605 -0.08 +0.05    +0.139    41.222
ATOM     41  O   UNL d   1      -2.512 -10.065  -9.340 -0.02 -0.35    -0.650    41.222
ATOM     42  O   UNL d   1      -0.888 -10.438 -10.798 +0.02 -0.25    -0.776    41.222
ATOM     43  H   UNL d   1      -0.937  -9.581 -11.237 +0.01 +0.07    +0.167    41.222
ATOM     44  C   UNL d   1       4.359  -2.986  -2.881 -0.53 +0.00    +0.004    41.222
ATOM     45  C   UNL d   1       4.818  -3.101  -1.636 -0.55 +0.00    +0.012    41.222
ATOM     46  C   UNL d   1      -0.213  -9.089   0.098 -0.57 -0.00    +0.004    41.222
ATOM     47  C   UNL d   1       0.259  -9.471   1.292 -0.66 -0.00    +0.012    41.222
TER
ENDMDL
MODEL       40
USER    Run = 40
USER    Cluster Rank = 11
USER    Number of conformations in this cluster = 2
USER  
USER    RMSD from reference structure       = 40.111 A
USER  
USER    Estimated Free Energy of Binding    =  -10.73 kcal/mol  [=(1)+(2)+(3)-(4)]
USER    Estimated Inhibition Constant, Ki   =   13.63 nM (nanomolar)  [Temperature = 298.15 K]
USER    
USER    (1) Final Intermolecular Energy     =  -13.71 kcal/mol
USER        vdW + Hbond + desolv Energy     =  -12.14 kcal/mol
USER        Electrostatic Energy            =   -1.57 kcal/mol
USER    (2) Final Total Internal Energy     =   -0.71 kcal/mol
USER    (3) Torsional Free Energy           =   +2.98 kcal/mol
USER    (4) Unbound System's Energy  [=(2)] =   -0.71 kcal/mol
USER    
USER    
USER  
USER    DPF = D:/Protein_go_brrr/autodock/final/1A3N/heme_O2/dock.dpf
USER    NEWDPF move	heme_O2_opt.pdbqt
USER    NEWDPF about	8.287000 34.468000 -0.670000
USER    NEWDPF tran0	2.128293 -6.270329 -6.255029
USER    NEWDPF axisangle0	0.261559 -0.268848 0.926988 135.575689
USER    NEWDPF quaternion0	0.242149 -0.248897 0.858197 0.378037
USER    NEWDPF dihe0	52.05 -8.32 53.49 119.24 -21.87 -53.55 -49.70 167.64 -173.39 -12.65 
USER  
USER                              x       y       z    vdW   Elec        q     RMS 
ATOM      1  C   UNL d   1       3.080  -4.992  -7.655 -0.29 +0.02    +0.064    40.111
ATOM      2  C   UNL d   1       3.176  -5.191  -2.910 -0.20 +0.00    +0.064    40.111
ATOM      3  C   UNL d   1       0.106  -8.888  -2.911 -0.46 +0.01    +0.064    40.111
ATOM      4  C   UNL d   1       0.370  -9.001  -7.809 -0.19 +0.03    +0.064    40.111
ATOM      5  C   UNL d   1       3.358  -4.745  -6.364 -0.31 +0.01    +0.066    40.111
ATOM      6  C   UNL d   1       4.201  -3.720  -5.927 -0.45 -0.00    -0.021    40.111
ATOM      7  C   UNL d   1       4.264  -3.804  -4.556 -0.45 -0.00    -0.025    40.111
ATOM      8  C   UNL d   1       3.419  -4.848  -4.190 -0.33 +0.01    +0.066    40.111
ATOM      9  C   UNL d   1       5.128  -2.929  -3.674 -0.50 +0.00    +0.051    40.111
ATOM     10  C   UNL d   1       2.282  -6.261  -2.464 -0.21 +0.00    +0.066    40.111
ATOM     11  C   UNL d   1       1.939  -6.468  -1.123 -0.35 -0.00    -0.021    40.111
ATOM     12  C   UNL d   1       1.041  -7.519  -1.105 -0.38 +0.00    +0.000    40.111
ATOM     13  C   UNL d   1       0.892  -7.909  -2.465 -0.31 +0.01    +0.070    40.111
ATOM     14  C   UNL d   1       2.427  -5.679   0.086 -0.43 +0.00    +0.052    40.111
ATOM     15  C   UNL d   1      -0.046  -9.337  -4.274 -0.34 +0.01    +0.066    40.111
ATOM     16  C   UNL d   1      -0.758 -10.473  -4.658 -0.29 -0.00    -0.021    40.111
ATOM     17  C   UNL d   1      -0.696 -10.526  -6.050 -0.21 +0.00    +0.000    40.111
ATOM     18  C   UNL d   1       0.058  -9.403  -6.417 -0.22 +0.02    +0.070    40.111
ATOM     19  C   UNL d   1      -1.381 -11.426  -3.669 -0.31 +0.00    +0.052    40.111
ATOM     20  C   UNL d   1       1.126  -7.955  -8.194 -0.21 +0.03    +0.066    40.111
ATOM     21  C   UNL d   1       1.371  -7.615  -9.522 -0.16 -0.01    -0.025    40.111
ATOM     22  C   UNL d   1       2.118  -6.459  -9.497 -0.17 -0.01    -0.021    40.111
ATOM     23  C   UNL d   1       2.319  -6.145  -8.149 -0.22 +0.03    +0.066    40.111
ATOM     24  C   UNL d   1       0.916  -8.358 -10.751 -0.09 +0.02    +0.051    40.111
ATOM     25  N   UNL d   1       2.912  -5.469  -5.308 -0.18 -0.06    -0.248    40.111
ATOM     26  N   UNL d   1       1.654  -7.142  -3.284 -0.22 -0.02    -0.248    40.111
ATOM     27  N   UNL d   1       0.507  -8.735  -5.323 -0.20 -0.06    -0.248    40.111
ATOM     28  N   UNL d   1       1.752  -7.081  -7.361 -0.13 -0.10    -0.248    40.111
ATOM     29 FE   UNL d   1       1.702  -7.114  -5.338 -0.07 +0.00    +0.000    40.111
ATOM     30  O   UNL d   1       3.157  -7.412  -4.871 -0.18 +0.00    +0.000    40.111
ATOM     31  O   UNL d   1       2.414  -8.433  -5.813 -0.39 +0.00    +0.000    40.111
ATOM     32  C   UNL d   1       5.028  -2.783  -6.769 -0.41 +0.00    +0.052    40.111
ATOM     33  C   UNL d   1       6.422  -3.327  -7.067 -0.47 +0.00    +0.115    40.111
ATOM     34  C   UNL d   1       6.746  -3.302  -8.540 -0.38 -0.00    +0.139    40.111
ATOM     35  O   UNL d   1       7.772  -3.827  -8.941 -0.05 +0.04    -0.650    40.111
ATOM     36  O   UNL d   1       5.938  -2.686  -9.428 +0.12 +0.08    -0.776    40.111
ATOM     37  H   UNL d   1       5.654  -1.772  -9.312 -0.47 -0.08    +0.167    40.111
ATOM     38  C   UNL d   1       2.661  -5.739 -10.704 -0.11 +0.02    +0.052    40.111
ATOM     39  C   UNL d   1       1.682  -4.703 -11.252 -0.12 +0.05    +0.115    40.111
ATOM     40  C   UNL d   1       0.296  -4.860 -10.679 -0.18 +0.14    +0.139    40.111
ATOM     41  O   UNL d   1      -0.015  -4.251  -9.668 -0.12 -0.82    -0.650    40.111
ATOM     42  O   UNL d   1      -0.628  -5.624 -11.294 -0.19 -1.07    -0.776    40.111
ATOM     43  H   UNL d   1      -0.459  -6.027 -12.154 +0.03 +0.13    +0.167    40.111
ATOM     44  C   UNL d   1       0.432  -8.033   0.183 -0.45 +0.00    +0.004    40.111
ATOM     45  C   UNL d   1       0.350  -9.295   0.603 -0.61 -0.00    +0.012    40.111
ATOM     46  C   UNL d   1      -1.222 -11.546  -7.025 -0.16 +0.00    +0.004    40.111
ATOM     47  C   UNL d   1      -2.203 -11.403  -7.925 -0.13 +0.00    +0.012    40.111
TER
ENDMDL
MODEL       24
USER    Run = 24
USER    Cluster Rank = 12
USER    Number of conformations in this cluster = 1
USER  
USER    RMSD from reference structure       = 30.872 A
USER  
USER    Estimated Free Energy of Binding    =   -8.43 kcal/mol  [=(1)+(2)+(3)-(4)]
USER    Estimated Inhibition Constant, Ki   =  663.92 nM (nanomolar)  [Temperature = 298.15 K]
USER    
USER    (1) Final Intermolecular Energy     =  -11.41 kcal/mol
USER        vdW + Hbond + desolv Energy     =   -9.32 kcal/mol
USER        Electrostatic Energy            =   -2.10 kcal/mol
USER    (2) Final Total Internal Energy     =   -0.54 kcal/mol
USER    (3) Torsional Free Energy           =   +2.98 kcal/mol
USER    (4) Unbound System's Energy  [=(2)] =   -0.54 kcal/mol
USER    
USER    
USER  
USER    DPF = D:/Protein_go_brrr/autodock/final/1A3N/heme_O2/dock.dpf
USER    NEWDPF move	heme_O2_opt.pdbqt
USER    NEWDPF about	8.287000 34.468000 -0.670000
USER    NEWDPF tran0	15.855066 4.166400 13.786531
USER    NEWDPF axisangle0	0.264475 0.034251 0.963784 -109.001707
USER    NEWDPF quaternion0	0.215316 0.027885 0.784640 -0.580691
USER    NEWDPF dihe0	-117.84 10.15 -101.18 -77.32 -137.11 -179.53 -133.76 -110.84 -28.47 107.64 
USER  
USER                              x       y       z    vdW   Elec        q     RMS 
ATOM      1  C   UNL d   1      15.453   2.410  12.668 -0.15 +0.03    +0.064    30.872
ATOM      2  C   UNL d   1      19.004   3.614  15.583 -0.19 -0.00    +0.064    30.872
ATOM      3  C   UNL d   1      17.058   7.946  16.314 -0.22 +0.03    +0.064    30.872
ATOM      4  C   UNL d   1      13.154   6.545  13.695 -0.17 +0.04    +0.064    30.872
ATOM      5  C   UNL d   1      16.577   2.383  13.402 -0.14 +0.03    +0.066    30.872
ATOM      6  C   UNL d   1      17.456   1.298  13.448 -0.13 -0.00    -0.021    30.872
ATOM      7  C   UNL d   1      18.462   1.628  14.325 -0.15 +0.00    -0.025    30.872
ATOM      8  C   UNL d   1      18.195   2.926  14.754 -0.16 +0.01    +0.066    30.872
ATOM      9  C   UNL d   1      19.593   0.709  14.732 -0.19 -0.02    +0.051    30.872
ATOM     10  C   UNL d   1      18.789   4.984  16.049 -0.20 +0.01    +0.066    30.872
ATOM     11  C   UNL d   1      19.740   5.708  16.776 -0.24 +0.00    -0.021    30.872
ATOM     12  C   UNL d   1      19.205   6.966  16.981 -0.27 +0.00    +0.000    30.872
ATOM     13  C   UNL d   1      17.923   6.934  16.365 -0.22 +0.03    +0.070    30.872
ATOM     14  C   UNL d   1      21.114   5.229  17.231 -0.34 -0.01    +0.052    30.872
ATOM     15  C   UNL d   1      15.738   7.943  15.731 -0.23 +0.04    +0.066    30.872
ATOM     16  C   UNL d   1      14.817   8.982  15.855 -0.25 -0.01    -0.021    30.872
ATOM     17  C   UNL d   1      13.695   8.605  15.116 -0.22 +0.00    +0.000    30.872
ATOM     18  C   UNL d   1      14.022   7.347  14.589 -0.18 +0.04    +0.070    30.872
ATOM     19  C   UNL d   1      15.064  10.205  16.702 -0.38 +0.00    +0.052    30.872
ATOM     20  C   UNL d   1      13.418   5.317  13.207 -0.17 +0.05    +0.066    30.872
ATOM     21  C   UNL d   1      12.570   4.618  12.353 -0.17 -0.01    -0.025    30.872
ATOM     22  C   UNL d   1      13.221   3.449  12.028 -0.18 -0.01    -0.021    30.872
ATOM     23  C   UNL d   1      14.440   3.470  12.713 -0.16 +0.05    +0.066    30.872
ATOM     24  C   UNL d   1      11.205   5.042  11.875 -0.12 +0.02    +0.051    30.872
ATOM     25  N   UNL d   1      16.999   3.365  14.236 -0.09 -0.21    -0.248    30.872
ATOM     26  N   UNL d   1      17.676   5.722  15.804 -0.15 -0.17    -0.248    30.872
ATOM     27  N   UNL d   1      15.234   6.929  15.034 -0.13 -0.23    -0.248    30.872
ATOM     28  N   UNL d   1      14.536   4.587  13.463 -0.09 -0.28    -0.248    30.872
ATOM     29 FE   UNL d   1      16.093   5.153  14.626 -0.05 +0.00    +0.000    30.872
ATOM     30  O   UNL d   1      16.107   4.178  15.839 -0.42 +0.00    +0.000    30.872
ATOM     31  O   UNL d   1      14.826   5.049  15.552 -0.39 +0.00    +0.000    30.872
ATOM     32  C   UNL d   1      17.290  -0.053  12.801 -0.10 +0.00    +0.052    30.872
ATOM     33  C   UNL d   1      17.057   0.036  11.296 -0.17 +0.00    +0.115    30.872
ATOM     34  C   UNL d   1      17.981   1.024  10.628 -0.31 +0.01    +0.139    30.872
ATOM     35  O   UNL d   1      19.165   0.754  10.504 -0.07 -0.04    -0.650    30.872
ATOM     36  O   UNL d   1      17.534   2.218  10.187 +0.03 -0.16    -0.776    30.872
ATOM     37  H   UNL d   1      17.562   2.461   9.254 -0.50 -0.01    +0.167    30.872
ATOM     38  C   UNL d   1      12.668   2.348  11.160 -0.19 +0.00    +0.052    30.872
ATOM     39  C   UNL d   1      13.217   0.975  11.541 -0.17 +0.01    +0.115    30.872
ATOM     40  C   UNL d   1      12.729   0.514  12.892 -0.09 +0.10    +0.139    30.872
ATOM     41  O   UNL d   1      12.558   1.329  13.785 -0.25 -1.07    -0.650    30.872
ATOM     42  O   UNL d   1      12.428  -0.779  13.119 +0.05 -0.41    -0.776    30.872
ATOM     43  H   UNL d   1      12.684  -1.473  12.499 +0.04 +0.04    +0.167    30.872
ATOM     44  C   UNL d   1      19.955   8.047  17.732 -0.33 +0.00    +0.004    30.872
ATOM     45  C   UNL d   1      20.990   8.771  17.307 -0.37 +0.00    +0.012    30.872
ATOM     46  C   UNL d   1      12.365   9.283  14.922 -0.30 +0.00    +0.004    30.872
ATOM     47  C   UNL d   1      11.287   9.235  15.716 -0.46 +0.00    +0.012    30.872
TER
ENDMDL
MODEL       69
USER    Run = 69
USER    Cluster Rank = 13
USER    Number of conformations in this cluster = 1
USER  
USER    RMSD from reference structure       = 54.105 A
USER  
USER    Estimated Free Energy of Binding    =   -7.45 kcal/mol  [=(1)+(2)+(3)-(4)]
USER    Estimated Inhibition Constant, Ki   =    3.45 uM (micromolar)  [Temperature = 298.15 K]
USER    
USER    (1) Final Intermolecular Energy     =  -10.44 kcal/mol
USER        vdW + Hbond + desolv Energy     =   -8.34 kcal/mol
USER        Electrostatic Energy            =   -2.09 kcal/mol
USER    (2) Final Total Internal Energy     =   -0.70 kcal/mol
USER    (3) Torsional Free Energy           =   +2.98 kcal/mol
USER    (4) Unbound System's Energy  [=(2)] =   -0.70 kcal/mol
USER    
USER    
USER  
USER    DPF = D:/Protein_go_brrr/autodock/final/1A3N/heme_O2/dock.dpf
USER    NEWDPF move	heme_O2_opt.pdbqt
USER    NEWDPF about	8.287000 34.468000 -0.670000
USER    NEWDPF tran0	17.686473 -20.663272 12.208191
USER    NEWDPF axisangle0	0.954175 -0.087889 0.286053 -85.285806
USER    NEWDPF quaternion0	0.646384 -0.059538 0.193780 -0.735590
USER    NEWDPF dihe0	-42.93 -70.89 -29.37 124.14 67.25 142.23 113.30 -56.80 -0.03 179.99 
USER  
USER                              x       y       z    vdW   Elec        q     RMS 
ATOM      1  C   UNL d   1      15.622 -20.219  12.009 -0.10 +0.01    +0.064    54.105
ATOM      2  C   UNL d   1      18.292 -23.829  10.459 -0.12 -0.00    +0.064    54.105
ATOM      3  C   UNL d   1      22.226 -21.878  12.411 -0.43 -0.02    +0.064    54.105
ATOM      4  C   UNL d   1      19.407 -18.402  14.420 -0.17 +0.01    +0.064    54.105
ATOM      5  C   UNL d   1      16.027 -21.361  11.429 -0.08 +0.01    +0.066    54.105
ATOM      6  C   UNL d   1      15.182 -22.223  10.724 -0.09 -0.00    -0.021    54.105
ATOM      7  C   UNL d   1      15.945 -23.290  10.312 -0.09 -0.00    -0.025    54.105
ATOM      8  C   UNL d   1      17.245 -23.027  10.735 -0.11 -0.00    +0.066    54.105
ATOM      9  C   UNL d   1      15.415 -24.501   9.575 -0.05 +0.00    +0.051    54.105
ATOM     10  C   UNL d   1      19.680 -23.594  10.856 -0.15 -0.01    +0.066    54.105
ATOM     11  C   UNL d   1      20.752 -24.372  10.404 -0.13 +0.00    -0.021    54.105
ATOM     12  C   UNL d   1      21.898 -23.814  10.942 -0.24 -0.00    +0.000    54.105
ATOM     13  C   UNL d   1      21.448 -22.711  11.719 -0.26 -0.02    +0.070    54.105
ATOM     14  C   UNL d   1      20.689 -25.580   9.476 -0.06 -0.01    +0.052    54.105
ATOM     15  C   UNL d   1      21.808 -20.772  13.237 -0.39 -0.01    +0.066    54.105
ATOM     16  C   UNL d   1      22.657 -20.040  14.067 -0.47 -0.00    -0.021    54.105
ATOM     17  C   UNL d   1      21.875 -19.044  14.651 -0.36 -0.00    +0.000    54.105
ATOM     18  C   UNL d   1      20.591 -19.244  14.125 -0.28 +0.00    +0.070    54.105
ATOM     19  C   UNL d   1      24.110 -20.387  14.269 -0.26 +0.02    +0.052    54.105
ATOM     20  C   UNL d   1      18.152 -18.592  13.967 -0.10 +0.01    +0.066    54.105
ATOM     21  C   UNL d   1      17.080 -17.755  14.264 -0.05 -0.01    -0.025    54.105
ATOM     22  C   UNL d   1      15.999 -18.242  13.564 -0.04 -0.01    -0.021    54.105
ATOM     23  C   UNL d   1      16.449 -19.373  12.876 -0.09 +0.01    +0.066    54.105
ATOM     24  C   UNL d   1      17.086 -16.554  15.174 -0.09 +0.02    +0.051    54.105
ATOM     25  N   UNL d   1      17.282 -21.871  11.480 -0.08 -0.00    -0.248    54.105
ATOM     26  N   UNL d   1      20.098 -22.587  11.665 -0.07 +0.04    -0.248    54.105
ATOM     27  N   UNL d   1      20.553 -20.342  13.328 -0.17 -0.01    -0.248    54.105
ATOM     28  N   UNL d   1      17.747 -19.608  13.160 -0.09 -0.04    -0.248    54.105
ATOM     29 FE   UNL d   1      18.916 -21.086  12.419 -0.05 +0.00    +0.000    54.105
ATOM     30  O   UNL d   1      18.401 -22.409  13.057 -0.15 -0.00    +0.000    54.105
ATOM     31  O   UNL d   1      18.899 -21.237  13.985 -0.20 -0.00    +0.000    54.105
ATOM     32  C   UNL d   1      13.688 -22.121  10.559 -0.07 +0.01    +0.052    54.105
ATOM     33  C   UNL d   1      13.280 -21.191   9.420 -0.13 +0.04    +0.115    54.105
ATOM     34  C   UNL d   1      13.587 -19.745   9.721 -0.06 +0.07    +0.139    54.105
ATOM     35  O   UNL d   1      12.798 -19.085  10.379 -0.17 -0.43    -0.650    54.105
ATOM     36  O   UNL d   1      14.705 -19.151   9.254 -0.50 -0.34    -0.776    54.105
ATOM     37  H   UNL d   1      15.562 -19.593   9.268 -0.21 +0.02    +0.167    54.105
ATOM     38  C   UNL d   1      14.600 -17.684  13.609 -0.03 +0.03    +0.052    54.105
ATOM     39  C   UNL d   1      13.847 -18.104  14.869 -0.05 +0.09    +0.115    54.105
ATOM     40  C   UNL d   1      13.371 -16.922  15.676 -0.05 +0.17    +0.139    54.105
ATOM     41  O   UNL d   1      14.174 -16.261  16.314 -0.03 -0.76    -0.650    54.105
ATOM     42  O   UNL d   1      12.076 -16.549  15.667 -0.45 -1.17    -0.776    54.105
ATOM     43  H   UNL d   1      11.664 -16.178  14.877 +0.02 +0.19    +0.167    54.105
ATOM     44  C   UNL d   1      23.274 -24.383  10.667 -0.32 -0.00    +0.004    54.105
ATOM     45  C   UNL d   1      24.425 -23.722  10.552 -0.41 -0.00    +0.012    54.105
ATOM     46  C   UNL d   1      22.215 -17.992  15.673 -0.39 -0.00    +0.004    54.105
ATOM     47  C   UNL d   1      22.184 -16.660  15.534 -0.50 +0.00    +0.012    54.105
TER
ENDMDL
MODEL       96
USER    Run = 96
USER    Cluster Rank = 14
USER    Number of conformations in this cluster = 1
USER  
USER    RMSD from reference structure       = 17.583 A
USER  
USER    Estimated Free Energy of Binding    =   -6.48 kcal/mol  [=(1)+(2)+(3)-(4)]
USER    Estimated Inhibition Constant, Ki   =   17.65 uM (micromolar)  [Temperature = 298.15 K]
USER    
USER    (1) Final Intermolecular Energy     =   -9.47 kcal/mol
USER        vdW + Hbond + desolv Energy     =   -7.05 kcal/mol
USER        Electrostatic Energy            =   -2.41 kcal/mol
USER    (2) Final Total Internal Energy     =   -0.57 kcal/mol
USER    (3) Torsional Free Energy           =   +2.98 kcal/mol
USER    (4) Unbound System's Energy  [=(2)] =   -0.57 kcal/mol
USER    
USER    
USER  
USER    DPF = D:/Protein_go_brrr/autodock/final/1A3N/heme_O2/dock.dpf
USER    NEWDPF move	heme_O2_opt.pdbqt
USER    NEWDPF about	8.287000 34.468000 -0.670000
USER    NEWDPF tran0	-6.559106 27.261456 11.972660
USER    NEWDPF axisangle0	-0.295330 -0.539747 0.788323 136.345732
USER    NEWDPF quaternion0	-0.274158 -0.501052 0.731808 0.371808
USER    NEWDPF dihe0	-90.89 54.33 113.50 -105.24 -94.04 110.92 80.10 112.94 -12.09 -152.57 
USER  
USER                              x       y       z    vdW   Elec        q     RMS 
ATOM      1  C   UNL d   1      -4.971  28.382  12.823 -0.15 +0.03    +0.064    17.583
ATOM      2  C   UNL d   1      -7.984  25.195  14.646 -0.28 -0.00    +0.064    17.583
ATOM      3  C   UNL d   1     -10.178  24.703  10.399 -0.09 -0.00    +0.064    17.583
ATOM      4  C   UNL d   1      -6.782  27.622   8.398 -0.03 +0.00    +0.064    17.583
ATOM      5  C   UNL d   1      -5.611  27.554  13.665 -0.15 +0.02    +0.066    17.583
ATOM      6  C   UNL d   1      -5.293  27.416  15.019 -0.17 -0.01    -0.021    17.583
ATOM      7  C   UNL d   1      -6.136  26.461  15.538 -0.23 -0.00    -0.025    17.583
ATOM      8  C   UNL d   1      -6.978  26.078  14.498 -0.22 +0.00    +0.066    17.583
ATOM      9  C   UNL d   1      -6.088  25.944  16.959 -0.26 +0.00    +0.051    17.583
ATOM     10  C   UNL d   1      -8.914  24.771  13.598 -0.15 +0.00    +0.066    17.583
ATOM     11  C   UNL d   1     -10.041  23.978  13.844 -0.26 +0.00    -0.021    17.583
ATOM     12  C   UNL d   1     -10.696  23.839  12.635 -0.17 -0.00    +0.000    17.583
ATOM     13  C   UNL d   1      -9.909  24.562  11.696 -0.11 +0.00    +0.070    17.583
ATOM     14  C   UNL d   1     -10.487  23.399  15.182 -0.29 -0.00    +0.052    17.583
ATOM     15  C   UNL d   1      -9.389  25.396   9.410 -0.08 +0.00    +0.066    17.583
ATOM     16  C   UNL d   1      -9.638  25.368   8.038 -0.05 +0.00    -0.021    17.583
ATOM     17  C   UNL d   1      -8.682  26.193   7.446 -0.06 +0.00    +0.000    17.583
ATOM     18  C   UNL d   1      -7.911  26.670   8.516 -0.07 +0.00    +0.070    17.583
ATOM     19  C   UNL d   1     -10.721  24.523   7.416 -0.03 -0.00    +0.052    17.583
ATOM     20  C   UNL d   1      -5.995  28.066   9.397 -0.11 +0.01    +0.066    17.583
ATOM     21  C   UNL d   1      -4.956  28.977   9.227 -0.11 -0.00    -0.025    17.583
ATOM     22  C   UNL d   1      -4.446  29.226  10.481 -0.11 -0.01    -0.021    17.583
ATOM     23  C   UNL d   1      -5.184  28.440  11.372 -0.13 +0.02    +0.066    17.583
ATOM     24  C   UNL d   1      -4.472  29.577   7.932 -0.09 +0.00    +0.051    17.583
ATOM     25  N   UNL d   1      -6.611  26.703  13.329 -0.15 -0.03    -0.248    17.583
ATOM     26  N   UNL d   1      -8.824  25.121  12.290 -0.10 -0.01    -0.248    17.583
ATOM     27  N   UNL d   1      -8.307  26.117   9.691 -0.07 -0.01    -0.248    17.583
ATOM     28  N   UNL d   1      -6.094  27.703  10.703 -0.08 -0.03    -0.248    17.583
ATOM     29 FE   UNL d   1      -7.450  26.421  11.488 -0.04 +0.00    +0.000    17.583
ATOM     30  O   UNL d   1      -6.641  25.195  12.005 -0.39 +0.00    +0.000    17.583
ATOM     31  O   UNL d   1      -6.554  25.605  10.486 -0.39 +0.00    +0.000    17.583
ATOM     32  C   UNL d   1      -4.151  28.052  15.769 -0.20 +0.02    +0.052    17.583
ATOM     33  C   UNL d   1      -4.348  29.549  15.987 -0.09 +0.05    +0.115    17.583
ATOM     34  C   UNL d   1      -3.533  30.383  15.029 -0.09 +0.10    +0.139    17.583
ATOM     35  O   UNL d   1      -4.099  31.085  14.208 -0.03 -0.32    -0.650    17.583
ATOM     36  O   UNL d   1      -2.184  30.349  15.040 -0.36 -1.27    -0.776    17.583
ATOM     37  H   UNL d   1      -1.662  30.954  15.579 +0.02 +0.17    +0.167    17.583
ATOM     38  C   UNL d   1      -3.274  30.120  10.791 -0.11 +0.03    +0.052    17.583
ATOM     39  C   UNL d   1      -2.054  29.800   9.930 -0.13 +0.06    +0.115    17.583
ATOM     40  C   UNL d   1      -1.450  28.458  10.261 -0.25 +0.11    +0.139    17.583
ATOM     41  O   UNL d   1      -0.415  28.402  10.904 -0.24 -1.02    -0.650    17.583
ATOM     42  O   UNL d   1      -2.062  27.313   9.904 +0.01 -0.30    -0.776    17.583
ATOM     43  H   UNL d   1      -2.282  27.123   8.984 -0.41 -0.01    +0.167    17.583
ATOM     44  C   UNL d   1     -11.979  23.045  12.502 -0.15 -0.00    +0.004    17.583
ATOM     45  C   UNL d   1     -12.135  21.724  12.574 -0.26 -0.00    +0.012    17.583
ATOM     46  C   UNL d   1      -8.408  26.511   6.000 -0.05 -0.00    +0.004    17.583
ATOM     47  C   UNL d   1      -7.344  26.167   5.263 -0.07 -0.00    +0.012    17.583
TER
ENDMDL


AVSFLD: # AVS field file
AVSFLD: #
AVSFLD: # Created by AutoDock
AVSFLD: #
AVSFLD: ndim=2           # number of dimensions in the field
AVSFLD: nspace=1         # number of physical coordinates
AVSFLD: veclen=7         # vector size
AVSFLD: dim1=47          # atoms
AVSFLD: dim2=14          # conformations
AVSFLD: data=Real       # data type (byte,integer,Real,double)
AVSFLD: field=uniform    # field coordinate layout
AVSFLD: label= x y z vdW Elec q RMS
AVSFLD: variable 1 file = D:/Protein_go_brrr/autodock/final/1A3N/heme_O2/dock.dlg.pdb filetype = ascii offset = 5 stride = 12
AVSFLD: variable 2 file = D:/Protein_go_brrr/autodock/final/1A3N/heme_O2/dock.dlg.pdb filetype = ascii offset = 6 stride = 12
AVSFLD: variable 3 file = D:/Protein_go_brrr/autodock/final/1A3N/heme_O2/dock.dlg.pdb filetype = ascii offset = 7 stride = 12
AVSFLD: variable 4 file = D:/Protein_go_brrr/autodock/final/1A3N/heme_O2/dock.dlg.pdb filetype = ascii offset = 8 stride = 12
AVSFLD: variable 5 file = D:/Protein_go_brrr/autodock/final/1A3N/heme_O2/dock.dlg.pdb filetype = ascii offset = 9 stride = 12
AVSFLD: variable 6 file = D:/Protein_go_brrr/autodock/final/1A3N/heme_O2/dock.dlg.pdb filetype = ascii offset = 10 stride = 12
AVSFLD: variable 7 file = D:/Protein_go_brrr/autodock/final/1A3N/heme_O2/dock.dlg.pdb filetype = ascii offset = 11 stride = 12
AVSFLD: # end of file

>>> Closing the docking parameter file (DPF)...
This docking finished at:			5:24 41" a.m., 10/16/2025


________________________________________________________________________________

D:/autodockScripts/autodock4.exe: Successful Completion on "ACER"

Real= 12h 10m 53.76s,  CPU= 1m 51.64s,  System= 1m 09.14s
________________________________________________________________________________

